FOO
138240
    1MOL0     O    1   2.567  10.305   9.650 -0.0254 -0.1451  0.2227
    1MOL0     C    2   2.659  10.288   9.569 -0.1285  0.3963 -0.1132
    1MOL0     O    3   2.783  10.349   9.576  0.1974 -0.5685  0.1247
    1MOL0     C    4   2.803  10.454   9.662  1.4104 -0.1635  0.2731
    1MOL0     C    5   2.934  10.481   9.684  0.3751 -0.5506  0.7439
    1MOL0     C    6   2.973  10.585   9.776 -0.3011  0.4351 -1.4962
    1MOL0     C    7   2.873  10.660   9.842 -0.3777 -0.7354 -0.3427
    1MOL0     O    8   2.909  10.775   9.910 -1.2350 -0.5270  0.4384
    1MOL0     C    9   2.903  10.901   9.837 -0.0172 -0.0725 -0.8685
    1MOL0     C   10   2.956  10.997   9.950 -0.5388  0.5974 -0.1564
    1MOL0     C   11   2.986  11.132   9.889  0.7877  0.6720  0.9398
    1MOL0     C   12   3.107  11.207   9.963 -0.3248  0.3661  0.6477
    1MOL0     C   13   3.049  11.280  10.091  0.3877  0.2784  0.2794
    1MOL0     C   14   3.056  11.174  10.207 -0.7399 -1.1855 -0.6482
    1MOL0     C   15   2.968  11.212  10.324  0.0723  0.5905 -0.2634
    1MOL0     C   16   2.820  11.180  10.309 -0.2649 -0.3789  0.1932
    1MOL0     N   17   2.730  11.274  10.383  0.2616  0.0149  0.4360
    1MOL0     C   18   2.697  11.262  10.516  1.0373  0.0224 -0.6637
    1MOL0     C   19   2.662  11.385  10.558 -0.2359 -0.1695  0.2472
    1MOL0     C   20   2.626  11.427  10.697  0.0285 -0.2661 -0.5831
    1MOL0     C   21   2.696  11.564  10.728 -1.1787  0.4400 -0.2782
    1MOL0     C   22   2.676  11.589  10.879 -0.1049 -0.4729 -0.3943
    1MOL0     C   23   2.762  11.717  10.904 -0.7137 -0.7472  0.9294
    1MOL0     O   24   2.756  11.815  10.790 -0.7604 -0.2341 -0.5257
    1MOL0     C   25   2.849  11.916  10.785 -0.1404 -0.1385  0.9441
    1MOL0     C   26   2.928  11.960  10.892  0.1335  0.5595 -0.0692
    1MOL0     C   27   3.022  12.067  10.886 -1.0700 -0.2879 -0.3111
    1MOL0     C   28   3.104  12.098  11.003 -0.4737  0.0222 -0.1162
    1MOL0     C   29   3.033  12.132  10.761 -0.1184 -0.7733  0.4664
    1MOL0     C   30   3.142  12.231  10.726  0.6229 -0.7630 -0.3358
    1MOL0     O   31   3.266  12.219  10.784 -1.1004 -0.2249 -0.6782
    1MOL0     C   32   3.378  12.297  10.754  0.5169 -0.6143  0.8211
    1MOL0     C   33   3.454  12.362  10.854  0.3616  0.0300 -0.0051
    1MOL0     C   34   3.564  12.437  10.829  0.5658  0.7577  1.5302
    1MOL0     C   35   3.593  12.471  10.698  0.1595  0.0438  0.2864
    1MOL0     O   36   3.704  12.545  10.657 -0.5579  0.1108  0.8379
    1MOL0     C   37   3.698  12.613  10.528 -0.4600 -0.1380 -0.0763
    1MOL0     C   38   3.828  12.706  10.517  0.3087 -0.1943  0.4440
    1MOL0     C   39   3.786  12.860  10.549 -0.1992 -0.5280  0.1121
    1MOL0     C   40   3.793  12.875  10.700  0.0829 -0.5202 -0.4631
    1MOL0     C   41   3.814  13.026  10.749 -0.0983  0.3751 -0.3063
    1MOL0     C   42   3.713  13.117  10.683  0.6110 -0.4259  0.3318
    1MOL0     C   43   3.575  13.107  10.758 -0.4725  0.2149  0.3585
    1MOL0     C   44   3.563  13.138  10.905  0.2437  0.6370 -0.4132
    1MOL0    Cl   45   3.612  13.305  10.957  0.3249  0.0626  0.4763
    1MOL0     C   46   3.524  12.399  10.594 -0.4803 -0.1900  0.9617
    1MOL0     C   47   3.423  12.309  10.624 -0.1278  0.2822  0.2958
    1MOL0     O   48   3.113  12.323  10.645 -0.4907  0.2438  0.0316
    1MOL0     C   49   2.947  12.093  10.650  0.1713 -0.1317  0.7597
    1MOL0     C   50   2.854  11.989  10.668  0.0767  0.1350 -0.6961
    1MOL0     N   51   2.676  11.480  10.447 -0.2467  0.9381  0.3031
    1MOL0     N   52   2.712  11.400  10.348 -0.0065 -0.5712  0.2313
    1MOL0     C   53   2.737  10.650   9.803 -0.0592  0.9309 -0.9932
    1MOL0     C   54   2.702  10.532   9.731  1.2232  0.5118 -0.1307
    1MOL0     C   55   2.635  10.188   9.461 -0.3682 -0.0192  0.7716
    1MOL0     C   56   2.743  10.165   9.377  1.0423 -0.7318 -0.1399
    1MOL0     C   57   2.746  10.062   9.275 -0.3043 -0.1728 -0.1421
    1MOL0     C   58   2.642   9.978   9.261  1.0628  0.5025 -0.2934
    1MOL0     O   59   2.644   9.872   9.182  0.1034  0.4864 -0.2621
    1MOL0     C   60   2.760   9.813   9.114 -0.4792  0.0230 -0.1391
    1MOL0     C   61   2.720   9.665   9.079  0.1271  0.2084  0.0612
    1MOL0     C   62   2.714   9.563   9.186  0.0681  0.9760  0.2009
    1MOL0     C   63   2.631   9.444   9.160  0.1023  0.8643 -0.4138
    1MOL0     C   64   2.673   9.342   9.251 -0.2746 -0.4234 -1.5636
    1MOL0     C   65   2.708   9.252   9.329  0.6224  0.4858  0.4904
    1MOL0     C   66   2.526  10.013   9.330  0.0919  0.3699 -1.0810
    1MOL0     C   67   2.519  10.111   9.434  0.3764  0.6308  0.4290
    1MOL0     H   68   3.009  10.431   9.623  1.6047  1.4372  0.5399
    1MOL0     H   69   3.077  10.613   9.787 -0.4203  1.0197 -1.7884
    1MOL0     H   70   2.969  10.873   9.754 -3.6770 -2.6093 -3.2173
    1MOL0     H   71   2.808  10.928   9.791 -0.8933 -0.9224  0.3707
    1MOL0     H   72   2.881  11.010  10.029 -0.8502  2.1185 -0.6656
    1MOL0     H   73   3.047  10.953   9.991 -1.0562 -1.8352 -1.4066
    1MOL0     H   74   3.012  11.111   9.785  0.7916  1.9164  0.6687
    1MOL0     H   75   2.892  11.189   9.891  0.7932  0.7195  0.1346
    1MOL0     H   76   3.196  11.149   9.987  0.5008  1.3092 -0.0388
    1MOL0     H   77   3.138  11.293   9.903  1.0005  0.1045  0.9246
    1MOL0     H   78   3.106  11.369  10.117  0.1017  0.9865 -1.3541
    1MOL0     H   79   2.945  11.308  10.071 -0.0285 -0.9716  0.5730
    1MOL0     H   80   3.026  11.072  10.181 -1.1107 -0.5490 -3.0417
    1MOL0     H   81   3.160  11.161  10.236 -1.3755  0.1510  2.6005
    1MOL0     H   82   3.007  11.146  10.402  2.4735 -0.3492 -2.1183
    1MOL0     H   83   2.972  11.318  10.349 -0.3095  1.1023 -2.1876
    1MOL0     H   84   2.798  11.076  10.335 -1.1664 -0.0759  0.6811
    1MOL0     H   85   2.803  11.206  10.204  3.6574  2.0140 -0.0418
    1MOL0     H   86   2.714  11.175  10.580 -2.9682  0.3527  1.1357
    1MOL0     H   87   2.518  11.428  10.713  0.5615  0.4836  4.7116
    1MOL0     H   88   2.663  11.362  10.777  0.7113  3.5177  2.4877
    1MOL0     H   89   2.660  11.645  10.665  1.6683  0.9486 -1.4197
    1MOL0     H   90   2.804  11.550  10.722 -0.6134 -1.5533  6.1982
    1MOL0     H   91   2.715  11.508  10.941  0.6538  0.9274  1.0167
    1MOL0     H   92   2.568  11.597  10.895  0.0210  0.3462  0.0980
    1MOL0     H   93   2.868  11.688  10.909  0.1931  1.9605 -0.3692
    1MOL0     H   94   2.742  11.758  11.003  2.6153  2.6989  0.4170
    1MOL0     H   95   2.916  11.921  10.992  3.4974  1.2478  0.6916
    1MOL0     H   96   3.198  12.044  10.989 -0.7548 -1.0062  1.6383
    1MOL0     H   97   3.113  12.206  11.017 -1.2570  0.0334  0.3854
    1MOL0     H   98   3.057  12.059  11.093 -1.5815  3.1720  0.7937
    1MOL0     H   99   3.421  12.376  10.957  1.8509 -2.2113  0.8680
    1MOL0     H  100   3.604  12.484  10.919  0.5620 -1.7434  2.9320
    1MOL0     H  101   3.717  12.536  10.453  1.2443 -0.7213  0.9135
    1MOL0     H  102   3.615  12.679  10.500  1.6271  2.1952 -1.2226
    1MOL0     H  103   3.913  12.663  10.572  0.1174 -0.9595  0.1515
    1MOL0     H  104   3.868  12.698  10.416 -2.8281  1.2618 -1.0440
    1MOL0     H  105   3.692  12.887  10.501  0.7173  2.4727 -0.2062
    1MOL0     H  106   3.857  12.931  10.505 -1.8021  1.0833  0.0318
    1MOL0     H  107   3.699  12.834  10.738 -1.6245 -1.5407 -5.0920
    1MOL0     H  108   3.875  12.815  10.740 -1.0108 -1.1463  0.9246
    1MOL0     H  109   3.916  13.054  10.720  0.5666 -1.5039  0.0468
    1MOL0     H  110   3.813  13.027  10.859 -0.0711  1.4530 -0.3057
    1MOL0     H  111   3.743  13.222  10.692  2.1794 -0.7872 -0.2798
    1MOL0     H  112   3.693  13.094  10.578 -0.6439 -0.3417  0.5444
    1MOL0     H  113   3.548  13.003  10.739  1.8927 -0.7826  1.9566
    1MOL0     H  114   3.503  13.157  10.694 -1.0390 -0.4768  0.4459
    1MOL0     H  115   3.605  13.054  10.961 -1.1573  0.6297  0.7106
    1MOL0     H  116   3.455  13.141  10.923  0.6708 -1.1189  3.3745
    1MOL0     H  117   3.562  12.398  10.492 -1.0029 -0.5766  0.7645
    1MOL0     H  118   3.379  12.258  10.539  0.8031 -0.0855  0.0146
    1MOL0     H  119   2.968  12.141  10.555  1.3165 -0.0230  1.0442
    1MOL0     H  120   2.791  11.939  10.595 -2.7745 -0.2530  1.8254
    1MOL0     H  121   2.658  10.718   9.833  0.2675  0.3795  1.2848
    1MOL0     H  122   2.600  10.517   9.697  1.5906  2.9034 -2.6100
    1MOL0     H  123   2.833  10.226   9.377  1.0532 -0.7381 -1.0063
    1MOL0     H  124   2.833  10.039   9.215  0.0373  1.6210 -0.3817
    1MOL0     H  125   2.788   9.886   9.038  0.6440 -0.5068 -0.2688
    1MOL0     H  126   2.853   9.808   9.171 -2.2102 -0.1838  2.8747
    1MOL0     H  127   2.794   9.630   9.006 -1.8251  1.0088 -2.4237
    1MOL0     H  128   2.625   9.655   9.026  1.6164  0.4724 -2.8795
    1MOL0     H  129   2.656   9.598   9.273  0.1804  0.5156  0.4618
    1MOL0     H  130   2.818   9.545   9.212 -0.7041 -0.1745  2.8807
    1MOL0     H  131   2.651   9.402   9.060 -0.3562 -0.8591  0.1729
    1MOL0     H  132   2.523   9.452   9.169 -0.1072  1.2146 -2.5907
    1MOL0     H  133   2.727   9.193   9.416  0.6806  2.1026  1.6303
    1MOL0     H  134   2.435   9.964   9.296  0.5804 -0.7744 -0.7738
    1MOL0     H  135   2.435  10.136   9.499 -2.6475 -1.6365 -2.2801
    2MOL0     O  136   8.089   5.574   2.230 -0.0824  0.3012 -0.1348
    2MOL0     C  137   8.024   5.472   2.209  0.1771 -0.0066 -0.2424
    2MOL0     O  138   7.942   5.410   2.298  0.8190 -0.1764 -0.7807
    2MOL0     C  139   7.925   5.460   2.420  1.2908 -0.9612 -0.5980
    2MOL0     C  140   8.029   5.454   2.512  0.1759  0.6511  0.0614
    2MOL0     C  141   8.011   5.471   2.650  0.0628  0.5333  0.1878
    2MOL0     C  142   7.893   5.533   2.685  0.1281 -0.5183 -0.4807
    2MOL0     O  143   7.866   5.565   2.820 -0.4570  0.0818  0.0730
    2MOL0     C  144   7.901   5.462   2.909  0.1034 -0.6219  0.3325
    2MOL0     C  145   7.832   5.472   3.040  0.0269 -0.5160  0.4224
    2MOL0     C  146   7.893   5.382   3.147 -0.0937 -0.7994 -0.0120
    2MOL0     C  147   7.799   5.354   3.268  0.6440  1.0724 -1.1690
    2MOL0     C  148   7.856   5.280   3.395 -0.0161  0.0078  0.9121
    2MOL0     C  149   7.931   5.150   3.351  0.4943  0.0067 -0.3610
    2MOL0     C  150   7.944   5.043   3.461  0.0621 -0.0219 -0.0133
    2MOL0     C  151   7.996   5.106   3.588 -0.0968  0.6341  0.1224
    2MOL0     N  152   8.017   5.007   3.694  0.3035  0.7561 -0.0874
    2MOL0     C  153   8.112   4.910   3.679 -0.1069  0.0283  0.0567
    2MOL0     C  154   8.123   4.842   3.793 -0.2831  0.6074  0.1419
    2MOL0     C  155   8.191   4.709   3.815 -0.3646 -0.6795 -0.2383
    2MOL0     C  156   8.338   4.723   3.859 -0.3987 -2.0443 -0.0797
    2MOL0     C  157   8.423   4.837   3.782 -0.1125  0.1159  0.2251
    2MOL0     C  158   8.574   4.807   3.805 -0.2709  0.1744  0.7334
    2MOL0     O  159   8.614   4.672   3.757  0.5405  0.3765 -0.2131
    2MOL0     C  160   8.710   4.599   3.816  0.7401 -0.6616 -0.3872
    2MOL0     C  161   8.832   4.659   3.860 -0.4569 -0.2344 -0.0194
    2MOL0     C  162   8.940   4.575   3.898  0.0497 -0.1109 -0.6336
    2MOL0     C  163   9.054   4.656   3.955  0.6064  1.1487  0.9278
    2MOL0     C  164   8.934   4.431   3.875 -1.0139  0.3351  0.0395
    2MOL0     C  165   9.039   4.331   3.923  0.1133 -0.3780 -0.4057
    2MOL0     O  166   9.004   4.197   3.923 -0.5355 -0.5343  0.3257
    2MOL0     C  167   9.106   4.105   3.962 -0.0671  0.4407 -0.0505
    2MOL0     C  168   9.194   4.125   4.068 -0.4390  0.3731  0.8758
    2MOL0     C  169   9.287   4.023   4.101  0.5783 -0.1801 -0.3213
    2MOL0     C  170   9.300   3.914   4.018  0.3415  0.1338 -0.2719
    2MOL0     O  171   9.399   3.828   4.026  0.0401  0.8722  0.3643
    2MOL0     C  172   9.491   3.815   4.140  0.4586  0.4716  0.4770
    2MOL0     C  173   9.537   3.671   4.139 -0.1094  0.1750 -0.4538
    2MOL0     C  174   9.655   3.659   4.236 -0.0068 -0.5088  0.3764
    2MOL0     C  175   9.714   3.529   4.233  0.6361  1.1587 -1.0912
    2MOL0     C  176   9.842   3.510   4.327  0.0020 -0.3459 -0.2972
    2MOL0     C  177   9.871   3.364   4.370 -0.2309 -0.4204 -1.4018
    2MOL0     C  178   9.912   3.278   4.255  0.5286 -0.1768  0.0317
    2MOL0     C  179   9.934   3.133   4.308 -0.1547  0.2931  0.5361
    2MOL0    Cl  180   9.795   3.070   4.401 -0.6189 -0.3810 -0.5757
    2MOL0     C  181   9.208   3.887   3.923  0.1362 -0.3089  0.6675
    2MOL0     C  182   9.104   3.982   3.899 -0.2180 -0.3049  0.2234
    2MOL0     O  183   9.150   4.377   3.938 -0.2841 -0.4431 -0.0222
    2MOL0     C  184   8.811   4.378   3.820 -0.5590  0.1242 -0.1355
    2MOL0     C  185   8.702   4.461   3.785  0.0283 -0.9318 -0.1155
    2MOL0     N  186   8.056   4.908   3.893  0.0019 -0.7969  0.6098
    2MOL0     N  187   7.990   5.004   3.832 -1.1361 -0.4047  0.2560
    2MOL0     C  188   7.789   5.567   2.594  0.3811 -0.6092 -0.3199
    2MOL0     C  189   7.800   5.522   2.460  0.3106 -0.9631  0.3456
    2MOL0     C  190   8.044   5.424   2.071 -0.8310  0.6289 -0.5020
    2MOL0     C  191   7.941   5.336   2.022 -0.1092 -0.8665  0.7869
    2MOL0     C  192   7.964   5.294   1.892  0.0718  0.0931  0.7680
    2MOL0     C  193   8.080   5.320   1.814 -0.6524 -0.7590  0.0045
    2MOL0     O  194   8.088   5.259   1.703 -1.2756 -0.2122 -0.7242
    2MOL0     C  195   8.214   5.196   1.685 -0.7855  0.1514  1.7662
    2MOL0     C  196   8.201   5.131   1.547 -0.4705  0.5247 -1.1595
    2MOL0     C  197   8.339   5.061   1.509 -0.2032  0.2392  0.1713
    2MOL0     C  198   8.344   4.917   1.566 -0.0906  0.7068 -1.7672
    2MOL0     C  199   8.478   4.887   1.622 -0.0104 -0.5648  0.0712
    2MOL0     C  200   8.584   4.848   1.678 -0.7191  0.1531 -0.2679
    2MOL0     C  201   8.175   5.412   1.864 -0.6232 -0.8775  0.4912
    2MOL0     C  202   8.163   5.451   1.999  0.8399  0.1091 -0.1250
    2MOL0     H  203   8.121   5.413   2.472 -0.4001 -3.7903  2.5294
    2MOL0     H  204   8.100   5.439   2.704  2.6973  2.0332 -2.8985
    2MOL0     H  205   7.884   5.364   2.864 -1.3807  0.2659 -1.1803
    2MOL0     H  206   8.009   5.462   2.925 -0.0532  0.1580  1.4486
    2MOL0     H  207   7.833   5.575   3.077 -0.2579 -0.4073  0.1388
    2MOL0     H  208   7.730   5.443   3.014  0.3163  0.7722 -2.5996
    2MOL0     H  209   7.916   5.282   3.107  0.3503 -0.2361 -1.2299
    2MOL0     H  210   7.983   5.426   3.190  0.9512 -0.5688 -2.2565
    2MOL0     H  211   7.759   5.449   3.304  1.9427  0.7290  1.4463
    2MOL0     H  212   7.717   5.287   3.239  1.4485  0.4139 -1.9791
    2MOL0     H  213   7.912   5.345   3.464  2.5213 -0.5977 -0.4425
    2MOL0     H  214   7.771   5.257   3.459 -0.4545 -1.0780 -0.0347
    2MOL0     H  215   7.880   5.108   3.263 -0.8118 -0.4775  0.5876
    2MOL0     H  216   8.026   5.198   3.327 -0.1416  1.2066 -0.6054
    2MOL0     H  217   7.848   4.994   3.479  1.4939 -2.6137  0.9831
    2MOL0     H  218   8.004   4.958   3.428  1.3844  1.0817 -0.5454
    2MOL0     H  219   7.919   5.175   3.625 -3.1873 -0.7012 -3.1570
    2MOL0     H  220   8.092   5.155   3.573 -0.6418  2.4756  2.1542
    2MOL0     H  221   8.166   4.884   3.589  0.7614  4.2215 -0.8232
    2MOL0     H  222   8.130   4.653   3.886 -3.9556  0.3893 -2.2194
    2MOL0     H  223   8.192   4.651   3.722  1.3840 -0.8374 -0.1648
    2MOL0     H  224   8.382   4.626   3.831 -0.2747 -2.0772  0.2313
    2MOL0     H  225   8.338   4.750   3.965 -2.4090 -1.9033 -0.0699
    2MOL0     H  226   8.386   4.934   3.815 -0.2083  0.4118 -0.7100
    2MOL0     H  227   8.407   4.842   3.674 -0.2765 -0.9625  0.1894
    2MOL0     H  228   8.599   4.806   3.912  2.5741  3.5397  0.2804
    2MOL0     H  229   8.645   4.883   3.771 -0.4773  0.0630  0.0344
    2MOL0     H  230   8.833   4.767   3.866  2.6213 -0.1948  0.4103
    2MOL0     H  231   9.104   4.621   4.045 -0.0123 -0.9024  0.5290
    2MOL0     H  232   9.126   4.651   3.873 -2.3663 -7.0904 -2.2979
    2MOL0     H  233   9.022   4.759   3.974  0.5663  1.2197  0.4902
    2MOL0     H  234   9.199   4.219   4.120  0.6996  2.8723 -3.2750
    2MOL0     H  235   9.359   4.054   4.176  0.6788  0.6724 -0.7507
    2MOL0     H  236   9.579   3.878   4.129 -0.3209  1.3999 -0.8394
    2MOL0     H  237   9.450   3.830   4.240  0.3173 -1.6675  0.8010
    2MOL0     H  238   9.455   3.602   4.160  2.0130 -1.2583  4.6500
    2MOL0     H  239   9.574   3.649   4.038  2.8227 -1.2214  0.7972
    2MOL0     H  240   9.627   3.695   4.335  0.4720 -0.0639  0.3561
    2MOL0     H  241   9.733   3.729   4.205 -1.6465  1.0761 -0.3567
    2MOL0     H  242   9.634   3.463   4.269  1.3271  1.3905  1.0357
    2MOL0     H  243   9.733   3.508   4.128  0.8026  0.0678 -0.8624
    2MOL0     H  244   9.836   3.571   4.418  1.0381 -2.0670  0.9915
    2MOL0     H  245   9.925   3.551   4.268  0.3248 -0.5040  0.0439
    2MOL0     H  246   9.936   3.367   4.457 -2.5325 -1.0599  0.4473
    2MOL0     H  247   9.779   3.325   4.414  0.0856  1.0023  0.6054
    2MOL0     H  248  10.005   3.305   4.203  0.4291 -2.2237 -1.3508
    2MOL0     H  249   9.832   3.275   4.180 -0.4581 -1.2629  1.0932
    2MOL0     H  250  10.034   3.126   4.351  0.2852 -0.3790 -0.5557
    2MOL0     H  251   9.934   3.066   4.222 -1.7267 -0.1121  0.8291
    2MOL0     H  252   9.222   3.797   3.865 -3.4743 -1.8320  1.8677
    2MOL0     H  253   9.035   3.976   3.816 -0.6057  2.0772  0.3093
    2MOL0     H  254   8.798   4.271   3.808  1.6035 -0.1930 -0.0665
    2MOL0     H  255   8.615   4.425   3.730 -0.7898  0.6952  0.0485
    2MOL0     H  256   7.698   5.606   2.639 -0.3450 -0.4228 -1.8666
    2MOL0     H  257   7.727   5.529   2.380 -2.5793 -2.4049  2.6323
    2MOL0     H  258   7.847   5.317   2.074 -0.9451 -0.1763 -0.4311
    2MOL0     H  259   7.888   5.237   1.839  0.3920  0.3970 -0.0299
    2MOL0     H  260   8.294   5.269   1.672 -1.8952  1.0561 -0.5032
    2MOL0     H  261   8.245   5.127   1.764 -0.4943  0.2146  1.7057
    2MOL0     H  262   8.180   5.207   1.471 -0.9358  2.6742  0.9888
    2MOL0     H  263   8.124   5.054   1.555 -0.9652  0.8388 -2.6280
    2MOL0     H  264   8.413   5.137   1.535 -0.5751  0.2375  1.3196
    2MOL0     H  265   8.332   5.067   1.400 -2.8818  4.1930  0.3429
    2MOL0     H  266   8.316   4.854   1.481 -0.5891  0.1917 -1.2370
    2MOL0     H  267   8.265   4.888   1.635  1.4853 -0.9662 -0.5399
    2MOL0     H  268   8.678   4.840   1.728 -0.7523 -0.1764 -0.2545
    2MOL0     H  269   8.248   5.455   1.795 -2.4525  1.8564  0.1207
    2MOL0     H  270   8.241   5.509   2.049  0.9078  0.2233 -0.3583
    3MOL0     O  271   6.976  11.455   6.481 -0.6203  0.0978 -0.4228
    3MOL0     C  272   6.953  11.514   6.585 -0.6705  1.0244  0.0605
    3MOL0     O  273   7.032  11.514   6.697  0.9288  0.4830  0.8553
    3MOL0     C  274   7.152  11.452   6.694  0.7442  0.3464 -0.1577
    3MOL0     C  275   7.267  11.520   6.745  0.1541 -1.0886 -0.2002
    3MOL0     C  276   7.383  11.452   6.780 -1.2158 -0.0807  0.2384
    3MOL0     C  277   7.393  11.311   6.760 -0.2935  0.4834  0.0921
    3MOL0     O  278   7.490  11.229   6.780  0.2813  0.2259  0.0029
    3MOL0     C  279   7.622  11.276   6.751 -1.1457  0.5327  0.0823
    3MOL0     C  280   7.719  11.160   6.769 -0.1890  0.7899 -0.8102
    3MOL0     C  281   7.863  11.200   6.726  0.3173 -0.3954 -0.5151
    3MOL0     C  282   7.912  11.323   6.801  0.4318 -0.0683  0.8058
    3MOL0     C  283   8.071  11.329   6.778 -0.1684 -0.2135  0.2484
    3MOL0     C  284   8.119  11.460   6.853  0.7872  0.3625  0.3935
    3MOL0     C  285   8.256  11.523   6.803 -0.0868 -1.3748 -0.6697
    3MOL0     C  286   8.341  11.439   6.701  0.1629 -0.5946 -1.0543
    3MOL0     N  287   8.424  11.333   6.764 -0.5223  0.0635  0.4255
    3MOL0     C  288   8.552  11.344   6.822 -0.1504  0.7293  0.1126
    3MOL0     C  289   8.602  11.220   6.825  0.9867  0.8693 -0.5793
    3MOL0     C  290   8.729  11.167   6.865 -0.6747  1.0275 -0.7725
    3MOL0     C  291   8.760  11.192   7.014  0.6259 -0.3645 -0.8168
    3MOL0     C  292   8.660  11.132   7.122  0.0395  0.4965 -1.1313
    3MOL0     C  293   8.659  10.976   7.135 -0.3742 -0.4251 -1.0635
    3MOL0     O  294   8.674  10.942   7.272  0.1772  0.4967 -0.5655
    3MOL0     C  295   8.616  10.820   7.306  0.4434 -0.7861 -0.1201
    3MOL0     C  296   8.501  10.818   7.394 -0.5738 -1.5159 -0.2062
    3MOL0     C  297   8.433  10.703   7.429  0.5056  0.1811 -0.1742
    3MOL0     C  298   8.303  10.703   7.506 -0.8549 -0.1940 -0.0891
    3MOL0     C  299   8.488  10.587   7.382  0.4410  0.2557 -0.6995
    3MOL0     C  300   8.439  10.457   7.415 -0.8807  0.3057 -0.3023
    3MOL0     O  301   8.454  10.359   7.324 -0.1906  0.6831 -0.1338
    3MOL0     C  302   8.422  10.227   7.362  0.2886 -0.6414 -0.0045
    3MOL0     C  303   8.521  10.156   7.428 -1.2966  0.0010  0.0769
    3MOL0     C  304   8.495  10.025   7.477 -0.0264  0.2961  0.8873
    3MOL0     C  305   8.372   9.963   7.463  0.5261 -1.2000  0.0172
    3MOL0     O  306   8.352   9.845   7.518 -0.4135 -0.2146 -1.0611
    3MOL0     C  307   8.222   9.788   7.533 -0.9025  0.2031 -0.0430
    3MOL0     C  308   8.223   9.683   7.645  0.7618  0.7821 -0.1346
    3MOL0     C  309   8.091   9.616   7.681 -0.8733 -0.1006 -0.6722
    3MOL0     C  310   8.113   9.511   7.779  0.3631  0.5144  0.3889
    3MOL0     C  311   8.121   9.560   7.927 -0.2562 -0.3650  0.5517
    3MOL0     C  312   7.988   9.602   7.986 -0.0073  0.5360 -0.8899
    3MOL0     C  313   8.008   9.638   8.129  0.1870  0.2309 -0.4141
    3MOL0     C  314   7.891   9.603   8.227 -0.0053  0.4796 -0.2077
    3MOL0    Cl  315   7.743   9.664   8.145 -0.0547 -0.4267  0.0439
    3MOL0     C  316   8.278  10.029   7.372 -0.2517  0.4988 -0.6007
    3MOL0     C  317   8.293  10.160   7.340 -0.3260 -0.5467  0.9310
    3MOL0     O  318   8.427  10.429   7.530 -0.1164 -0.3527 -0.4629
    3MOL0     C  319   8.593  10.587   7.295  0.0464  0.3958 -0.7415
    3MOL0     C  320   8.655  10.704   7.251  0.0174 -0.8974  0.1624
    3MOL0     N  321   8.501  11.137   6.775 -0.0260  0.7603 -0.7550
    3MOL0     N  322   8.399  11.195   6.745 -0.6051 -1.2020 -0.3846
    3MOL0     C  323   7.284  11.248   6.716 -0.5507  0.6174  0.3161
    3MOL0     C  324   7.165  11.310   6.690 -0.3174 -0.3272 -0.2046
    3MOL0     C  325   6.813  11.567   6.609 -0.1468  0.2771 -0.1917
    3MOL0     C  326   6.724  11.579   6.499  0.2269  0.3428  0.0498
    3MOL0     C  327   6.609  11.654   6.518  0.2546 -0.2674  0.6592
    3MOL0     C  328   6.566  11.687   6.650  0.9404  0.0168  0.1948
    3MOL0     O  329   6.444  11.750   6.670 -0.0301 -0.7675 -0.5750
    3MOL0     C  330   6.466  11.890   6.692 -0.3573 -0.7890 -0.0266
    3MOL0     C  331   6.331  11.958   6.723 -0.0452  0.1552  0.6037
    3MOL0     C  332   6.349  12.105   6.765 -0.0168 -0.0409 -1.0414
    3MOL0     C  333   6.333  12.201   6.647  0.3315  0.1954 -0.6871
    3MOL0     C  334   6.292  12.334   6.681 -0.9619 -0.4423  0.1764
    3MOL0     C  335   6.259  12.453   6.676  0.4000  0.9734  0.3499
    3MOL0     C  336   6.643  11.641   6.754  0.4889 -1.0257  0.1309
    3MOL0     C  337   6.768  11.592   6.739 -0.5503 -0.7551 -0.5928
    3MOL0     H  338   7.245  11.622   6.773  2.7292  0.0694 -2.0874
    3MOL0     H  339   7.470  11.499   6.826  0.1088 -2.5139  0.3995
    3MOL0     H  340   7.624  11.307   6.646 -0.2477 -2.5714 -0.9117
    3MOL0     H  341   7.649  11.354   6.824  0.2754  0.5760 -0.4535
    3MOL0     H  342   7.709  11.130   6.874 -2.7901  0.5428 -1.0559
    3MOL0     H  343   7.672  11.086   6.704 -3.2670  3.4381 -1.8634
    3MOL0     H  344   7.916  11.109   6.756 -0.1651 -0.1927  1.0496
    3MOL0     H  345   7.872  11.222   6.619  1.1296 -0.2428 -0.4205
    3MOL0     H  346   7.858  11.411   6.765 -1.2171 -1.0544  0.7972
    3MOL0     H  347   7.879  11.311   6.904  3.3331 -4.4177  1.4871
    3MOL0     H  348   8.118  11.233   6.800  0.4578  0.0431  0.0733
    3MOL0     H  349   8.095  11.336   6.672 -0.8532 -1.1738  0.0261
    3MOL0     H  350   8.044  11.539   6.839  0.5127  0.2101  0.9511
    3MOL0     H  351   8.122  11.445   6.962  4.2416  2.1670  0.6982
    3MOL0     H  352   8.233  11.617   6.751 -0.3112 -0.6950  0.6052
    3MOL0     H  353   8.322  11.545   6.887  1.3864 -1.3457 -1.8068
    3MOL0     H  354   8.414  11.504   6.651 -2.2587  2.7910 -0.5814
    3MOL0     H  355   8.279  11.399   6.619 -3.2140 -0.1540  1.0756
    3MOL0     H  356   8.596  11.433   6.865 -0.3959  0.9377 -0.0660
    3MOL0     H  357   8.738  11.059   6.852  0.2666  1.1435 -1.2026
    3MOL0     H  358   8.802  11.221   6.803  0.4396 -2.8638 -3.2210
    3MOL0     H  359   8.757  11.301   7.030  1.4181 -0.5752  1.0779
    3MOL0     H  360   8.862  11.162   7.040  0.8345  1.7040  1.1569
    3MOL0     H  361   8.562  11.172   7.093  1.3262  3.3921 -1.8655
    3MOL0     H  362   8.695  11.178   7.215 -5.3550 -0.2706  1.7052
    3MOL0     H  363   8.734  10.923   7.075  1.0536 -2.4411  2.1988
    3MOL0     H  364   8.565  10.946   7.088  0.7171 -0.1574 -3.5946
    3MOL0     H  365   8.470  10.915   7.433  4.5012 -0.4718  2.1039
    3MOL0     H  366   8.216  10.655   7.460 -1.5469  1.3201 -0.3924
    3MOL0     H  367   8.324  10.656   7.603 -1.1036  0.2525  0.1805
    3MOL0     H  368   8.278  10.807   7.528 -3.3663 -0.3431 -1.8528
    3MOL0     H  369   8.616  10.203   7.449 -1.9102  1.6069 -0.5382
    3MOL0     H  370   8.571   9.974   7.535 -1.5229 -3.2064  0.0304
    3MOL0     H  371   8.146   9.861   7.561 -2.4615 -0.9773 -1.0450
    3MOL0     H  372   8.191   9.747   7.437  0.2068  2.2241 -1.3439
    3MOL0     H  373   8.287   9.602   7.607 -1.6720 -0.6656 -1.3536
    3MOL0     H  374   8.261   9.723   7.740  0.0440 -2.0903  1.4949
    3MOL0     H  375   8.034   9.569   7.601 -1.9895  2.3629 -1.4219
    3MOL0     H  376   8.012   9.679   7.724 -1.5417 -1.8421  0.7983
    3MOL0     H  377   8.036   9.434   7.776  1.0317 -0.2065  1.1087
    3MOL0     H  378   8.212   9.468   7.759  0.1863 -1.0134  2.4920
    3MOL0     H  379   8.187   9.648   7.933  1.3150 -1.3888 -0.8603
    3MOL0     H  380   8.167   9.478   7.984  0.5873  0.0581  0.4977
    3MOL0     H  381   7.951   9.687   7.928 -3.2383  0.5728  0.9795
    3MOL0     H  382   7.914   9.522   7.975 -1.4940  1.9610 -1.7191
    3MOL0     H  383   8.011   9.747   8.141  0.7412  0.2970 -1.0957
    3MOL0     H  384   8.105   9.604   8.166 -0.4488  0.2425  1.3466
    3MOL0     H  385   7.894   9.655   8.323  0.6538 -0.7997  0.4801
    3MOL0     H  386   7.886   9.496   8.248  4.2948 -0.2286 -1.7852
    3MOL0     H  387   8.183   9.982   7.350  1.7255 -2.8052 -2.9079
    3MOL0     H  388   8.203  10.208   7.302  0.0545  2.7054  3.6153
    3MOL0     H  389   8.646  10.498   7.262  0.4497  0.0956  0.6783
    3MOL0     H  390   8.735  10.707   7.177  0.6508  3.9490  0.7047
    3MOL0     H  391   7.297  11.141   6.702 -0.3459  0.8997 -1.9480
    3MOL0     H  392   7.076  11.257   6.658 -0.8849 -2.8584  4.6792
    3MOL0     H  393   6.754  11.561   6.396 -0.3341 -1.3539  0.1477
    3MOL0     H  394   6.542  11.694   6.443  1.0570  0.4638  0.3242
    3MOL0     H  395   6.545  11.897   6.768 -0.9510  0.9571  0.4690
    3MOL0     H  396   6.510  11.933   6.602  0.0393 -3.5177 -1.2425
    3MOL0     H  397   6.298  11.905   6.813  0.7937 -1.1576  0.1695
    3MOL0     H  398   6.261  11.941   6.641  0.3027 -2.9450  0.8218
    3MOL0     H  399   6.440  12.118   6.825  1.6251 -2.6578 -2.7663
    3MOL0     H  400   6.258  12.122   6.824  0.5020 -2.0246  0.4732
    3MOL0     H  401   6.252  12.161   6.586  0.3892  0.5489 -0.9968
    3MOL0     H  402   6.427  12.193   6.592  1.1058  0.0347  0.6283
    3MOL0     H  403   6.215  12.550   6.664 -3.4239 -0.5439  0.5016
    3MOL0     H  404   6.606  11.662   6.853 -1.6743 -0.8689 -0.6655
    3MOL0     H  405   6.821  11.562   6.829 -0.5089  1.6592  0.2893
    4MOL0     O  406   3.049   0.690  10.063 -0.5715  0.1452  0.0437
    4MOL0     C  407   3.011   0.691  10.179 -0.1774 -0.4775 -0.1536
    4MOL0     O  408   3.069   0.627  10.294  0.0301 -0.1250  0.3648
    4MOL0     C  409   3.200   0.596  10.294 -0.1295 -0.5297  0.4782
    4MOL0     C  410   3.232   0.480  10.357  0.4087 -0.4103 -0.9463
    4MOL0     C  411   3.367   0.436  10.358 -0.7975  1.0206  0.2086
    4MOL0     C  412   3.463   0.510  10.287 -0.1225  0.4784 -0.3127
    4MOL0     O  413   3.588   0.463  10.266  0.1124 -0.1305  0.3086
    4MOL0     C  414   3.666   0.377  10.351  0.4051 -0.3590  0.5082
    4MOL0     C  415   3.718   0.445  10.478  0.1252 -1.3071 -1.4848
    4MOL0     C  416   3.814   0.559  10.459  0.0267 -0.2524 -0.5377
    4MOL0     C  417   3.894   0.594  10.587  0.5407  0.4425 -0.6562
    4MOL0     C  418   3.969   0.728  10.567 -0.4082 -0.1824 -0.1306
    4MOL0     C  419   4.009   0.806  10.699 -0.3222 -0.7264 -0.4699
    4MOL0     C  420   4.096   0.715  10.783 -0.6842 -0.0157  0.3411
    4MOL0     C  421   4.160   0.779  10.906  0.7782 -1.0488 -0.2722
    4MOL0     N  422   4.246   0.897  10.893 -0.1041 -0.6039 -0.0862
    4MOL0     C  423   4.203   1.025  10.891  0.7119  0.2808 -0.5362
    4MOL0     C  424   4.311   1.101  10.881  0.1101 -1.1752  0.5637
    4MOL0     C  425   4.309   1.260  10.884 -0.8953 -0.3477  0.3725
    4MOL0     C  426   4.351   1.313  10.752 -0.5046 -0.4790  0.6085
    4MOL0     C  427   4.247   1.295  10.642  0.1706 -0.0888 -1.0941
    4MOL0     C  428   4.320   1.314  10.506 -0.0148 -0.3370 -0.5421
    4MOL0     O  429   4.228   1.360  10.404  0.2412  0.2972  0.3530
    4MOL0     C  430   4.167   1.270  10.317 -0.0256 -0.6414  0.2461
    4MOL0     C  431   4.168   1.133  10.332 -0.2922  0.0186 -1.0078
    4MOL0     C  432   4.106   1.038  10.244  0.6562 -0.6142  0.1939
    4MOL0     C  433   4.115   0.892  10.277  0.3556 -0.4643 -0.1766
    4MOL0     C  434   4.014   1.094  10.143 -0.4455  0.2309 -0.0643
    4MOL0     C  435   3.915   1.012  10.066  0.0485 -0.3382  0.7523
    4MOL0     O  436   3.936   0.890  10.047 -0.6994  0.8722 -0.0460
    4MOL0     C  437   3.847   0.810   9.970 -1.6491  1.1461  1.0628
    4MOL0     C  438   3.823   0.826   9.832  0.6254 -0.1020 -0.2741
    4MOL0     C  439   3.743   0.730   9.767 -0.4873 -0.1574 -0.3731
    4MOL0     C  440   3.701   0.614   9.824  0.7388  0.0426  0.6439
    4MOL0     O  441   3.623   0.521   9.763 -0.4202  0.1458 -0.9020
    4MOL0     C  442   3.543   0.540   9.645 -0.3955 -0.5946 -0.3132
    4MOL0     C  443   3.406   0.487   9.673  0.2735 -1.2167  0.1128
    4MOL0     C  444   3.321   0.564   9.777 -0.5857  0.6600  0.1909
    4MOL0     C  445   3.184   0.504   9.795 -0.6400 -0.1399  0.3305
    4MOL0     C  446   3.055   0.570   9.719 -0.5740 -0.4996  0.1733
    4MOL0     C  447   3.079   0.572   9.572  1.3851  0.5955 -0.7030
    4MOL0     C  448   2.949   0.623   9.492  0.0861 -0.1467  0.1958
    4MOL0     C  449   2.820   0.538   9.501  0.2214  0.0638 -0.1051
    4MOL0    Cl  450   2.845   0.389   9.397  0.1587 -0.1213 -0.2253
    4MOL0     C  451   3.752   0.586   9.950  0.7274 -1.0748 -0.6889
    4MOL0     C  452   3.820   0.682  10.026 -0.7241 -0.3153 -0.1671
    4MOL0     O  453   3.820   1.074  10.016 -0.9298 -0.5159 -0.0478
    4MOL0     C  454   4.009   1.240  10.134  0.0316  0.4061 -0.9036
    4MOL0     C  455   4.075   1.323  10.229  0.9682 -0.2560  0.0060
    4MOL0     N  456   4.422   1.022  10.884 -0.1462  1.1115 -0.3746
    4MOL0     N  457   4.383   0.897  10.887 -0.0616 -0.6922  0.1626
    4MOL0     C  458   3.431   0.636  10.240 -0.0257  0.4570  0.5252
    4MOL0     C  459   3.298   0.680  10.252 -1.9203 -1.3993  0.7366
    4MOL0     C  460   2.882   0.751  10.215 -0.7898  0.3949 -0.2703
    4MOL0     C  461   2.863   0.815  10.335  0.3722  0.5277 -0.6595
    4MOL0     C  462   2.741   0.876  10.356  0.2472  0.1510  0.9698
    4MOL0     C  463   2.629   0.869  10.274 -0.4615  0.2907 -0.3429
    4MOL0     O  464   2.515   0.942  10.292  0.2871  0.0775  0.1773
    4MOL0     C  465   2.513   1.083  10.267  0.1164  0.9646  0.9616
    4MOL0     C  466   2.559   1.121  10.127  0.2791  0.1251  0.5056
    4MOL0     C  467   2.714   1.138  10.106 -0.1168 -1.2015 -0.7361
    4MOL0     C  468   2.740   1.156   9.954 -0.0147 -0.0583  0.4732
    4MOL0     C  469   2.719   1.034   9.879 -0.7944 -0.8657 -0.1748
    4MOL0     C  470   2.729   0.935   9.811 -0.4578  0.2587 -0.8033
    4MOL0     C  471   2.648   0.791  10.156 -0.3098 -0.4965  0.2806
    4MOL0     C  472   2.777   0.739  10.125  0.4391 -0.1936 -0.5812
    4MOL0     H  473   3.152   0.415  10.391  0.0171  0.6852  0.2981
    4MOL0     H  474   3.379   0.337  10.401 -0.7414  0.8379 -0.2196
    4MOL0     H  475   3.608   0.291  10.385  2.3235 -1.2095  1.8258
    4MOL0     H  476   3.754   0.333  10.303  1.5507 -2.5258  4.1712
    4MOL0     H  477   3.638   0.468  10.549  2.1689 -4.3971  2.2646
    4MOL0     H  478   3.770   0.373  10.542 -0.3746  0.5424  1.1806
    4MOL0     H  479   3.895   0.525  10.394  0.0978 -0.7775 -0.1847
    4MOL0     H  480   3.758   0.644  10.419  0.1965 -0.6817 -1.7566
    4MOL0     H  481   3.824   0.591  10.671  1.7417  1.7465  0.4479
    4MOL0     H  482   3.967   0.514  10.602 -2.3258 -2.8836 -2.9698
    4MOL0     H  483   4.063   0.710  10.513  0.1579  0.2651  0.6759
    4MOL0     H  484   3.911   0.800  10.508  1.0683  1.5298  0.3948
    4MOL0     H  485   4.048   0.907  10.684  1.1696 -1.0307  1.0566
    4MOL0     H  486   3.911   0.818  10.748 -0.2960  1.9289 -0.9213
    4MOL0     H  487   4.026   0.635  10.810 -0.5963 -0.9094 -1.8706
    4MOL0     H  488   4.170   0.655  10.730 -2.5291 -3.7956  1.6579
    4MOL0     H  489   4.213   0.711  10.973 -0.8957 -0.9692  1.2014
    4MOL0     H  490   4.073   0.814  10.963  1.2427  0.4292 -0.4210
    4MOL0     H  491   4.099   1.057  10.882  0.8775  0.6358 -1.2205
    4MOL0     H  492   4.209   1.299  10.906 -0.7459  0.2845 -0.0390
    4MOL0     H  493   4.375   1.304  10.959  1.8985  0.9440 -2.6240
    4MOL0     H  494   4.441   1.256  10.728  0.5796  0.9803  1.0284
    4MOL0     H  495   4.377   1.418  10.772 -0.2144 -0.6561  1.2124
    4MOL0     H  496   4.168   1.371  10.646  0.1133 -0.1707  2.5668
    4MOL0     H  497   4.193   1.202  10.660 -1.8962  1.8915  6.9110
    4MOL0     H  498   4.367   1.218  10.483  3.0901  0.9502 -0.0478
    4MOL0     H  499   4.413   1.373  10.506 -0.2190  0.0397 -2.0285
    4MOL0     H  500   4.229   1.091  10.411  0.0034  0.5209 -0.9663
    4MOL0     H  501   4.015   0.850  10.285 -0.8620  2.2886  0.4096
    4MOL0     H  502   4.176   0.837  10.204  1.6326 -1.2411  1.4124
    4MOL0     H  503   4.158   0.878  10.377 -0.6646 -1.1436  0.1845
    4MOL0     H  504   3.852   0.916   9.780  2.3409 -0.6222 -0.2565
    4MOL0     H  505   3.713   0.747   9.664 -2.0383  1.9139  0.3595
    4MOL0     H  506   3.518   0.644   9.625  0.2286 -0.0932  1.3153
    4MOL0     H  507   3.590   0.487   9.561  0.7127 -0.6004  0.2944
    4MOL0     H  508   3.353   0.486   9.577  0.9488 -3.7400 -0.2873
    4MOL0     H  509   3.402   0.383   9.707  1.2572 -0.5604  2.4839
    4MOL0     H  510   3.320   0.670   9.748  3.1867  0.4999 -0.9743
    4MOL0     H  511   3.371   0.567   9.874  0.7018  0.6492 -0.4568
    4MOL0     H  512   3.182   0.395   9.801 -2.5278 -0.0504  3.5549
    4MOL0     H  513   3.164   0.540   9.896  3.0029 -0.3042  1.2533
    4MOL0     H  514   3.050   0.676   9.747  1.8980 -0.1467 -0.4923
    4MOL0     H  515   2.955   0.540   9.752 -0.3307  1.2923  2.8684
    4MOL0     H  516   3.159   0.643   9.550 -0.3765  3.5586  1.5737
    4MOL0     H  517   3.096   0.470   9.536  0.1106  0.1796 -0.1871
    4MOL0     H  518   2.976   0.628   9.386  1.2417  4.0275  0.4973
    4MOL0     H  519   2.931   0.726   9.524 -1.3651 -0.7026  1.2440
    4MOL0     H  520   2.739   0.597   9.458  0.6393  1.0694  0.4335
    4MOL0     H  521   2.799   0.506   9.604 -0.6059  0.0434 -0.2762
    4MOL0     H  522   3.729   0.497  10.007  0.4008 -1.3406 -1.2262
    4MOL0     H  523   3.849   0.657  10.128 -0.8355 -0.1391 -0.0926
    4MOL0     H  524   3.956   1.291  10.054 -1.4662 -0.7075 -0.6608
    4MOL0     H  525   4.055   1.428  10.216 -0.6662 -0.5469  0.0113
    4MOL0     H  526   3.504   0.694  10.185 -0.7980  2.8817  1.8539
    4MOL0     H  527   3.266   0.780  10.226  1.1881 -0.9541 -2.1493
    4MOL0     H  528   2.944   0.830  10.405  3.2616 -1.0781 -3.3967
    4MOL0     H  529   2.720   0.951  10.432  0.8796  0.8970  0.4176
    4MOL0     H  530   2.409   1.116  10.265 -0.6233 -1.2420  0.5078
    4MOL0     H  531   2.569   1.141  10.341  0.4797  1.4390  0.3273
    4MOL0     H  532   2.512   1.217  10.105  2.3783  1.2015  0.4882
    4MOL0     H  533   2.518   1.052  10.053 -2.7430  1.7213  0.5291
    4MOL0     H  534   2.767   1.049  10.142  1.7657 -0.7821 -2.2540
    4MOL0     H  535   2.755   1.227  10.156 -1.9938 -0.9553  0.4285
    4MOL0     H  536   2.846   1.182   9.943  0.2245 -0.3536  1.8278
    4MOL0     H  537   2.680   1.237   9.911 -1.4580 -0.1523  2.1876
    4MOL0     H  538   2.716   0.854   9.742 -2.0277  3.0023 -3.9339
    4MOL0     H  539   2.573   0.773  10.080 -0.4864 -2.6179  0.8995
    4MOL0     H  540   2.799   0.690  10.031  0.7179 -1.0845 -0.0688
    5MOL0     O  541   8.968   8.610  10.444 -0.4357 -0.3734 -0.5061
    5MOL0     C  542   8.921   8.690  10.366 -0.9722 -0.2075  0.3200
    5MOL0     O  543   8.908   8.826  10.382 -0.7896 -0.2391 -0.4203
    5MOL0     C  544   8.924   8.899  10.492  0.6936 -0.3407  0.8800
    5MOL0     C  545   8.904   8.850  10.615 -0.2292 -0.1570 -0.0017
    5MOL0     C  546   8.919   8.934  10.724  0.5345  0.3493 -0.5650
    5MOL0     C  547   8.947   9.069  10.701 -0.6824  0.4540 -0.1219
    5MOL0     O  548   8.959   9.157  10.805  0.6278 -0.5000  0.5160
    5MOL0     C  549   8.882   9.147  10.930 -0.1986 -0.2777 -0.0454
    5MOL0     C  550   8.729   9.180  10.927 -0.7005  0.9895 -0.2052
    5MOL0     C  551   8.709   9.292  10.819  0.3299  0.1433 -1.1270
    5MOL0     C  552   8.780   9.417  10.856  0.6443  0.1058  0.6639
    5MOL0     C  553   8.724   9.540  10.778  0.9874 -0.3753  0.1981
    5MOL0     C  554   8.822   9.643  10.741 -0.7846  0.1591  1.0271
    5MOL0     C  555   8.776   9.749  10.639 -0.3181  0.1691 -1.3974
    5MOL0     C  556   8.672   9.845  10.703 -0.4856  0.1798 -0.3824
    5MOL0     N  557   8.745   9.962  10.751 -0.0898 -0.6579  0.8163
    5MOL0     C  558   8.747  10.077  10.679  0.8918 -0.2328 -0.7282
    5MOL0     C  559   8.777  10.167  10.774  0.5435 -0.5722  1.0640
    5MOL0     C  560   8.808  10.314  10.748 -0.1979  0.3444  0.1177
    5MOL0     C  561   8.683  10.409  10.732  0.7597  1.0395 -0.2806
    5MOL0     C  562   8.600  10.395  10.605  0.3925 -0.2922  0.5904
    5MOL0     C  563   8.494  10.497  10.589 -0.0816 -0.4634  0.4327
    5MOL0     O  564   8.442  10.474  10.454  0.5333  0.4918  1.0020
    5MOL0     C  565   8.380  10.595  10.411  0.3141  0.3388  1.5858
    5MOL0     C  566   8.264  10.625  10.470  0.2509 -0.0660 -0.2235
    5MOL0     C  567   8.191  10.735  10.431 -0.4576 -0.5424 -1.4652
    5MOL0     C  568   8.065  10.756  10.508  0.0606 -0.5444 -0.1165
    5MOL0     C  569   8.237  10.828  10.333 -0.2951  0.5116 -0.2575
    5MOL0     C  570   8.178  10.953  10.289 -0.4892  0.4089  0.0284
    5MOL0     O  571   8.243  11.024  10.186  0.3485  0.6096 -0.4544
    5MOL0     C  572   8.191  11.148  10.158  0.9463 -0.6715  0.7785
    5MOL0     C  573   8.213  11.268  10.230  0.0238 -0.5795 -0.5374
    5MOL0     C  574   8.168  11.393  10.174 -0.5025 -0.1728  0.4200
    5MOL0     C  575   8.072  11.390  10.075  0.3580 -0.3316  0.5546
    5MOL0     O  576   8.019  11.509  10.017 -0.3922  0.3272  0.0532
    5MOL0     C  577   8.116  11.618   9.991 -0.1246  0.4794 -1.0014
    5MOL0     C  578   8.048  11.726   9.900 -0.3346 -0.3011  0.0013
    5MOL0     C  579   7.937  11.795   9.986  0.3133  0.3025  0.9372
    5MOL0     C  580   7.839  11.875   9.894  0.5776  0.1006 -0.0335
    5MOL0     C  581   7.737  11.959   9.967  0.4330  0.4837 -0.9777
    5MOL0     C  582   7.702  12.090   9.885 -0.2823  1.0589 -0.4283
    5MOL0     C  583   7.559  12.137   9.944  0.6171 -0.5261  0.8407
    5MOL0     C  584   7.490  12.264   9.881  0.2641  0.1178  0.0937
    5MOL0    Cl  585   7.595  12.411   9.922 -0.2181 -0.1466  0.0691
    5MOL0     C  586   8.043  11.276  10.008 -0.1255  0.4244 -0.0056
    5MOL0     C  587   8.122  11.158  10.033  0.4815 -0.0396  0.1271
    5MOL0     O  588   8.068  10.986  10.335 -0.4655 -0.1249  0.4486
    5MOL0     C  589   8.363  10.794  10.277  0.8985 -0.3780  0.5655
    5MOL0     C  590   8.436  10.680  10.316  0.0764  0.7099 -0.7493
    5MOL0     N  591   8.783  10.110  10.894 -0.4605 -0.3307  0.1018
    5MOL0     N  592   8.775   9.988  10.882  0.6359 -0.0209 -0.9360
    5MOL0     C  593   8.961   9.118  10.570  0.2363  0.4365  1.5331
    5MOL0     C  594   8.944   9.036  10.462 -0.0396 -0.6348 -0.9030
    5MOL0     C  595   8.908   8.649  10.220  0.6624 -1.3196 -0.2085
    5MOL0     C  596   8.897   8.747  10.119  0.3863 -0.1463 -0.3567
    5MOL0     C  597   8.888   8.715   9.985  0.6919 -0.3901 -0.3877
    5MOL0     C  598   8.888   8.583   9.938  0.5486  0.6951 -0.9092
    5MOL0     O  599   8.892   8.556   9.808 -0.0195 -0.4139 -0.3159
    5MOL0     C  600   8.884   8.420   9.763 -0.0418 -0.7870  0.2078
    5MOL0     C  601   9.018   8.364   9.744 -0.7144  1.0304 -0.1162
    5MOL0     C  602   9.011   8.229   9.667 -0.7261  0.2590 -0.4620
    5MOL0     C  603   8.912   8.131   9.724 -0.0450 -0.0656 -0.1200
    5MOL0     C  604   8.937   8.097   9.868  0.6800  0.1322  0.1671
    5MOL0     C  605   8.944   8.078   9.986  0.1385 -0.0562  0.7161
    5MOL0     C  606   8.887   8.489  10.042 -0.3414  0.1646  0.2667
    5MOL0     C  607   8.896   8.514  10.178  0.9365  0.7207  0.2355
    5MOL0     H  608   8.878   8.745  10.629  1.7520 -0.8506 -1.1464
    5MOL0     H  609   8.910   8.896  10.825  2.8902 -0.9406 -0.7660
    5MOL0     H  610   8.918   9.053  10.971  5.2406  1.8851  0.9299
    5MOL0     H  611   8.916   9.221  11.003 -3.4863  0.8864  0.4921
    5MOL0     H  612   8.684   9.090  10.884  2.8224 -0.3024 -1.5038
    5MOL0     H  613   8.674   9.199  11.020 -3.2497  1.8730 -1.7939
    5MOL0     H  614   8.742   9.272  10.717  3.1453  1.4929 -0.5757
    5MOL0     H  615   8.603   9.315  10.809  0.0559 -0.4180  0.2344
    5MOL0     H  616   8.763   9.424  10.964 -0.6775 -4.9896  1.0048
    5MOL0     H  617   8.888   9.411  10.845  0.6462  0.9846  0.0452
    5MOL0     H  618   8.668   9.515  10.688 -0.0002 -2.5829  1.3586
    5MOL0     H  619   8.647   9.594  10.835  0.3703  0.8515 -1.6966
    5MOL0     H  620   8.848   9.699  10.831 -3.5535  0.8829  1.4603
    5MOL0     H  621   8.907   9.596  10.690 -0.9883  2.3327 -1.5398
    5MOL0     H  622   8.862   9.806  10.605  2.4979  0.3647  4.7633
    5MOL0     H  623   8.733   9.687  10.559  3.7737 -1.8613 -2.2823
    5MOL0     H  624   8.613   9.792  10.779 -1.4514 -1.3084 -2.1038
    5MOL0     H  625   8.603   9.876  10.625 -1.1602 -1.3788 -0.4448
    5MOL0     H  626   8.710  10.086  10.577 -1.2065 -1.0063 -0.0934
    5MOL0     H  627   8.874  10.338  10.831 -1.6193 -0.6141  1.6105
    5MOL0     H  628   8.872  10.307  10.660 -0.3109 -1.0132  0.1187
    5MOL0     H  629   8.719  10.512  10.744  0.0678  0.9782  3.6455
    5MOL0     H  630   8.621  10.394  10.821  2.9511 -1.4154  0.9492
    5MOL0     H  631   8.543  10.302  10.599  2.1963 -1.5113  1.5694
    5MOL0     H  632   8.671  10.408  10.523  0.3591 -2.5677  0.1476
    5MOL0     H  633   8.534  10.598  10.597 -3.1872  0.9087  0.1573
    5MOL0     H  634   8.423  10.479  10.670  0.6959 -0.5997  1.0935
    5MOL0     H  635   8.221  10.551  10.537 -1.5618  1.0034 -0.1353
    5MOL0     H  636   8.058  10.671  10.577  1.7276 -4.0907 -3.9270
    5MOL0     H  637   8.055  10.850  10.563 -2.2546 -0.0900 -1.2149
    5MOL0     H  638   7.978  10.747  10.443  0.2251 -0.0297 -0.4101
    5MOL0     H  639   8.285  11.268  10.311  0.0840  4.5652 -0.2668
    5MOL0     H  640   8.202  11.483  10.223  4.2756 -0.1038 -2.3973
    5MOL0     H  641   8.145  11.662  10.086  0.6121 -2.5890  0.3130
    5MOL0     H  642   8.200  11.570   9.940 -1.7810  0.6797 -4.1646
    5MOL0     H  643   8.125  11.793   9.860 -0.6995  0.4442  0.5388
    5MOL0     H  644   8.007  11.674   9.812  3.1225  0.2562 -2.1764
    5MOL0     H  645   7.994  11.863  10.050  1.7578  1.5752 -1.5695
    5MOL0     H  646   7.888  11.725  10.055 -0.4493 -1.8553 -1.6192
    5MOL0     H  647   7.896  11.931   9.819 -2.7539  1.1734 -2.0423
    5MOL0     H  648   7.772  11.805   9.843 -0.7146 -0.4877  2.3137
    5MOL0     H  649   7.771  11.998  10.063  1.3563  0.7537 -1.3948
    5MOL0     H  650   7.654  11.890   9.982  1.0909 -0.8107 -2.8357
    5MOL0     H  651   7.773  12.172   9.884 -0.4419  1.3216 -3.9362
    5MOL0     H  652   7.685  12.078   9.778  0.3746  1.5766 -0.5942
    5MOL0     H  653   7.567  12.150  10.052  0.5293  0.3410  0.7564
    5MOL0     H  654   7.487  12.058   9.923  1.4617 -0.9983 -0.4293
    5MOL0     H  655   7.388  12.268   9.921  0.1890 -1.7995  0.2034
    5MOL0     H  656   7.479  12.265   9.772 -0.0376  1.9332  0.1142
    5MOL0     H  657   7.975  11.274   9.925  1.6108  0.1338 -1.4842
    5MOL0     H  658   8.097  11.072   9.972  1.9344  0.0314 -0.6070
    5MOL0     H  659   8.407  10.845  10.192 -1.1815  0.1790 -0.2492
    5MOL0     H  660   8.527  10.646  10.268  0.5828  0.0383  0.6419
    5MOL0     H  661   8.987   9.220  10.546 -0.2524  0.1615 -0.2441
    5MOL0     H  662   8.971   9.070  10.362 -2.2347  1.1958 -0.9562
    5MOL0     H  663   8.885   8.853  10.138 -1.3510 -0.0194 -1.8108
    5MOL0     H  664   8.887   8.797   9.913  0.8849  0.1274  0.1909
    5MOL0     H  665   8.822   8.365   9.835 -2.2293  3.1317  1.6590
    5MOL0     H  666   8.834   8.429   9.667 -1.7754 -2.0603  0.9552
    5MOL0     H  667   9.076   8.363   9.837  3.2730 -0.1735 -2.3792
    5MOL0     H  668   9.087   8.423   9.683  5.7854 -1.8138  3.4450
    5MOL0     H  669   9.107   8.178   9.678  0.3891  1.9905 -1.6320
    5MOL0     H  670   8.993   8.263   9.565  0.8090  1.9402 -0.2232
    5MOL0     H  671   8.914   8.040   9.663 -0.6548 -0.0903 -0.1163
    5MOL0     H  672   8.811   8.171   9.715  0.1026  0.0471 -1.4027
    5MOL0     H  673   8.950   8.061  10.091 -1.3506 -2.7118  0.4531
    5MOL0     H  674   8.890   8.381  10.037 -0.5505  0.1126  1.0724
    5MOL0     H  675   8.902   8.430  10.246  3.1787  1.1869  0.7008
    6MOL0     O  676   9.425   0.764   6.259 -0.0099 -0.2418  0.0841
    6MOL0     C  677   9.508   0.850   6.279  0.5330  0.1293  1.2411
    6MOL0     O  678   9.589   0.906   6.188 -0.2087 -0.1562  0.0412
    6MOL0     C  679   9.587   0.869   6.059  0.6430 -0.1047 -0.4907
    6MOL0     C  680   9.650   0.753   6.017  0.6175  0.3550  0.4333
    6MOL0     C  681   9.653   0.709   5.890  0.4423 -0.1104  0.6904
    6MOL0     C  682   9.618   0.803   5.790 -0.0230  0.3371 -0.6360
    6MOL0     O  683   9.628   0.754   5.672 -0.2135 -0.1079  0.0869
    6MOL0     C  684   9.631   0.845   5.557 -0.4878 -0.2823 -0.1846
    6MOL0     C  685   9.651   0.771   5.424 -0.3045 -0.1300  0.0682
    6MOL0     C  686   9.763   0.668   5.442 -0.7124  0.3862 -0.4514
    6MOL0     C  687   9.807   0.616   5.306  0.8262 -0.7225 -0.7552
    6MOL0     C  688   9.863   0.472   5.329 -0.0212  0.3048 -0.4462
    6MOL0     C  689   9.966   0.440   5.212  0.4542  0.1319 -0.2527
    6MOL0     C  690  10.017   0.295   5.220  0.1347  0.0850 -0.9671
    6MOL0     C  691  10.147   0.287   5.309  0.0442 -0.0640 -0.9518
    6MOL0     N  692  10.173   0.149   5.357  0.2233  0.1499  0.2166
    6MOL0     C  693  10.117   0.085   5.468  0.2662 -0.8277 -0.5417
    6MOL0     C  694  10.111  -0.045   5.433 -0.5663 -0.6256  0.2019
    6MOL0     C  695  10.064  -0.150   5.522 -0.0982  0.2923 -0.6933
    6MOL0     C  696  10.166  -0.206   5.623 -0.4820  1.0651  1.3493
    6MOL0     C  697  10.208  -0.120   5.739 -0.1265 -0.8741 -0.1566
    6MOL0     C  698  10.272  -0.202   5.853 -0.0903  0.2906  1.6201
    6MOL0     O  699  10.165  -0.283   5.908  0.3153 -1.3296 -0.2412
    6MOL0     C  700  10.161  -0.353   6.029 -0.4255 -0.3158  0.5615
    6MOL0     C  701  10.263  -0.348   6.126 -0.5380 -0.2740  0.8847
    6MOL0     C  702  10.277  -0.440   6.230  0.1335 -0.5964  0.5406
    6MOL0     C  703  10.405  -0.439   6.317  0.7782  0.3811 -0.1445
    6MOL0     C  704  10.178  -0.528   6.252  0.0175 -0.0088  0.0588
    6MOL0     C  705  10.174  -0.630   6.356 -0.2851 -0.1409 -0.0248
    6MOL0     O  706  10.289  -0.702   6.351  0.2918 -0.3373 -0.1844
    6MOL0     C  707  10.288  -0.811   6.424 -0.3998  0.4229 -0.2533
    6MOL0     C  708  10.366  -0.827   6.540  0.4627 -0.1911  0.3188
    6MOL0     C  709  10.381  -0.946   6.602  0.2590  0.3344 -0.4879
    6MOL0     C  710  10.324  -1.057   6.549  0.0107  0.3602 -0.2760
    6MOL0     O  711  10.330  -1.171   6.622  0.4010 -0.2865 -0.0114
    6MOL0     C  712  10.313  -1.300   6.555 -0.7688 -0.2858 -0.1439
    6MOL0     C  713  10.442  -1.349   6.482 -0.2058  0.0722 -0.1722
    6MOL0     C  714  10.414  -1.463   6.382  0.6732  0.2792 -0.0703
    6MOL0     C  715  10.328  -1.411   6.263 -0.4280  0.1674  1.0550
    6MOL0     C  716  10.407  -1.331   6.166  0.1651 -0.2671 -0.1616
    6MOL0     C  717  10.348  -1.319   6.029  0.7235 -0.2087  0.4717
    6MOL0     C  718  10.211  -1.261   6.020 -0.1997 -0.7862 -0.0828
    6MOL0     C  719  10.188  -1.174   5.897  0.2405  1.2338 -0.1306
    6MOL0    Cl  720  10.297  -1.036   5.876  0.0780 -0.0796  0.2127
    6MOL0     C  721  10.248  -1.036   6.430  0.4641  0.6089 -0.1608
    6MOL0     C  722  10.231  -0.919   6.360 -1.3791 -0.5984 -0.5643
    6MOL0     O  723  10.070  -0.650   6.416  0.0411 -0.0391 -0.1080
    6MOL0     C  724  10.065  -0.516   6.170 -0.6118  0.5192 -1.5801
    6MOL0     C  725  10.053  -0.433   6.062  0.4709 -1.3680 -1.4660
    6MOL0     N  726  10.165  -0.055   5.304 -0.3786 -0.0493 -0.6896
    6MOL0     N  727  10.199   0.061   5.253 -0.1870  0.1700 -0.9752
    6MOL0     C  728   9.554   0.923   5.824  0.3774 -0.1099 -0.9821
    6MOL0     C  729   9.517   0.947   5.960  0.1772 -0.8559  0.3468
    6MOL0     C  730   9.532   0.895   6.413  0.5912  0.4134 -0.5074
    6MOL0     C  731   9.620   1.002   6.440 -0.5675  0.2000  0.8316
    6MOL0     C  732   9.644   1.039   6.570 -0.1743 -0.5569 -0.6472
    6MOL0     C  733   9.579   0.972   6.686 -0.3804 -0.0521  0.6605
    6MOL0     O  734   9.603   1.035   6.802  0.2678  0.3702  0.1224
    6MOL0     C  735   9.533   0.993   6.922  0.5264 -0.5693  0.3663
    6MOL0     C  736   9.581   1.080   7.042 -0.3552  0.1583 -0.5198
    6MOL0     C  737   9.532   1.222   7.025 -0.4861 -0.6650  0.3993
    6MOL0     C  738   9.515   1.281   7.164  0.0925 -0.7939  0.2106
    6MOL0     C  739   9.501   1.435   7.164 -0.0331 -0.4309 -0.7341
    6MOL0     C  740   9.491   1.556   7.151  0.6437 -0.0783 -0.1534
    6MOL0     C  741   9.488   0.868   6.660  0.5662  0.3046  0.8996
    6MOL0     C  742   9.467   0.835   6.526  0.4680 -0.2295 -0.1572
    6MOL0     H  743   9.679   0.683   6.095 -0.2729 -1.5066 -0.8136
    6MOL0     H  744   9.703   0.620   5.853 -0.8556 -1.0054  1.0149
    6MOL0     H  745   9.545   0.912   5.555 -0.2542  0.0700  0.7311
    6MOL0     H  746   9.719   0.911   5.552  1.2931 -2.6098 -1.4893
    6MOL0     H  747   9.561   0.712   5.405 -0.2982 -0.1810  0.1912
    6MOL0     H  748   9.678   0.839   5.343  1.2426 -1.6697 -0.7653
    6MOL0     H  749   9.844   0.710   5.501 -2.7272  0.8791  2.1426
    6MOL0     H  750   9.709   0.587   5.492 -1.9542  2.5463  1.9392
    6MOL0     H  751   9.716   0.592   5.250  0.3784  0.1093 -0.4182
    6MOL0     H  752   9.874   0.689   5.260  2.0858  0.6715  2.8791
    6MOL0     H  753   9.910   0.461   5.428 -0.4988 -0.0811 -0.2575
    6MOL0     H  754   9.781   0.400   5.322  0.1252  0.1880 -0.9912
    6MOL0     H  755   9.901   0.441   5.124 -3.1178 -1.5626  2.1479
    6MOL0     H  756  10.045   0.510   5.183 -0.4198  0.7463 -1.2479
    6MOL0     H  757   9.946   0.226   5.266  0.5857  1.7868  2.5745
    6MOL0     H  758  10.039   0.255   5.120 -1.0408 -1.4867 -0.6403
    6MOL0     H  759  10.143   0.343   5.403  0.7460 -0.0940 -0.8995
    6MOL0     H  760  10.235   0.324   5.256  2.0820 -0.2012  2.0592
    6MOL0     H  761  10.077   0.135   5.556  3.2376 -0.6034  0.8008
    6MOL0     H  762   9.976  -0.127   5.583 -0.6768 -2.9295 -0.1277
    6MOL0     H  763  10.033  -0.225   5.449 -0.4762  1.3702 -1.6795
    6MOL0     H  764  10.255  -0.235   5.566  0.0997  2.2758  1.6227
    6MOL0     H  765  10.144  -0.309   5.652  2.0496 -0.0455 -0.2842
    6MOL0     H  766  10.116  -0.069   5.772 -1.8450 -3.4018 -0.7873
    6MOL0     H  767  10.283  -0.045   5.711 -0.6736  0.0091  0.6464
    6MOL0     H  768  10.321  -0.135   5.924 -3.2079  4.8190 -0.0432
    6MOL0     H  769  10.354  -0.260   5.809 -0.7691  1.6592 -1.7567
    6MOL0     H  770  10.358  -0.297   6.117  0.3950 -2.1679 -0.4754
    6MOL0     H  771  10.485  -0.386   6.264  0.9656  1.0426  0.7849
    6MOL0     H  772  10.386  -0.401   6.417  0.3452  1.6606 -0.6900
    6MOL0     H  773  10.454  -0.536   6.326 -0.0030  0.0041  0.0931
    6MOL0     H  774  10.408  -0.734   6.577 -0.6382  0.3523  0.2219
    6MOL0     H  775  10.436  -0.952   6.695  3.0449  0.6549 -2.0059
    6MOL0     H  776  10.307  -1.371   6.638  1.3159  0.0747  0.3758
    6MOL0     H  777  10.223  -1.310   6.494  0.5675 -2.1546 -1.9791
    6MOL0     H  778  10.491  -1.260   6.440  1.9441  0.0599  2.0548
    6MOL0     H  779  10.495  -1.383   6.571 -1.0022  3.0322  1.5908
    6MOL0     H  780  10.346  -1.524   6.442  0.8367  1.0825  0.9422
    6MOL0     H  781  10.504  -1.519   6.352 -0.6116 -0.1450 -3.6327
    6MOL0     H  782  10.292  -1.495   6.201 -1.0007  1.2808 -0.1699
    6MOL0     H  783  10.237  -1.361   6.297 -2.4024 -1.2601 -1.6956
    6MOL0     H  784  10.513  -1.356   6.157  0.4607 -0.1871  2.3967
    6MOL0     H  785  10.405  -1.235   6.219  2.7255  0.6020 -1.4863
    6MOL0     H  786  10.406  -1.260   5.957 -2.8871 -1.8909 -4.3374
    6MOL0     H  787  10.348  -1.412   5.971  1.2440 -1.7474  2.7986
    6MOL0     H  788  10.198  -1.191   6.103 -1.9977  0.6370 -1.4753
    6MOL0     H  789  10.138  -1.342   6.026 -0.0304 -1.1222 -1.9946
    6MOL0     H  790  10.084  -1.140   5.908  0.0554 -0.1646  4.8872
    6MOL0     H  791  10.202  -1.240   5.811  1.9274  1.9246 -0.4144
    6MOL0     H  792  10.211  -1.126   6.382  3.2140 -1.4847  1.3564
    6MOL0     H  793  10.178  -0.915   6.265 -0.3247 -3.0610 -1.3436
    6MOL0     H  794   9.982  -0.584   6.191  1.1941 -0.7108  2.5347
    6MOL0     H  795   9.970  -0.435   5.992 -0.0935  1.1099 -0.9737
    6MOL0     H  796   9.520   0.997   5.751 -3.0319  2.2473  2.5793
    6MOL0     H  797   9.445   1.024   5.983  3.0365  2.0542  0.1662
    6MOL0     H  798   9.674   1.060   6.366  3.9895 -2.8165  1.4088
    6MOL0     H  799   9.726   1.106   6.594  0.4971 -1.0802 -1.4229
    6MOL0     H  800   9.428   1.018   6.907  1.1810  1.3091 -1.5766
    6MOL0     H  801   9.535   0.883   6.921  0.0693 -0.5774  0.1885
    6MOL0     H  802   9.690   1.082   7.053 -0.5016  1.8092  1.2343
    6MOL0     H  803   9.548   1.032   7.135  4.3429  2.3012  2.6636
    6MOL0     H  804   9.438   1.228   6.969  0.4339 -2.7698 -1.5330
    6MOL0     H  805   9.612   1.273   6.971 -0.2365 -0.7598  0.6765
    6MOL0     H  806   9.606   1.264   7.224  0.5116  1.1084  0.1839
    6MOL0     H  807   9.425   1.236   7.206  1.3534 -1.4929  2.3261
    6MOL0     H  808   9.463   1.657   7.130  0.3908 -0.1147 -0.0050
    6MOL0     H  809   9.446   0.803   6.735  0.1823  0.7859  1.1039
    6MOL0     H  810   9.405   0.748   6.507  2.3241 -1.0664 -3.1432
    7MOL0     O  811   2.573   0.537   3.026 -0.1695  0.0487 -0.1534
    7MOL0     C  812   2.511   0.543   2.921  0.6722 -0.4817 -0.1883
    7MOL0     O  813   2.527   0.460   2.809 -0.3850 -0.2486 -0.0544
    7MOL0     C  814   2.582   0.337   2.835  0.4756 -1.5176 -0.0489
    7MOL0     C  815   2.718   0.306   2.863  0.7104 -0.0982 -0.1339
    7MOL0     C  816   2.763   0.175   2.858  0.5976  0.1828  0.0788
    7MOL0     C  817   2.673   0.075   2.823 -0.9343 -0.7115 -0.0970
    7MOL0     O  818   2.714  -0.054   2.810  0.3148  0.9379  0.2597
    7MOL0     C  819   2.672  -0.134   2.921  0.3248  0.2692  1.2932
    7MOL0     C  820   2.748  -0.270   2.912 -0.2032 -0.5368 -0.0205
    7MOL0     C  821   2.708  -0.377   3.010 -0.4405  0.4291 -0.8597
    7MOL0     C  822   2.812  -0.369   3.125  0.5036  0.2329  0.7197
    7MOL0     C  823   2.786  -0.473   3.221  0.5678 -0.1569  0.0230
    7MOL0     C  824   2.873  -0.470   3.349  0.0563 -0.0136  1.4175
    7MOL0     C  825   2.781  -0.453   3.470 -0.0303 -0.7048  0.5363
    7MOL0     C  826   2.704  -0.586   3.490 -0.3716  0.2556  0.5017
    7MOL0     N  827   2.610  -0.572   3.596 -0.8567 -0.4210 -0.5608
    7MOL0     C  828   2.642  -0.563   3.724  0.1685  0.6659  0.5632
    7MOL0     C  829   2.529  -0.593   3.794 -0.4902 -0.1885  0.3011
    7MOL0     C  830   2.505  -0.592   3.946 -0.0838 -0.1277  0.1690
    7MOL0     C  831   2.434  -0.722   3.990 -0.8050 -1.2368  0.3752
    7MOL0     C  832   2.386  -0.713   4.136 -0.8479 -0.7584 -0.1414
    7MOL0     C  833   2.286  -0.824   4.179  0.0155 -0.3351  0.1695
    7MOL0     O  834   2.316  -0.948   4.137 -0.6786  0.8009  0.1734
    7MOL0     C  835   2.214  -1.045   4.137  0.3503 -0.2923  0.2822
    7MOL0     C  836   2.241  -1.162   4.062 -0.1599 -0.8994  0.1183
    7MOL0     C  837   2.157  -1.279   4.057 -0.4454  0.1195  0.6111
    7MOL0     C  838   2.197  -1.388   3.962 -0.4058  0.6570  1.2690
    7MOL0     C  839   2.034  -1.268   4.124  0.1779 -0.4074 -0.5703
    7MOL0     C  840   1.931  -1.368   4.127 -0.8926  0.9817 -0.2351
    7MOL0     O  841   1.802  -1.325   4.144 -0.8475  0.2320  0.5322
    7MOL0     C  842   1.704  -1.423   4.133 -0.2965  1.6511 -0.7109
    7MOL0     C  843   1.646  -1.467   4.010 -0.5358  0.3913 -0.6627
    7MOL0     C  844   1.546  -1.558   4.006  0.0343  0.2019  0.1808
    7MOL0     C  845   1.502  -1.620   4.127  0.9544  0.3788 -0.2253
    7MOL0     O  846   1.417  -1.734   4.105  0.4835 -0.5101  0.5352
    7MOL0     C  847   1.364  -1.809   4.220 -0.2905 -0.7628  0.2858
    7MOL0     C  848   1.301  -1.946   4.164  0.9499 -0.1472  0.3491
    7MOL0     C  849   1.407  -2.034   4.102 -0.4491  0.5081  0.3146
    7MOL0     C  850   1.350  -2.113   3.972  0.1186  0.6251 -1.1155
    7MOL0     C  851   1.248  -2.224   4.001 -0.0762 -0.7279  0.1007
    7MOL0     C  852   1.312  -2.343   4.075  0.2834 -0.0887  1.2348
    7MOL0     C  853   1.224  -2.471   4.095 -0.2930  0.3297  1.1804
    7MOL0     C  854   1.276  -2.570   4.198 -0.2847 -0.1177 -0.7835
    7MOL0    Cl  855   1.248  -2.496   4.350 -0.1346 -0.5762  0.3304
    7MOL0     C  856   1.559  -1.588   4.253  0.1491 -0.3552  0.1856
    7MOL0     C  857   1.660  -1.487   4.260  0.5050  0.1907  0.1626
    7MOL0     O  858   1.970  -1.485   4.142 -0.1119 -0.5709  0.3563
    7MOL0     C  859   2.002  -1.142   4.185  0.6158 -0.7801  0.6208
    7MOL0     C  860   2.088  -1.028   4.196  0.0627  1.1833 -0.1487
    7MOL0     N  861   2.430  -0.601   3.698 -0.8027  0.1874  0.6909
    7MOL0     N  862   2.477  -0.593   3.576 -0.2645 -0.0283 -0.2145
    7MOL0     C  863   2.538   0.103   2.801 -0.5384  0.5180 -0.0139
    7MOL0     C  864   2.492   0.231   2.806  0.2758 -0.3132 -0.1567
    7MOL0     C  865   2.430   0.664   2.905  0.4061  0.7720 -0.8583
    7MOL0     C  866   2.441   0.717   2.776 -0.0092  0.1348  0.1292
    7MOL0     C  867   2.366   0.826   2.736 -0.8398 -0.4298 -0.7637
    7MOL0     C  868   2.289   0.899   2.835 -0.4380  0.9526  0.6396
    7MOL0     O  869   2.194   0.982   2.799  0.5191 -1.1889 -0.4787
    7MOL0     C  870   2.115   0.950   2.681 -0.5521 -0.4720 -0.4238
    7MOL0     C  871   1.970   0.921   2.714 -0.5837  0.0252 -0.0549
    7MOL0     C  872   1.888   1.034   2.772  0.0953  0.1939 -0.1171
    7MOL0     C  873   1.899   1.062   2.916  0.4359  0.1837 -0.0154
    7MOL0     C  874   1.802   1.002   3.003  0.4162  0.3904 -0.5756
    7MOL0     C  875   1.713   0.965   3.081  0.4147 -0.5039 -0.3306
    7MOL0     C  876   2.296   0.856   2.972 -0.3728  0.5008  1.0055
    7MOL0     C  877   2.365   0.736   3.011 -0.3060 -0.6718 -0.0187
    7MOL0     H  878   2.793   0.385   2.873  0.5350  0.0061  0.3799
    7MOL0     H  879   2.867   0.149   2.876  0.2210 -0.5631  1.3514
    7MOL0     H  880   2.694  -0.087   3.017  4.3554  0.4180  0.4393
    7MOL0     H  881   2.565  -0.160   2.914  0.0070  1.6196  0.9768
    7MOL0     H  882   2.725  -0.316   2.815 -0.1840 -1.2823  0.3266
    7MOL0     H  883   2.853  -0.240   2.911 -0.6671  1.2355  0.6000
    7MOL0     H  884   2.610  -0.355   3.052  0.5545 -0.9075  2.5420
    7MOL0     H  885   2.708  -0.476   2.965 -0.5278 -1.3547  2.7140
    7MOL0     H  886   2.915  -0.377   3.087  0.1200  0.1715 -0.3525
    7MOL0     H  887   2.811  -0.278   3.185 -4.4376 -0.6937  2.4791
    7MOL0     H  888   2.682  -0.450   3.245  0.8351 -0.9241  2.0652
    7MOL0     H  889   2.783  -0.575   3.179  0.4641  0.3674 -1.2980
    7MOL0     H  890   2.932  -0.562   3.349 -1.3185 -1.0212 -1.6785
    7MOL0     H  891   2.935  -0.379   3.349 -0.0930  0.1106  0.2295
    7MOL0     H  892   2.845  -0.414   3.550  0.6601 -1.5540  0.4010
    7MOL0     H  893   2.713  -0.368   3.455 -1.7381 -1.4634  3.2601
    7MOL0     H  894   2.772  -0.669   3.509  0.7423  0.5226 -1.9139
    7MOL0     H  895   2.656  -0.610   3.395  0.1520 -1.1730  0.5796
    7MOL0     H  896   2.740  -0.525   3.750  0.4944  0.6856 -0.5958
    7MOL0     H  897   2.604  -0.582   3.991  0.1133  0.4046 -0.3643
    7MOL0     H  898   2.456  -0.499   3.976  2.5467  1.3201  0.2467
    7MOL0     H  899   2.496  -0.811   3.984  0.1397 -0.5105 -3.4462
    7MOL0     H  900   2.351  -0.733   3.919  1.1396 -0.7002 -2.1054
    7MOL0     H  901   2.333  -0.619   4.153  0.6537  0.0629  0.1524
    7MOL0     H  902   2.472  -0.721   4.203 -0.3216 -2.7896 -0.9714
    7MOL0     H  903   2.189  -0.795   4.138 -0.7142 -1.2085  1.2129
    7MOL0     H  904   2.266  -0.820   4.286 -2.7608  2.4011 -0.3219
    7MOL0     H  905   2.335  -1.171   4.008  0.9623 -2.9260  2.2291
    7MOL0     H  906   2.110  -1.399   3.895  1.5715  3.4672 -2.0972
    7MOL0     H  907   2.282  -1.356   3.901  0.3871  2.6981  3.3128
    7MOL0     H  908   2.218  -1.473   4.027  0.4437  1.3472  1.9072
    7MOL0     H  909   1.690  -1.431   3.917  0.3848  2.2740  0.4381
    7MOL0     H  910   1.509  -1.605   3.915  1.1139 -0.1799 -0.0723
    7MOL0     H  911   1.452  -1.842   4.277  1.9469 -0.8189 -2.8971
    7MOL0     H  912   1.316  -1.749   4.297  2.0022  3.3892 -1.1895
    7MOL0     H  913   1.259  -2.007   4.245 -0.4107 -1.9591 -1.6099
    7MOL0     H  914   1.216  -1.924   4.099 -0.6819  0.3413  2.5359
    7MOL0     H  915   1.459  -2.107   4.164  2.8813  1.1107 -1.5633
    7MOL0     H  916   1.497  -1.977   4.076  2.3831 -2.7524  2.1005
    7MOL0     H  917   1.300  -2.037   3.911  2.8255  1.7192 -2.1561
    7MOL0     H  918   1.439  -2.156   3.924 -0.0506  0.4893 -1.3078
    7MOL0     H  919   1.203  -2.242   3.902  1.0545 -1.9603 -0.2117
    7MOL0     H  920   1.176  -2.178   4.070  0.4908 -0.8689  0.7876
    7MOL0     H  921   1.406  -2.362   4.023  0.5848  3.1162  0.4225
    7MOL0     H  922   1.348  -2.310   4.173  4.8345 -0.1030 -0.2207
    7MOL0     H  923   1.229  -2.529   4.002 -0.8554  4.1691 -1.4912
    7MOL0     H  924   1.122  -2.439   4.121 -1.2578  1.3028 -2.9976
    7MOL0     H  925   1.384  -2.560   4.179 -0.2510 -0.3645 -0.7309
    7MOL0     H  926   1.228  -2.668   4.189  0.2881 -0.5262  0.4001
    7MOL0     H  927   1.539  -1.636   4.348 -1.2571  0.3354  0.2502
    7MOL0     H  928   1.686  -1.457   4.361 -0.0942  2.9906 -0.4383
    7MOL0     H  929   1.906  -1.128   4.234  0.0165 -1.1228 -0.4309
    7MOL0     H  930   2.053  -0.937   4.242 -3.5502 -0.2938  0.3877
    7MOL0     H  931   2.464   0.031   2.770  1.4512 -0.8581 -1.8667
    7MOL0     H  932   2.384   0.232   2.798 -0.1738 -0.7842  3.8795
    7MOL0     H  933   2.508   0.683   2.698 -1.3530 -1.6754 -0.2967
    7MOL0     H  934   2.365   0.852   2.631  0.7358  4.2914  0.1153
    7MOL0     H  935   2.126   1.034   2.612  3.1942 -1.1999 -0.8911
    7MOL0     H  936   2.151   0.862   2.627 -0.0140  0.6150 -1.9060
    7MOL0     H  937   1.968   0.824   2.766 -0.4867  0.0558  0.0065
    7MOL0     H  938   1.926   0.897   2.617  3.0085 -1.2594 -1.5023
    7MOL0     H  939   1.783   1.020   2.747  0.6607 -1.4650 -1.7973
    7MOL0     H  940   1.930   1.120   2.719  0.1416 -1.1669 -2.4482
    7MOL0     H  941   1.881   1.170   2.916  2.0030  0.4696 -0.1051
    7MOL0     H  942   1.996   1.036   2.959  0.9946  2.4515  0.1800
    7MOL0     H  943   1.622   0.950   3.136 -0.1956  2.0145 -0.5194
    7MOL0     H  944   2.241   0.914   3.044  0.4236  1.2376  1.0366
    7MOL0     H  945   2.349   0.706   3.113 -3.1340 -1.0098 -0.4739
    8MOL0     O  946   6.565   3.880   4.678  0.5028 -0.6420  0.0739
    8MOL0     C  947   6.456   3.819   4.702  0.0123  0.1264  1.1697
    8MOL0     O  948   6.324   3.858   4.652  0.2912  0.0626  0.1365
    8MOL0     C  949   6.313   3.968   4.569  0.9499  1.0905 -0.1650
    8MOL0     C  950   6.206   3.950   4.480  0.2760 -0.1825  0.5302
    8MOL0     C  951   6.160   4.050   4.396 -0.6919 -0.9118  0.8439
    8MOL0     C  952   6.227   4.177   4.412  0.6003  1.0570  0.7180
    8MOL0     O  953   6.186   4.292   4.348  0.1199 -0.7264  0.0081
    8MOL0     C  954   6.056   4.291   4.296  0.7565 -0.0325 -0.2965
    8MOL0     C  955   5.994   4.432   4.315 -0.6304 -0.8067 -0.7200
    8MOL0     C  956   6.081   4.548   4.252 -0.3942  0.2234 -0.7423
    8MOL0     C  957   6.014   4.678   4.286  0.4057  0.6398 -0.5910
    8MOL0     C  958   6.058   4.807   4.227 -0.1269  0.5725  0.2761
    8MOL0     C  959   5.934   4.905   4.203 -0.2358 -0.3381 -0.7885
    8MOL0     C  960   5.987   5.049   4.175  1.3013  0.0050  1.4973
    8MOL0     C  961   5.890   5.154   4.137  0.7844 -0.0093  0.7990
    8MOL0     N  962   5.952   5.288   4.116 -0.6579 -0.0193  0.2247
    8MOL0     C  963   6.008   5.334   3.997  0.1030  0.7202  0.2253
    8MOL0     C  964   6.067   5.457   4.030  0.7953 -0.5499 -0.2995
    8MOL0     C  965   6.134   5.556   3.932 -0.3687 -0.0757 -0.8412
    8MOL0     C  966   6.056   5.562   3.805  0.0250  0.2455 -0.1699
    8MOL0     C  967   5.944   5.665   3.817 -0.5473  1.0871  0.1079
    8MOL0     C  968   5.991   5.811   3.834 -0.4101 -0.1738  0.8432
    8MOL0     O  969   6.100   5.840   3.739 -0.5662 -0.2525 -1.2158
    8MOL0     C  970   6.075   5.869   3.607 -0.8841 -0.1994  0.9509
    8MOL0     C  971   5.952   5.883   3.545 -0.4806  0.8152  0.1029
    8MOL0     C  972   5.936   5.922   3.411 -0.5985  0.6204 -0.6186
    8MOL0     C  973   5.803   5.896   3.358  0.6329  0.1381  0.9947
    8MOL0     C  974   6.054   5.964   3.335 -0.5387 -0.6502 -0.5418
    8MOL0     C  975   6.055   6.019   3.197 -0.3492  0.2943  0.4207
    8MOL0     O  976   5.935   6.031   3.136 -0.0646 -0.7704  0.2348
    8MOL0     C  977   5.927   6.096   3.014  0.6869  0.4356 -0.2169
    8MOL0     C  978   5.920   6.006   2.903 -0.9754  0.0123 -0.2237
    8MOL0     C  979   5.911   6.050   2.771  0.1563  0.8140  0.5949
    8MOL0     C  980   5.918   6.185   2.745  0.1337 -0.6341  0.7595
    8MOL0     O  981   5.911   6.236   2.619 -0.0079 -0.3184  1.0076
    8MOL0     C  982   5.903   6.151   2.508 -0.0577 -0.6635 -0.5769
    8MOL0     C  983   5.840   6.222   2.376  0.2796  0.9278 -0.4940
    8MOL0     C  984   5.819   6.119   2.256 -0.9574  0.0805 -0.1963
    8MOL0     C  985   5.718   6.170   2.156  0.7507 -0.9178  0.2187
    8MOL0     C  986   5.684   6.058   2.061 -0.4077 -0.5332  0.3404
    8MOL0     C  987   5.600   6.107   1.940  0.7682  0.3588  1.3466
    8MOL0     C  988   5.519   5.986   1.892 -0.8246  1.2738  0.3456
    8MOL0     C  989   5.437   6.022   1.761 -0.0391  0.3223 -0.3208
    8MOL0    Cl  990   5.390   6.198   1.740  0.0346  0.1729  0.2729
    8MOL0     C  991   5.928   6.277   2.849  0.2447 -0.1502  0.6175
    8MOL0     C  992   5.934   6.227   2.985  0.5184 -0.2225  0.3198
    8MOL0     O  993   6.158   6.067   3.152 -0.2081  0.9494  0.6648
    8MOL0     C  994   6.177   5.950   3.396  0.4575  0.1385 -0.1116
    8MOL0     C  995   6.181   5.904   3.529  0.0186 -0.4291  0.5405
    8MOL0     N  996   6.054   5.485   4.169 -1.4731  0.0030  0.4554
    8MOL0     N  997   6.006   5.368   4.221  0.3766 -0.2536  0.7045
    8MOL0     C  998   6.329   4.195   4.502  0.0694 -0.3173  0.2252
    8MOL0     C  999   6.380   4.085   4.581 -0.1143 -0.4334  0.2922
    8MOL0     C 1000   6.461   3.709   4.804  0.0537 -0.9411 -0.0509
    8MOL0     C 1001   6.343   3.650   4.852  0.6526  0.7195  0.5744
    8MOL0     C 1002   6.351   3.544   4.947 -0.6816 -0.2489  0.2730
    8MOL0     C 1003   6.471   3.490   4.996  0.7448 -0.3810  0.1127
    8MOL0     O 1004   6.488   3.385   5.087  0.2067  0.0760  0.2832
    8MOL0     C 1005   6.420   3.384   5.216  0.1446 -0.2479 -0.6590
    8MOL0     C 1006   6.277   3.339   5.210  0.3677  0.8089 -0.3886
    8MOL0     C 1007   6.258   3.199   5.151  1.8821 -0.5004  0.5398
    8MOL0     C 1008   6.108   3.159   5.139 -0.3790 -0.0799  0.1011
    8MOL0     C 1009   6.046   3.212   5.025 -0.2999 -0.3965 -0.4869
    8MOL0     C 1010   6.009   3.260   4.916  0.7045 -0.3239 -0.6079
    8MOL0     C 1011   6.581   3.544   4.929 -0.6179  1.0829 -0.4372
    8MOL0     C 1012   6.578   3.651   4.853  0.0448  0.0770  0.8074
    8MOL0     H 1013   6.156   3.854   4.480  2.4241 -1.3805  1.7432
    8MOL0     H 1014   6.080   4.033   4.324  1.9946 -1.7922 -2.1497
    8MOL0     H 1015   6.068   4.269   4.189 -1.9810 -0.9795 -0.4788
    8MOL0     H 1016   5.988   4.222   4.347  1.5947 -0.4953  0.2145
    8MOL0     H 1017   5.891   4.439   4.278 -0.8818  1.3959  0.1842
    8MOL0     H 1018   5.991   4.455   4.423  0.7469  0.9980 -1.0034
    8MOL0     H 1019   6.188   4.543   4.275 -0.8300  0.8751  1.6759
    8MOL0     H 1020   6.086   4.525   4.145  2.4243  0.5338 -0.7661
    8MOL0     H 1021   5.905   4.668   4.281  0.5000 -0.4113 -0.6682
    8MOL0     H 1022   6.032   4.687   4.394 -1.2223  0.5123 -0.2877
    8MOL0     H 1023   6.129   4.839   4.303 -0.0367  0.2399  0.3321
    8MOL0     H 1024   6.112   4.799   4.132 -0.7720  0.7824 -0.1227
    8MOL0     H 1025   5.875   4.868   4.119  0.3718  0.3381 -1.5221
    8MOL0     H 1026   5.878   4.904   4.297  2.3494 -1.4777  0.8455
    8MOL0     H 1027   6.046   5.090   4.257  2.6317  0.0970  0.5228
    8MOL0     H 1028   6.061   5.038   4.096 -0.4209 -3.6528  0.1581
    8MOL0     H 1029   5.824   5.167   4.223  0.3518 -0.1068  0.4844
    8MOL0     H 1030   5.833   5.130   4.046  0.7930 -1.9041  1.2527
    8MOL0     H 1031   6.011   5.286   3.900  1.3397 -0.5540  0.8618
    8MOL0     H 1032   6.129   5.654   3.980 -0.5796  0.5196 -2.0654
    8MOL0     H 1033   6.239   5.532   3.912 -0.8130 -1.0945 -2.0712
    8MOL0     H 1034   6.009   5.465   3.785 -0.6259 -0.2263  3.1376
    8MOL0     H 1035   6.121   5.592   3.722 -1.0897 -0.0732 -1.1903
    8MOL0     H 1036   5.884   5.643   3.905  1.7703  1.1391  1.7955
    8MOL0     H 1037   5.887   5.646   3.725 -2.0344  1.0547  1.0089
    8MOL0     H 1038   6.025   5.854   3.928  2.7396  3.7557 -1.7261
    8MOL0     H 1039   5.900   5.865   3.808  1.7704  2.6819 -1.7286
    8MOL0     H 1040   5.869   5.864   3.613  0.0250 -0.7088  0.3473
    8MOL0     H 1041   5.811   5.807   3.295  0.0644  0.6286  0.2192
    8MOL0     H 1042   5.721   5.889   3.430 -1.5727 -0.5409 -1.4546
    8MOL0     H 1043   5.776   5.990   3.309 -0.8053 -0.3745  0.7635
    8MOL0     H 1044   5.932   5.901   2.928 -1.4359  0.3187  1.4049
    8MOL0     H 1045   5.905   5.966   2.702  2.8485  1.8790 -1.1456
    8MOL0     H 1046   6.003   6.119   2.477  1.9011  4.1361 -0.1469
    8MOL0     H 1047   5.840   6.073   2.551  0.6599  0.6875  3.3701
    8MOL0     H 1048   5.746   6.273   2.395  0.3315  0.9344 -0.2552
    8MOL0     H 1049   5.918   6.295   2.353 -0.6621  2.2182  0.2593
    8MOL0     H 1050   5.791   6.025   2.304  0.6019  0.5495  1.8048
    8MOL0     H 1051   5.910   6.099   2.198  0.8146  0.2650  2.3528
    8MOL0     H 1052   5.629   6.206   2.209  0.3420  0.8448 -1.5417
    8MOL0     H 1053   5.754   6.255   2.097  0.1334 -1.4200 -0.9226
    8MOL0     H 1054   5.634   5.985   2.124 -0.4865  0.4595  1.4689
    8MOL0     H 1055   5.771   6.017   2.009 -1.2960 -1.0812 -0.7375
    8MOL0     H 1056   5.531   6.183   1.976  2.2537  0.6963  3.6685
    8MOL0     H 1057   5.665   6.150   1.864 -1.0530 -1.1122 -1.2276
    8MOL0     H 1058   5.448   5.971   1.973 -0.9310  1.2600  0.2494
    8MOL0     H 1059   5.581   5.897   1.878  0.6120  2.6114 -2.5550
    8MOL0     H 1060   5.354   5.952   1.751 -0.9896  1.3431  0.2140
    8MOL0     H 1061   5.509   6.013   1.680  1.0462 -2.2613  0.7906
    8MOL0     H 1062   5.940   6.382   2.828 -0.4276 -0.3124 -0.6637
    8MOL0     H 1063   5.934   6.294   3.071 -0.8238  3.2488 -2.1736
    8MOL0     H 1064   6.268   5.987   3.349  1.3488 -0.1928  1.3005
    8MOL0     H 1065   6.281   5.893   3.568  0.8899 -2.4874 -1.9624
    8MOL0     H 1066   6.374   4.294   4.492 -0.2439 -0.3509 -2.4119
    8MOL0     H 1067   6.462   4.095   4.652  0.6372  3.5664 -0.9190
    8MOL0     H 1068   6.252   3.693   4.812 -0.0576 -1.4807 -0.2826
    8MOL0     H 1069   6.262   3.509   4.998  1.4956 -3.4542  2.2614
    8MOL0     H 1070   6.474   3.317   5.283  2.0337  0.7417 -1.1236
    8MOL0     H 1071   6.424   3.487   5.252  0.8955 -0.0304 -1.3285
    8MOL0     H 1072   6.214   3.407   5.151 -2.2245 -0.7721  0.3465
    8MOL0     H 1073   6.240   3.335   5.313 -0.7770  0.9013 -0.7720
    8MOL0     H 1074   6.298   3.113   5.205  0.7520 -1.3923 -0.0014
    8MOL0     H 1075   6.289   3.193   5.046 -3.8233 -1.5264 -1.4473
    8MOL0     H 1076   6.061   3.196   5.231 -0.6269  2.2737 -0.8905
    8MOL0     H 1077   6.125   3.052   5.126 -0.8043  0.0977 -2.5059
    8MOL0     H 1078   5.973   3.300   4.824 -1.1689 -3.6134 -1.4462
    8MOL0     H 1079   6.676   3.500   4.959  0.5752  2.6376 -1.7461
    8MOL0     H 1080   6.671   3.694   4.817 -0.1911  1.0335  1.2868
    9MOL0     O 1081  10.282   4.936   7.883 -0.1626  0.0787 -0.1526
    9MOL0     C 1082  10.224   4.829   7.851  0.4547  0.3780 -0.9352
    9MOL0     O 1083  10.257   4.696   7.901  0.0642  0.2518 -0.6142
    9MOL0     C 1084  10.355   4.686   7.994 -0.0558  0.1351  0.2957
    9MOL0     C 1085  10.476   4.635   7.944 -0.2595 -0.1992  0.2965
    9MOL0     C 1086  10.575   4.601   8.034 -0.3122  0.0142  0.0841
    9MOL0     C 1087  10.568   4.626   8.175  0.3533 -0.0109 -0.5436
    9MOL0     O 1088  10.670   4.580   8.250 -0.6292  1.5879  0.2476
    9MOL0     C 1089  10.638   4.452   8.309  0.4743  0.6844 -0.1349
    9MOL0     C 1090  10.649   4.466   8.464 -0.4012  0.9054 -0.5150
    9MOL0     C 1091  10.621   4.331   8.527 -0.4597 -0.4835  0.2676
    9MOL0     C 1092  10.708   4.215   8.490  0.0842 -0.5150  1.2713
    9MOL0     C 1093  10.663   4.097   8.572  0.4565 -0.4470 -0.2990
    9MOL0     C 1094  10.707   3.969   8.518  0.2004 -0.2024  0.8132
    9MOL0     C 1095  10.853   3.963   8.464  1.0108  0.2202  0.2656
    9MOL0     C 1096  10.903   3.822   8.452 -0.1820  0.0126 -0.2097
    9MOL0     N 1097  11.055   3.810   8.426  0.6841  0.7106 -0.6698
    9MOL0     C 1098  11.151   3.911   8.432  0.0771  0.2838 -0.3405
    9MOL0     C 1099  11.273   3.851   8.405 -0.7122 -0.7491  0.5126
    9MOL0     C 1100  11.413   3.904   8.394  1.0783 -0.4304 -0.2228
    9MOL0     C 1101  11.459   3.912   8.248 -0.0529 -0.5445  0.0946
    9MOL0     C 1102  11.610   3.951   8.231 -0.5110 -0.1167 -0.3989
    9MOL0     C 1103  11.677   3.891   8.111 -0.0088  0.1202 -0.4318
    9MOL0     O 1104  11.707   3.754   8.117 -0.0435 -0.0448  0.3054
    9MOL0     C 1105  11.800   3.707   8.202 -1.1051 -0.8211  0.3451
    9MOL0     C 1106  11.786   3.566   8.222 -0.0299 -0.0694 -0.8374
    9MOL0     C 1107  11.850   3.498   8.319  0.1703 -0.0093 -0.5832
    9MOL0     C 1108  11.816   3.344   8.327  0.3339  0.0079  0.1662
    9MOL0     C 1109  11.958   3.559   8.392 -0.0819  0.3754  0.5373
    9MOL0     C 1110  12.037   3.493   8.490  0.1277 -0.0791  0.5016
    9MOL0     O 1111  12.101   3.582   8.575  0.1774 -0.6066 -0.2732
    9MOL0     C 1112  12.240   3.586   8.568 -0.4585  0.1120 -0.5028
    9MOL0     C 1113  12.312   3.577   8.697 -0.2138  0.6792  0.7564
    9MOL0     C 1114  12.444   3.561   8.705 -0.7920  0.3185 -0.0747
    9MOL0     C 1115  12.529   3.551   8.601  0.7169  0.3670 -0.3032
    9MOL0     O 1116  12.660   3.528   8.624 -0.1662 -0.6294  0.5381
    9MOL0     C 1117  12.758   3.578   8.540 -0.2984  0.4237  0.8003
    9MOL0     C 1118  12.901   3.583   8.599 -1.2550  0.8097  0.7112
    9MOL0     C 1119  12.961   3.445   8.635  0.3256  0.3889  0.0167
    9MOL0     C 1120  12.986   3.359   8.511 -0.9591  1.1466 -0.7146
    9MOL0     C 1121  13.022   3.206   8.552 -0.1159 -0.2329  0.3176
    9MOL0     C 1122  13.095   3.139   8.440 -1.1585 -0.4229  0.8206
    9MOL0     C 1123  13.250   3.154   8.463 -0.9665  0.1824 -0.1846
    9MOL0     C 1124  13.305   3.065   8.576 -0.2234 -0.3399  0.0856
    9MOL0    Cl 1125  13.485   3.056   8.558  0.1200  0.4773  0.4201
    9MOL0     C 1126  12.467   3.576   8.474 -0.2356 -0.3990 -0.2553
    9MOL0     C 1127  12.325   3.585   8.461  0.4541 -0.0265  0.1580
    9MOL0     O 1128  12.057   3.375   8.487 -0.7643  0.1514 -0.1121
    9MOL0     C 1129  11.990   3.695   8.354 -0.5253  1.1846  0.5710
    9MOL0     C 1130  11.902   3.771   8.270  0.0391  0.5276  0.3432
    9MOL0     N 1131  11.246   3.715   8.415 -0.1398 -0.7521  0.1603
    9MOL0     N 1132  11.115   3.687   8.432  0.2530 -0.1889  0.1470
    9MOL0     C 1133  10.446   4.676   8.236  0.5081 -0.0213  0.9627
    9MOL0     C 1134  10.339   4.711   8.141  1.4567  0.5272  1.4123
    9MOL0     C 1135  10.107   4.849   7.757  0.1198  0.8880 -0.1207
    9MOL0     C 1136  10.097   4.972   7.681  0.3485  0.2800  0.6496
    9MOL0     C 1137   9.998   4.984   7.584  0.1380  1.1829  0.8245
    9MOL0     C 1138   9.911   4.884   7.546  0.7067  0.4458 -0.0099
    9MOL0     O 1139   9.821   4.920   7.444 -0.5700  0.0836 -0.0936
    9MOL0     C 1140   9.724   4.816   7.429  0.0742  1.3108 -0.0193
    9MOL0     C 1141   9.607   4.825   7.524 -0.2749  0.1828  0.8691
    9MOL0     C 1142   9.561   4.976   7.532 -0.1353  0.4886  0.5212
    9MOL0     C 1143   9.457   5.011   7.637 -0.7156 -0.2513  1.1239
    9MOL0     C 1144   9.428   5.153   7.660  0.0190  0.0580 -0.6401
    9MOL0     C 1145   9.395   5.266   7.673 -0.0948 -0.5023 -0.2735
    9MOL0     C 1146   9.920   4.763   7.619  0.2291 -0.0540 -0.1348
    9MOL0     C 1147  10.005   4.752   7.730 -0.9731 -0.6222 -0.1476
    9MOL0     H 1148  10.483   4.591   7.845  2.5174 -0.5722  0.5903
    9MOL0     H 1149  10.660   4.553   7.987 -2.0703 -3.4249  0.0960
    9MOL0     H 1150  10.547   4.400   8.276  1.3808 -2.1426  1.4452
    9MOL0     H 1151  10.706   4.380   8.263 -0.2052  0.0305 -0.1422
    9MOL0     H 1152  10.750   4.507   8.475  0.0135  0.2947 -1.8802
    9MOL0     H 1153  10.582   4.544   8.503 -0.0451  2.2200 -2.4078
    9MOL0     H 1154  10.622   4.344   8.635  1.6071  0.4598  0.1733
    9MOL0     H 1155  10.516   4.303   8.511 -0.5414 -0.1020  0.1004
    9MOL0     H 1156  10.696   4.191   8.384  1.5897  0.6249  0.8237
    9MOL0     H 1157  10.813   4.240   8.503  0.4032 -0.8113 -0.5480
    9MOL0     H 1158  10.694   4.109   8.676 -0.3094  0.8776 -0.1975
    9MOL0     H 1159  10.554   4.089   8.577  0.4613 -0.1080  0.3679
    9MOL0     H 1160  10.687   3.882   8.582 -2.5990  0.2492  0.6809
    9MOL0     H 1161  10.650   3.950   8.427 -1.5226 -3.3441  2.3721
    9MOL0     H 1162  10.867   4.020   8.372 -1.4415  1.6987  0.7041
    9MOL0     H 1163  10.916   4.006   8.543  2.7058  2.0887 -1.9514
    9MOL0     H 1164  10.846   3.766   8.377 -2.3117  1.8849 -0.0991
    9MOL0     H 1165  10.877   3.776   8.548  1.8028  0.5912  0.6453
    9MOL0     H 1166  11.135   4.018   8.444  0.1995  0.1657  0.9410
    9MOL0     H 1167  11.414   4.003   8.439  1.5258  0.0624 -1.2738
    9MOL0     H 1168  11.477   3.837   8.452 -0.1681 -2.1572 -0.7806
    9MOL0     H 1169  11.388   3.982   8.204  0.0043  1.0987  2.4327
    9MOL0     H 1170  11.442   3.819   8.195 -3.0455  1.0655 -2.0662
    9MOL0     H 1171  11.664   3.907   8.316 -0.5381  1.3274  0.3827
    9MOL0     H 1172  11.623   4.059   8.243 -4.2601  0.4969 -0.7662
    9MOL0     H 1173  11.772   3.943   8.092 -0.0557  0.5421  0.4601
    9MOL0     H 1174  11.610   3.916   8.028  0.9477  2.7534 -0.5113
    9MOL0     H 1175  11.703   3.519   8.171 -0.8196 -0.8450  1.0560
    9MOL0     H 1176  11.733   3.320   8.259 -0.7110  0.4874  1.2459
    9MOL0     H 1177  11.903   3.289   8.289  2.9173  0.5723  4.5601
    9MOL0     H 1178  11.793   3.319   8.431  0.1882 -0.5611  0.0022
    9MOL0     H 1179  12.245   3.575   8.783  0.6150 -1.2047  1.4144
    9MOL0     H 1180  12.483   3.568   8.806  1.8272 -0.7854 -0.9145
    9MOL0     H 1181  12.748   3.507   8.458 -3.8609  1.2807  0.3206
    9MOL0     H 1182  12.722   3.669   8.492 -2.1101  0.1743  1.6150
    9MOL0     H 1183  12.968   3.619   8.521 -1.2972 -1.4353 -0.4443
    9MOL0     H 1184  12.890   3.655   8.681  2.5774  0.0922  2.0273
    9MOL0     H 1185  12.891   3.388   8.697 -1.4004 -0.2780 -2.3952
    9MOL0     H 1186  13.056   3.459   8.687  0.3782 -2.2278  0.7410
    9MOL0     H 1187  12.901   3.352   8.442 -3.5499  0.9965  2.2563
    9MOL0     H 1188  13.071   3.399   8.455  0.0348  0.8547  0.5425
    9MOL0     H 1189  12.921   3.164   8.560 -1.7647  3.6427  2.1556
    9MOL0     H 1190  13.068   3.195   8.651 -1.0857  0.2215  0.8320
    9MOL0     H 1191  13.068   3.034   8.427  0.8881 -0.7475 -1.7189
    9MOL0     H 1192  13.063   3.191   8.349 -4.6690 -2.6515  0.5908
    9MOL0     H 1193  13.281   3.257   8.486  2.3544 -0.8068  0.3376
    9MOL0     H 1194  13.294   3.134   8.365 -0.6127  4.0774 -1.0171
    9MOL0     H 1195  13.269   2.962   8.575 -0.3281 -0.3197 -1.4953
    9MOL0     H 1196  13.293   3.098   8.679  0.0596 -4.3993  1.6130
    9MOL0     H 1197  12.532   3.588   8.388  0.3308 -3.4952 -0.4076
    9MOL0     H 1198  12.282   3.594   8.361 -3.1735 -1.0789  1.4453
    9MOL0     H 1199  12.083   3.744   8.382 -0.2121  2.4600 -2.3831
    9MOL0     H 1200  11.932   3.872   8.244 -1.9656  0.5719 -2.1765
    9MOL0     H 1201  10.443   4.715   8.337  3.7025  2.6355  0.1902
    9MOL0     H 1202  10.248   4.756   8.180  1.3019 -1.6771  3.8950
    9MOL0     H 1203  10.166   5.053   7.702  1.6655 -0.6469  0.0632
    9MOL0     H 1204   9.992   5.079   7.532  0.6296  1.0736  0.5561
    9MOL0     H 1205   9.683   4.844   7.331  2.4323  1.2225 -1.0931
    9MOL0     H 1206   9.768   4.718   7.409 -0.6243  1.3857 -2.1655
    9MOL0     H 1207   9.630   4.786   7.623 -0.7750 -3.7749 -0.3996
    9MOL0     H 1208   9.528   4.763   7.479  0.0547 -0.8025  1.6228
    9MOL0     H 1209   9.510   5.008   7.441  2.2337  1.3459 -0.5973
    9MOL0     H 1210   9.646   5.042   7.552 -0.5105  1.1218  0.0711
    9MOL0     H 1211   9.495   4.962   7.728  0.2777 -1.1838  0.2323
    9MOL0     H 1212   9.363   4.959   7.616 -2.2100  2.1075  1.6468
    9MOL0     H 1213   9.356   5.363   7.696 -0.1439 -0.0871 -1.9626
    9MOL0     H 1214   9.862   4.675   7.595 -0.1313 -0.1517  1.0143
    9MOL0     H 1215   9.984   4.659   7.782 -2.5782  0.0927  0.5691
   10MOL0     O 1216   7.152  10.730   9.866 -0.3874  0.0159 -0.1605
   10MOL0     C 1217   7.138  10.833   9.805 -0.5507 -0.4300  0.0228
   10MOL0     O 1218   7.202  10.863   9.689  0.7991  0.1218  0.4978
   10MOL0     C 1219   7.287  10.770   9.635 -0.9441 -0.2305 -0.1898
   10MOL0     C 1220   7.412  10.811   9.601  0.2813  0.5039  0.2607
   10MOL0     C 1221   7.498  10.723   9.533 -0.3411 -0.7405 -0.7107
   10MOL0     C 1222   7.457  10.603   9.479 -0.6947 -0.6560  0.4981
   10MOL0     O 1223   7.551  10.535   9.407  0.3475  0.1363  0.2316
   10MOL0     C 1224   7.548  10.389   9.390  0.7107  0.1887 -0.3909
   10MOL0     C 1225   7.596  10.315   9.514  0.5973  0.7231 -0.5679
   10MOL0     C 1226   7.727  10.366   9.562 -0.3810  0.0398 -0.7791
   10MOL0     C 1227   7.762  10.276   9.688  0.4144  0.8725  0.2406
   10MOL0     C 1228   7.867  10.343   9.773 -0.5062 -0.7048 -0.4772
   10MOL0     C 1229   7.928  10.260   9.889 -0.2464  0.2851 -0.4713
   10MOL0     C 1230   8.031  10.144   9.861  0.3794  0.0963  0.7619
   10MOL0     C 1231   8.093  10.090   9.982 -0.3287 -0.1624 -0.2667
   10MOL0     N 1232   8.008   9.999  10.061  0.1045 -0.3440  0.5136
   10MOL0     C 1233   7.938  10.030  10.172  0.6942  0.2035  0.6518
   10MOL0     C 1234   7.908   9.904  10.220 -0.0317 -0.8165 -1.0648
   10MOL0     C 1235   7.828   9.869  10.338  0.3266  0.1088  0.6969
   10MOL0     C 1236   7.710   9.781  10.289 -0.1459  0.6053 -0.5886
   10MOL0     C 1237   7.746   9.625  10.268  0.6295 -0.2120 -0.1287
   10MOL0     C 1238   7.605   9.547  10.255  0.1589  0.5267 -0.9906
   10MOL0     O 1239   7.519   9.622  10.170  0.1078  0.0668  0.2761
   10MOL0     C 1240   7.379   9.618  10.185 -1.3067 -0.7638  0.8147
   10MOL0     C 1241   7.305   9.716  10.127  0.3000  0.1667 -0.0973
   10MOL0     C 1242   7.163   9.732  10.145 -0.6010  0.2271  0.0930
   10MOL0     C 1243   7.096   9.847  10.065 -0.9620  1.0377 -0.2996
   10MOL0     C 1244   7.092   9.634  10.217 -0.8615 -0.8057  0.6714
   10MOL0     C 1245   6.946   9.629  10.243  0.3680 -0.3588  0.2248
   10MOL0     O 1246   6.864   9.664  10.141  0.1835 -0.3555  0.4240
   10MOL0     C 1247   6.735   9.618  10.152 -0.0153 -0.1097  0.3336
   10MOL0     C 1248   6.694   9.529  10.050 -0.2840 -0.1152 -0.5420
   10MOL0     C 1249   6.554   9.484  10.054 -0.9742  0.0960 -0.0163
   10MOL0     C 1250   6.466   9.548  10.137  0.1014 -0.8300  0.1493
   10MOL0     O 1251   6.342   9.493  10.117  1.1319 -0.3519  0.4856
   10MOL0     C 1252   6.288   9.413  10.226 -0.3788  0.7651  0.6047
   10MOL0     C 1253   6.159   9.339  10.195 -0.0074  1.1007 -0.5038
   10MOL0     C 1254   6.047   9.418  10.132  0.3003  0.8445  0.0495
   10MOL0     C 1255   5.915   9.386  10.199 -1.2581  0.0056 -0.3205
   10MOL0     C 1256   5.803   9.471  10.124 -0.3966  0.1145 -0.2984
   10MOL0     C 1257   5.668   9.465  10.191  0.8466  0.2864 -0.2795
   10MOL0     C 1258   5.622   9.327  10.230  0.7174 -1.0187  0.5791
   10MOL0     C 1259   5.472   9.314  10.230 -0.5977  0.6485 -1.2351
   10MOL0    Cl 1260   5.418   9.415  10.363  0.1698  0.3128 -0.0945
   10MOL0     C 1261   6.511   9.629  10.233  0.6164 -0.7485 -1.0290
   10MOL0     C 1262   6.647   9.659  10.245 -0.1078 -0.6266 -0.2463
   10MOL0     O 1263   6.910   9.571  10.345 -0.0115  0.7938  0.2508
   10MOL0     C 1264   7.168   9.525  10.271  0.1322  0.8564  0.6284
   10MOL0     C 1265   7.303   9.508  10.248 -0.6942 -1.1338 -0.8327
   10MOL0     N 1266   7.987   9.807  10.159  0.6007 -0.2493 -0.5927
   10MOL0     N 1267   8.043   9.870  10.057 -0.7489  0.7211  0.2312
   10MOL0     C 1268   7.326  10.560   9.521  0.5670  0.1812 -0.5751
   10MOL0     C 1269   7.234  10.648   9.588  0.6511 -0.6850  0.0348
   10MOL0     C 1270   7.027  10.917   9.854  0.0168 -0.7812 -0.7347
   10MOL0     C 1271   6.948  10.896   9.973 -0.5050  0.0155  0.8376
   10MOL0     C 1272   6.846  10.983  10.017  0.0829  1.0808  1.1873
   10MOL0     C 1273   6.796  11.081   9.933  0.2255  0.8109  0.4798
   10MOL0     O 1274   6.688  11.143   9.982 -0.7639 -1.0332 -0.5239
   10MOL0     C 1275   6.650  11.274   9.932 -0.6228 -0.5986 -0.6818
   10MOL0     C 1276   6.559  11.269   9.815  0.5358 -0.7930  0.1755
   10MOL0     C 1277   6.441  11.173   9.853 -0.4817 -1.1859 -0.9428
   10MOL0     C 1278   6.330  11.184   9.739 -0.1633  0.8733 -0.2743
   10MOL0     C 1279   6.230  11.291   9.773 -0.8293 -0.5317 -1.1845
   10MOL0     C 1280   6.148  11.378   9.802 -1.1634  0.8697 -0.8677
   10MOL0     C 1281   6.864  11.105   9.811 -0.1698  0.3195  0.5456
   10MOL0     C 1282   6.981  11.027   9.776 -0.0238  0.8605 -0.1183
   10MOL0     H 1283   7.435  10.916   9.619  1.2933  0.0736  1.6887
   10MOL0     H 1284   7.602  10.751   9.520 -0.6669 -0.2429 -2.4214
   10MOL0     H 1285   7.449  10.348   9.368  1.2471 -1.4783  0.1648
   10MOL0     H 1286   7.609  10.364   9.302 -1.1145 -1.1692 -1.3180
   10MOL0     H 1287   7.517  10.300   9.588 -0.6276  0.2316 -1.9222
   10MOL0     H 1288   7.620  10.215   9.474 -0.1548  0.1687  0.3435
   10MOL0     H 1289   7.811  10.361   9.493 -0.2191 -0.7007 -0.5381
   10MOL0     H 1290   7.707  10.465   9.603 -1.2467 -0.6474  0.5522
   10MOL0     H 1291   7.672  10.251   9.745 -0.6747  2.3718 -0.7612
   10MOL0     H 1292   7.808  10.186   9.645  1.7163 -0.5927  4.2445
   10MOL0     H 1293   7.945  10.368   9.699 -2.4825 -0.4197 -2.5784
   10MOL0     H 1294   7.845  10.445   9.806  2.9051  0.8595 -2.3950
   10MOL0     H 1295   7.981  10.331   9.953  1.7561 -0.5384 -1.1146
   10MOL0     H 1296   7.845  10.205   9.934  1.8682 -1.4967  1.5732
   10MOL0     H 1297   7.980  10.068   9.801  0.5123 -1.2478  2.2849
   10MOL0     H 1298   8.111  10.182   9.798  0.9686 -3.5772 -0.9590
   10MOL0     H 1299   8.122  10.172  10.049 -1.5496 -0.6579  0.9150
   10MOL0     H 1300   8.184  10.047   9.938 -0.5781  2.1185 -3.3663
   10MOL0     H 1301   7.909  10.130  10.203  2.3946  0.8784  0.1469
   10MOL0     H 1302   7.884   9.818  10.417  1.3024  1.2787  0.7991
   10MOL0     H 1303   7.779   9.962  10.370 -1.1843  0.6829 -2.8296
   10MOL0     H 1304   7.671   9.837  10.204  1.0415  4.2300  1.0280
   10MOL0     H 1305   7.639   9.805  10.369  0.8778  3.3769 -0.3959
   10MOL0     H 1306   7.810   9.578  10.342 -0.3277  0.9520  1.4983
   10MOL0     H 1307   7.787   9.617  10.166  2.9449 -1.2706  0.8096
   10MOL0     H 1308   7.555   9.538  10.352  0.1674  0.1010 -1.0214
   10MOL0     H 1309   7.612   9.444  10.220 -0.2554  0.7858 -1.8377
   10MOL0     H 1310   7.355   9.798  10.076  1.5608 -0.3765  0.2383
   10MOL0     H 1311   7.163   9.909  10.005  2.3240 -3.1267 -1.4519
   10MOL0     H 1312   7.019   9.806  10.000  0.3950 -3.7918  0.7434
   10MOL0     H 1313   7.055   9.919  10.136  1.5864  2.8032 -0.4886
   10MOL0     H 1314   6.763   9.491   9.975  1.2341  1.2489  0.0996
   10MOL0     H 1315   6.518   9.409   9.984 -3.8425  0.4051  1.0129
   10MOL0     H 1316   6.362   9.335  10.246  0.1635  1.0794 -0.1324
   10MOL0     H 1317   6.274   9.462  10.323  0.8454  0.9228  0.7246
   10MOL0     H 1318   6.188   9.258  10.127 -0.7046  0.4577 -0.0486
   10MOL0     H 1319   6.126   9.290  10.286  0.0332 -1.8875 -1.9751
   10MOL0     H 1320   6.027   9.382  10.031  1.9033  1.0568 -0.3698
   10MOL0     H 1321   6.076   9.523  10.137  1.3711  0.5574  0.1135
   10MOL0     H 1322   5.897   9.278  10.194 -2.6669  0.1983  0.1292
   10MOL0     H 1323   5.929   9.413  10.304  1.4202 -0.7901 -0.3967
   10MOL0     H 1324   5.792   9.426  10.025 -1.6063  0.3732 -0.2967
   10MOL0     H 1325   5.839   9.573  10.110  0.0807  0.3848  2.3213
   10MOL0     H 1326   5.658   9.532  10.276 -2.2103 -1.4065  0.8513
   10MOL0     H 1327   5.608   9.509  10.111  0.7585 -0.4824 -0.6448
   10MOL0     H 1328   5.661   9.309  10.330 -1.3232 -2.1182  1.2272
   10MOL0     H 1329   5.658   9.254  10.157 -0.5050  1.9498 -3.3905
   10MOL0     H 1330   5.446   9.210  10.247 -1.1309  0.9173 -0.3755
   10MOL0     H 1331   5.434   9.350  10.133 -1.5893 -1.7362 -1.7900
   10MOL0     H 1332   6.441   9.662  10.309 -0.3596 -2.2175 -1.2543
   10MOL0     H 1333   6.684   9.733  10.316  0.5530  0.7699 -1.9725
   10MOL0     H 1334   7.119   9.446  10.327  0.1531  0.7511  0.5006
   10MOL0     H 1335   7.347   9.426  10.303 -1.4354 -0.5936  0.6073
   10MOL0     H 1336   7.287  10.469   9.478 -2.9403  2.1518 -2.0023
   10MOL0     H 1337   7.129  10.626   9.602  0.2330  1.3081  0.2836
   10MOL0     H 1338   6.977  10.816  10.040 -0.2370 -1.4633 -0.9416
   10MOL0     H 1339   6.814  10.954  10.117  1.1043  2.7521  2.0265
   10MOL0     H 1340   6.592  11.326  10.009 -3.6653 -4.7296  0.1596
   10MOL0     H 1341   6.738  11.337   9.913 -0.7878 -0.7934 -2.2808
   10MOL0     H 1342   6.601  11.246   9.717 -2.1964  1.8525 -1.8184
   10MOL0     H 1343   6.518  11.367   9.791 -1.3354 -0.8937  2.5649
   10MOL0     H 1344   6.395  11.196   9.949 -1.6704  0.3790 -1.8473
   10MOL0     H 1345   6.471  11.069   9.867  0.0335 -0.6374  3.5648
   10MOL0     H 1346   6.282  11.087   9.728  0.4274  0.7708 -2.3696
   10MOL0     H 1347   6.385  11.210   9.648  3.0468  1.0031  1.5680
   10MOL0     H 1348   6.080  11.460   9.821 -3.0314 -0.8813  0.5383
   10MOL0     H 1349   6.838  11.157   9.720  0.7039 -0.1981 -0.0195
   10MOL0     H 1350   7.029  11.065   9.687  2.0171 -2.7746 -0.7202
   11MOL0     O 1351   5.581   1.345   7.538  0.1853 -0.1633 -0.1929
   11MOL0     C 1352   5.502   1.418   7.599  0.2493  0.0822  1.7537
   11MOL0     O 1353   5.492   1.554   7.590  0.1614  0.3587  0.9014
   11MOL0     C 1354   5.556   1.612   7.476 -0.2742  0.7965  0.0815
   11MOL0     C 1355   5.625   1.728   7.508  0.9629  0.3675  0.1102
   11MOL0     C 1356   5.685   1.803   7.407  1.1249 -0.2892 -0.0705
   11MOL0     C 1357   5.694   1.761   7.278  0.0022  0.5604  0.7047
   11MOL0     O 1358   5.746   1.841   7.187 -0.4243  0.9615  0.4569
   11MOL0     C 1359   5.890   1.855   7.170  0.3462 -0.5325  0.3710
   11MOL0     C 1360   5.923   1.851   7.019 -0.8076  0.1354  0.9368
   11MOL0     C 1361   5.867   1.985   6.957  0.1057  0.4026 -0.3569
   11MOL0     C 1362   5.920   1.992   6.807  0.9710  0.0732  0.6913
   11MOL0     C 1363   5.888   2.129   6.740 -0.7092 -0.2142  0.1662
   11MOL0     C 1364   5.971   2.236   6.792 -0.3005 -1.2098 -0.2706
   11MOL0     C 1365   5.940   2.370   6.724 -0.4074 -0.0759  0.5404
   11MOL0     C 1366   5.816   2.441   6.788 -0.8981 -0.5000 -0.0827
   11MOL0     N 1367   5.860   2.524   6.903  0.2224 -0.6325  0.8012
   11MOL0     C 1368   5.911   2.652   6.890  0.1831 -0.7260 -1.0896
   11MOL0     C 1369   5.921   2.693   7.018 -0.5220 -0.1891 -0.0849
   11MOL0     C 1370   5.993   2.821   7.056 -1.0168  0.3522 -0.6808
   11MOL0     C 1371   5.898   2.948   7.068  0.0824  1.6226  0.6682
   11MOL0     C 1372   5.973   3.046   7.160 -0.8011  0.9525  0.4946
   11MOL0     C 1373   5.906   3.186   7.183 -0.2416 -0.0123 -0.0655
   11MOL0     O 1374   5.992   3.271   7.265  0.3313  0.0087  0.3392
   11MOL0     C 1375   5.955   3.397   7.309  0.5168 -0.7113 -0.1858
   11MOL0     C 1376   6.044   3.473   7.382 -0.6151 -0.2673 -0.7834
   11MOL0     C 1377   6.028   3.608   7.413  0.4987  0.3755  0.4022
   11MOL0     C 1378   6.116   3.682   7.510 -0.2141 -0.1309 -0.5542
   11MOL0     C 1379   5.906   3.669   7.364  0.4713  0.0858  1.0214
   11MOL0     C 1380   5.896   3.819   7.362  0.9015 -0.6063 -0.0752
   11MOL0     O 1381   6.004   3.895   7.352 -0.1151  0.3508 -0.4908
   11MOL0     C 1382   6.023   4.028   7.384 -0.2961  0.2980 -0.4676
   11MOL0     C 1383   6.152   4.062   7.402  0.0967  0.8580 -1.0429
   11MOL0     C 1384   6.189   4.196   7.424  0.2129 -0.0175 -0.7605
   11MOL0     C 1385   6.093   4.293   7.421 -0.2214 -0.3082 -0.5890
   11MOL0     O 1386   6.145   4.422   7.453  0.1096  0.0525 -0.1574
   11MOL0     C 1387   6.109   4.508   7.345  0.1061 -0.2752  1.1928
   11MOL0     C 1388   6.167   4.645   7.373 -0.5477 -0.3249  0.6796
   11MOL0     C 1389   6.237   4.695   7.247  0.4397  0.2177  0.4364
   11MOL0     C 1390   6.267   4.833   7.275 -0.4972  0.2522 -0.1112
   11MOL0     C 1391   6.316   4.902   7.147 -0.0037  0.5973 -0.1742
   11MOL0     C 1392   6.329   5.063   7.164 -0.4040 -1.2478  0.1296
   11MOL0     C 1393   6.446   5.099   7.240 -0.1485  0.5436 -0.4204
   11MOL0     C 1394   6.584   5.071   7.172 -0.3498  0.7046 -0.9407
   11MOL0    Cl 1395   6.693   5.181   7.265  0.0672 -0.5283  0.0976
   11MOL0     C 1396   5.959   4.262   7.386  0.3058 -0.5316 -0.2927
   11MOL0     C 1397   5.922   4.128   7.367 -0.1558  0.0969  0.2921
   11MOL0     O 1398   5.789   3.860   7.408 -0.4107 -0.0436 -0.2519
   11MOL0     C 1399   5.810   3.590   7.299 -0.1840 -0.3782 -0.0665
   11MOL0     C 1400   5.831   3.458   7.266 -0.1665  0.4416  0.5895
   11MOL0     N 1401   5.894   2.591   7.102 -0.2621 -0.1027 -1.2442
   11MOL0     N 1402   5.845   2.497   7.037  0.3522 -0.0569  0.0170
   11MOL0     C 1403   5.623   1.640   7.244 -1.2325 -1.2632 -0.3391
   11MOL0     C 1404   5.567   1.564   7.343 -0.3424  0.0318 -0.2028
   11MOL0     C 1405   5.400   1.342   7.680  0.3133 -0.4108  0.4868
   11MOL0     C 1406   5.429   1.244   7.778  0.0466  0.7610  0.9143
   11MOL0     C 1407   5.340   1.185   7.859 -0.1566 -0.7055 -0.4517
   11MOL0     C 1408   5.204   1.217   7.850 -0.2074  0.0797 -0.7790
   11MOL0     O 1409   5.117   1.148   7.930 -0.5252 -0.7449 -0.2475
   11MOL0     C 1410   4.995   1.110   7.867  0.3039 -0.1512  0.0795
   11MOL0     C 1411   4.947   0.994   7.942 -0.3641 -0.8595 -1.2401
   11MOL0     C 1412   5.028   0.878   7.937 -0.5996 -0.4020  0.4248
   11MOL0     C 1413   4.975   0.756   7.994  0.3620 -0.5732 -0.3328
   11MOL0     C 1414   4.883   0.691   7.905  0.0476  0.1458 -0.4202
   11MOL0     C 1415   4.798   0.630   7.838 -0.2885  0.3198 -1.7037
   11MOL0     C 1416   5.165   1.328   7.774 -0.8371 -0.2199  0.3669
   11MOL0     C 1417   5.258   1.385   7.683  0.9672 -0.3185  0.1300
   11MOL0     H 1418   5.620   1.759   7.611  0.0635  0.3054  0.1002
   11MOL0     H 1419   5.728   1.903   7.416 -2.1430  1.1531  0.8782
   11MOL0     H 1420   5.926   1.954   7.202  0.6854 -0.7521  0.6744
   11MOL0     H 1421   5.944   1.789   7.239  0.4102 -0.5984  0.2582
   11MOL0     H 1422   6.030   1.845   6.996 -0.9341 -1.0985  0.6155
   11MOL0     H 1423   5.871   1.767   6.973  0.7786  0.3640 -1.4193
   11MOL0     H 1424   5.758   1.981   6.968 -0.0653 -3.3037 -1.7665
   11MOL0     H 1425   5.898   2.068   7.020 -0.5550  0.1870  0.2680
   11MOL0     H 1426   6.029   1.981   6.797  1.1781  3.0438 -1.8279
   11MOL0     H 1427   5.878   1.910   6.749 -0.5431 -0.0593  1.9006
   11MOL0     H 1428   5.901   2.104   6.635 -2.2798 -1.0708  0.1414
   11MOL0     H 1429   5.784   2.150   6.767 -1.5783 -0.8026 -2.4659
   11MOL0     H 1430   5.955   2.236   6.901 -0.3490 -2.4681 -0.2702
   11MOL0     H 1431   6.077   2.214   6.781  0.4571 -1.1805  4.5199
   11MOL0     H 1432   6.024   2.437   6.748  0.2146 -1.2991  1.9172
   11MOL0     H 1433   5.934   2.351   6.616  1.5726 -2.5241  0.7812
   11MOL0     H 1434   5.743   2.375   6.835 -1.8235  1.4860  1.4162
   11MOL0     H 1435   5.763   2.499   6.711  1.3465  0.4879 -0.9834
   11MOL0     H 1436   5.947   2.689   6.794  2.7941 -1.9173 -0.6733
   11MOL0     H 1437   6.024   2.798   7.158 -1.6693 -0.3353 -0.6331
   11MOL0     H 1438   6.083   2.837   6.997  0.2982  2.1633  1.6180
   11MOL0     H 1439   5.801   2.917   7.108 -1.0905  0.1406 -2.9541
   11MOL0     H 1440   5.873   2.993   6.971  0.1025 -0.3430 -0.3035
   11MOL0     H 1441   6.077   3.058   7.129 -0.9434  1.4074  0.1779
   11MOL0     H 1442   5.981   2.994   7.256 -0.7962 -1.3992 -0.7150
   11MOL0     H 1443   5.809   3.171   7.230 -0.6756 -0.6604 -1.1313
   11MOL0     H 1444   5.883   3.237   7.088  1.7120  1.2128  0.0599
   11MOL0     H 1445   6.129   3.423   7.427 -2.4075 -1.5211  1.4396
   11MOL0     H 1446   6.042   3.729   7.575 -1.4751 -0.5166 -1.6466
   11MOL0     H 1447   6.174   3.612   7.571 -0.5973 -0.6327 -0.7558
   11MOL0     H 1448   6.193   3.741   7.459  0.3321  0.2985  0.7463
   11MOL0     H 1449   6.236   3.994   7.412 -0.8995 -0.3286 -0.5892
   11MOL0     H 1450   6.292   4.230   7.426 -0.4362  2.0661  0.5598
   11MOL0     H 1451   6.148   4.476   7.247  0.4056  2.5108  0.2900
   11MOL0     H 1452   6.002   4.525   7.331  0.2400  0.8216  1.3768
   11MOL0     H 1453   6.090   4.719   7.397 -1.2266 -1.3463  1.6742
   11MOL0     H 1454   6.250   4.639   7.444  1.9657 -0.5066 -2.0735
   11MOL0     H 1455   6.170   4.689   7.161  2.0221 -1.2234 -0.7925
   11MOL0     H 1456   6.328   4.643   7.214  1.0281  1.1890  0.4727
   11MOL0     H 1457   6.179   4.886   7.312 -1.8354 -0.9703 -1.4034
   11MOL0     H 1458   6.342   4.854   7.352 -1.7740  1.9638  0.7040
   11MOL0     H 1459   6.252   4.883   7.060  4.8683  1.6619 -4.4560
   11MOL0     H 1460   6.411   4.859   7.114  2.0063  4.8458 -0.5275
   11MOL0     H 1461   6.334   5.113   7.067 -1.5263 -0.9018  0.2376
   11MOL0     H 1462   6.245   5.111   7.215  0.3940  0.8792 -0.4455
   11MOL0     H 1463   6.450   5.043   7.334  1.7867 -0.3433 -0.9861
   11MOL0     H 1464   6.433   5.207   7.251  1.5477  0.5183  3.0372
   11MOL0     H 1465   6.588   5.097   7.066  2.6965 -5.4461 -2.7597
   11MOL0     H 1466   6.611   4.966   7.186  2.2661  1.5855  1.8556
   11MOL0     H 1467   5.888   4.343   7.373 -1.2678 -2.0497 -1.6596
   11MOL0     H 1468   5.823   4.109   7.325 -1.9896  1.9176  3.3812
   11MOL0     H 1469   5.730   3.650   7.258  0.9871  2.8319  1.9521
   11MOL0     H 1470   5.770   3.413   7.188  5.7588 -2.4579 -3.0975
   11MOL0     H 1471   5.623   1.608   7.140  4.2275  1.8894 -1.7211
   11MOL0     H 1472   5.526   1.477   7.293  2.5954 -2.4345  1.3363
   11MOL0     H 1473   5.531   1.208   7.776 -1.0536 -2.6585 -0.7491
   11MOL0     H 1474   5.372   1.109   7.929  0.2888 -1.8001 -1.8094
   11MOL0     H 1475   4.929   1.196   7.879  3.3117  2.4684 -0.7304
   11MOL0     H 1476   5.001   1.083   7.761 -2.0239 -0.8278  0.0628
   11MOL0     H 1477   4.845   0.963   7.916 -1.9641  2.0292  0.9027
   11MOL0     H 1478   4.934   1.023   8.047  1.0659 -0.4547 -1.1578
   11MOL0     H 1479   5.129   0.901   7.974 -1.1453  0.9487  1.1569
   11MOL0     H 1480   5.054   0.848   7.835  2.7407  0.6066  0.8572
   11MOL0     H 1481   4.917   0.800   8.075  0.7645  0.9561 -0.8377
   11MOL0     H 1482   5.056   0.689   8.026 -0.8065 -1.1713  1.5221
   11MOL0     H 1483   4.714   0.574   7.802 -1.3392  0.2760  0.5741
   11MOL0     H 1484   5.069   1.377   7.771  0.5310  2.6778 -2.6598
   11MOL0     H 1485   5.225   1.469   7.623  0.2236  0.1919  1.2114
   12MOL0     O 1486   1.616  10.606   4.131 -0.4211  0.4064 -0.2755
   12MOL0     C 1487   1.567  10.666   4.036 -1.4219 -0.4836 -0.2514
   12MOL0     O 1488   1.616  10.792   3.988  0.3453  0.0472  0.0159
   12MOL0     C 1489   1.740  10.848   4.023  0.0425  0.3841 -0.1004
   12MOL0     C 1490   1.788  10.826   4.151 -0.1543 -0.4847  0.0046
   12MOL0     C 1491   1.915  10.895   4.188  0.3554  0.9628  0.7524
   12MOL0     C 1492   1.977  10.985   4.097  0.2839  0.6451 -0.2571
   12MOL0     O 1493   2.098  11.049   4.115  0.0536  0.2846 -0.6604
   12MOL0     C 1494   2.127  11.072   4.253 -0.1599 -1.1472 -0.7402
   12MOL0     C 1495   2.027  11.170   4.313 -0.0903 -0.2765  0.2265
   12MOL0     C 1496   2.080  11.253   4.428  1.0840  0.0877  0.3148
   12MOL0     C 1497   2.166  11.376   4.375 -0.3799 -0.2206 -1.1043
   12MOL0     C 1498   2.216  11.463   4.500 -0.2402  0.2670  0.3272
   12MOL0     C 1499   2.301  11.580   4.445 -0.4431 -0.1554 -0.5432
   12MOL0     C 1500   2.346  11.678   4.559  0.3940  0.1256 -0.1804
   12MOL0     C 1501   2.438  11.608   4.661 -1.2284 -0.9414 -0.1050
   12MOL0     N 1502   2.587  11.596   4.620  0.5279 -0.2326 -0.0790
   12MOL0     C 1503   2.655  11.483   4.588  1.1070  0.0060  0.1432
   12MOL0     C 1504   2.779  11.529   4.557  0.0979  0.6800 -0.3119
   12MOL0     C 1505   2.888  11.446   4.494  0.4426  0.0277 -0.6332
   12MOL0     C 1506   2.949  11.335   4.590 -0.3177 -0.8796  0.0579
   12MOL0     C 1507   3.072  11.263   4.514 -0.1700  0.0560 -0.0838
   12MOL0     C 1508   3.185  11.347   4.458 -0.0815 -0.7856  0.8556
   12MOL0     O 1509   3.295  11.263   4.428  0.6406 -0.5679  0.3489
   12MOL0     C 1510   3.378  11.312   4.330 -1.3297 -0.0475  0.0273
   12MOL0     C 1511   3.369  11.250   4.201 -0.7110 -0.4225 -0.2239
   12MOL0     C 1512   3.460  11.282   4.099  0.2945 -0.3106 -0.7056
   12MOL0     C 1513   3.461  11.197   3.977 -0.5252  0.9998  0.3859
   12MOL0     C 1514   3.565  11.372   4.132  0.2056  0.2039 -0.5759
   12MOL0     C 1515   3.662  11.406   4.028  0.1638  0.1769 -0.5755
   12MOL0     O 1516   3.618  11.421   3.899  0.6196  0.2192 -0.5563
   12MOL0     C 1517   3.696  11.438   3.784 -0.5764  0.0575 -0.8759
   12MOL0     C 1518   3.829  11.421   3.778  0.1594  0.0782 -0.0987
   12MOL0     C 1519   3.902  11.438   3.664 -0.6120 -1.2741 -1.0213
   12MOL0     C 1520   3.839  11.471   3.543 -0.6602  0.7242  0.0873
   12MOL0     O 1521   3.917  11.474   3.433 -0.0493 -0.1434 -0.1045
   12MOL0     C 1522   3.910  11.598   3.367 -0.3522 -0.4451 -1.0416
   12MOL0     C 1523   3.822  11.599   3.247  0.1210  0.0333 -0.0434
   12MOL0     C 1524   3.827  11.738   3.181 -0.0904 -0.0943 -0.8510
   12MOL0     C 1525   3.817  11.726   3.031 -0.0073 -0.1002  0.4336
   12MOL0     C 1526   3.771  11.848   2.948 -0.1495 -1.0640  0.1939
   12MOL0     C 1527   3.878  11.959   2.971  0.2868  0.7637  0.3874
   12MOL0     C 1528   3.848  12.052   2.854 -0.1050 -1.1583 -1.5550
   12MOL0     C 1529   3.921  12.188   2.863 -0.3476 -0.5038 -1.6057
   12MOL0    Cl 1530   3.875  12.293   3.002  0.1037 -0.2498  0.0870
   12MOL0     C 1531   3.697  11.463   3.537 -0.1866  0.1750 -0.1895
   12MOL0     C 1532   3.624  11.449   3.658 -1.0994  0.0561 -0.5588
   12MOL0     O 1533   3.778  11.415   4.064  0.0648  0.0307  0.0173
   12MOL0     C 1534   3.574  11.430   4.261 -0.8601 -0.4960  0.1905
   12MOL0     C 1535   3.473  11.412   4.347  0.5540  0.0327  0.3818
   12MOL0     N 1536   2.794  11.663   4.585 -0.4355  0.3572 -0.6560
   12MOL0     N 1537   2.676  11.701   4.617  0.2871  0.4279 -1.1916
   12MOL0     C 1538   1.928  10.978   3.963 -0.4501  0.1001  1.0139
   12MOL0     C 1539   1.810  10.917   3.929  0.4753  0.5073  0.2540
   12MOL0     C 1540   1.464  10.591   3.947  0.1219 -0.2699  0.4049
   12MOL0     C 1541   1.450  10.453   3.951  0.0545  0.2227 -0.9940
   12MOL0     C 1542   1.363  10.391   3.874  0.5233  0.8599 -0.2013
   12MOL0     C 1543   1.280  10.460   3.779  0.1489  0.0946 -0.0830
   12MOL0     O 1544   1.195  10.387   3.704  0.3891  0.2484  0.4007
   12MOL0     C 1545   1.067  10.439   3.706  0.3375  0.0081 -0.3304
   12MOL0     C 1546   0.970  10.361   3.618 -0.9054 -0.9276  0.4497
   12MOL0     C 1547   0.934  10.230   3.691  0.3033  1.1471  0.2962
   12MOL0     C 1548   0.941  10.103   3.596 -0.1658 -0.1597  0.3702
   12MOL0     C 1549   0.847  10.000   3.638  0.2530 -0.0121  0.3418
   12MOL0     C 1550   0.757   9.923   3.650 -1.1910 -0.0094  0.0166
   12MOL0     C 1551   1.289  10.600   3.773 -0.4893 -0.8681 -0.0656
   12MOL0     C 1552   1.374  10.666   3.866 -0.2002  1.1535  1.6507
   12MOL0     H 1553   1.718  10.790   4.225  0.3155 -1.7720 -0.1571
   12MOL0     H 1554   1.950  10.889   4.291 -0.6763  4.9342  1.4936
   12MOL0     H 1555   2.126  10.991   4.327  3.9135  0.3404  1.3163
   12MOL0     H 1556   2.227  11.118   4.259  0.0048 -1.3209 -2.0522
   12MOL0     H 1557   1.986  11.243   4.242  0.8106  1.2145  1.1682
   12MOL0     H 1558   1.943  11.115   4.356  0.3273 -0.1658  1.1957
   12MOL0     H 1559   1.993  11.289   4.485  0.9239 -0.9294  0.7453
   12MOL0     H 1560   2.146  11.191   4.489  4.1918 -0.8089 -3.6025
   12MOL0     H 1561   2.257  11.346   4.324 -1.3098 -1.3994 -2.1445
   12MOL0     H 1562   2.118  11.433   4.295  1.1312  1.4861 -0.8494
   12MOL0     H 1563   2.123  11.491   4.551 -2.0636  0.6104 -2.8933
   12MOL0     H 1564   2.290  11.414   4.565  0.6893  2.9576  1.4386
   12MOL0     H 1565   2.382  11.525   4.396  0.5068  0.9077 -0.2134
   12MOL0     H 1566   2.245  11.644   4.376 -1.2384  1.1979  1.2612
   12MOL0     H 1567   2.399  11.765   4.521 -0.4207 -0.1955 -2.1630
   12MOL0     H 1568   2.253  11.719   4.600 -2.0810 -2.0606 -3.1225
   12MOL0     H 1569   2.408  11.508   4.694 -0.6316 -0.9979  0.2651
   12MOL0     H 1570   2.439  11.674   4.748 -0.6020  1.9690 -2.1651
   12MOL0     H 1571   2.613  11.383   4.584  1.1530  0.0157 -0.8984
   12MOL0     H 1572   2.838  11.392   4.414 -0.4878 -0.4444  0.2292
   12MOL0     H 1573   2.964  11.508   4.446  1.6570  0.5270  1.7331
   12MOL0     H 1574   2.875  11.266   4.630  1.8148 -3.6703 -0.5036
   12MOL0     H 1575   2.985  11.399   4.671 -0.1088  1.0746 -1.4982
   12MOL0     H 1576   3.023  11.195   4.444 -1.0822  0.6675 -0.0570
   12MOL0     H 1577   3.125  11.203   4.590 -2.3146 -2.3407 -0.3381
   12MOL0     H 1578   3.205  11.414   4.543  0.0559 -0.8029  0.8360
   12MOL0     H 1579   3.155  11.407   4.371  3.0218  3.9023  2.6150
   12MOL0     H 1580   3.305  11.164   4.185  1.5338 -2.2539  0.0594
   12MOL0     H 1581   3.391  11.113   3.986  2.9679 -2.5641 -2.2711
   12MOL0     H 1582   3.440  11.259   3.889  1.7205 -0.3182 -1.1899
   12MOL0     H 1583   3.563  11.161   3.964 -1.6609 -2.3279 -0.4679
   12MOL0     H 1584   3.890  11.396   3.863  2.2122  3.2517 -0.4879
   12MOL0     H 1585   4.010  11.431   3.671 -0.7678 -2.2225  1.1474
   12MOL0     H 1586   3.886  11.682   3.434 -0.8767 -1.0071 -0.5089
   12MOL0     H 1587   4.010  11.618   3.327 -0.5199  1.7843 -0.5247
   12MOL0     H 1588   3.863  11.526   3.176 -1.6231 -1.0952  0.0465
   12MOL0     H 1589   3.716  11.578   3.264 -0.5372  2.6664 -0.4434
   12MOL0     H 1590   3.923  11.789   3.198 -0.1105 -0.2801 -0.1245
   12MOL0     H 1591   3.745  11.800   3.218  1.1062 -0.2655  2.4188
   12MOL0     H 1592   3.917  11.692   3.005 -0.1982  0.0082 -0.4554
   12MOL0     H 1593   3.738  11.653   3.012  0.6155 -1.0162  1.2510
   12MOL0     H 1594   3.674  11.884   2.983  1.7489  3.0059  2.0837
   12MOL0     H 1595   3.771  11.811   2.845 -1.7429 -0.9591  0.1326
   12MOL0     H 1596   3.860  12.009   3.066 -2.5120  1.0777 -0.2063
   12MOL0     H 1597   3.980  11.921   2.965 -0.0707 -0.0755 -0.8040
   12MOL0     H 1598   3.741  12.073   2.843 -0.2491 -1.1260 -0.2725
   12MOL0     H 1599   3.887  12.017   2.758  0.4182  0.2973 -1.8969
   12MOL0     H 1600   3.914  12.229   2.762 -0.5970 -0.4479 -1.5682
   12MOL0     H 1601   4.029  12.178   2.876 -0.1199  2.7768  0.1863
   12MOL0     H 1602   3.646  11.439   3.444 -0.8934 -0.9998  0.4852
   12MOL0     H 1603   3.516  11.434   3.656 -1.0020 -3.2008  3.9126
   12MOL0     H 1604   3.660  11.488   4.292  0.7944 -3.0934  0.7376
   12MOL0     H 1605   3.462  11.464   4.442 -2.4684 -0.7263  0.5395
   12MOL0     H 1606   1.983  11.040   3.892  0.5125  1.5348  2.9230
   12MOL0     H 1607   1.770  10.922   3.829  0.5851 -1.6590  0.0538
   12MOL0     H 1608   1.492  10.390   4.028  2.7239 -1.4959 -3.6722
   12MOL0     H 1609   1.347  10.284   3.882 -1.1050  0.8841 -2.2255
   12MOL0     H 1610   1.017  10.447   3.803  1.6991 -1.9445  0.6028
   12MOL0     H 1611   1.081  10.541   3.669 -1.1592  0.2539 -0.2800
   12MOL0     H 1612   1.020  10.338   3.524  3.7979  1.2244  2.1121
   12MOL0     H 1613   0.880  10.421   3.603 -0.5533 -0.2227  1.0865
   12MOL0     H 1614   0.830  10.236   3.724 -0.3350 -0.5578 -1.2620
   12MOL0     H 1615   0.993  10.202   3.779 -3.4598  0.3576  2.7905
   12MOL0     H 1616   1.039  10.057   3.577  0.2426  0.8517 -0.0192
   12MOL0     H 1617   0.915  10.129   3.493  0.4832 -1.5379 -0.1734
   12MOL0     H 1618   0.678   9.851   3.660 -1.5037 -0.1138 -2.4471
   12MOL0     H 1619   1.234  10.656   3.698  0.1858 -0.5502 -0.3295
   12MOL0     H 1620   1.388  10.773   3.863  1.8283  0.9581 -1.8403
   13MOL0     O 1621   5.004   1.015   4.735  0.8998 -0.2600 -0.4458
   13MOL0     C 1622   5.101   0.941   4.766  0.7577 -0.9963 -0.4709
   13MOL0     O 1623   5.091   0.813   4.820  0.0788 -0.2117  1.2756
   13MOL0     C 1624   4.963   0.756   4.814  0.1465  0.3673  0.4179
   13MOL0     C 1625   4.915   0.716   4.691  0.1220 -0.1381 -1.0087
   13MOL0     C 1626   4.799   0.637   4.690  0.1411 -0.3484 -0.9509
   13MOL0     C 1627   4.749   0.576   4.808  0.0412  0.0103  0.2254
   13MOL0     O 1628   4.642   0.499   4.783 -0.1614  0.0191  0.1021
   13MOL0     C 1629   4.543   0.471   4.884  0.5883  0.0286  0.8863
   13MOL0     C 1630   4.454   0.597   4.878 -0.0952  0.5126 -0.7154
   13MOL0     C 1631   4.367   0.625   4.999 -0.2870  0.1531 -0.0435
   13MOL0     C 1632   4.452   0.673   5.114 -0.2791 -0.1042  0.1513
   13MOL0     C 1633   4.379   0.741   5.231  0.9001  0.7773  0.0307
   13MOL0     C 1634   4.482   0.772   5.332  0.7239 -0.2353  0.7051
   13MOL0     C 1635   4.436   0.775   5.478  0.0990  0.1360  0.5884
   13MOL0     C 1636   4.459   0.639   5.547  0.5163 -0.4973 -0.0966
   13MOL0     N 1637   4.598   0.617   5.584 -0.7857  0.1161  0.2018
   13MOL0     C 1638   4.679   0.688   5.662  0.7142 -0.3751  0.0451
   13MOL0     C 1639   4.800   0.618   5.657 -0.2951  0.1172 -0.6010
   13MOL0     C 1640   4.913   0.658   5.745  1.2221 -0.1373  1.5258
   13MOL0     C 1641   4.977   0.538   5.815  0.3287 -0.6767 -0.3903
   13MOL0     C 1642   4.881   0.473   5.914 -0.6620 -0.1973  1.1620
   13MOL0     C 1643   4.935   0.358   5.995  0.0510 -0.1909  0.6281
   13MOL0     O 1644   4.997   0.251   5.910  0.3622 -0.1984  0.1118
   13MOL0     C 1645   4.920   0.152   5.858 -0.3504 -1.1796  0.5209
   13MOL0     C 1646   4.992   0.045   5.808 -0.3786  0.0228  0.8398
   13MOL0     C 1647   4.940  -0.070   5.763 -0.4522  0.9981 -1.0203
   13MOL0     C 1648   5.038  -0.177   5.707  1.3128  0.7685  0.4280
   13MOL0     C 1649   4.794  -0.084   5.762 -0.6948  0.8393 -0.5697
   13MOL0     C 1650   4.732  -0.223   5.722  0.5406  0.6557 -1.2618
   13MOL0     O 1651   4.603  -0.219   5.678  0.0775 -0.4927 -0.3300
   13MOL0     C 1652   4.536  -0.335   5.701  0.8908 -1.1325 -1.1672
   13MOL0     C 1653   4.508  -0.393   5.820  0.3150  0.0633 -0.6187
   13MOL0     C 1654   4.435  -0.514   5.824 -0.3468 -0.1324 -0.1569
   13MOL0     C 1655   4.404  -0.583   5.701  0.1946  0.0934  0.0286
   13MOL0     O 1656   4.348  -0.710   5.720 -0.3723  0.2767  0.8739
   13MOL0     C 1657   4.241  -0.753   5.637  0.2256 -0.1516  0.2220
   13MOL0     C 1658   4.278  -0.860   5.530 -0.3800 -0.3719 -0.7751
   13MOL0     C 1659   4.157  -0.940   5.497 -0.2480 -0.2690 -0.0664
   13MOL0     C 1660   4.123  -1.049   5.589  0.0434  0.0731  0.4171
   13MOL0     C 1661   3.982  -1.110   5.574 -0.2362  0.2521 -0.1140
   13MOL0     C 1662   3.951  -1.215   5.678 -0.2583 -0.7305 -0.5130
   13MOL0     C 1663   3.812  -1.282   5.679 -0.6195 -0.2993  0.3999
   13MOL0     C 1664   3.809  -1.382   5.789  0.3351  0.9566 -0.4752
   13MOL0    Cl 1665   3.653  -1.451   5.790  0.1404 -0.0398 -0.0929
   13MOL0     C 1666   4.431  -0.529   5.577 -0.9445  0.7582 -0.5094
   13MOL0     C 1667   4.489  -0.398   5.588  0.2418 -0.0025  0.5218
   13MOL0     O 1668   4.795  -0.328   5.745 -0.4756 -0.0164  0.1619
   13MOL0     C 1669   4.714   0.025   5.802 -0.7931 -0.0833 -0.6371
   13MOL0     C 1670   4.785   0.151   5.837 -0.0564  0.6764  0.3489
   13MOL0     N 1671   4.786   0.503   5.580 -0.5943  0.5935  0.5210
   13MOL0     N 1672   4.668   0.507   5.536  0.2694 -0.2421 -0.1898
   13MOL0     C 1673   4.795   0.619   4.930 -1.0033 -0.4309  0.7022
   13MOL0     C 1674   4.902   0.704   4.932  0.0442 -0.1854  0.5207
   13MOL0     C 1675   5.234   0.989   4.751  0.3314  0.7446 -0.4601
   13MOL0     C 1676   5.273   1.069   4.639  0.0592 -0.4195  0.0850
   13MOL0     C 1677   5.398   1.139   4.635 -0.5460  0.6386  0.5122
   13MOL0     C 1678   5.491   1.117   4.730 -0.7884  0.2329  0.0756
   13MOL0     O 1679   5.611   1.182   4.737 -0.5234  0.0939  0.3071
   13MOL0     C 1680   5.614   1.315   4.694 -0.5121  0.0237 -0.5716
   13MOL0     C 1681   5.755   1.383   4.699  0.0668 -0.6345 -0.0009
   13MOL0     C 1682   5.880   1.294   4.660 -0.8016 -1.0128  0.4824
   13MOL0     C 1683   6.015   1.369   4.635 -0.0490  0.6144  0.5862
   13MOL0     C 1684   6.066   1.452   4.742  0.0646  0.7094 -1.1856
   13MOL0     C 1685   6.102   1.521   4.829 -0.8392  0.0542 -0.6726
   13MOL0     C 1686   5.462   1.032   4.837 -0.3210 -0.3118  0.2196
   13MOL0     C 1687   5.332   0.968   4.848 -0.9778  0.3574 -0.7825
   13MOL0     H 1688   4.971   0.740   4.602  1.7921 -4.1251 -1.2460
   13MOL0     H 1689   4.753   0.612   4.595 -0.7696  1.7089 -1.0905
   13MOL0     H 1690   4.472   0.388   4.873  1.6375 -1.0670  1.9817
   13MOL0     H 1691   4.569   0.445   4.987 -5.2268 -2.7528  2.0715
   13MOL0     H 1692   4.516   0.686   4.856 -1.7769  2.7013  2.6073
   13MOL0     H 1693   4.379   0.579   4.801 -0.7980 -2.8910  0.6050
   13MOL0     H 1694   4.297   0.706   4.979  0.3964  0.6446 -0.4763
   13MOL0     H 1695   4.310   0.534   5.023  1.5119 -0.7458  1.0759
   13MOL0     H 1696   4.494   0.584   5.161  0.9434  2.1765  3.8648
   13MOL0     H 1697   4.523   0.750   5.081 -0.8213  0.1365 -0.4642
   13MOL0     H 1698   4.321   0.830   5.205  1.0467  0.8760  0.0422
   13MOL0     H 1699   4.312   0.666   5.273  0.1080  1.3300 -0.2168
   13MOL0     H 1700   4.568   0.705   5.327  0.8842  0.0531 -1.4655
   13MOL0     H 1701   4.522   0.870   5.304 -0.4990  0.1020  0.0612
   13MOL0     H 1702   4.497   0.847   5.533 -0.5965 -1.5164  3.7938
   13MOL0     H 1703   4.329   0.799   5.472  0.1890  0.9225  1.7343
   13MOL0     H 1704   4.428   0.552   5.489 -3.2436  0.5468  0.0933
   13MOL0     H 1705   4.399   0.651   5.638 -1.5190  1.4248 -1.5725
   13MOL0     H 1706   4.648   0.781   5.708 -0.3128 -0.3256 -0.7077
   13MOL0     H 1707   4.987   0.694   5.672 -3.0309 -0.5162 -3.5731
   13MOL0     H 1708   4.885   0.739   5.813  0.4573  2.7616 -1.9288
   13MOL0     H 1709   5.067   0.575   5.866  1.4818  1.7527 -3.8142
   13MOL0     H 1710   5.020   0.463   5.749  2.2369 -0.3465  0.4204
   13MOL0     H 1711   4.794   0.438   5.857  1.1651 -3.2542  0.0299
   13MOL0     H 1712   4.845   0.543   5.990 -4.1856  3.6289 -3.4224
   13MOL0     H 1713   4.856   0.325   6.063 -0.4296  0.9306  0.6437
   13MOL0     H 1714   5.014   0.387   6.065 -1.0215  0.2805  1.6693
   13MOL0     H 1715   5.098   0.068   5.801 -0.5505  1.3607  2.0744
   13MOL0     H 1716   5.013  -0.170   5.600  3.3586 -1.7086 -0.3271
   13MOL0     H 1717   5.146  -0.162   5.718  1.4362 -0.7507  1.7186
   13MOL0     H 1718   5.021  -0.273   5.757  3.7605  0.2613  0.4008
   13MOL0     H 1719   4.550  -0.359   5.914 -0.5843  0.3949 -0.3271
   13MOL0     H 1720   4.421  -0.578   5.911 -1.1746 -1.4516 -1.2146
   13MOL0     H 1721   4.171  -0.804   5.703 -0.4603 -0.1627 -0.4946
   13MOL0     H 1722   4.189  -0.673   5.584 -1.1121 -0.2288  1.3679
   13MOL0     H 1723   4.310  -0.818   5.434 -2.9545 -1.4030 -2.1895
   13MOL0     H 1724   4.363  -0.921   5.563 -0.1087  0.7901  0.8078
   13MOL0     H 1725   4.177  -0.992   5.403  3.4757 -1.2897  1.1084
   13MOL0     H 1726   4.068  -0.877   5.491 -0.8472 -0.8498  1.8434
   13MOL0     H 1727   4.205  -1.123   5.586  0.1322  0.2048 -1.6407
   13MOL0     H 1728   4.125  -1.015   5.693 -2.0339 -1.1876  0.9258
   13MOL0     H 1729   3.976  -1.144   5.470 -0.2883  2.3081 -0.8262
   13MOL0     H 1730   3.907  -1.031   5.576  1.4281  1.9155 -0.2512
   13MOL0     H 1731   4.010  -1.305   5.657 -1.9672 -2.1867  0.7137
   13MOL0     H 1732   3.961  -1.167   5.776  1.2944 -0.2321 -0.8769
   13MOL0     H 1733   3.798  -1.335   5.585  2.7844  1.1828 -1.1226
   13MOL0     H 1734   3.730  -1.212   5.695 -0.2578  0.7532 -1.9563
   13MOL0     H 1735   3.815  -1.333   5.887  3.2988 -1.3028  0.6026
   13MOL0     H 1736   3.891  -1.453   5.785 -0.9440 -0.6772  0.7722
   13MOL0     H 1737   4.426  -0.581   5.481 -0.4538 -0.0412 -0.1092
   13MOL0     H 1738   4.502  -0.339   5.498  1.0092  0.3198  0.8355
   13MOL0     H 1739   4.607   0.009   5.799 -0.7086 -2.3747  2.7109
   13MOL0     H 1740   4.716   0.223   5.879 -0.6404  0.3617 -0.0573
   13MOL0     H 1741   4.743   0.584   5.019 -0.1017 -1.6688  0.7620
   13MOL0     H 1742   4.965   0.719   5.019 -0.4120 -0.6760  0.9357
   13MOL0     H 1743   5.199   1.097   4.564  1.3737  1.7185 -0.4653
   13MOL0     H 1744   5.414   1.205   4.551 -0.2408 -2.6243 -2.2230
   13MOL0     H 1745   5.590   1.316   4.587 -0.9001 -2.1419 -0.5578
   13MOL0     H 1746   5.560   1.381   4.761  1.1311  0.8220  0.0110
   13MOL0     H 1747   5.766   1.407   4.805  0.5394  3.0807 -0.7269
   13MOL0     H 1748   5.751   1.483   4.653  1.1744 -0.6257 -0.1175
   13MOL0     H 1749   5.861   1.240   4.568  1.9844 -1.1258 -0.1332
   13MOL0     H 1750   5.903   1.225   4.742 -0.1854 -3.3803 -1.5585
   13MOL0     H 1751   5.996   1.441   4.555  3.3818  2.3364  1.1288
   13MOL0     H 1752   6.095   1.306   4.594 -0.3747 -0.2409  1.2425
   13MOL0     H 1753   6.128   1.572   4.920 -1.3157  0.6958 -0.8906
   13MOL0     H 1754   5.529   1.018   4.921  0.3666  2.3058  0.2033
   13MOL0     H 1755   5.297   0.926   4.942 -2.8289  2.4681 -0.4470
   14MOL0     O 1756   1.869   8.099  10.052 -0.3059  0.0892 -0.5736
   14MOL0     C 1757   1.965   8.112   9.975  0.1891 -0.3656  1.0962
   14MOL0     O 1758   2.025   8.017   9.899 -0.3629  0.6640  0.0427
   14MOL0     C 1759   1.998   7.886   9.939 -0.6148  0.3979  0.3485
   14MOL0     C 1760   2.093   7.809  10.007 -0.1174 -0.2793 -0.7376
   14MOL0     C 1761   2.053   7.691  10.078  0.1527  0.2820 -0.2655
   14MOL0     C 1762   1.933   7.646  10.052  0.3838  0.4174 -0.7855
   14MOL0     O 1763   1.882   7.527  10.109  0.1618  0.7800  0.1418
   14MOL0     C 1764   1.961   7.427  10.188 -0.5963 -0.3674 -0.7448
   14MOL0     C 1765   1.952   7.445  10.343  0.4796  0.3493  0.1873
   14MOL0     C 1766   2.044   7.344  10.408 -0.9611  0.0046 -0.7753
   14MOL0     C 1767   2.022   7.340  10.566 -0.2596  1.0194  0.9746
   14MOL0     C 1768   1.961   7.214  10.630  1.1664 -0.3849  0.4928
   14MOL0     C 1769   1.966   7.225  10.781  0.4286 -0.3852  0.4444
   14MOL0     C 1770   1.936   7.099  10.859 -0.2723  0.5910  0.5626
   14MOL0     C 1771   1.940   7.141  11.004  0.4279 -0.2055 -0.0733
   14MOL0     N 1772   2.067   7.186  11.047 -1.4057 -1.5598  0.0571
   14MOL0     C 1773   2.183   7.116  11.024 -0.5517 -0.9311  0.0968
   14MOL0     C 1774   2.284   7.208  11.040  1.0417 -0.3472 -0.1610
   14MOL0     C 1775   2.429   7.203  11.031  0.0912 -0.2877 -0.4649
   14MOL0     C 1776   2.480   7.135  10.909  0.0074 -0.4418  0.2600
   14MOL0     C 1777   2.451   7.228  10.789  0.2743  0.5430  0.0782
   14MOL0     C 1778   2.517   7.200  10.648 -0.9718 -0.2963 -1.1347
   14MOL0     O 1779   2.424   7.196  10.549  0.1722 -0.3430 -0.4458
   14MOL0     C 1780   2.480   7.189  10.425 -0.6629  0.3547 -0.3308
   14MOL0     C 1781   2.509   7.062  10.378 -0.4504 -0.7552  0.4606
   14MOL0     C 1782   2.569   7.036  10.248  0.1947 -0.3664 -0.6222
   14MOL0     C 1783   2.605   6.900  10.198 -0.0777  0.8510 -0.8058
   14MOL0     C 1784   2.605   7.154  10.186 -0.3425 -0.2512  0.4923
   14MOL0     C 1785   2.666   7.144  10.050 -0.8271 -0.7358 -0.1791
   14MOL0     O 1786   2.803   7.118  10.049 -0.1722 -0.3407 -0.6244
   14MOL0     C 1787   2.869   7.104   9.925  0.3731 -0.6196 -0.1277
   14MOL0     C 1788   2.819   7.028   9.822 -0.2427  0.1424  0.2529
   14MOL0     C 1789   2.888   7.000   9.700  0.2264  0.0297 -0.4048
   14MOL0     C 1790   3.021   7.046   9.700 -0.0193  0.2535 -0.1704
   14MOL0     O 1791   3.114   7.032   9.596 -0.1718 -0.3610  0.3025
   14MOL0     C 1792   3.091   6.927   9.496 -0.6871 -1.0997  0.5468
   14MOL0     C 1793   3.203   6.883   9.415  0.7565 -0.7564  0.4143
   14MOL0     C 1794   3.327   6.872   9.513  0.3244 -0.8860 -0.1302
   14MOL0     C 1795   3.437   6.765   9.462  1.4345  0.5264  1.1953
   14MOL0     C 1796   3.570   6.778   9.534  0.5101  0.4199 -0.7058
   14MOL0     C 1797   3.659   6.889   9.468  1.1310  0.4938 -0.3529
   14MOL0     C 1798   3.771   6.948   9.550  0.1932  1.1325  0.5402
   14MOL0     C 1799   3.867   6.831   9.569 -0.3784  1.1017 -0.2157
   14MOL0    Cl 1800   4.031   6.905   9.570 -0.2076  0.0941 -0.4530
   14MOL0     C 1801   3.067   7.129   9.802 -0.0618  0.4631 -0.3967
   14MOL0     C 1802   2.994   7.148   9.923 -0.1371 -0.4451  0.7400
   14MOL0     O 1803   2.596   7.180   9.954 -0.4721  0.7922  0.5496
   14MOL0     C 1804   2.591   7.285  10.237 -0.3429 -0.3701 -0.4664
   14MOL0     C 1805   2.521   7.301  10.357  0.4423 -1.1156 -0.7164
   14MOL0     N 1806   2.229   7.332  11.064  0.3586  0.3010  0.4661
   14MOL0     N 1807   2.105   7.313  11.075  0.4450  0.1266  0.0173
   14MOL0     C 1808   1.837   7.713   9.968  0.0394  0.4333  0.3828
   14MOL0     C 1809   1.870   7.833   9.918  0.1477 -0.3500  1.3592
   14MOL0     C 1810   2.033   8.244   9.959  0.0600 -0.1525  0.0438
   14MOL0     C 1811   2.156   8.259   9.900  0.3670  1.1477 -0.0432
   14MOL0     C 1812   2.212   8.386   9.868  0.3641  0.0344 -0.1530
   14MOL0     C 1813   2.142   8.500   9.897 -0.3590 -0.0545 -0.2045
   14MOL0     O 1814   2.196   8.620   9.865 -0.4157 -0.4015  0.0805
   14MOL0     C 1815   2.274   8.681   9.965 -0.3673  0.5319  0.2533
   14MOL0     C 1816   2.402   8.724   9.896 -0.1471  0.6992 -0.0151
   14MOL0     C 1817   2.397   8.856   9.825  0.1252 -0.6785 -0.2710
   14MOL0     C 1818   2.341   8.972   9.921  0.0181 -0.0651  0.2392
   14MOL0     C 1819   2.386   9.106   9.890  0.0757  0.0350  0.7901
   14MOL0     C 1820   2.415   9.208   9.850  0.2229  0.0698  0.3977
   14MOL0     C 1821   2.009   8.487   9.955 -0.5615 -0.3644  0.3251
   14MOL0     C 1822   1.955   8.353   9.988 -1.4464 -0.6668 -0.0517
   14MOL0     H 1823   2.197   7.841  10.012 -0.3978  0.6117  3.4623
   14MOL0     H 1824   2.111   7.655  10.162 -1.3325  0.2994  0.8029
   14MOL0     H 1825   1.928   7.329  10.152  0.3999 -1.2556  0.6277
   14MOL0     H 1826   2.066   7.429  10.159 -1.0022 -1.5979 -2.4685
   14MOL0     H 1827   1.981   7.549  10.363 -4.7022  1.8404  1.7595
   14MOL0     H 1828   1.847   7.434  10.372  1.2637 -0.3326  2.9918
   14MOL0     H 1829   2.023   7.240  10.382 -2.4059 -0.8757  3.1810
   14MOL0     H 1830   2.144   7.385  10.391 -2.4609  3.2821 -2.5735
   14MOL0     H 1831   2.121   7.351  10.612 -0.3680  3.2030  0.7845
   14MOL0     H 1832   1.973   7.432  10.598 -0.7702  0.7468  0.9888
   14MOL0     H 1833   1.860   7.189  10.595  1.0898 -0.7115  0.9298
   14MOL0     H 1834   2.028   7.131  10.605 -1.6011 -3.0466  1.1617
   14MOL0     H 1835   2.061   7.272  10.810 -0.3899  1.1515  0.7445
   14MOL0     H 1836   1.895   7.306  10.801 -0.0852 -0.4680 -0.9501
   14MOL0     H 1837   1.843   7.045  10.840  1.5754 -2.1047 -1.6975
   14MOL0     H 1838   2.015   7.027  10.836 -2.6800 -2.1587  0.2292
   14MOL0     H 1839   1.904   7.062  11.070 -0.5550  0.1579 -0.1690
   14MOL0     H 1840   1.882   7.232  11.022 -0.0081 -1.0201  3.1126
   14MOL0     H 1841   2.198   7.012  10.998 -0.7087 -0.9207 -0.0357
   14MOL0     H 1842   2.476   7.298  11.057 -0.7779  0.1446 -0.4507
   14MOL0     H 1843   2.444   7.137  11.117 -2.3412 -0.9886 -0.4979
   14MOL0     H 1844   2.428   7.039  10.903  0.2386 -0.7295  2.2167
   14MOL0     H 1845   2.588   7.119  10.908 -0.2578 -2.8487 -2.3778
   14MOL0     H 1846   2.467   7.331  10.823 -0.2172 -0.6154  4.4473
   14MOL0     H 1847   2.342   7.226  10.785  0.2476  0.0527  0.7723
   14MOL0     H 1848   2.568   7.103  10.650 -2.7543 -1.3150 -2.1178
   14MOL0     H 1849   2.594   7.276  10.635 -1.6476  0.5593 -0.3277
   14MOL0     H 1850   2.480   6.969  10.426 -0.9586 -0.9566 -0.2248
   14MOL0     H 1851   2.579   6.873  10.095  0.7994  0.8725 -1.0400
   14MOL0     H 1852   2.711   6.872  10.203 -0.5164 -0.8064 -0.0493
   14MOL0     H 1853   2.564   6.826  10.267  1.6925  0.7410  0.1974
   14MOL0     H 1854   2.725   6.974   9.829 -0.4429 -0.1203 -2.9421
   14MOL0     H 1855   2.837   6.931   9.633 -0.9959  0.3005  0.2159
   14MOL0     H 1856   3.057   6.837   9.548  1.2486 -1.4021  1.3674
   14MOL0     H 1857   3.012   6.972   9.435  0.6878  1.6710  0.6660
   14MOL0     H 1858   3.190   6.782   9.375  3.4837 -0.9392 -0.1756
   14MOL0     H 1859   3.233   6.957   9.340 -0.9365  1.0346  1.3925
   14MOL0     H 1860   3.287   6.831   9.606  0.7854 -0.8390  0.0917
   14MOL0     H 1861   3.375   6.968   9.537 -2.4362 -0.1716  3.4031
   14MOL0     H 1862   3.404   6.665   9.492  1.9243  0.2376  0.7943
   14MOL0     H 1863   3.448   6.757   9.353  1.5697 -3.9002  1.3686
   14MOL0     H 1864   3.619   6.681   9.527  1.4412  0.8046  0.1368
   14MOL0     H 1865   3.550   6.800   9.640  1.8280  1.6445 -0.6847
   14MOL0     H 1866   3.683   6.862   9.365  0.0282  1.5864 -0.9118
   14MOL0     H 1867   3.584   6.968   9.457 -0.9283 -0.8055  2.8785
   14MOL0     H 1868   3.732   6.988   9.644 -0.8089  0.9299  0.2151
   14MOL0     H 1869   3.815   7.027   9.488 -0.0442  0.7718 -0.1011
   14MOL0     H 1870   3.867   6.762   9.485  0.3998 -0.1104  0.7454
   14MOL0     H 1871   3.839   6.777   9.660  0.3614 -4.0442 -2.6903
   14MOL0     H 1872   3.155   7.192   9.798 -0.5637  1.1259 -1.5179
   14MOL0     H 1873   3.041   7.189  10.011  1.7281 -1.1904  0.1461
   14MOL0     H 1874   2.607   7.373  10.175 -1.0413  0.9406  1.1370
   14MOL0     H 1875   2.505   7.401  10.395 -0.5045 -1.7558  0.6386
   14MOL0     H 1876   1.741   7.665   9.955  0.6517 -0.5580 -0.6173
   14MOL0     H 1877   1.799   7.874   9.847  2.9647  1.4645 -0.5760
   14MOL0     H 1878   2.219   8.175   9.873 -1.3548  0.2254 -1.4116
   14MOL0     H 1879   2.310   8.396   9.822  0.5446 -0.1604  0.1847
   14MOL0     H 1880   2.225   8.766  10.014  3.3600  1.7889  2.1632
   14MOL0     H 1881   2.315   8.610  10.038 -3.9882 -0.1344  1.9098
   14MOL0     H 1882   2.438   8.645   9.829  1.5117 -0.8006  2.4638
   14MOL0     H 1883   2.480   8.735   9.973  0.0230 -1.7621  0.2660
   14MOL0     H 1884   2.333   8.844   9.737 -1.3662  1.4921  0.4273
   14MOL0     H 1885   2.499   8.887   9.799  0.0902  3.0382  3.0316
   14MOL0     H 1886   2.372   8.947  10.023  5.1466  1.2082 -0.7293
   14MOL0     H 1887   2.233   8.958   9.922  0.3057 -2.8419  0.4972
   14MOL0     H 1888   2.458   9.306   9.838  1.0392 -0.3022  0.2210
   14MOL0     H 1889   1.950   8.576   9.974 -0.2843 -0.7206  3.3327
   14MOL0     H 1890   1.855   8.346  10.031 -3.1870  0.3509 -3.5079
   15MOL0     O 1891   5.355  10.180   2.618 -0.1963 -0.6043  0.3902
   15MOL0     C 1892   5.254  10.227   2.675 -0.1191 -0.6481  0.6584
   15MOL0     O 1893   5.188  10.175   2.777 -0.8728  1.0288  0.7690
   15MOL0     C 1894   5.242  10.079   2.859  0.5419 -0.2430 -0.8711
   15MOL0     C 1895   5.157  10.040   2.963 -0.0383 -0.8345 -0.7458
   15MOL0     C 1896   5.196   9.955   3.071  1.1229  0.1109  0.4723
   15MOL0     C 1897   5.322   9.894   3.075  0.1916  0.6098  0.3454
   15MOL0     O 1898   5.364   9.806   3.179  0.9191  0.1776  0.2552
   15MOL0     C 1899   5.272   9.781   3.287  0.1084 -1.1092  0.2830
   15MOL0     C 1900   5.315   9.687   3.395 -0.8293 -0.3833 -0.2408
   15MOL0     C 1901   5.421   9.747   3.492  0.4263  0.2765  1.1247
   15MOL0     C 1902   5.441   9.640   3.604 -0.5119 -0.8615  0.6172
   15MOL0     C 1903   5.541   9.683   3.707  0.3850  0.6003 -0.7408
   15MOL0     C 1904   5.666   9.772   3.665 -0.4485 -0.4537 -0.5143
   15MOL0     C 1905   5.780   9.764   3.757  0.3041  0.5389 -0.0401
   15MOL0     C 1906   5.865   9.636   3.740  0.7080  0.3103 -0.0366
   15MOL0     N 1907   5.960   9.648   3.850  0.6648  0.1889 -0.1730
   15MOL0     C 1908   6.047   9.753   3.874 -0.4683  0.2294 -0.8741
   15MOL0     C 1909   6.124   9.712   3.983  0.5364 -0.4648  0.3034
   15MOL0     C 1910   6.250   9.776   4.028  0.2514  0.7429 -1.0981
   15MOL0     C 1911   6.269   9.759   4.180  0.4728 -0.0248 -0.1299
   15MOL0     C 1912   6.399   9.824   4.224 -0.4442 -0.4081 -0.1764
   15MOL0     C 1913   6.456   9.765   4.354 -0.4693 -0.0022  0.0567
   15MOL0     O 1914   6.603   9.785   4.343  0.3617 -0.3192 -0.3446
   15MOL0     C 1915   6.661   9.775   4.467 -0.4455 -0.5876 -0.0077
   15MOL0     C 1916   6.784   9.703   4.477  0.9736 -0.2833 -0.3015
   15MOL0     C 1917   6.854   9.690   4.592 -0.7064  0.2215  0.2101
   15MOL0     C 1918   6.991   9.623   4.587  0.1252  0.7683  0.0499
   15MOL0     C 1919   6.802   9.753   4.713 -0.6981 -0.6361 -0.1730
   15MOL0     C 1920   6.888   9.767   4.837  0.7834  1.1731  0.1517
   15MOL0     O 1921   6.900   9.881   4.886  0.0720 -0.4043 -0.4187
   15MOL0     C 1922   6.956   9.901   5.010 -0.5407 -0.6085  0.0016
   15MOL0     C 1923   7.060   9.995   5.023 -0.8499  0.1740  1.2793
   15MOL0     C 1924   7.120   9.998   5.153 -1.7719  0.1494  0.7517
   15MOL0     C 1925   7.086   9.902   5.259 -0.6785 -0.5758  0.0276
   15MOL0     O 1926   7.151   9.883   5.379  0.6649 -0.8204  0.4512
   15MOL0     C 1927   7.247   9.982   5.414 -1.1071  0.1947 -0.0345
   15MOL0     C 1928   7.389   9.951   5.365 -0.3284 -0.0932  0.4358
   15MOL0     C 1929   7.482  10.065   5.371  0.2535  0.6254  0.3286
   15MOL0     C 1930   7.597  10.052   5.281 -0.2472 -0.3165 -0.2679
   15MOL0     C 1931   7.698  10.174   5.293 -0.0141 -0.1862 -0.0258
   15MOL0     C 1932   7.778  10.185   5.423 -0.7954 -0.1616  0.3292
   15MOL0     C 1933   7.847  10.321   5.444  1.3515 -0.7227  0.4729
   15MOL0     C 1934   7.945  10.322   5.558 -0.1618  0.5554  0.1288
   15MOL0    Cl 1935   8.056  10.195   5.543  0.4149  0.0423  0.0855
   15MOL0     C 1936   6.976   9.810   5.239 -0.1161 -0.0601  0.4749
   15MOL0     C 1937   6.909   9.815   5.111  1.4614 -0.0510 -0.3904
   15MOL0     O 1938   6.941   9.666   4.879  0.4768  0.5809 -0.3238
   15MOL0     C 1939   6.679   9.820   4.708  1.0269  0.3886 -0.9077
   15MOL0     C 1940   6.607   9.833   4.585 -0.1719  0.3266 -1.0007
   15MOL0     N 1941   6.071   9.598   4.028 -0.9212  0.3735 -0.4845
   15MOL0     N 1942   5.981   9.552   3.945 -0.4978 -0.1874  0.0795
   15MOL0     C 1943   5.406   9.930   2.974  0.0806 -0.8267  0.2348
   15MOL0     C 1944   5.362  10.017   2.869 -0.4868 -0.5308 -0.2355
   15MOL0     C 1945   5.199  10.351   2.605  0.3219  0.1028 -0.4163
   15MOL0     C 1946   5.279  10.436   2.520  0.3477 -0.0511  0.2152
   15MOL0     C 1947   5.223  10.547   2.453  0.3566 -0.5163  0.5455
   15MOL0     C 1948   5.087  10.576   2.458 -0.1061  1.0660 -0.5071
   15MOL0     O 1949   5.017  10.673   2.402  0.2442 -0.8717 -0.9519
   15MOL0     C 1950   5.079  10.759   2.311 -1.1049  0.8001  0.0364
   15MOL0     C 1951   5.179  10.862   2.374  0.2489 -0.2842  1.0397
   15MOL0     C 1952   5.205  10.996   2.294  0.0313 -0.2892 -0.5374
   15MOL0     C 1953   5.295  11.100   2.370  0.2907  0.4771 -0.3589
   15MOL0     C 1954   5.306  11.225   2.295 -0.2742  0.6412  0.5761
   15MOL0     C 1955   5.297  11.335   2.242 -1.2100  0.8812  0.2261
   15MOL0     C 1956   5.010  10.491   2.549 -0.9015 -0.1387 -0.2052
   15MOL0     C 1957   5.062  10.381   2.617  0.1465 -0.4137 -1.2010
   15MOL0     H 1958   5.053  10.069   2.965 -0.5308 -2.4186  1.8063
   15MOL0     H 1959   5.122   9.923   3.144 -1.5590  2.9614 -0.7389
   15MOL0     H 1960   5.255   9.879   3.334  1.3985 -0.6974 -0.0721
   15MOL0     H 1961   5.181   9.740   3.242 -0.2747 -0.2922  0.2806
   15MOL0     H 1962   5.230   9.650   3.454 -0.3162  0.0239  0.7877
   15MOL0     H 1963   5.364   9.603   3.346 -2.2190 -1.0830 -0.4747
   15MOL0     H 1964   5.514   9.767   3.439 -1.0160 -2.9915 -3.2134
   15MOL0     H 1965   5.382   9.843   3.528 -0.2736  0.3996  0.0759
   15MOL0     H 1966   5.352   9.611   3.660  0.3334  0.2823  2.6961
   15MOL0     H 1967   5.486   9.554   3.555  0.9185  0.8890 -1.3491
   15MOL0     H 1968   5.485   9.755   3.768 -1.8060  1.5425 -3.6597
   15MOL0     H 1969   5.572   9.585   3.746 -4.6417 -1.2643 -0.7507
   15MOL0     H 1970   5.711   9.729   3.575  1.1235  0.3405 -0.1499
   15MOL0     H 1971   5.637   9.875   3.640  2.6761  0.3692 -1.1964
   15MOL0     H 1972   5.843   9.853   3.747  2.1500 -0.5502  1.2224
   15MOL0     H 1973   5.740   9.762   3.860  1.2844 -1.0232  0.3371
   15MOL0     H 1974   5.924   9.634   3.647 -0.1344  1.0467 -0.5994
   15MOL0     H 1975   5.798   9.550   3.751  2.7552 -1.2475  1.1307
   15MOL0     H 1976   6.056   9.839   3.809  2.3693 -0.8984 -2.1170
   15MOL0     H 1977   6.327   9.732   3.966  0.4718  1.3029 -1.2292
   15MOL0     H 1978   6.248   9.884   4.007  2.5954  1.0999  0.1551
   15MOL0     H 1979   6.282   9.652   4.199 -1.3888 -0.2076  0.3109
   15MOL0     H 1980   6.186   9.797   4.241  2.0167 -0.6436  2.5267
   15MOL0     H 1981   6.397   9.933   4.235  0.3051 -0.3204 -0.8413
   15MOL0     H 1982   6.467   9.788   4.145 -0.2542 -0.2004 -0.1073
   15MOL0     H 1983   6.441   9.657   4.354  3.6675 -0.7596 -0.0969
   15MOL0     H 1984   6.407   9.798   4.446 -0.4671  1.2893 -0.3892
   15MOL0     H 1985   6.813   9.659   4.382  3.3608 -2.5950  1.3543
   15MOL0     H 1986   6.994   9.522   4.629  0.9889  1.5766  2.0881
   15MOL0     H 1987   7.025   9.630   4.483  0.0092  1.1375  0.0367
   15MOL0     H 1988   7.059   9.675   4.656  2.1917  0.0472 -1.3413
   15MOL0     H 1989   7.096  10.063   4.947 -0.4450 -2.1341 -0.7272
   15MOL0     H 1990   7.207  10.061   5.168 -0.5907 -1.5359  1.3924
   15MOL0     H 1991   7.213  10.072   5.363  0.9905 -0.0959 -2.0989
   15MOL0     H 1992   7.258  10.001   5.521 -0.9467 -1.3994  0.2543
   15MOL0     H 1993   7.444   9.872   5.417  2.9094 -0.2658 -2.8777
   15MOL0     H 1994   7.381   9.926   5.259  0.9679 -2.4067  0.8147
   15MOL0     H 1995   7.514  10.098   5.470  0.9220  1.0016 -0.0055
   15MOL0     H 1996   7.425  10.149   5.332  0.2218  0.1628 -0.6398
   15MOL0     H 1997   7.655   9.960   5.294  0.2758  0.2569  2.0123
   15MOL0     H 1998   7.549  10.041   5.184 -2.1631  1.5548  0.3902
   15MOL0     H 1999   7.640  10.267   5.292 -0.5138 -0.4917 -0.2017
   15MOL0     H 2000   7.766  10.171   5.207 -1.3614 -1.3315 -1.1227
   15MOL0     H 2001   7.701  10.155   5.494 -2.5303 -1.7429 -2.0523
   15MOL0     H 2002   7.856  10.109   5.415 -0.0527  0.5120  0.8715
   15MOL0     H 2003   7.761  10.385   5.468  0.8357 -1.0457 -0.4790
   15MOL0     H 2004   7.897  10.349   5.351  0.6514 -0.0814  0.2820
   15MOL0     H 2005   7.888  10.317   5.652 -0.5930 -2.2131 -0.1923
   15MOL0     H 2006   8.005  10.412   5.571 -0.6554  0.7345  1.3553
   15MOL0     H 2007   6.937   9.758   5.326 -0.5119 -0.3186  0.1469
   15MOL0     H 2008   6.827   9.748   5.090  0.0045  2.0517 -1.8036
   15MOL0     H 2009   6.656   9.864   4.804 -1.5073 -2.6497  0.0586
   15MOL0     H 2010   6.508   9.877   4.581  0.1664  1.0687 -1.5411
   15MOL0     H 2011   5.507   9.892   2.976 -0.5159 -2.8578 -2.3991
   15MOL0     H 2012   5.441  10.039   2.798 -1.2901 -0.9415 -1.2767
   15MOL0     H 2013   5.384  10.413   2.513 -0.4261 -5.1474  1.3863
   15MOL0     H 2014   5.284  10.609   2.387 -2.2477  1.2406 -0.3815
   15MOL0     H 2015   5.124  10.709   2.225  0.2532  0.3315  0.9930
   15MOL0     H 2016   4.991  10.812   2.274 -0.1036  1.1144 -2.0220
   15MOL0     H 2017   5.276  10.818   2.398 -0.5815 -1.0189  3.3487
   15MOL0     H 2018   5.126  10.898   2.463 -0.3167  1.7640 -0.0595
   15MOL0     H 2019   5.115  11.049   2.265  0.5578  1.0486  0.1799
   15MOL0     H 2020   5.265  10.956   2.212 -1.0863 -4.4015  0.3807
   15MOL0     H 2021   5.393  11.061   2.399 -1.4945 -2.9751  1.6053
   15MOL0     H 2022   5.238  11.131   2.457 -0.2432  2.2185 -1.2703
   15MOL0     H 2023   5.312  11.425   2.185  0.8053 -1.8307 -4.0102
   15MOL0     H 2024   4.906  10.521   2.557 -0.6460  0.4156  1.4336
   15MOL0     H 2025   5.004  10.316   2.682 -1.3534 -0.3128 -2.3798
   16MOL0     O 2026   3.716   3.335   4.393  0.0930  1.1118  0.0960
   16MOL0     C 2027   3.683   3.365   4.287  0.8382 -0.0518  0.3815
   16MOL0     O 2028   3.583   3.459   4.268  0.8596  0.2549 -0.1514
   16MOL0     C 2029   3.477   3.464   4.359 -0.6092  0.1486 -0.0684
   16MOL0     C 2030   3.415   3.580   4.386  0.6771 -1.1218 -0.2855
   16MOL0     C 2031   3.319   3.595   4.490 -1.3909  0.1200 -0.9193
   16MOL0     C 2032   3.284   3.480   4.567 -0.2807  0.7412  0.3505
   16MOL0     O 2033   3.200   3.504   4.678 -0.3929  0.1420  0.3345
   16MOL0     C 2034   3.204   3.408   4.778  0.5213 -0.3602 -0.2602
   16MOL0     C 2035   3.174   3.479   4.913  0.8346  0.1300 -0.1990
   16MOL0     C 2036   3.148   3.390   5.025 -0.5435  0.4033 -0.6990
   16MOL0     C 2037   3.265   3.291   5.068  1.0674 -0.9441 -0.2778
   16MOL0     C 2038   3.393   3.371   5.110 -0.4266  0.1162 -0.3709
   16MOL0     C 2039   3.510   3.272   5.159 -0.2499 -0.5027  0.1459
   16MOL0     C 2040   3.525   3.246   5.313  0.1873 -1.2234  1.0398
   16MOL0     C 2041   3.630   3.148   5.355  0.5438 -0.2089  1.3794
   16MOL0     N 2042   3.638   3.150   5.495 -0.1695  0.2456 -0.4193
   16MOL0     C 2043   3.738   3.083   5.564  0.0431  1.2364 -0.4421
   16MOL0     C 2044   3.709   3.112   5.700 -0.1303 -0.8847  0.1650
   16MOL0     C 2045   3.779   3.049   5.811 -0.8088 -0.1073 -0.4136
   16MOL0     C 2046   3.740   2.898   5.817  0.2832 -0.4154  0.0798
   16MOL0     C 2047   3.754   2.848   5.963 -0.0439 -0.0529  0.4530
   16MOL0     C 2048   3.890   2.852   6.034 -0.0623  0.3021 -0.4811
   16MOL0     O 2049   3.928   2.982   6.054 -0.3034 -1.1405 -1.0551
   16MOL0     C 2050   4.023   3.005   6.152  0.5396 -0.1690 -0.7121
   16MOL0     C 2051   4.017   3.103   6.250  0.5043 -0.0535  0.5962
   16MOL0     C 2052   4.096   3.105   6.362  0.5389  0.4307 -0.4361
   16MOL0     C 2053   4.083   3.225   6.453  0.2062  0.2255  0.2155
   16MOL0     C 2054   4.191   3.000   6.379 -0.2088 -0.6429  0.4521
   16MOL0     C 2055   4.273   2.978   6.500 -0.4439  0.2482 -1.3764
   16MOL0     O 2056   4.373   2.880   6.500  0.0543  0.3499  0.6217
   16MOL0     C 2057   4.490   2.900   6.571 -0.2819  0.5201 -1.2129
   16MOL0     C 2058   4.545   3.031   6.590  0.4005  0.0430 -0.3216
   16MOL0     C 2059   4.670   3.048   6.646 -0.3588 -0.2063 -0.3749
   16MOL0     C 2060   4.737   2.942   6.701 -0.9152 -0.3581  0.2772
   16MOL0     O 2061   4.863   2.967   6.755 -0.5863 -0.2812 -0.4860
   16MOL0     C 2062   4.891   2.889   6.871  0.8662 -0.1411 -0.1152
   16MOL0     C 2063   4.957   2.978   6.973  0.2515 -0.2767 -0.0694
   16MOL0     C 2064   5.042   2.892   7.081 -0.2652 -0.9641  0.3171
   16MOL0     C 2065   5.127   2.981   7.168 -0.4343 -0.3126 -0.2238
   16MOL0     C 2066   5.202   2.909   7.286  0.4383 -0.1563  0.5749
   16MOL0     C 2067   5.251   3.004   7.396 -0.9190 -0.2003 -0.5476
   16MOL0     C 2068   5.129   3.069   7.470 -0.0666  0.1219 -0.4293
   16MOL0     C 2069   5.092   2.991   7.595  0.1125 -0.0741 -0.7633
   16MOL0    Cl 2070   4.915   3.019   7.643 -0.0589  0.0849  0.2035
   16MOL0     C 2071   4.685   2.813   6.693 -0.3785  1.1126 -0.0406
   16MOL0     C 2072   4.567   2.788   6.618  0.0550 -0.4165  0.5401
   16MOL0     O 2073   4.228   3.034   6.602 -0.4897  0.1865 -0.0835
   16MOL0     C 2074   4.200   2.901   6.280  1.2152 -0.2789 -0.0096
   16MOL0     C 2075   4.125   2.912   6.166  1.0242 -0.4072 -0.7689
   16MOL0     N 2076   3.593   3.187   5.696 -0.2024 -0.8920 -0.9216
   16MOL0     N 2077   3.555   3.217   5.575 -0.1075 -0.0498 -0.0652
   16MOL0     C 2078   3.330   3.353   4.521  1.0531 -0.0531 -0.6176
   16MOL0     C 2079   3.425   3.352   4.420  0.5020  0.3675  0.4704
   16MOL0     C 2080   3.761   3.327   4.164  0.3613  0.3817 -0.0010
   16MOL0     C 2081   3.858   3.232   4.176  0.5340  0.6826 -0.2421
   16MOL0     C 2082   3.942   3.201   4.073 -1.0086 -0.8089  0.1834
   16MOL0     C 2083   3.915   3.258   3.945  0.1365 -0.3045 -0.3370
   16MOL0     O 2084   3.992   3.204   3.840  1.1764 -0.1692 -0.0705
   16MOL0     C 2085   3.981   3.062   3.794  0.2447 -0.9551 -0.0499
   16MOL0     C 2086   3.886   3.069   3.663  0.1694  0.4700 -0.8970
   16MOL0     C 2087   3.950   3.130   3.542 -0.2894 -0.6144  0.2162
   16MOL0     C 2088   3.861   3.117   3.422  0.0649  0.1047  0.4521
   16MOL0     C 2089   3.866   2.977   3.378  0.0766  0.1236 -0.1636
   16MOL0     C 2090   3.875   2.862   3.338 -0.5894  0.3842 -0.1754
   16MOL0     C 2091   3.835   3.367   3.931  0.7975 -0.0042  0.7144
   16MOL0     C 2092   3.756   3.398   4.044  1.9247  0.3079  0.3450
   16MOL0     H 2093   3.446   3.666   4.328 -0.7444 -0.4202 -0.0381
   16MOL0     H 2094   3.263   3.686   4.507  1.4695  2.0731 -1.2677
   16MOL0     H 2095   3.128   3.332   4.758  0.7094 -0.9511  1.1702
   16MOL0     H 2096   3.305   3.369   4.786  2.3099  2.8894 -3.8354
   16MOL0     H 2097   3.252   3.554   4.925  0.5509  0.4439 -0.2806
   16MOL0     H 2098   3.084   3.541   4.902  0.9167  0.1744 -0.6252
   16MOL0     H 2099   3.121   3.455   5.108 -0.7799 -0.2120 -0.2902
   16MOL0     H 2100   3.068   3.322   4.993  0.5104 -2.0533  1.5139
   16MOL0     H 2101   3.216   3.233   5.146  1.7636 -1.6351 -0.3527
   16MOL0     H 2102   3.297   3.236   4.979  2.8977  2.5010 -1.9574
   16MOL0     H 2103   3.439   3.419   5.024 -2.3581  0.1863 -1.4167
   16MOL0     H 2104   3.378   3.449   5.186 -0.3779 -1.2395  1.0958
   16MOL0     H 2105   3.490   3.174   5.114 -2.7598  0.7437 -1.6986
   16MOL0     H 2106   3.607   3.300   5.117  0.6622 -0.3678  2.1883
   16MOL0     H 2107   3.543   3.346   5.354 -1.0123  0.4582 -2.2188
   16MOL0     H 2108   3.426   3.224   5.353 -0.7875 -0.4613 -0.8416
   16MOL0     H 2109   3.724   3.167   5.302  0.1022 -1.4549  0.0828
   16MOL0     H 2110   3.594   3.048   5.329  0.7224 -0.9249  3.6349
   16MOL0     H 2111   3.815   3.014   5.532  2.5568  4.1786 -1.2323
   16MOL0     H 2112   3.885   3.075   5.814 -1.1935  1.5171  0.0025
   16MOL0     H 2113   3.740   3.104   5.897 -0.3449 -0.1455 -0.1777
   16MOL0     H 2114   3.792   2.836   5.744 -0.2257  1.0624 -1.6053
   16MOL0     H 2115   3.634   2.888   5.791  0.2332 -0.4094  0.2795
   16MOL0     H 2116   3.713   2.747   5.958 -1.0884  0.4096 -1.4603
   16MOL0     H 2117   3.689   2.909   6.026  0.1266 -0.5619  1.1230
   16MOL0     H 2118   3.962   2.820   5.958  0.8008  1.7394 -0.3021
   16MOL0     H 2119   3.900   2.778   6.114  0.9755  1.7606  0.7965
   16MOL0     H 2120   3.940   3.178   6.233  1.4334  0.4060 -2.1402
   16MOL0     H 2121   3.985   3.265   6.424 -2.1913 -2.3395  3.8710
   16MOL0     H 2122   4.067   3.188   6.555  0.9056 -2.4062 -0.5516
   16MOL0     H 2123   4.171   3.290   6.452  0.2494  0.4783 -4.6451
   16MOL0     H 2124   4.478   3.113   6.567 -0.6500 -0.0635  2.0511
   16MOL0     H 2125   4.716   3.146   6.654 -3.8289  1.4868  0.4866
   16MOL0     H 2126   4.804   2.842   6.916  1.7225 -1.0718  0.5896
   16MOL0     H 2127   4.962   2.811   6.843  0.5172  0.1496 -1.9715
   16MOL0     H 2128   5.028   3.038   6.914  0.3804 -2.1495 -1.9455
   16MOL0     H 2129   4.891   3.043   7.031 -0.0088 -0.2092 -0.4325
   16MOL0     H 2130   5.105   2.813   7.039  0.2743 -0.6855  0.5807
   16MOL0     H 2131   4.970   2.851   7.152  0.4461  1.3555  2.5683
   16MOL0     H 2132   5.194   3.047   7.113  1.6727  1.3863  3.9401
   16MOL0     H 2133   5.051   3.047   7.210  0.4633 -0.0821  1.0735
   16MOL0     H 2134   5.299   2.872   7.250  1.0358  1.3608  0.5344
   16MOL0     H 2135   5.153   2.817   7.319  1.0058 -1.4283 -1.9121
   16MOL0     H 2136   5.306   2.936   7.463  2.5559  1.5099 -1.4231
   16MOL0     H 2137   5.315   3.078   7.348 -3.0626  1.6283 -0.7238
   16MOL0     H 2138   5.036   3.080   7.414  0.1049  1.4631 -0.4884
   16MOL0     H 2139   5.151   3.169   7.510 -1.3190 -0.8343  3.0157
   16MOL0     H 2140   5.166   3.012   7.673 -0.2765 -0.8393 -0.1804
   16MOL0     H 2141   5.107   2.884   7.574 -1.9440 -0.7954  1.0566
   16MOL0     H 2142   4.750   2.729   6.715  1.5856  1.2908 -4.2291
   16MOL0     H 2143   4.533   2.691   6.582  0.6689  0.3250 -2.2360
   16MOL0     H 2144   4.282   2.831   6.294  1.0500 -0.0149  2.7708
   16MOL0     H 2145   4.136   2.837   6.088 -2.2179 -1.0343 -0.7323
   16MOL0     H 2146   3.299   3.259   4.565  0.6390  0.0667 -0.6568
   16MOL0     H 2147   3.457   3.249   4.405 -1.1037  0.0588 -1.2007
   16MOL0     H 2148   3.865   3.186   4.274  0.1561 -1.1693 -1.0422
   16MOL0     H 2149   4.014   3.123   4.096  2.1720  1.9666  0.4142
   16MOL0     H 2150   4.082   3.043   3.754  0.0959  1.2521 -1.6951
   16MOL0     H 2151   3.955   2.993   3.874 -1.2236  0.3582  0.6640
   16MOL0     H 2152   3.795   3.128   3.679  1.7367  2.7774  0.1632
   16MOL0     H 2153   3.866   2.967   3.631  0.6165  0.4549 -1.1362
   16MOL0     H 2154   4.049   3.085   3.528 -0.3221 -1.4666  2.3267
   16MOL0     H 2155   3.961   3.236   3.564 -1.8376  0.0745 -1.9719
   16MOL0     H 2156   3.893   3.186   3.343 -0.0135 -0.2902  0.0750
   16MOL0     H 2157   3.761   3.154   3.448  0.0780 -2.2128  4.6999
   16MOL0     H 2158   3.878   2.764   3.294  1.5555 -0.7065  2.1550
   16MOL0     H 2159   3.829   3.411   3.832  0.2857 -1.1751  0.2009
   16MOL0     H 2160   3.698   3.488   4.028  0.1182 -0.4077  2.3933
   17MOL0     O 2161  11.544   4.723   7.956  0.4177 -0.9444 -0.1737
   17MOL0     C 2162  11.613   4.752   8.048  0.2681  1.1349 -0.6886
   17MOL0     O 2163  11.613   4.677   8.170  0.0878  0.0639  0.5082
   17MOL0     C 2164  11.531   4.578   8.178  0.1688 -0.0005 -0.9241
   17MOL0     C 2165  11.393   4.588   8.159  0.2069 -0.9765  0.3011
   17MOL0     C 2166  11.311   4.483   8.191 -0.7125 -0.1141 -0.2781
   17MOL0     C 2167  11.363   4.367   8.248  1.1744  0.6948 -0.2136
   17MOL0     O 2168  11.278   4.271   8.309 -0.5599 -0.4102  0.2290
   17MOL0     C 2169  11.132   4.276   8.295 -0.3684 -0.8309 -0.4037
   17MOL0     C 2170  11.080   4.366   8.416 -0.3306 -0.2757 -0.2397
   17MOL0     C 2171  11.085   4.295   8.552 -0.0489 -0.0773  0.3606
   17MOL0     C 2172  11.069   4.391   8.660 -0.1756 -0.3912  0.7631
   17MOL0     C 2173  11.098   4.341   8.800 -1.4963  0.5819 -0.2463
   17MOL0     C 2174  11.216   4.248   8.812 -0.1193 -0.8558 -0.7266
   17MOL0     C 2175  11.343   4.316   8.785 -0.7635 -0.0740  0.3114
   17MOL0     C 2176  11.400   4.420   8.889 -0.1154  0.9214 -0.0687
   17MOL0     N 2177  11.511   4.477   8.818  0.4026  0.5526 -0.2277
   17MOL0     C 2178  11.507   4.582   8.729 -0.1940 -0.2766  0.2309
   17MOL0     C 2179  11.636   4.600   8.674 -0.3457 -0.4809 -0.3331
   17MOL0     C 2180  11.670   4.709   8.568 -0.6619 -0.2326 -0.3605
   17MOL0     C 2181  11.830   4.728   8.560  0.5639 -0.9034 -0.3557
   17MOL0     C 2182  11.890   4.797   8.692 -0.5454 -0.0071 -0.7617
   17MOL0     C 2183  12.037   4.852   8.677  0.4109  0.1399  0.4729
   17MOL0     O 2184  12.116   4.746   8.623 -0.5898 -0.1441  0.1887
   17MOL0     C 2185  12.183   4.777   8.501 -1.2868 -0.0501 -0.2485
   17MOL0     C 2186  12.132   4.733   8.378 -0.2046  0.7645 -0.0643
   17MOL0     C 2187  12.177   4.776   8.261 -0.2118  0.6097  0.2195
   17MOL0     C 2188  12.124   4.714   8.131  0.8049 -0.7334  0.2169
   17MOL0     C 2189  12.283   4.871   8.260 -0.1207 -0.3190  0.0432
   17MOL0     C 2190  12.332   4.933   8.135  0.2549  0.2368  0.1233
   17MOL0     O 2191  12.455   4.990   8.142 -0.0168 -0.8914  0.8975
   17MOL0     C 2192  12.460   5.127   8.130 -0.2239 -0.7534 -0.4020
   17MOL0     C 2193  12.385   5.211   8.040 -0.1053 -0.3960 -0.2871
   17MOL0     C 2194  12.403   5.361   8.045  0.3235  0.3617  0.2614
   17MOL0     C 2195  12.507   5.416   8.124 -1.0225  0.8028 -0.5105
   17MOL0     O 2196  12.535   5.550   8.145 -0.1864 -0.2314 -1.0634
   17MOL0     C 2197  12.435   5.647   8.113 -0.6446 -0.2169  1.3205
   17MOL0     C 2198  12.455   5.773   8.202 -0.4177 -0.0920 -0.0290
   17MOL0     C 2199  12.409   5.753   8.349  0.1931 -0.2461  0.2343
   17MOL0     C 2200  12.388   5.894   8.410  0.3448 -0.6955 -0.0705
   17MOL0     C 2201  12.351   5.901   8.562 -0.5256  0.4335  0.5307
   17MOL0     C 2202  12.324   6.041   8.605 -0.4537  0.1100  0.0227
   17MOL0     C 2203  12.266   6.039   8.743  0.3877 -0.7762 -1.4865
   17MOL0     C 2204  12.245   6.187   8.779  0.0181 -0.1061  0.0744
   17MOL0    Cl 2205  12.134   6.205   8.924 -0.0139 -0.2409 -0.1935
   17MOL0     C 2206  12.581   5.326   8.196 -0.2371  0.4989  0.4990
   17MOL0     C 2207  12.563   5.181   8.208  0.0839 -0.8865 -0.2017
   17MOL0     O 2208  12.279   4.916   8.025  0.4098  0.3476 -0.5105
   17MOL0     C 2209  12.334   4.917   8.384 -0.6652  0.7390  0.3904
   17MOL0     C 2210  12.283   4.875   8.509  0.0417 -0.2202 -0.3671
   17MOL0     N 2211  11.712   4.493   8.727 -1.0101 -0.1853 -1.1650
   17MOL0     N 2212  11.642   4.424   8.811 -0.1891 -0.1264  0.0538
   17MOL0     C 2213  11.498   4.351   8.253  0.5678  0.8986  0.1575
   17MOL0     C 2214  11.582   4.455   8.222  0.9199 -0.1345 -0.1980
   17MOL0     C 2215  11.704   4.870   8.054  0.3896  0.1667 -0.2035
   17MOL0     C 2216  11.694   4.966   7.956 -0.5996  0.6199 -0.4770
   17MOL0     C 2217  11.779   5.080   7.959 -0.1002 -0.3749 -0.0054
   17MOL0     C 2218  11.854   5.113   8.073 -0.4590 -0.2390  1.3003
   17MOL0     O 2219  11.927   5.227   8.085  0.8667 -0.3046 -0.3403
   17MOL0     C 2220  11.928   5.325   7.981 -0.3655 -0.4161  0.0746
   17MOL0     C 2221  11.997   5.456   8.025 -0.3209 -0.2270  1.0205
   17MOL0     C 2222  11.910   5.533   8.114 -0.3966  0.3640  0.5397
   17MOL0     C 2223  12.002   5.616   8.216 -0.5226  0.6863  0.5173
   17MOL0     C 2224  12.054   5.747   8.170 -0.3335  0.4403 -0.1440
   17MOL0     C 2225  12.110   5.840   8.122 -0.6806  0.5389  0.0996
   17MOL0     C 2226  11.865   5.019   8.174  0.3603  0.0338  0.0046
   17MOL0     C 2227  11.801   4.892   8.159  0.2917  0.6325  0.1338
   17MOL0     H 2228  11.354   4.682   8.121  3.4615  0.9039  1.2012
   17MOL0     H 2229  11.206   4.491   8.166 -1.0202 -3.2122 -0.4090
   17MOL0     H 2230  11.105   4.312   8.195 -2.8788  2.4616  1.2525
   17MOL0     H 2231  11.086   4.177   8.303  1.1649 -1.5636 -0.3912
   17MOL0     H 2232  11.125   4.466   8.414 -1.3005  0.1795 -2.2624
   17MOL0     H 2233  10.976   4.380   8.387 -0.6525  0.6341  1.2551
   17MOL0     H 2234  11.009   4.217   8.558 -0.9888  0.9298  2.3964
   17MOL0     H 2235  11.184   4.249   8.553  0.2275  0.4749 -0.4946
   17MOL0     H 2236  11.137   4.474   8.637  0.3860 -1.2730 -0.9327
   17MOL0     H 2237  10.968   4.432   8.649 -1.3022 -3.1942  0.0097
   17MOL0     H 2238  11.117   4.426   8.866  0.3573 -1.6085  2.2436
   17MOL0     H 2239  11.007   4.288   8.831  0.0314 -2.5663 -0.7027
   17MOL0     H 2240  11.210   4.202   8.911 -2.5151  1.3421  0.2409
   17MOL0     H 2241  11.206   4.161   8.745 -0.4597 -1.2726 -0.1402
   17MOL0     H 2242  11.423   4.241   8.787 -0.5327  0.0073 -2.3390
   17MOL0     H 2243  11.333   4.352   8.683 -0.7519  0.4903  0.5087
   17MOL0     H 2244  11.439   4.367   8.977  1.1074  3.1394  0.7970
   17MOL0     H 2245  11.330   4.498   8.921 -1.3884  0.1255 -0.8448
   17MOL0     H 2246  11.418   4.643   8.713  0.8767  1.2941  0.0434
   17MOL0     H 2247  11.628   4.684   8.471  2.6235  1.0169 -2.2851
   17MOL0     H 2248  11.622   4.804   8.595 -0.1762 -0.0662 -0.0437
   17MOL0     H 2249  11.852   4.798   8.478  0.0080 -0.0464  0.2177
   17MOL0     H 2250  11.890   4.641   8.530  0.9955 -1.6193  2.3491
   17MOL0     H 2251  11.903   4.721   8.770 -0.2931  0.8832  0.0775
   17MOL0     H 2252  11.839   4.890   8.719 -1.4071 -0.2394 -1.5314
   17MOL0     H 2253  12.071   4.870   8.779 -0.0504 -1.6645  0.9897
   17MOL0     H 2254  12.045   4.943   8.617  0.4656  0.6761  1.2789
   17MOL0     H 2255  12.049   4.664   8.367  3.4124 -4.4883  1.8397
   17MOL0     H 2256  12.067   4.795   8.084 -0.3941 -0.9130  1.3070
   17MOL0     H 2257  12.204   4.683   8.063 -0.9680  1.3776 -3.0945
   17MOL0     H 2258  12.056   4.629   8.146  0.6406 -0.5997  0.2360
   17MOL0     H 2259  12.322   5.160   7.968  1.3480 -3.4686  0.4532
   17MOL0     H 2260  12.341   5.428   7.986 -0.0847  0.6434  0.9943
   17MOL0     H 2261  12.435   5.670   8.007 -0.2579 -0.4154  1.2764
   17MOL0     H 2262  12.336   5.605   8.131 -0.8001  0.0396  1.0600
   17MOL0     H 2263  12.559   5.807   8.194 -0.2399 -0.4271  0.7184
   17MOL0     H 2264  12.390   5.850   8.159 -0.1010 -0.7967 -1.8334
   17MOL0     H 2265  12.485   5.694   8.402  0.1733 -0.6777 -0.2157
   17MOL0     H 2266  12.321   5.690   8.364  0.3197 -0.3670  0.4676
   17MOL0     H 2267  12.479   5.954   8.397 -1.0503  1.8731  1.2935
   17MOL0     H 2268  12.312   5.946   8.350 -0.0865  1.2959  2.0432
   17MOL0     H 2269  12.437   5.867   8.621 -0.3544 -0.0061  0.0314
   17MOL0     H 2270  12.266   5.834   8.582  0.4330 -1.5396 -1.5731
   17MOL0     H 2271  12.416   6.100   8.595 -1.2389  1.5058  0.7645
   17MOL0     H 2272  12.253   6.085   8.535  0.3277 -0.7798 -1.3940
   17MOL0     H 2273  12.335   5.998   8.817  1.0954 -1.8893 -2.7116
   17MOL0     H 2274  12.169   5.987   8.748 -0.2803  0.2717 -2.8083
   17MOL0     H 2275  12.186   6.226   8.695  1.0579  1.9565  0.2238
   17MOL0     H 2276  12.333   6.251   8.791 -1.8781  2.8789 -0.8741
   17MOL0     H 2277  12.670   5.361   8.248  3.1341 -0.1821 -4.2108
   17MOL0     H 2278  12.624   5.119   8.272 -1.3680 -1.1899  0.9660
   17MOL0     H 2279  12.418   4.986   8.380 -0.7761  0.8810  0.5332
   17MOL0     H 2280  12.326   4.906   8.604  1.3518 -2.3426 -0.1873
   17MOL0     H 2281  11.527   4.250   8.279  1.0485  0.5667 -1.5311
   17MOL0     H 2282  11.688   4.434   8.225  0.6986 -1.2811 -0.0494
   17MOL0     H 2283  11.646   4.949   7.860  0.4769 -1.1114 -0.7423
   17MOL0     H 2284  11.761   5.147   7.876  0.7208 -2.7431 -2.2515
   17MOL0     H 2285  11.993   5.286   7.901  0.9782 -0.1360  1.0026
   17MOL0     H 2286  11.829   5.353   7.944 -0.4376 -1.9331 -0.9941
   17MOL0     H 2287  12.009   5.511   7.931 -0.1710  0.7478  1.6004
   17MOL0     H 2288  12.091   5.436   8.077 -0.0079 -0.7989  0.2634
   17MOL0     H 2289  11.846   5.467   8.172 -1.2396  1.0537  0.4070
   17MOL0     H 2290  11.850   5.600   8.052  2.2495  1.3728 -1.1228
   17MOL0     H 2291  12.080   5.544   8.243 -1.8996 -1.7877 -1.6374
   17MOL0     H 2292  11.938   5.632   8.304 -1.3364 -1.7853  0.4538
   17MOL0     H 2293  12.140   5.926   8.066 -4.8006  1.4168 -1.1316
   17MOL0     H 2294  11.938   5.022   8.255  3.2784 -2.0591 -2.3131
   17MOL0     H 2295  11.807   4.818   8.239  0.2879 -0.7768 -1.1337
   18MOL0     O 2296   0.708   9.026   8.794  0.0963  0.3865  0.0830
   18MOL0     C 2297   0.808   9.035   8.875  0.5841 -0.5131 -0.2244
   18MOL0     O 2298   0.794   9.086   9.007  0.3924  0.1661 -0.1184
   18MOL0     C 2299   0.675   9.125   9.055  1.0286  0.3026 -0.1949
   18MOL0     C 2300   0.626   9.092   9.194 -0.0038  0.2828  0.9990
   18MOL0     C 2301   0.498   9.127   9.235 -0.6139  1.0027  0.3067
   18MOL0     C 2302   0.418   9.196   9.147  0.4015  0.6945  0.0342
   18MOL0     O 2303   0.294   9.235   9.187  0.5636 -0.4623 -0.2663
   18MOL0     C 2304   0.181   9.222   9.094  0.2096  0.2272  0.5130
   18MOL0     C 2305   0.131   9.076   9.074  0.0186  0.9947  0.3895
   18MOL0     C 2306   0.068   9.023   9.197  1.1065 -0.1614 -0.1069
   18MOL0     C 2307   0.147   8.920   9.275 -0.2353 -0.3669  0.3157
   18MOL0     C 2308   0.090   8.887   9.419 -0.3185 -0.9079 -0.6189
   18MOL0     C 2309  -0.065   8.851   9.424  1.2152  0.0096 -0.5335
   18MOL0     C 2310  -0.125   8.801   9.560  0.0311 -0.1583  1.0183
   18MOL0     C 2311  -0.026   8.710   9.638  0.4102  0.0152  0.1274
   18MOL0     N 2312  -0.018   8.574   9.583 -0.6278 -0.4095 -0.1156
   18MOL0     C 2313  -0.126   8.488   9.599  0.5833  0.3454 -0.5520
   18MOL0     C 2314  -0.084   8.371   9.551 -0.2941 -0.0444  0.9475
   18MOL0     C 2315  -0.164   8.235   9.549  0.0357 -0.3490  0.7398
   18MOL0     C 2316  -0.084   8.118   9.617 -0.3553  0.4041  0.1518
   18MOL0     C 2317   0.010   8.152   9.741  0.7985 -0.7827  0.0649
   18MOL0     C 2318   0.097   8.031   9.751 -0.2319 -0.7754 -0.4235
   18MOL0     O 2319   0.169   8.042   9.868 -0.8478  1.1513 -0.9439
   18MOL0     C 2320   0.253   7.936   9.893  0.3384 -0.7908  0.3292
   18MOL0     C 2321   0.256   7.901  10.025 -0.6648 -1.1532  0.2832
   18MOL0     C 2322   0.319   7.788  10.073  0.7630  0.1380 -0.4150
   18MOL0     C 2323   0.303   7.763  10.222  0.6056 -0.6729 -0.4474
   18MOL0     C 2324   0.377   7.701   9.979  0.4792  0.3068  0.2779
   18MOL0     C 2325   0.447   7.581  10.019 -0.2367  0.5099 -0.0424
   18MOL0     O 2326   0.551   7.545   9.942 -0.5187  0.5242  0.1057
   18MOL0     C 2327   0.578   7.413   9.944 -0.5970 -0.6427  0.0913
   18MOL0     C 2328   0.653   7.362  10.052  0.0301 -0.1459  1.0188
   18MOL0     C 2329   0.673   7.220  10.070  0.6936  0.7382  0.1680
   18MOL0     C 2330   0.618   7.134   9.962  0.0266  0.1314 -0.3616
   18MOL0     O 2331   0.634   6.995   9.947 -0.2409 -1.0013 -0.3916
   18MOL0     C 2332   0.706   6.923  10.057  0.2240  0.5456 -0.3431
   18MOL0     C 2333   0.670   6.772  10.055 -0.1314  0.2737  0.6269
   18MOL0     C 2334   0.719   6.701   9.935  0.7708  0.3339  0.3734
   18MOL0     C 2335   0.615   6.659   9.829  0.3827  0.6120 -0.0928
   18MOL0     C 2336   0.677   6.564   9.717  0.3452 -0.7620  0.4447
   18MOL0     C 2337   0.584   6.505   9.602 -0.6220  0.1561  0.1033
   18MOL0     C 2338   0.501   6.388   9.644 -0.9414  0.4069 -0.5621
   18MOL0     C 2339   0.430   6.328   9.524 -0.0505  1.1611  0.2486
   18MOL0    Cl 2340   0.552   6.244   9.420  0.3377  0.5894  0.0778
   18MOL0     C 2341   0.569   7.197   9.843 -0.1627  0.5088 -0.0797
   18MOL0     C 2342   0.551   7.332   9.838  0.4085  0.0727 -0.2261
   18MOL0     O 2343   0.393   7.518  10.110 -0.1872  0.0865  0.3482
   18MOL0     C 2344   0.405   7.750   9.847  0.1051  0.1439  0.0293
   18MOL0     C 2345   0.330   7.868   9.801 -0.9575 -0.5133 -0.2721
   18MOL0     N 2346   0.039   8.371   9.501 -1.0473  0.7990 -0.1194
   18MOL0     N 2347   0.077   8.498   9.515  0.0490  0.1156 -0.6234
   18MOL0     C 2348   0.465   9.227   9.014  0.9276 -0.1758  0.3319
   18MOL0     C 2349   0.586   9.187   8.972  0.4333 -0.0119  0.8257
   18MOL0     C 2350   0.934   8.990   8.831  0.7815  0.3625  0.2484
   18MOL0     C 2351   0.962   8.920   8.708 -0.0288  0.4817 -0.0535
   18MOL0     C 2352   1.086   8.865   8.673  0.0254  0.1495 -0.2313
   18MOL0     C 2353   1.188   8.869   8.771  0.2690  1.1937 -0.3509
   18MOL0     O 2354   1.309   8.816   8.741 -0.5377 -0.0535  0.0910
   18MOL0     C 2355   1.434   8.845   8.804 -0.6522 -0.1902 -1.0706
   18MOL0     C 2356   1.555   8.786   8.725  0.2269  0.0935 -0.0768
   18MOL0     C 2357   1.562   8.632   8.709  0.2121 -0.3150  0.9139
   18MOL0     C 2358   1.684   8.602   8.604  0.2924  0.4272  0.0631
   18MOL0     C 2359   1.643   8.634   8.471  1.2430 -0.0847  0.8082
   18MOL0     C 2360   1.623   8.675   8.355 -0.4086  0.0096 -0.0066
   18MOL0     C 2361   1.166   8.936   8.888 -0.5049  0.1339 -0.0199
   18MOL0     C 2362   1.041   8.994   8.920 -0.0987  0.5363  0.1998
   18MOL0     H 2363   0.681   9.030   9.265 -0.6978 -0.4160  0.9386
   18MOL0     H 2364   0.460   9.102   9.334  3.8795 -3.1656  1.3161
   18MOL0     H 2365   0.094   9.282   9.125 -0.9216 -0.3011 -1.4850
   18MOL0     H 2366   0.212   9.257   8.996 -2.4861  1.2423 -0.0736
   18MOL0     H 2367   0.075   9.077   8.980  1.0265 -1.8383 -0.3398
   18MOL0     H 2368   0.204   9.001   9.043  0.8553  0.6297  2.9725
   18MOL0     H 2369   0.060   9.111   9.262  1.8741  1.5949 -2.2911
   18MOL0     H 2370  -0.033   8.997   9.164  0.4801 -1.0493  2.2767
   18MOL0     H 2371   0.135   8.833   9.209  1.9685 -0.2290 -0.3444
   18MOL0     H 2372   0.253   8.947   9.268 -0.8223  2.3903  0.8040
   18MOL0     H 2373   0.144   8.801   9.458 -0.4833 -0.1303  1.4571
   18MOL0     H 2374   0.097   8.976   9.483 -3.2320 -0.4861 -0.7509
   18MOL0     H 2375  -0.117   8.944   9.402 -0.7483 -0.7030  0.8481
   18MOL0     H 2376  -0.090   8.771   9.353 -0.6100  0.5932 -0.5852
   18MOL0     H 2377  -0.128   8.887   9.628  0.9100  0.6057  0.1237
   18MOL0     H 2378  -0.220   8.749   9.544  1.7117 -2.7106 -1.6297
   18MOL0     H 2379  -0.074   8.699   9.735  3.8150 -0.2039  1.9390
   18MOL0     H 2380   0.074   8.754   9.650  0.7200 -0.9297  1.1778
   18MOL0     H 2381  -0.225   8.505   9.639  0.2498 -0.8245 -0.8348
   18MOL0     H 2382  -0.259   8.257   9.597 -0.1377  1.9812 -0.4993
   18MOL0     H 2383  -0.192   8.204   9.448  0.2107  1.3884  0.1134
   18MOL0     H 2384  -0.030   8.066   9.537 -0.1636 -1.2737  1.3199
   18MOL0     H 2385  -0.163   8.045   9.639 -0.5371  0.2837 -0.8556
   18MOL0     H 2386  -0.060   8.182   9.819 -0.0363  2.6573 -1.8031
   18MOL0     H 2387   0.083   8.233   9.727  0.4565 -0.0747  2.0217
   18MOL0     H 2388   0.153   8.019   9.658 -0.0129  2.3511 -0.8156
   18MOL0     H 2389   0.026   7.950   9.769  1.1638 -1.4645  2.4941
   18MOL0     H 2390   0.188   7.959  10.086  1.8525  0.7146  1.4981
   18MOL0     H 2391   0.241   7.674  10.237 -2.9341  0.7624 -4.4616
   18MOL0     H 2392   0.397   7.758  10.277  0.7083  1.4514 -0.3370
   18MOL0     H 2393   0.244   7.841  10.271  1.4818 -0.1431 -0.2041
   18MOL0     H 2394   0.685   7.440  10.121  0.3139  0.9185 -0.2559
   18MOL0     H 2395   0.712   7.190  10.167 -4.6275  1.8520  3.0523
   18MOL0     H 2396   0.814   6.940  10.052  0.2494  0.1027 -3.0048
   18MOL0     H 2397   0.667   6.956  10.154 -0.7963 -1.4932 -0.0236
   18MOL0     H 2398   0.725   6.726  10.138 -1.1017  3.3630  3.1628
   18MOL0     H 2399   0.563   6.758  10.072  0.1178  1.3769  3.6223
   18MOL0     H 2400   0.771   6.608   9.960 -2.3175 -1.7622 -0.4481
   18MOL0     H 2401   0.803   6.755   9.890  1.0655  0.0312  0.5553
   18MOL0     H 2402   0.540   6.594   9.874  0.1865 -0.7558 -2.2631
   18MOL0     H 2403   0.566   6.745   9.783 -2.1624 -1.5217 -1.6358
   18MOL0     H 2404   0.739   6.484   9.758 -1.6880 -3.4938 -1.4806
   18MOL0     H 2405   0.737   6.634   9.659 -0.4220  2.3138  3.0550
   18MOL0     H 2406   0.522   6.588   9.565  3.5620  3.1879 -0.8345
   18MOL0     H 2407   0.658   6.495   9.523  0.4876  1.4070  0.9329
   18MOL0     H 2408   0.425   6.431   9.709 -0.1403  1.8314 -0.5233
   18MOL0     H 2409   0.568   6.322   9.700  1.0843  0.3275 -2.9184
   18MOL0     H 2410   0.374   6.407   9.473  0.0598  0.6658 -0.6688
   18MOL0     H 2411   0.361   6.253   9.563  0.0024  1.1000  0.2256
   18MOL0     H 2412   0.550   7.132   9.759 -0.3614  1.9000 -1.1555
   18MOL0     H 2413   0.505   7.383   9.754 -0.0111 -1.4694 -0.9756
   18MOL0     H 2414   0.480   7.698   9.789 -1.7580 -3.2410  0.3859
   18MOL0     H 2415   0.336   7.919   9.705 -1.4573 -1.7510 -0.9852
   18MOL0     H 2416   0.402   9.276   8.941  1.1233  1.9219  1.5157
   18MOL0     H 2417   0.615   9.222   8.874 -2.1538  1.6032  0.5464
   18MOL0     H 2418   0.887   8.904   8.631  0.2701 -1.5628  0.0393
   18MOL0     H 2419   1.092   8.822   8.574 -2.4317 -1.4134  0.2253
   18MOL0     H 2420   1.439   8.954   8.811 -3.5247 -0.0753  4.0764
   18MOL0     H 2421   1.448   8.793   8.899 -0.1334 -0.6683 -1.3988
   18MOL0     H 2422   1.644   8.809   8.785  1.0585 -0.8993 -0.8924
   18MOL0     H 2423   1.552   8.843   8.632 -3.0627  1.5879  0.7956
   18MOL0     H 2424   1.467   8.587   8.680 -1.6898  1.4087  3.9529
   18MOL0     H 2425   1.579   8.579   8.803  0.0408 -1.0703  0.5294
   18MOL0     H 2426   1.712   8.496   8.606  3.1419  1.0210 -1.8281
   18MOL0     H 2427   1.769   8.664   8.635  1.7223 -1.4902  0.1913
   18MOL0     H 2428   1.606   8.688   8.250 -1.9292 -0.6213  0.1268
   18MOL0     H 2429   1.255   8.951   8.950 -0.6113 -1.9539  0.7226
   18MOL0     H 2430   1.044   9.071   8.997 -0.4838  2.2099 -1.3799
   19MOL0     O 2431   0.824   9.342   0.901  0.6427 -0.4586 -0.5530
   19MOL0     C 2432   0.912   9.287   0.971 -0.0900  1.2274 -0.9438
   19MOL0     O 2433   1.043   9.325   0.986  0.7134  0.5473  0.2826
   19MOL0     C 2434   1.087   9.437   0.919  0.3793  0.9887 -0.3776
   19MOL0     C 2435   1.095   9.557   0.980 -0.5205  0.4020  0.4338
   19MOL0     C 2436   1.144   9.665   0.910 -0.4668  0.3847  0.3695
   19MOL0     C 2437   1.204   9.656   0.784 -0.4268  0.3407  0.4447
   19MOL0     O 2438   1.285   9.759   0.752  0.1139 -0.1266 -0.3351
   19MOL0     C 2439   1.408   9.741   0.691 -0.5366  0.1564 -0.4233
   19MOL0     C 2440   1.491   9.865   0.684  0.3724 -0.5944 -0.6626
   19MOL0     C 2441   1.522   9.928   0.822 -0.0784 -0.3391  0.2106
   19MOL0     C 2442   1.618  10.054   0.801  0.1686 -0.5529 -0.9335
   19MOL0     C 2443   1.764  10.016   0.782  0.8011 -0.9026  1.3332
   19MOL0     C 2444   1.836  10.003   0.918 -0.1426 -0.1492  0.2941
   19MOL0     C 2445   1.978   9.951   0.903 -0.3334  0.1583 -0.0936
   19MOL0     C 2446   2.045   9.919   1.036  0.8517 -0.1391  0.4580
   19MOL0     N 2447   2.161   9.830   1.016  0.5025 -0.5193 -0.2885
   19MOL0     C 2448   2.171   9.692   1.029  0.4557 -0.0391  0.1810
   19MOL0     C 2449   2.309   9.670   1.030  0.7944  0.6679 -1.0967
   19MOL0     C 2450   2.372   9.529   1.043  0.3879  0.0557  0.3632
   19MOL0     C 2451   2.361   9.450   0.901 -0.8441  0.3127 -1.3047
   19MOL0     C 2452   2.220   9.381   0.881  0.9815 -0.1141  0.5432
   19MOL0     C 2453   2.219   9.276   0.775  0.0751 -0.7719  0.2587
   19MOL0     O 2454   2.289   9.157   0.820  0.7593  0.0731  0.8277
   19MOL0     C 2455   2.216   9.063   0.897 -0.7349 -0.8769  0.2658
   19MOL0     C 2456   2.080   9.062   0.913  0.9343  0.1745 -0.2421
   19MOL0     C 2457   2.013   8.958   0.976  0.0036  0.8709  0.0371
   19MOL0     C 2458   1.864   8.956   0.991  0.3052 -0.4068  0.3591
   19MOL0     C 2459   2.083   8.838   1.006  0.1256  0.1623  0.9537
   19MOL0     C 2460   2.019   8.712   1.053  0.2937 -0.1836  0.3894
   19MOL0     O 2461   2.042   8.661   1.177 -1.5876 -0.0875  0.5051
   19MOL0     C 2462   2.041   8.522   1.188  0.2335 -0.1484  0.0894
   19MOL0     C 2463   1.940   8.473   1.279 -0.0044 -0.1903  0.0606
   19MOL0     C 2464   1.940   8.333   1.311 -0.0178 -1.0393  0.0034
   19MOL0     C 2465   2.039   8.245   1.256  0.3320 -0.3514  0.8421
   19MOL0     O 2466   2.042   8.108   1.278  0.3485  0.0616 -0.3569
   19MOL0     C 2467   2.069   8.086   1.418 -0.3708  1.1533 -0.4316
   19MOL0     C 2468   2.051   7.945   1.457 -0.7525 -0.2042  0.5107
   19MOL0     C 2469   1.898   7.910   1.422 -0.0508  0.5092 -0.3635
   19MOL0     C 2470   1.868   7.765   1.472  0.0390  0.8466 -0.4126
   19MOL0     C 2471   1.718   7.744   1.463  0.2745  0.2966 -0.1348
   19MOL0     C 2472   1.668   7.593   1.473  0.1815  0.7763  0.4568
   19MOL0     C 2473   1.754   7.509   1.571  0.3768  0.2193 -0.2969
   19MOL0     C 2474   1.681   7.365   1.568  0.7552 -0.4852  0.0158
   19MOL0    Cl 2475   1.757   7.267   1.692 -0.0441 -0.0700  0.5092
   19MOL0     C 2476   2.132   8.294   1.159 -0.3880  0.3459 -1.0629
   19MOL0     C 2477   2.128   8.433   1.123 -0.5989  0.0385 -0.5851
   19MOL0     O 2478   1.937   8.661   0.970  0.3128  0.4518  0.2609
   19MOL0     C 2479   2.218   8.844   0.997  0.6038  0.1218 -0.1166
   19MOL0     C 2480   2.284   8.953   0.945  0.9533 -0.3228 -0.4172
   19MOL0     N 2481   2.380   9.788   1.014 -0.2094  0.0770  0.2376
   19MOL0     N 2482   2.294   9.881   1.012 -0.2803  0.8778 -0.3689
   19MOL0     C 2483   1.208   9.527   0.723  0.4152  0.2332 -0.4937
   19MOL0     C 2484   1.138   9.418   0.789  0.5666 -0.1487  0.1804
   19MOL0     C 2485   0.865   9.168   1.036 -0.4671  0.3725 -1.1705
   19MOL0     C 2486   0.783   9.074   0.983  0.2742  0.2984  0.2419
   19MOL0     C 2487   0.765   8.952   1.030 -0.4240 -0.2264  0.0611
   19MOL0     C 2488   0.820   8.932   1.154  0.4439  0.3236 -0.8402
   19MOL0     O 2489   0.823   8.808   1.217 -0.2062  0.2164 -0.2535
   19MOL0     C 2490   0.903   8.702   1.164  0.3658 -0.2498 -0.8457
   19MOL0     C 2491   1.047   8.738   1.200 -0.0014  0.0636  0.4070
   19MOL0     C 2492   1.078   8.715   1.357  0.6351 -0.6895 -0.5015
   19MOL0     C 2493   1.095   8.559   1.378 -0.2922 -0.4366 -0.4615
   19MOL0     C 2494   1.223   8.510   1.307  0.3528 -0.1988 -0.7857
   19MOL0     C 2495   1.330   8.493   1.259  0.5219  0.0247  0.6665
   19MOL0     C 2496   0.885   9.028   1.225  0.6866  0.5644  0.5947
   19MOL0     C 2497   0.911   9.152   1.164  1.0934 -0.4347 -0.4124
   19MOL0     H 2498   1.070   9.566   1.085  0.0025  6.9049  0.4299
   19MOL0     H 2499   1.134   9.768   0.943 -0.4111  1.5901 -2.9351
   19MOL0     H 2500   1.462   9.660   0.740  0.5719 -0.2823 -2.3043
   19MOL0     H 2501   1.393   9.713   0.587 -4.4252 -1.1742  0.3334
   19MOL0     H 2502   1.580   9.850   0.622  2.2971  3.2036  0.8528
   19MOL0     H 2503   1.429   9.934   0.626 -1.0659 -0.5031  0.9213
   19MOL0     H 2504   1.424   9.961   0.859 -0.4391 -2.9215  1.9149
   19MOL0     H 2505   1.568   9.860   0.895 -1.8137 -1.2423  0.5182
   19MOL0     H 2506   1.577  10.112   0.718  1.5286  2.5810  0.4227
   19MOL0     H 2507   1.615  10.112   0.894 -2.3404 -0.5273 -0.9464
   19MOL0     H 2508   1.765   9.921   0.726 -3.7782  0.4676 -1.7072
   19MOL0     H 2509   1.809  10.091   0.717  0.7076  0.7690  3.1187
   19MOL0     H 2510   1.853  10.097   0.970 -0.4675 -0.4682  0.9822
   19MOL0     H 2511   1.784   9.934   0.986 -0.1227  0.9043  1.3992
   19MOL0     H 2512   1.995   9.857   0.850  3.9182 -0.4551  1.9824
   19MOL0     H 2513   2.033  10.027   0.846 -2.7692  2.2570  0.1190
   19MOL0     H 2514   1.970   9.863   1.093  1.1122 -1.5846 -0.5659
   19MOL0     H 2515   2.082  10.013   1.078  4.5507 -1.3678  0.3389
   19MOL0     H 2516   2.103   9.610   1.050 -0.2254  0.7331  1.0738
   19MOL0     H 2517   2.474   9.553   1.075  0.0706 -0.2080  1.6235
   19MOL0     H 2518   2.328   9.463   1.118 -0.9502 -0.6824 -1.0071
   19MOL0     H 2519   2.439   9.372   0.902  2.4499  3.0701  3.8711
   19MOL0     H 2520   2.386   9.501   0.808  0.4539 -1.1632 -1.8141
   19MOL0     H 2521   2.154   9.454   0.833  0.6172 -1.4507 -1.0914
   19MOL0     H 2522   2.165   9.341   0.968 -2.9979  0.5062 -1.4454
   19MOL0     H 2523   2.274   9.320   0.690 -1.3306  1.5354  0.4542
   19MOL0     H 2524   2.114   9.268   0.748 -0.1942 -0.5593  1.2186
   19MOL0     H 2525   2.020   9.149   0.891  0.0505 -0.3826 -0.0895
   19MOL0     H 2526   1.823   9.052   0.957 -0.9133 -1.9886 -3.0183
   19MOL0     H 2527   1.833   8.878   0.922 -3.1267  0.9264  0.1933
   19MOL0     H 2528   1.820   8.927   1.088 -1.9066 -0.8665 -0.7152
   19MOL0     H 2529   1.879   8.548   1.327  0.9177  2.9499 -3.2631
   19MOL0     H 2530   1.862   8.302   1.381 -0.8360  0.2825 -0.2972
   19MOL0     H 2531   2.167   8.111   1.459  1.5081 -3.2977 -1.6755
   19MOL0     H 2532   1.982   8.132   1.467 -0.4773  0.7536 -0.2432
   19MOL0     H 2533   2.123   7.876   1.411 -4.1042 -2.6568 -1.5295
   19MOL0     H 2534   2.059   7.939   1.566 -0.4425  0.1613  0.5080
   19MOL0     H 2535   1.880   7.925   1.315  0.1857  2.8346 -0.1178
   19MOL0     H 2536   1.830   7.980   1.471  0.5921  1.2986 -0.5711
   19MOL0     H 2537   1.910   7.686   1.410 -2.0610 -1.3228  0.7506
   19MOL0     H 2538   1.909   7.751   1.573  0.3400 -0.6636 -0.7212
   19MOL0     H 2539   1.670   7.793   1.378 -1.5571  2.0893  1.8118
   19MOL0     H 2540   1.665   7.775   1.553  0.1443 -1.0931  0.2965
   19MOL0     H 2541   1.569   7.596   1.520 -0.5730  0.7825 -1.0960
   19MOL0     H 2542   1.659   7.544   1.376 -0.6316 -1.4711  1.5930
   19MOL0     H 2543   1.745   7.566   1.664  1.2435  1.5968 -1.0073
   19MOL0     H 2544   1.860   7.507   1.542  0.2526  3.6717 -1.5048
   19MOL0     H 2545   1.676   7.321   1.468  2.3887 -0.6760 -0.0134
   19MOL0     H 2546   1.575   7.374   1.592  0.5095  4.9230 -1.8162
   19MOL0     H 2547   2.202   8.221   1.119 -2.6103 -2.2842 -0.4709
   19MOL0     H 2548   2.201   8.459   1.047  0.4169 -1.5958 -0.2088
   19MOL0     H 2549   2.283   8.765   1.033  0.2105 -1.0680 -1.8878
   19MOL0     H 2550   2.392   8.965   0.951  0.7443  0.6700  2.7430
   19MOL0     H 2551   1.259   9.511   0.628  0.0959 -0.1480 -0.6032
   19MOL0     H 2552   1.131   9.323   0.737 -0.3930  1.0145 -1.9490
   19MOL0     H 2553   0.743   9.091   0.883 -2.5575  2.2626  1.5464
   19MOL0     H 2554   0.701   8.876   0.987 -2.2052  0.4923  1.3283
   19MOL0     H 2555   0.864   8.606   1.200 -1.1137  0.1182 -1.4008
   19MOL0     H 2556   0.898   8.687   1.056  1.1669  1.7636 -1.2196
   19MOL0     H 2557   1.068   8.836   1.157 -1.9206 -0.2163 -1.3228
   19MOL0     H 2558   1.119   8.669   1.153  1.7849  1.9766  0.1798
   19MOL0     H 2559   0.994   8.758   1.412  1.6434  0.2517  0.3594
   19MOL0     H 2560   1.162   8.775   1.393 -0.1312 -0.8213  1.6465
   19MOL0     H 2561   1.013   8.504   1.332 -1.7385  2.0927 -1.1376
   19MOL0     H 2562   1.090   8.529   1.483 -2.1398 -1.3729 -0.7917
   19MOL0     H 2563   1.423   8.467   1.212 -0.1237 -0.8506 -0.1767
   19MOL0     H 2564   0.910   9.020   1.330 -0.6247 -1.1887  0.8119
   19MOL0     H 2565   0.964   9.221   1.229  0.8655 -2.3927  2.0314
   20MOL0     O 2566   7.378   2.903   7.588  0.1557  0.1171  0.4445
   20MOL0     C 2567   7.366   2.856   7.697  0.3221 -0.1672  0.8593
   20MOL0     O 2568   7.353   2.924   7.814 -0.5591  0.7690 -0.3824
   20MOL0     C 2569   7.377   3.058   7.804 -0.8857 -0.8057 -0.2459
   20MOL0     C 2570   7.268   3.139   7.774  0.1160 -0.2394 -0.0448
   20MOL0     C 2571   7.295   3.277   7.739  1.3628  0.5656 -0.4938
   20MOL0     C 2572   7.430   3.327   7.736 -0.0025 -0.0003  0.2362
   20MOL0     O 2573   7.448   3.458   7.705  0.1099 -0.1775 -0.3072
   20MOL0     C 2574   7.577   3.528   7.742  0.3533 -0.0359  0.2435
   20MOL0     C 2575   7.557   3.678   7.715 -0.3067 -0.9283 -0.8648
   20MOL0     C 2576   7.696   3.745   7.703 -0.5789  0.4348  0.2039
   20MOL0     C 2577   7.691   3.885   7.638 -0.4067 -0.2178 -0.8310
   20MOL0     C 2578   7.839   3.940   7.635  0.6755  0.1682 -0.4904
   20MOL0     C 2579   7.856   4.079   7.558  0.2464 -0.3231 -0.1785
   20MOL0     C 2580   8.007   4.114   7.569 -0.6842  0.4067 -0.2493
   20MOL0     C 2581   8.041   4.262   7.569 -0.8576 -0.1528  0.3696
   20MOL0     N 2582   8.011   4.318   7.440  0.2132  0.6030  0.6653
   20MOL0     C 2583   8.085   4.298   7.324 -0.5549  0.7592  0.0959
   20MOL0     C 2584   8.028   4.384   7.232  0.2956  0.4182  0.2740
   20MOL0     C 2585   8.087   4.408   7.102  0.3786 -0.2723 -0.5808
   20MOL0     C 2586   8.004   4.373   6.971 -1.4649  0.3099  0.2083
   20MOL0     C 2587   7.884   4.464   6.941  0.0173  0.7799 -0.0762
   20MOL0     C 2588   7.917   4.611   6.987  0.6499  0.1839  0.0486
   20MOL0     O 2589   7.833   4.696   6.907  0.1868 -0.4041  0.0186
   20MOL0     C 2590   7.890   4.807   6.871 -0.2929  0.3112  0.4383
   20MOL0     C 2591   7.915   4.911   6.964 -0.4134  0.4623 -0.5295
   20MOL0     C 2592   7.980   5.032   6.928 -0.0815  0.0980 -0.2649
   20MOL0     C 2593   7.998   5.132   7.040  0.8581 -0.7587 -0.2715
   20MOL0     C 2594   8.019   5.060   6.789  0.1780  0.7070 -0.3234
   20MOL0     C 2595   8.079   5.188   6.737 -0.3369  0.3633  0.9482
   20MOL0     O 2596   8.132   5.186   6.607 -0.5766  0.1619 -0.1326
   20MOL0     C 2597   8.192   5.303   6.559  0.0151  0.8364 -0.8298
   20MOL0     C 2598   8.312   5.363   6.600 -0.8331 -0.6917  0.4865
   20MOL0     C 2599   8.348   5.496   6.570 -0.3081 -0.1807  0.2834
   20MOL0     C 2600   8.274   5.572   6.470  0.2192  0.4386  0.1731
   20MOL0     O 2601   8.299   5.704   6.438 -0.0211  0.0892 -0.3209
   20MOL0     C 2602   8.416   5.770   6.501  0.2650 -0.1269  0.3014
   20MOL0     C 2603   8.413   5.914   6.443 -1.0212  0.4119  0.6086
   20MOL0     C 2604   8.529   6.000   6.491  0.4624  0.0458 -0.2295
   20MOL0     C 2605   8.658   5.949   6.449 -0.9403  0.4283 -0.0351
   20MOL0     C 2606   8.783   6.042   6.490  0.3996 -0.6822  0.1914
   20MOL0     C 2607   8.923   5.990   6.427  0.3114 -0.1307 -0.1041
   20MOL0     C 2608   9.014   6.080   6.493 -0.9039 -0.1052 -0.0240
   20MOL0     C 2609   9.139   6.016   6.549  0.5056  0.2838  0.4076
   20MOL0    Cl 2610   9.214   5.930   6.407 -0.1212  0.0779 -0.0411
   20MOL0     C 2611   8.154   5.505   6.425 -0.0681 -0.1662  1.1134
   20MOL0     C 2612   8.118   5.379   6.469 -0.3570  0.0274 -0.2952
   20MOL0     O 2613   8.095   5.278   6.815 -0.4977 -0.1691 -0.5632
   20MOL0     C 2614   7.989   4.954   6.702 -0.1506  0.7410 -0.6533
   20MOL0     C 2615   7.924   4.830   6.737 -0.9204  0.7486 -0.7720
   20MOL0     N 2616   7.920   4.454   7.294  0.4150 -0.1692 -0.0857
   20MOL0     N 2617   7.924   4.420   7.417  1.0234  0.1718 -0.0072
   20MOL0     C 2618   7.531   3.244   7.799 -0.3478 -0.8454 -0.0223
   20MOL0     C 2619   7.502   3.112   7.829 -0.3639 -0.8307  0.0579
   20MOL0     C 2620   7.364   2.710   7.703 -0.1228 -0.5469  0.4831
   20MOL0     C 2621   7.308   2.642   7.821  0.1104  0.8651  0.5508
   20MOL0     C 2622   7.306   2.503   7.837  0.4109 -0.6917  0.1578
   20MOL0     C 2623   7.355   2.422   7.728  0.1531  0.6284 -1.0961
   20MOL0     O 2624   7.377   2.291   7.724 -0.4231  1.2186 -0.6706
   20MOL0     C 2625   7.353   2.212   7.844 -0.6929  0.0144 -1.1486
   20MOL0     C 2626   7.351   2.062   7.812 -0.0499 -0.4650 -0.2467
   20MOL0     C 2627   7.465   2.014   7.721 -0.4478 -0.4261 -0.6544
   20MOL0     C 2628   7.600   1.992   7.791 -0.4791  0.6625 -0.4132
   20MOL0     C 2629   7.698   1.946   7.695  0.5565 -0.5734  0.1393
   20MOL0     C 2630   7.795   1.914   7.634  0.0244 -0.0332 -0.1965
   20MOL0     C 2631   7.396   2.478   7.613 -0.3244 -0.7865  0.0581
   20MOL0     C 2632   7.417   2.617   7.607  0.0717 -0.4613  0.8155
   20MOL0     H 2633   7.166   3.102   7.772 -0.4103  1.1000 -2.4998
   20MOL0     H 2634   7.212   3.343   7.713 -0.9923 -1.8807  0.3414
   20MOL0     H 2635   7.605   3.506   7.845  3.0203 -0.1731 -0.4494
   20MOL0     H 2636   7.646   3.476   7.675 -2.8412 -3.2413 -0.9170
   20MOL0     H 2637   7.516   3.686   7.614  4.1265 -0.4325 -2.8693
   20MOL0     H 2638   7.484   3.720   7.785  1.6686 -0.8380  1.2570
   20MOL0     H 2639   7.751   3.759   7.797  1.5126 -2.2023 -0.5113
   20MOL0     H 2640   7.756   3.685   7.635  0.1359  1.2027  0.1390
   20MOL0     H 2641   7.640   3.881   7.541  0.2022 -0.6824 -1.1377
   20MOL0     H 2642   7.634   3.956   7.699  1.4629 -0.6155  1.5110
   20MOL0     H 2643   7.880   3.966   7.733 -0.6817  3.0764 -0.5858
   20MOL0     H 2644   7.896   3.855   7.596  3.8915  1.6378  0.6808
   20MOL0     H 2645   7.825   4.072   7.454  1.3550  2.6782 -0.8239
   20MOL0     H 2646   7.794   4.155   7.606 -1.2656 -0.1535 -2.2814
   20MOL0     H 2647   8.045   4.093   7.669  3.7924  4.0601 -0.8537
   20MOL0     H 2648   8.057   4.052   7.494 -0.5283 -1.4340  1.3115
   20MOL0     H 2649   8.143   4.279   7.602 -0.7418 -2.7162  1.5458
   20MOL0     H 2650   7.996   4.316   7.652 -0.5817  2.0257 -0.8149
   20MOL0     H 2651   8.172   4.236   7.305  0.5871  2.3731 -0.1792
   20MOL0     H 2652   8.117   4.512   7.092 -1.4507  0.4599  0.9786
   20MOL0     H 2653   8.176   4.344   7.095  0.6646 -0.2826  2.1035
   20MOL0     H 2654   7.981   4.266   6.975 -0.0835  0.0269  2.8042
   20MOL0     H 2655   8.079   4.381   6.891 -1.5352 -1.7455 -0.1295
   20MOL0     H 2656   7.791   4.427   6.986 -1.6882  3.6685 -0.9794
   20MOL0     H 2657   7.866   4.482   6.835 -0.0923  1.8864  0.1140
   20MOL0     H 2658   8.018   4.654   6.986  0.0141  2.0639  3.1148
   20MOL0     H 2659   7.883   4.624   7.090  0.1214  2.8385 -0.3986
   20MOL0     H 2660   7.871   4.895   7.062 -1.3090 -2.8392 -1.3512
   20MOL0     H 2661   7.993   5.071   7.131 -2.5169 -0.2084  0.0204
   20MOL0     H 2662   8.095   5.181   7.027 -0.0378  0.2291 -5.4687
   20MOL0     H 2663   7.918   5.206   7.039 -0.8200 -2.4823 -2.0048
   20MOL0     H 2664   8.372   5.313   6.676 -0.4098  0.2025  0.7516
   20MOL0     H 2665   8.432   5.531   6.629 -0.7341 -1.0263  1.4172
   20MOL0     H 2666   8.414   5.761   6.610 -0.2347 -0.7291  0.2445
   20MOL0     H 2667   8.503   5.712   6.469  0.5343 -1.0074  2.4626
   20MOL0     H 2668   8.436   5.897   6.338  2.4614  1.3307  1.0978
   20MOL0     H 2669   8.314   5.960   6.458 -1.9155 -0.3063 -2.4201
   20MOL0     H 2670   8.524   6.019   6.598  2.7595 -1.3704  0.1975
   20MOL0     H 2671   8.519   6.095   6.438 -0.6714 -0.1301 -0.3592
   20MOL0     H 2672   8.684   5.857   6.503 -0.6953  0.8942  0.6545
   20MOL0     H 2673   8.670   5.928   6.342  1.3674  1.7846 -0.1061
   20MOL0     H 2674   8.797   6.038   6.598  1.6604  1.6314  0.1745
   20MOL0     H 2675   8.759   6.147   6.471  1.1466  0.6273  5.1110
   20MOL0     H 2676   8.942   5.884   6.443 -3.6760 -1.1390 -0.8605
   20MOL0     H 2677   8.924   5.999   6.318 -0.2650 -1.0557 -0.2014
   20MOL0     H 2678   8.971   6.139   6.574  0.6992 -0.6733  1.2841
   20MOL0     H 2679   9.047   6.146   6.412  0.5572 -0.9513 -0.1512
   20MOL0     H 2680   9.111   5.944   6.626 -0.4123  1.9292  1.6747
   20MOL0     H 2681   9.213   6.081   6.598  1.3991 -1.5035  1.5168
   20MOL0     H 2682   8.097   5.566   6.356 -1.6012 -0.7595  1.8104
   20MOL0     H 2683   8.029   5.327   6.435 -0.3402  1.1395 -2.1640
   20MOL0     H 2684   7.993   4.972   6.595 -2.2597 -1.4699 -1.1897
   20MOL0     H 2685   7.896   4.754   6.665  0.6407  0.0566 -0.6813
   20MOL0     H 2686   7.633   3.277   7.818 -0.1429  0.3913 -2.8636
   20MOL0     H 2687   7.586   3.051   7.860  2.1011  2.0959 -0.3430
   20MOL0     H 2688   7.266   2.682   7.913 -0.8767 -3.2088  2.1269
   20MOL0     H 2689   7.265   2.467   7.930 -2.7479 -3.0182 -1.9144
   20MOL0     H 2690   7.420   2.233   7.928 -2.3080  3.1394 -0.4801
   20MOL0     H 2691   7.256   2.236   7.888  0.6056  1.8872  0.9659
   20MOL0     H 2692   7.250   2.052   7.772 -1.5205  2.5406  2.2746
   20MOL0     H 2693   7.352   2.007   7.907 -1.0570 -1.5322 -0.8352
   20MOL0     H 2694   7.474   2.084   7.637 -1.8805  0.9109  0.2542
   20MOL0     H 2695   7.429   1.915   7.691 -3.0095  0.1475  0.2845
   20MOL0     H 2696   7.596   1.935   7.885 -0.2249  0.7602 -0.3419
   20MOL0     H 2697   7.647   2.083   7.828  0.0381  0.3172 -0.2056
   20MOL0     H 2698   7.874   1.873   7.575 -2.0594 -4.8266 -0.1251
   20MOL0     H 2699   7.435   2.404   7.544  2.4282 -2.7751  3.3791
   20MOL0     H 2700   7.467   2.656   7.518  1.4584 -1.7942  0.9687
   21MOL0     O 2701   2.466   0.078   9.115  0.0126 -0.2488 -0.6035
   21MOL0     C 2702   2.411   0.013   9.203  0.8038  0.5674 -0.4931
   21MOL0     O 2703   2.359  -0.109   9.180 -0.1618 -0.7772  0.0152
   21MOL0     C 2704   2.418  -0.180   9.073  0.1845 -0.0040 -0.0592
   21MOL0     C 2705   2.404  -0.134   8.941 -0.2696  0.4047  0.0689
   21MOL0     C 2706   2.452  -0.210   8.841 -0.7531  0.8497  1.3879
   21MOL0     C 2707   2.513  -0.337   8.860 -0.1193 -0.0660 -0.9082
   21MOL0     O 2708   2.570  -0.415   8.757  0.2793  0.4385  0.0325
   21MOL0     C 2709   2.697  -0.486   8.782 -0.4419 -0.1530  0.4258
   21MOL0     C 2710   2.794  -0.446   8.669  0.3302 -0.1344 -0.4290
   21MOL0     C 2711   2.746  -0.490   8.530 -0.4641  0.6334 -0.0387
   21MOL0     C 2712   2.798  -0.397   8.418  0.3284  1.1121  0.2526
   21MOL0     C 2713   2.734  -0.449   8.284  0.2459  0.2483 -0.1443
   21MOL0     C 2714   2.823  -0.390   8.168  0.1131  1.0561  0.0348
   21MOL0     C 2715   2.759  -0.414   8.025 -0.8794  0.1074  0.4351
   21MOL0     C 2716   2.824  -0.322   7.922 -0.0877 -0.1541 -0.6107
   21MOL0     N 2717   2.762  -0.339   7.802  0.4713 -0.3358  0.2171
   21MOL0     C 2718   2.684  -0.251   7.724  0.0785  0.1627 -0.8546
   21MOL0     C 2719   2.671  -0.301   7.606  0.2422 -0.1585 -0.5837
   21MOL0     C 2720   2.607  -0.219   7.495  0.2010 -0.3320  0.7072
   21MOL0     C 2721   2.458  -0.178   7.532  0.4621 -0.4437  0.2884
   21MOL0     C 2722   2.363  -0.126   7.419  0.1281  0.3535  0.3831
   21MOL0     C 2723   2.393   0.018   7.370 -0.3079  0.0978  0.3875
   21MOL0     O 2724   2.394   0.030   7.221 -0.1382  0.0878 -0.7834
   21MOL0     C 2725   2.518   0.006   7.158  0.8219  0.4078  0.0095
   21MOL0     C 2726   2.504  -0.020   7.022 -1.5689 -0.2495  0.0761
   21MOL0     C 2727   2.615  -0.059   6.949 -0.2126  0.7712  0.3626
   21MOL0     C 2728   2.599  -0.118   6.809  0.6714  0.0812 -0.3113
   21MOL0     C 2729   2.751  -0.047   7.001  0.5579  0.4241  0.8383
   21MOL0     C 2730   2.877  -0.066   6.918 -0.1162  0.6373 -0.1982
   21MOL0     O 2731   2.872  -0.100   6.787 -0.3033  0.4864 -0.1104
   21MOL0     C 2732   2.984  -0.131   6.704  0.4641 -0.9611  0.4330
   21MOL0     C 2733   2.960  -0.116   6.567 -0.6247  0.1583  0.2519
   21MOL0     C 2734   3.057  -0.170   6.474 -0.1969 -0.8857 -0.5698
   21MOL0     C 2735   3.182  -0.213   6.516 -0.8682 -0.8610 -0.5214
   21MOL0     O 2736   3.271  -0.247   6.415  0.6080  0.2494  0.1920
   21MOL0     C 2737   3.393  -0.312   6.449  0.0075 -0.9345  0.5252
   21MOL0     C 2738   3.487  -0.302   6.323  0.5067  0.9979 -0.4734
   21MOL0     C 2739   3.523  -0.160   6.265  0.2253 -0.3365 -0.1525
   21MOL0     C 2740   3.627  -0.080   6.346  0.1269  0.3507  0.6139
   21MOL0     C 2741   3.747  -0.028   6.270 -0.6168  0.5472  0.4939
   21MOL0     C 2742   3.835   0.072   6.339 -0.2831 -0.0127 -0.0714
   21MOL0     C 2743   3.988   0.057   6.311  0.4200 -0.3900 -0.3537
   21MOL0     C 2744   4.067   0.185   6.361  0.0204 -0.7230 -0.8038
   21MOL0    Cl 2745   4.242   0.170   6.348 -0.4118 -0.1290  0.4619
   21MOL0     C 2746   3.215  -0.200   6.650 -0.1376 -0.4497 -0.4515
   21MOL0     C 2747   3.111  -0.174   6.736 -0.7560 -0.1813 -0.1106
   21MOL0     O 2748   2.977  -0.041   6.984 -0.5932 -0.7226 -0.7442
   21MOL0     C 2749   2.762  -0.011   7.140 -0.0073 -0.3541  0.5906
   21MOL0     C 2750   2.649   0.022   7.214 -0.5533 -0.7860  0.2100
   21MOL0     N 2751   2.720  -0.426   7.606 -0.1845 -0.0553  0.4569
   21MOL0     N 2752   2.781  -0.446   7.724  0.6975  0.5487  0.3606
   21MOL0     C 2753   2.542  -0.377   8.994 -0.2021 -0.2329 -0.0802
   21MOL0     C 2754   2.485  -0.297   9.096  0.0528  1.4590  0.7499
   21MOL0     C 2755   2.385   0.082   9.329  1.0528 -0.1669 -0.2321
   21MOL0     C 2756   2.431   0.208   9.348 -0.3946 -0.1778  0.7519
   21MOL0     C 2757   2.428   0.265   9.470  0.7827 -0.3631  0.1026
   21MOL0     C 2758   2.361   0.216   9.587  0.1869  0.7818  0.3802
   21MOL0     O 2759   2.369   0.285   9.704 -0.4214  0.1048  0.3659
   21MOL0     C 2760   2.295   0.234   9.819  0.9812 -1.1777  0.7330
   21MOL0     C 2761   2.256   0.342   9.931  0.2193 -0.5944  0.6787
   21MOL0     C 2762   2.239   0.474   9.861 -0.1249  0.2413 -0.0203
   21MOL0     C 2763   2.183   0.593   9.942 -0.7998  0.1108 -0.7785
   21MOL0     C 2764   2.264   0.622  10.070  0.2077  0.2565  1.0221
   21MOL0     C 2765   2.312   0.681  10.165 -0.5693 -0.1902  0.1396
   21MOL0     C 2766   2.293   0.091   9.559 -0.2747 -0.0687 -0.3693
   21MOL0     C 2767   2.295   0.032   9.428 -0.1669  0.9949  0.2647
   21MOL0     H 2768   2.362  -0.038   8.912  0.8378  0.9583  0.2745
   21MOL0     H 2769   2.456  -0.180   8.737  3.5981 -1.8902  0.4627
   21MOL0     H 2770   2.757  -0.459   8.869  2.8206 -0.1281 -1.6600
   21MOL0     H 2771   2.678  -0.594   8.775  0.9126 -0.3827  0.1092
   21MOL0     H 2772   2.803  -0.338   8.683  2.6687 -0.4560  1.0901
   21MOL0     H 2773   2.887  -0.486   8.711 -1.8467 -3.6361  1.6051
   21MOL0     H 2774   2.795  -0.586   8.508 -0.5501  1.1515 -2.8797
   21MOL0     H 2775   2.638  -0.503   8.526 -0.3321 -1.0625  1.0941
   21MOL0     H 2776   2.751  -0.300   8.438  2.4245  1.5737  3.6908
   21MOL0     H 2777   2.907  -0.386   8.419  0.3940  0.4893  0.8240
   21MOL0     H 2778   2.725  -0.557   8.268 -0.3865  0.6186 -2.8317
   21MOL0     H 2779   2.631  -0.416   8.274  0.3172  1.1038  1.6183
   21MOL0     H 2780   2.828  -0.280   8.174 -1.2177  1.3225 -2.5311
   21MOL0     H 2781   2.915  -0.449   8.171 -1.5241 -1.6339  1.3819
   21MOL0     H 2782   2.778  -0.518   7.996 -5.6827 -0.5766 -1.1648
   21MOL0     H 2783   2.651  -0.396   8.023 -0.5429  2.4127 -0.6355
   21MOL0     H 2784   2.931  -0.345   7.925 -0.0263  0.2176  0.9587
   21MOL0     H 2785   2.816  -0.215   7.948  0.2040 -0.4682  0.8857
   21MOL0     H 2786   2.646  -0.153   7.750 -2.1950 -0.9982  0.5928
   21MOL0     H 2787   2.671  -0.140   7.456 -1.3630 -0.7970 -3.2104
   21MOL0     H 2788   2.596  -0.279   7.404  2.4719 -1.0182  0.7959
   21MOL0     H 2789   2.470  -0.111   7.617 -1.9352 -0.9645  1.1327
   21MOL0     H 2790   2.406  -0.263   7.578 -1.8999  1.4296  1.3065
   21MOL0     H 2791   2.263  -0.138   7.461  0.0691  3.1728  1.2908
   21MOL0     H 2792   2.373  -0.191   7.332 -0.4060 -0.5971  1.0253
   21MOL0     H 2793   2.477   0.065   7.422 -0.5198  0.6102  0.2724
   21MOL0     H 2794   2.315   0.086   7.404  0.0331  0.3763  0.6243
   21MOL0     H 2795   2.408  -0.017   6.972 -2.9953  0.2350  2.7135
   21MOL0     H 2796   2.641  -0.051   6.734  2.8964  1.6939  2.1966
   21MOL0     H 2797   2.622  -0.224   6.795 -0.8269  0.0034 -2.5957
   21MOL0     H 2798   2.494  -0.125   6.780  1.5055  0.5935 -3.8356
   21MOL0     H 2799   2.867  -0.082   6.525 -0.3876  1.0313  0.4266
   21MOL0     H 2800   3.051  -0.174   6.366  3.2409 -4.7138 -0.8799
   21MOL0     H 2801   3.439  -0.253   6.528  2.9344  2.1847 -3.1281
   21MOL0     H 2802   3.379  -0.417   6.478  1.3149 -1.3894 -0.4000
   21MOL0     H 2803   3.571  -0.369   6.347 -0.4259 -0.2640 -0.6417
   21MOL0     H 2804   3.446  -0.351   6.234 -0.6952  3.2958 -1.2440
   21MOL0     H 2805   3.432  -0.100   6.254  1.4866  1.6666 -0.0028
   21MOL0     H 2806   3.566  -0.187   6.168 -2.0971 -4.7650 -0.2272
   21MOL0     H 2807   3.590   0.016   6.381  1.1297  1.6596 -1.7150
   21MOL0     H 2808   3.664  -0.127   6.437  0.3663 -0.1266  0.2778
   21MOL0     H 2809   3.734   0.023   6.174  0.7284 -2.2109 -1.2826
   21MOL0     H 2810   3.810  -0.112   6.240 -1.6584 -0.5603  1.3033
   21MOL0     H 2811   3.813   0.173   6.306  1.6020 -0.1432 -1.9621
   21MOL0     H 2812   3.832   0.063   6.448  3.0675  2.9576  0.4460
   21MOL0     H 2813   4.006   0.038   6.205  0.5689  3.2357 -1.1016
   21MOL0     H 2814   4.029  -0.033   6.359 -0.2900 -0.1697  0.7030
   21MOL0     H 2815   4.060   0.200   6.469 -1.2035  0.7238 -1.0590
   21MOL0     H 2816   4.027   0.273   6.311 -1.6833  0.3726  2.2108
   21MOL0     H 2817   3.312  -0.234   6.686  0.6913  0.5419 -1.6829
   21MOL0     H 2818   3.141  -0.180   6.840 -1.9428 -0.4462  0.2313
   21MOL0     H 2819   2.849   0.003   7.203  0.0991  4.4818 -0.1991
   21MOL0     H 2820   2.676   0.047   7.316  1.0930 -0.9327 -0.1765
   21MOL0     H 2821   2.595  -0.470   9.012 -0.3613 -0.1129  1.0586
   21MOL0     H 2822   2.500  -0.343   9.193 -0.1788  0.6941  0.4274
   21MOL0     H 2823   2.472   0.263   9.264 -1.1017 -0.4357  0.2254
   21MOL0     H 2824   2.455   0.368   9.491 -2.2462  1.2375 -2.9073
   21MOL0     H 2825   2.195   0.203   9.788 -0.8304  3.1969  1.3725
   21MOL0     H 2826   2.343   0.149   9.867 -0.6343 -1.8647  1.1992
   21MOL0     H 2827   2.330   0.350  10.011 -0.4407  2.9183  1.1184
   21MOL0     H 2828   2.157   0.340   9.979  0.0398 -0.2798  0.3324
   21MOL0     H 2829   2.177   0.452   9.773  0.2348  1.0680 -0.4919
   21MOL0     H 2830   2.339   0.495   9.823  0.8266 -4.7679 -1.1023
   21MOL0     H 2831   2.076   0.580   9.961 -0.9698  0.0740 -1.7310
   21MOL0     H 2832   2.192   0.683   9.881 -1.5787 -0.3871 -1.6476
   21MOL0     H 2833   2.370   0.734  10.238  0.0501 -2.7203  1.6127
   21MOL0     H 2834   2.232   0.041   9.634  0.0780 -0.8673 -0.5963
   21MOL0     H 2835   2.242  -0.061   9.411  1.7684 -0.2607  0.7079
   22MOL0     O 2836   0.499  10.812   8.478 -0.8805  0.1734 -0.5206
   22MOL0     C 2837   0.503  10.700   8.411 -0.7472 -1.1509 -0.5892
   22MOL0     O 2838   0.444  10.686   8.295 -0.4153 -0.6385 -0.0104
   22MOL0     C 2839   0.345  10.768   8.244 -0.2663  0.7521  0.1601
   22MOL0     C 2840   0.248  10.817   8.329 -0.4950  0.3189  0.1148
   22MOL0     C 2841   0.155  10.912   8.291  0.2706  0.1724  0.4546
   22MOL0     C 2842   0.162  10.967   8.163  0.4205 -0.0442 -0.8233
   22MOL0     O 2843   0.069  11.060   8.128  0.8107 -0.2579 -0.4020
   22MOL0     C 2844  -0.043  10.997   8.059 -0.4561 -0.1868  0.2959
   22MOL0     C 2845  -0.178  11.013   8.133 -0.5088 -1.1341 -0.2147
   22MOL0     C 2846  -0.223  11.167   8.159 -0.0011  0.0810 -0.1656
   22MOL0     C 2847  -0.328  11.180   8.269 -0.9925 -0.0801 -0.6342
   22MOL0     C 2848  -0.464  11.120   8.233 -0.3898  0.2512  0.1991
   22MOL0     C 2849  -0.526  11.194   8.110 -0.1394  0.0549 -0.1198
   22MOL0     C 2850  -0.676  11.179   8.096  0.8995  0.9897 -0.1403
   22MOL0     C 2851  -0.710  11.034   8.047 -0.2010  0.5682  0.3330
   22MOL0     N 2852  -0.860  11.034   8.016 -0.3821  0.0327  0.0861
   22MOL0     C 2853  -0.904  10.972   7.900 -0.6672  0.9164  0.7599
   22MOL0     C 2854  -1.033  10.974   7.914  0.2410  0.0851  0.5763
   22MOL0     C 2855  -1.121  10.884   7.836  0.8363 -0.3764  0.3480
   22MOL0     C 2856  -1.239  10.965   7.774  0.4514  0.2781  1.3183
   22MOL0     C 2857  -1.199  11.070   7.670 -0.4028 -0.6563  0.8448
   22MOL0     C 2858  -1.319  11.160   7.632 -0.3567 -0.8003  0.4014
   22MOL0     O 2859  -1.267  11.247   7.528  0.6436 -0.1275  0.2315
   22MOL0     C 2860  -1.375  11.309   7.456 -0.4821  1.5378  0.3183
   22MOL0     C 2861  -1.452  11.252   7.352 -0.1680  1.1078 -0.4901
   22MOL0     C 2862  -1.546  11.313   7.277 -0.8458 -0.3544  1.0610
   22MOL0     C 2863  -1.597  11.242   7.159  0.6510 -0.5570 -0.4325
   22MOL0     C 2864  -1.568  11.456   7.306 -0.6129  0.1193  0.2218
   22MOL0     C 2865  -1.659  11.537   7.237 -0.0485 -0.7623 -0.2327
   22MOL0     O 2866  -1.744  11.480   7.146  0.2660 -0.6356 -0.1751
   22MOL0     C 2867  -1.815  11.558   7.063  0.1438  0.4072  0.6448
   22MOL0     C 2868  -1.750  11.655   6.972 -0.3375  0.1925 -0.5144
   22MOL0     C 2869  -1.830  11.736   6.894  0.8014  0.5359 -0.0729
   22MOL0     C 2870  -1.968  11.730   6.897 -0.0430  1.1802 -0.0908
   22MOL0     O 2871  -2.049  11.834   6.844 -0.0420 -0.0519  0.2576
   22MOL0     C 2872  -1.989  11.943   6.771  0.3276  0.3891  0.2305
   22MOL0     C 2873  -2.099  12.051   6.744  0.6911  1.2379  0.1813
   22MOL0     C 2874  -2.209  11.998   6.654  0.6962  0.0930  0.3099
   22MOL0     C 2875  -2.344  12.091   6.658 -0.4679  0.2490 -0.2926
   22MOL0     C 2876  -2.414  12.092   6.527 -0.2190 -0.1700  1.3848
   22MOL0     C 2877  -2.540  12.181   6.532  0.3552 -0.0016 -0.4761
   22MOL0     C 2878  -2.657  12.101   6.583  0.0730  0.6403  0.3615
   22MOL0     C 2879  -2.781  12.188   6.584  0.0211 -0.0567  0.7951
   22MOL0    Cl 2880  -2.832  12.224   6.413  0.5327  0.1327  0.0148
   22MOL0     C 2881  -2.028  11.630   6.975 -1.3194  0.1240 -0.0253
   22MOL0     C 2882  -1.953  11.551   7.065 -0.3558 -0.1070 -0.0184
   22MOL0     O 2883  -1.649  11.659   7.251  0.1817 -0.2690 -0.2699
   22MOL0     C 2884  -1.494  11.520   7.410 -0.1361 -0.3607 -0.1088
   22MOL0     C 2885  -1.402  11.438   7.484 -0.1178 -0.5847  0.4644
   22MOL0     N 2886  -1.068  11.059   8.017 -0.0326 -0.0135 -1.1742
   22MOL0     N 2887  -0.960  11.093   8.080 -0.4425  0.0545 -0.3347
   22MOL0     C 2888   0.262  10.924   8.072  0.1343  0.0215 -0.0425
   22MOL0     C 2889   0.353  10.824   8.109  0.1111  0.5353 -0.1979
   22MOL0     C 2890   0.577  10.586   8.462 -1.6459  0.6943  0.0608
   22MOL0     C 2891   0.670  10.608   8.564 -1.2935 -0.4545  0.4081
   22MOL0     C 2892   0.758  10.508   8.607 -0.0494 -0.9356  0.5074
   22MOL0     C 2893   0.748  10.378   8.560  1.0949 -1.0208 -0.7369
   22MOL0     O 2894   0.841  10.284   8.610  0.6481 -0.2349  0.1534
   22MOL0     C 2895   0.831  10.141   8.577 -0.6941 -0.8474 -0.7748
   22MOL0     C 2896   0.908  10.069   8.686 -0.6908 -0.7662 -0.5565
   22MOL0     C 2897   0.896  10.125   8.830  0.8954 -1.0879 -0.3389
   22MOL0     C 2898   0.751  10.135   8.880  0.0078  0.4368  0.0916
   22MOL0     C 2899   0.705  10.000   8.912  0.2913 -1.0146  0.9196
   22MOL0     C 2900   0.667   9.888   8.936 -0.7522  0.2859 -1.1949
   22MOL0     C 2901   0.647  10.351   8.476  0.0161  0.0298 -0.3746
   22MOL0     C 2902   0.563  10.447   8.419 -0.0575  0.8100 -0.0395
   22MOL0     H 2903   0.243  10.785   8.433  0.0845  1.0927  0.3906
   22MOL0     H 2904   0.080  10.944   8.362  0.5142 -2.5256  2.0878
   22MOL0     H 2905  -0.062  11.024   7.955 -1.4257 -0.5860  0.3583
   22MOL0     H 2906  -0.017  10.891   8.055 -2.8834 -0.8161 -2.8771
   22MOL0     H 2907  -0.252  10.966   8.068 -1.0358  0.2326 -0.6437
   22MOL0     H 2908  -0.172  10.962   8.230 -0.8579 -1.2155 -0.2344
   22MOL0     H 2909  -0.132  11.213   8.198 -0.8116  1.5383  0.0770
   22MOL0     H 2910  -0.260  11.217   8.069 -1.8669  0.9747  1.0344
   22MOL0     H 2911  -0.294  11.123   8.356  0.3559  1.8237  0.1677
   22MOL0     H 2912  -0.342  11.283   8.303 -1.4126 -0.5500  0.6577
   22MOL0     H 2913  -0.451  11.020   8.190  0.0367  1.3543 -2.4117
   22MOL0     H 2914  -0.538  11.118   8.313 -1.6640  3.2839 -0.7770
   22MOL0     H 2915  -0.514  11.301   8.131  1.1891  0.5618 -2.9390
   22MOL0     H 2916  -0.483  11.167   8.012 -2.9879  1.8421 -2.0197
   22MOL0     H 2917  -0.729  11.203   8.189  1.8202  0.1842  0.6171
   22MOL0     H 2918  -0.704  11.245   8.013 -3.0291 -2.6036 -2.0507
   22MOL0     H 2919  -0.688  10.951   8.115 -1.6942 -2.2388 -2.3774
   22MOL0     H 2920  -0.658  11.009   7.954 -0.8305 -2.3025  0.6569
   22MOL0     H 2921  -0.851  10.927   7.817  0.4065  2.5813  0.4883
   22MOL0     H 2922  -1.078  10.820   7.758 -1.8311 -0.0590 -1.5533
   22MOL0     H 2923  -1.158  10.802   7.898 -4.5272  1.3356 -0.0679
   22MOL0     H 2924  -1.297  11.011   7.854 -2.4413 -0.8251  0.0066
   22MOL0     H 2925  -1.320  10.908   7.728  2.5347 -2.6388  1.0458
   22MOL0     H 2926  -1.173  11.008   7.584 -1.3467 -3.5469  2.4804
   22MOL0     H 2927  -1.117  11.131   7.708 -1.6435  0.2397  2.2095
   22MOL0     H 2928  -1.347  11.209   7.726  2.3361 -0.8012  1.3011
   22MOL0     H 2929  -1.403  11.100   7.594  0.6142 -0.5348 -2.3812
   22MOL0     H 2930  -1.430  11.147   7.336  0.5623  1.0412  0.8794
   22MOL0     H 2931  -1.588  11.297   7.065 -1.1552  0.8872  0.1543
   22MOL0     H 2932  -1.555  11.143   7.141 -2.9402 -2.5374  0.8764
   22MOL0     H 2933  -1.705  11.225   7.159  0.1032  1.6885 -4.4264
   22MOL0     H 2934  -1.646  11.671   6.944 -0.8964 -0.0344 -2.8801
   22MOL0     H 2935  -1.774  11.811   6.838  0.5313  0.0838 -0.9627
   22MOL0     H 2936  -1.919  11.999   6.833  0.3071  1.5259 -0.7423
   22MOL0     H 2937  -1.935  11.913   6.681  0.4955  0.0773  0.4338
   22MOL0     H 2938  -2.154  12.073   6.836 -3.8081 -1.8155 -1.4180
   22MOL0     H 2939  -2.060  12.146   6.704  1.9799 -0.3562 -2.6348
   22MOL0     H 2940  -2.229  11.892   6.673  5.1002 -0.9455  0.3317
   22MOL0     H 2941  -2.160  11.987   6.557  2.0833  2.9240  0.5797
   22MOL0     H 2942  -2.414  12.056   6.734 -0.5254  0.5014 -0.2285
   22MOL0     H 2943  -2.316  12.192   6.688  0.0642 -0.1411  0.5536
   22MOL0     H 2944  -2.432  11.990   6.491  2.3071  0.1444 -1.2093
   22MOL0     H 2945  -2.336  12.130   6.459  1.0922  1.1912  3.5376
   22MOL0     H 2946  -2.513  12.267   6.594 -2.6424  0.0187  0.9815
   22MOL0     H 2947  -2.559  12.226   6.434 -3.8077  0.9344  0.5511
   22MOL0     H 2948  -2.651  12.080   6.690  0.2519  2.9285  0.8573
   22MOL0     H 2949  -2.664  12.006   6.529 -0.6602  0.8892  0.0100
   22MOL0     H 2950  -2.757  12.285   6.627 -0.2510  1.9178 -3.0551
   22MOL0     H 2951  -2.867  12.148   6.639  0.4018  0.1444  1.5441
   22MOL0     H 2952  -2.136  11.638   6.983 -1.4766 -1.2550 -0.3864
   22MOL0     H 2953  -2.005  11.480   7.129 -2.9687  2.3007  0.7410
   22MOL0     H 2954  -1.522  11.617   7.450 -0.7307 -0.9161  0.8613
   22MOL0     H 2955  -1.360  11.485   7.572 -2.1501  0.9611  0.6585
   22MOL0     H 2956   0.269  10.970   7.974 -1.2120 -1.0558 -0.6884
   22MOL0     H 2957   0.431  10.787   8.044 -0.5912 -0.2423 -0.6286
   22MOL0     H 2958   0.684  10.711   8.595 -3.1117  0.2873 -1.0687
   22MOL0     H 2959   0.837  10.527   8.680  0.1349  0.0240  0.0645
   22MOL0     H 2960   0.725  10.115   8.576 -1.0567  0.5390 -0.7720
   22MOL0     H 2961   0.875  10.121   8.479 -2.1359 -2.9711 -1.0514
   22MOL0     H 2962   1.012  10.096   8.664 -1.4571  3.5689  0.2143
   22MOL0     H 2963   0.886   9.963   8.698  0.5405 -1.0846 -0.9529
   22MOL0     H 2964   0.944  10.221   8.811 -0.0600 -1.0886 -3.3211
   22MOL0     H 2965   0.948  10.061   8.902 -0.7231 -0.7479  1.1952
   22MOL0     H 2966   0.684  10.188   8.811 -1.5029  1.4949  2.2621
   22MOL0     H 2967   0.748  10.189   8.975 -1.5280 -4.0304  2.9043
   22MOL0     H 2968   0.643   9.790   8.972  1.5218  0.2220  0.3318
   22MOL0     H 2969   0.622  10.253   8.439 -2.1040  0.0205  0.9460
   22MOL0     H 2970   0.489  10.415   8.347  0.5183 -0.8658  0.0843
   23MOL0     O 2971   4.005   9.314   9.361  0.0063 -0.7885  0.0228
   23MOL0     C 2972   3.923   9.317   9.453  0.7308 -0.9678  0.3968
   23MOL0     O 2973   3.866   9.427   9.503 -0.1869 -0.6728 -0.5518
   23MOL0     C 2974   3.953   9.527   9.538  0.0365  1.1093 -0.3619
   23MOL0     C 2975   3.972   9.629   9.447 -0.1379 -0.0399 -0.3388
   23MOL0     C 2976   4.057   9.747   9.478  0.0915  0.3680 -0.3343
   23MOL0     C 2977   4.114   9.753   9.611 -0.8303  0.1923  0.1266
   23MOL0     O 2978   4.185   9.861   9.631  0.0637  0.0912 -0.3337
   23MOL0     C 2979   4.093   9.974   9.648  0.6031  0.5807  0.1825
   23MOL0     C 2980   4.168  10.080   9.737 -0.2585  1.0620 -0.1750
   23MOL0     C 2981   4.135  10.020   9.875 -0.7301 -0.1078 -0.0967
   23MOL0     C 2982   4.199  10.093  10.001  0.5642 -0.5204  1.1291
   23MOL0     C 2983   4.190  10.016  10.131  0.3479 -0.3694 -0.7655
   23MOL0     C 2984   4.052  10.003  10.185 -0.2171 -0.1580  0.7956
   23MOL0     C 2985   4.051   9.997  10.336 -0.1942  1.2152  0.1058
   23MOL0     C 2986   4.121  10.117  10.409  0.4316 -0.2145  0.9339
   23MOL0     N 2987   4.054  10.141  10.536 -0.2238 -0.9950 -0.3119
   23MOL0     C 2988   3.935  10.213  10.543  0.3801  0.2230 -0.1347
   23MOL0     C 2989   3.900  10.217  10.675  0.3968 -0.7798  0.4847
   23MOL0     C 2990   3.776  10.259  10.732 -0.7715  0.4668 -0.0640
   23MOL0     C 2991   3.770  10.231  10.891 -0.7579  0.2300 -0.0077
   23MOL0     C 2992   3.865  10.323  10.962 -0.2540 -0.4486  0.0664
   23MOL0     C 2993   3.844  10.476  10.966 -0.0155 -0.3164 -0.9128
   23MOL0     O 2994   3.717  10.524  11.026 -0.7136 -0.0415  0.6988
   23MOL0     C 2995   3.724  10.567  11.156  0.2915 -0.2483  0.7195
   23MOL0     C 2996   3.703  10.701  11.183 -0.3370  0.2128  0.9098
   23MOL0     C 2997   3.693  10.750  11.313 -0.1724 -0.2629  0.2731
   23MOL0     C 2998   3.682  10.896  11.335 -0.1111 -0.8248  1.2864
   23MOL0     C 2999   3.714  10.662  11.427 -0.2460 -0.9470 -0.1463
   23MOL0     C 3000   3.715  10.705  11.568  0.1503  0.4021  0.6803
   23MOL0     O 3001   3.668  10.609  11.663 -0.6632  0.0635  0.1507
   23MOL0     C 3002   3.649  10.640  11.791  0.1149  0.6262 -0.9527
   23MOL0     C 3003   3.557  10.730  11.847  0.3745 -0.3048  0.5134
   23MOL0     C 3004   3.525  10.743  11.980 -0.1634  0.7541 -0.6259
   23MOL0     C 3005   3.596  10.666  12.076  0.4590  0.5494  0.2369
   23MOL0     O 3006   3.589  10.658  12.217  0.2430  0.3750  0.4222
   23MOL0     C 3007   3.527  10.766  12.286 -0.8285 -0.1155 -0.2777
   23MOL0     C 3008   3.549  10.738  12.440 -0.0124  0.0836  1.8052
   23MOL0     C 3009   3.543  10.859  12.524  0.3757 -0.3625 -0.2318
   23MOL0     C 3010   3.636  10.846  12.637  0.1953  0.2706  0.0652
   23MOL0     C 3011   3.594  10.927  12.760 -0.3819  0.1945 -0.0930
   23MOL0     C 3012   3.623  11.078  12.746  0.4711  1.3250 -0.2975
   23MOL0     C 3013   3.563  11.147  12.873 -0.0669  0.7508  0.7562
   23MOL0     C 3014   3.654  11.116  12.986  0.8472 -0.2508 -0.3319
   23MOL0    Cl 3015   3.656  11.256  13.111  0.1129  0.6011 -0.4150
   23MOL0     C 3016   3.694  10.579  12.028 -0.3919 -0.1556 -0.4143
   23MOL0     C 3017   3.713  10.561  11.888 -0.4822  0.2346 -0.1151
   23MOL0     O 3018   3.758  10.812  11.605  0.4133  0.1040 -0.2623
   23MOL0     C 3019   3.739  10.527  11.394  0.1937 -0.2661  0.2736
   23MOL0     C 3020   3.747  10.482  11.261 -0.7678  0.6722 -0.5639
   23MOL0     N 3021   3.996  10.141  10.739 -0.3311 -1.0225  0.1015
   23MOL0     N 3022   4.088  10.101  10.656  0.2348  0.6551 -0.0109
   23MOL0     C 3023   4.102   9.643   9.695  0.0900 -0.0300 -0.0675
   23MOL0     C 3024   4.013   9.539   9.661 -0.4185  0.1529  0.1970
   23MOL0     C 3025   3.873   9.187   9.512  0.5438 -0.3235  0.9360
   23MOL0     C 3026   3.803   9.178   9.633  0.7909 -0.5782  0.5845
   23MOL0     C 3027   3.747   9.062   9.676  0.9417  0.4937 -0.0763
   23MOL0     C 3028   3.731   8.952   9.601 -0.1631 -1.1301  0.4962
   23MOL0     O 3029   3.652   8.852   9.641  0.3584  0.5193 -0.2802
   23MOL0     C 3030   3.637   8.734   9.563  0.6657  0.1781 -1.1475
   23MOL0     C 3031   3.537   8.640   9.626 -2.2513 -0.2608  1.1415
   23MOL0     C 3032   3.439   8.573   9.523 -0.7032 -0.0058 -0.8365
   23MOL0     C 3033   3.356   8.677   9.450  0.0487  0.9864 -0.5910
   23MOL0     C 3034   3.304   8.608   9.343  0.4471 -0.1210  1.2417
   23MOL0     C 3035   3.241   8.541   9.258  0.1312 -0.0605  0.9278
   23MOL0     C 3036   3.794   8.955   9.472  0.6703  0.6786 -0.6123
   23MOL0     C 3037   3.867   9.067   9.437  0.1717 -0.7110  0.8808
   23MOL0     H 3038   3.926   9.609   9.350 -1.9996 -2.6644  0.9743
   23MOL0     H 3039   4.059   9.825   9.403  0.1473 -2.2621 -3.2600
   23MOL0     H 3040   4.059  10.020   9.555  0.6562  2.1236  0.8835
   23MOL0     H 3041   3.996   9.936   9.681  0.1098  0.8974 -0.8616
   23MOL0     H 3042   4.277  10.069   9.732 -0.1702  2.2558 -1.3776
   23MOL0     H 3043   4.123  10.179   9.735 -2.7950  0.1176  2.6928
   23MOL0     H 3044   4.026  10.024   9.886 -0.6902  0.0351  0.2653
   23MOL0     H 3045   4.171   9.917   9.880 -1.9579 -0.4996  2.7897
   23MOL0     H 3046   4.302  10.122   9.981  0.4502 -0.0419  1.2297
   23MOL0     H 3047   4.154  10.192  10.007 -0.9733 -1.2507  2.4967
   23MOL0     H 3048   4.243   9.920  10.125 -0.1009 -0.6237 -0.7055
   23MOL0     H 3049   4.261  10.071  10.193 -0.1643 -1.2965  0.6718
   23MOL0     H 3050   3.994  10.094  10.164  2.7152  1.2127 -2.2338
   23MOL0     H 3051   4.000   9.921  10.134 -0.3432  2.4731 -3.9170
   23MOL0     H 3052   3.947   9.988  10.369  0.0714  0.3067  0.7385
   23MOL0     H 3053   4.104   9.904  10.358 -0.7138  0.0504 -3.0373
   23MOL0     H 3054   4.106  10.201  10.340 -1.1951  2.4963  4.2636
   23MOL0     H 3055   4.227  10.095  10.424  0.3942  0.8038  2.9600
   23MOL0     H 3056   3.878  10.238  10.454  0.6226 -1.1644 -0.7045
   23MOL0     H 3057   3.763  10.366  10.715 -1.2950  0.5425  0.7499
   23MOL0     H 3058   3.699  10.196  10.688  1.4824 -1.6301 -1.2362
   23MOL0     H 3059   3.794  10.127  10.912 -1.1522  0.0323 -0.5116
   23MOL0     H 3060   3.671  10.248  10.934 -0.4501 -0.9233  1.2232
   23MOL0     H 3061   3.964  10.309  10.918 -0.4183  1.2661 -0.9570
   23MOL0     H 3062   3.864  10.291  11.066  1.7890  1.8365  0.8699
   23MOL0     H 3063   3.861  10.520  10.868 -0.8084  2.2785  0.0396
   23MOL0     H 3064   3.918  10.524  11.030 -3.5003 -0.6304  3.9773
   23MOL0     H 3065   3.672  10.754  11.094  2.2625  0.7479  0.2386
   23MOL0     H 3066   3.665  10.940  11.237 -3.7444  0.0258  2.1430
   23MOL0     H 3067   3.604  10.927  11.406  0.8347  1.5418  1.3965
   23MOL0     H 3068   3.776  10.931  11.380  0.2850  0.9784 -0.8115
   23MOL0     H 3069   3.512  10.786  11.766 -0.2050  1.1844  1.8185
   23MOL0     H 3070   3.457  10.819  12.017  1.5813  0.9356  2.6397
   23MOL0     H 3071   3.577  10.860  12.261  1.9175 -0.1726  3.8794
   23MOL0     H 3072   3.420  10.782  12.274 -0.7736  1.6967  1.1280
   23MOL0     H 3073   3.469  10.671  12.473 -2.7051  2.4961  0.6238
   23MOL0     H 3074   3.652  10.702  12.441  0.2162 -0.3523 -3.9643
   23MOL0     H 3075   3.447  10.850  12.576  0.0666  1.1705 -0.5056
   23MOL0     H 3076   3.556  10.954  12.472 -1.5712  0.3413  0.4743
   23MOL0     H 3077   3.638  10.741  12.668 -1.8700 -0.0561 -0.7551
   23MOL0     H 3078   3.734  10.880  12.603  0.6542 -1.5487 -0.5169
   23MOL0     H 3079   3.648  10.886  12.845  0.0489 -0.8255 -0.8380
   23MOL0     H 3080   3.488  10.902  12.768 -0.0011 -0.7627  3.0604
   23MOL0     H 3081   3.731  11.098  12.745  1.1316 -1.4903  1.9909
   23MOL0     H 3082   3.580  11.102  12.648 -0.6568 -3.0886 -1.0734
   23MOL0     H 3083   3.469  11.095  12.896 -0.4260  1.2166  0.3700
   23MOL0     H 3084   3.545  11.253  12.853  0.2070  0.6225 -0.2256
   23MOL0     H 3085   3.759  11.099  12.961  0.3742 -1.8305 -1.3830
   23MOL0     H 3086   3.625  11.025  13.039 -2.0888 -0.0043 -1.3183
   23MOL0     H 3087   3.755  10.526  12.100  0.2621 -0.9586 -1.5284
   23MOL0     H 3088   3.782  10.483  11.856  1.1098 -0.1546  3.7225
   23MOL0     H 3089   3.745  10.447  11.468  0.5315 -1.0237 -0.5477
   23MOL0     H 3090   3.763  10.376  11.245 -0.4875  0.5784  0.2600
   23MOL0     H 3091   4.157   9.632   9.789  0.0227 -1.3840 -0.1662
   23MOL0     H 3092   4.012   9.456   9.730 -1.4341  1.1441  1.4286
   23MOL0     H 3093   3.806   9.260   9.704  2.7439 -1.5538  1.6953
   23MOL0     H 3094   3.702   9.047   9.774  0.6512  1.4075 -0.0635
   23MOL0     H 3095   3.593   8.765   9.469  1.0289  2.1352 -0.7203
   23MOL0     H 3096   3.731   8.678   9.553 -0.3710 -2.7374  2.6922
   23MOL0     H 3097   3.478   8.692   9.702 -0.3801 -0.8604  3.1082
   23MOL0     H 3098   3.582   8.559   9.684  1.5357  0.3493 -0.6624
   23MOL0     H 3099   3.377   8.508   9.586 -2.0091  1.1705 -0.8631
   23MOL0     H 3100   3.499   8.510   9.457 -1.5834 -1.1396 -0.5855
   23MOL0     H 3101   3.417   8.761   9.415  0.9194  0.2009 -1.0124
   23MOL0     H 3102   3.280   8.723   9.513  1.4278  1.4541  0.7801
   23MOL0     H 3103   3.196   8.486   9.178 -0.0479  0.5567  0.5980
   23MOL0     H 3104   3.795   8.868   9.407  0.0534  0.4804 -0.3691
   23MOL0     H 3105   3.916   9.069   9.340 -2.0328  0.9172 -0.2691
   24MOL0     O 3106   0.737   9.903   1.039  0.3567  0.1621 -0.0937
   24MOL0     C 3107   0.622   9.892   1.094  0.4360  0.1882 -0.4057
   24MOL0     O 3108   0.580   9.944   1.219  0.0866 -0.9743 -0.3037
   24MOL0     C 3109   0.676  10.021   1.287 -0.7457 -0.1322 -0.3121
   24MOL0     C 3110   0.730   9.972   1.408 -0.4361  0.5595 -0.5332
   24MOL0     C 3111   0.839  10.041   1.475 -0.3278 -0.1338 -0.2997
   24MOL0     C 3112   0.887  10.167   1.421 -0.4446  0.7323  0.8462
   24MOL0     O 3113   0.973  10.248   1.481 -0.6983 -0.8737  0.9108
   24MOL0     C 3114   1.027  10.210   1.608  0.0696 -0.6388  0.2400
   24MOL0     C 3115   1.115  10.331   1.640 -0.2170 -0.2981 -0.5243
   24MOL0     C 3116   1.235  10.285   1.718  0.5817  0.3735  0.6624
   24MOL0     C 3117   1.211  10.195   1.843  0.3603 -0.1244 -0.4079
   24MOL0     C 3118   1.325  10.179   1.939 -0.2992  0.3588 -0.2897
   24MOL0     C 3119   1.362  10.297   2.017  0.3362 -0.7372  0.9738
   24MOL0     C 3120   1.516  10.320   2.005  0.9235 -0.2303  0.5313
   24MOL0     C 3121   1.573  10.448   2.070 -0.2364  0.3906  0.4552
   24MOL0     N 3122   1.656  10.414   2.187 -0.8604  0.3540 -0.3143
   24MOL0     C 3123   1.624  10.327   2.295 -0.4893 -0.9405 -0.3003
   24MOL0     C 3124   1.734  10.287   2.356 -0.4843  0.5212  0.9201
   24MOL0     C 3125   1.735  10.209   2.480 -0.0459 -0.9770  0.2817
   24MOL0     C 3126   1.690  10.289   2.608  0.8889 -0.6793 -0.6095
   24MOL0     C 3127   1.801  10.376   2.639  0.2736 -0.2014 -0.8353
   24MOL0     C 3128   1.804  10.422   2.788  0.0398 -0.1230 -0.1768
   24MOL0     O 3129   1.880  10.541   2.809  1.3362  0.5840  0.2606
   24MOL0     C 3130   1.900  10.597   2.935 -0.0380 -0.5951 -1.1435
   24MOL0     C 3131   1.900  10.532   3.058 -0.7818 -0.5636 -1.2958
   24MOL0     C 3132   1.909  10.597   3.186 -0.7719  0.6989  0.2152
   24MOL0     C 3133   1.872  10.510   3.310  0.4521  0.2081  0.9261
   24MOL0     C 3134   1.927  10.743   3.186 -0.9275 -0.1376  0.2437
   24MOL0     C 3135   1.942  10.828   3.311  0.7479 -0.5632  0.6376
   24MOL0     O 3136   2.001  10.955   3.299  0.6191  0.0833 -0.1988
   24MOL0     C 3137   2.028  11.032   3.411 -0.1338 -0.2199 -0.3070
   24MOL0     C 3138   2.105  10.989   3.519 -1.0293  0.3370  0.0827
   24MOL0     C 3139   2.139  11.067   3.626 -0.1096  0.2483  0.2012
   24MOL0     C 3140   2.076  11.192   3.640 -0.0656  0.0156 -0.5066
   24MOL0     O 3141   2.081  11.284   3.739 -0.0712 -0.9921  0.5328
   24MOL0     C 3142   2.186  11.280   3.844 -0.0078 -0.3895 -0.0069
   24MOL0     C 3143   2.235  11.416   3.899 -0.2062  0.9592  0.2665
   24MOL0     C 3144   2.351  11.384   3.985 -0.0822  0.2800 -0.4865
   24MOL0     C 3145   2.401  11.510   4.057  0.6240  0.0510  0.3256
   24MOL0     C 3146   2.536  11.495   4.127  0.0500 -0.2780 -0.4543
   24MOL0     C 3147   2.618  11.628   4.142  1.1971 -0.7707 -0.4251
   24MOL0     C 3148   2.537  11.737   4.219 -0.5372  0.2650 -0.5481
   24MOL0     C 3149   2.497  11.851   4.129  0.1774  0.4725 -0.0748
   24MOL0    Cl 3150   2.355  11.930   4.222 -0.3471  0.3464  0.3609
   24MOL0     C 3151   1.995  11.236   3.535 -0.0469  0.3868  0.3643
   24MOL0     C 3152   1.978  11.158   3.417  0.0919  0.4510 -0.1796
   24MOL0     O 3153   1.899  10.785   3.417 -1.0530 -0.3048  0.3495
   24MOL0     C 3154   1.942  10.801   3.058 -0.8006 -0.7071  0.6668
   24MOL0     C 3155   1.928  10.732   2.935 -0.5340 -0.3020 -0.1008
   24MOL0     N 3156   1.843  10.340   2.290  0.1564  0.0086  0.6246
   24MOL0     N 3157   1.797  10.405   2.191 -0.0746  0.0656  0.2152
   24MOL0     C 3158   0.835  10.206   1.294 -0.6049  0.0870 -0.9416
   24MOL0     C 3159   0.734  10.134   1.238  0.1982  0.1465 -0.3324
   24MOL0     C 3160   0.525   9.808   1.020 -0.3868  0.8304  0.2098
   24MOL0     C 3161   0.408   9.766   1.082  0.2193 -1.3594  0.3182
   24MOL0     C 3162   0.303   9.697   1.009 -0.1172  0.3626  0.2827
   24MOL0     C 3163   0.319   9.663   0.873  0.1278  0.0604 -0.1877
   24MOL0     O 3164   0.224   9.611   0.789 -0.7399  0.5713 -0.6488
   24MOL0     C 3165   0.100   9.561   0.832 -1.1949  0.1894 -0.1102
   24MOL0     C 3166   0.118   9.404   0.833 -0.2711 -0.4042 -0.5250
   24MOL0     C 3167   0.003   9.330   0.912 -0.3221 -0.6958  0.6728
   24MOL0     C 3168  -0.131   9.348   0.834  1.0623 -0.3944  0.2570
   24MOL0     C 3169  -0.212   9.467   0.885 -0.8957  0.0331  0.1118
   24MOL0     C 3170  -0.277   9.556   0.912  0.6919  0.2853  0.2723
   24MOL0     C 3171   0.433   9.712   0.812 -0.9018 -0.5252 -0.6036
   24MOL0     C 3172   0.536   9.772   0.883  0.5431 -1.2124  0.5132
   24MOL0     H 3173   0.697   9.887   1.466 -2.3652  3.6448  3.4489
   24MOL0     H 3174   0.872   9.995   1.568  1.7759 -1.9759 -1.8650
   24MOL0     H 3175   0.954  10.190   1.687  0.3688 -0.4947  0.5546
   24MOL0     H 3176   1.080  10.116   1.589 -1.7059 -1.2967 -1.9399
   24MOL0     H 3177   1.152  10.383   1.551  0.6630 -0.5849 -0.3354
   24MOL0     H 3178   1.064  10.407   1.700  2.4983 -0.5769  2.4300
   24MOL0     H 3179   1.309  10.231   1.659  1.6258  1.4086  0.9842
   24MOL0     H 3180   1.279  10.378   1.755  0.8695  1.7219 -2.7159
   24MOL0     H 3181   1.127  10.233   1.902  0.5328 -2.5257  1.5207
   24MOL0     H 3182   1.190  10.093   1.812  0.1048 -0.5443  1.0803
   24MOL0     H 3183   1.302  10.090   1.998  0.9773  0.3517  0.2215
   24MOL0     H 3184   1.406  10.146   1.873 -1.8198 -2.2501 -0.9782
   24MOL0     H 3185   1.316  10.390   1.983  0.7827 -1.0622 -0.6361
   24MOL0     H 3186   1.328  10.300   2.121 -1.4562  0.3976  0.3917
   24MOL0     H 3187   1.566  10.231   2.044 -0.0538 -0.1796  1.9710
   24MOL0     H 3188   1.539  10.330   1.898  0.7053 -1.4919  0.3567
   24MOL0     H 3189   1.488  10.510   2.102 -2.4290 -2.3831  0.3730
   24MOL0     H 3190   1.630  10.492   1.988 -3.2316 -1.5857 -2.9918
   24MOL0     H 3191   1.521  10.307   2.323 -0.9050  0.3944 -0.8040
   24MOL0     H 3192   1.649  10.140   2.473 -3.2132  2.0785  4.1333
   24MOL0     H 3193   1.833  10.161   2.484 -0.4108 -1.8367 -0.6503
   24MOL0     H 3194   1.676  10.231   2.699 -1.5666 -0.2141 -0.6248
   24MOL0     H 3195   1.594  10.336   2.584  1.5768  0.1125 -1.9395
   24MOL0     H 3196   1.793  10.463   2.573 -1.0506  1.9420  1.9454
   24MOL0     H 3197   1.894  10.319   2.629 -0.5148 -2.4522  2.8242
   24MOL0     H 3198   1.826  10.342   2.860  2.6345  0.5119 -0.1473
   24MOL0     H 3199   1.706  10.465   2.811 -0.0999 -1.3813  1.8078
   24MOL0     H 3200   1.884  10.425   3.062  1.3723 -0.9516 -1.8517
   24MOL0     H 3201   1.888  10.402   3.298 -3.9853 -0.4615 -0.6987
   24MOL0     H 3202   1.931  10.543   3.396 -1.1504  2.8323  1.1029
   24MOL0     H 3203   1.768  10.525   3.341  0.3124  1.9908 -0.2743
   24MOL0     H 3204   2.142  10.887   3.512  1.1289  1.0966 -0.2553
   24MOL0     H 3205   2.198  11.024   3.707  0.3355 -1.6616 -1.0761
   24MOL0     H 3206   2.148  11.218   3.925 -2.1526 -1.0016 -1.3843
   24MOL0     H 3207   2.274  11.228   3.807  2.1217  2.4248  0.7178
   24MOL0     H 3208   2.265  11.477   3.813  3.7126 -3.1295 -1.6982
   24MOL0     H 3209   2.156  11.459   3.961 -0.9855  4.3816 -2.7673
   24MOL0     H 3210   2.430  11.340   3.924 -1.3397 -0.9657 -1.2841
   24MOL0     H 3211   2.322  11.308   4.058  1.4509  1.6629  1.6770
   24MOL0     H 3212   2.410  11.600   3.995  2.7742  0.4874  1.1788
   24MOL0     H 3213   2.334  11.537   4.139 -0.1998  1.0868 -0.6558
   24MOL0     H 3214   2.578  11.416   4.064 -1.6469 -0.4756 -1.3795
   24MOL0     H 3215   2.532  11.443   4.223 -0.8929  0.2613 -0.1955
   24MOL0     H 3216   2.712  11.618   4.198 -0.5773 -2.7884  2.4961
   24MOL0     H 3217   2.638  11.672   4.044 -3.7406 -1.0398 -1.8294
   24MOL0     H 3218   2.584  11.774   4.311 -3.0633  1.5626  0.3063
   24MOL0     H 3219   2.440  11.697   4.251 -0.7605  0.9384 -0.3738
   24MOL0     H 3220   2.460  11.814   4.033 -0.7162  0.4500  0.2671
   24MOL0     H 3221   2.582  11.915   4.107 -1.0141  2.0013 -0.4265
   24MOL0     H 3222   1.961  11.339   3.547  2.1636  1.1607  0.4573
   24MOL0     H 3223   1.917  11.194   3.335 -0.3380 -1.4995 -0.7428
   24MOL0     H 3224   1.955  10.909   3.058 -1.5671 -0.5498 -1.9336
   24MOL0     H 3225   1.921  10.777   2.836 -0.1443 -2.7735 -1.3213
   24MOL0     H 3226   0.851  10.311   1.270 -0.1037  0.7379  1.8938
   24MOL0     H 3227   0.707  10.183   1.144 -0.9138 -1.0049 -0.6421
   24MOL0     H 3228   0.398   9.796   1.186  0.5227 -0.3913  0.0779
   24MOL0     H 3229   0.212   9.687   1.067  0.2678  2.1661  1.2817
   24MOL0     H 3230   0.070   9.593   0.932 -0.5711  0.2724  0.0538
   24MOL0     H 3231   0.028   9.589   0.755  0.6292  0.1516 -1.9134
   24MOL0     H 3232   0.213   9.378   0.881 -0.3241 -0.9039 -0.6750
   24MOL0     H 3233   0.129   9.382   0.726  0.9259  2.1485 -0.9941
   24MOL0     H 3234  -0.005   9.373   1.012 -1.7960  0.7365 -0.0084
   24MOL0     H 3235   0.026   9.227   0.884 -1.9682 -0.5280 -1.5786
   24MOL0     H 3236  -0.188   9.255   0.850 -0.1634  0.1097 -1.0052
   24MOL0     H 3237  -0.117   9.344   0.726 -0.5451 -1.9274  0.0451
   24MOL0     H 3238  -0.346   9.637   0.930 -1.0780 -1.1578  0.2712
   24MOL0     H 3239   0.446   9.690   0.707 -0.0116  1.1617 -0.8849
   24MOL0     H 3240   0.612   9.813   0.819 -2.0546  4.3962  0.4604
   25MOL0     O 3241   4.408   8.092   6.247 -0.8314 -0.1897 -0.4995
   25MOL0     C 3242   4.521   8.050   6.268  0.3158  0.0081 -0.4765
   25MOL0     O 3243   4.549   7.921   6.281  0.0297 -0.7617  0.4584
   25MOL0     C 3244   4.442   7.837   6.253  0.4658  0.1132 -0.3131
   25MOL0     C 3245   4.375   7.777   6.356 -0.0501 -0.1397 -0.3153
   25MOL0     C 3246   4.273   7.681   6.331  0.0763  0.1408  0.7849
   25MOL0     C 3247   4.234   7.657   6.197 -1.8125 -0.0267  0.3872
   25MOL0     O 3248   4.129   7.574   6.176  0.1242  0.1106 -0.2947
   25MOL0     C 3249   4.145   7.434   6.192 -0.4131 -0.4358 -0.3737
   25MOL0     C 3250   4.061   7.385   6.310  0.6270 -0.7376  0.7139
   25MOL0     C 3251   4.070   7.239   6.341  0.1417  0.5131  0.6824
   25MOL0     C 3252   4.019   7.221   6.490 -0.1732  0.3761 -0.0784
   25MOL0     C 3253   4.122   7.241   6.608 -0.5456 -0.3868  0.2735
   25MOL0     C 3254   4.041   7.255   6.736 -0.5693 -0.6692 -1.0345
   25MOL0     C 3255   4.111   7.257   6.872  0.0482 -0.3910  0.1516
   25MOL0     C 3256   4.151   7.117   6.923 -0.2391  0.1062  0.4943
   25MOL0     N 3257   4.254   7.054   6.840 -0.9938  0.3613  0.2258
   25MOL0     C 3258   4.388   7.082   6.848  0.1019  0.2691 -0.4803
   25MOL0     C 3259   4.455   6.998   6.766  0.2242 -0.2190 -0.2305
   25MOL0     C 3260   4.600   6.996   6.751  0.2469 -0.5436 -0.1980
   25MOL0     C 3261   4.660   6.862   6.726 -0.5260  0.5677  0.8864
   25MOL0     C 3262   4.814   6.893   6.687 -0.6187  0.9995 -0.3647
   25MOL0     C 3263   4.908   6.788   6.624  1.4424  0.0639  0.6118
   25MOL0     O 3264   4.983   6.845   6.519 -0.4169  0.7526 -0.4200
   25MOL0     C 3265   5.090   6.774   6.463 -0.4238 -0.4254 -0.7226
   25MOL0     C 3266   5.204   6.842   6.419  0.6057 -0.1138 -0.0164
   25MOL0     C 3267   5.313   6.765   6.377  0.0734 -0.4040  0.6077
   25MOL0     C 3268   5.428   6.855   6.330 -0.6288 -0.0662  0.1535
   25MOL0     C 3269   5.304   6.619   6.371  0.1201 -0.4753 -0.1145
   25MOL0     C 3270   5.408   6.534   6.310  0.3644 -0.4096 -0.7034
   25MOL0     O 3271   5.363   6.431   6.227 -0.9414 -0.4024 -0.1469
   25MOL0     C 3272   5.445   6.336   6.170  0.2210 -0.5095 -0.0296
   25MOL0     C 3273   5.584   6.349   6.139 -0.1854  0.5141 -0.6461
   25MOL0     C 3274   5.666   6.241   6.085  0.6754 -0.9761 -0.3822
   25MOL0     C 3275   5.612   6.121   6.052 -0.7741 -0.1626  0.2967
   25MOL0     O 3276   5.673   6.016   5.980 -0.0141 -0.1411  0.5540
   25MOL0     C 3277   5.777   6.044   5.885 -0.4468 -0.8347  0.1077
   25MOL0     C 3278   5.834   5.908   5.842 -0.5631 -0.2714  0.6567
   25MOL0     C 3279   5.887   5.897   5.690 -0.1901  0.2757  0.1167
   25MOL0     C 3280   5.896   5.759   5.654  0.2630 -0.1567  0.1115
   25MOL0     C 3281   5.921   5.750   5.506  0.2040 -0.6440  0.4839
   25MOL0     C 3282   5.916   5.620   5.435  0.6515  0.6948 -0.1235
   25MOL0     C 3283   6.030   5.522   5.468 -0.1097  0.3081  0.3812
   25MOL0     C 3284   6.007   5.372   5.461  1.3686 -0.1913 -0.4842
   25MOL0    Cl 3285   6.145   5.281   5.530  0.0962 -0.3856  0.0284
   25MOL0     C 3286   5.478   6.105   6.074 -0.4619 -1.0636  0.3899
   25MOL0     C 3287   5.398   6.209   6.137  0.3344  0.2052  0.2124
   25MOL0     O 3288   5.526   6.565   6.340  0.5088 -0.0257  0.3902
   25MOL0     C 3289   5.188   6.561   6.400 -0.7188 -0.1198  0.0034
   25MOL0     C 3290   5.083   6.631   6.453 -0.2003  0.3730  0.5463
   25MOL0     N 3291   4.348   6.935   6.693 -0.5698  0.2377  1.0715
   25MOL0     N 3292   4.238   6.977   6.725  0.1116 -0.0310  0.4314
   25MOL0     C 3293   4.291   7.725   6.096 -0.3390 -0.5142 -0.3666
   25MOL0     C 3294   4.401   7.809   6.120  0.3300 -0.6996  0.3434
   25MOL0     C 3295   4.625   8.152   6.298 -0.2982  1.1299 -0.5321
   25MOL0     C 3296   4.594   8.283   6.303 -1.3027 -0.7109 -0.8087
   25MOL0     C 3297   4.700   8.372   6.303 -0.2713  0.1051 -0.6900
   25MOL0     C 3298   4.840   8.338   6.300  0.2588  0.0822 -0.5704
   25MOL0     O 3299   4.932   8.444   6.284 -0.4669 -0.3127 -0.3209
   25MOL0     C 3300   5.077   8.413   6.269 -0.3766  1.0919  0.1499
   25MOL0     C 3301   5.109   8.386   6.130  0.0765  0.7459  0.2808
   25MOL0     C 3302   5.263   8.396   6.107  0.0835  0.5513 -0.1430
   25MOL0     C 3303   5.304   8.247   6.076 -0.0270  1.0140 -0.3214
   25MOL0     C 3304   5.267   8.202   5.946  0.0239  0.0471 -0.9629
   25MOL0     C 3305   5.218   8.177   5.836  0.5397 -1.2499 -0.0945
   25MOL0     C 3306   4.862   8.198   6.286 -0.4635  0.4258  0.1958
   25MOL0     C 3307   4.761   8.108   6.307  0.2239  0.5303  0.3599
   25MOL0     H 3308   4.405   7.802   6.457 -2.4556 -0.9608  0.6571
   25MOL0     H 3309   4.210   7.642   6.410 -1.1466 -3.2382 -1.5980
   25MOL0     H 3310   4.118   7.384   6.099  0.1519 -2.1939  0.3578
   25MOL0     H 3311   4.251   7.415   6.211  0.4444  1.7429 -2.4904
   25MOL0     H 3312   4.083   7.447   6.398 -2.1709  2.0477 -0.3677
   25MOL0     H 3313   3.957   7.408   6.288  0.7549  0.6745  1.3967
   25MOL0     H 3314   4.012   7.179   6.271 -0.0817 -0.6361  1.8297
   25MOL0     H 3315   4.174   7.204   6.340 -0.7143 -2.2612 -0.8016
   25MOL0     H 3316   3.940   7.296   6.492 -2.0390 -1.3260 -2.6467
   25MOL0     H 3317   3.973   7.122   6.493 -1.6079  1.0380  0.7711
   25MOL0     H 3318   4.193   7.159   6.601 -0.3123 -0.2836  1.2520
   25MOL0     H 3319   4.181   7.333   6.597  0.5270 -1.0471  0.4387
   25MOL0     H 3320   3.993   7.351   6.720 -2.2452 -1.0252  1.3578
   25MOL0     H 3321   3.966   7.176   6.750 -1.6113  0.2151 -1.5188
   25MOL0     H 3322   4.198   7.322   6.866 -0.5371  0.2694 -2.0119
   25MOL0     H 3323   4.030   7.290   6.938  2.2621  0.5786  2.5378
   25MOL0     H 3324   4.062   7.055   6.912 -1.6360  2.4805 -3.9051
   25MOL0     H 3325   4.179   7.126   7.028  3.0653 -1.7997 -0.0903
   25MOL0     H 3326   4.440   7.144   6.921  0.5215 -0.5423 -0.0707
   25MOL0     H 3327   4.622   7.067   6.670  2.9723  1.7663  2.3542
   25MOL0     H 3328   4.652   7.029   6.841  0.4134  0.7796 -0.7453
   25MOL0     H 3329   4.612   6.814   6.640 -0.7479  1.1909  0.6539
   25MOL0     H 3330   4.646   6.799   6.814  0.1009 -2.7453 -1.2139
   25MOL0     H 3331   4.856   6.919   6.785  0.3175 -3.6051  0.7189
   25MOL0     H 3332   4.809   6.981   6.623 -2.2543 -1.1805 -3.5171
   25MOL0     H 3333   4.855   6.696   6.595  1.5753 -0.3732  1.7205
   25MOL0     H 3334   4.974   6.754   6.705 -1.4130 -1.2339  2.5876
   25MOL0     H 3335   5.204   6.950   6.428 -3.0269 -0.0763  1.0804
   25MOL0     H 3336   5.391   6.945   6.281  2.3487  1.9546  1.3053
   25MOL0     H 3337   5.491   6.892   6.411  0.8734  0.9635 -1.4090
   25MOL0     H 3338   5.500   6.803   6.266 -1.8297 -3.3694  1.2478
   25MOL0     H 3339   5.621   6.450   6.154  0.9175  0.1280 -0.6572
   25MOL0     H 3340   5.773   6.261   6.083 -0.0068  4.4431  1.3432
   25MOL0     H 3341   5.737   6.102   5.802 -0.8735  2.5477  2.4839
   25MOL0     H 3342   5.858   6.099   5.934 -0.0948 -1.5357  0.3261
   25MOL0     H 3343   5.915   5.878   5.910  1.5586 -0.0167 -1.6220
   25MOL0     H 3344   5.750   5.838   5.850 -2.0485  0.7564 -3.3650
   25MOL0     H 3345   5.986   5.941   5.670  0.4519 -2.6771 -4.5445
   25MOL0     H 3346   5.814   5.952   5.631 -1.8095  0.7179  2.3891
   25MOL0     H 3347   5.979   5.709   5.705  1.0026  0.4128 -0.5135
   25MOL0     H 3348   5.803   5.707   5.678  0.7224 -0.9828  0.1263
   25MOL0     H 3349   6.022   5.788   5.496  0.1787  1.5068  5.4431
   25MOL0     H 3350   5.851   5.822   5.461  1.3664  0.8787  1.0391
   25MOL0     H 3351   5.816   5.585   5.460  0.4609 -2.3489 -4.1583
   25MOL0     H 3352   5.906   5.627   5.326  0.2495 -0.5104 -0.1687
   25MOL0     H 3353   6.059   5.545   5.570 -1.4000 -1.7387  1.2932
   25MOL0     H 3354   6.111   5.533   5.396  0.3554 -4.4640 -0.1939
   25MOL0     H 3355   5.967   5.357   5.360 -0.2520  0.1584  0.0736
   25MOL0     H 3356   5.915   5.346   5.516 -0.3671 -1.0457 -3.5463
   25MOL0     H 3357   5.435   6.013   6.037 -1.8170  0.4217 -1.9466
   25MOL0     H 3358   5.291   6.191   6.133  0.0553  1.8306 -2.9956
   25MOL0     H 3359   5.167   6.457   6.376  0.2702 -1.0901  2.8446
   25MOL0     H 3360   5.002   6.562   6.472  0.7552 -0.4214  1.9659
   25MOL0     H 3361   4.254   7.701   5.998 -1.7747 -0.5349  0.1609
   25MOL0     H 3362   4.461   7.855   6.042 -0.0766 -1.4638 -0.4459
   25MOL0     H 3363   4.490   8.312   6.290 -1.5148 -1.3937 -0.6449
   25MOL0     H 3364   4.671   8.476   6.306 -0.0046  0.2794 -2.8127
   25MOL0     H 3365   5.145   8.493   6.301  0.6747  0.5572 -0.6872
   25MOL0     H 3366   5.105   8.326   6.329  0.2332 -0.5540 -2.3492
   25MOL0     H 3367   5.065   8.468   6.072  0.6010  1.1856  0.5008
   25MOL0     H 3368   5.064   8.292   6.097  1.3839 -0.4594  1.7842
   25MOL0     H 3369   5.319   8.431   6.194 -1.9859  1.2925  0.9713
   25MOL0     H 3370   5.282   8.466   6.025  0.4940  1.9866  1.1241
   25MOL0     H 3371   5.271   8.179   6.155  1.5009  0.5502 -0.0647
   25MOL0     H 3372   5.413   8.252   6.074 -0.0378  4.6080  1.5072
   25MOL0     H 3373   5.173   8.173   5.739  0.4653 -1.6470 -0.0449
   25MOL0     H 3374   4.961   8.156   6.272 -0.2566  1.4030 -1.6490
   25MOL0     H 3375   4.794   8.006   6.323 -0.5754  0.7299  4.1128
   26MOL0     O 3376   0.685  11.416   9.540 -0.0726  0.4716  0.5909
   26MOL0     C 3377   0.755  11.388   9.637 -0.4041 -0.0569  0.6624
   26MOL0     O 3378   0.849  11.288   9.638  0.4743 -0.6639 -0.3559
   26MOL0     C 3379   0.875  11.216   9.529  0.3380  0.9415  0.3450
   26MOL0     C 3380   0.804  11.109   9.487  0.3098  0.0297  0.6023
   26MOL0     C 3381   0.835  11.044   9.362 -0.0528 -0.4908 -0.0780
   26MOL0     C 3382   0.943  11.093   9.284  0.1428 -0.4555  0.0222
   26MOL0     O 3383   0.986  11.035   9.173 -0.0551  0.1524 -0.3018
   26MOL0     C 3384   1.008  10.889   9.183 -0.2982  0.1223  0.1034
   26MOL0     C 3385   1.081  10.863   9.050 -0.4892 -0.4661 -0.0633
   26MOL0     C 3386   1.057  10.721   8.986  0.2595 -0.3014  0.2041
   26MOL0     C 3387   1.139  10.696   8.863  0.0522  0.2583  0.6911
   26MOL0     C 3388   1.160  10.550   8.825  0.3615 -0.7866  0.4291
   26MOL0     C 3389   1.263  10.469   8.916 -0.9170 -0.5426  0.7087
   26MOL0     C 3390   1.252  10.319   8.878  0.4360  0.1342 -0.3082
   26MOL0     C 3391   1.322  10.228   8.986  1.2153 -0.4081  0.0423
   26MOL0     N 3392   1.271  10.092   8.966 -0.3180  0.0875 -0.5664
   26MOL0     C 3393   1.295  10.011   8.859 -0.3400  0.7610  0.1749
   26MOL0     C 3394   1.253   9.884   8.899  0.6145 -0.4477 -0.9654
   26MOL0     C 3395   1.258   9.752   8.824  0.8379  0.1368  0.2355
   26MOL0     C 3396   1.340   9.767   8.698 -0.3273 -0.0961  0.6304
   26MOL0     C 3397   1.347   9.642   8.611 -0.7082  0.8484 -0.4166
   26MOL0     C 3398   1.214   9.562   8.572 -0.1864 -0.9576 -0.2498
   26MOL0     O 3399   1.121   9.650   8.504 -0.5148  0.4760 -0.5311
   26MOL0     C 3400   0.993   9.630   8.534  0.0665  0.7221 -0.1433
   26MOL0     C 3401   0.943   9.492   8.556 -0.0400 -0.5679  0.4063
   26MOL0     C 3402   0.811   9.478   8.590  0.8596  0.0284  0.2840
   26MOL0     C 3403   0.770   9.327   8.604  0.6255 -0.5878  0.1337
   26MOL0     C 3404   0.719   9.584   8.604  0.5618  0.0860  0.4041
   26MOL0     C 3405   0.582   9.570   8.648  1.0174  0.7129  0.6423
   26MOL0     O 3406   0.518   9.685   8.682 -0.3334 -0.0059 -0.0914
   26MOL0     C 3407   0.403   9.667   8.752  0.7380 -0.0437  0.3524
   26MOL0     C 3408   0.283   9.689   8.683 -1.4797 -0.7228 -0.0206
   26MOL0     C 3409   0.166   9.702   8.756 -0.1798 -1.0122 -0.5889
   26MOL0     C 3410   0.154   9.694   8.895 -0.2183 -0.5816  0.7574
   26MOL0     O 3411   0.042   9.720   8.963 -0.0736  0.3243  0.8352
   26MOL0     C 3412  -0.046   9.604   8.988  0.0493  0.2585 -0.1948
   26MOL0     C 3413  -0.107   9.546   8.863  0.8545  0.1688  0.2929
   26MOL0     C 3414  -0.220   9.438   8.894  0.3011  0.3353 -0.0324
   26MOL0     C 3415  -0.174   9.318   8.985  0.7688  0.4961 -0.0470
   26MOL0     C 3416  -0.285   9.223   9.004  1.3629  0.9988  0.3084
   26MOL0     C 3417  -0.294   9.124   8.886 -0.9306  1.4777  0.3685
   26MOL0     C 3418  -0.381   8.987   8.920 -0.4669  0.0326 -0.6185
   26MOL0     C 3419  -0.290   8.860   8.920 -0.1133  0.5496  0.5186
   26MOL0    Cl 3420  -0.383   8.723   8.951 -0.2855 -0.1096 -0.1570
   26MOL0     C 3421   0.270   9.662   8.954 -0.0857 -0.6162 -0.2756
   26MOL0     C 3422   0.396   9.650   8.891  0.1407 -0.9448 -0.5248
   26MOL0     O 3423   0.528   9.460   8.629  0.3304 -0.2155  0.1590
   26MOL0     C 3424   0.769   9.716   8.573 -0.7426  0.0066 -0.6816
   26MOL0     C 3425   0.901   9.741   8.555 -0.6664  0.0054 -0.0299
   26MOL0     N 3426   1.174   9.898   9.016 -0.7372  0.4514 -0.0252
   26MOL0     N 3427   1.196  10.016   9.056  0.7492  0.5263 -0.6634
   26MOL0     C 3428   1.011  11.211   9.331 -0.1035  0.5381 -0.0597
   26MOL0     C 3429   0.984  11.260   9.455  0.3793 -1.0695 -0.6443
   26MOL0     C 3430   0.747  11.470   9.765 -0.0958 -1.0673 -0.3737
   26MOL0     C 3431   0.837  11.465   9.874 -0.0745  0.0850  0.0102
   26MOL0     C 3432   0.819  11.527   9.991  0.0953 -0.5792 -0.3213
   26MOL0     C 3433   0.723  11.636   9.984  0.1297 -0.3545  0.0674
   26MOL0     O 3434   0.716  11.719  10.101 -0.5951 -0.5397 -0.1524
   26MOL0     C 3435   0.702  11.862  10.067  0.0376  1.2936 -0.8143
   26MOL0     C 3436   0.650  11.934  10.197 -0.7309  0.0875 -0.5253
   26MOL0     C 3437   0.623  12.087  10.177  0.2298 -0.3009  0.7611
   26MOL0     C 3438   0.752  12.172  10.195 -0.3160  0.7638 -0.4760
   26MOL0     C 3439   0.738  12.297  10.129 -0.0565  0.4589  0.0250
   26MOL0     C 3440   0.726  12.395  10.057 -0.5074 -0.0644 -0.3036
   26MOL0     C 3441   0.624  11.646   9.888  0.8652  0.5397 -0.1885
   26MOL0     C 3442   0.638  11.549   9.782  0.2686 -0.3368  0.4910
   26MOL0     H 3443   0.724  11.077   9.553  0.8584 -2.1626  0.2932
   26MOL0     H 3444   0.786  10.952   9.333  1.3842 -2.1267  2.2774
   26MOL0     H 3445   1.064  10.866   9.274 -0.1167  4.0829  1.1694
   26MOL0     H 3446   0.915  10.833   9.194 -1.4003  2.4015  5.1438
   26MOL0     H 3447   1.042  10.943   8.986 -3.0863 -1.7721 -0.2678
   26MOL0     H 3448   1.188  10.876   9.066 -0.8514  1.7533  0.9787
   26MOL0     H 3449   1.092  10.650   9.061  3.5058  1.6870  0.7793
   26MOL0     H 3450   0.948  10.712   8.975 -0.2521  0.0073  3.7587
   26MOL0     H 3451   1.106  10.745   8.771  2.3532 -3.6283 -2.5495
   26MOL0     H 3452   1.240  10.735   8.879 -0.4566  1.4488  1.0902
   26MOL0     H 3453   1.068  10.493   8.808 -0.7138  1.4739 -2.1344
   26MOL0     H 3454   1.203  10.556   8.724 -3.8010 -0.5396 -1.5632
   26MOL0     H 3455   1.364  10.503   8.893 -1.1026  1.1195  2.1148
   26MOL0     H 3456   1.247  10.475   9.024  0.2979 -1.7675  0.9842
   26MOL0     H 3457   1.146  10.294   8.869 -0.1373  0.2107  3.9798
   26MOL0     H 3458   1.302  10.300   8.783  2.7996 -0.7983  1.0224
   26MOL0     H 3459   1.296  10.255   9.089 -2.2148 -1.0685 -0.5105
   26MOL0     H 3460   1.429  10.244   8.970  1.5144  2.3674  3.6120
   26MOL0     H 3461   1.362  10.038   8.778 -1.3993  3.1253  0.0233
   26MOL0     H 3462   1.302   9.680   8.894  1.0604 -1.4476 -1.4636
   26MOL0     H 3463   1.155   9.724   8.801  1.1024  0.0421 -0.9142
   26MOL0     H 3464   1.442   9.788   8.732 -0.4931  0.6063  0.7090
   26MOL0     H 3465   1.313   9.846   8.628  0.2333 -0.8286 -0.4319
   26MOL0     H 3466   1.411   9.569   8.662 -1.8991 -0.9392 -1.3561
   26MOL0     H 3467   1.395   9.669   8.517 -4.4993  2.7000 -2.0547
   26MOL0     H 3468   1.176   9.523   8.667  0.8193  2.6674  1.8241
   26MOL0     H 3469   1.241   9.477   8.509  2.0331 -0.8951  0.5282
   26MOL0     H 3470   1.014   9.410   8.555 -0.4877 -1.0844  2.8576
   26MOL0     H 3471   0.737   9.307   8.707  4.0108 -1.4744  1.1983
   26MOL0     H 3472   0.694   9.304   8.530  0.2183  1.8866 -0.2992
   26MOL0     H 3473   0.859   9.264   8.604  1.2986  0.3323 -0.2776
   26MOL0     H 3474   0.286   9.704   8.575 -1.6340 -2.7550 -0.3475
   26MOL0     H 3475   0.074   9.722   8.703 -1.3124 -0.0914  1.5879
   26MOL0     H 3476   0.015   9.530   9.039 -1.8332 -2.3448 -1.4832
   26MOL0     H 3477  -0.127   9.635   9.055  0.5070  1.9447 -0.3665
   26MOL0     H 3478  -0.146   9.625   8.798 -1.7365 -1.6293 -0.4843
   26MOL0     H 3479  -0.031   9.497   8.801 -0.7096  2.6328 -4.0767
   26MOL0     H 3480  -0.256   9.406   8.796  0.2928  2.7270 -0.8628
   26MOL0     H 3481  -0.307   9.476   8.949 -1.5003 -3.3025 -0.0413
   26MOL0     H 3482  -0.085   9.263   8.953  1.2119  3.0306 -3.8572
   26MOL0     H 3483  -0.144   9.359   9.082  2.2254  0.1822 -0.3380
   26MOL0     H 3484  -0.380   9.270   9.032  0.2538 -2.2381  2.6001
   26MOL0     H 3485  -0.257   9.159   9.088 -1.4930  1.1169  1.4566
   26MOL0     H 3486  -0.317   9.173   8.792 -3.3171  1.2890  0.7933
   26MOL0     H 3487  -0.190   9.097   8.864 -1.0101  2.7621 -1.7912
   26MOL0     H 3488  -0.454   8.994   8.838  2.0699 -0.0803 -3.0558
   26MOL0     H 3489  -0.432   9.000   9.016  0.2280  1.4119 -0.4042
   26MOL0     H 3490  -0.207   8.870   8.991 -0.8168  0.6331  1.3405
   26MOL0     H 3491  -0.247   8.851   8.820  1.1993  5.4637  0.4059
   26MOL0     H 3492   0.268   9.645   9.061  0.0541  0.7413 -0.0412
   26MOL0     H 3493   0.481   9.626   8.955  1.1656 -0.3791 -1.6409
   26MOL0     H 3494   0.702   9.801   8.565  0.0073  0.6289 -0.4596
   26MOL0     H 3495   0.934   9.841   8.531  0.8026 -0.2401  0.8464
   26MOL0     H 3496   1.077  11.254   9.256  1.4159 -0.6122  0.5411
   26MOL0     H 3497   1.036  11.350   9.484 -0.2764 -0.8329 -0.1682
   26MOL0     H 3498   0.920  11.396   9.881 -0.9083 -0.8045  1.9784
   26MOL0     H 3499   0.891  11.530  10.072 -2.0375 -0.4776  1.6498
   26MOL0     H 3500   0.799  11.906  10.045  2.3749 -2.3857  1.1549
   26MOL0     H 3501   0.631  11.863   9.983 -1.3210 -0.4811  0.2262
   26MOL0     H 3502   0.729  11.915  10.269  1.6659  1.0422 -2.7386
   26MOL0     H 3503   0.563  11.885  10.241 -0.9543  0.5123 -0.4843
   26MOL0     H 3504   0.554  12.137  10.246  3.5350  0.9733  3.4482
   26MOL0     H 3505   0.580  12.115  10.080  1.2668  0.0682  0.3879
   26MOL0     H 3506   0.839  12.122  10.152  0.3322  0.5270  1.0824
   26MOL0     H 3507   0.774  12.186  10.301  1.0229 -2.1029 -0.2718
   26MOL0     H 3508   0.718  12.473   9.983  1.3909  0.0654 -0.4377
   26MOL0     H 3509   0.535  11.709   9.891 -2.8149 -4.0674 -1.3511
   26MOL0     H 3510   0.568  11.551   9.699 -0.4851 -0.3057  1.1126
   27MOL0     O 3511   8.876   9.698   2.473 -0.0035  0.0932  0.0025
   27MOL0     C 3512   8.964   9.628   2.419 -0.3728  1.3064 -0.6675
   27MOL0     O 3513   9.048   9.672   2.324  0.0420  0.0789  0.0421
   27MOL0     C 3514   9.025   9.801   2.286 -0.3441 -0.3207  0.6604
   27MOL0     C 3515   8.929   9.836   2.196 -0.4343  0.3434  1.0164
   27MOL0     C 3516   8.877   9.960   2.195 -0.4845 -1.1556 -0.6911
   27MOL0     C 3517   8.940  10.068   2.272  0.1433  0.4797 -0.7215
   27MOL0     O 3518   8.893  10.193   2.260 -0.6801 -0.7150  0.1716
   27MOL0     C 3519   8.906  10.296   2.357 -0.5669 -0.2092  0.4666
   27MOL0     C 3520   8.822  10.293   2.487  0.3174 -0.7342 -0.5253
   27MOL0     C 3521   8.679  10.221   2.490  0.1239  0.1856 -0.2596
   27MOL0     C 3522   8.598  10.244   2.358  0.3487 -1.0273 -0.6704
   27MOL0     C 3523   8.449  10.216   2.374 -0.0695  0.1156 -0.0499
   27MOL0     C 3524   8.369  10.275   2.259 -0.1841  0.4935  0.4578
   27MOL0     C 3525   8.223  10.246   2.283  0.2045 -0.3783  0.6812
   27MOL0     C 3526   8.163  10.355   2.379 -0.7166  0.4774 -1.0540
   27MOL0     N 3527   8.028  10.386   2.337 -0.4249  0.2978 -0.1593
   27MOL0     C 3528   8.002  10.493   2.265  0.2364 -0.2241  1.4997
   27MOL0     C 3529   7.868  10.499   2.246 -0.7286 -0.5034  0.0913
   27MOL0     C 3530   7.759  10.584   2.188  0.2626 -0.2559 -0.1738
   27MOL0     C 3531   7.811  10.721   2.152  0.4607  1.0734 -0.6446
   27MOL0     C 3532   7.826  10.796   2.288 -0.0164 -0.4532 -0.5964
   27MOL0     C 3533   7.880  10.934   2.266  1.0495 -0.4171  0.7818
   27MOL0     O 3534   7.918  11.011   2.380 -0.2396 -0.3365 -0.0073
   27MOL0     C 3535   7.825  11.070   2.463 -0.2397  0.0403  0.5649
   27MOL0     C 3536   7.690  11.055   2.444  0.9963  0.9348  1.0179
   27MOL0     C 3537   7.592  11.078   2.541  0.6965  0.9830 -0.0300
   27MOL0     C 3538   7.451  11.037   2.512  0.3682 -0.0015  0.2598
   27MOL0     C 3539   7.623  11.133   2.664 -0.4870  0.2796  1.6054
   27MOL0     C 3540   7.531  11.168   2.775  0.2568  0.2942  0.1760
   27MOL0     O 3541   7.589  11.191   2.899 -0.6663 -0.9729 -0.0871
   27MOL0     C 3542   7.534  11.274   2.997 -0.5928 -0.1692  0.0353
   27MOL0     C 3543   7.592  11.282   3.122  1.1707  0.7285  1.3906
   27MOL0     C 3544   7.555  11.379   3.220  0.1559  0.0434 -0.6680
   27MOL0     C 3545   7.460  11.475   3.190 -0.3044  0.0212 -0.1145
   27MOL0     O 3546   7.446  11.561   3.292  0.5031 -0.6728 -0.1842
   27MOL0     C 3547   7.374  11.678   3.251 -0.8862  0.2610  0.0638
   27MOL0     C 3548   7.352  11.789   3.356  0.7746  0.4781  0.1080
   27MOL0     C 3549   7.203  11.819   3.386 -1.1122 -0.7315  0.7954
   27MOL0     C 3550   7.192  11.922   3.491 -0.6956 -0.0288 -0.2187
   27MOL0     C 3551   7.041  11.933   3.536 -0.9730  0.9387 -0.5291
   27MOL0     C 3552   7.008  12.020   3.668 -0.0942 -0.5446  0.5196
   27MOL0     C 3553   6.861  12.014   3.707  0.6542 -1.1372 -0.1140
   27MOL0     C 3554   6.779  12.062   3.598 -0.1413 -1.1125  0.2964
   27MOL0    Cl 3555   6.612  12.023   3.632  0.1196 -0.1596 -0.2194
   27MOL0     C 3556   7.399  11.466   3.065  0.6704  0.8570  0.2725
   27MOL0     C 3557   7.441  11.367   2.971 -0.3246 -0.4152  0.0482
   27MOL0     O 3558   7.408  11.177   2.753 -0.8147 -0.2804  0.2812
   27MOL0     C 3559   7.759  11.163   2.680  0.4066 -0.3219  0.2212
   27MOL0     C 3560   7.858  11.124   2.588  0.7121 -1.3653  0.2325
   27MOL0     N 3561   7.825  10.383   2.304 -0.0070  0.3541  0.0079
   27MOL0     N 3562   7.916  10.319   2.363  0.7282  0.5375  0.0062
   27MOL0     C 3563   9.056  10.034   2.344  0.3002  0.7460 -0.2216
   27MOL0     C 3564   9.098   9.900   2.353 -0.0189  0.5666 -0.0415
   27MOL0     C 3565   8.977   9.483   2.463  1.2225  0.6058  0.3164
   27MOL0     C 3566   9.083   9.401   2.417  0.2466 -0.0303  0.1363
   27MOL0     C 3567   9.115   9.286   2.482 -0.2640  1.2975 -0.7081
   27MOL0     C 3568   9.026   9.223   2.574 -0.4996  0.2223  0.0785
   27MOL0     O 3569   9.044   9.098   2.628  0.4716  0.1767  0.0867
   27MOL0     C 3570   9.147   9.017   2.572  0.8189  0.7126 -0.4821
   27MOL0     C 3571   9.096   8.878   2.534 -1.3113 -1.0240  0.0038
   27MOL0     C 3572   9.120   8.774   2.639  0.1701 -1.2714  0.3922
   27MOL0     C 3573   9.265   8.752   2.675  0.1747 -0.4913  0.3283
   27MOL0     C 3574   9.295   8.633   2.748  0.9184 -0.9546 -0.9921
   27MOL0     C 3575   9.329   8.534   2.805  0.0622 -0.3019 -0.3001
   27MOL0     C 3576   8.913   9.302   2.610 -0.2707  0.1321  0.0833
   27MOL0     C 3577   8.894   9.427   2.556  0.0604  0.3150  0.2038
   27MOL0     H 3578   8.866   9.770   2.138 -0.0004  1.6050 -0.9991
   27MOL0     H 3579   8.799   9.989   2.125 -0.1817 -1.1602 -1.0345
   27MOL0     H 3580   9.010  10.303   2.390 -0.2355 -4.1151  0.7885
   27MOL0     H 3581   8.874  10.386   2.304 -1.2899 -1.6109 -1.6086
   27MOL0     H 3582   8.889  10.247   2.560  0.3756 -1.0738 -0.7867
   27MOL0     H 3583   8.798  10.398   2.506  1.3618 -0.5947  0.1077
   27MOL0     H 3584   8.668  10.124   2.540 -0.7386  2.2765  4.0683
   27MOL0     H 3585   8.619  10.277   2.562 -2.8922 -4.0950  0.9826
   27MOL0     H 3586   8.612  10.350   2.334  0.4205 -0.8698  0.0639
   27MOL0     H 3587   8.643  10.184   2.278 -1.4962  1.5949 -3.9620
   27MOL0     H 3588   8.420  10.115   2.401  0.3269  0.3481  1.3152
   27MOL0     H 3589   8.424  10.276   2.462 -0.3065 -1.0451  0.6876
   27MOL0     H 3590   8.394  10.380   2.246  0.2402  0.2426 -1.0325
   27MOL0     H 3591   8.387  10.219   2.166  3.3198 -2.8165  2.8015
   27MOL0     H 3592   8.174  10.254   2.186  0.4805 -0.1578  0.5593
   27MOL0     H 3593   8.220  10.145   2.325 -0.4292 -0.0798  1.3693
   27MOL0     H 3594   8.227  10.443   2.384 -1.5558  1.1191 -1.4022
   27MOL0     H 3595   8.157  10.300   2.473 -0.6665 -0.6355 -1.6715
   27MOL0     H 3596   8.074  10.570   2.239  0.8917 -0.6607  2.0094
   27MOL0     H 3597   7.716  10.527   2.105 -1.7068 -3.4186  2.7678
   27MOL0     H 3598   7.675  10.595   2.256  0.0513  3.2553 -0.7950
   27MOL0     H 3599   7.735  10.772   2.093 -1.6722 -0.9415  0.2325
   27MOL0     H 3600   7.902  10.715   2.091 -0.1361  1.2851 -1.5699
   27MOL0     H 3601   7.893  10.743   2.357  0.9741  1.3223 -0.1253
   27MOL0     H 3602   7.731  10.804   2.340  0.7419  1.8272  0.5655
   27MOL0     H 3603   7.822  11.000   2.200  0.9923 -1.1735  0.0521
   27MOL0     H 3604   7.955  10.913   2.189 -1.0645 -2.3731 -0.8924
   27MOL0     H 3605   7.652  11.017   2.350 -0.7180 -0.2033  2.1100
   27MOL0     H 3606   7.377  11.114   2.536 -0.6933 -0.3343 -1.7151
   27MOL0     H 3607   7.437  11.034   2.403  1.7315  6.3162 -0.4823
   27MOL0     H 3608   7.424  10.946   2.566  0.2019 -0.0429  0.1068
   27MOL0     H 3609   7.663  11.200   3.135 -1.6146 -1.4687  4.7709
   27MOL0     H 3610   7.598  11.381   3.320 -0.8376  2.2975 -0.2171
   27MOL0     H 3611   7.433  11.721   3.170  1.3845 -0.6309  1.1676
   27MOL0     H 3612   7.277  11.635   3.225 -0.2404 -1.4823  0.4565
   27MOL0     H 3613   7.397  11.749   3.447  0.2780 -1.6963 -0.5526
   27MOL0     H 3614   7.390  11.886   3.324  0.6031 -0.2805 -2.6797
   27MOL0     H 3615   7.169  11.720   3.418  3.9440 -2.3193  2.2377
   27MOL0     H 3616   7.141  11.839   3.298 -0.9375 -1.7839  0.4100
   27MOL0     H 3617   7.253  11.892   3.577 -1.2207 -0.0076  0.1690
   27MOL0     H 3618   7.230  12.019   3.459 -1.6237 -0.0288 -1.3805
   27MOL0     H 3619   7.009  11.830   3.549  1.5717 -0.0451 -1.4258
   27MOL0     H 3620   6.986  11.971   3.449 -1.4857  1.7297  0.1195
   27MOL0     H 3621   7.073  11.977   3.745 -0.0022 -0.7267  0.3414
   27MOL0     H 3622   7.037  12.122   3.644  1.0402 -1.1630 -0.8692
   27MOL0     H 3623   6.846  12.078   3.795  3.6272 -1.2183  0.5575
   27MOL0     H 3624   6.828  11.912   3.726 -0.1664 -0.8131  0.2676
   27MOL0     H 3625   6.813  12.032   3.498  2.2570  2.9553 -0.3664
   27MOL0     H 3626   6.791  12.171   3.588 -0.3740 -1.0262  0.9341
   27MOL0     H 3627   7.319  11.534   3.037  0.2036  1.0540  1.9680
   27MOL0     H 3628   7.398  11.370   2.871 -0.3630 -0.6834  0.0567
   27MOL0     H 3629   7.781  11.222   2.768  0.5691  0.3734 -0.2773
   27MOL0     H 3630   7.963  11.145   2.607 -0.3131  3.1048  2.1079
   27MOL0     H 3631   9.107  10.112   2.401 -1.2954  3.0488 -1.7816
   27MOL0     H 3632   9.192   9.863   2.393  0.8396 -1.2170 -3.3198
   27MOL0     H 3633   9.146   9.439   2.337  0.6831 -1.1336 -0.0622
   27MOL0     H 3634   9.216   9.264   2.446  0.3180  1.3025  0.8424
   27MOL0     H 3635   9.181   9.057   2.475  1.8573 -0.0890 -0.4700
   27MOL0     H 3636   9.238   9.026   2.631  1.3217 -0.1150 -1.1154
   27MOL0     H 3637   9.144   8.844   2.442  3.3476 -1.5010  2.2932
   27MOL0     H 3638   8.989   8.878   2.510 -1.0638  0.1781 -1.1663
   27MOL0     H 3639   9.072   8.682   2.606 -4.4209  1.3238 -1.0292
   27MOL0     H 3640   9.060   8.796   2.727  0.0386 -1.4401  0.3440
   27MOL0     H 3641   9.289   8.845   2.728 -3.4872  0.8460 -0.0440
   27MOL0     H 3642   9.325   8.747   2.584 -0.2307  3.4400 -0.3336
   27MOL0     H 3643   9.371   8.449   2.855  1.2508  0.3863 -0.0938
   27MOL0     H 3644   8.846   9.263   2.687  1.9144  0.5378  2.2839
   27MOL0     H 3645   8.816   9.486   2.604  0.1230  0.1637  0.4895
   28MOL0     O 3646   1.425   1.440   3.531 -0.6209  0.1602  0.0808
   28MOL0     C 3647   1.336   1.354   3.531 -0.9699 -0.2905  0.0646
   28MOL0     O 3648   1.247   1.339   3.628  0.2363  0.4739  1.2322
   28MOL0     C 3649   1.262   1.402   3.742 -0.9269 -0.8677 -1.1769
   28MOL0     C 3650   1.360   1.357   3.840 -0.3093 -0.6367  0.3232
   28MOL0     C 3651   1.373   1.409   3.967  0.1583 -0.1459  0.1606
   28MOL0     C 3652   1.288   1.500   4.012  0.6975 -0.8801 -0.3388
   28MOL0     O 3653   1.304   1.544   4.141 -0.7399  0.2736  0.0276
   28MOL0     C 3654   1.177   1.561   4.211 -0.6921 -0.4119  0.5149
   28MOL0     C 3655   1.184   1.702   4.268  0.0155 -0.2622 -0.9024
   28MOL0     C 3656   1.072   1.733   4.370  0.5195  0.1102 -0.8097
   28MOL0     C 3657   0.930   1.706   4.315  0.1396 -0.1126 -0.1246
   28MOL0     C 3658   0.898   1.810   4.204 -0.3605 -0.5299 -0.2754
   28MOL0     C 3659   0.748   1.818   4.178  0.1613  0.5339 -1.2380
   28MOL0     C 3660   0.712   1.789   4.035 -1.0440  0.5064  0.3740
   28MOL0     C 3661   0.738   1.644   3.993  0.7706 -0.2088  0.4214
   28MOL0     N 3662   0.745   1.628   3.846 -0.5124  0.3843 -0.6494
   28MOL0     C 3663   0.654   1.680   3.758 -0.1111 -0.0654 -0.2927
   28MOL0     C 3664   0.700   1.627   3.637 -0.1237  0.3997  0.3062
   28MOL0     C 3665   0.610   1.632   3.523  0.3594  0.5391  0.7638
   28MOL0     C 3666   0.694   1.661   3.394 -0.3687 -0.3352 -0.5306
   28MOL0     C 3667   0.615   1.667   3.268  0.2141 -0.9638 -1.3023
   28MOL0     C 3668   0.543   1.551   3.208 -0.0257 -0.6305  0.5197
   28MOL0     O 3669   0.450   1.591   3.111  0.2335 -0.6632  0.5998
   28MOL0     C 3670   0.363   1.500   3.051 -0.5018  0.2651 -1.0204
   28MOL0     C 3671   0.251   1.540   2.982  0.6282  0.0340 -0.4767
   28MOL0     C 3672   0.166   1.442   2.923 -0.1969  0.0343 -0.3588
   28MOL0     C 3673   0.058   1.497   2.845  0.7391 -0.0189 -0.6676
   28MOL0     C 3674   0.184   1.305   2.942 -0.5657 -1.2870  0.3074
   28MOL0     C 3675   0.095   1.195   2.890 -0.4885 -0.1814 -0.0051
   28MOL0     O 3676   0.131   1.066   2.917  0.1477 -0.3513  0.5707
   28MOL0     C 3677   0.079   0.977   2.821 -0.2778  0.5771 -0.6001
   28MOL0     C 3678  -0.006   0.869   2.864  0.1435 -0.4747  0.1969
   28MOL0     C 3679  -0.065   0.789   2.757  0.3377  0.5563  0.0479
   28MOL0     C 3680  -0.024   0.808   2.626  0.1171  1.2261  0.5664
   28MOL0     O 3681  -0.073   0.743   2.513 -1.0006 -0.1028  0.4551
   28MOL0     C 3682  -0.172   0.647   2.505 -0.7860 -0.2696  1.2888
   28MOL0     C 3683  -0.159   0.564   2.379  0.0667 -0.0290 -0.3861
   28MOL0     C 3684  -0.012   0.517   2.359  0.2252  0.1239  0.9118
   28MOL0     C 3685  -0.006   0.431   2.227  1.3474 -0.7524 -0.4217
   28MOL0     C 3686   0.115   0.339   2.238  0.0552 -0.6731  0.8586
   28MOL0     C 3687   0.130   0.240   2.124 -0.1727 -0.0408  0.1732
   28MOL0     C 3688   0.005   0.156   2.091 -0.1276  0.4283  0.5425
   28MOL0     C 3689  -0.002   0.041   2.187 -0.7207  0.6671  0.5866
   28MOL0    Cl 3690  -0.106   0.087   2.322  0.2123 -0.7796 -0.1383
   28MOL0     C 3691   0.074   0.902   2.594  0.6334 -0.3940 -0.6854
   28MOL0     C 3692   0.132   0.982   2.695 -0.3593 -0.4667  0.3522
   28MOL0     O 3693  -0.028   1.225   2.860 -0.5841  0.7854 -1.1278
   28MOL0     C 3694   0.302   1.264   3.004 -1.2915  1.2192 -1.1656
   28MOL0     C 3695   0.389   1.363   3.046  0.1988  0.2556 -1.2375
   28MOL0     N 3696   0.808   1.546   3.661  0.0969 -0.7498  0.0754
   28MOL0     N 3697   0.844   1.561   3.783 -0.1347  0.4391  0.0798
   28MOL0     C 3698   1.182   1.549   3.923  0.4106 -0.4122  0.9021
   28MOL0     C 3699   1.163   1.490   3.793 -0.3147  0.1991  0.1293
   28MOL0     C 3700   1.330   1.256   3.416 -0.0778 -0.4425  0.4672
   28MOL0     C 3701   1.257   1.141   3.438  0.6746  0.3314  0.7363
   28MOL0     C 3702   1.260   1.040   3.338  0.1246  1.1156  0.2657
   28MOL0     C 3703   1.335   1.055   3.217  0.5270  0.4719 -0.1079
   28MOL0     O 3704   1.313   0.969   3.107 -0.7591 -0.0311  0.1932
   28MOL0     C 3705   1.211   0.868   3.102 -0.6828 -0.3584  0.0962
   28MOL0     C 3706   1.252   0.737   3.163  0.7481 -0.4469 -0.5712
   28MOL0     C 3707   1.344   0.638   3.095 -0.4692  0.0480  0.5397
   28MOL0     C 3708   1.474   0.696   3.057 -0.2102 -0.6910 -0.3346
   28MOL0     C 3709   1.560   0.597   2.991  0.4754  0.0710 -0.9435
   28MOL0     C 3710   1.621   0.525   2.922  1.2985 -0.3349  0.1213
   28MOL0     C 3711   1.392   1.180   3.190 -0.3447  1.1334  0.2086
   28MOL0     C 3712   1.399   1.278   3.292  0.5667 -0.4889  0.4363
   28MOL0     H 3713   1.421   1.271   3.817  0.8608  0.1889  0.2884
   28MOL0     H 3714   1.454   1.376   4.031 -0.2377 -3.0710 -0.6960
   28MOL0     H 3715   1.087   1.546   4.150 -0.2791 -1.4644  0.1530
   28MOL0     H 3716   1.170   1.477   4.279 -2.0061 -3.8399 -3.4331
   28MOL0     H 3717   1.289   1.710   4.298 -0.7485  1.5739  1.5911
   28MOL0     H 3718   1.168   1.782   4.194 -0.0910  0.4632 -0.1155
   28MOL0     H 3719   1.083   1.664   4.455 -0.3832  1.1625  0.2068
   28MOL0     H 3720   1.071   1.834   4.411 -1.7653  0.4359 -1.5318
   28MOL0     H 3721   0.906   1.606   4.279 -1.7890 -0.2219  1.2903
   28MOL0     H 3722   0.859   1.717   4.397  1.9831 -0.7562  1.6233
   28MOL0     H 3723   0.938   1.907   4.235 -0.3732 -0.1657 -1.3705
   28MOL0     H 3724   0.959   1.781   4.118  2.2488  1.4906  0.7885
   28MOL0     H 3725   0.701   1.745   4.244 -0.6667  4.0269  2.4515
   28MOL0     H 3726   0.713   1.919   4.202  2.9445  0.8808  2.2808
   28MOL0     H 3727   0.603   1.798   4.041 -1.0330  1.4218 -0.4986
   28MOL0     H 3728   0.760   1.863   3.970  3.4141 -1.2718  1.2740
   28MOL0     H 3729   0.652   1.581   4.015 -0.0296 -0.4107 -2.7771
   28MOL0     H 3730   0.834   1.614   4.038  2.1985  4.3550  0.9471
   28MOL0     H 3731   0.565   1.736   3.784 -0.2260 -0.6684  0.6930
   28MOL0     H 3732   0.556   1.538   3.509 -0.9206  1.5955 -2.4064
   28MOL0     H 3733   0.539   1.716   3.525 -1.1777 -0.6832  0.0738
   28MOL0     H 3734   0.776   1.589   3.388  0.7456  0.5452  2.1884
   28MOL0     H 3735   0.748   1.754   3.413 -1.8272 -0.0004  2.7212
   28MOL0     H 3736   0.686   1.692   3.188 -0.1410 -0.2786 -1.4089
   28MOL0     H 3737   0.546   1.750   3.281  1.1582 -0.4216  0.4643
   28MOL0     H 3738   0.498   1.503   3.296  0.7395 -1.1674  0.6220
   28MOL0     H 3739   0.611   1.477   3.165 -1.2636 -1.1837 -0.5359
   28MOL0     H 3740   0.243   1.648   2.978  4.2817  0.8799  4.4713
   28MOL0     H 3741   0.043   1.449   2.748 -0.8779 -2.1147  0.5305
   28MOL0     H 3742  -0.035   1.503   2.903  1.0488  6.6013 -0.1096
   28MOL0     H 3743   0.086   1.597   2.812  2.8138 -0.1650  0.4565
   28MOL0     H 3744  -0.072   0.872   2.950 -0.2567 -0.0051 -0.1174
   28MOL0     H 3745  -0.145   0.722   2.788 -0.5148  0.4539 -2.1740
   28MOL0     H 3746  -0.162   0.582   2.593  1.6505 -0.7601  0.7044
   28MOL0     H 3747  -0.275   0.685   2.502 -1.1264 -1.0718  2.1875
   28MOL0     H 3748  -0.233   0.484   2.384  1.7921 -1.5920  2.7628
   28MOL0     H 3749  -0.193   0.635   2.303 -0.2994  0.3894  0.1590
   28MOL0     H 3750   0.033   0.467   2.445  1.4607  3.1153  2.1655
   28MOL0     H 3751   0.044   0.611   2.350 -1.4736  1.1043  0.2440
   28MOL0     H 3752  -0.095   0.368   2.228 -1.4835  2.8895  1.2442
   28MOL0     H 3753  -0.021   0.483   2.132 -3.5095  2.2842  1.6176
   28MOL0     H 3754   0.102   0.279   2.329 -1.1340  0.6685  1.6017
   28MOL0     H 3755   0.207   0.399   2.243  0.4144 -0.9786 -1.1079
   28MOL0     H 3756   0.151   0.283   2.026 -0.5037 -1.4110 -0.5312
   28MOL0     H 3757   0.222   0.182   2.140  0.5852  1.1149  0.0887
   28MOL0     H 3758   0.027   0.120   1.990  0.9439  0.1721  0.8531
   28MOL0     H 3759  -0.088   0.212   2.084 -1.5366 -1.8162  0.1059
   28MOL0     H 3760   0.095   0.012   2.229 -0.7280 -1.8965 -0.9728
   28MOL0     H 3761  -0.033  -0.053   2.140  3.0355  0.9492 -3.0205
   28MOL0     H 3762   0.104   0.923   2.492  2.6879 -1.9221 -0.4681
   28MOL0     H 3763   0.211   1.053   2.672  1.3765 -0.8122  4.3865
   28MOL0     H 3764   0.321   1.158   3.017  0.5445  1.6968  0.4487
   28MOL0     H 3765   0.482   1.330   3.090 -0.0784  0.0526 -0.7812
   28MOL0     H 3766   1.110   1.623   3.955 -0.0055 -0.4060 -0.0444
   28MOL0     H 3767   1.085   1.531   3.730 -0.7463 -1.7618 -0.7169
   28MOL0     H 3768   1.192   1.107   3.517  1.3952 -0.8927  0.8478
   28MOL0     H 3769   1.187   0.961   3.355 -0.6152  2.1297  2.0342
   28MOL0     H 3770   1.123   0.910   3.152 -1.1383  0.5170 -1.3863
   28MOL0     H 3771   1.193   0.852   2.995  0.9118 -3.4158  0.1765
   28MOL0     H 3772   1.154   0.688   3.168 -0.1759  1.3285 -0.5229
   28MOL0     H 3773   1.292   0.754   3.264 -0.2305  1.5791 -0.4663
   28MOL0     H 3774   1.283   0.605   3.011 -0.1261 -1.3582  0.8122
   28MOL0     H 3775   1.372   0.559   3.166  1.9887  0.3980  0.0647
   28MOL0     H 3776   1.517   0.719   3.154 -0.4883  0.5465 -0.4899
   28MOL0     H 3777   1.462   0.782   2.991 -2.5623 -1.0416 -0.4652
   28MOL0     H 3778   1.682   0.480   2.847 -1.0887 -3.0844 -0.3386
   28MOL0     H 3779   1.428   1.216   3.094 -0.8683  0.1747 -0.3603
   28MOL0     H 3780   1.443   1.376   3.274  0.9326 -0.9437 -1.3899
   29MOL0     O 3781   2.506   5.777  10.847 -0.4399 -0.4377 -0.4501
   29MOL0     C 3782   2.609   5.715  10.841  0.3598  0.3811 -1.2405
   29MOL0     O 3783   2.720   5.745  10.920  0.1731  0.5985 -0.4661
   29MOL0     C 3784   2.705   5.863  10.997  0.0910  0.9896 -0.0699
   29MOL0     C 3785   2.746   5.982  10.944  0.0732 -0.5145  0.1186
   29MOL0     C 3786   2.723   6.093  11.020  0.1663  1.0342 -0.2216
   29MOL0     C 3787   2.690   6.089  11.156  0.2809  0.3333 -0.2817
   29MOL0     O 3788   2.693   6.208  11.233 -0.3119  0.0173 -1.1828
   29MOL0     C 3789   2.631   6.207  11.366 -0.2904 -0.5447 -0.4727
   29MOL0     C 3790   2.620   6.349  11.423 -0.0474 -0.2454  0.0404
   29MOL0     C 3791   2.538   6.356  11.548 -0.5212 -1.3468  0.5879
   29MOL0     C 3792   2.568   6.487  11.625 -0.1971  0.1525 -0.4753
   29MOL0     C 3793   2.499   6.516  11.765 -0.5585 -0.2039  0.6584
   29MOL0     C 3794   2.345   6.530  11.777 -0.1206  0.7614 -0.2471
   29MOL0     C 3795   2.279   6.667  11.741  0.2522 -0.5507  1.1208
   29MOL0     C 3796   2.124   6.679  11.737  0.7438 -1.2863 -0.9519
   29MOL0     N 3797   2.065   6.633  11.613  0.2795 -0.3442  0.7110
   29MOL0     C 3798   2.093   6.687  11.485  0.0989 -1.6002 -1.2804
   29MOL0     C 3799   2.017   6.629  11.395 -0.0538 -0.3936  1.2750
   29MOL0     C 3800   1.983   6.685  11.256  0.2889 -0.0371 -0.0369
   29MOL0     C 3801   2.100   6.659  11.156 -1.2863 -0.9410 -0.5265
   29MOL0     C 3802   2.051   6.724  11.023  0.4866 -0.2218  0.2306
   29MOL0     C 3803   2.147   6.737  10.903  0.1879  0.7874 -0.1889
   29MOL0     O 3804   2.282   6.782  10.921  0.3357 -0.6281 -0.0198
   29MOL0     C 3805   2.383   6.750  10.830 -0.4744 -0.6237  1.2790
   29MOL0     C 3806   2.511   6.774  10.865 -0.7189 -0.4792  0.5618
   29MOL0     C 3807   2.613   6.754  10.776  1.0300 -0.0090  0.1750
   29MOL0     C 3808   2.747   6.810  10.805  0.4484 -0.3094 -0.0951
   29MOL0     C 3809   2.592   6.692  10.652 -0.6914  0.4918  0.8617
   29MOL0     C 3810   2.698   6.659  10.552 -0.7333  0.3546  0.6309
   29MOL0     O 3811   2.783   6.751  10.497 -0.4982 -0.0561  0.0032
   29MOL0     C 3812   2.889   6.697  10.424 -0.2922 -0.3622 -0.1362
   29MOL0     C 3813   3.016   6.718  10.478  0.1540  0.7608 -0.1250
   29MOL0     C 3814   3.137   6.665  10.419  0.6544 -0.8128 -0.3110
   29MOL0     C 3815   3.131   6.591  10.306 -0.5633  0.4967  0.2628
   29MOL0     O 3816   3.253   6.539  10.260 -0.4582  0.4323 -0.7367
   29MOL0     C 3817   3.239   6.428  10.166 -0.3478 -0.4095  0.0336
   29MOL0     C 3818   3.352   6.332  10.188 -0.2367  0.2703 -0.9020
   29MOL0     C 3819   3.360   6.231  10.079  0.7773 -0.3646  0.0573
   29MOL0     C 3820   3.426   6.090  10.105 -0.1725 -0.7179  0.3289
   29MOL0     C 3821   3.537   6.076  10.203  0.8585  0.3555  0.1376
   29MOL0     C 3822   3.669   6.159  10.173  0.0481 -0.4330  0.5210
   29MOL0     C 3823   3.790   6.117  10.271 -0.8201  0.0777 -0.1839
   29MOL0     C 3824   3.895   6.218  10.299 -0.4308 -0.0793  1.2607
   29MOL0    Cl 3825   3.966   6.263  10.137  0.5395  0.5553 -0.1633
   29MOL0     C 3826   3.004   6.573  10.246 -0.4715 -0.2257 -0.5840
   29MOL0     C 3827   2.884   6.630  10.305 -0.2459 -0.1748 -0.7268
   29MOL0     O 3828   2.701   6.535  10.523 -0.2546 -0.2012 -0.3288
   29MOL0     C 3829   2.464   6.650  10.617 -0.4335  0.5806 -0.4514
   29MOL0     C 3830   2.361   6.672  10.703 -0.0844 -0.7748  0.1797
   29MOL0     N 3831   1.955   6.526  11.468  0.2042  0.0833  0.9547
   29MOL0     N 3832   1.983   6.528  11.595  0.3328 -0.5415 -0.1129
   29MOL0     C 3833   2.655   5.972  11.215  0.7209  0.0270 -0.5782
   29MOL0     C 3834   2.668   5.853  11.138  1.0512 -1.2484  0.1586
   29MOL0     C 3835   2.609   5.583  10.776  0.7651  0.0203 -0.0954
   29MOL0     C 3836   2.720   5.501  10.776  0.5638 -0.6309  0.1339
   29MOL0     C 3837   2.718   5.378  10.698 -0.3303 -0.1020 -0.5608
   29MOL0     C 3838   2.606   5.329  10.643  0.9793  0.6876  0.2978
   29MOL0     O 3839   2.602   5.207  10.576  0.4642 -0.1406 -0.5514
   29MOL0     C 3840   2.510   5.108  10.635  0.0233  0.2151  0.0140
   29MOL0     C 3841   2.488   4.977  10.556  0.3700 -0.2635 -0.7460
   29MOL0     C 3842   2.609   4.901  10.522 -0.3564 -0.0703 -0.3147
   29MOL0     C 3843   2.588   4.763  10.466  0.4742  0.2053 -1.4169
   29MOL0     C 3844   2.542   4.769  10.336 -0.2857  0.2855  0.3603
   29MOL0     C 3845   2.492   4.785  10.221 -0.2788  0.1255  0.0857
   29MOL0     C 3846   2.495   5.403  10.672  0.4243  0.3857 -0.7207
   29MOL0     C 3847   2.492   5.530  10.736  0.4313  0.0817  0.5783
   29MOL0     H 3848   2.784   5.974  10.842  1.0404  2.0930  0.2127
   29MOL0     H 3849   2.748   6.191  10.980  0.1649  1.1858  0.1450
   29MOL0     H 3850   2.526   6.176  11.357 -1.0783  1.2275  1.7891
   29MOL0     H 3851   2.688   6.135  11.426 -1.1052 -3.3509 -2.8026
   29MOL0     H 3852   2.722   6.388  11.423  1.4003 -3.6489 -0.1398
   29MOL0     H 3853   2.560   6.407  11.353  0.3309 -1.8769 -1.7346
   29MOL0     H 3854   2.432   6.352  11.523 -1.0123  2.9925  1.1312
   29MOL0     H 3855   2.563   6.270  11.612 -0.0505 -2.8396 -1.5112
   29MOL0     H 3856   2.675   6.482  11.649 -0.1874 -1.6511 -0.7859
   29MOL0     H 3857   2.547   6.569  11.556 -2.2390  0.1261  0.0423
   29MOL0     H 3858   2.533   6.440  11.836  1.9635  0.6852  0.5027
   29MOL0     H 3859   2.542   6.610  11.799  0.9090 -0.7255  0.3083
   29MOL0     H 3860   2.305   6.453  11.711  0.4486 -0.6198  0.9577
   29MOL0     H 3861   2.331   6.507  11.883  1.5340  1.9900  0.2802
   29MOL0     H 3862   2.315   6.739  11.814  1.1257  3.0583 -2.5322
   29MOL0     H 3863   2.310   6.706  11.644 -2.0429 -0.8293  0.2052
   29MOL0     H 3864   2.103   6.784  11.756  1.3901 -0.9403 -2.0745
   29MOL0     H 3865   2.078   6.630  11.823 -1.0983  2.4750  0.4110
   29MOL0     H 3866   2.148   6.778  11.466 -1.2775 -0.4030  0.2031
   29MOL0     H 3867   1.882   6.652  11.231  0.8044 -2.2276  0.5997
   29MOL0     H 3868   1.982   6.793  11.273 -1.0027 -0.0399  0.0501
   29MOL0     H 3869   2.107   6.550  11.145  1.7015 -1.0032  0.8804
   29MOL0     H 3870   2.197   6.686  11.200 -1.4997 -0.6151 -0.2503
   29MOL0     H 3871   2.016   6.823  11.051 -0.8097 -0.7441  0.5623
   29MOL0     H 3872   1.968   6.669  10.976 -1.0417  3.6734 -2.1288
   29MOL0     H 3873   2.106   6.791  10.817  1.1908  1.6005 -0.1757
   29MOL0     H 3874   2.146   6.636  10.859 -2.5814  0.8820 -0.5308
   29MOL0     H 3875   2.533   6.821  10.960  3.4662 -3.2016  1.1834
   29MOL0     H 3876   2.760   6.863  10.900  0.2558 -1.3934  0.5575
   29MOL0     H 3877   2.816   6.725  10.804 -2.8694 -3.2160  0.4205
   29MOL0     H 3878   2.768   6.896  10.740 -0.8503  1.9776  2.3211
   29MOL0     H 3879   3.029   6.774  10.570 -3.4372  1.1512  0.2561
   29MOL0     H 3880   3.232   6.677  10.469 -1.0599  1.3060  2.8002
   29MOL0     H 3881   3.148   6.368  10.158 -0.2826 -0.3945 -0.9067
   29MOL0     H 3882   3.262   6.472  10.069  1.6846  0.0531  0.6711
   29MOL0     H 3883   3.444   6.392  10.189 -0.4595  0.6612 -2.2397
   29MOL0     H 3884   3.346   6.279  10.284  0.2606 -1.1079 -1.6073
   29MOL0     H 3885   3.410   6.269   9.990 -2.4765 -0.9128 -2.1900
   29MOL0     H 3886   3.262   6.217  10.031  2.4925 -0.4364 -3.7980
   29MOL0     H 3887   3.344   6.026  10.140 -0.3615 -0.1080  1.0357
   29MOL0     H 3888   3.448   6.050  10.006  0.8839 -0.6016  0.5001
   29MOL0     H 3889   3.555   5.968  10.196 -3.6176 -0.6490  0.6736
   29MOL0     H 3890   3.490   6.093  10.300 -2.3198 -0.5910 -1.0813
   29MOL0     H 3891   3.692   6.147  10.067 -2.1476 -0.7177  0.0175
   29MOL0     H 3892   3.639   6.264  10.177 -0.1383 -0.4609 -0.0983
   29MOL0     H 3893   3.832   6.025  10.229 -1.9057 -0.7329  0.4410
   29MOL0     H 3894   3.753   6.081  10.367 -0.3580  2.0154  0.7727
   29MOL0     H 3895   3.962   6.156  10.360 -0.2379 -0.6864  0.4424
   29MOL0     H 3896   3.857   6.307  10.349  3.0700  2.1059  0.3786
   29MOL0     H 3897   3.002   6.533  10.145  0.0379  0.6251 -0.9466
   29MOL0     H 3898   2.787   6.611  10.260 -2.0404 -1.1695  3.2002
   29MOL0     H 3899   2.454   6.591  10.526 -0.1455  3.8037 -2.7247
   29MOL0     H 3900   2.260   6.647  10.671 -1.7411  2.9697  1.8996
   29MOL0     H 3901   2.617   5.967  11.316 -0.9709 -0.6634 -1.2138
   29MOL0     H 3902   2.637   5.761  11.186  2.9576 -1.0115  1.9781
   29MOL0     H 3903   2.811   5.535  10.825  1.2620 -1.8266 -0.3025
   29MOL0     H 3904   2.813   5.327  10.695  0.7909  1.9019 -0.8763
   29MOL0     H 3905   2.550   5.082  10.734 -2.2232 -2.1145  0.4021
   29MOL0     H 3906   2.408   5.142  10.651 -0.7185 -1.2765 -1.3064
   29MOL0     H 3907   2.437   5.006  10.463  0.6143 -0.8238 -1.0584
   29MOL0     H 3908   2.424   4.911  10.615  1.9386 -1.0718  0.1186
   29MOL0     H 3909   2.671   4.887  10.610 -1.3667 -0.9113  0.2854
   29MOL0     H 3910   2.658   4.961  10.445 -0.8614 -1.3789 -1.7318
   29MOL0     H 3911   2.507   4.710  10.516  0.0022  2.1987  0.0462
   29MOL0     H 3912   2.682   4.706  10.463  0.9765  0.7761  1.2659
   29MOL0     H 3913   2.440   4.809  10.131 -0.2955  2.5911  0.6850
   29MOL0     H 3914   2.402   5.368  10.627 -0.5400  0.4488  1.1340
   29MOL0     H 3915   2.399   5.584  10.744  0.5001  0.3273 -0.2061
   30MOL0     O 3916   1.351   0.607   0.342 -0.9080 -0.3549 -0.2300
   30MOL0     C 3917   1.248   0.661   0.390 -0.3953 -0.1455  1.0007
   30MOL0     O 3918   1.124   0.598   0.397  0.5309 -0.1268  0.6665
   30MOL0     C 3919   1.121   0.463   0.356 -0.1359 -0.5204  0.8282
   30MOL0     C 3920   1.157   0.363   0.445  0.0409 -0.3093  0.4028
   30MOL0     C 3921   1.157   0.224   0.417  0.0565  0.0331  0.4149
   30MOL0     C 3922   1.132   0.192   0.279  0.2410  0.0372 -0.0117
   30MOL0     O 3923   1.130   0.057   0.241  0.3121  0.1075  0.0914
   30MOL0     C 3924   1.043  -0.030   0.310  0.3607 -0.8826  0.0793
   30MOL0     C 3925   1.021  -0.140   0.213 -0.3714  1.1529 -1.0480
   30MOL0     C 3926   0.966  -0.267   0.281 -0.3463  1.0177  0.1790
   30MOL0     C 3927   0.956  -0.394   0.189  0.1879  0.1724  0.5933
   30MOL0     C 3928   0.936  -0.524   0.261  0.1950 -0.9878  1.0219
   30MOL0     C 3929   0.962  -0.640   0.161  0.3764  0.1463  0.3782
   30MOL0     C 3930   1.018  -0.763   0.220 -0.2939 -0.3239 -0.9695
   30MOL0     C 3931   0.928  -0.833   0.316 -0.1152  0.7292  0.9976
   30MOL0     N 3932   0.963  -0.968   0.345  0.6592 -0.6919 -0.1872
   30MOL0     C 3933   1.089  -1.015   0.377  0.3368 -1.0765 -0.7250
   30MOL0     C 3934   1.080  -1.152   0.379  0.0563  0.3446 -0.3182
   30MOL0     C 3935   1.206  -1.234   0.397  0.1543  0.0303  0.5110
   30MOL0     C 3936   1.294  -1.225   0.265  0.4073  0.1846 -0.1609
   30MOL0     C 3937   1.421  -1.315   0.275 -0.8128 -0.2521  0.3984
   30MOL0     C 3938   1.396  -1.464   0.274  0.1475 -0.8500  0.8302
   30MOL0     O 3939   1.513  -1.527   0.305 -0.1416  0.1688 -0.1135
   30MOL0     C 3940   1.493  -1.669   0.293  0.1215  0.8109  0.2743
   30MOL0     C 3941   1.597  -1.759   0.258 -0.6555 -0.3902  0.0714
   30MOL0     C 3942   1.588  -1.898   0.265 -0.3033  0.2959 -0.3197
   30MOL0     C 3943   1.720  -1.968   0.242 -0.7778  0.3087  0.6028
   30MOL0     C 3944   1.464  -1.950   0.299  0.2171 -0.0278 -0.0400
   30MOL0     C 3945   1.446  -2.101   0.304 -0.4978 -0.6679 -0.3687
   30MOL0     O 3946   1.519  -2.181   0.226 -0.1423  0.5012  0.2260
   30MOL0     C 3947   1.473  -2.310   0.229 -0.8087 -0.3937 -0.0350
   30MOL0     C 3948   1.525  -2.393   0.328  0.1740 -0.0377 -0.3158
   30MOL0     C 3949   1.481  -2.523   0.333 -1.9291 -0.1151 -0.8908
   30MOL0     C 3950   1.387  -2.575   0.251 -0.1975  0.3723  0.0482
   30MOL0     O 3951   1.346  -2.704   0.261  0.5632  0.4926  0.0460
   30MOL0     C 3952   1.355  -2.783   0.379 -0.5067  0.4882  0.3230
   30MOL0     C 3953   1.484  -2.849   0.411  0.3180 -0.0384 -0.9779
   30MOL0     C 3954   1.481  -2.927   0.545  1.0025 -0.1744  0.2425
   30MOL0     C 3955   1.439  -2.853   0.678  0.8110  0.2098 -0.5744
   30MOL0     C 3956   1.562  -2.841   0.774 -0.6322  0.5395  0.1535
   30MOL0     C 3957   1.533  -2.797   0.927  0.3634  1.2288 -0.4870
   30MOL0     C 3958   1.465  -2.667   0.947  0.9088  0.4439  0.6660
   30MOL0     C 3959   1.447  -2.620   1.098  0.4763  0.1484  0.7311
   30MOL0    Cl 3960   1.362  -2.464   1.108  0.2128 -0.0051  0.0238
   30MOL0     C 3961   1.323  -2.492   0.163  0.3235 -0.6042  0.3699
   30MOL0     C 3962   1.376  -2.360   0.143  0.8810  1.5909  0.4550
   30MOL0     O 3963   1.359  -2.130   0.380 -0.3268  0.1069  0.1980
   30MOL0     C 3964   1.351  -1.873   0.320 -0.1845  0.1576 -0.3434
   30MOL0     C 3965   1.366  -1.734   0.315 -0.3616 -0.5747  0.1243
   30MOL0     N 3966   0.956  -1.180   0.336 -0.4867 -0.1715 -0.4111
   30MOL0     N 3967   0.882  -1.074   0.316 -0.5009 -0.1936  0.7448
   30MOL0     C 3968   1.099   0.291   0.190 -0.1914  0.0423 -0.1972
   30MOL0     C 3969   1.081   0.426   0.224 -0.7396  0.3123 -0.9159
   30MOL0     C 3970   1.244   0.798   0.442  0.0979 -0.7303  0.1696
   30MOL0     C 3971   1.132   0.863   0.506 -0.4771  0.5913 -0.3101
   30MOL0     C 3972   1.140   0.994   0.558  0.2060 -0.5176  0.3276
   30MOL0     C 3973   1.266   1.071   0.555  0.2222  0.9247 -1.1972
   30MOL0     O 3974   1.285   1.198   0.600 -0.3502 -0.1523 -0.3750
   30MOL0     C 3975   1.165   1.267   0.654 -0.0182 -0.5612 -0.1489
   30MOL0     C 3976   1.194   1.414   0.702 -0.2771 -0.3620 -0.4248
   30MOL0     C 3977   1.266   1.484   0.599  0.2733  0.5511  0.6034
   30MOL0     C 3978   1.313   1.617   0.634 -0.8867  0.0667 -0.0853
   30MOL0     C 3979   1.214   1.707   0.686  0.6784 -0.8085 -0.4421
   30MOL0     C 3980   1.114   1.776   0.715 -0.7353 -0.3806  0.6561
   30MOL0     C 3981   1.381   1.003   0.507 -0.5632 -0.7652 -0.1593
   30MOL0     C 3982   1.363   0.877   0.438  0.2080 -0.5760  0.6166
   30MOL0     H 3983   1.193   0.382   0.545 -0.6769 -0.9899  0.8050
   30MOL0     H 3984   1.193   0.151   0.489 -0.0973  0.0483  0.5076
   30MOL0     H 3985   1.077  -0.063   0.409  2.0557 -1.0953 -0.5354
   30MOL0     H 3986   0.944   0.016   0.320 -0.6129 -2.8218 -0.1048
   30MOL0     H 3987   0.947  -0.120   0.135 -0.8204 -2.0825 -1.5912
   30MOL0     H 3988   1.111  -0.170   0.159 -0.1046 -1.7285  0.7553
   30MOL0     H 3989   1.019  -0.284   0.376  1.9601  0.6141 -1.1081
   30MOL0     H 3990   0.863  -0.248   0.313 -0.0985  0.1639  1.5681
   30MOL0     H 3991   0.877  -0.379   0.114  0.8733  1.1381  0.0490
   30MOL0     H 3992   1.052  -0.394   0.137  1.1087  0.5090  2.2627
   30MOL0     H 3993   1.013  -0.515   0.339  0.1332  2.4876  0.8584
   30MOL0     H 3994   0.839  -0.515   0.312 -0.9785 -0.9326 -1.0997
   30MOL0     H 3995   0.862  -0.655   0.119  1.5485  0.6991 -2.8530
   30MOL0     H 3996   1.023  -0.598   0.081 -0.8120  1.9859  0.3832
   30MOL0     H 3997   1.035  -0.836   0.141 -2.0579 -1.2515 -0.5418
   30MOL0     H 3998   1.119  -0.748   0.260 -1.1760  1.5180  0.7521
   30MOL0     H 3999   0.828  -0.829   0.271  0.0053  1.0887  0.7598
   30MOL0     H 4000   0.917  -0.762   0.399 -2.2658  3.2590 -1.2382
   30MOL0     H 4001   1.182  -0.964   0.401  0.3175 -1.8779  1.1520
   30MOL0     H 4002   1.273  -1.190   0.472 -0.0788 -0.0593  0.7737
   30MOL0     H 4003   1.180  -1.336   0.424 -1.7330  0.0580 -0.9961
   30MOL0     H 4004   1.340  -1.127   0.267 -0.6532  0.6950  1.2912
   30MOL0     H 4005   1.224  -1.235   0.181  0.7420 -1.1285 -0.3089
   30MOL0     H 4006   1.485  -1.276   0.355  2.3980  3.6936 -3.5629
   30MOL0     H 4007   1.480  -1.309   0.183  0.8124 -1.9907  1.2560
   30MOL0     H 4008   1.348  -1.479   0.177 -1.8551 -0.4591  1.7130
   30MOL0     H 4009   1.321  -1.486   0.351  0.7896 -2.3150  1.0594
   30MOL0     H 4010   1.695  -1.718   0.237 -1.5851  0.7302 -2.4577
   30MOL0     H 4011   1.717  -2.002   0.138 -1.0247 -2.2503  1.3793
   30MOL0     H 4012   1.801  -1.896   0.259 -0.4006  0.2919 -0.9300
   30MOL0     H 4013   1.735  -2.050   0.312 -1.7156 -0.4557 -0.0636
   30MOL0     H 4014   1.597  -2.345   0.394 -0.5539 -0.3162  0.7034
   30MOL0     H 4015   1.532  -2.570   0.417  0.5612  0.4723 -1.9850
   30MOL0     H 4016   1.334  -2.716   0.463 -1.3205  1.6015 -0.7472
   30MOL0     H 4017   1.271  -2.853   0.382 -0.7196  0.7231  3.7015
   30MOL0     H 4018   1.503  -2.915   0.326 -1.8119 -2.3404  0.2202
   30MOL0     H 4019   1.569  -2.782   0.424  0.2380 -0.0843 -0.1699
   30MOL0     H 4020   1.578  -2.976   0.557  1.2561 -0.3965 -2.1980
   30MOL0     H 4021   1.402  -3.001   0.525  1.0442  0.1648 -1.3240
   30MOL0     H 4022   1.375  -2.765   0.669 -1.4152 -1.2421  0.4466
   30MOL0     H 4023   1.370  -2.922   0.728 -2.2841  0.5883 -3.8908
   30MOL0     H 4024   1.617  -2.751   0.744 -0.1749  0.9597  2.0568
   30MOL0     H 4025   1.631  -2.925   0.770  0.5762  1.5513 -1.7144
   30MOL0     H 4026   1.484  -2.877   0.982  3.5394  0.7114  1.8889
   30MOL0     H 4027   1.630  -2.790   0.977  2.0828 -2.2077 -2.9552
   30MOL0     H 4028   1.371  -2.669   0.892  3.0539  0.1332 -3.2986
   30MOL0     H 4029   1.515  -2.581   0.903  2.7385 -0.1161  1.5400
   30MOL0     H 4030   1.546  -2.600   1.140  0.0564  2.5204  0.7227
   30MOL0     H 4031   1.400  -2.699   1.157  0.8179  0.1888  1.0558
   30MOL0     H 4032   1.248  -2.526   0.092 -2.0947  2.4376  1.2582
   30MOL0     H 4033   1.332  -2.296   0.067 -1.3434  2.4556  2.3397
   30MOL0     H 4034   1.257  -1.908   0.362  0.1655 -0.6367 -0.1906
   30MOL0     H 4035   1.276  -1.682   0.346  1.2095  1.1011  2.2294
   30MOL0     H 4036   1.058   0.270   0.092  2.4097 -0.5503 -1.2379
   30MOL0     H 4037   1.033   0.500   0.162 -0.7681 -0.8504 -2.3459
   30MOL0     H 4038   1.049   0.798   0.528  0.8795 -1.1807 -0.2611
   30MOL0     H 4039   1.045   1.024   0.601 -1.0361 -3.8223  0.2206
   30MOL0     H 4040   1.092   1.268   0.573 -0.5761  0.8403  0.3320
   30MOL0     H 4041   1.110   1.209   0.729 -0.2108 -0.5418 -0.2738
   30MOL0     H 4042   1.254   1.402   0.792 -2.0552 -1.6882  0.6531
   30MOL0     H 4043   1.100   1.460   0.735 -0.4465 -0.8857 -0.1649
   30MOL0     H 4044   1.203   1.497   0.511  1.0128  0.6822  0.0786
   30MOL0     H 4045   1.360   1.433   0.573  1.6729  4.1560 -2.4077
   30MOL0     H 4046   1.352   1.663   0.543 -2.9244 -1.0939 -1.6343
   30MOL0     H 4047   1.399   1.599   0.699 -1.1164 -0.7479  0.0035
   30MOL0     H 4048   1.020   1.827   0.714 -0.1307  0.7758  0.4477
   30MOL0     H 4049   1.467   1.067   0.523 -0.1726 -1.3970  0.2782
   30MOL0     H 4050   1.448   0.823   0.396 -0.1356 -1.8552  1.5002
   31MOL0     O 4051   8.280   5.821   5.179 -0.2083 -0.6978 -0.3073
   31MOL0     C 4052   8.233   5.788   5.283  0.2959  0.6906  0.2622
   31MOL0     O 4053   8.102   5.792   5.319  0.1093 -0.0849  1.1451
   31MOL0     C 4054   8.005   5.849   5.239  0.7272 -0.4664  0.0030
   31MOL0     C 4055   8.028   5.953   5.153 -0.3498  1.0565 -0.3076
   31MOL0     C 4056   7.929   5.991   5.064 -1.4760 -0.9786 -0.8390
   31MOL0     C 4057   7.795   5.937   5.072  0.1581 -0.4983  0.9959
   31MOL0     O 4058   7.686   5.984   4.998  0.4189  0.0006 -0.4469
   31MOL0     C 4059   7.699   6.114   4.936 -0.7531  0.2458  0.4456
   31MOL0     C 4060   7.597   6.134   4.826 -0.2746 -2.2523 -0.7043
   31MOL0     C 4061   7.629   6.051   4.697  0.6797  0.1194 -0.6195
   31MOL0     C 4062   7.579   6.105   4.567 -0.1096 -0.8256  0.2342
   31MOL0     C 4063   7.565   6.015   4.439 -1.3684 -0.1165  0.1724
   31MOL0     C 4064   7.472   5.896   4.448 -0.0910  0.4093  0.3974
   31MOL0     C 4065   7.498   5.807   4.316  1.2778 -0.0820  0.2338
   31MOL0     C 4066   7.432   5.671   4.342 -0.6309 -0.0928  0.3119
   31MOL0     N 4067   7.524   5.571   4.395  0.4233 -1.1312 -0.7114
   31MOL0     C 4068   7.633   5.512   4.322 -0.8877 -0.1310 -0.0403
   31MOL0     C 4069   7.695   5.442   4.422 -0.7526 -0.2338 -0.1365
   31MOL0     C 4070   7.795   5.335   4.376  1.5653  0.8429  0.1649
   31MOL0     C 4071   7.726   5.194   4.392  0.1287  0.2769  0.0629
   31MOL0     C 4072   7.582   5.167   4.339  0.9031  0.4425 -0.6159
   31MOL0     C 4073   7.543   5.016   4.358  0.1458 -0.3713  0.3684
   31MOL0     O 4074   7.437   4.977   4.271 -0.2763  0.0487 -0.3265
   31MOL0     C 4075   7.457   4.940   4.136 -0.6850 -0.9626 -0.4964
   31MOL0     C 4076   7.350   4.871   4.086  0.9269 -0.0228  0.4938
   31MOL0     C 4077   7.352   4.813   3.960 -0.0176  0.2107 -0.0723
   31MOL0     C 4078   7.224   4.751   3.914 -0.4054  0.4589 -0.5201
   31MOL0     C 4079   7.470   4.831   3.883 -0.2337  0.2134  1.3106
   31MOL0     C 4080   7.489   4.772   3.743  0.0157 -0.8766 -0.0356
   31MOL0     O 4081   7.391   4.701   3.682 -0.1752  0.8725  0.0266
   31MOL0     C 4082   7.409   4.614   3.580  1.0716 -0.0420 -0.4131
   31MOL0     C 4083   7.294   4.546   3.540  0.5493  0.3984 -0.7208
   31MOL0     C 4084   7.295   4.452   3.442 -0.0728 -0.9943 -0.8189
   31MOL0     C 4085   7.414   4.430   3.359  0.5344 -0.7094 -0.0368
   31MOL0     O 4086   7.430   4.345   3.255  0.2530 -0.1905  1.1213
   31MOL0     C 4087   7.320   4.296   3.179  0.5662 -0.2844 -0.9381
   31MOL0     C 4088   7.257   4.171   3.238  0.3964 -0.3564 -0.0737
   31MOL0     C 4089   7.161   4.105   3.140 -0.6339  0.8704  0.0992
   31MOL0     C 4090   7.099   3.972   3.195  0.1593 -0.5774  0.1125
   31MOL0     C 4091   6.982   3.904   3.111 -0.1329 -0.0356  0.1237
   31MOL0     C 4092   6.977   3.753   3.138  0.0050 -1.0524 -0.0392
   31MOL0     C 4093   6.917   3.736   3.280  1.0347 -0.2866  0.1353
   31MOL0     C 4094   6.879   3.598   3.297  0.0869 -0.5095 -0.2301
   31MOL0    Cl 4095   6.778   3.576   3.445  0.2743 -0.3923  0.0197
   31MOL0     C 4096   7.530   4.488   3.402  0.2042 -0.3279  0.0563
   31MOL0     C 4097   7.523   4.587   3.506 -0.6100  0.0196 -0.4743
   31MOL0     O 4098   7.595   4.798   3.692 -0.1640  0.4822  0.2127
   31MOL0     C 4099   7.579   4.904   3.937  0.4476  1.1550 -1.5064
   31MOL0     C 4100   7.581   4.950   4.066  0.0900  0.3066  0.3977
   31MOL0     N 4101   7.626   5.443   4.535  0.2413 -0.6732  0.2138
   31MOL0     N 4102   7.524   5.520   4.524 -0.6635  0.5951  0.0307
   31MOL0     C 4103   7.770   5.846   5.171 -0.9524 -0.0037 -0.0406
   31MOL0     C 4104   7.873   5.806   5.259 -0.1484  0.1843  0.3559
   31MOL0     C 4105   8.324   5.721   5.382 -0.0494  0.1803 -0.2329
   31MOL0     C 4106   8.267   5.676   5.503  0.9385  1.1589 -1.5815
   31MOL0     C 4107   8.346   5.616   5.601 -0.0724  0.3506  0.4983
   31MOL0     C 4108   8.480   5.575   5.567 -0.1077 -0.7244 -0.7344
   31MOL0     O 4109   8.567   5.493   5.647  0.0214  0.1249  0.0736
   31MOL0     C 4110   8.508   5.418   5.758 -0.4226 -0.5965  0.1692
   31MOL0     C 4111   8.574   5.287   5.750 -0.5609 -0.1540 -0.1832
   31MOL0     C 4112   8.506   5.188   5.653 -0.6203 -0.5635 -0.6974
   31MOL0     C 4113   8.597   5.072   5.608  0.8378 -0.2581  0.8149
   31MOL0     C 4114   8.627   4.988   5.723  0.7083  0.2396 -0.7806
   31MOL0     C 4115   8.687   4.919   5.817  0.2394  0.3181 -1.1949
   31MOL0     C 4116   8.521   5.608   5.434  0.5959 -0.0540 -0.5223
   31MOL0     C 4117   8.447   5.680   5.345 -0.5926 -0.6712 -1.0000
   31MOL0     H 4118   8.127   5.996   5.147 -0.9859  2.6401  0.1273
   31MOL0     H 4119   7.952   6.070   4.993 -2.3407  0.8110  0.7982
   31MOL0     H 4120   7.683   6.186   5.017 -0.2996  0.6117  0.2113
   31MOL0     H 4121   7.799   6.144   4.903 -1.3343  2.5642  0.5671
   31MOL0     H 4122   7.493   6.119   4.856 -0.0875 -2.6651 -0.2581
   31MOL0     H 4123   7.584   6.241   4.806  1.7373 -1.3320  2.2655
   31MOL0     H 4124   7.738   6.039   4.695  0.6658 -0.4095  0.6804
   31MOL0     H 4125   7.571   5.959   4.712 -1.2338  1.5469  1.2335
   31MOL0     H 4126   7.487   6.162   4.581  0.4224 -0.0044  0.4755
   31MOL0     H 4127   7.643   6.188   4.537  1.3731 -1.8946  0.3144
   31MOL0     H 4128   7.530   6.083   4.361 -3.4560 -0.4412  0.7729
   31MOL0     H 4129   7.662   5.968   4.419 -1.8184 -0.5139 -1.2406
   31MOL0     H 4130   7.496   5.839   4.538 -0.7376 -1.4349 -0.5451
   31MOL0     H 4131   7.372   5.933   4.469 -1.1306 -1.6696 -0.6067
   31MOL0     H 4132   7.431   5.850   4.241 -0.1853  0.0190  1.5289
   31MOL0     H 4133   7.603   5.806   4.287  1.4371 -1.2753  0.7954
   31MOL0     H 4134   7.396   5.625   4.249 -1.1016  0.3198  0.2860
   31MOL0     H 4135   7.333   5.684   4.387 -1.3198 -0.6940 -0.9454
   31MOL0     H 4136   7.657   5.505   4.217 -1.3588 -2.0678 -0.0608
   31MOL0     H 4137   7.826   5.352   4.272 -3.0546  0.4554 -1.5278
   31MOL0     H 4138   7.881   5.355   4.440  3.1643  1.2488 -2.0190
   31MOL0     H 4139   7.734   5.163   4.496 -0.0004 -1.3871 -0.4043
   31MOL0     H 4140   7.788   5.127   4.332 -0.7656 -0.8951  0.4116
   31MOL0     H 4141   7.589   5.196   4.234  1.0243  2.7866 -0.0159
   31MOL0     H 4142   7.515   5.230   4.398  0.2567  0.4734 -1.3723
   31MOL0     H 4143   7.512   4.996   4.461 -0.5151 -2.0834 -0.1184
   31MOL0     H 4144   7.620   4.942   4.334  1.4620  1.3472 -0.9873
   31MOL0     H 4145   7.262   4.868   4.150 -0.1004  3.1665 -0.5833
   31MOL0     H 4146   7.236   4.645   3.890 -2.6939 -0.8398  3.1975
   31MOL0     H 4147   7.142   4.758   3.986 -0.9467 -1.0123 -0.9697
   31MOL0     H 4148   7.211   4.812   3.824  3.2461  0.0914 -1.4611
   31MOL0     H 4149   7.205   4.558   3.602 -0.4277 -0.0175 -2.0045
   31MOL0     H 4150   7.205   4.394   3.426 -1.2503  0.0936  1.4263
   31MOL0     H 4151   7.258   4.385   3.170  0.0717 -0.4934  0.2429
   31MOL0     H 4152   7.358   4.272   3.079 -1.5097  0.5862 -1.9713
   31MOL0     H 4153   7.330   4.100   3.279  1.0142  0.3274  0.0344
   31MOL0     H 4154   7.195   4.208   3.321 -1.0704  3.2819 -2.5580
   31MOL0     H 4155   7.225   4.074   3.057 -1.1485 -1.0136  0.3657
   31MOL0     H 4156   7.083   4.177   3.111 -0.8052  0.2078 -1.1092
   31MOL0     H 4157   7.191   3.914   3.186  0.8587  0.4788  0.3736
   31MOL0     H 4158   7.060   3.977   3.297 -1.8789  0.8278 -0.6634
   31MOL0     H 4159   6.991   3.908   3.002 -1.4385  2.2743  0.0336
   31MOL0     H 4160   6.881   3.940   3.135 -0.6021 -1.7666  0.9295
   31MOL0     H 4161   6.927   3.692   3.061  1.7409 -1.0663 -1.2072
   31MOL0     H 4162   7.075   3.705   3.139  0.0474 -0.9640  0.1211
   31MOL0     H 4163   6.837   3.810   3.293  0.9993  0.8477 -4.7389
   31MOL0     H 4164   6.993   3.764   3.353 -1.2277  1.3828  2.0208
   31MOL0     H 4165   6.970   3.541   3.317 -0.6692 -0.9623  2.3066
   31MOL0     H 4166   6.828   3.561   3.208 -0.3139 -1.3055  0.3156
   31MOL0     H 4167   7.623   4.478   3.346  0.5967  0.1244  0.6070
   31MOL0     H 4168   7.617   4.626   3.541 -1.3198  1.5166 -0.1778
   31MOL0     H 4169   7.680   4.905   3.898  2.3483 -1.3354  2.6353
   31MOL0     H 4170   7.667   4.992   4.118 -0.1052  1.0628  0.1298
   31MOL0     H 4171   7.666   5.816   5.171 -2.3393  4.1905  0.7958
   31MOL0     H 4172   7.861   5.732   5.338  0.2305 -2.1477 -1.6378
   31MOL0     H 4173   8.163   5.694   5.529  1.2555 -1.0758  1.7389
   31MOL0     H 4174   8.299   5.590   5.695 -1.2464 -0.2534 -0.2339
   31MOL0     H 4175   8.533   5.462   5.855  1.8235 -0.8886 -0.2254
   31MOL0     H 4176   8.399   5.407   5.760 -0.3014 -4.3303  4.6606
   31MOL0     H 4177   8.556   5.256   5.853  3.1185 -1.5980  0.1836
   31MOL0     H 4178   8.681   5.285   5.731 -0.5065 -0.0669  0.1114
   31MOL0     H 4179   8.465   5.236   5.563 -0.2837 -1.6807 -1.4642
   31MOL0     H 4180   8.421   5.155   5.714 -1.2883  1.4507 -0.4424
   31MOL0     H 4181   8.686   5.098   5.551 -0.9270  0.0480 -1.9697
   31MOL0     H 4182   8.545   5.002   5.542  2.9460 -0.7462 -0.4141
   31MOL0     H 4183   8.731   4.867   5.899 -0.7072  1.5222  0.1235
   31MOL0     H 4184   8.624   5.580   5.414  0.8959  1.1939 -0.8065
   31MOL0     H 4185   8.488   5.716   5.251  0.0671  2.1433  0.2632
   32MOL0     O 4186   5.672   7.400   4.603 -0.6279 -0.4904 -0.7153
   32MOL0     C 4187   5.651   7.296   4.534  0.3278 -0.5856 -0.5051
   32MOL0     O 4188   5.649   7.290   4.405 -0.5976  0.1381  0.6543
   32MOL0     C 4189   5.723   7.383   4.338 -0.5680  0.5865 -0.5151
   32MOL0     C 4190   5.669   7.448   4.226  1.1915 -1.3463  0.4716
   32MOL0     C 4191   5.747   7.544   4.162  0.2765  0.1236 -0.2934
   32MOL0     C 4192   5.879   7.560   4.185  0.2576  0.8023  1.0682
   32MOL0     O 4193   5.955   7.625   4.088  1.0239  0.7261  0.0782
   32MOL0     C 4194   6.086   7.585   4.065 -0.9227  0.1927  0.2586
   32MOL0     C 4195   6.130   7.623   3.925  0.0986  0.5216  0.2589
   32MOL0     C 4196   6.289   7.615   3.920 -0.3982  0.1297 -0.9807
   32MOL0     C 4197   6.351   7.669   3.789  0.5191  0.1006 -0.1418
   32MOL0     C 4198   6.349   7.582   3.668  0.1812  0.6903 -0.5423
   32MOL0     C 4199   6.415   7.646   3.546 -0.0508  0.0030 -0.7174
   32MOL0     C 4200   6.370   7.570   3.415  0.4226  0.3614 -0.4817
   32MOL0     C 4201   6.237   7.629   3.361 -0.6463  0.9552 -0.1463
   32MOL0     N 4202   6.181   7.578   3.236  0.5591 -0.0783  0.6905
   32MOL0     C 4203   6.251   7.538   3.126  0.8831 -0.4380  0.2527
   32MOL0     C 4204   6.157   7.494   3.036  0.7429 -0.7098  0.0442
   32MOL0     C 4205   6.184   7.468   2.901 -0.1654 -0.3324 -0.3776
   32MOL0     C 4206   6.101   7.362   2.840  0.1464 -0.2517 -0.0353
   32MOL0     C 4207   6.068   7.390   2.683 -0.6395  0.1753 -0.0602
   32MOL0     C 4208   6.193   7.411   2.592  0.1507  0.6866 -0.8906
   32MOL0     O 4209   6.295   7.313   2.620  0.1546  0.5293  0.6177
   32MOL0     C 4210   6.396   7.312   2.527  0.9537 -0.6753  0.5602
   32MOL0     C 4211   6.404   7.393   2.405 -0.2967  0.8871  0.1501
   32MOL0     C 4212   6.496   7.354   2.306 -0.5681 -0.6673 -0.0014
   32MOL0     C 4213   6.512   7.441   2.190 -0.5176 -0.0953 -0.2746
   32MOL0     C 4214   6.579   7.238   2.340 -0.8526 -0.0655  0.2497
   32MOL0     C 4215   6.692   7.211   2.252  0.0009 -0.7114 -0.5634
   32MOL0     O 4216   6.788   7.318   2.222  0.4653 -0.4596 -0.1401
   32MOL0     C 4217   6.893   7.272   2.147 -0.4512 -1.4370  0.0280
   32MOL0     C 4218   7.010   7.244   2.217  0.0759 -0.7307 -0.6086
   32MOL0     C 4219   7.123   7.181   2.145 -0.5210 -0.4470  0.0210
   32MOL0     C 4220   7.125   7.173   2.003 -0.2072 -1.0984  0.4388
   32MOL0     O 4221   7.235   7.161   1.925 -0.9775  0.1982 -0.1147
   32MOL0     C 4222   7.345   7.096   1.986  0.6822 -0.1532  0.0340
   32MOL0     C 4223   7.434   7.036   1.874  0.0390 -0.6463 -0.3924
   32MOL0     C 4224   7.554   7.137   1.851 -0.5773  1.4040 -0.0538
   32MOL0     C 4225   7.674   7.079   1.774  0.7711  0.0380  0.6266
   32MOL0     C 4226   7.802   7.165   1.797  0.2085  0.5835  0.0247
   32MOL0     C 4227   7.907   7.122   1.702  0.0422  0.1838  0.2443
   32MOL0     C 4228   8.045   7.186   1.718  1.5604 -0.1615  0.2054
   32MOL0     C 4229   8.126   7.168   1.841 -1.1087 -1.0005 -0.8791
   32MOL0    Cl 4230   8.301   7.207   1.821  0.5312  0.0865  0.0327
   32MOL0     C 4231   7.003   7.204   1.939 -0.1738 -0.8075 -0.2806
   32MOL0     C 4232   6.889   7.253   2.011 -0.5860  0.5587  0.4322
   32MOL0     O 4233   6.712   7.091   2.234 -0.2518  0.1299  0.5143
   32MOL0     C 4234   6.572   7.164   2.460 -0.0862 -0.0964 -1.1025
   32MOL0     C 4235   6.476   7.200   2.554  0.2401 -0.7350 -0.6918
   32MOL0     N 4236   6.030   7.505   3.091 -0.7692 -0.1577 -0.0278
   32MOL0     N 4237   6.050   7.562   3.208  0.9622 -1.0506 -0.9346
   32MOL0     C 4238   5.935   7.502   4.301  0.0009 -0.3342 -0.0147
   32MOL0     C 4239   5.860   7.411   4.376  0.0561 -0.4137  0.9323
   32MOL0     C 4240   5.617   7.178   4.603  0.0729  0.2182  0.5914
   32MOL0     C 4241   5.670   7.153   4.729  1.7950 -1.1772 -0.4523
   32MOL0     C 4242   5.635   7.044   4.800  0.2256  1.5428  0.3679
   32MOL0     C 4243   5.561   6.942   4.734  0.1295  0.3891  0.4863
   32MOL0     O 4244   5.513   6.831   4.797  0.6587 -0.4381 -0.1811
   32MOL0     C 4245   5.598   6.775   4.900  0.4072  0.6130 -0.3308
   32MOL0     C 4246   5.520   6.648   4.952 -0.2621 -0.8907 -0.3045
   32MOL0     C 4247   5.383   6.661   5.017  0.0591 -0.2354  0.0868
   32MOL0     C 4248   5.345   6.526   5.093  0.5541  0.4901 -0.0505
   32MOL0     C 4249   5.319   6.414   4.995 -0.0467 -0.5059 -0.0305
   32MOL0     C 4250   5.290   6.336   4.906 -0.0587  0.4112 -0.8856
   32MOL0     C 4251   5.528   6.957   4.606 -0.2316 -0.0659  1.0980
   32MOL0     C 4252   5.553   7.076   4.535  0.3501 -0.0018 -0.2221
   32MOL0     H 4253   5.574   7.411   4.189  2.1249 -1.1986 -2.2642
   32MOL0     H 4254   5.699   7.584   4.073 -1.0087 -0.2519  0.2080
   32MOL0     H 4255   6.155   7.614   4.144  0.1663 -1.0207 -0.1954
   32MOL0     H 4256   6.096   7.477   4.080  3.1129  0.4309  0.2977
   32MOL0     H 4257   6.092   7.561   3.843 -0.4242  1.3381 -0.1313
   32MOL0     H 4258   6.104   7.722   3.885  2.1509 -0.3676 -3.8182
   32MOL0     H 4259   6.333   7.673   4.001  1.5041 -3.8635  1.0982
   32MOL0     H 4260   6.322   7.512   3.938  2.7879  0.6372 -3.0196
   32MOL0     H 4261   6.292   7.757   3.758 -1.5375 -0.8858  0.7549
   32MOL0     H 4262   6.455   7.699   3.803  2.0045 -4.7963  1.3824
   32MOL0     H 4263   6.408   7.492   3.688  0.2062  0.9776  0.7991
   32MOL0     H 4264   6.250   7.547   3.640  1.2554 -0.8849 -2.6543
   32MOL0     H 4265   6.389   7.752   3.545 -0.0071  0.0873  1.3639
   32MOL0     H 4266   6.522   7.628   3.561 -0.0789  1.2263  1.3589
   32MOL0     H 4267   6.447   7.589   3.340  0.1052  1.0676 -0.6434
   32MOL0     H 4268   6.358   7.462   3.429  3.0601 -0.1409 -1.6867
   32MOL0     H 4269   6.258   7.735   3.343 -1.7006  1.3825  1.0190
   32MOL0     H 4270   6.165   7.625   3.443  0.9804 -1.9538  1.2878
   32MOL0     H 4271   6.354   7.557   3.098  0.3534  3.0894  0.2669
   32MOL0     H 4272   6.166   7.566   2.857  0.3984  0.8506  1.8910
   32MOL0     H 4273   6.292   7.456   2.899  0.1676  2.1139  0.1711
   32MOL0     H 4274   5.994   7.361   2.863 -0.0852 -0.3920 -1.0792
   32MOL0     H 4275   6.141   7.261   2.848  1.4318  0.0659 -1.7080
   32MOL0     H 4276   6.007   7.479   2.670  1.4046  1.4396 -1.6239
   32MOL0     H 4277   6.011   7.301   2.655  0.1678 -1.4859  3.1119
   32MOL0     H 4278   6.230   7.512   2.614 -0.2018  1.3429 -3.1025
   32MOL0     H 4279   6.166   7.406   2.487 -0.4788 -3.7315 -0.7049
   32MOL0     H 4280   6.336   7.475   2.386 -2.7066 -0.0133  3.8329
   32MOL0     H 4281   6.418   7.472   2.144 -0.2709  3.6435  1.3394
   32MOL0     H 4282   6.569   7.534   2.204 -2.6764  1.2274  0.1849
   32MOL0     H 4283   6.577   7.402   2.111 -0.8664  1.0302 -1.1506
   32MOL0     H 4284   6.999   7.255   2.325  1.0357 -2.7220 -0.2667
   32MOL0     H 4285   7.212   7.177   2.207 -1.3942 -0.4686  1.3053
   32MOL0     H 4286   7.398   7.158   2.060  1.6445  0.8745 -1.4582
   32MOL0     H 4287   7.296   7.011   2.034 -0.0322 -0.4044 -1.1032
   32MOL0     H 4288   7.483   6.944   1.908  1.4557  0.0166 -0.5799
   32MOL0     H 4289   7.383   7.021   1.779 -1.4516 -0.6684  0.3687
   32MOL0     H 4290   7.611   7.156   1.941  1.1285  0.9487 -1.0025
   32MOL0     H 4291   7.528   7.235   1.808  1.6847  2.2467  0.3763
   32MOL0     H 4292   7.702   6.980   1.811  0.0325 -0.4183  0.0145
   32MOL0     H 4293   7.636   7.089   1.671  1.2869  1.5655  0.5661
   32MOL0     H 4294   7.847   7.156   1.896  1.5912 -0.7441 -0.6817
   32MOL0     H 4295   7.774   7.268   1.774 -0.1454 -0.0544 -2.9451
   32MOL0     H 4296   7.919   7.014   1.689  1.1884  0.3765 -0.5453
   32MOL0     H 4297   7.876   7.159   1.604 -2.9767 -1.0833  0.6163
   32MOL0     H 4298   8.029   7.293   1.703 -3.4764 -0.8140 -0.6577
   32MOL0     H 4299   8.103   7.141   1.637 -1.2717 -1.9476 -0.9649
   32MOL0     H 4300   8.126   7.066   1.881 -2.3597 -0.1974  1.3661
   32MOL0     H 4301   8.079   7.248   1.900  2.1644  1.2372 -1.0798
   32MOL0     H 4302   6.996   7.207   1.831  2.3305  1.2890 -0.4907
   32MOL0     H 4303   6.794   7.267   1.960  0.3279 -1.6869 -2.0548
   32MOL0     H 4304   6.631   7.078   2.489  2.4155  1.6267 -0.6545
   32MOL0     H 4305   6.474   7.141   2.645  2.6807  1.5861  1.0133
   32MOL0     H 4306   6.038   7.527   4.320 -0.8175  1.8467  2.1028
   32MOL0     H 4307   5.916   7.360   4.454 -0.9903 -1.0843  1.2636
   32MOL0     H 4308   5.750   7.209   4.777 -0.7784  1.9191  0.5748
   32MOL0     H 4309   5.661   7.042   4.906  1.1360 -0.3908  0.1518
   32MOL0     H 4310   5.699   6.763   4.859  0.8764 -1.2367  1.2412
   32MOL0     H 4311   5.602   6.844   4.984  0.6617  3.0685 -2.2369
   32MOL0     H 4312   5.586   6.586   5.013 -1.5806 -0.9004  1.1778
   32MOL0     H 4313   5.510   6.589   4.860  0.8561 -0.4649 -0.7188
   32MOL0     H 4314   5.311   6.688   4.939  0.1158 -0.0896  0.0854
   32MOL0     H 4315   5.373   6.732   5.099 -3.7745  1.5318 -1.6770
   32MOL0     H 4316   5.251   6.531   5.148  1.7588  0.8204  2.0789
   32MOL0     H 4317   5.426   6.496   5.161  0.7302 -0.3022 -0.5842
   32MOL0     H 4318   5.261   6.270   4.827 -0.8477 -1.0082  0.5353
   32MOL0     H 4319   5.478   6.887   4.540  0.8338  0.1380  0.0330
   32MOL0     H 4320   5.517   7.088   4.434 -0.4229 -3.0884 -0.4239
   33MOL0     O 4321  10.362  10.214   2.153  0.1336  0.6455  0.5524
   33MOL0     C 4322  10.345  10.124   2.237  0.6764 -1.1547 -0.5045
   33MOL0     O 4323  10.221  10.075   2.265  0.6681  0.2264 -0.0129
   33MOL0     C 4324  10.108  10.144   2.216  0.0022 -0.0574  0.1397
   33MOL0     C 4325  10.111  10.286   2.221  0.3930  0.0174 -0.4237
   33MOL0     C 4326  10.009  10.364   2.173  0.9729 -0.3437 -0.6684
   33MOL0     C 4327   9.904  10.301   2.119  0.1913 -0.5884 -0.0900
   33MOL0     O 4328   9.799  10.382   2.086  0.8656  0.5034  0.2426
   33MOL0     C 4329   9.661  10.332   2.077  0.9327  0.2766 -0.8392
   33MOL0     C 4330   9.554  10.448   2.095  0.2246  1.0179 -0.2629
   33MOL0     C 4331   9.552  10.522   1.963  0.3342  0.1428  0.2661
   33MOL0     C 4332   9.441  10.624   1.987 -0.3570 -0.6123 -0.2300
   33MOL0     C 4333   9.420  10.724   1.874  0.3112  0.1146 -0.5084
   33MOL0     C 4334   9.359  10.846   1.940  0.5505  0.7679  0.3389
   33MOL0     C 4335   9.297  10.946   1.844 -0.1715 -0.6088 -0.6694
   33MOL0     C 4336   9.394  11.040   1.779 -1.7178 -0.1288 -0.5019
   33MOL0     N 4337   9.318  11.131   1.699 -0.4968 -0.3060 -0.9273
   33MOL0     C 4338   9.361  11.250   1.663  0.0096 -1.3831 -0.3569
   33MOL0     C 4339   9.291  11.292   1.551  0.1993 -0.1041  0.1139
   33MOL0     C 4340   9.316  11.429   1.493 -0.3798  0.2739 -0.3658
   33MOL0     C 4341   9.261  11.533   1.585 -0.9281 -0.0929 -0.9593
   33MOL0     C 4342   9.123  11.493   1.646  0.3121 -0.1727  0.0503
   33MOL0     C 4343   9.013  11.483   1.527  0.4434 -1.0171  0.4010
   33MOL0     O 4344   8.879  11.478   1.583 -0.3065 -0.5843 -0.1084
   33MOL0     C 4345   8.808  11.365   1.573  0.3543  0.2560 -0.0999
   33MOL0     C 4346   8.858  11.240   1.580  0.6179 -0.4222 -0.1883
   33MOL0     C 4347   8.784  11.124   1.559  0.9454 -0.0743  0.3916
   33MOL0     C 4348   8.866  10.993   1.566  0.7592 -0.8789 -0.0355
   33MOL0     C 4349   8.641  11.139   1.535 -0.0811  0.2731 -0.3808
   33MOL0     C 4350   8.541  11.033   1.522  0.7118 -0.8044 -0.1572
   33MOL0     O 4351   8.419  11.039   1.583  0.5007  0.5992 -0.2325
   33MOL0     C 4352   8.334  10.941   1.549 -0.2322  0.2145 -0.6731
   33MOL0     C 4353   8.326  10.815   1.610 -0.3483  0.1019  0.0612
   33MOL0     C 4354   8.225  10.724   1.579  0.6338  0.2687 -0.5705
   33MOL0     C 4355   8.131  10.751   1.481  0.3531  0.0935 -0.5182
   33MOL0     O 4356   8.044  10.649   1.443  0.1767  0.3465 -0.0085
   33MOL0     C 4357   7.963  10.668   1.319 -1.0341 -0.4985 -0.2887
   33MOL0     C 4358   7.904  10.536   1.272 -0.9850  0.2783  0.9093
   33MOL0     C 4359   8.010  10.427   1.265  0.0310 -0.0379  0.9765
   33MOL0     C 4360   7.940  10.287   1.279 -0.6149  0.3977 -1.2643
   33MOL0     C 4361   8.026  10.154   1.270 -0.1301 -0.3092  0.1987
   33MOL0     C 4362   7.939  10.038   1.310 -0.2960  0.2108 -0.3687
   33MOL0     C 4363   7.985   9.919   1.230  0.4403  0.0962  0.0693
   33MOL0     C 4364   8.121   9.871   1.278 -0.4476 -0.6047  0.2169
   33MOL0    Cl 4365   8.166   9.707   1.216  0.4871 -0.3416 -0.0675
   33MOL0     C 4366   8.130  10.875   1.430 -0.7569 -0.6578  0.8739
   33MOL0     C 4367   8.233  10.977   1.462  0.2704 -0.0035 -0.2014
   33MOL0     O 4368   8.573  10.941   1.446 -0.2844 -0.6598  0.0052
   33MOL0     C 4369   8.588  11.275   1.530  0.5956 -0.0831 -0.0919
   33MOL0     C 4370   8.668  11.383   1.555  0.2141  0.2170 -0.1430
   33MOL0     N 4371   9.194  11.193   1.524 -0.5376 -0.2543  0.0055
   33MOL0     N 4372   9.221  11.094   1.605 -0.4244  1.1870 -0.3661
   33MOL0     C 4373   9.890  10.160   2.120 -0.9658 -0.0492 -1.1503
   33MOL0     C 4374   9.994  10.082   2.167  0.1778 -0.0209  0.6194
   33MOL0     C 4375  10.460  10.051   2.304  0.1109  0.3859 -1.0866
   33MOL0     C 4376  10.583  10.115   2.326 -0.8930 -0.0312  0.7813
   33MOL0     C 4377  10.685  10.059   2.394 -0.5072  0.0033 -0.0971
   33MOL0     C 4378  10.676   9.935   2.453  1.4764  0.6171  1.0978
   33MOL0     O 4379  10.769   9.864   2.509 -0.2033 -0.8705  0.0424
   33MOL0     C 4380  10.883   9.934   2.545  0.3564  0.0197 -0.3505
   33MOL0     C 4381  10.873  10.036   2.659 -0.7341  0.0573  0.5448
   33MOL0     C 4382  10.846   9.972   2.794 -0.0811 -0.3084  0.5533
   33MOL0     C 4383  10.698   9.955   2.809 -0.8469  1.0241  0.1499
   33MOL0     C 4384  10.681   9.911   2.950  0.5674  1.2515  0.6602
   33MOL0     C 4385  10.655   9.865   3.053 -0.4102 -1.1210  0.0007
   33MOL0     C 4386  10.552   9.861   2.430 -0.6161 -0.8481 -0.2783
   33MOL0     C 4387  10.444   9.925   2.371 -0.3986  0.0980  1.8733
   33MOL0     H 4388  10.186  10.351   2.265 -0.6829 -0.1812  1.8707
   33MOL0     H 4389  10.005  10.471   2.191 -3.6885 -0.5457  0.6251
   33MOL0     H 4390   9.647  10.293   1.976  1.1703  4.1917 -2.5779
   33MOL0     H 4391   9.630  10.259   2.152 -0.7851  0.2204 -1.5703
   33MOL0     H 4392   9.458  10.402   2.121  0.4706  0.9465  0.5215
   33MOL0     H 4393   9.570  10.518   2.177 -0.8835  2.1465 -0.9658
   33MOL0     H 4394   9.651  10.568   1.961 -0.1007  1.0895 -0.8368
   33MOL0     H 4395   9.534  10.466   1.871 -1.8945 -1.7654  1.7322
   33MOL0     H 4396   9.345  10.573   1.999  0.9506 -3.1244  0.1841
   33MOL0     H 4397   9.459  10.680   2.079  0.5100  0.3838 -0.9868
   33MOL0     H 4398   9.514  10.753   1.824  1.0337 -0.2191  0.6204
   33MOL0     H 4399   9.358  10.679   1.796  0.9761 -0.3306 -0.7939
   33MOL0     H 4400   9.283  10.817   2.012  1.4649 -2.3873  0.1821
   33MOL0     H 4401   9.432  10.899   2.002  0.1326  1.8368 -0.0475
   33MOL0     H 4402   9.247  10.882   1.771 -0.4024 -0.8227 -0.3292
   33MOL0     H 4403   9.221  11.000   1.900  2.1530  0.1640  1.9934
   33MOL0     H 4404   9.452  10.977   1.713 -1.9907 -1.9024  0.8748
   33MOL0     H 4405   9.454  11.095   1.852 -0.4362 -0.9858 -0.8897
   33MOL0     H 4406   9.430  11.319   1.711 -1.9657  0.5537 -0.1365
   33MOL0     H 4407   9.425  11.443   1.496 -0.5383  1.4873  0.9394
   33MOL0     H 4408   9.277  11.434   1.391 -1.8429 -1.7775  0.0346
   33MOL0     H 4409   9.257  11.634   1.542  0.9063  0.7580  0.6806
   33MOL0     H 4410   9.329  11.551   1.669 -1.4584 -2.2266 -0.0220
   33MOL0     H 4411   9.103  11.568   1.724 -1.9590  0.6610 -1.2677
   33MOL0     H 4412   9.138  11.400   1.701  2.4264  0.1079  0.0242
   33MOL0     H 4413   9.028  11.399   1.459  0.9535  1.7616 -3.2490
   33MOL0     H 4414   9.008  11.566   1.456  0.2253  0.6285  2.2504
   33MOL0     H 4415   8.967  11.245   1.586  0.6162 -2.0446  3.0590
   33MOL0     H 4416   8.800  10.913   1.601 -0.8794  0.8624  1.0899
   33MOL0     H 4417   8.885  10.964   1.463 -1.2900 -3.1697  0.1519
   33MOL0     H 4418   8.950  11.014   1.633  2.0679  2.2955 -2.3898
   33MOL0     H 4419   8.399  10.777   1.680  0.6735 -3.7755 -2.7886
   33MOL0     H 4420   8.232  10.623   1.617  1.3094  0.1580 -0.9616
   33MOL0     H 4421   7.885  10.742   1.337 -1.5914 -1.5468  1.9740
   33MOL0     H 4422   8.031  10.710   1.244 -0.4234 -1.4761 -0.2954
   33MOL0     H 4423   7.825  10.503   1.340  0.4462 -1.6350  1.7500
   33MOL0     H 4424   7.861  10.545   1.172 -0.6896 -3.6964  0.2549
   33MOL0     H 4425   8.084  10.427   1.345  2.4817 -3.3856 -1.0173
   33MOL0     H 4426   8.059  10.427   1.167 -1.9808 -0.9012 -0.0946
   33MOL0     H 4427   7.887  10.281   1.375 -1.4282  1.3443 -1.6415
   33MOL0     H 4428   7.856  10.279   1.210 -2.6729 -0.8184  1.1957
   33MOL0     H 4429   8.102  10.163   1.348  1.2769  2.3523 -1.3315
   33MOL0     H 4430   8.072  10.135   1.173 -0.3655  1.7520 -0.3803
   33MOL0     H 4431   7.956  10.013   1.415  0.4703  0.1256 -0.5120
   33MOL0     H 4432   7.835  10.051   1.277 -0.8266  0.7982  1.3915
   33MOL0     H 4433   7.970   9.936   1.123 -0.1173  3.6271  0.5955
   33MOL0     H 4434   7.923   9.836   1.265  2.3990 -0.9500  1.2641
   33MOL0     H 4435   8.116   9.861   1.387  0.6273 -1.2698  0.2151
   33MOL0     H 4436   8.207   9.938   1.270 -0.6622 -0.3510  0.0053
   33MOL0     H 4437   8.046  10.893   1.364  0.1446 -1.3262 -0.4927
   33MOL0     H 4438   8.242  11.067   1.401  1.4221  1.8529  2.5387
   33MOL0     H 4439   8.483  11.291   1.510  1.1322  0.4234 -2.9019
   33MOL0     H 4440   8.626  11.482   1.549  0.5480  0.5818  2.3646
   33MOL0     H 4441   9.794  10.121   2.086  0.0234 -1.9585 -1.9321
   33MOL0     H 4442   9.966   9.977   2.177  0.5177 -0.1014  0.7429
   33MOL0     H 4443  10.602  10.212   2.281 -0.6106 -1.2987 -2.0326
   33MOL0     H 4444  10.777  10.116   2.388 -0.2916 -0.1078  1.6143
   33MOL0     H 4445  10.949   9.857   2.586 -0.9940 -0.5907  0.7739
   33MOL0     H 4446  10.935   9.975   2.458 -0.1039  1.5035  0.0372
   33MOL0     H 4447  10.800  10.115   2.638 -0.5560  0.2177  0.5286
   33MOL0     H 4448  10.971  10.084   2.653  0.8045 -2.9500 -0.1050
   33MOL0     H 4449  10.884  10.053   2.858 -1.3938  0.0327  0.9261
   33MOL0     H 4450  10.899   9.877   2.807  0.6095  0.2736  2.2383
   33MOL0     H 4451  10.643   9.892   2.739 -3.5426 -0.1169  3.0543
   33MOL0     H 4452  10.650  10.052   2.799  0.1937  1.5644  0.2749
   33MOL0     H 4453  10.630   9.823   3.148 -5.6939  0.2078 -0.4961
   33MOL0     H 4454  10.558   9.758   2.464  1.6329 -1.3020 -1.8209
   33MOL0     H 4455  10.354   9.866   2.360  0.2847 -0.8010  0.9610
   34MOL0     O 4456  11.415   2.742  10.853 -0.7291 -0.4528 -0.1300
   34MOL0     C 4457  11.314   2.699  10.902 -0.4517 -0.5724 -0.1434
   34MOL0     O 4458  11.198   2.749  10.864 -0.4007  0.1544 -0.2189
   34MOL0     C 4459  11.178   2.862  10.786 -0.3785  0.6850  0.1251
   34MOL0     C 4460  11.247   2.887  10.666 -0.4238 -0.4117  0.6781
   34MOL0     C 4461  11.215   2.988  10.581 -0.0489  1.3941 -0.7481
   34MOL0     C 4462  11.121   3.080  10.628  0.2628 -0.0053  0.0813
   34MOL0     O 4463  11.099   3.182  10.535 -0.0783 -0.3740  0.5791
   34MOL0     C 4464  10.971   3.252  10.545 -0.0698 -0.0604  1.0683
   34MOL0     C 4465  10.966   3.339  10.413  0.4738 -0.6101 -0.9037
   34MOL0     C 4466  11.030   3.473  10.424 -0.3428 -0.1550  0.7119
   34MOL0     C 4467  10.994   3.554  10.299  0.7583  0.2655  0.3560
   34MOL0     C 4468  11.029   3.692  10.312  0.4806  0.1700  0.0968
   34MOL0     C 4469  11.012   3.797  10.193  0.2510  1.0635 -0.8849
   34MOL0     C 4470  11.106   3.759  10.078  1.5613 -0.3210 -0.9534
   34MOL0     C 4471  11.118   3.857   9.969 -0.2858  0.1748  0.4846
   34MOL0     N 4472  11.125   4.007   9.994 -0.3084 -0.0862  0.0653
   34MOL0     C 4473  11.213   4.056  10.082  0.2465  0.4648 -0.9204
   34MOL0     C 4474  11.207   4.185  10.064  0.3476  0.0947  0.6463
   34MOL0     C 4475  11.304   4.288  10.121 -0.0336 -0.2891  0.0215
   34MOL0     C 4476  11.262   4.436  10.087  0.1805 -0.0755 -0.2454
   34MOL0     C 4477  11.385   4.526  10.107  0.0615  0.1288 -0.4790
   34MOL0     C 4478  11.476   4.520   9.974  0.4425  0.2809 -0.7102
   34MOL0     O 4479  11.610   4.521   9.999 -0.3093  0.2473  0.0526
   34MOL0     C 4480  11.676   4.628  10.053  0.0243  1.4370  0.1975
   34MOL0     C 4481  11.644   4.757  10.024 -0.4186 -0.1914 -0.3700
   34MOL0     C 4482  11.700   4.867  10.091  0.0999  0.1399  0.2596
   34MOL0     C 4483  11.650   5.005  10.060  0.5212  0.2007 -0.2194
   34MOL0     C 4484  11.812   4.842  10.174 -0.2270 -0.4786 -0.0264
   34MOL0     C 4485  11.897   4.951  10.226 -1.6054  0.8428 -0.0125
   34MOL0     O 4486  11.973   4.912  10.334  0.4718  1.7104 -0.4818
   34MOL0     C 4487  12.077   4.988  10.374  0.5668  0.2796  0.1819
   34MOL0     C 4488  12.185   4.998  10.291  0.9618 -0.1825  0.4507
   34MOL0     C 4489  12.293   5.078  10.337  0.8924 -0.4739  0.3845
   34MOL0     C 4490  12.297   5.132  10.466  0.4869  0.3010  1.1520
   34MOL0     O 4491  12.408   5.201  10.498 -0.3540  0.0797  0.2831
   34MOL0     C 4492  12.430   5.327  10.444  0.4959 -0.7497  0.0258
   34MOL0     C 4493  12.349   5.440  10.513  0.5379 -0.7408  0.5547
   34MOL0     C 4494  12.376   5.576  10.446 -0.2113 -0.1888  0.6314
   34MOL0     C 4495  12.251   5.658  10.482  0.3647  0.1623 -0.6346
   34MOL0     C 4496  12.275   5.810  10.452  0.4511  0.6800  0.3660
   34MOL0     C 4497  12.159   5.900  10.488 -0.5279 -0.1907  1.2985
   34MOL0     C 4498  12.216   6.044  10.526 -0.7837 -0.3651 -0.4447
   34MOL0     C 4499  12.256   6.045  10.676 -0.5655  0.0504 -0.6056
   34MOL0    Cl 4500  12.121   6.000  10.778 -0.1971  0.3773 -0.1483
   34MOL0     C 4501  12.196   5.115  10.550  0.8795 -0.3261 -0.6644
   34MOL0     C 4502  12.081   5.049  10.502  0.2185  1.1568 -0.9086
   34MOL0     O 4503  11.901   5.070  10.185 -0.1512  0.5995  0.0230
   34MOL0     C 4504  11.851   4.710  10.192  0.8353 -0.4591 -0.1880
   34MOL0     C 4505  11.777   4.602  10.144 -0.4001  0.1491  0.4627
   34MOL0     N 4506  11.116   4.214   9.962  0.0858  0.0100 -0.0924
   34MOL0     N 4507  11.069   4.100   9.911 -0.3032  0.7192 -0.2140
   34MOL0     C 4508  11.052   3.061  10.752 -0.1532  0.3770  0.4733
   34MOL0     C 4509  11.083   2.949  10.833 -0.0006 -0.1840 -0.4239
   34MOL0     C 4510  11.321   2.572  10.969 -0.4195 -1.2837  0.1702
   34MOL0     C 4511  11.448   2.506  10.986  0.8705 -0.3667  0.5881
   34MOL0     C 4512  11.443   2.377  11.050  0.0981 -0.5169 -0.2400
   34MOL0     C 4513  11.327   2.320  11.104  0.3998  0.3014 -0.1156
   34MOL0     O 4514  11.343   2.202  11.170 -0.3771  0.7314 -1.1007
   34MOL0     C 4515  11.237   2.100  11.158 -0.1228 -0.4573 -0.5056
   34MOL0     C 4516  11.205   2.054  11.013 -0.8487 -0.3272 -0.4192
   34MOL0     C 4517  11.101   1.947  11.022  1.1705 -0.2804 -0.3542
   34MOL0     C 4518  11.067   1.908  10.871 -0.0700  0.0264  0.3338
   34MOL0     C 4519  11.021   2.020  10.789  0.2010 -0.8199 -0.8237
   34MOL0     C 4520  10.977   2.112  10.718 -1.3069  0.0968  0.4692
   34MOL0     C 4521  11.209   2.394  11.080 -0.0351 -0.4800  1.1144
   34MOL0     C 4522  11.201   2.510  11.003 -0.4163  0.3772 -0.1474
   34MOL0     H 4523  11.312   2.808  10.630 -0.4559 -0.1950  0.1371
   34MOL0     H 4524  11.273   3.000  10.490  0.3998  1.8491 -0.4041
   34MOL0     H 4525  10.889   3.179  10.537  1.4644 -1.7248 -0.2501
   34MOL0     H 4526  10.965   3.300  10.643 -1.0165 -2.6057  2.3410
   34MOL0     H 4527  11.014   3.284  10.332  1.7047 -0.5138 -0.2696
   34MOL0     H 4528  10.865   3.355  10.376  0.1543 -2.4616 -0.8768
   34MOL0     H 4529  10.987   3.531  10.507 -3.3987  0.2554 -1.0392
   34MOL0     H 4530  11.136   3.484  10.452 -0.3452  1.9795  0.0915
   34MOL0     H 4531  11.048   3.501  10.220  0.1063 -1.2454  0.8808
   34MOL0     H 4532  10.890   3.542  10.269  1.4878  0.0015 -2.3081
   34MOL0     H 4533  10.959   3.738  10.381  0.0960 -0.0978 -0.1150
   34MOL0     H 4534  11.124   3.706  10.364 -0.5899  1.4749  1.8205
   34MOL0     H 4535  10.907   3.801  10.162 -0.2997 -1.5751  0.3967
   34MOL0     H 4536  11.035   3.899  10.225 -0.2279  0.8186  0.2760
   34MOL0     H 4537  11.204   3.764  10.126  1.3111  2.0250 -0.6008
   34MOL0     H 4538  11.095   3.662  10.028  1.6853  1.0511 -3.7960
   34MOL0     H 4539  11.026   3.836   9.914 -2.4226  1.4187  3.3042
   34MOL0     H 4540  11.206   3.826   9.913  1.9188  1.9132  2.7461
   34MOL0     H 4541  11.274   4.012  10.160 -1.3777 -1.7756 -0.7917
   34MOL0     H 4542  11.310   4.282  10.230 -0.6445  1.4985  0.1911
   34MOL0     H 4543  11.402   4.276  10.074  0.3070  0.6466  0.4655
   34MOL0     H 4544  11.186   4.478  10.153  2.7306 -1.2383  3.7807
   34MOL0     H 4545  11.232   4.445   9.982  1.2705 -0.7577 -0.6396
   34MOL0     H 4546  11.443   4.480  10.187  1.3158  0.2745 -1.2668
   34MOL0     H 4547  11.370   4.631  10.133 -1.2415 -0.8666  3.3812
   34MOL0     H 4548  11.449   4.594   9.898  4.2051 -1.5477 -4.1600
   34MOL0     H 4549  11.455   4.424   9.926 -3.0056 -0.4163  1.7784
   34MOL0     H 4550  11.568   4.787   9.953  0.2194  0.9634 -0.5859
   34MOL0     H 4551  11.542   4.997  10.046  0.1106 -0.6014  2.8319
   34MOL0     H 4552  11.674   5.079  10.136  2.4834  0.5529 -1.1146
   34MOL0     H 4553  11.697   5.037   9.966  2.3233  0.1553  0.6143
   34MOL0     H 4554  12.193   4.956  10.191  1.3877 -0.9074  0.7846
   34MOL0     H 4555  12.381   5.096  10.275  0.2034 -2.9651 -1.4652
   34MOL0     H 4556  12.535   5.341  10.470  0.1849 -0.1232  0.9584
   34MOL0     H 4557  12.415   5.331  10.335  1.2426  2.4456 -0.0482
   34MOL0     H 4558  12.243   5.414  10.505  0.7923 -2.5291  2.2853
   34MOL0     H 4559  12.371   5.454  10.619 -0.7533  2.4591  0.5108
   34MOL0     H 4560  12.397   5.555  10.340  1.2886 -1.5034  1.1535
   34MOL0     H 4561  12.468   5.620  10.485  2.5014 -1.6988 -3.3994
   34MOL0     H 4562  12.157   5.618  10.443  0.4476  0.1693 -0.8456
   34MOL0     H 4563  12.235   5.659  10.590  0.7512  5.0652 -0.4104
   34MOL0     H 4564  12.288   5.818  10.344  1.7195 -2.2187  0.2146
   34MOL0     H 4565  12.366   5.852  10.495  1.2254  1.5023 -1.9217
   34MOL0     H 4566  12.102   5.905  10.395  3.7012  0.9913 -1.5151
   34MOL0     H 4567  12.100   5.843  10.560 -0.1937 -2.6325 -0.2777
   34MOL0     H 4568  12.133   6.114  10.523  0.1737  0.9948  1.7681
   34MOL0     H 4569  12.298   6.076  10.461 -0.7179  1.5769  0.5127
   34MOL0     H 4570  12.289   6.148  10.684 -0.7772  0.3870 -3.1213
   34MOL0     H 4571  12.350   5.989  10.686 -0.9395 -0.8382 -1.7540
   34MOL0     H 4572  12.191   5.167  10.645  0.5614 -1.7421  0.1236
   34MOL0     H 4573  11.991   5.043  10.562  0.7075 -1.0575 -0.3126
   34MOL0     H 4574  11.945   4.693  10.243  1.4288  0.6118 -0.8787
   34MOL0     H 4575  11.809   4.499  10.160  0.5977  0.5451  1.1043
   34MOL0     H 4576  10.979   3.132  10.790 -0.8259  0.1715 -0.3860
   34MOL0     H 4577  11.020   2.928  10.919 -1.4608  0.5300 -1.2885
   34MOL0     H 4578  11.539   2.550  10.946 -0.9503  3.4893  0.3140
   34MOL0     H 4579  11.534   2.325  11.076 -1.3719 -2.1421  2.0309
   34MOL0     H 4580  11.276   2.011  11.208 -0.6355  0.5055  1.7399
   34MOL0     H 4581  11.149   2.140  11.210  2.7224  2.6385  2.3962
   34MOL0     H 4582  11.293   2.006  10.970  0.7646 -0.7254  3.0324
   34MOL0     H 4583  11.172   2.136  10.948 -2.6358 -1.2648 -0.7638
   34MOL0     H 4584  11.022   1.992  11.082  3.7307  2.4749  1.2376
   34MOL0     H 4585  11.130   1.857  11.078 -0.4146 -0.1359  0.7670
   34MOL0     H 4586  10.992   1.829  10.871  2.3453 -2.4471  0.5221
   34MOL0     H 4587  11.158   1.870  10.823  0.1801  0.1917  0.6717
   34MOL0     H 4588  10.951   2.191  10.650 -0.2394 -0.6340 -0.8410
   34MOL0     H 4589  11.119   2.347  11.120  0.0748  0.7891  3.0237
   34MOL0     H 4590  11.102   2.543  10.971  0.3287  1.8487 -1.0220
   35MOL0     O 4591   8.975   9.820  11.368  0.8332  0.9755  0.3677
   35MOL0     C 4592   8.897   9.723  11.363 -0.1057  0.9998  0.8833
   35MOL0     O 4593   8.752   9.729  11.357 -0.8097 -0.0962 -0.3268
   35MOL0     C 4594   8.686   9.849  11.371 -0.4412  0.5626 -0.3382
   35MOL0     C 4595   8.595   9.872  11.477  0.3136 -1.0479 -0.0058
   35MOL0     C 4596   8.516   9.990  11.493 -0.0374  0.5108 -0.3436
   35MOL0     C 4597   8.518  10.086  11.394 -0.9757  0.0232  0.1290
   35MOL0     O 4598   8.430  10.186  11.395 -0.4346 -0.2122 -0.5282
   35MOL0     C 4599   8.292  10.167  11.416 -1.0904 -0.2793  0.1208
   35MOL0     C 4600   8.227  10.296  11.451  0.3127 -1.4355  0.2041
   35MOL0     C 4601   8.075  10.279  11.472  0.9586  0.1306  0.0374
   35MOL0     C 4602   7.997  10.187  11.374 -0.2295 -0.3908 -0.3407
   35MOL0     C 4603   7.846  10.161  11.406  0.1363 -0.7311 -0.2193
   35MOL0     C 4604   7.769  10.291  11.401  0.4021 -0.2538 -1.0840
   35MOL0     C 4605   7.620  10.281  11.378  0.2082  0.5264 -0.1216
   35MOL0     C 4606   7.556  10.281  11.232  0.3411 -1.1007 -0.1099
   35MOL0     N 4607   7.458  10.176  11.201 -0.4214  0.1895  0.8868
   35MOL0     C 4608   7.477  10.057  11.141  0.7988  0.1670  0.0138
   35MOL0     C 4609   7.358   9.988  11.161  0.4627 -0.7295  0.0501
   35MOL0     C 4610   7.337   9.837  11.139 -0.4528  0.0706  0.2389
   35MOL0     C 4611   7.440   9.797  11.041 -0.4961  0.6945 -0.1328
   35MOL0     C 4612   7.415   9.647  10.988  1.2568  0.6988  0.0628
   35MOL0     C 4613   7.347   9.641  10.842 -0.3307 -0.3283 -0.2285
   35MOL0     O 4614   7.432   9.717  10.756  0.5150  0.2015  0.1708
   35MOL0     C 4615   7.545   9.652  10.722 -0.0382 -0.5880 -0.6008
   35MOL0     C 4616   7.574   9.524  10.662  0.6420 -0.4778  0.1876
   35MOL0     C 4617   7.704   9.486  10.616  0.3477  0.0403 -1.3473
   35MOL0     C 4618   7.710   9.361  10.542 -0.3001 -0.2780  0.6255
   35MOL0     C 4619   7.810   9.567  10.648 -0.1117 -0.0151  0.4299
   35MOL0     C 4620   7.947   9.537  10.620  0.5577  0.2757 -0.0558
   35MOL0     O 4621   8.027   9.657  10.603 -0.1523  0.1495  0.0540
   35MOL0     C 4622   8.150   9.622  10.552 -0.7093  0.3824 -1.1655
   35MOL0     C 4623   8.185   9.621  10.414  0.0878  0.5548 -0.1300
   35MOL0     C 4624   8.316   9.589  10.372  1.2863  0.0733 -0.7238
   35MOL0     C 4625   8.407   9.556  10.465 -1.6718 -0.6249 -1.3483
   35MOL0     O 4626   8.532   9.512  10.429  0.0266 -0.5184 -0.7038
   35MOL0     C 4627   8.546   9.412  10.336  0.1104 -0.2206 -0.5962
   35MOL0     C 4628   8.664   9.331  10.354 -0.2678 -0.0564  0.0644
   35MOL0     C 4629   8.797   9.388  10.306  0.2303  0.0234 -0.3933
   35MOL0     C 4630   8.855   9.327  10.177 -0.6653 -0.5468 -0.8160
   35MOL0     C 4631   9.005   9.356  10.166  0.3620  0.5881  0.2113
   35MOL0     C 4632   9.113   9.247  10.162 -0.0030  0.5606 -0.9432
   35MOL0     C 4633   9.088   9.155  10.039 -0.2903  0.1018  0.5053
   35MOL0     C 4634   9.185   9.038  10.032 -0.0987 -0.3767 -0.9543
   35MOL0    Cl 4635   9.323   9.096   9.945 -0.2203 -0.4090 -0.2295
   35MOL0     C 4636   8.376   9.561  10.602 -0.4321  0.3194  0.3692
   35MOL0     C 4637   8.254   9.600  10.645  0.4614 -0.3563 -0.5409
   35MOL0     O 4638   7.984   9.423  10.596 -0.2862  0.7473  0.2086
   35MOL0     C 4639   7.787   9.694  10.732 -0.3805  0.1851  0.2947
   35MOL0     C 4640   7.654   9.736  10.744  0.3278  0.1748 -0.3539
   35MOL0     N 4641   7.271  10.081  11.203  0.1080 -0.0289 -0.5227
   35MOL0     N 4642   7.327  10.188  11.225 -0.3738 -0.1745 -0.3925
   35MOL0     C 4643   8.602  10.072  11.285  0.1254  0.5226  0.4501
   35MOL0     C 4644   8.684   9.954  11.273 -0.1512 -0.4109  0.1583
   35MOL0     C 4645   8.949   9.585  11.351 -0.4211 -0.3509  0.6578
   35MOL0     C 4646   9.087   9.566  11.311 -0.4451 -0.9663  0.0456
   35MOL0     C 4647   9.142   9.438  11.303  0.9022  0.1994 -0.6883
   35MOL0     C 4648   9.064   9.326  11.320  0.4512  0.1241  0.2680
   35MOL0     O 4649   9.118   9.201  11.310 -0.1071 -0.1191  0.4093
   35MOL0     C 4650   9.036   9.088  11.274 -0.6698 -0.8650 -0.0435
   35MOL0     C 4651   9.126   8.967  11.232  0.8982  0.3296 -0.2448
   35MOL0     C 4652   9.250   9.009  11.164 -1.0497 -0.1097  0.8984
   35MOL0     C 4653   9.349   8.892  11.135  0.0002  0.0208  0.2785
   35MOL0     C 4654   9.482   8.954  11.101  0.3810  0.0383  0.7687
   35MOL0     C 4655   9.593   8.998  11.084  0.2651  0.0665  0.2798
   35MOL0     C 4656   8.923   9.341  11.357  0.8884 -0.3374  0.5574
   35MOL0     C 4657   8.868   9.476  11.380 -1.3091  0.2183 -0.2180
   35MOL0     H 4658   8.596   9.818  11.571  0.3557  2.2722  2.0752
   35MOL0     H 4659   8.452   9.996  11.580  1.5433 -0.5056  0.9364
   35MOL0     H 4660   8.258  10.116  11.325 -3.8163 -0.1044  0.9613
   35MOL0     H 4661   8.277  10.102  11.502  3.7880  1.9448  3.1173
   35MOL0     H 4662   8.257  10.341  11.546 -1.3423  1.6307 -0.5967
   35MOL0     H 4663   8.227  10.363  11.364  0.7617 -0.9770  0.5514
   35MOL0     H 4664   8.049  10.241  11.571  0.2251  0.0810 -0.1731
   35MOL0     H 4665   8.042  10.383  11.476  1.9998  0.4540  1.3129
   35MOL0     H 4666   7.993  10.231  11.274 -1.1834 -0.4168 -0.3249
   35MOL0     H 4667   8.033  10.084  11.382  3.1587  0.5665 -1.6574
   35MOL0     H 4668   7.807  10.093  11.329 -1.3285 -0.2543  0.0641
   35MOL0     H 4669   7.825  10.109  11.500 -0.5518 -0.3387 -0.1444
   35MOL0     H 4670   7.778  10.349  11.493 -1.5860  0.1665 -1.1009
   35MOL0     H 4671   7.801  10.361  11.325 -0.7839 -0.0658 -1.4370
   35MOL0     H 4672   7.595  10.183  11.420 -2.6065  1.0158 -0.4083
   35MOL0     H 4673   7.577  10.358  11.442  0.1161 -1.1269  1.9195
   35MOL0     H 4674   7.637  10.259  11.162  0.6024  2.6831 -1.2713
   35MOL0     H 4675   7.535  10.385  11.205  2.2366 -1.1960 -2.2345
   35MOL0     H 4676   7.570  10.027  11.093  1.4966  1.0630  0.7813
   35MOL0     H 4677   7.359   9.778  11.228  0.0162  1.3970  1.0364
   35MOL0     H 4678   7.238   9.811  11.102 -0.0906  1.1181 -1.5947
   35MOL0     H 4679   7.546   9.794  11.068 -0.2026 -0.7564 -1.2996
   35MOL0     H 4680   7.428   9.853  10.948 -1.0060 -3.9605 -3.2420
   35MOL0     H 4681   7.344   9.599  11.055  2.5717 -0.5049  0.6479
   35MOL0     H 4682   7.509   9.592  10.976  0.5259 -0.5438 -0.1855
   35MOL0     H 4683   7.246   9.682  10.839 -1.9083 -3.5745  2.5690
   35MOL0     H 4684   7.340   9.535  10.818  2.0721 -1.1066  2.0350
   35MOL0     H 4685   7.491   9.460  10.633  0.2555  1.6146 -4.1649
   35MOL0     H 4686   7.763   9.379  10.448 -0.0470 -0.8756  0.6460
   35MOL0     H 4687   7.767   9.280  10.589  2.6911  1.8484  0.9767
   35MOL0     H 4688   7.616   9.312  10.516  1.1826 -1.5973 -2.9625
   35MOL0     H 4689   8.109   9.656  10.344  2.3266  0.6762 -2.6506
   35MOL0     H 4690   8.340   9.567  10.268  1.2201 -1.1242 -0.5026
   35MOL0     H 4691   8.457   9.348  10.343 -0.3820  0.2821 -2.0045
   35MOL0     H 4692   8.531   9.457  10.238 -4.5009  0.7836  0.3447
   35MOL0     H 4693   8.675   9.309  10.460 -2.9625  1.2796  0.7068
   35MOL0     H 4694   8.653   9.235  10.301  0.0410  0.7153 -1.4698
   35MOL0     H 4695   8.866   9.359  10.386 -0.6592 -0.8340  0.0885
   35MOL0     H 4696   8.783   9.495  10.293 -3.6928 -0.1358  1.0346
   35MOL0     H 4697   8.844   9.218  10.173 -1.2831 -0.4523 -2.9966
   35MOL0     H 4698   8.801   9.369  10.092  0.1537  2.9441  0.2256
   35MOL0     H 4699   9.031   9.418  10.252 -2.6215  0.0173  1.6450
   35MOL0     H 4700   9.024   9.411  10.073 -1.8598 -0.0427 -0.6952
   35MOL0     H 4701   9.216   9.283  10.161  1.2829 -2.0455  3.9061
   35MOL0     H 4702   9.102   9.188  10.254  1.0917  2.5562  0.5431
   35MOL0     H 4703   9.115   9.221   9.956  2.9445  0.5840  1.8294
   35MOL0     H 4704   8.984   9.125  10.020  0.2662 -1.2563 -0.4899
   35MOL0     H 4705   9.135   8.946  10.000 -1.0309 -0.9094  1.7760
   35MOL0     H 4706   9.214   9.011  10.134  0.9294 -2.9698 -1.8281
   35MOL0     H 4707   8.451   9.516  10.667 -1.2154 -1.7109 -0.0613
   35MOL0     H 4708   8.242   9.612  10.752 -2.1492  1.8921 -0.9650
   35MOL0     H 4709   7.871   9.759  10.754  2.1560 -2.4051 -1.0578
   35MOL0     H 4710   7.629   9.838  10.773 -1.3096 -0.6698  1.3796
   35MOL0     H 4711   8.586  10.141  11.203  2.4486 -0.1596 -0.6756
   35MOL0     H 4712   8.744   9.961  11.183 -1.8261 -2.3560 -1.2057
   35MOL0     H 4713   9.152   9.650  11.290  0.6010 -1.0209  2.6440
   35MOL0     H 4714   9.247   9.438  11.278  1.5462  2.0664  1.7030
   35MOL0     H 4715   8.971   9.065  11.359 -2.2801  0.8097 -0.7565
   35MOL0     H 4716   8.979   9.130  11.191  0.9759  3.9275  0.9003
   35MOL0     H 4717   9.065   8.920  11.155  0.2654 -0.4071  0.6900
   35MOL0     H 4718   9.132   8.894  11.314  2.8757  0.2630 -0.3998
   35MOL0     H 4719   9.300   9.083  11.227 -4.6198  1.2040  2.4437
   35MOL0     H 4720   9.226   9.061  11.071  1.8913 -1.7059 -0.9054
   35MOL0     H 4721   9.318   8.842  11.043  1.5243  1.5006 -1.1213
   35MOL0     H 4722   9.359   8.813  11.210  1.0519 -0.5738 -0.4574
   35MOL0     H 4723   9.696   9.025  11.089  1.1015 -2.9281  1.8249
   35MOL0     H 4724   8.860   9.254  11.369  1.7324 -1.2807 -1.3951
   35MOL0     H 4725   8.762   9.485  11.404 -1.3278 -2.7820  1.3953
   36MOL0     O 4726   1.200   9.829   1.529 -0.5169  0.8487 -0.0529
   36MOL0     C 4727   1.131   9.841   1.434 -0.4226  0.3819 -0.5917
   36MOL0     O 4728   1.020   9.763   1.412 -0.3475  0.3231  0.4481
   36MOL0     C 4729   0.993   9.677   1.512 -0.3408 -0.1101  0.7539
   36MOL0     C 4730   0.946   9.725   1.641  0.5638 -0.0100  1.2737
   36MOL0     C 4731   0.907   9.641   1.737  1.1401  0.2395 -0.4800
   36MOL0     C 4732   0.919   9.501   1.717  0.0441 -0.0866  0.6969
   36MOL0     O 4733   0.895   9.403   1.811  0.0559 -1.3348  0.4003
   36MOL0     C 4734   0.854   9.436   1.945  0.4684 -0.5111 -0.5594
   36MOL0     C 4735   0.986   9.489   2.015 -0.2840  0.8203 -0.4821
   36MOL0     C 4736   0.960   9.475   2.164  0.5972 -0.7404 -0.7909
   36MOL0     C 4737   0.948   9.324   2.210 -0.6032 -0.1728 -0.0622
   36MOL0     C 4738   0.960   9.310   2.364  0.0572  0.6984 -0.5178
   36MOL0     C 4739   1.081   9.367   2.442 -0.0857  0.2120  0.6888
   36MOL0     C 4740   1.092   9.294   2.576  0.1343  0.3570  0.7545
   36MOL0     C 4741   0.973   9.321   2.675 -0.8184  0.2143  0.7292
   36MOL0     N 4742   1.004   9.253   2.797  0.6061 -1.5107 -0.6333
   36MOL0     C 4743   1.113   9.259   2.877 -0.2167  1.2575 -0.4018
   36MOL0     C 4744   1.111   9.148   2.952 -0.5044  1.1707  0.4165
   36MOL0     C 4745   1.226   9.096   3.038  0.6567 -0.1240 -0.0330
   36MOL0     C 4746   1.299   8.993   2.959  0.3528  1.1764 -0.0772
   36MOL0     C 4747   1.455   8.988   2.997 -0.1260  0.6178 -0.5313
   36MOL0     C 4748   1.524   8.888   2.903 -0.0876 -0.0789 -0.1042
   36MOL0     O 4749   1.518   8.927   2.758  1.0946  0.4805 -0.6536
   36MOL0     C 4750   1.566   9.044   2.731  0.2878 -1.1522 -0.2206
   36MOL0     C 4751   1.510   9.114   2.625  0.2399  0.9970 -0.0625
   36MOL0     C 4752   1.569   9.239   2.581  0.0920  0.8895  0.5343
   36MOL0     C 4753   1.503   9.313   2.452 -0.4069 -0.6767  0.2293
   36MOL0     C 4754   1.679   9.299   2.642 -0.4076  0.2385 -0.2710
   36MOL0     C 4755   1.742   9.433   2.630 -0.7247  0.0045 -0.2124
   36MOL0     O 4756   1.823   9.493   2.728  0.5054  0.1092  0.2203
   36MOL0     C 4757   1.907   9.589   2.696 -0.0776 -1.6496  0.2877
   36MOL0     C 4758   1.866   9.718   2.656 -0.0584  0.0165  0.1664
   36MOL0     C 4759   1.961   9.821   2.651  0.4081 -0.0298 -0.3910
   36MOL0     C 4760   2.099   9.791   2.655 -0.7367  0.3134 -0.1940
   36MOL0     O 4761   2.205   9.868   2.630 -0.1980 -0.3110  0.1618
   36MOL0     C 4762   2.172   9.995   2.574  0.0077  1.4615  0.7191
   36MOL0     C 4763   2.291  10.066   2.535  0.0424 -0.5367 -0.2080
   36MOL0     C 4764   2.397   9.976   2.460  0.3330  0.0689  0.2424
   36MOL0     C 4765   2.530  10.047   2.454  0.3848 -0.3723 -0.8030
   36MOL0     C 4766   2.625   9.979   2.345 -0.5416  0.3360 -0.0407
   36MOL0     C 4767   2.605  10.043   2.206 -0.4183 -0.0882 -0.4337
   36MOL0     C 4768   2.629   9.942   2.097 -0.0208 -0.4030 -0.5806
   36MOL0     C 4769   2.648  10.003   1.955 -0.1231 -0.0355 -0.0898
   36MOL0    Cl 4770   2.787  10.116   1.957 -0.2376  0.1997 -0.3190
   36MOL0     C 4771   2.133   9.662   2.688 -0.5162  0.4435 -1.4139
   36MOL0     C 4772   2.039   9.562   2.713  0.1434 -0.0447  0.0588
   36MOL0     O 4773   1.734   9.466   2.511 -0.4225 -0.6355 -0.3594
   36MOL0     C 4774   1.746   9.218   2.734 -0.2740  0.6725 -0.6107
   36MOL0     C 4775   1.690   9.096   2.779 -0.1013  0.0296 -0.8358
   36MOL0     N 4776   1.002   9.080   2.912  0.1136  0.3400  0.4581
   36MOL0     N 4777   0.935   9.142   2.830  0.1504 -0.8428  0.0549
   36MOL0     C 4778   0.953   9.464   1.585 -0.5170  0.3890 -0.0289
   36MOL0     C 4779   0.984   9.552   1.483  0.0972  1.4933  0.7602
   36MOL0     C 4780   1.154   9.961   1.344  1.0511 -1.0356  1.4624
   36MOL0     C 4781   1.111   9.958   1.212 -0.8523  0.1561  1.1640
   36MOL0     C 4782   1.148  10.059   1.116  0.1186  0.4296 -0.5268
   36MOL0     C 4783   1.217  10.174   1.157  0.4244 -0.6138 -0.2597
   36MOL0     O 4784   1.255  10.268   1.060 -0.0219 -0.3628  0.5747
   36MOL0     C 4785   1.324  10.381   1.097  0.7408 -0.2642 -0.6098
   36MOL0     C 4786   1.241  10.474   1.168  0.7482  0.0839 -0.2223
   36MOL0     C 4787   1.135  10.549   1.076 -0.1451 -0.7187 -0.7149
   36MOL0     C 4788   1.028  10.621   1.170  0.4775  0.3005  0.1890
   36MOL0     C 4789   1.090  10.741   1.228  0.3593 -0.3649  0.5884
   36MOL0     C 4790   1.121  10.828   1.303  0.8876 -0.6430 -0.4479
   36MOL0     C 4791   1.259  10.180   1.289 -0.5510  0.0669 -0.2034
   36MOL0     C 4792   1.223  10.077   1.388  0.3859 -0.4545  0.5596
   36MOL0     H 4793   0.952   9.832   1.653  1.1990 -0.0229  1.1498
   36MOL0     H 4794   0.865   9.685   1.826  0.1964  0.4064 -0.9971
   36MOL0     H 4795   0.772   9.506   1.964  0.4828 -0.4482 -0.7371
   36MOL0     H 4796   0.813   9.341   1.981 -4.1570  0.7671 -1.7173
   36MOL0     H 4797   1.072   9.429   1.984 -0.4342 -0.6526  1.7583
   36MOL0     H 4798   1.020   9.592   1.998  1.1369  0.9540  2.6551
   36MOL0     H 4799   1.045   9.516   2.219  0.2834  1.3900 -1.7677
   36MOL0     H 4800   0.868   9.522   2.198  1.6431 -0.2641  1.5576
   36MOL0     H 4801   0.859   9.273   2.172 -0.6116  1.8448 -3.0460
   36MOL0     H 4802   1.044   9.283   2.178 -0.5262 -1.0661  1.2257
   36MOL0     H 4803   0.861   9.332   2.406 -0.2915 -3.2591  1.1778
   36MOL0     H 4804   0.961   9.205   2.395 -0.0882  1.7841  3.8622
   36MOL0     H 4805   1.166   9.345   2.376 -1.0360 -0.0841 -0.4870
   36MOL0     H 4806   1.069   9.473   2.463  3.0261  0.7529  0.2802
   36MOL0     H 4807   1.087   9.189   2.547 -0.5919  1.2099 -2.6196
   36MOL0     H 4808   1.183   9.328   2.625 -0.8655  1.4259  1.9542
   36MOL0     H 4809   0.874   9.296   2.634 -1.2393 -0.8901  2.3196
   36MOL0     H 4810   0.969   9.429   2.686 -2.1895  0.2925 -0.2163
   36MOL0     H 4811   1.196   9.328   2.874  0.6305  0.2178 -1.8334
   36MOL0     H 4812   1.301   9.172   3.060  0.2852  0.9258 -2.1682
   36MOL0     H 4813   1.178   9.055   3.128  2.0296 -1.8691 -0.0373
   36MOL0     H 4814   1.279   9.008   2.853 -2.4845 -0.5052  0.1316
   36MOL0     H 4815   1.256   8.895   2.983 -1.2851  2.3106  1.9525
   36MOL0     H 4816   1.478   8.964   3.101  1.3932  0.8289 -0.7962
   36MOL0     H 4817   1.492   9.090   2.982 -4.3313  2.7800  1.8675
   36MOL0     H 4818   1.466   8.796   2.911 -3.3468  1.9237  0.9591
   36MOL0     H 4819   1.631   8.879   2.924  0.2915  0.7855 -1.5086
   36MOL0     H 4820   1.432   9.055   2.579  0.2917 -2.3505  3.5814
   36MOL0     H 4821   1.569   9.332   2.366 -1.1421  0.3285 -0.1275
   36MOL0     H 4822   1.429   9.242   2.413 -3.6294  2.0595  0.9323
   36MOL0     H 4823   1.448   9.402   2.483 -2.0405 -1.0327 -1.4744
   36MOL0     H 4824   1.760   9.720   2.638 -0.1613 -1.2495  0.5519
   36MOL0     H 4825   1.927   9.923   2.634 -1.9930 -0.9465 -1.5446
   36MOL0     H 4826   2.114   9.986   2.482 -3.4127 -1.0886  2.8826
   36MOL0     H 4827   2.110  10.046   2.648  1.0651  0.0305  2.6790
   36MOL0     H 4828   2.270  10.145   2.462 -1.5544 -2.4596 -1.9469
   36MOL0     H 4829   2.332  10.105   2.628  0.8127  1.0813 -1.1770
   36MOL0     H 4830   2.364   9.962   2.356  0.3390  2.3535 -0.1283
   36MOL0     H 4831   2.397   9.878   2.509 -1.1040 -0.0386  0.0463
   36MOL0     H 4832   2.514  10.147   2.413 -2.8783 -0.9531 -1.2612
   36MOL0     H 4833   2.571  10.051   2.555 -1.2276  0.2997 -0.1298
   36MOL0     H 4834   2.606   9.871   2.346  2.3498 -0.2991  2.4690
   36MOL0     H 4835   2.725   9.983   2.389 -1.0739  0.3736  1.2191
   36MOL0     H 4836   2.507  10.090   2.193  0.2321  1.2636 -0.7224
   36MOL0     H 4837   2.684  10.120   2.205 -2.2555  1.9004 -1.6464
   36MOL0     H 4838   2.547   9.869   2.094  0.2577 -0.7107 -0.9272
   36MOL0     H 4839   2.708   9.867   2.101  0.4204  0.0858 -0.0346
   36MOL0     H 4840   2.560  10.067   1.941 -0.8097 -0.7995  0.5951
   36MOL0     H 4841   2.648   9.925   1.877 -2.1703  0.6251 -0.8175
   36MOL0     H 4842   2.239   9.643   2.698 -0.4705  1.1030 -0.4685
   36MOL0     H 4843   2.079   9.463   2.735 -1.8302 -1.1515 -1.0346
   36MOL0     H 4844   1.841   9.250   2.777  0.8991 -2.8793 -0.2495
   36MOL0     H 4845   1.745   9.039   2.853 -0.0970  1.3196  0.1892
   36MOL0     H 4846   0.940   9.359   1.562 -1.1045  0.5581 -0.4772
   36MOL0     H 4847   0.997   9.509   1.384 -0.6879 -0.3326  1.4125
   36MOL0     H 4848   1.049   9.877   1.173 -0.1295  0.6474 -1.1550
   36MOL0     H 4849   1.111  10.058   1.014  2.6891  2.1174 -1.5535
   36MOL0     H 4850   1.407  10.357   1.165 -0.5582 -0.5628  0.9199
   36MOL0     H 4851   1.362  10.433   1.008 -0.0448 -2.9162 -2.6449
   36MOL0     H 4852   1.305  10.537   1.231 -1.1405 -0.0121  1.9300
   36MOL0     H 4853   1.185  10.424   1.247 -2.1355  5.4043  1.6372
   36MOL0     H 4854   1.088  10.464   1.026 -2.1131 -2.1588  3.1749
   36MOL0     H 4855   1.189  10.615   1.008 -2.1393  2.1821  0.3176
   36MOL0     H 4856   0.987  10.545   1.238 -2.1761  0.7644 -0.7809
   36MOL0     H 4857   0.949  10.654   1.102  2.6480 -2.1678 -3.9610
   36MOL0     H 4858   1.153  10.900   1.376 -1.0658  1.5010 -1.5836
   36MOL0     H 4859   1.320  10.263   1.323  0.4440 -1.2096  1.2726
   36MOL0     H 4860   1.255  10.085   1.492 -0.1916 -0.6910  0.7597
   37MOL0     O 4861   3.940   7.808   5.120 -0.0135  0.2889 -0.4543
   37MOL0     C 4862   3.932   7.930   5.136  0.2463  0.7954  0.8156
   37MOL0     O 4863   3.828   8.002   5.107  0.0345  0.4665  0.3131
   37MOL0     C 4864   3.709   7.936   5.086  0.0125  1.0972 -0.3479
   37MOL0     C 4865   3.633   7.981   4.972  0.3533 -0.1214 -0.3617
   37MOL0     C 4866   3.508   7.928   4.940  1.0931 -0.4508  0.2283
   37MOL0     C 4867   3.453   7.832   5.018 -0.1595  0.6917 -0.3702
   37MOL0     O 4868   3.323   7.786   4.986  0.0316  0.0398  0.5101
   37MOL0     C 4869   3.298   7.646   5.000  0.0315 -0.3086 -0.9007
   37MOL0     C 4870   3.368   7.568   4.891  0.8801  0.2391 -0.5290
   37MOL0     C 4871   3.375   7.623   4.752 -0.3040  0.0346 -0.9943
   37MOL0     C 4872   3.483   7.563   4.661  0.8074  0.7114  0.6890
   37MOL0     C 4873   3.608   7.650   4.660 -0.4883 -1.2075  1.3354
   37MOL0     C 4874   3.702   7.646   4.791 -0.0861  0.0849 -0.2632
   37MOL0     C 4875   3.829   7.738   4.778  0.5435 -0.1104 -1.0674
   37MOL0     C 4876   3.933   7.673   4.688 -0.3023  0.9848  0.0536
   37MOL0     N 4877   4.069   7.706   4.714 -0.3564 -0.4412 -0.6780
   37MOL0     C 4878   4.125   7.685   4.844  0.7524 -0.7114  1.0552
   37MOL0     C 4879   4.234   7.758   4.851  0.7893 -0.1637 -0.7795
   37MOL0     C 4880   4.319   7.754   4.967  0.6338 -0.0206  0.0866
   37MOL0     C 4881   4.389   7.883   5.004 -0.6178 -0.4870 -0.2516
   37MOL0     C 4882   4.488   7.873   5.120  0.5304 -0.5533  0.6681
   37MOL0     C 4883   4.576   8.007   5.135  0.0921 -0.3608 -0.2308
   37MOL0     O 4884   4.624   8.017   5.273 -0.1453 -0.2007 -0.2685
   37MOL0     C 4885   4.695   8.130   5.318 -0.7404 -0.1113 -0.3372
   37MOL0     C 4886   4.691   8.256   5.260  0.2934 -0.4706  0.1562
   37MOL0     C 4887   4.773   8.356   5.301 -0.4011  0.0210 -0.1645
   37MOL0     C 4888   4.754   8.489   5.233  0.1387 -0.1371 -0.0075
   37MOL0     C 4889   4.866   8.327   5.410  0.3322 -0.7249  0.1753
   37MOL0     C 4890   4.944   8.424   5.489  0.0199 -0.3305  1.3117
   37MOL0     O 4891   5.014   8.375   5.594 -0.3308  0.1583  0.8730
   37MOL0     C 4892   5.121   8.446   5.630  0.1684  0.0030  0.3972
   37MOL0     C 4893   5.247   8.427   5.568  0.7829 -0.7159 -1.3090
   37MOL0     C 4894   5.366   8.491   5.612  0.6825  0.9233  0.1259
   37MOL0     C 4895   5.357   8.581   5.721  0.5578 -0.1236 -0.9378
   37MOL0     O 4896   5.452   8.670   5.756  0.0128  0.1122 -0.9030
   37MOL0     C 4897   5.430   8.812   5.729  0.1203  0.3266 -0.4316
   37MOL0     C 4898   5.563   8.869   5.745 -0.0733 -0.1465 -0.2201
   37MOL0     C 4899   5.551   9.024   5.746 -0.2759 -0.2185  0.8190
   37MOL0     C 4900   5.627   9.087   5.622 -0.9039 -0.0117 -0.3818
   37MOL0     C 4901   5.571   9.233   5.605 -0.3244 -0.0740  0.2019
   37MOL0     C 4902   5.649   9.312   5.497 -0.1877  0.4704  0.3998
   37MOL0     C 4903   5.572   9.294   5.371 -0.0122 -0.4685 -0.5450
   37MOL0     C 4904   5.643   9.198   5.276 -0.1122 -0.0941  0.1893
   37MOL0    Cl 4905   5.590   9.213   5.104 -0.4871 -0.2401  0.0982
   37MOL0     C 4906   5.234   8.607   5.784  0.2702  0.2018  1.5981
   37MOL0     C 4907   5.123   8.541   5.739 -0.1440 -0.0968 -0.1466
   37MOL0     O 4908   4.954   8.540   5.441  0.1919  0.1542 -0.6563
   37MOL0     C 4909   4.866   8.199   5.467 -0.0958 -0.1464 -0.2934
   37MOL0     C 4910   4.778   8.107   5.424  0.2432 -0.0412  0.8102
   37MOL0     N 4911   4.234   7.841   4.745  1.6419 -0.3651  0.2111
   37MOL0     N 4912   4.132   7.819   4.670 -0.3285 -0.4750 -0.2831
   37MOL0     C 4913   3.515   7.799   5.145 -0.0712 -0.0568  0.4605
   37MOL0     C 4914   3.644   7.836   5.171 -0.5968  0.2919  0.8793
   37MOL0     C 4915   4.042   8.007   5.188 -0.6845 -0.2499  0.4646
   37MOL0     C 4916   4.140   7.955   5.271 -0.3739 -0.3562  0.9523
   37MOL0     C 4917   4.252   8.034   5.305 -0.0085 -0.2048 -1.0287
   37MOL0     C 4918   4.259   8.168   5.269  0.3208 -1.2329 -0.5469
   37MOL0     O 4919   4.363   8.259   5.305  0.1415 -0.4921  0.0079
   37MOL0     C 4920   4.355   8.324   5.437 -0.0189  0.6316  0.5295
   37MOL0     C 4921   4.402   8.468   5.429 -0.1271 -0.2182 -0.2336
   37MOL0     C 4922   4.379   8.543   5.551  0.8753 -0.6488 -0.2806
   37MOL0     C 4923   4.439   8.693   5.557 -0.9125  0.8259 -0.0335
   37MOL0     C 4924   4.592   8.701   5.551 -0.3705 -0.4300  0.2137
   37MOL0     C 4925   4.707   8.726   5.535  0.5291 -0.4458 -0.0756
   37MOL0     C 4926   4.157   8.220   5.196  0.8059 -0.4946 -0.3759
   37MOL0     C 4927   4.051   8.148   5.160  0.3073 -0.5917 -0.1867
   37MOL0     H 4928   3.665   8.068   4.915  1.6579 -1.7397 -2.2165
   37MOL0     H 4929   3.455   7.974   4.858  2.5524 -0.7909 -0.9422
   37MOL0     H 4930   3.318   7.603   5.099  1.2360  1.1078 -0.4861
   37MOL0     H 4931   3.189   7.642   4.989 -0.6847  0.2115  3.8031
   37MOL0     H 4932   3.471   7.543   4.918  0.7652 -0.2882 -0.5699
   37MOL0     H 4933   3.307   7.479   4.877  0.1164  0.5769  0.5664
   37MOL0     H 4934   3.272   7.621   4.713 -0.3272  0.5232 -0.9637
   37MOL0     H 4935   3.391   7.731   4.759 -0.8948  0.0298  0.8048
   37MOL0     H 4936   3.516   7.465   4.697 -0.2135  0.8767  2.1696
   37MOL0     H 4937   3.435   7.542   4.566 -2.1495  0.8406  2.0456
   37MOL0     H 4938   3.659   7.623   4.567 -1.5441  0.4270  0.2255
   37MOL0     H 4939   3.588   7.756   4.641 -0.1346 -1.0933  1.5880
   37MOL0     H 4940   3.649   7.681   4.880  0.0430 -2.5797  0.9570
   37MOL0     H 4941   3.719   7.540   4.811 -1.2559 -0.3294 -1.3478
   37MOL0     H 4942   3.800   7.833   4.732 -5.0197 -0.0322  1.7618
   37MOL0     H 4943   3.879   7.750   4.874 -0.8245 -0.8729 -0.2409
   37MOL0     H 4944   3.906   7.684   4.583 -0.2618 -1.3779 -0.2484
   37MOL0     H 4945   3.940   7.565   4.702  0.1227  1.2761  2.6867
   37MOL0     H 4946   4.097   7.618   4.925 -0.9242  0.6294  1.6431
   37MOL0     H 4947   4.246   7.727   5.044 -2.1616  4.4579 -0.6528
   37MOL0     H 4948   4.402   7.686   4.942  1.0888  1.4938 -2.9558
   37MOL0     H 4949   4.306   7.951   5.028 -1.1317 -0.9832 -0.5966
   37MOL0     H 4950   4.445   7.924   4.920 -1.0720  0.8115  0.0489
   37MOL0     H 4951   4.549   7.783   5.114  1.3342 -0.0455  0.9600
   37MOL0     H 4952   4.435   7.858   5.214  3.3398 -0.7871  2.3473
   37MOL0     H 4953   4.507   8.090   5.117  0.0984 -0.4882 -0.8857
   37MOL0     H 4954   4.656   8.008   5.060 -0.2397  0.2406 -0.5870
   37MOL0     H 4955   4.619   8.276   5.180 -1.0960 -3.2197  0.6232
   37MOL0     H 4956   4.708   8.474   5.135 -1.1748  1.8292  0.2618
   37MOL0     H 4957   4.700   8.559   5.297  4.6468  3.5234  0.3585
   37MOL0     H 4958   4.853   8.536   5.221  0.8341 -1.4712  0.3001
   37MOL0     H 4959   5.258   8.359   5.484 -0.1317 -2.9841  0.3351
   37MOL0     H 4960   5.452   8.480   5.546 -0.8229 -1.0234 -1.6434
   37MOL0     H 4961   5.379   8.821   5.633 -1.5910 -2.2905  0.1360
   37MOL0     H 4962   5.362   8.860   5.800  0.0185  0.0313 -0.3265
   37MOL0     H 4963   5.606   8.835   5.840 -0.1537 -0.7140 -0.3819
   37MOL0     H 4964   5.623   8.832   5.662 -4.7550  0.4602 -4.3603
   37MOL0     H 4965   5.580   9.081   5.835  0.0127  3.9173 -1.6174
   37MOL0     H 4966   5.450   9.064   5.734  0.2569  0.5135 -1.8462
   37MOL0     H 4967   5.733   9.096   5.649 -0.9535 -2.9779  1.2026
   37MOL0     H 4968   5.617   9.028   5.530 -0.6197  1.1953 -1.2103
   37MOL0     H 4969   5.575   9.287   5.700 -3.7687 -1.0123  1.0340
   37MOL0     H 4970   5.464   9.243   5.583  0.1253  0.2344 -2.0379
   37MOL0     H 4971   5.648   9.416   5.529 -1.9345 -0.6067  4.4004
   37MOL0     H 4972   5.754   9.281   5.495  0.4201  2.0741  2.9600
   37MOL0     H 4973   5.564   9.398   5.337  1.8469  0.7700  2.4077
   37MOL0     H 4974   5.474   9.250   5.391  0.2302 -1.1941 -0.9337
   37MOL0     H 4975   5.622   9.097   5.309  0.7343 -1.1742 -2.3115
   37MOL0     H 4976   5.750   9.222   5.269 -0.2588  0.4946 -0.1293
   37MOL0     H 4977   5.218   8.692   5.849  0.8907  0.5438  1.3190
   37MOL0     H 4978   5.034   8.558   5.798  1.7645 -0.7943  3.2289
   37MOL0     H 4979   4.926   8.167   5.551  2.5444  2.4573 -0.9951
   37MOL0     H 4980   4.784   8.013   5.478 -2.4404 -1.2188 -0.7368
   37MOL0     H 4981   3.467   7.730   5.214 -0.7462  0.0786  0.1414
   37MOL0     H 4982   3.693   7.797   5.260  0.0394  3.0336  1.8466
   37MOL0     H 4983   4.141   7.850   5.297 -1.7671 -0.4677  0.6264
   37MOL0     H 4984   4.328   7.982   5.362  2.0731  4.6469  1.1911
   37MOL0     H 4985   4.248   8.319   5.458  0.0189 -2.9368  0.5125
   37MOL0     H 4986   4.413   8.266   5.509 -1.8088 -1.5681  0.3332
   37MOL0     H 4987   4.331   8.505   5.355 -0.6141  0.3810  0.5203
   37MOL0     H 4988   4.508   8.475   5.401  0.1494 -1.2631  0.4587
   37MOL0     H 4989   4.408   8.492   5.643 -0.3242  0.9258  1.0214
   37MOL0     H 4990   4.272   8.550   5.573  1.1826 -0.4154  1.2565
   37MOL0     H 4991   4.404   8.749   5.645 -1.0910  1.5097 -0.5366
   37MOL0     H 4992   4.394   8.747   5.474 -0.0416 -1.4636 -2.1104
   37MOL0     H 4993   4.809   8.748   5.510 -0.2292  1.6887 -1.5711
   37MOL0     H 4994   4.155   8.328   5.182  2.1988  0.1086  3.0850
   37MOL0     H 4995   3.979   8.196   5.094  0.8588 -0.1200 -0.4616
   38MOL0     O 4996   9.233   1.601  10.204 -0.0292 -0.0998 -0.0183
   38MOL0     C 4997   9.329   1.520  10.193 -0.4747 -0.4843  0.4825
   38MOL0     O 4998   9.366   1.425  10.283  0.2956  0.1629 -0.1947
   38MOL0     C 4999   9.287   1.383  10.389 -0.6201  0.7556  0.0108
   38MOL0     C 5000   9.346   1.301  10.491  0.0133  0.2350  0.3881
   38MOL0     C 5001   9.265   1.238  10.583  0.0512  0.0909  1.5786
   38MOL0     C 5002   9.130   1.267  10.590 -0.6271  0.0386  0.0607
   38MOL0     O 5003   9.042   1.223  10.690 -0.0200  0.7687 -0.1975
   38MOL0     C 5004   9.061   1.081  10.733  0.4156 -0.8624 -1.0249
   38MOL0     C 5005   9.120   1.071  10.872  0.6110 -0.6360  1.3368
   38MOL0     C 5006   9.154   0.929  10.919 -0.1390  0.0171 -0.0150
   38MOL0     C 5007   9.256   0.938  11.041 -0.2159  0.5336 -0.5130
   38MOL0     C 5008   9.206   0.947  11.186 -0.5666 -0.7387  0.2602
   38MOL0     C 5009   9.173   0.806  11.236  0.2693 -0.7341 -1.0836
   38MOL0     C 5010   9.285   0.704  11.258  0.6782 -0.0133  0.5513
   38MOL0     C 5011   9.254   0.559  11.205  1.0233  0.2411 -0.2963
   38MOL0     N 5012   9.352   0.458  11.247 -0.4329 -0.2862  0.2460
   38MOL0     C 5013   9.465   0.447  11.192 -0.8376  0.0459  0.8502
   38MOL0     C 5014   9.539   0.339  11.251  0.5934  0.5869 -0.9945
   38MOL0     C 5015   9.682   0.281  11.214  0.0781  0.6564  0.2712
   38MOL0     C 5016   9.753   0.371  11.104 -0.5788 -0.1060 -0.1449
   38MOL0     C 5017   9.711   0.312  10.960  0.1410  0.6060  0.1116
   38MOL0     C 5018   9.785   0.390  10.849 -0.6047 -0.7113 -0.2693
   38MOL0     O 5019   9.763   0.314  10.726  0.6408 -0.8761 -0.4514
   38MOL0     C 5020   9.792   0.372  10.614 -0.2485  0.6073 -0.5332
   38MOL0     C 5021   9.875   0.483  10.608  0.2499  0.4276  1.0956
   38MOL0     C 5022   9.900   0.542  10.483 -0.2220 -0.5857 -0.1830
   38MOL0     C 5023  10.002   0.656  10.473 -1.0357  0.0161 -0.3380
   38MOL0     C 5024   9.841   0.489  10.360  0.5606  0.8975 -0.4498
   38MOL0     C 5025   9.854   0.540  10.228  0.1647 -0.1885  0.1482
   38MOL0     O 5026   9.873   0.676  10.214 -0.0154 -0.0711  0.5981
   38MOL0     C 5027   9.892   0.723  10.083  0.6154 -1.2515 -0.3703
   38MOL0     C 5028   9.782   0.764  10.014 -0.1452  1.0639  0.5984
   38MOL0     C 5029   9.789   0.814   9.881 -0.1641  1.2123  0.1815
   38MOL0     C 5030   9.916   0.818   9.821  0.2041  0.0010  0.2765
   38MOL0     O 5031   9.945   0.851   9.685  0.2168 -1.0788 -0.7967
   38MOL0     C 5032   9.843   0.919   9.614  0.1117 -0.3295 -0.1853
   38MOL0     C 5033   9.899   0.952   9.470  0.1757  0.5245 -0.4693
   38MOL0     C 5034  10.029   1.037   9.467  1.2560  1.1131 -0.5982
   38MOL0     C 5035  10.053   1.092   9.324 -0.5975  1.1537  0.3997
   38MOL0     C 5036  10.208   1.124   9.305 -0.0644 -0.4654 -0.2952
   38MOL0     C 5037  10.270   1.090   9.166 -0.1786  0.5173 -0.0533
   38MOL0     C 5038  10.422   1.125   9.155 -0.2382 -0.8812  0.3655
   38MOL0     C 5039  10.464   1.113   9.011 -0.3614 -0.1740  1.0929
   38MOL0    Cl 5040  10.477   0.934   8.969 -0.0061 -0.9077 -0.0965
   38MOL0     C 5041  10.031   0.777   9.894  0.3765  0.6478 -0.4826
   38MOL0     C 5042  10.015   0.725  10.023 -0.2495 -1.0045  0.5282
   38MOL0     O 5043   9.857   0.455  10.138  0.0298  0.6174  0.9875
   38MOL0     C 5044   9.763   0.372  10.376 -1.6361  0.2236  0.5790
   38MOL0     C 5045   9.745   0.309  10.494  0.5306 -0.2947 -1.6626
   38MOL0     N 5046   9.446   0.297  11.348 -0.2160 -0.0006  0.6943
   38MOL0     N 5047   9.342   0.379  11.352 -0.3301 -0.3391  0.8737
   38MOL0     C 5048   9.081   1.352  10.500  0.3906  0.4006  0.0173
   38MOL0     C 5049   9.149   1.408  10.397  0.1972 -0.7153  0.5108
   38MOL0     C 5050   9.412   1.549  10.071  0.1178 -0.2152  0.6554
   38MOL0     C 5051   9.531   1.480  10.045 -0.4201  0.3709 -0.3176
   38MOL0     C 5052   9.606   1.520   9.938  0.0655  0.9671 -0.6425
   38MOL0     C 5053   9.566   1.614   9.846 -0.2397 -0.0387 -0.1479
   38MOL0     O 5054   9.639   1.660   9.737  0.5254 -0.0114  0.0920
   38MOL0     C 5055   9.781   1.635   9.729  1.0071  0.0802  0.3112
   38MOL0     C 5056   9.810   1.516   9.630  0.0320 -1.2930  0.5668
   38MOL0     C 5057   9.852   1.568   9.494  0.2943 -0.8547 -0.3378
   38MOL0     C 5058   9.866   1.445   9.405 -1.2400  0.4077 -0.4806
   38MOL0     C 5059   9.911   1.495   9.278 -0.2052  0.5453 -0.0709
   38MOL0     C 5060   9.937   1.539   9.171 -0.0679 -0.0804 -0.2864
   38MOL0     C 5061   9.443   1.675   9.866 -0.2252  0.6649  0.6113
   38MOL0     C 5062   9.367   1.635   9.976 -0.3253  0.6337  0.7235
   38MOL0     H 5063   9.453   1.284  10.491  0.9812  4.8266  3.0798
   38MOL0     H 5064   9.326   1.166  10.636  1.8064 -1.8573 -2.6628
   38MOL0     H 5065   8.962   1.033  10.735  0.7151 -1.4849 -0.9262
   38MOL0     H 5066   9.128   1.021  10.670  1.9142  1.4969 -1.8064
   38MOL0     H 5067   9.210   1.133  10.881  0.2992  0.0579 -0.1374
   38MOL0     H 5068   9.043   1.115  10.935 -0.5775 -2.4389  1.2192
   38MOL0     H 5069   9.059   0.896  10.962  0.0326  0.3372  0.6103
   38MOL0     H 5070   9.182   0.860  10.839 -0.1232 -2.1659  1.7723
   38MOL0     H 5071   9.319   0.849  11.030  0.9098  1.3932 -1.3952
   38MOL0     H 5072   9.322   1.024  11.022  3.0585 -1.7104 -0.0826
   38MOL0     H 5073   9.282   0.998  11.246 -0.3456  0.9155 -1.3481
   38MOL0     H 5074   9.113   1.004  11.184  0.3938  0.9176  0.9564
   38MOL0     H 5075   9.126   0.835  11.330  0.8380 -1.8932 -0.4150
   38MOL0     H 5076   9.104   0.769  11.160 -1.0038  1.2642 -0.9774
   38MOL0     H 5077   9.366   0.750  11.200 -0.8409  3.8363  1.1743
   38MOL0     H 5078   9.315   0.695  11.362 -0.6818  0.3844  1.0010
   38MOL0     H 5079   9.240   0.554  11.096 -2.6917  0.3930  0.0333
   38MOL0     H 5080   9.155   0.536  11.245  1.2246  0.8340  0.5623
   38MOL0     H 5081   9.494   0.483  11.094  1.1693 -0.7423  1.1138
   38MOL0     H 5082   9.747   0.294  11.302  0.1766  1.1482  0.1293
   38MOL0     H 5083   9.686   0.178  11.178 -0.3676  1.0777 -1.0106
   38MOL0     H 5084   9.861   0.355  11.101 -0.5395  0.1888 -0.3991
   38MOL0     H 5085   9.717   0.474  11.111  0.5770  0.4004 -1.2633
   38MOL0     H 5086   9.603   0.298  10.952  0.0784  1.2287 -0.1358
   38MOL0     H 5087   9.740   0.207  10.957  0.5190  0.7356 -1.4249
   38MOL0     H 5088   9.890   0.411  10.870 -1.1180  3.1221 -0.7754
   38MOL0     H 5089   9.725   0.482  10.846  0.4796  0.0278 -0.0655
   38MOL0     H 5090   9.907   0.543  10.692  0.4095  1.6907  0.1684
   38MOL0     H 5091  10.076   0.610  10.408 -1.9189 -0.1486 -1.2499
   38MOL0     H 5092   9.968   0.753  10.435  1.5432  2.2347  2.4615
   38MOL0     H 5093  10.055   0.661  10.569 -1.8981 -0.7118  0.2022
   38MOL0     H 5094   9.690   0.770  10.072 -0.1896  0.6811  0.5666
   38MOL0     H 5095   9.700   0.861   9.841 -1.3051 -0.8362  0.2084
   38MOL0     H 5096   9.749   0.864   9.617 -0.3679  0.5118  0.6795
   38MOL0     H 5097   9.826   1.016   9.661 -1.5484 -0.1928 -1.0011
   38MOL0     H 5098   9.925   0.862   9.415  3.3193  0.3605  1.0601
   38MOL0     H 5099   9.822   1.006   9.414 -0.7238 -0.6811 -0.4236
   38MOL0     H 5100  10.115   0.975   9.496  1.7484  0.5327 -3.0682
   38MOL0     H 5101  10.010   1.114   9.542 -0.2942 -2.0970  2.6425
   38MOL0     H 5102  10.028   1.018   9.247  4.8425 -1.0991  0.3823
   38MOL0     H 5103   9.989   1.180   9.310 -1.5756  0.3800 -0.1199
   38MOL0     H 5104  10.263   1.057   9.373 -1.8020 -2.8277 -1.0920
   38MOL0     H 5105  10.227   1.228   9.335  2.8714 -1.0193  0.1355
   38MOL0     H 5106  10.263   0.981   9.170 -2.2729  0.6311  3.4390
   38MOL0     H 5107  10.208   1.130   9.085  1.4897 -1.5678 -2.4778
   38MOL0     H 5108  10.489   1.070   9.222  3.6473  0.9001 -1.7061
   38MOL0     H 5109  10.438   1.231   9.176  1.1614 -0.8704 -0.5713
   38MOL0     H 5110  10.562   1.154   8.985  1.0891 -3.8255  0.2137
   38MOL0     H 5111  10.389   1.171   8.955  0.0649 -0.8940 -0.2688
   38MOL0     H 5112  10.135   0.787   9.865  0.6366  0.1981  0.2451
   38MOL0     H 5113  10.101   0.696  10.083  1.4284  2.4361  0.0335
   38MOL0     H 5114   9.719   0.325  10.288  0.4324 -1.4385  0.3310
   38MOL0     H 5115   9.692   0.215  10.507  0.1156  0.3374  2.3531
   38MOL0     H 5116   8.977   1.381  10.508  0.3894  0.4695 -0.2106
   38MOL0     H 5117   9.093   1.474  10.331  0.6228  0.7826  1.6046
   38MOL0     H 5118   9.572   1.405  10.112 -0.7537 -1.0250 -1.6190
   38MOL0     H 5119   9.709   1.486   9.934  0.0163  0.7299  0.0065
   38MOL0     H 5120   9.831   1.727   9.696 -0.1129 -0.0830 -2.0350
   38MOL0     H 5121   9.821   1.611   9.828 -0.2315  0.4543  0.9252
   38MOL0     H 5122   9.722   1.454   9.610  0.0278 -1.7408  1.8396
   38MOL0     H 5123   9.894   1.455   9.664  2.6329  1.7328  0.0904
   38MOL0     H 5124   9.951   1.615   9.498  1.3846 -2.8673 -2.1259
   38MOL0     H 5125   9.770   1.633   9.462  0.8687  0.4633  0.7391
   38MOL0     H 5126   9.770   1.395   9.387  0.2652 -2.1054 -2.1698
   38MOL0     H 5127   9.931   1.365   9.440 -0.4168  0.4265 -1.9059
   38MOL0     H 5128   9.948   1.568   9.068 -0.7580 -3.8463 -1.5627
   38MOL0     H 5129   9.398   1.759   9.815  0.7702  1.9576  1.7661
   38MOL0     H 5130   9.283   1.703   9.986  0.4210  2.0893 -1.9439
   39MOL0     O 5131   3.608   8.295   2.631 -0.6601 -0.8291  0.6654
   39MOL0     C 5132   3.713   8.361   2.636 -0.3407 -0.3188 -0.9450
   39MOL0     O 5133   3.775   8.406   2.519 -0.7927  0.6033  0.0958
   39MOL0     C 5134   3.718   8.369   2.400 -0.9402 -0.6338 -0.1330
   39MOL0     C 5135   3.705   8.470   2.307 -0.0689 -0.1618 -0.5875
   39MOL0     C 5136   3.668   8.440   2.178 -0.7822 -0.9785  0.8925
   39MOL0     C 5137   3.647   8.309   2.132  0.5366  1.2860 -0.0728
   39MOL0     O 5138   3.644   8.275   2.002  1.0320  0.3442  0.3383
   39MOL0     C 5139   3.553   8.355   1.927 -0.7586 -0.2099 -0.4930
   39MOL0     C 5140   3.612   8.446   1.827 -0.1592  0.7093  0.7185
   39MOL0     C 5141   3.676   8.367   1.700 -0.2401  0.7204 -1.2990
   39MOL0     C 5142   3.803   8.298   1.744  1.0351 -0.5270  0.1423
   39MOL0     C 5143   3.888   8.238   1.636  0.1502  0.5606 -0.4733
   39MOL0     C 5144   3.796   8.151   1.546 -0.3435  0.2171 -0.4799
   39MOL0     C 5145   3.878   8.056   1.463 -0.2049 -0.2860 -0.4023
   39MOL0     C 5146   3.810   7.999   1.335  0.0791  0.2394  0.2499
   39MOL0     N 5147   3.921   7.965   1.240  0.8714  1.0669  0.5969
   39MOL0     C 5148   3.966   7.836   1.239 -0.8000  0.1037 -0.1684
   39MOL0     C 5149   4.055   7.838   1.132 -0.3397 -0.4112 -0.3156
   39MOL0     C 5150   4.150   7.734   1.095  0.4646 -0.5057 -0.0610
   39MOL0     C 5151   4.290   7.758   1.151  0.8488 -0.3036 -0.3467
   39MOL0     C 5152   4.376   7.636   1.144  0.8405 -0.6143  0.6282
   39MOL0     C 5153   4.503   7.665   1.225  0.2465  0.8145 -0.1910
   39MOL0     O 5154   4.613   7.595   1.178 -0.4151 -0.0479  0.8683
   39MOL0     C 5155   4.683   7.647   1.067  0.7435 -0.3693 -0.2112
   39MOL0     C 5156   4.791   7.575   1.024  0.9768 -0.0748  0.8070
   39MOL0     C 5157   4.876   7.630   0.928 -0.0248 -0.3306  0.1203
   39MOL0     C 5158   4.980   7.529   0.872 -0.0124  0.0955  0.7065
   39MOL0     C 5159   4.864   7.755   0.868  0.1865 -0.5897 -0.4927
   39MOL0     C 5160   4.960   7.802   0.771  0.5770  0.2932 -0.2094
   39MOL0     O 5161   5.076   7.829   0.833 -0.0385 -0.3061 -0.0799
   39MOL0     C 5162   5.180   7.855   0.744  0.0293 -0.1355  0.1623
   39MOL0     C 5163   5.263   7.969   0.736 -0.2492 -0.6802 -1.1002
   39MOL0     C 5164   5.363   7.985   0.638 -0.0238 -0.0970 -0.0830
   39MOL0     C 5165   5.408   7.874   0.562  0.1668  0.1689 -0.8075
   39MOL0     O 5166   5.526   7.867   0.488 -0.1277  0.7437 -0.3007
   39MOL0     C 5167   5.626   7.971   0.484 -0.1286  0.3761  0.6591
   39MOL0     C 5168   5.602   8.076   0.369  0.9166 -0.4734  0.1332
   39MOL0     C 5169   5.697   8.190   0.388  0.3443  0.6109 -0.3707
   39MOL0     C 5170   5.671   8.303   0.291 -0.0372 -0.1321  0.7143
   39MOL0     C 5171   5.724   8.436   0.343 -0.1011 -0.2395 -0.4709
   39MOL0     C 5172   5.776   8.523   0.224 -0.3567  1.0627 -0.2135
   39MOL0     C 5173   5.802   8.668   0.271 -1.1377  0.2326  0.1646
   39MOL0     C 5174   5.680   8.753   0.274 -1.6017  0.3319 -0.4398
   39MOL0    Cl 5175   5.696   8.925   0.284  0.3463 -0.4075 -0.2010
   39MOL0     C 5176   5.320   7.762   0.561  0.9019 -0.3911 -1.2373
   39MOL0     C 5177   5.214   7.753   0.654 -0.2638  0.7705  0.9004
   39MOL0     O 5178   4.926   7.818   0.652 -0.2690  0.0774 -0.3922
   39MOL0     C 5179   4.741   7.830   0.912  0.2521  0.1375  0.3499
   39MOL0     C 5180   4.653   7.773   1.005  0.1897  1.2632 -0.1313
   39MOL0     N 5181   4.037   7.956   1.057  0.1305  0.7391 -0.3093
   39MOL0     N 5182   3.954   8.029   1.125 -1.3033 -0.4556  0.1001
   39MOL0     C 5183   3.675   8.215   2.221 -0.0352  0.1309 -0.3203
   39MOL0     C 5184   3.714   8.241   2.346 -0.3737  0.1222 -0.5279
   39MOL0     C 5185   3.761   8.422   2.769  0.1791  0.8191  0.3140
   39MOL0     C 5186   3.859   8.524   2.766  1.2127 -0.3285 -0.6941
   39MOL0     C 5187   3.891   8.596   2.885 -0.1200 -0.4707  0.0291
   39MOL0     C 5188   3.869   8.542   3.007  1.1293  0.5610  0.3756
   39MOL0     O 5189   3.909   8.595   3.123  0.4751 -0.1013 -0.0803
   39MOL0     C 5190   3.957   8.733   3.133  0.0049  0.0289 -0.6785
   39MOL0     C 5191   4.114   8.758   3.123  0.2230 -0.5010 -0.5652
   39MOL0     C 5192   4.188   8.680   3.232  0.2291  0.2600  0.5777
   39MOL0     C 5193   4.342   8.703   3.217 -0.2198  0.5893  0.5249
   39MOL0     C 5194   4.425   8.637   3.317  0.8736 -1.0491  1.1419
   39MOL0     C 5195   4.499   8.593   3.400 -0.6890  0.0611  1.0596
   39MOL0     C 5196   3.780   8.438   3.002  0.5471  0.5007  0.1221
   39MOL0     C 5197   3.726   8.370   2.895 -0.2972 -0.4254 -0.3274
   39MOL0     H 5198   3.736   8.564   2.351 -1.9113 -0.2852  1.0986
   39MOL0     H 5199   3.682   8.515   2.102 -1.6152 -0.7586  0.9498
   39MOL0     H 5200   3.469   8.298   1.886 -3.6498  1.6367  2.4589
   39MOL0     H 5201   3.500   8.422   1.995  0.2353  0.9654 -0.8417
   39MOL0     H 5202   3.544   8.514   1.774  1.2243  1.7577  0.2321
   39MOL0     H 5203   3.697   8.501   1.868 -1.5110  3.2004  0.3812
   39MOL0     H 5204   3.596   8.304   1.660 -0.6286  0.8917 -0.8056
   39MOL0     H 5205   3.705   8.430   1.616 -0.2590 -1.3766 -2.9691
   39MOL0     H 5206   3.866   8.381   1.776 -1.9727  3.8444 -3.8598
   39MOL0     H 5207   3.769   8.223   1.816  2.0373 -3.6373 -2.3662
   39MOL0     H 5208   3.933   8.315   1.573 -0.8748  1.6514  0.0911
   39MOL0     H 5209   3.954   8.168   1.688 -2.5996 -3.6189 -2.0859
   39MOL0     H 5210   3.722   8.087   1.594 -0.9838  1.3073  0.0013
   39MOL0     H 5211   3.752   8.226   1.479  0.7063  0.5341 -0.8395
   39MOL0     H 5212   3.963   8.116   1.430  0.3513 -0.4868  0.6193
   39MOL0     H 5213   3.892   7.969   1.527 -0.9640 -0.7192 -0.8005
   39MOL0     H 5214   3.738   8.066   1.286  0.2957  0.9446  0.8873
   39MOL0     H 5215   3.752   7.913   1.368 -0.2801  0.4998  0.3012
   39MOL0     H 5216   3.953   7.757   1.312 -0.1566 -0.3993 -0.5890
   39MOL0     H 5217   4.103   7.645   1.139  0.1527 -0.6257 -0.6304
   39MOL0     H 5218   4.165   7.731   0.986  0.6226  0.3079 -0.0657
   39MOL0     H 5219   4.281   7.800   1.252  1.7643  0.9218 -0.7644
   39MOL0     H 5220   4.343   7.841   1.104  1.4668 -1.0501 -0.9858
   39MOL0     H 5221   4.390   7.609   1.039 -0.4828  1.6505 -0.1907
   39MOL0     H 5222   4.329   7.551   1.195 -1.1952  0.0644 -0.0251
   39MOL0     H 5223   4.488   7.646   1.331  2.4137  1.7881  0.3366
   39MOL0     H 5224   4.517   7.773   1.235  1.2564  0.5906  0.9459
   39MOL0     H 5225   4.810   7.484   1.079  2.6681  0.0570  0.4999
   39MOL0     H 5226   4.954   7.429   0.908  1.2996  0.2674  2.2406
   39MOL0     H 5227   4.994   7.536   0.764  1.8164 -0.8980  0.8275
   39MOL0     H 5228   5.082   7.544   0.909  0.3502  0.2011 -0.3160
   39MOL0     H 5229   5.259   8.039   0.820  1.5157  1.5321 -2.7247
   39MOL0     H 5230   5.422   8.076   0.636 -0.6117  0.2806 -0.8629
   39MOL0     H 5231   5.632   8.015   0.584  2.4028 -1.0092  1.1896
   39MOL0     H 5232   5.718   7.913   0.469 -0.4541 -0.2465  1.0654
   39MOL0     H 5233   5.633   8.035   0.272  0.7759  3.3719 -1.6937
   39MOL0     H 5234   5.497   8.104   0.371  0.7214 -1.1139 -0.3929
   39MOL0     H 5235   5.801   8.158   0.382  1.3471  3.6761 -1.7968
   39MOL0     H 5236   5.677   8.221   0.491 -0.9376  1.1062 -0.7454
   39MOL0     H 5237   5.708   8.273   0.192  2.6344 -2.4824  2.2607
   39MOL0     H 5238   5.563   8.310   0.276  0.1883 -1.2431 -2.1029
   39MOL0     H 5239   5.798   8.425   0.423  0.3034  2.2969 -0.4322
   39MOL0     H 5240   5.639   8.488   0.387 -0.9129 -1.8046 -0.1051
   39MOL0     H 5241   5.875   8.483   0.202 -1.4681 -1.2712 -1.3027
   39MOL0     H 5242   5.714   8.525   0.134 -0.1390 -1.1474 -0.4675
   39MOL0     H 5243   5.864   8.727   0.203 -1.4254  0.5678  0.1932
   39MOL0     H 5244   5.857   8.675   0.366  2.8862 -1.4642 -1.7826
   39MOL0     H 5245   5.629   8.728   0.368  0.3317 -0.1750  0.5325
   39MOL0     H 5246   5.615   8.726   0.190  2.0190 -2.1945 -2.7228
   39MOL0     H 5247   5.353   7.684   0.493  2.7183  1.2281 -2.2958
   39MOL0     H 5248   5.165   7.657   0.642 -0.5187  1.2621 -3.9786
   39MOL0     H 5249   4.716   7.924   0.864 -0.5666 -1.9510 -3.6815
   39MOL0     H 5250   4.553   7.809   1.024  0.3111  1.9583 -0.7888
   39MOL0     H 5251   3.679   8.109   2.199 -0.4908  0.0999 -0.2645
   39MOL0     H 5252   3.739   8.159   2.413 -2.4232 -0.6909 -0.6977
   39MOL0     H 5253   3.881   8.559   2.665  0.8717 -1.5312 -1.1996
   39MOL0     H 5254   3.937   8.694   2.877 -2.6954  0.6875 -1.7306
   39MOL0     H 5255   3.915   8.794   3.053  2.5937  3.1855  0.1556
   39MOL0     H 5256   3.916   8.774   3.225 -4.7950 -0.4399 -2.3627
   39MOL0     H 5257   4.142   8.863   3.109 -3.0160  1.6905  5.3193
   39MOL0     H 5258   4.131   8.704   3.030 -2.9938 -1.1409 -0.9152
   39MOL0     H 5259   4.178   8.575   3.202  2.2092  0.2186 -0.0702
   39MOL0     H 5260   4.143   8.708   3.328 -1.7729  1.1695 -0.5480
   39MOL0     H 5261   4.364   8.810   3.213 -0.4917  0.6187 -1.2088
   39MOL0     H 5262   4.357   8.659   3.118 -2.0537 -0.4037  0.6471
   39MOL0     H 5263   4.559   8.545   3.475  0.3358  0.1256  0.3019
   39MOL0     H 5264   3.759   8.398   3.101  1.9683  1.1298  0.7052
   39MOL0     H 5265   3.655   8.290   2.913 -0.5790 -0.1467 -0.2054
   40MOL0     O 5266   3.211  11.117   8.628 -0.4392  0.4336  0.0329
   40MOL0     C 5267   3.292  11.034   8.584 -0.0108  0.7457 -0.1687
   40MOL0     O 5268   3.422  11.016   8.633  0.0106  0.9851 -0.1583
   40MOL0     C 5269   3.463  11.104   8.734  0.5989 -0.0654 -0.9829
   40MOL0     C 5270   3.445  11.242   8.734 -0.4984  0.3325 -0.0765
   40MOL0     C 5271   3.482  11.319   8.840 -0.2162  0.1161  0.1652
   40MOL0     C 5272   3.546  11.257   8.953 -0.3383 -0.0170  0.6353
   40MOL0     O 5273   3.583  11.348   9.048 -0.1877 -0.0748  0.3564
   40MOL0     C 5274   3.561  11.302   9.183 -0.2490 -0.3059 -0.2475
   40MOL0     C 5275   3.527  11.426   9.265  0.1754 -0.3020  0.4010
   40MOL0     C 5276   3.394  11.502   9.239 -0.1077 -0.1703  1.6386
   40MOL0     C 5277   3.366  11.611   9.344 -0.6097  0.0718  0.6768
   40MOL0     C 5278   3.226  11.656   9.315 -0.4727  0.2242  0.2656
   40MOL0     C 5279   3.122  11.544   9.325  0.7159  0.3981  0.5810
   40MOL0     C 5280   2.982  11.607   9.320  0.4268  0.4018 -1.0045
   40MOL0     C 5281   2.870  11.511   9.347  0.6683  0.9650 -0.5679
   40MOL0     N 5282   2.850  11.478   9.490 -0.5456 -0.1980  0.6727
   40MOL0     C 5283   2.740  11.510   9.571 -0.0043  0.3426  0.5615
   40MOL0     C 5284   2.763  11.433   9.684  0.3870 -0.6204  0.5345
   40MOL0     C 5285   2.680  11.427   9.798  0.8569 -0.7272 -0.0170
   40MOL0     C 5286   2.674  11.563   9.870 -0.6121  0.2687 -0.6204
   40MOL0     C 5287   2.803  11.604   9.957  0.2981  0.5331 -0.7678
   40MOL0     C 5288   2.947  11.590   9.889  0.5165  0.1619 -0.9396
   40MOL0     O 5289   3.046  11.642   9.979 -0.6428 -0.4122  0.5546
   40MOL0     C 5290   3.169  11.656   9.925  0.0539 -0.4461  0.7130
   40MOL0     C 5291   3.266  11.712  10.002 -0.2645 -0.0002 -1.1186
   40MOL0     C 5292   3.407  11.706   9.973  0.2903  0.2877  0.2234
   40MOL0     C 5293   3.494  11.782  10.073 -0.4984  0.1010  0.1822
   40MOL0     C 5294   3.457  11.644   9.858 -0.3439  0.1050  0.1265
   40MOL0     C 5295   3.604  11.624   9.832  0.4402 -0.3006  0.5471
   40MOL0     O 5296   3.641  11.602   9.705  0.1050  0.1525 -1.0752
   40MOL0     C 5297   3.779  11.598   9.681 -0.3810 -0.4701  0.1654
   40MOL0     C 5298   3.867  11.710   9.661  0.4846 -0.2980  0.6981
   40MOL0     C 5299   3.993  11.691   9.608 -0.8975 -0.3441  0.9669
   40MOL0     C 5300   4.054  11.569   9.593 -0.2389 -0.2115  0.1409
   40MOL0     O 5301   4.177  11.556   9.545  0.9809 -0.1982  0.2124
   40MOL0     C 5302   4.260  11.485   9.629 -0.0388 -1.2669  0.5371
   40MOL0     C 5303   4.401  11.498   9.583 -0.1952 -0.8217 -0.0335
   40MOL0     C 5304   4.453  11.646   9.600 -0.3221  0.2382 -0.3732
   40MOL0     C 5305   4.463  11.673   9.749  0.3240  0.7929  0.5438
   40MOL0     C 5306   4.552  11.790   9.767 -0.7111 -0.3456  0.5241
   40MOL0     C 5307   4.581  11.821   9.917 -0.1053 -0.6161  0.2914
   40MOL0     C 5308   4.459  11.823  10.005 -0.8197 -0.3323 -0.0265
   40MOL0     C 5309   4.478  11.898  10.137  0.9096  1.1156 -0.0095
   40MOL0    Cl 5310   4.499  12.061  10.091 -0.2400  0.5830 -0.3369
   40MOL0     C 5311   3.967  11.458   9.624 -0.6855 -0.1285  0.7646
   40MOL0     C 5312   3.833  11.472   9.658  0.9722  0.3292  0.0129
   40MOL0     O 5313   3.674  11.609   9.927  0.9227  0.3319 -0.2692
   40MOL0     C 5314   3.363  11.595   9.773  0.2018 -0.0986 -0.8109
   40MOL0     C 5315   3.225  11.604   9.798  0.8178 -0.0054 -0.0019
   40MOL0     N 5316   2.879  11.359   9.661  0.1835 -0.3171 -0.5378
   40MOL0     N 5317   2.927  11.396   9.555  0.0874  0.7514 -0.0926
   40MOL0     C 5318   3.570  11.117   8.952  0.3439  0.4633  0.8858
   40MOL0     C 5319   3.531  11.043   8.843 -0.2416 -0.0619  0.4026
   40MOL0     C 5320   3.253  10.935   8.484 -1.1791 -0.1315 -0.8050
   40MOL0     C 5321   3.121  10.909   8.454 -0.4722  0.0922  0.5735
   40MOL0     C 5322   3.094  10.822   8.348 -0.3721  0.7999 -0.1912
   40MOL0     C 5323   3.189  10.762   8.263  0.1915 -0.4998  0.1140
   40MOL0     O 5324   3.155  10.678   8.161  0.4342  0.3545 -0.1038
   40MOL0     C 5325   3.246  10.613   8.069  0.8735 -0.7493  0.0823
   40MOL0     C 5326   3.313  10.483   8.132 -1.1376 -0.2245 -0.5078
   40MOL0     C 5327   3.424  10.423   8.060 -0.2944 -0.0101  0.1704
   40MOL0     C 5328   3.493  10.312   8.150  0.7181  0.5220  0.8310
   40MOL0     C 5329   3.584  10.354   8.251 -0.1778 -0.1529  0.1690
   40MOL0     C 5330   3.648  10.400   8.339  0.7991 -0.3772  0.1035
   40MOL0     C 5331   3.324  10.795   8.290  1.6261  0.1098  0.3909
   40MOL0     C 5332   3.354  10.873   8.406 -0.1464  0.3178  0.0637
   40MOL0     H 5333   3.414  11.290   8.642 -0.5956  0.8962  0.2487
   40MOL0     H 5334   3.453  11.423   8.849  1.4894  0.5345  1.2237
   40MOL0     H 5335   3.476  11.233   9.189  0.0744 -1.2505 -4.2232
   40MOL0     H 5336   3.648  11.248   9.221  0.1038  0.4502  0.0384
   40MOL0     H 5337   3.521  11.394   9.369 -1.0400 -2.5424 -0.2899
   40MOL0     H 5338   3.612  11.494   9.255 -1.8391  2.2572 -0.7588
   40MOL0     H 5339   3.405  11.553   9.142  3.1473  2.0643  2.9882
   40MOL0     H 5340   3.327  11.417   9.225  0.3012  0.0087 -3.8696
   40MOL0     H 5341   3.379  11.573   9.446  2.3494  0.5268  0.5657
   40MOL0     H 5342   3.438  11.693   9.340 -0.4318  0.0296  2.2658
   40MOL0     H 5343   3.200  11.728   9.393 -4.4891 -0.2186 -0.4002
   40MOL0     H 5344   3.217  11.723   9.229 -1.3513  1.1019  1.0208
   40MOL0     H 5345   3.131  11.467   9.248 -4.4871  3.5617 -3.9267
   40MOL0     H 5346   3.132  11.486   9.416 -0.7992 -0.1316  0.4428
   40MOL0     H 5347   2.972  11.696   9.382 -1.4361  0.2440 -1.0323
   40MOL0     H 5348   2.974  11.639   9.216 -0.4108  1.3344 -0.6598
   40MOL0     H 5349   2.885  11.418   9.292 -0.5728  0.7566 -0.5784
   40MOL0     H 5350   2.775  11.555   9.318  0.4931 -0.5792 -2.5404
   40MOL0     H 5351   2.666  11.588   9.558  0.0924  0.5921  1.4062
   40MOL0     H 5352   2.582  11.387   9.769 -1.4579  2.4168  2.6458
   40MOL0     H 5353   2.717  11.345   9.860  3.6708  0.1779 -0.3654
   40MOL0     H 5354   2.582  11.554   9.930  0.5220 -1.7324  0.9350
   40MOL0     H 5355   2.659  11.649   9.803 -0.9698  0.3751 -0.4103
   40MOL0     H 5356   2.804  11.551  10.052  1.4725 -1.6138 -1.8924
   40MOL0     H 5357   2.796  11.708   9.989  2.0450  0.6307 -0.6041
   40MOL0     H 5358   2.941  11.647   9.796 -2.3837  3.0857  0.8327
   40MOL0     H 5359   2.977  11.488   9.867  1.3624  0.4699 -1.2380
   40MOL0     H 5360   3.246  11.745  10.103  5.4341 -1.5758  0.9540
   40MOL0     H 5361   3.580  11.834  10.032 -0.7866  1.8175  1.6505
   40MOL0     H 5362   3.444  11.851  10.142  0.5774 -0.0773  1.1605
   40MOL0     H 5363   3.543  11.709  10.138 -0.5057  0.7830  0.9574
   40MOL0     H 5364   3.826  11.810   9.662 -1.0337 -0.8956  1.4241
   40MOL0     H 5365   4.058  11.777   9.591 -1.3280 -0.0625  0.7141
   40MOL0     H 5366   4.241  11.519   9.731  3.9906 -0.4595  1.1887
   40MOL0     H 5367   4.219  11.383   9.626 -1.1856 -0.8035 -0.1794
   40MOL0     H 5368   4.471  11.427   9.628  3.4532  1.5075 -1.5695
   40MOL0     H 5369   4.397  11.475   9.476  2.6371 -4.4720  0.4567
   40MOL0     H 5370   4.382  11.719   9.560 -2.3117 -0.4062  1.7713
   40MOL0     H 5371   4.551  11.652   9.551  0.5874  0.1897  1.3633
   40MOL0     H 5372   4.367  11.695   9.798  0.0369  3.5239 -1.0516
   40MOL0     H 5373   4.494  11.579   9.796  0.1607  0.1076 -0.6813
   40MOL0     H 5374   4.504  11.875   9.716 -2.0372 -1.5159 -0.2738
   40MOL0     H 5375   4.644  11.762   9.714  0.8659 -0.7233  3.2927
   40MOL0     H 5376   4.653  11.748   9.956 -1.1463 -2.0304 -0.3177
   40MOL0     H 5377   4.631  11.917   9.928 -1.6738  0.3741 -0.8488
   40MOL0     H 5378   4.432  11.720  10.028  0.8572 -1.7624 -3.6262
   40MOL0     H 5379   4.380  11.872   9.947 -0.8916 -0.7632 -0.2928
   40MOL0     H 5380   4.567  11.866  10.192  2.9264 -0.8682 -3.9979
   40MOL0     H 5381   4.389  11.886  10.199  1.3938  1.7956  0.8498
   40MOL0     H 5382   4.015  11.360   9.622  3.3909  1.6582 -0.9649
   40MOL0     H 5383   3.778  11.378   9.657 -0.5294  1.1406 -2.4665
   40MOL0     H 5384   3.398  11.546   9.682 -0.6596 -1.8992 -0.2267
   40MOL0     H 5385   3.157  11.563   9.724 -1.2185 -1.0443  2.3029
   40MOL0     H 5386   3.620  11.068   9.035  2.9966  1.0286 -0.2970
   40MOL0     H 5387   3.548  10.938   8.822 -3.8400 -0.0874 -3.7476
   40MOL0     H 5388   3.034  10.939   8.511 -2.4042 -1.7180 -1.2400
   40MOL0     H 5389   2.996  10.779   8.328 -0.1812  0.3247 -0.1060
   40MOL0     H 5390   3.193  10.582   7.979  0.0243  0.1287  0.2623
   40MOL0     H 5391   3.323  10.685   8.040 -1.0549  0.3939 -2.5839
   40MOL0     H 5392   3.245  10.399   8.146 -3.2798  1.5365  0.3338
   40MOL0     H 5393   3.367  10.511   8.223  4.7137  0.5580 -3.6977
   40MOL0     H 5394   3.503  10.496   8.037  1.5964 -1.1795  2.4980
   40MOL0     H 5395   3.395  10.370   7.969 -0.1233 -0.1499  0.1972
   40MOL0     H 5396   3.549  10.239   8.091 -1.0619 -3.0406  3.1546
   40MOL0     H 5397   3.413  10.252   8.195  0.5260  1.1880  1.4046
   40MOL0     H 5398   3.692  10.457   8.418  0.6635  0.4249 -0.3968
   40MOL0     H 5399   3.412  10.753   8.242  1.0824 -2.2771  1.3188
   40MOL0     H 5400   3.459  10.894   8.425 -0.1854 -1.3409  2.6557
   41MOL0     O 5401  10.703   5.461   7.037  0.3117  0.5000 -0.0122
   41MOL0     C 5402  10.675   5.512   7.147 -0.2433 -0.2599 -0.9574
   41MOL0     O 5403  10.642   5.440   7.261 -0.1116 -0.1735 -0.6072
   41MOL0     C 5404  10.627   5.301   7.253  0.1784  0.1668 -0.9973
   41MOL0     C 5405  10.544   5.243   7.160  0.2625  0.4566  0.2425
   41MOL0     C 5406  10.537   5.101   7.156  1.4289  0.9229 -0.2358
   41MOL0     C 5407  10.597   5.020   7.252 -0.4737 -0.9013  1.1811
   41MOL0     O 5408  10.586   4.880   7.222 -0.5368  0.4459 -0.4093
   41MOL0     C 5409  10.651   4.784   7.308 -0.5409 -1.2373  0.8743
   41MOL0     C 5410  10.567   4.760   7.436 -0.4772  0.9337  0.2461
   41MOL0     C 5411  10.650   4.694   7.549 -0.5288  0.0777  0.4675
   41MOL0     C 5412  10.701   4.552   7.518 -0.2897  0.5542 -0.4860
   41MOL0     C 5413  10.811   4.500   7.610  0.4756 -0.0269 -1.7771
   41MOL0     C 5414  10.859   4.361   7.574 -0.7860 -0.4257 -0.1840
   41MOL0     C 5415  11.012   4.358   7.593 -0.1919  0.1001 -0.7844
   41MOL0     C 5416  11.089   4.357   7.458  0.7714 -0.2752  0.2534
   41MOL0     N 5417  11.230   4.323   7.485  0.0187  0.5430  0.2215
   41MOL0     C 5418  11.277   4.196   7.494 -0.7404 -0.9729  0.1226
   41MOL0     C 5419  11.406   4.209   7.454  0.4732 -0.3802  0.8980
   41MOL0     C 5420  11.510   4.109   7.411  0.4066  0.0885 -0.7196
   41MOL0     C 5421  11.483   3.978   7.490  0.3677  0.0387  0.3731
   41MOL0     C 5422  11.551   3.857   7.420 -0.2793  0.1237 -0.0719
   41MOL0     C 5423  11.535   3.727   7.506 -1.1512  0.0454  0.2589
   41MOL0     O 5424  11.597   3.630   7.426  0.1213 -0.3438  0.0745
   41MOL0     C 5425  11.626   3.505   7.480 -0.1063  1.6269 -0.0981
   41MOL0     C 5426  11.558   3.440   7.580 -0.9696  0.6839  0.5581
   41MOL0     C 5427  11.581   3.305   7.605  0.9072 -0.1886 -0.5746
   41MOL0     C 5428  11.485   3.250   7.708  0.5172  0.2097  0.4322
   41MOL0     C 5429  11.680   3.233   7.530  0.3532 -0.3672 -0.1999
   41MOL0     C 5430  11.707   3.097   7.555  0.9627  0.4482  0.7010
   41MOL0     O 5431  11.820   3.049   7.486  0.0286  0.5273  0.7010
   41MOL0     C 5432  11.818   2.916   7.455  0.2766 -0.0719  0.0257
   41MOL0     C 5433  11.763   2.866   7.339 -0.2652 -1.1585 -1.3219
   41MOL0     C 5434  11.776   2.732   7.313 -0.7980  0.4986  0.5238
   41MOL0     C 5435  11.838   2.640   7.400 -0.7497  0.6278  0.8371
   41MOL0     O 5436  11.843   2.507   7.371 -0.4292  0.2941  0.3630
   41MOL0     C 5437  11.862   2.394   7.465 -0.1131 -0.1585  1.0785
   41MOL0     C 5438  11.806   2.263   7.412 -0.3400 -0.1401 -1.0472
   41MOL0     C 5439  11.649   2.269   7.394 -0.0313 -0.7523 -1.1748
   41MOL0     C 5440  11.568   2.243   7.521  0.7118 -0.4463  0.3555
   41MOL0     C 5441  11.564   2.086   7.559  0.0967  0.2398  0.6475
   41MOL0     C 5442  11.560   1.978   7.448  0.5647  0.2215 -0.3815
   41MOL0     C 5443  11.596   1.836   7.495  0.0873  0.7589  0.8425
   41MOL0     C 5444  11.619   1.731   7.389  0.5010  0.8701 -0.0430
   41MOL0    Cl 5445  11.767   1.754   7.296  0.7516 -0.3903  0.2993
   41MOL0     C 5446  11.877   2.691   7.526  0.5284  0.5973  0.5497
   41MOL0     C 5447  11.865   2.825   7.550  0.3303 -0.3713  0.3340
   41MOL0     O 5448  11.642   3.026   7.633  0.5361  0.4106 -0.4146
   41MOL0     C 5449  11.738   3.299   7.423 -0.7122 -0.4588  0.3122
   41MOL0     C 5450  11.718   3.437   7.398  0.4047  0.6843  0.2350
   41MOL0     N 5451  11.432   4.345   7.454  0.1065  0.8542  0.3409
   41MOL0     N 5452  11.326   4.418   7.458  0.2570 -0.2634  1.1174
   41MOL0     C 5453  10.677   5.082   7.357 -0.3090  0.3165 -0.7174
   41MOL0     C 5454  10.668   5.223   7.361  0.4747 -0.3211  0.7105
   41MOL0     C 5455  10.691   5.655   7.169 -0.8686  0.2693 -0.5023
   41MOL0     C 5456  10.679   5.714   7.295  0.3933  0.1010 -0.2624
   41MOL0     C 5457  10.658   5.848   7.298 -0.1428 -0.2895  0.2147
   41MOL0     C 5458  10.686   5.938   7.193 -0.6762  0.3530 -0.1444
   41MOL0     O 5459  10.689   6.068   7.192  0.9945  0.3452  0.7078
   41MOL0     C 5460  10.653   6.132   7.316  0.4199 -0.8280 -0.8603
   41MOL0     C 5461  10.506   6.145   7.348  0.3647  0.8590  1.1243
   41MOL0     C 5462  10.437   6.239   7.257  0.6918  0.0620  0.4188
   41MOL0     C 5463  10.475   6.375   7.304 -0.5255  0.5966  0.7392
   41MOL0     C 5464  10.372   6.478   7.278  0.8306  0.4135  1.0743
   41MOL0     C 5465  10.271   6.534   7.227 -0.2169  0.0376  0.1254
   41MOL0     C 5466  10.713   5.872   7.069  0.0177  0.6894  0.6034
   41MOL0     C 5467  10.709   5.728   7.053 -0.9167 -0.0812 -0.7738
   41MOL0     H 5468  10.491   5.301   7.086 -1.6712  0.8978  1.8854
   41MOL0     H 5469  10.482   5.055   7.075  0.8029 -2.9059  2.1056
   41MOL0     H 5470  10.658   4.690   7.253  0.2715  1.5185 -4.3822
   41MOL0     H 5471  10.749   4.826   7.334 -2.1313  1.3977  3.2365
   41MOL0     H 5472  10.512   4.851   7.463  0.2290  0.8231  2.1959
   41MOL0     H 5473  10.493   4.687   7.400  1.5416 -1.0509 -0.0435
   41MOL0     H 5474  10.746   4.744   7.571  1.1262 -1.6951 -2.1957
   41MOL0     H 5475  10.590   4.678   7.639 -1.6465 -2.3752 -0.6158
   41MOL0     H 5476  10.610   4.491   7.520  0.8523 -1.2611 -1.7239
   41MOL0     H 5477  10.757   4.546   7.425  1.0951  1.0789  0.2862
   41MOL0     H 5478  10.895   4.569   7.598  1.5741 -1.0339 -0.3364
   41MOL0     H 5479  10.779   4.493   7.714  1.8812 -3.6450 -1.4097
   41MOL0     H 5480  10.805   4.292   7.639 -2.0159 -1.2062 -1.9685
   41MOL0     H 5481  10.826   4.331   7.474 -0.0651  1.4780 -1.0590
   41MOL0     H 5482  11.045   4.434   7.665 -2.0544 -1.6283  2.0744
   41MOL0     H 5483  11.036   4.265   7.645  0.1922  0.3292 -0.5447
   41MOL0     H 5484  11.085   4.452   7.403 -1.4345 -1.4364 -1.7690
   41MOL0     H 5485  11.038   4.287   7.391 -2.6176  2.3995 -0.2345
   41MOL0     H 5486  11.227   4.111   7.539 -1.0227 -0.3919  0.9407
   41MOL0     H 5487  11.483   4.093   7.307 -3.3552 -3.1490  0.5145
   41MOL0     H 5488  11.606   4.153   7.441  0.0141  0.3796  0.1597
   41MOL0     H 5489  11.375   3.963   7.491  0.1557  1.3052  2.8509
   41MOL0     H 5490  11.518   3.984   7.593  3.5398  2.8919 -0.6935
   41MOL0     H 5491  11.657   3.885   7.419  0.9694 -4.0064 -0.3346
   41MOL0     H 5492  11.512   3.851   7.318 -1.2228 -0.5286  0.3091
   41MOL0     H 5493  11.428   3.703   7.504 -1.1196 -0.2024  1.2538
   41MOL0     H 5494  11.579   3.735   7.606  0.7652  3.0574 -0.6810
   41MOL0     H 5495  11.483   3.502   7.628 -1.4918  2.1163 -1.8990
   41MOL0     H 5496  11.411   3.201   7.644  1.5776  1.3559 -1.7800
   41MOL0     H 5497  11.515   3.179   7.786  0.5412 -0.9224 -0.5762
   41MOL0     H 5498  11.421   3.329   7.748  0.1217  1.3335 -2.2450
   41MOL0     H 5499  11.697   2.930   7.281  2.6779  2.5247 -0.9527
   41MOL0     H 5500  11.744   2.674   7.227 -0.8713 -2.1068  2.1903
   41MOL0     H 5501  11.968   2.394   7.492 -0.2213  0.6175  1.5577
   41MOL0     H 5502  11.813   2.420   7.560  2.3917  2.7920  1.7405
   41MOL0     H 5503  11.852   2.252   7.313 -0.9903  1.0830 -1.5181
   41MOL0     H 5504  11.840   2.187   7.482 -1.1015  0.2661 -0.2049
   41MOL0     H 5505  11.621   2.211   7.305 -5.3061  1.8452 -1.6163
   41MOL0     H 5506  11.622   2.371   7.362  1.8796 -0.5275 -2.2001
   41MOL0     H 5507  11.605   2.295   7.610  1.4142 -1.1065  0.4607
   41MOL0     H 5508  11.466   2.278   7.505  0.0977  0.3315  4.5467
   41MOL0     H 5509  11.475   2.065   7.620 -1.0405 -0.2881 -1.1063
   41MOL0     H 5510  11.653   2.052   7.612  0.1623 -1.1886 -0.3203
   41MOL0     H 5511  11.459   1.970   7.407  0.8098 -0.2076 -0.9028
   41MOL0     H 5512  11.623   1.994   7.360  0.9789  1.2603  0.0809
   41MOL0     H 5513  11.517   1.788   7.554 -0.5801  1.4741  0.5524
   41MOL0     H 5514  11.696   1.840   7.538  1.7597  0.2087 -2.6293
   41MOL0     H 5515  11.533   1.721   7.323  1.3599  0.5216 -1.1562
   41MOL0     H 5516  11.631   1.631   7.432  3.2063  0.6324 -1.1165
   41MOL0     H 5517  11.916   2.626   7.603 -1.7507  1.9116  2.9606
   41MOL0     H 5518  11.909   2.879   7.634 -1.4007  2.1209 -0.2265
   41MOL0     H 5519  11.809   3.242   7.363  0.3422  3.1231 -2.1993
   41MOL0     H 5520  11.777   3.492   7.326  3.2336 -0.0935  1.8158
   41MOL0     H 5521  10.711   5.019   7.438  0.9959  0.3482 -1.2155
   41MOL0     H 5522  10.704   5.262   7.456  0.6043 -0.7949  0.8580
   41MOL0     H 5523  10.675   5.664   7.391 -0.4095  1.2565  0.3423
   41MOL0     H 5524  10.637   5.890   7.396  0.2958 -1.6063  0.9047
   41MOL0     H 5525  10.697   6.081   7.402 -0.0305 -1.4772 -1.0037
   41MOL0     H 5526  10.700   6.231   7.317  1.0360 -1.1201  0.2959
   41MOL0     H 5527  10.499   6.173   7.453  1.6661  1.3900  1.0853
   41MOL0     H 5528  10.467   6.043   7.351  2.8780 -0.1388  2.3236
   41MOL0     H 5529  10.331   6.214   7.260  1.1157 -2.6530 -2.0570
   41MOL0     H 5530  10.473   6.230   7.154  0.0318  1.2204  0.0714
   41MOL0     H 5531  10.562   6.401   7.243 -2.6799  0.2761 -2.7431
   41MOL0     H 5532  10.504   6.372   7.409  0.9605 -0.2676  0.3461
   41MOL0     H 5533  10.183   6.588   7.199  1.0058  3.4958  2.3063
   41MOL0     H 5534  10.726   5.935   6.982  0.2737  1.6134  1.3004
   41MOL0     H 5535  10.718   5.682   6.955 -4.1779 -2.2065 -0.2532
   42MOL0     O 5536   6.586   9.491   8.222  0.1885 -0.1418  0.4092
   42MOL0     C 5537   6.490   9.512   8.298  0.1585 -0.5742 -0.0434
   42MOL0     O 5538   6.483   9.607   8.396  0.1162  0.4420 -0.0230
   42MOL0     C 5539   6.597   9.674   8.432  0.1643 -0.4765 -0.6989
   42MOL0     C 5540   6.731   9.623   8.431  0.6566  0.1118  0.2203
   42MOL0     C 5541   6.839   9.696   8.485 -0.3168 -0.1916 -0.4473
   42MOL0     C 5542   6.832   9.815   8.546  1.1172 -0.3424 -0.5154
   42MOL0     O 5543   6.929   9.888   8.610  0.4510  0.2768  0.2818
   42MOL0     C 5544   7.029   9.817   8.687 -0.0411  0.0909  0.1545
   42MOL0     C 5545   6.981   9.786   8.830  0.6482  0.1065  0.5898
   42MOL0     C 5546   6.980   9.897   8.929 -0.7857 -0.0067 -0.6732
   42MOL0     C 5547   6.938   9.836   9.059 -0.6775 -0.6318 -0.8217
   42MOL0     C 5548   6.784   9.822   9.093 -1.0384 -0.5186 -0.7349
   42MOL0     C 5549   6.704   9.954   9.053 -0.0841  0.2002 -0.5237
   42MOL0     C 5550   6.562   9.949   9.104 -0.6763  0.0496 -0.2368
   42MOL0     C 5551   6.507  10.093   9.135 -0.6756 -0.3013  0.6377
   42MOL0     N 5552   6.566  10.159   9.255  0.1735  0.3352 -0.0194
   42MOL0     C 5553   6.515  10.149   9.380  0.6975  0.5185 -1.4134
   42MOL0     C 5554   6.592  10.230   9.462  0.0577 -0.3112  0.2639
   42MOL0     C 5555   6.558  10.270   9.603 -0.0175 -0.2718 -0.9269
   42MOL0     C 5556   6.530  10.426   9.621  0.8206  0.4211 -1.1506
   42MOL0     C 5557   6.395  10.479   9.578  0.2920 -0.6876  0.1787
   42MOL0     C 5558   6.384  10.493   9.423 -0.0651 -0.1403 -0.0498
   42MOL0     O 5559   6.269  10.440   9.357  0.3675  0.4542 -0.1474
   42MOL0     C 5560   6.260  10.425   9.224  0.5216  0.3195 -0.8743
   42MOL0     C 5561   6.337  10.493   9.130  0.2668  0.5305 -0.7658
   42MOL0     C 5562   6.343  10.450   9.000 -0.6339 -0.7721 -0.3835
   42MOL0     C 5563   6.407  10.540   8.896  1.0223  1.2902 -0.2160
   42MOL0     C 5564   6.290  10.326   8.971 -0.6010 -0.1560 -0.4227
   42MOL0     C 5565   6.330  10.251   8.849  0.3401 -0.2003 -0.4165
   42MOL0     O 5566   6.246  10.148   8.812 -0.5174 -0.0061  0.6135
   42MOL0     C 5567   6.247  10.089   8.697  0.0948 -0.3238 -0.5812
   42MOL0     C 5568   6.326  10.115   8.588 -0.1578  1.0164 -0.8974
   42MOL0     C 5569   6.315  10.048   8.467  0.8837  0.0952 -0.0179
   42MOL0     C 5570   6.218   9.951   8.448 -0.2016 -0.3800 -0.0928
   42MOL0     O 5571   6.208   9.877   8.331 -0.6874 -0.2896  0.3958
   42MOL0     C 5572   6.262   9.920   8.204 -0.1058  0.0777 -0.8593
   42MOL0     C 5573   6.202   9.812   8.111 -0.0072  0.1003 -0.2289
   42MOL0     C 5574   6.050   9.791   8.144  0.9180 -0.6670  0.0581
   42MOL0     C 5575   5.988   9.698   8.043 -0.3907 -0.0222 -0.0149
   42MOL0     C 5576   5.844   9.672   8.067  0.0508  0.7714 -0.2963
   42MOL0     C 5577   5.786   9.578   7.965  0.3597 -1.1002 -0.5729
   42MOL0     C 5578   5.632   9.556   7.998 -0.8921 -0.1265 -0.3768
   42MOL0     C 5579   5.565   9.480   7.888 -0.0102  1.0273 -0.3914
   42MOL0    Cl 5580   5.607   9.544   7.713  0.0062  0.0306  0.3936
   42MOL0     C 5581   6.127   9.918   8.556 -0.2327 -0.7287 -0.2308
   42MOL0     C 5582   6.143   9.980   8.680 -0.0785 -0.5719 -0.7928
   42MOL0     O 5583   6.440  10.278   8.799  0.2644 -1.5432 -0.0086
   42MOL0     C 5584   6.192  10.278   9.055  0.7088  0.3769  0.5863
   42MOL0     C 5585   6.186  10.313   9.183  0.0266 -0.4365 -0.2714
   42MOL0     N 5586   6.684  10.303   9.385 -0.1655 -0.0143  1.2418
   42MOL0     N 5587   6.661  10.264   9.255 -0.0615  0.4293 -0.6843
   42MOL0     C 5588   6.700   9.872   8.554 -0.2928 -0.3316  0.7304
   42MOL0     C 5589   6.591   9.805   8.485  0.6339 -0.5468 -0.2400
   42MOL0     C 5590   6.359   9.445   8.264  0.2917 -0.5802 -1.1896
   42MOL0     C 5591   6.357   9.331   8.183 -0.0161  0.1106 -0.3585
   42MOL0     C 5592   6.228   9.283   8.150 -0.1548  0.6497  0.3143
   42MOL0     C 5593   6.119   9.320   8.212  0.6183 -0.7383 -1.1676
   42MOL0     O 5594   6.005   9.250   8.188  0.3819  0.6229 -0.0434
   42MOL0     C 5595   5.872   9.282   8.220  0.9960 -0.4219 -0.5968
   42MOL0     C 5596   5.791   9.156   8.237  0.9895 -0.3269 -0.8598
   42MOL0     C 5597   5.636   9.192   8.243 -0.1106 -0.3567  0.3873
   42MOL0     C 5598   5.603   9.289   8.350 -0.4748  0.2484 -1.1074
   42MOL0     C 5599   5.647   9.229   8.476 -0.6634 -0.8954 -0.5886
   42MOL0     C 5600   5.684   9.174   8.573 -0.9089  0.1407 -0.8581
   42MOL0     C 5601   6.118   9.427   8.307 -0.1995  0.3156  0.6868
   42MOL0     C 5602   6.235   9.500   8.312 -1.0839  0.4080 -0.3221
   42MOL0     H 5603   6.751   9.526   8.386 -2.8725 -1.2668  1.2681
   42MOL0     H 5604   6.934   9.647   8.465  0.4802 -0.3094  3.0506
   42MOL0     H 5605   7.054   9.726   8.631  2.5351 -0.3103  1.7998
   42MOL0     H 5606   7.118   9.878   8.704 -0.5259  0.1359  3.1452
   42MOL0     H 5607   6.882   9.740   8.830  0.5565  0.2142  2.8532
   42MOL0     H 5608   7.063   9.724   8.867  2.8087  2.5853  0.3189
   42MOL0     H 5609   7.082   9.935   8.940 -0.8186 -0.0622 -0.1554
   42MOL0     H 5610   6.908   9.973   8.895 -0.1731  1.2654  0.7509
   42MOL0     H 5611   6.978   9.734   9.064  1.7412  0.2660 -0.7007
   42MOL0     H 5612   6.986   9.901   9.132 -0.2597 -0.6774 -1.0511
   42MOL0     H 5613   6.750   9.734   9.038  3.9283 -1.9058 -2.0338
   42MOL0     H 5614   6.770   9.805   9.200  0.3271 -3.8437 -0.9679
   42MOL0     H 5615   6.766  10.034   9.095  1.2004 -0.1421 -1.7328
   42MOL0     H 5616   6.698   9.966   8.945 -3.1145  1.1152 -0.3659
   42MOL0     H 5617   6.501   9.907   9.023 -0.5590 -0.5693 -0.0132
   42MOL0     H 5618   6.549   9.890   9.194  0.8385 -2.0462 -1.3035
   42MOL0     H 5619   6.398  10.092   9.139 -0.7138  1.3256  0.7034
   42MOL0     H 5620   6.536  10.158   9.052  0.0145  0.0949  1.1795
   42MOL0     H 5621   6.435  10.086   9.418  0.7811  0.9270 -0.5230
   42MOL0     H 5622   6.462  10.223   9.624  0.9300 -1.8743  0.0266
   42MOL0     H 5623   6.629  10.233   9.677  1.1657  1.5819 -1.0737
   42MOL0     H 5624   6.600  10.487   9.565  0.4257 -1.1375 -3.4813
   42MOL0     H 5625   6.528  10.442   9.730 -1.9725 -2.9447 -0.5020
   42MOL0     H 5626   6.381  10.578   9.622  2.1754 -1.0223  1.6376
   42MOL0     H 5627   6.310  10.420   9.610  0.6970 -0.0251  2.6539
   42MOL0     H 5628   6.478  10.465   9.375 -0.2312 -1.0860  0.1483
   42MOL0     H 5629   6.384  10.602   9.411  0.8406 -0.3322 -2.2469
   42MOL0     H 5630   6.392  10.578   9.168  1.4418 -1.1519  1.5862
   42MOL0     H 5631   6.513  10.512   8.892  1.1171  1.7967 -1.9240
   42MOL0     H 5632   6.370  10.518   8.795  3.2936 -2.5748 -0.4001
   42MOL0     H 5633   6.396  10.645   8.923 -1.2046  0.7011  1.4663
   42MOL0     H 5634   6.401  10.194   8.587  1.0546 -0.1138 -1.2204
   42MOL0     H 5635   6.379  10.074   8.384 -1.3631  0.2873 -1.8022
   42MOL0     H 5636   6.215  10.017   8.184 -4.4339 -1.4898  0.7010
   42MOL0     H 5637   6.371   9.925   8.209  0.0701 -2.9050 -0.2163
   42MOL0     H 5638   6.215   9.854   8.011  1.3560  0.5556  0.1226
   42MOL0     H 5639   6.259   9.719   8.111 -1.7869 -1.0520 -1.4933
   42MOL0     H 5640   6.006   9.890   8.131  1.4388  0.0451  2.8907
   42MOL0     H 5641   6.028   9.755   8.245 -2.4744 -0.2536 -0.4443
   42MOL0     H 5642   6.011   9.742   7.946  1.0348 -2.3395 -0.8160
   42MOL0     H 5643   6.031   9.598   8.057 -2.5094 -0.5494  4.5802
   42MOL0     H 5644   5.792   9.767   8.055  0.4658  1.5206  2.9515
   42MOL0     H 5645   5.820   9.636   8.167 -1.3479  0.4576 -0.7168
   42MOL0     H 5646   5.803   9.622   7.866 -1.9208  3.3141  0.6978
   42MOL0     H 5647   5.826   9.477   7.977 -0.1621 -1.2142  0.2542
   42MOL0     H 5648   5.596   9.658   8.013 -5.0343 -1.5796  1.0666
   42MOL0     H 5649   5.624   9.499   8.090  1.6884 -2.4999 -1.4663
   42MOL0     H 5650   5.458   9.490   7.906 -0.7531  1.1640 -4.1254
   42MOL0     H 5651   5.611   9.381   7.899 -0.7591  0.7609  0.5695
   42MOL0     H 5652   6.057   9.834   8.551  3.3088 -3.9492 -0.0868
   42MOL0     H 5653   6.083   9.951   8.766 -0.9611  2.1611 -0.3706
   42MOL0     H 5654   6.127  10.195   9.029 -1.0308  1.4452  1.3976
   42MOL0     H 5655   6.121  10.277   9.262 -0.6230  0.6447 -0.2940
   42MOL0     H 5656   6.677   9.956   8.618 -3.2947 -1.0284  0.7187
   42MOL0     H 5657   6.490   9.846   8.481  1.7037  2.2417 -1.0433
   42MOL0     H 5658   6.442   9.281   8.138 -0.9130  0.1565 -2.2235
   42MOL0     H 5659   6.218   9.202   8.077  1.5108  0.7883 -0.1080
   42MOL0     H 5660   5.875   9.349   8.307  1.7322 -1.5854  0.3027
   42MOL0     H 5661   5.818   9.337   8.142 -2.9847  0.4380  2.4456
   42MOL0     H 5662   5.822   9.094   8.321  4.0223 -2.1071 -3.0658
   42MOL0     H 5663   5.799   9.092   8.149  0.9865  0.2199 -1.2693
   42MOL0     H 5664   5.580   9.104   8.274  0.6872 -0.7738  0.6793
   42MOL0     H 5665   5.592   9.226   8.149 -1.4934  2.4185  1.9022
   42MOL0     H 5666   5.494   9.297   8.345 -0.5504  0.2730  0.2380
   42MOL0     H 5667   5.653   9.386   8.345  2.4744 -1.2055 -2.4217
   42MOL0     H 5668   5.718   9.141   8.669 -0.1193  1.0607 -0.8116
   42MOL0     H 5669   6.035   9.461   8.369  0.5993 -1.3549  2.8187
   42MOL0     H 5670   6.247   9.593   8.366  2.9836 -0.7789  1.2243
   43MOL0     O 5671   9.756   7.234   6.262 -0.0605 -0.0013 -0.4706
   43MOL0     C 5672   9.816   7.131   6.298  0.3998  0.7046  0.8214
   43MOL0     O 5673   9.755   7.011   6.330 -0.2879 -0.7364  0.0771
   43MOL0     C 5674   9.615   7.006   6.337  0.7670 -0.1698  0.1547
   43MOL0     C 5675   9.541   6.950   6.240 -0.0739  0.0140 -0.7883
   43MOL0     C 5676   9.400   6.935   6.252 -0.2444  0.0258  0.3752
   43MOL0     C 5677   9.335   6.995   6.361 -1.2597 -0.3778 -0.2760
   43MOL0     O 5678   9.201   6.996   6.359 -0.1817  0.4233  0.8688
   43MOL0     C 5679   9.120   7.088   6.433 -0.7239  0.0209 -0.9188
   43MOL0     C 5680   8.974   7.047   6.439 -1.0656 -0.1558  1.0089
   43MOL0     C 5681   8.880   7.111   6.325 -0.0765 -0.4248 -0.9461
   43MOL0     C 5682   8.826   7.250   6.362  0.5670  0.7335 -0.2213
   43MOL0     C 5683   8.733   7.309   6.255  0.5895 -0.8941  0.5915
   43MOL0     C 5684   8.693   7.459   6.260 -0.0709 -0.1468  0.9958
   43MOL0     C 5685   8.647   7.502   6.397  0.0664 -0.5273  0.3042
   43MOL0     C 5686   8.564   7.630   6.391 -0.6214 -0.2153 -0.2060
   43MOL0     N 5687   8.539   7.664   6.532 -0.0448 -0.2601  0.7647
   43MOL0     C 5688   8.625   7.739   6.610 -0.9036 -0.0032 -0.0870
   43MOL0     C 5689   8.562   7.736   6.734 -0.5134  0.0046  0.4062
   43MOL0     C 5690   8.606   7.808   6.856 -0.3556 -0.3783 -0.0337
   43MOL0     C 5691   8.654   7.700   6.952  0.0478  0.8691 -0.4157
   43MOL0     C 5692   8.719   7.778   7.070 -0.2165 -0.1997 -0.1602
   43MOL0     C 5693   8.746   7.683   7.182  0.2454  0.1781 -0.4815
   43MOL0     O 5694   8.830   7.575   7.144 -0.0063 -0.1363 -0.6478
   43MOL0     C 5695   8.918   7.560   7.251  0.4631  0.2442 -0.6350
   43MOL0     C 5696   8.880   7.544   7.379 -0.0647  0.0381 -0.7774
   43MOL0     C 5697   8.974   7.520   7.475 -0.5691 -0.2696 -1.4821
   43MOL0     C 5698   8.938   7.527   7.620  0.2298 -0.1625  0.2111
   43MOL0     C 5699   9.101   7.489   7.443 -0.6620  0.5476  0.4422
   43MOL0     C 5700   9.218   7.464   7.538  0.2103  0.6798 -0.6655
   43MOL0     O 5701   9.193   7.386   7.648  0.4109  0.8620  0.0677
   43MOL0     C 5702   9.294   7.367   7.742  0.0904 -0.6212  0.4165
   43MOL0     C 5703   9.406   7.290   7.721  0.3867 -0.3370  0.5807
   43MOL0     C 5704   9.513   7.284   7.816  0.2814 -0.1550  0.0575
   43MOL0     C 5705   9.501   7.352   7.942 -0.2839 -0.6303 -0.2794
   43MOL0     O 5706   9.609   7.363   8.031  0.0455 -1.1881  0.3918
   43MOL0     C 5707   9.734   7.299   8.003  0.5413 -0.4511 -0.9487
   43MOL0     C 5708   9.830   7.347   8.119  0.8829  0.9403 -0.0793
   43MOL0     C 5709   9.835   7.495   8.132 -0.5415 -0.9118 -0.7042
   43MOL0     C 5710   9.925   7.538   8.247  0.4082 -0.3374 -0.3394
   43MOL0     C 5711  10.064   7.565   8.203 -0.1548 -0.8026 -0.1908
   43MOL0     C 5712  10.163   7.585   8.324  0.8118  0.1166  0.1612
   43MOL0     C 5713  10.304   7.603   8.266 -0.1432  0.2438  0.0750
   43MOL0     C 5714  10.333   7.732   8.195 -0.1649  1.1615 -0.8104
   43MOL0    Cl 5715  10.331   7.854   8.309 -0.0170 -0.1740  0.4401
   43MOL0     C 5716   9.389   7.427   7.963 -0.3571 -1.5165  0.7431
   43MOL0     C 5717   9.283   7.439   7.870 -0.1821 -1.2844  0.8050
   43MOL0     O 5718   9.319   7.531   7.527 -0.1026 -0.4997 -0.0452
   43MOL0     C 5719   9.134   7.509   7.308  0.2763 -0.8847 -0.0879
   43MOL0     C 5720   9.047   7.553   7.210 -0.3296  0.2247 -0.0048
   43MOL0     N 5721   8.441   7.672   6.720  1.4181 -0.5328 -0.2249
   43MOL0     N 5722   8.425   7.630   6.594 -0.3000 -0.5869  0.3606
   43MOL0     C 5723   9.417   7.046   6.460 -0.8976  0.3219 -0.6482
   43MOL0     C 5724   9.556   7.050   6.449  0.4157  0.3011 -0.7612
   43MOL0     C 5725   9.966   7.126   6.326 -0.8770  0.0023 -0.9586
   43MOL0     C 5726  10.028   7.015   6.367  0.1759  0.4336  0.3132
   43MOL0     C 5727  10.164   7.005   6.390 -0.8453 -0.4638  0.2417
   43MOL0     C 5728  10.249   7.114   6.363  0.3033 -0.7115  0.7926
   43MOL0     O 5729  10.386   7.093   6.366  0.4288 -0.1643 -0.0883
   43MOL0     C 5730  10.447   7.188   6.452 -0.4857 -0.4450  0.1638
   43MOL0     C 5731  10.425   7.158   6.597  0.1643  0.2744 -0.8935
   43MOL0     C 5732  10.525   7.062   6.671  0.2378 -0.1856  0.4403
   43MOL0     C 5733  10.507   6.924   6.618  0.1260 -0.3536  0.4041
   43MOL0     C 5734  10.623   6.826   6.625 -0.1217 -0.7041  0.7350
   43MOL0     C 5735  10.716   6.751   6.649 -0.8293  0.7629  0.4969
   43MOL0     C 5736  10.186   7.234   6.304 -0.1761  0.7623  0.5595
   43MOL0     C 5737  10.049   7.238   6.286  0.2340 -1.1519  0.7063
   43MOL0     H 5738   9.594   6.905   6.156  1.0170 -1.7034  0.7292
   43MOL0     H 5739   9.356   6.881   6.168  0.6047  0.6190 -0.4663
   43MOL0     H 5740   9.168   7.100   6.530 -2.8545  2.0476 -0.0228
   43MOL0     H 5741   9.139   7.184   6.382  0.1337 -0.4631 -1.5301
   43MOL0     H 5742   8.956   6.940   6.431  1.8228 -0.6672 -0.0958
   43MOL0     H 5743   8.937   7.086   6.534 -0.8499 -2.0542  1.9007
   43MOL0     H 5744   8.934   7.121   6.231 -1.4724  0.1119 -1.7288
   43MOL0     H 5745   8.794   7.046   6.308 -2.2536  2.7730 -3.4632
   43MOL0     H 5746   8.781   7.244   6.461  1.9213  0.8231  0.4333
   43MOL0     H 5747   8.903   7.329   6.362 -0.9898  2.4660 -3.5333
   43MOL0     H 5748   8.785   7.295   6.159  2.0925  0.9377  1.0844
   43MOL0     H 5749   8.647   7.243   6.242 -0.0779 -0.0683  0.7407
   43MOL0     H 5750   8.773   7.521   6.218 -1.3351  2.0085  1.6285
   43MOL0     H 5751   8.603   7.468   6.199 -1.1480 -0.5552  2.4626
   43MOL0     H 5752   8.591   7.420   6.442  2.1709 -1.0343  2.1421
   43MOL0     H 5753   8.733   7.529   6.459 -1.6594  2.0699  1.7968
   43MOL0     H 5754   8.474   7.609   6.332  0.6199 -0.3672 -2.1200
   43MOL0     H 5755   8.636   7.699   6.346 -1.6725  0.1727 -1.3531
   43MOL0     H 5756   8.725   7.770   6.582  0.3045 -3.0271  0.4601
   43MOL0     H 5757   8.690   7.873   6.829 -2.7743  2.2642 -1.8293
   43MOL0     H 5758   8.526   7.869   6.899  0.6389  0.0798  1.2288
   43MOL0     H 5759   8.724   7.620   6.925 -0.8467 -0.6898  1.5654
   43MOL0     H 5760   8.565   7.641   6.977  0.0360 -0.3277 -2.8975
   43MOL0     H 5761   8.653   7.861   7.098  1.3980  1.4146 -0.9703
   43MOL0     H 5762   8.811   7.829   7.041  0.1653 -0.4332  0.6199
   43MOL0     H 5763   8.647   7.658   7.222 -0.3281  1.6443 -0.9256
   43MOL0     H 5764   8.795   7.747   7.255 -2.1626  2.0562 -0.3940
   43MOL0     H 5765   8.777   7.548   7.412  0.6273  2.1995  1.4609
   43MOL0     H 5766   8.839   7.574   7.629  0.0533 -0.4043 -0.4747
   43MOL0     H 5767   8.934   7.428   7.667  1.8841 -1.1773 -1.6459
   43MOL0     H 5768   9.012   7.585   7.676  2.0377 -0.6070 -1.6206
   43MOL0     H 5769   9.429   7.251   7.622 -1.5137 -1.0972  0.3908
   43MOL0     H 5770   9.602   7.229   7.787  0.7918 -0.7851  2.6175
   43MOL0     H 5771   9.714   7.192   8.017 -2.0264 -0.0898 -1.3831
   43MOL0     H 5772   9.777   7.333   7.908  4.6849  2.7145  1.6879
   43MOL0     H 5773   9.785   7.309   8.211  0.1934  1.7416 -0.0708
   43MOL0     H 5774   9.932   7.310   8.105  0.9157  1.1159 -0.3151
   43MOL0     H 5775   9.737   7.538   8.153 -0.9537 -0.7784 -2.7176
   43MOL0     H 5776   9.873   7.546   8.043  0.3420 -2.5841 -1.3231
   43MOL0     H 5777   9.886   7.631   8.287 -0.6036  0.2679 -2.5883
   43MOL0     H 5778   9.925   7.460   8.323  1.5899  0.9616  1.0472
   43MOL0     H 5779  10.060   7.656   8.142 -0.0178  1.6331  3.1421
   43MOL0     H 5780  10.111   7.485   8.144 -0.6094  0.7745 -2.8728
   43MOL0     H 5781  10.135   7.679   8.372 -1.1037  0.0823 -0.7913
   43MOL0     H 5782  10.149   7.495   8.385 -3.2987 -0.5975 -1.5190
   43MOL0     H 5783  10.311   7.523   8.191 -0.1488  0.5382 -0.2455
   43MOL0     H 5784  10.380   7.598   8.344 -1.6793  1.4924  1.7313
   43MOL0     H 5785  10.258   7.765   8.122  0.6902 -0.1202 -2.3268
   43MOL0     H 5786  10.432   7.730   8.148  0.3053  1.9583  0.1286
   43MOL0     H 5787   9.370   7.484   8.054  1.5835 -1.1330  0.9518
   43MOL0     H 5788   9.196   7.501   7.892  2.2807  2.8134 -0.0051
   43MOL0     H 5789   9.230   7.479   7.267  0.1928 -1.8703  0.4031
   43MOL0     H 5790   9.076   7.580   7.109  3.1167 -1.2793  0.4108
   43MOL0     H 5791   9.386   7.091   6.554 -3.3005  0.8211 -1.6019
   43MOL0     H 5792   9.604   7.107   6.528 -0.6254 -0.7464  0.6581
   43MOL0     H 5793   9.976   6.920   6.375 -4.7132  2.7642  0.0842
   43MOL0     H 5794  10.211   6.916   6.430 -1.3995 -0.4019  1.0785
   43MOL0     H 5795  10.554   7.204   6.433 -0.4222  1.5312  1.8197
   43MOL0     H 5796  10.412   7.286   6.419 -1.5501 -1.2730 -1.2459
   43MOL0     H 5797  10.329   7.108   6.608  0.0369  0.8934  1.2467
   43MOL0     H 5798  10.417   7.253   6.650 -3.9160 -2.1371  3.5939
   43MOL0     H 5799  10.510   7.060   6.779 -0.9855  2.5209  0.3961
   43MOL0     H 5800  10.626   7.101   6.656  0.0211  0.3905  0.4386
   43MOL0     H 5801  10.486   6.932   6.511 -1.5092  1.4527  0.8144
   43MOL0     H 5802  10.422   6.882   6.672  0.6786 -1.1826  0.6486
   43MOL0     H 5803  10.807   6.705   6.683 -1.5337  0.5662  2.2374
   43MOL0     H 5804  10.251   7.317   6.276 -1.3872  1.0084 -1.7431
   43MOL0     H 5805   9.984   7.316   6.248 -0.3094 -1.6499  0.6059
   44MOL0     O 5806   7.402   1.977   2.761 -1.3443 -0.1710  0.8427
   44MOL0     C 5807   7.449   2.000   2.867  1.8509 -0.4070  0.5404
   44MOL0     O 5808   7.571   2.059   2.890  0.2344  0.2885  0.0998
   44MOL0     C 5809   7.680   2.042   2.802 -0.3834  0.1397 -0.1017
   44MOL0     C 5810   7.792   2.116   2.835  0.6522 -0.4894  0.8459
   44MOL0     C 5811   7.905   2.117   2.752 -0.8509 -0.4381  0.5008
   44MOL0     C 5812   7.902   2.037   2.632  0.9271 -0.1070 -1.0676
   44MOL0     O 5813   8.006   2.029   2.547  0.4741  0.1724 -0.4312
   44MOL0     C 5814   8.039   2.151   2.478 -1.0979  0.0866 -0.0602
   44MOL0     C 5815   8.177   2.148   2.424  0.5587 -0.1440  0.8641
   44MOL0     C 5816   8.184   2.065   2.301  0.7902 -0.3347 -0.8212
   44MOL0     C 5817   8.227   2.157   2.181  0.7713  0.7038  0.1461
   44MOL0     C 5818   8.225   2.078   2.042 -0.0645 -0.7106 -0.6261
   44MOL0     C 5819   8.270   2.171   1.934  0.6816 -0.3467  0.8053
   44MOL0     C 5820   8.277   2.108   1.796  0.5001 -0.0854  0.4484
   44MOL0     C 5821   8.142   2.123   1.721  0.6088  0.3841  0.0788
   44MOL0     N 5822   8.113   2.246   1.648 -1.1003 -0.2890 -0.0432
   44MOL0     C 5823   8.022   2.342   1.682  0.6170  0.1227  1.2021
   44MOL0     C 5824   8.011   2.426   1.581 -0.0810  0.2689 -0.0424
   44MOL0     C 5825   7.906   2.535   1.555  0.3311  0.5198 -0.9304
   44MOL0     C 5826   7.834   2.519   1.426  0.4542 -0.3364  0.1291
   44MOL0     C 5827   7.774   2.657   1.381 -1.0764 -0.1546  0.2790
   44MOL0     C 5828   7.682   2.719   1.490 -0.4908  0.7430  1.4036
   44MOL0     O 5829   7.641   2.855   1.458 -0.2541  0.5357 -0.1176
   44MOL0     C 5830   7.539   2.916   1.524 -0.3356  0.2710  0.5035
   44MOL0     C 5831   7.465   3.009   1.453 -0.8499 -0.1505 -0.1383
   44MOL0     C 5832   7.366   3.102   1.505 -0.1431  0.1210 -1.4846
   44MOL0     C 5833   7.288   3.192   1.417  0.4144  0.2066 -0.1357
   44MOL0     C 5834   7.343   3.089   1.653  0.9539  0.5298  0.4277
   44MOL0     C 5835   7.248   3.167   1.730 -0.1489  0.6311  0.6216
   44MOL0     O 5836   7.253   3.147   1.859 -0.6523  0.9260  0.6792
   44MOL0     C 5837   7.187   3.232   1.949  0.2559  0.4214  0.6654
   44MOL0     C 5838   7.194   3.369   1.951  0.2779 -1.1086 -0.0880
   44MOL0     C 5839   7.148   3.443   2.063  0.0009  0.6485 -0.1225
   44MOL0     C 5840   7.105   3.373   2.177 -1.7371 -0.2329 -0.6614
   44MOL0     O 5841   7.088   3.424   2.303 -0.8232  0.5316 -0.0198
   44MOL0     C 5842   7.048   3.562   2.310 -0.0588 -0.3232 -0.0311
   44MOL0     C 5843   7.159   3.656   2.356 -0.4075  0.2061 -0.0836
   44MOL0     C 5844   7.131   3.804   2.353 -0.4746  1.2465 -0.0551
   44MOL0     C 5845   7.113   3.874   2.216 -0.9933  0.6215  1.2391
   44MOL0     C 5846   7.154   4.023   2.209  0.5312  0.0618  0.4271
   44MOL0     C 5847   7.097   4.099   2.077 -0.6769 -0.0249 -0.2707
   44MOL0     C 5848   6.941   4.093   2.071  0.3377  0.5564  0.2731
   44MOL0     C 5849   6.878   4.226   2.120  0.4438 -0.2749 -0.1917
   44MOL0    Cl 5850   6.700   4.232   2.058 -0.3882 -0.2271  0.0324
   44MOL0     C 5851   7.094   3.237   2.164  0.3251  0.9132 -0.6586
   44MOL0     C 5852   7.131   3.166   2.056  0.3028  0.2287  0.1647
   44MOL0     O 5853   7.158   3.231   1.677 -0.0124  0.1478 -0.5780
   44MOL0     C 5854   7.429   2.996   1.724  1.2453  0.3925  0.4581
   44MOL0     C 5855   7.520   2.913   1.664 -0.1300  0.2371  0.0205
   44MOL0     N 5856   8.105   2.388   1.487  0.8650  0.2177 -0.2061
   44MOL0     N 5857   8.147   2.267   1.519  0.4174  0.3175  1.0691
   44MOL0     C 5858   7.794   1.949   2.619 -0.3232 -0.4484  0.9367
   44MOL0     C 5859   7.685   1.945   2.705 -0.8050  0.2724  0.6028
   44MOL0     C 5860   7.348   2.005   2.974 -0.4944  0.3181 -0.0260
   44MOL0     C 5861   7.219   1.965   2.955  0.2187  0.4277  0.0180
   44MOL0     C 5862   7.129   1.941   3.065 -0.2108 -1.1428 -0.1057
   44MOL0     C 5863   7.163   1.985   3.191  0.1567 -0.6152  0.4478
   44MOL0     O 5864   7.064   1.979   3.284  1.1961 -0.3210 -0.4492
   44MOL0     C 5865   7.083   2.037   3.410 -0.5247 -0.0216  0.8298
   44MOL0     C 5866   6.948   2.051   3.486 -0.0748 -0.7610  1.0151
   44MOL0     C 5867   6.855   2.157   3.411  0.7394 -0.4759  0.6067
   44MOL0     C 5868   6.759   2.216   3.515  0.2383  0.1747 -0.5631
   44MOL0     C 5869   6.826   2.299   3.617  0.3373  0.7993  0.9251
   44MOL0     C 5870   6.879   2.366   3.705  0.3069 -0.2494 -1.1113
   44MOL0     C 5871   7.292   2.036   3.207 -0.5956  0.0902 -0.7613
   44MOL0     C 5872   7.385   2.055   3.104 -0.4475 -0.2653 -0.1202
   44MOL0     H 5873   7.774   2.171   2.927  0.2120 -3.0279  2.3550
   44MOL0     H 5874   7.994   2.173   2.775 -0.6552 -0.0120 -1.1911
   44MOL0     H 5875   7.976   2.180   2.393  1.5786  0.5438 -2.0517
   44MOL0     H 5876   8.050   2.232   2.550  2.3808  1.1790 -1.5910
   44MOL0     H 5877   8.215   2.245   2.391 -0.0502  0.2068  1.1975
   44MOL0     H 5878   8.239   2.114   2.508 -0.1827  0.4747  1.6720
   44MOL0     H 5879   8.257   1.986   2.319  1.5546  0.9310  2.3358
   44MOL0     H 5880   8.089   2.016   2.279 -1.0398  2.7263 -0.3622
   44MOL0     H 5881   8.157   2.240   2.171 -0.6441 -0.4379  0.2622
   44MOL0     H 5882   8.326   2.196   2.204  0.1131  3.3598 -1.1307
   44MOL0     H 5883   8.291   1.990   2.048 -2.6642 -2.7127  0.5637
   44MOL0     H 5884   8.123   2.045   2.024 -1.6531  1.8465  2.6879
   44MOL0     H 5885   8.206   2.261   1.932  0.1830 -0.7039  0.3137
   44MOL0     H 5886   8.371   2.209   1.954  0.5667 -0.3081  1.3259
   44MOL0     H 5887   8.356   2.155   1.737 -1.8755  1.0304 -2.0757
   44MOL0     H 5888   8.301   2.001   1.791 -0.3549 -0.2737  0.2375
   44MOL0     H 5889   8.060   2.114   1.793  3.2394  2.0345  3.6078
   44MOL0     H 5890   8.120   2.042   1.651 -2.8435  0.2790  1.1062
   44MOL0     H 5891   7.950   2.342   1.762 -3.6104  0.9985 -2.2250
   44MOL0     H 5892   7.836   2.532   1.639 -0.1369  0.7742 -1.3028
   44MOL0     H 5893   7.952   2.634   1.552  2.0316  0.2603  5.0108
   44MOL0     H 5894   7.771   2.430   1.430  1.6895 -1.2858 -0.5641
   44MOL0     H 5895   7.905   2.489   1.348  0.8758  1.5159 -0.2407
   44MOL0     H 5896   7.721   2.653   1.286  0.1227  1.8934 -0.5457
   44MOL0     H 5897   7.861   2.722   1.367 -1.9208  1.1736  0.9172
   44MOL0     H 5898   7.725   2.707   1.590 -0.2295 -3.2636  0.9661
   44MOL0     H 5899   7.602   2.645   1.486 -0.1502  0.3978 -1.7240
   44MOL0     H 5900   7.488   3.009   1.347 -2.1996 -1.1027 -0.4439
   44MOL0     H 5901   7.184   3.162   1.401 -0.0182  2.5471 -2.3424
   44MOL0     H 5902   7.277   3.294   1.456 -4.7430  1.0862 -3.0066
   44MOL0     H 5903   7.338   3.188   1.320 -0.7691  1.5917 -0.8500
   44MOL0     H 5904   7.242   3.419   1.868  1.0171  0.1845  1.0641
   44MOL0     H 5905   7.161   3.550   2.053 -2.0405  0.7363 -2.9928
   44MOL0     H 5906   7.002   3.595   2.216 -0.8809 -0.1153  0.4313
   44MOL0     H 5907   6.967   3.558   2.383  0.2222 -2.6263  0.2128
   44MOL0     H 5908   7.187   3.633   2.459  0.3709  1.9130  0.1201
   44MOL0     H 5909   7.245   3.644   2.289 -0.3776  5.6278 -1.5074
   44MOL0     H 5910   7.222   3.839   2.402  1.8267 -2.6915 -1.0387
   44MOL0     H 5911   7.043   3.826   2.414 -1.1688  0.5965 -0.7993
   44MOL0     H 5912   7.159   3.817   2.136  0.0823  1.4243  1.2660
   44MOL0     H 5913   7.006   3.860   2.198 -0.5294 -0.8533 -0.7744
   44MOL0     H 5914   7.263   4.024   2.221  0.4199  0.1332  1.6269
   44MOL0     H 5915   7.108   4.070   2.297 -1.9168 -1.1005 -0.1440
   44MOL0     H 5916   7.135   4.201   2.064 -1.2442  0.5213  1.9022
   44MOL0     H 5917   7.141   4.042   1.995 -2.5516  0.3389 -1.5904
   44MOL0     H 5918   6.907   4.009   2.132  1.3483 -1.0378 -1.2533
   44MOL0     H 5919   6.914   4.068   1.968 -0.1748  1.6360  0.1363
   44MOL0     H 5920   6.930   4.309   2.070 -0.0614  0.2961  0.2178
   44MOL0     H 5921   6.863   4.229   2.228 -0.1795 -2.7304 -0.1615
   44MOL0     H 5922   7.061   3.194   2.258  4.3294 -0.4278  0.3065
   44MOL0     H 5923   7.133   3.057   2.061 -2.3318  0.1263  0.4579
   44MOL0     H 5924   7.422   2.981   1.832 -2.0022 -1.7134  0.1225
   44MOL0     H 5925   7.564   2.842   1.733  1.5498  0.2515 -0.9656
   44MOL0     H 5926   7.802   1.875   2.540 -3.1900  1.4234 -1.3218
   44MOL0     H 5927   7.612   1.866   2.694 -0.8079  0.5003 -1.3367
   44MOL0     H 5928   7.188   1.930   2.858 -0.6555  1.0974  0.0432
   44MOL0     H 5929   7.033   1.895   3.046 -0.9377 -0.4654  1.7355
   44MOL0     H 5930   7.161   1.978   3.459  1.1265 -0.4095 -2.0195
   44MOL0     H 5931   7.111   2.142   3.391 -0.6274 -0.4764 -2.5934
   44MOL0     H 5932   6.973   2.079   3.588  1.4370 -0.7921  0.6814
   44MOL0     H 5933   6.905   1.950   3.486  0.5493 -1.2623 -3.7160
   44MOL0     H 5934   6.793   2.103   3.338  1.9130 -0.2225 -0.6213
   44MOL0     H 5935   6.912   2.225   3.347  3.0992 -4.3610 -1.8352
   44MOL0     H 5936   6.732   2.126   3.571  2.7078 -0.8407 -0.9034
   44MOL0     H 5937   6.676   2.276   3.477  1.2945  2.2177  0.1989
   44MOL0     H 5938   6.923   2.447   3.760 -3.2030  1.0551  0.0774
   44MOL0     H 5939   7.323   2.077   3.303  3.3347  2.4983 -2.7867
   44MOL0     H 5940   7.484   2.096   3.119 -0.1734  0.1892 -2.7018
   45MOL0     O 5941   5.158   3.499  10.494 -0.8253 -0.1679 -0.2485
   45MOL0     C 5942   5.163   3.597  10.418 -0.5205 -1.2842 -0.8454
   45MOL0     O 5943   5.263   3.700  10.420 -0.1998 -0.1259  0.4310
   45MOL0     C 5944   5.382   3.670  10.478 -0.7720 -0.4729  0.5568
   45MOL0     C 5945   5.468   3.571  10.419  0.6112 -1.2247  0.0950
   45MOL0     C 5946   5.586   3.536  10.494 -0.1305 -0.2831  0.1527
   45MOL0     C 5947   5.633   3.597  10.613  0.8540 -0.2205  0.1736
   45MOL0     O 5948   5.759   3.564  10.664  0.5347 -0.0512  0.9210
   45MOL0     C 5949   5.786   3.596  10.801 -0.4142  0.5260  0.0853
   45MOL0     C 5950   5.871   3.722  10.794  0.2319 -0.5345 -0.5670
   45MOL0     C 5951   6.018   3.689  10.781  0.6174 -0.0887 -0.3846
   45MOL0     C 5952   6.095   3.809  10.743 -0.4305 -0.5138 -0.4207
   45MOL0     C 5953   6.248   3.793  10.707 -0.5602 -0.5111 -0.1605
   45MOL0     C 5954   6.323   3.923  10.681  0.6783 -0.3480 -0.0486
   45MOL0     C 5955   6.467   3.897  10.637  0.5196 -0.2106 -0.4588
   45MOL0     C 5956   6.496   3.864  10.491 -0.2561  0.6480 -0.0987
   45MOL0     N 5957   6.637   3.833  10.471 -0.0166 -1.1231  0.0514
   45MOL0     C 5958   6.698   3.722  10.524 -0.3091  0.9745 -0.0549
   45MOL0     C 5959   6.828   3.736  10.483  0.0098 -0.6822  0.1919
   45MOL0     C 5960   6.940   3.645  10.519  0.0331  0.5522  0.3428
   45MOL0     C 5961   7.019   3.700  10.633 -0.5501  0.9668  0.8640
   45MOL0     C 5962   6.980   3.629  10.772  0.2722  0.2463  0.6048
   45MOL0     C 5963   6.841   3.698  10.818  0.1272 -1.2292 -0.2451
   45MOL0     O 5964   6.855   3.836  10.841 -0.0052 -0.5624 -0.4185
   45MOL0     C 5965   6.923   3.887  10.950 -0.0613 -0.3230  0.2923
   45MOL0     C 5966   6.864   3.882  11.079  0.8014 -0.3563 -0.5907
   45MOL0     C 5967   6.914   3.934  11.196  0.0517 -0.3096 -0.3603
   45MOL0     C 5968   6.840   3.913  11.318  0.1517 -0.2293 -0.2571
   45MOL0     C 5969   7.047   4.000  11.178 -0.4111 -0.4262  0.5646
   45MOL0     C 5970   7.117   4.062  11.288 -0.0074  1.3306 -0.8524
   45MOL0     O 5971   7.255   4.084  11.282 -0.8288  0.8098  0.7305
   45MOL0     C 5972   7.338   4.009  11.374  0.1496  0.7085  0.1665
   45MOL0     C 5973   7.306   3.883  11.437 -0.8584  0.3840 -0.2483
   45MOL0     C 5974   7.406   3.841  11.522 -0.5479  0.4284 -0.0306
   45MOL0     C 5975   7.525   3.906  11.553  0.2107 -0.9895 -0.6533
   45MOL0     O 5976   7.614   3.861  11.644  0.3215  0.3398  0.0626
   45MOL0     C 5977   7.732   3.802  11.586 -0.4855 -0.1823  0.3175
   45MOL0     C 5978   7.844   3.770  11.697  1.0782 -0.6677 -0.4169
   45MOL0     C 5979   7.894   3.898  11.750  0.3129 -0.4681 -0.4608
   45MOL0     C 5980   7.971   3.972  11.645 -0.3458 -0.2270 -0.2505
   45MOL0     C 5981   7.929   4.120  11.638  0.6556 -0.6156 -1.1809
   45MOL0     C 5982   8.000   4.185  11.527 -0.7639  0.0406 -0.4364
   45MOL0     C 5983   7.928   4.310  11.488 -1.0213  0.0605 -0.6610
   45MOL0     C 5984   7.949   4.418  11.593  1.1688 -0.6053 -0.5052
   45MOL0    Cl 5985   7.822   4.553  11.571  0.0758 -0.0878  0.9328
   45MOL0     C 5986   7.559   4.020  11.470 -0.0650 -0.4040  0.2433
   45MOL0     C 5987   7.465   4.062  11.379 -0.3824  0.4207 -0.0978
   45MOL0     O 5988   7.042   4.109  11.370  0.3867 -1.3649 -0.1543
   45MOL0     C 5989   7.108   3.992  11.049 -0.2302  0.6372 -0.1563
   45MOL0     C 5990   7.046   3.933  10.936 -0.6273 -0.1801 -0.3669
   45MOL0     N 5991   6.838   3.862  10.427 -0.1543  0.0933 -0.1934
   45MOL0     N 5992   6.734   3.926  10.432 -0.4873 -0.3370 -0.4547
   45MOL0     C 5993   5.547   3.689  10.666  0.9080 -0.7614  1.1470
   45MOL0     C 5994   5.419   3.718  10.605  0.6599 -0.3743  0.0448
   45MOL0     C 5995   5.051   3.625  10.329  0.4278 -0.3661 -0.2143
   45MOL0     C 5996   5.035   3.746  10.273 -0.5007 -0.4606 -1.2853
   45MOL0     C 5997   4.925   3.775  10.195 -0.4255  0.5762 -0.1830
   45MOL0     C 5998   4.829   3.674  10.169 -0.4377  0.2493  0.3870
   45MOL0     O 5999   4.716   3.680  10.090 -0.5879 -0.5981 -0.6007
   45MOL0     C 6000   4.685   3.810  10.037 -0.6090  0.0181 -0.2045
   45MOL0     C 6001   4.546   3.798   9.971  0.3005  0.2671 -0.6909
   45MOL0     C 6002   4.423   3.781  10.064 -0.2783  0.6951  0.0186
   45MOL0     C 6003   4.341   3.648  10.045  1.4409  0.6751  0.2109
   45MOL0     C 6004   4.418   3.527  10.076  0.7536 -0.6302  0.3336
   45MOL0     C 6005   4.476   3.426  10.099  1.0472  0.2197 -0.1161
   45MOL0     C 6006   4.853   3.548  10.217 -0.7351 -0.8482 -1.4584
   45MOL0     C 6007   4.961   3.520  10.291 -0.1611 -0.1693  0.2436
   45MOL0     H 6008   5.451   3.526  10.322 -2.0065 -0.8463  0.2898
   45MOL0     H 6009   5.652   3.464  10.446 -3.5624 -3.2339 -0.5164
   45MOL0     H 6010   5.699   3.610  10.866  0.2960  0.7597  1.0071
   45MOL0     H 6011   5.842   3.513  10.845  1.3409  1.4538 -0.3076
   45MOL0     H 6012   5.841   3.792  10.716 -3.1455 -0.8939  0.2557
   45MOL0     H 6013   5.877   3.785  10.883  2.7767  1.9708 -2.3541
   45MOL0     H 6014   6.046   3.655  10.882 -1.5188 -0.0487  0.2713
   45MOL0     H 6015   6.034   3.613  10.704 -0.2936  1.1989 -1.8972
   45MOL0     H 6016   6.051   3.848  10.651 -1.5216 -2.0903 -0.6220
   45MOL0     H 6017   6.085   3.887  10.818  0.2270 -1.1365  0.3427
   45MOL0     H 6018   6.302   3.743  10.788 -2.0320 -3.4035 -0.8428
   45MOL0     H 6019   6.250   3.719  10.627  2.0115  0.7732 -1.4108
   45MOL0     H 6020   6.272   3.977  10.601  1.0216  0.2410  0.1194
   45MOL0     H 6021   6.319   3.993  10.766  0.5149  1.2124 -1.3029
   45MOL0     H 6022   6.510   3.997  10.642 -0.2632  0.1124 -0.0794
   45MOL0     H 6023   6.531   3.831  10.697 -0.7283 -0.5147  0.5869
   45MOL0     H 6024   6.478   3.951  10.428  0.4826 -2.3271 -4.8986
   45MOL0     H 6025   6.437   3.778  10.459 -0.8674  1.0721 -0.1130
   45MOL0     H 6026   6.654   3.634  10.569  2.3311  0.7918  2.4283
   45MOL0     H 6027   6.893   3.550  10.547 -0.6392  0.7020 -0.2467
   45MOL0     H 6028   6.991   3.623  10.425 -2.0932 -2.9553 -0.1947
   45MOL0     H 6029   7.019   3.809  10.636 -3.5301  1.1109 -0.4256
   45MOL0     H 6030   7.121   3.666  10.613 -0.8359  1.0030 -0.8307
   45MOL0     H 6031   7.051   3.642  10.854 -1.3546  1.1362  1.9347
   45MOL0     H 6032   6.971   3.521  10.760 -0.6367  0.2324  1.2897
   45MOL0     H 6033   6.800   3.646  10.905  0.2942 -2.6034 -0.9568
   45MOL0     H 6034   6.767   3.677  10.741  1.7224  0.4043 -2.3639
   45MOL0     H 6035   6.766   3.836  11.084  1.6613 -2.1758  1.0445
   45MOL0     H 6036   6.798   4.005  11.360 -1.3267 -1.8637  2.0440
   45MOL0     H 6037   6.759   3.841  11.305 -1.6596  1.2461  2.1259
   45MOL0     H 6038   6.913   3.870  11.387 -0.5241 -1.0580 -0.0464
   45MOL0     H 6039   7.216   3.824  11.420  1.4285 -2.3353 -5.1818
   45MOL0     H 6040   7.391   3.750  11.580  1.1783  0.9555  1.3315
   45MOL0     H 6041   7.703   3.708  11.538  2.0629 -0.7293 -0.2615
   45MOL0     H 6042   7.774   3.849  11.497 -1.9649 -2.7549 -1.8942
   45MOL0     H 6043   7.784   3.716  11.771  0.0113 -0.4016 -1.0609
   45MOL0     H 6044   7.928   3.714  11.656  0.5766 -0.1692 -2.2446
   45MOL0     H 6045   7.956   3.883  11.838  0.0799  1.3246  0.0480
   45MOL0     H 6046   7.804   3.958  11.772  3.2143  5.3202 -2.2296
   45MOL0     H 6047   8.077   3.955  11.668  0.1733  1.5704 -1.1362
   45MOL0     H 6048   7.976   3.926  11.546  0.1058  1.7784 -1.1966
   45MOL0     H 6049   7.945   4.178  11.730 -0.0107  1.2693 -2.2052
   45MOL0     H 6050   7.820   4.108  11.626 -0.0259 -1.5100  3.6679
   45MOL0     H 6051   8.104   4.202  11.554 -0.3146 -0.1501 -1.9491
   45MOL0     H 6052   8.010   4.125  11.436  0.8575  0.5369 -0.6074
   45MOL0     H 6053   7.822   4.283  11.483 -0.8315 -0.8981  0.1419
   45MOL0     H 6054   7.969   4.345  11.392 -1.6875 -2.1775 -1.8506
   45MOL0     H 6055   8.049   4.463  11.585  1.1913 -0.0396  1.8971
   45MOL0     H 6056   7.938   4.390  11.698 -2.3238  0.1704 -0.5524
   45MOL0     H 6057   7.650   4.077  11.486 -0.3665 -0.1575  1.1729
   45MOL0     H 6058   7.497   4.147  11.320 -0.8081  0.5600 -0.1312
   45MOL0     H 6059   7.214   4.011  11.031 -0.8837  1.8521 -3.1691
   45MOL0     H 6060   7.089   3.922  10.837 -3.4698  0.1138 -1.7084
   45MOL0     H 6061   5.583   3.741  10.755  0.9937 -2.9771  2.4729
   45MOL0     H 6062   5.356   3.788  10.659  0.1717 -0.8659  0.1239
   45MOL0     H 6063   5.110   3.823  10.292  0.1287 -0.9396 -1.7722
   45MOL0     H 6064   4.907   3.874  10.156  3.3297  2.2296  1.7882
   45MOL0     H 6065   4.683   3.893  10.107  1.5467  1.4210 -1.6758
   45MOL0     H 6066   4.754   3.843   9.959  0.1277  0.7886  0.7514
   45MOL0     H 6067   4.549   3.705   9.913 -0.1062 -0.7272  0.8249
   45MOL0     H 6068   4.526   3.883   9.904 -0.5150 -0.8664 -1.9403
   45MOL0     H 6069   4.358   3.868  10.056  0.0821  0.8049 -2.9421
   45MOL0     H 6070   4.467   3.772  10.164  0.0626  1.1478 -0.0893
   45MOL0     H 6071   4.294   3.638   9.947  0.2923 -1.0900  0.8894
   45MOL0     H 6072   4.262   3.656  10.120 -0.5869  1.5677 -1.8884
   45MOL0     H 6073   4.535   3.337  10.112 -0.9125 -1.1877 -0.4775
   45MOL0     H 6074   4.781   3.476  10.178  0.3790 -3.1728  0.5489
   45MOL0     H 6075   4.976   3.415  10.312 -2.5527 -1.2356 -2.6725
   46MOL0     O 6076   3.300   9.950  11.319  0.0815  1.1105  0.0577
   46MOL0     C 6077   3.340   9.959  11.435 -1.0712  0.2404 -0.6478
   46MOL0     O 6078   3.476   9.954  11.467  0.6263 -0.2660  0.5368
   46MOL0     C 6079   3.567   9.945  11.366 -0.0871 -0.5174 -0.3311
   46MOL0     C 6080   3.635   9.831  11.345  0.1546  0.2646 -0.0437
   46MOL0     C 6081   3.750   9.829  11.260 -0.1837  1.0360 -0.2548
   46MOL0     C 6082   3.798   9.939  11.193 -0.6658 -0.1235  0.3780
   46MOL0     O 6083   3.912   9.960  11.117  0.2288  0.2220  0.3985
   46MOL0     C 6084   4.013   9.854  11.107 -1.1847  0.6480  0.3280
   46MOL0     C 6085   4.133   9.908  11.038  0.0874  0.2002  0.5501
   46MOL0     C 6086   4.261   9.822  11.081  0.8037  0.0542 -0.0138
   46MOL0     C 6087   4.387   9.894  11.046 -0.6592  0.1328  0.7198
   46MOL0     C 6088   4.405   9.886  10.890  0.1876  0.2040  0.2736
   46MOL0     C 6089   4.526   9.954  10.834 -0.7217 -1.0200  0.3266
   46MOL0     C 6090   4.541   9.922  10.684 -0.1387 -0.4750 -0.7613
   46MOL0     C 6091   4.437   9.985  10.596 -0.8573 -1.1441 -0.0709
   46MOL0     N 6092   4.469   9.952  10.453  0.0069 -0.1213  0.3397
   46MOL0     C 6093   4.589   9.970  10.388 -0.5910 -0.1680 -0.8931
   46MOL0     C 6094   4.586   9.907  10.275  0.2229 -0.0461 -0.4428
   46MOL0     C 6095   4.694   9.900  10.182 -0.2346  1.0812  0.7092
   46MOL0     C 6096   4.630   9.930  10.037  0.5940 -0.0314 -0.1828
   46MOL0     C 6097   4.720   9.941   9.921 -0.5636 -0.0720  0.7581
   46MOL0     C 6098   4.665   9.991   9.786  0.4584 -0.8060  0.2069
   46MOL0     O 6099   4.660  10.140   9.791  0.4938 -0.6337  1.2012
   46MOL0     C 6100   4.684  10.201   9.668 -0.0405  0.0571  1.0522
   46MOL0     C 6101   4.704  10.344   9.683  0.1876 -0.3741  0.0851
   46MOL0     C 6102   4.740  10.421   9.571  0.8817 -0.4294 -0.0093
   46MOL0     C 6103   4.755  10.571   9.591 -0.0013  0.1195  0.1263
   46MOL0     C 6104   4.761  10.366   9.443  0.4190 -0.2774 -0.4370
   46MOL0     C 6105   4.777  10.430   9.307  0.6409 -0.1575 -0.5445
   46MOL0     O 6106   4.788  10.358   9.184 -0.1392  0.0706 -0.0510
   46MOL0     C 6107   4.750  10.420   9.061 -1.4620  1.1982 -0.4897
   46MOL0     C 6108   4.645  10.501   9.044  1.0466 -0.3977 -0.3446
   46MOL0     C 6109   4.619  10.547   8.918  0.2233  0.2115 -0.2279
   46MOL0     C 6110   4.680  10.500   8.804  0.9007  1.8222 -0.3624
   46MOL0     O 6111   4.634  10.563   8.685 -0.0062  0.1009 -0.6586
   46MOL0     C 6112   4.650  10.487   8.566  0.1705 -0.3508  0.0141
   46MOL0     C 6113   4.580  10.543   8.437 -0.0841  0.0862  0.3116
   46MOL0     C 6114   4.653  10.678   8.405  0.3104  0.0050  0.0916
   46MOL0     C 6115   4.588  10.736   8.281 -0.3033 -0.3512 -0.9590
   46MOL0     C 6116   4.444  10.793   8.299  0.0556  0.0044  0.2873
   46MOL0     C 6117   4.399  10.872   8.171 -0.2369 -0.7394 -0.0884
   46MOL0     C 6118   4.317  10.782   8.085  0.0150 -0.4840  0.0965
   46MOL0     C 6119   4.357  10.821   7.944 -0.0290  0.1346 -0.6665
   46MOL0    Cl 6120   4.216  10.785   7.835  0.6980  0.2809 -0.7609
   46MOL0     C 6121   4.792  10.418   8.822 -1.0846  0.1932  0.3781
   46MOL0     C 6122   4.822  10.372   8.945 -0.0718 -0.4758 -0.7558
   46MOL0     O 6123   4.759  10.557   9.312 -0.2625  0.2596  0.3306
   46MOL0     C 6124   4.762  10.230   9.438 -0.5814  0.8842 -0.1566
   46MOL0     C 6125   4.713  10.145   9.541 -0.3102  0.2018  0.2645
   46MOL0     N 6126   4.469   9.839  10.272  0.2550  0.9967 -0.0278
   46MOL0     N 6127   4.391   9.876  10.373 -0.2762 -0.6978 -0.5997
   46MOL0     C 6128   3.731  10.059  11.227  1.5731 -0.5767  0.6166
   46MOL0     C 6129   3.626  10.057  11.310  0.4353 -0.1828 -0.5365
   46MOL0     C 6130   3.242   9.972  11.550 -0.1688  0.7969  0.0746
   46MOL0     C 6131   3.106   9.925  11.530 -0.8798  0.6273  0.0728
   46MOL0     C 6132   3.014   9.936  11.630  0.6546  0.0254  1.0740
   46MOL0     C 6133   3.039   9.979  11.759  0.3837 -0.5322  0.0674
   46MOL0     O 6134   2.939   9.992  11.855  0.1419 -0.3227 -0.3046
   46MOL0     C 6135   2.813   9.937  11.820 -0.5844  0.7388 -0.0060
   46MOL0     C 6136   2.809   9.779  11.836  0.1761 -0.0903  0.2168
   46MOL0     C 6137   2.674   9.717  11.815 -0.8916  0.3779 -0.3032
   46MOL0     C 6138   2.684   9.568  11.865 -0.3810 -0.3845 -0.6773
   46MOL0     C 6139   2.710   9.472  11.767  0.7902 -0.3312  0.7768
   46MOL0     C 6140   2.744   9.389  11.681 -0.1484  0.2660 -0.2453
   46MOL0     C 6141   3.172  10.011  11.782  0.4165 -0.3203 -0.4542
   46MOL0     C 6142   3.266  10.022  11.679 -0.0934  2.2967  0.1198
   46MOL0     H 6143   3.611   9.737  11.394  1.8072  1.7254  3.9989
   46MOL0     H 6144   3.804   9.735  11.248 -3.2309 -1.2710  2.4637
   46MOL0     H 6145   4.029   9.825  11.212  1.6012  2.3780  0.4778
   46MOL0     H 6146   3.988   9.769  11.044  0.3198  1.4857 -1.5085
   46MOL0     H 6147   4.114   9.896  10.931 -2.4230 -1.9230  1.1361
   46MOL0     H 6148   4.146  10.014  11.065 -0.5038  0.4021  0.0445
   46MOL0     H 6149   4.257   9.807  11.190 -0.6794  0.5616  0.0269
   46MOL0     H 6150   4.252   9.720  11.041 -0.2287  0.0467  0.1917
   46MOL0     H 6151   4.385   9.998  11.079 -1.5426 -0.0467  1.2385
   46MOL0     H 6152   4.478   9.844  11.079 -0.5375  0.6106  1.1104
   46MOL0     H 6153   4.401   9.784  10.851  1.6046  0.1757  0.1706
   46MOL0     H 6154   4.324   9.942  10.843  3.6407  2.8659 -2.9858
   46MOL0     H 6155   4.526  10.062  10.848 -0.6503 -1.0000  0.1804
   46MOL0     H 6156   4.623   9.918  10.872  0.6371 -0.2268 -2.1639
   46MOL0     H 6157   4.643   9.946  10.651 -0.1873 -0.5656 -0.9828
   46MOL0     H 6158   4.546   9.814  10.666 -0.7477 -0.2040 -2.8178
   46MOL0     H 6159   4.451  10.093  10.598  1.6371 -1.3962  2.7403
   46MOL0     H 6160   4.333   9.973  10.629 -0.3995 -1.4053  1.3664
   46MOL0     H 6161   4.665  10.045  10.406 -1.8786  0.9141  0.1973
   46MOL0     H 6162   4.780   9.965  10.200  0.4754  0.2439  0.3742
   46MOL0     H 6163   4.726   9.796  10.175 -0.4703  1.0966 -0.8945
   46MOL0     H 6164   4.584  10.026  10.059 -1.2480 -0.6513 -1.1044
   46MOL0     H 6165   4.547   9.865  10.006 -3.0309  3.4672  1.3689
   46MOL0     H 6166   4.766   9.843   9.908 -0.0008  0.1392  1.1202
   46MOL0     H 6167   4.795  10.019   9.937  0.6576 -0.6168 -1.8468
   46MOL0     H 6168   4.563   9.955   9.769 -0.7305  2.9132 -1.5536
   46MOL0     H 6169   4.724   9.953   9.703 -1.6317 -5.9001  0.6687
   46MOL0     H 6170   4.699  10.391   9.780 -1.9750 -0.7311  0.2058
   46MOL0     H 6171   4.672  10.623   9.543 -1.8136  0.2191  3.0699
   46MOL0     H 6172   4.760  10.598   9.697  2.3298  0.0972  0.0600
   46MOL0     H 6173   4.851  10.602   9.549  0.2309 -1.0042 -0.2138
   46MOL0     H 6174   4.585  10.542   9.124  2.5808 -0.5784  0.9463
   46MOL0     H 6175   4.542  10.623   8.909 -1.4529 -1.0983  1.9901
   46MOL0     H 6176   4.756  10.479   8.539 -0.1541  1.8883 -2.3670
   46MOL0     H 6177   4.622  10.382   8.577  1.9253 -1.3005 -3.0432
   46MOL0     H 6178   4.606  10.478   8.354 -1.1145  0.6645 -0.4899
   46MOL0     H 6179   4.472  10.557   8.454  0.1426  3.6327 -0.3214
   46MOL0     H 6180   4.761  10.668   8.397  0.4168  1.3327 -0.3702
   46MOL0     H 6181   4.640  10.750   8.486  1.8073 -0.6261  0.9195
   46MOL0     H 6182   4.644  10.829   8.266 -0.4326  0.1563  1.3679
   46MOL0     H 6183   4.597  10.665   8.198  2.7293 -1.7237  0.3772
   46MOL0     H 6184   4.447  10.868   8.379 -0.9866  0.8856 -0.4775
   46MOL0     H 6185   4.370  10.716   8.324 -1.4377  0.9831 -0.9332
   46MOL0     H 6186   4.334  10.950   8.211 -0.5860 -1.2097  0.2808
   46MOL0     H 6187   4.481  10.923   8.119 -1.4391  1.3445 -0.0289
   46MOL0     H 6188   4.212  10.796   8.111  0.0808 -1.0466  0.7134
   46MOL0     H 6189   4.333  10.674   8.095 -0.7622 -0.3659  5.3375
   46MOL0     H 6190   4.448  10.766   7.922 -1.7088 -2.3391 -1.9536
   46MOL0     H 6191   4.381  10.927   7.934  1.3265 -0.1181 -0.2153
   46MOL0     H 6192   4.858  10.385   8.742  1.4327 -1.5794  2.9865
   46MOL0     H 6193   4.913  10.313   8.948 -0.0302 -0.3470  1.4263
   46MOL0     H 6194   4.781  10.175   9.347  0.7075 -2.6545  2.0486
   46MOL0     H 6195   4.687  10.043   9.513 -1.9484  0.6885 -0.0729
   46MOL0     H 6196   3.775  10.151  11.189 -3.3262  1.0001 -2.1358
   46MOL0     H 6197   3.599  10.160  11.334 -0.9152 -0.8257  0.8564
   46MOL0     H 6198   3.064   9.887  11.437 -1.8479  0.3741  0.6069
   46MOL0     H 6199   2.917   9.891  11.609  1.3403 -2.7421  3.2444
   46MOL0     H 6200   2.739   9.969  11.894  0.1772 -2.4315  2.4031
   46MOL0     H 6201   2.779   9.963  11.720  0.6778 -0.1077 -0.6805
   46MOL0     H 6202   2.852   9.748  11.932  0.2643 -0.0788  0.1816
   46MOL0     H 6203   2.858   9.732  11.750 -1.2736  1.3201 -1.4550
   46MOL0     H 6204   2.629   9.722  11.716 -0.3532  2.0811 -0.4825
   46MOL0     H 6205   2.603   9.759  11.886 -0.7531 -3.7043  2.6033
   46MOL0     H 6206   2.591   9.563  11.923 -1.1082  1.6520 -1.6017
   46MOL0     H 6207   2.754   9.556  11.949 -0.7735  2.4519  0.1662
   46MOL0     H 6208   2.759   9.299  11.624  0.2059 -0.1357  0.4631
   46MOL0     H 6209   3.191  10.043  11.884  0.6653  0.3249 -0.7029
   46MOL0     H 6210   3.372  10.043  11.694  1.4948 -2.5696 -1.9971
   47MOL0     O 6211   2.473   5.595  10.310 -0.2494 -0.7082  0.5465
   47MOL0     C 6212   2.537   5.696  10.311 -0.8425 -0.4497  0.2978
   47MOL0     O 6213   2.491   5.819  10.332  0.4190 -0.0800  0.1000
   47MOL0     C 6214   2.359   5.832  10.364 -0.1592  0.2764  0.8308
   47MOL0     C 6215   2.303   5.757  10.475 -0.4580 -0.6441 -0.9935
   47MOL0     C 6216   2.169   5.767  10.494  0.2235  0.3587 -0.3543
   47MOL0     C 6217   2.093   5.837  10.403  0.5795  0.3540  0.2494
   47MOL0     O 6218   1.953   5.836  10.400  0.1790 -0.2953  0.8536
   47MOL0     C 6219   1.900   5.715  10.335  0.0576 -0.0174 -0.0974
   47MOL0     C 6220   1.783   5.668  10.417  0.0122  0.7199  0.3292
   47MOL0     C 6221   1.676   5.779  10.408  0.6178  0.2499 -0.1848
   47MOL0     C 6222   1.567   5.743  10.518 -0.7041  0.6773 -0.4749
   47MOL0     C 6223   1.488   5.867  10.560  0.6486 -0.5638 -0.1523
   47MOL0     C 6224   1.388   5.837  10.673  0.6776 -0.3663 -1.0572
   47MOL0     C 6225   1.269   5.738  10.621  0.6660  0.3904  0.5579
   47MOL0     C 6226   1.183   5.812  10.520  0.5000 -0.3743  0.4952
   47MOL0     N 6227   1.117   5.931  10.587  0.1358  0.0964  0.4829
   47MOL0     C 6228   1.138   6.062  10.555  0.0900 -0.1610  0.1674
   47MOL0     C 6229   1.068   6.134  10.663 -0.9129 -0.3815  0.8789
   47MOL0     C 6230   1.062   6.282  10.680  0.3515 -0.7590 -1.2076
   47MOL0     C 6231   1.193   6.343  10.634 -0.5533  0.3198 -0.0007
   47MOL0     C 6232   1.314   6.308  10.724 -0.1757  0.0583 -0.1768
   47MOL0     C 6233   1.448   6.294  10.646 -0.1465  0.2123 -0.0177
   47MOL0     O 6234   1.481   6.421  10.584  0.3735 -0.0224  0.7066
   47MOL0     C 6235   1.547   6.398  10.461 -0.0281 -0.2238  0.3770
   47MOL0     C 6236   1.659   6.319  10.442 -0.7542 -0.0582  0.0188
   47MOL0     C 6237   1.726   6.302  10.320  0.4258 -0.7992  0.0600
   47MOL0     C 6238   1.838   6.195  10.322  0.6621  0.2494  0.4918
   47MOL0     C 6239   1.698   6.388  10.210 -0.4416  0.4917  0.1899
   47MOL0     C 6240   1.763   6.392  10.076  0.0642  0.7034 -1.1019
   47MOL0     O 6241   1.728   6.501  10.002 -1.0022 -0.1081  0.3198
   47MOL0     C 6242   1.803   6.528   9.887 -0.9915 -0.6607  0.1557
   47MOL0     C 6243   1.797   6.659   9.851 -0.4539 -0.2599 -0.3318
   47MOL0     C 6244   1.849   6.706   9.736  0.2621  0.0082  0.3146
   47MOL0     C 6245   1.906   6.608   9.648  0.1788 -0.2983  1.0844
   47MOL0     O 6246   1.941   6.660   9.524  0.2221 -1.2929  0.4381
   47MOL0     C 6247   2.021   6.588   9.424  0.4313  0.0008 -0.9801
   47MOL0     C 6248   2.172   6.610   9.438 -0.7814 -1.0698  0.1292
   47MOL0     C 6249   2.246   6.530   9.552  0.4015  0.5780 -0.6859
   47MOL0     C 6250   2.393   6.531   9.535 -0.2399 -0.0820 -0.1498
   47MOL0     C 6251   2.472   6.442   9.631  0.0432 -0.2639 -1.0909
   47MOL0     C 6252   2.609   6.378   9.567 -0.0035 -0.6837 -0.3394
   47MOL0     C 6253   2.722   6.379   9.677  0.2827  0.5961  0.1957
   47MOL0     C 6254   2.804   6.258   9.666  0.1822  1.3329  0.9106
   47MOL0    Cl 6255   2.910   6.254   9.810  0.0275  0.1626 -0.1413
   47MOL0     C 6256   1.922   6.476   9.682  0.3880 -0.1242 -0.8361
   47MOL0     C 6257   1.873   6.436   9.806 -0.2343 -0.5436  0.6960
   47MOL0     O 6258   1.848   6.301  10.047  0.2293 -0.4891  0.6245
   47MOL0     C 6259   1.585   6.473  10.231  0.2583  0.4741 -0.1367
   47MOL0     C 6260   1.511   6.475  10.347  0.3302  0.4286 -0.5130
   47MOL0     N 6261   1.030   6.035  10.764  0.4434 -0.0415  0.0035
   47MOL0     N 6262   1.052   5.920  10.709  0.2644  0.2250 -0.5317
   47MOL0     C 6263   2.153   5.912  10.299  0.8595 -0.4407 -0.3809
   47MOL0     C 6264   2.293   5.920  10.293 -0.2829  0.3526  0.5252
   47MOL0     C 6265   2.686   5.679  10.327  0.1443 -0.9775 -0.4133
   47MOL0     C 6266   2.742   5.556  10.355 -0.3493 -0.3023  0.3426
   47MOL0     C 6267   2.880   5.530  10.357 -0.6847  0.6327  0.5991
   47MOL0     C 6268   2.976   5.626  10.318  0.1707 -0.2908 -0.2208
   47MOL0     O 6269   3.111   5.592  10.307  0.2047  0.4437  0.0354
   47MOL0     C 6270   3.198   5.678  10.228 -0.5174  0.1266  0.4139
   47MOL0     C 6271   3.319   5.586  10.191 -0.9589 -0.2684  0.4269
   47MOL0     C 6272   3.273   5.466  10.113  0.3818  0.4088 -0.2782
   47MOL0     C 6273   3.396   5.399  10.052 -0.0044  0.4479 -0.1172
   47MOL0     C 6274   3.358   5.282   9.969  0.4123 -0.8871  0.2029
   47MOL0     C 6275   3.312   5.191   9.901  0.0359 -0.4305  0.2116
   47MOL0     C 6276   2.922   5.759  10.314  0.3640  0.5267 -0.5522
   47MOL0     C 6277   2.777   5.783  10.307 -0.5904 -0.6435 -1.0080
   47MOL0     H 6278   2.370   5.710  10.547 -1.1650  0.8826  0.7451
   47MOL0     H 6279   2.119   5.728  10.582 -0.3222  0.0748 -0.7796
   47MOL0     H 6280   1.872   5.745  10.234 -0.1796 -4.8274 -1.7362
   47MOL0     H 6281   1.978   5.639  10.322  2.3012  2.3819 -1.6482
   47MOL0     H 6282   1.738   5.579  10.374  0.9158  1.6378 -2.7480
   47MOL0     H 6283   1.808   5.656  10.523  1.1850  0.5547  0.0476
   47MOL0     H 6284   1.720   5.877  10.424 -1.8058  1.6253 -1.4671
   47MOL0     H 6285   1.626   5.780  10.311 -0.9128  0.6848  0.5661
   47MOL0     H 6286   1.510   5.660  10.475  0.1624 -1.4790  2.2330
   47MOL0     H 6287   1.604   5.693  10.608 -0.4205 -1.4724 -1.7077
   47MOL0     H 6288   1.553   5.947  10.596 -0.2466  0.5347 -0.9168
   47MOL0     H 6289   1.439   5.903  10.469 -2.2331 -0.3267  1.3783
   47MOL0     H 6290   1.445   5.794  10.755  2.4249  1.3723 -1.2572
   47MOL0     H 6291   1.346   5.931  10.710 -0.6566 -0.4853 -2.1850
   47MOL0     H 6292   1.307   5.642  10.583 -1.5390  0.2321 -1.4764
   47MOL0     H 6293   1.208   5.707  10.706  3.4373 -1.0875  2.1607
   47MOL0     H 6294   1.108   5.748  10.473 -0.9401  1.0202  0.8424
   47MOL0     H 6295   1.244   5.845  10.435 -0.5423 -0.2294 -0.2056
   47MOL0     H 6296   1.187   6.108  10.470  5.1135  0.4421  2.9700
   47MOL0     H 6297   0.974   6.323  10.630 -1.8210  0.8112  3.3862
   47MOL0     H 6298   1.039   6.297  10.785 -3.3560 -1.9873 -1.6903
   47MOL0     H 6299   1.187   6.451  10.652  1.2398  0.3735  0.5144
   47MOL0     H 6300   1.219   6.328  10.529  0.0911 -0.4767  0.2655
   47MOL0     H 6301   1.304   6.207  10.765 -0.5138  0.5571  1.0370
   47MOL0     H 6302   1.324   6.369  10.815 -0.8634  2.0191 -1.3611
   47MOL0     H 6303   1.447   6.213  10.572  2.4169 -0.0633  0.1559
   47MOL0     H 6304   1.529   6.268  10.715  1.5852  3.2291 -0.7634
   47MOL0     H 6305   1.691   6.261  10.528  1.3141  0.8539 -0.0544
   47MOL0     H 6306   1.813   6.117  10.250 -2.6516  0.7620  0.8834
   47MOL0     H 6307   1.936   6.237  10.299  1.0271 -0.8119  0.0829
   47MOL0     H 6308   1.853   6.148  10.419 -0.2170 -0.0928  0.4716
   47MOL0     H 6309   1.751   6.734   9.915  1.8712  1.3896 -0.5024
   47MOL0     H 6310   1.831   6.813   9.724  0.0237 -0.0616  0.0415
   47MOL0     H 6311   1.989   6.485   9.410  1.5853 -0.3607 -1.0833
   47MOL0     H 6312   1.997   6.634   9.327  2.5880 -0.8199 -1.9741
   47MOL0     H 6313   2.222   6.589   9.343  1.4804 -0.4425  1.1232
   47MOL0     H 6314   2.191   6.716   9.454 -0.5867 -0.9876 -0.5935
   47MOL0     H 6315   2.218   6.425   9.542 -0.2780  0.9098 -2.7878
   47MOL0     H 6316   2.217   6.577   9.646  0.4971 -1.9849  0.6946
   47MOL0     H 6317   2.412   6.501   9.431  0.8474 -2.1289  0.5904
   47MOL0     H 6318   2.426   6.636   9.538  2.5018 -0.8670  2.6948
   47MOL0     H 6319   2.408   6.371   9.685  0.6655  0.3706  0.5356
   47MOL0     H 6320   2.508   6.514   9.705  0.1829  0.1890 -1.5951
   47MOL0     H 6321   2.592   6.279   9.525 -0.6692 -0.1660 -1.3628
   47MOL0     H 6322   2.651   6.442   9.489  3.3925  1.3413  2.8128
   47MOL0     H 6323   2.687   6.391   9.780 -0.8797 -4.3444  0.6283
   47MOL0     H 6324   2.788   6.465   9.656  1.8837 -0.6130  0.0987
   47MOL0     H 6325   2.863   6.261   9.575  2.8116  0.3430  2.4591
   47MOL0     H 6326   2.757   6.159   9.656 -2.2143  2.2815  1.8543
   47MOL0     H 6327   1.963   6.390   9.629  2.5951  0.0087  0.5290
   47MOL0     H 6328   1.891   6.330   9.823 -0.1000 -0.9989 -1.9632
   47MOL0     H 6329   1.553   6.523  10.140  3.5327 -3.1373 -3.6461
   47MOL0     H 6330   1.425   6.541  10.354 -1.3704 -1.7646  0.3208
   47MOL0     H 6331   2.093   5.966  10.226 -1.7182  0.4378  2.1990
   47MOL0     H 6332   2.347   5.977  10.217  0.0806 -0.3811  0.2249
   47MOL0     H 6333   2.685   5.466  10.374  0.5038 -0.9313 -0.0288
   47MOL0     H 6334   2.921   5.431  10.372  1.9580  1.4012 -0.8934
   47MOL0     H 6335   3.151   5.724  10.141  2.1233  2.8434  0.2965
   47MOL0     H 6336   3.233   5.765  10.284  2.5354  0.9785 -2.4921
   47MOL0     H 6337   3.366   5.555  10.285  0.1076  2.4963  0.9207
   47MOL0     H 6338   3.401   5.644  10.149  0.3935 -0.1804  3.0078
   47MOL0     H 6339   3.208   5.502  10.033  1.6768  0.5176 -1.3059
   47MOL0     H 6340   3.218   5.392  10.172  0.6112  0.1067 -0.4400
   47MOL0     H 6341   3.453   5.358  10.136  1.1706 -0.1228 -1.1575
   47MOL0     H 6342   3.457   5.466   9.991 -1.7397 -0.8715 -3.5542
   47MOL0     H 6343   3.282   5.112   9.835  0.8354 -1.2356  0.7774
   47MOL0     H 6344   2.990   5.842  10.296  0.9662  0.0550 -0.4938
   47MOL0     H 6345   2.739   5.884  10.297  1.4093  0.2316 -0.3707
   48MOL0     O 6346   8.781   5.416  11.447 -0.5276 -0.2179  0.8260
   48MOL0     C 6347   8.657   5.397  11.464 -0.0827 -0.2483 -0.4079
   48MOL0     O 6348   8.561   5.490  11.448  0.1489  0.1477 -0.0448
   48MOL0     C 6349   8.613   5.605  11.401 -1.0074  0.2311 -0.3543
   48MOL0     C 6350   8.635   5.702  11.505 -0.4090  0.2041  0.3209
   48MOL0     C 6351   8.697   5.821  11.482 -0.5450 -0.3145  0.2390
   48MOL0     C 6352   8.726   5.866  11.355  0.3250  0.2966  1.0085
   48MOL0     O 6353   8.803   5.979  11.340  0.3460 -0.4951  0.0818
   48MOL0     C 6354   8.882   6.011  11.224 -0.9807  0.5149  0.3029
   48MOL0     C 6355   8.975   6.132  11.272 -0.3397 -0.2355  0.7066
   48MOL0     C 6356   9.060   6.189  11.158  0.2961  0.0018 -0.0661
   48MOL0     C 6357   9.160   6.087  11.085  0.1225  0.4986 -1.1353
   48MOL0     C 6358   9.255   6.163  10.984  0.3957 -0.1144 -0.3699
   48MOL0     C 6359   9.303   6.082  10.862 -0.4157  0.0717  0.4011
   48MOL0     C 6360   9.359   5.942  10.890 -0.1904 -0.7991  0.6785
   48MOL0     C 6361   9.428   5.877  10.765 -0.5381  1.3241  0.1483
   48MOL0     N 6362   9.551   5.952  10.737 -0.0896 -1.0270 -0.2961
   48MOL0     C 6363   9.579   6.044  10.638 -0.1551  0.4784 -0.2424
   48MOL0     C 6364   9.707   6.078  10.656  0.6115  0.1219  0.8749
   48MOL0     C 6365   9.788   6.176  10.574 -0.5632 -0.3231  0.5185
   48MOL0     C 6366   9.846   6.102  10.452 -0.1517 -0.4090 -0.0544
   48MOL0     C 6367   9.972   6.022  10.496 -0.3213  0.3616 -0.3709
   48MOL0     C 6368  10.034   5.952  10.373 -0.2159  0.2059 -0.7465
   48MOL0     O 6369  10.159   5.883  10.407  0.0570 -0.3350  0.3339
   48MOL0     C 6370  10.240   5.839  10.304  0.3556 -0.1678 -0.5152
   48MOL0     C 6371  10.305   5.917  10.217  0.0097  0.9832 -0.4461
   48MOL0     C 6372  10.393   5.865  10.120 -0.0071 -0.1519  0.0165
   48MOL0     C 6373  10.467   5.962  10.027 -0.8926 -0.7731 -0.1814
   48MOL0     C 6374  10.392   5.729  10.093 -1.5568 -0.2743 -0.0145
   48MOL0     C 6375  10.461   5.667   9.970  0.9744 -0.3726 -0.8955
   48MOL0     O 6376  10.491   5.537   9.980  0.2050 -0.2074 -0.6405
   48MOL0     C 6377  10.584   5.475   9.904 -0.2459 -0.4516 -0.5133
   48MOL0     C 6378  10.555   5.347   9.852 -0.4408  0.1222 -0.0588
   48MOL0     C 6379  10.654   5.283   9.772 -0.3588 -0.2711  0.7527
   48MOL0     C 6380  10.771   5.345   9.726 -0.7372  0.3428  0.4588
   48MOL0     O 6381  10.866   5.285   9.644 -0.3010  0.3008  0.0621
   48MOL0     C 6382  10.820   5.204   9.534  0.2585 -0.5334 -0.3713
   48MOL0     C 6383  10.885   5.234   9.398 -1.1028 -0.1096  0.4580
   48MOL0     C 6384  11.044   5.215   9.394 -0.9879  0.3696  0.3466
   48MOL0     C 6385  11.109   5.290   9.281  0.4513  0.3397 -0.4090
   48MOL0     C 6386  11.116   5.444   9.312 -0.5222 -0.1164  0.5285
   48MOL0     C 6387  11.226   5.472   9.415 -0.4079  0.0843 -0.2250
   48MOL0     C 6388  11.245   5.623   9.422 -0.7421 -0.3452 -0.4044
   48MOL0     C 6389  11.341   5.677   9.530 -0.5920 -0.9699 -0.5379
   48MOL0    Cl 6390  11.456   5.792   9.447 -0.3670  0.5103  0.3545
   48MOL0     C 6391  10.799   5.468   9.788  0.1436 -1.0423  0.2976
   48MOL0     C 6392  10.710   5.540   9.877  0.2362  0.3954  0.3819
   48MOL0     O 6393  10.459   5.729   9.861  0.3491 -1.1271 -0.1737
   48MOL0     C 6394  10.328   5.636  10.188 -0.2343 -0.8541  0.1121
   48MOL0     C 6395  10.254   5.696  10.297  0.2631 -0.4606 -0.7937
   48MOL0     N 6396   9.759   5.999  10.753 -0.0810  0.4914 -0.0401
   48MOL0     N 6397   9.672   5.916  10.791  0.0598  0.3915  0.4756
   48MOL0     C 6398   8.693   5.779  11.245  0.0543  0.3646 -0.4865
   48MOL0     C 6399   8.637   5.651  11.269 -0.0446 -0.8379 -0.1592
   48MOL0     C 6400   8.613   5.263  11.520  0.7365  0.6304 -1.2331
   48MOL0     C 6401   8.693   5.151  11.550 -0.1442 -0.0076  0.1321
   48MOL0     C 6402   8.641   5.031  11.607  0.0460 -0.4304 -0.5317
   48MOL0     C 6403   8.509   5.022  11.645  0.1528  0.9521 -0.0916
   48MOL0     O 6404   8.448   4.915  11.702 -1.2279  0.4541 -0.0620
   48MOL0     C 6405   8.525   4.813  11.763  0.7695  0.2937  0.0939
   48MOL0     C 6406   8.438   4.748  11.872  0.0399 -0.5886  0.4341
   48MOL0     C 6407   8.369   4.859  11.961  0.5658  0.2995  0.3733
   48MOL0     C 6408   8.331   4.793  12.090  0.7101  0.2373  0.6679
   48MOL0     C 6409   8.435   4.739  12.172  0.3214  0.6967  0.2483
   48MOL0     C 6410   8.525   4.693  12.244 -0.3037  0.2578  0.3546
   48MOL0     C 6411   8.424   5.129  11.608 -0.6125  0.2466  0.0694
   48MOL0     C 6412   8.472   5.249  11.551  0.2089  0.1030 -0.9215
   48MOL0     H 6413   8.618   5.669  11.607  1.6959 -1.3451  0.2476
   48MOL0     H 6414   8.743   5.882  11.559  0.9649 -0.5964 -0.4196
   48MOL0     H 6415   8.939   5.922  11.196 -1.6375  0.3445 -0.5355
   48MOL0     H 6416   8.812   6.034  11.144 -1.8964  0.2973  1.0287
   48MOL0     H 6417   8.907   6.208  11.313 -0.7212  0.8671 -1.7753
   48MOL0     H 6418   9.044   6.099  11.350  0.7727  0.0476 -0.1307
   48MOL0     H 6419   9.003   6.239  11.079 -1.2181 -0.1817  0.8729
   48MOL0     H 6420   9.131   6.256  11.207  1.1954 -2.2988  2.0259
   48MOL0     H 6421   9.217   6.020  11.149 -0.0147  1.4744  0.0310
   48MOL0     H 6422   9.103   6.017  11.023  1.6436 -1.1918 -0.7069
   48MOL0     H 6423   9.205   6.245  10.932  0.0467 -2.6162 -4.4603
   48MOL0     H 6424   9.334   6.206  11.045 -0.4781  2.6934 -1.0661
   48MOL0     H 6425   9.216   6.073  10.797 -0.6977 -0.4326  0.8348
   48MOL0     H 6426   9.379   6.134  10.803  2.3007 -2.7619  1.0870
   48MOL0     H 6427   9.430   5.938  10.973 -0.9225 -1.4402  1.2934
   48MOL0     H 6428   9.268   5.888  10.918 -1.3678  1.3974  1.2443
   48MOL0     H 6429   9.360   5.882  10.680  0.6975  1.7169 -0.8467
   48MOL0     H 6430   9.460   5.776  10.792 -3.7753 -0.3541 -1.6781
   48MOL0     H 6431   9.512   6.068  10.556 -1.6755 -1.6177  0.3117
   48MOL0     H 6432   9.735   6.267  10.544  0.0491  0.5131  1.8932
   48MOL0     H 6433   9.864   6.220  10.639 -3.0957  2.6785  1.7237
   48MOL0     H 6434   9.877   6.181  10.383  0.5797  1.2754  2.0920
   48MOL0     H 6435   9.769   6.035  10.413 -1.2506  1.3729 -1.0839
   48MOL0     H 6436   9.949   5.944  10.569 -1.2345  0.8598 -0.1148
   48MOL0     H 6437  10.037   6.098  10.539  0.4084 -1.0312  1.0934
   48MOL0     H 6438  10.053   6.025  10.293 -1.3981 -0.3075 -1.5165
   48MOL0     H 6439   9.964   5.880  10.332 -2.2028  1.3142  0.5529
   48MOL0     H 6440  10.300   6.025  10.227 -1.9823  0.8228  0.8530
   48MOL0     H 6441  10.563   5.918   9.999 -0.1494 -1.7436  3.4711
   48MOL0     H 6442  10.417   5.993   9.934  1.9516 -0.9226 -1.8845
   48MOL0     H 6443  10.476   6.050  10.091 -0.0696 -0.9101 -0.1002
   48MOL0     H 6444  10.474   5.292   9.901 -0.7261  0.5640 -0.0331
   48MOL0     H 6445  10.632   5.178   9.758  0.2333 -0.5151  1.5784
   48MOL0     H 6446  10.834   5.099   9.558  1.3660 -0.9234 -2.4627
   48MOL0     H 6447  10.711   5.209   9.529 -0.2893  2.6448  5.8208
   48MOL0     H 6448  10.828   5.172   9.329 -1.5028 -0.6267  1.2353
   48MOL0     H 6449  10.868   5.334   9.358 -0.2595 -0.1121  0.0811
   48MOL0     H 6450  11.060   5.107   9.393 -1.3051  0.3208 -0.1174
   48MOL0     H 6451  11.088   5.253   9.487 -0.5584 -1.1817  0.8032
   48MOL0     H 6452  11.199   5.239   9.247 -0.1226  0.7480 -2.7279
   48MOL0     H 6453  11.043   5.295   9.194 -3.1197  0.8857  2.0929
   48MOL0     H 6454  11.022   5.483   9.353 -0.6254 -1.5405  1.7231
   48MOL0     H 6455  11.132   5.496   9.217  0.0558  0.0051  0.6873
   48MOL0     H 6456  11.215   5.424   9.513  2.3474 -2.8408 -1.1606
   48MOL0     H 6457  11.320   5.418   9.400 -1.6845 -2.4330  0.2620
   48MOL0     H 6458  11.146   5.668   9.436 -1.1410  0.7401 -5.0427
   48MOL0     H 6459  11.281   5.659   9.325  2.7859 -1.9239  0.2041
   48MOL0     H 6460  11.404   5.601   9.576  3.5600  1.6358 -1.4318
   48MOL0     H 6461  11.281   5.735   9.601 -0.3718  1.5310 -2.2671
   48MOL0     H 6462  10.895   5.508   9.759  0.0762 -1.2221 -0.2047
   48MOL0     H 6463  10.719   5.645   9.901  0.6858 -0.1410  2.8421
   48MOL0     H 6464  10.353   5.530  10.179  2.1500 -0.4179  0.9887
   48MOL0     H 6465  10.202   5.632  10.367  2.0707 -2.6205 -1.3025
   48MOL0     H 6466   8.721   5.810  11.145  0.8475 -0.4518 -0.5398
   48MOL0     H 6467   8.625   5.577  11.191  0.1559  1.7409 -2.8343
   48MOL0     H 6468   8.799   5.149  11.524 -0.5054 -1.9508 -1.4649
   48MOL0     H 6469   8.706   4.948  11.634 -0.0649  0.2186  1.9591
   48MOL0     H 6470   8.575   4.754  11.685  2.0307  0.6070  0.6340
   48MOL0     H 6471   8.614   4.852  11.812  1.0452 -1.3132  0.9468
   48MOL0     H 6472   8.514   4.693  11.928  1.1994  0.8250  0.2799
   48MOL0     H 6473   8.362   4.680  11.831  1.5064 -1.3152 -1.2253
   48MOL0     H 6474   8.275   4.891  11.916 -0.4096  3.1445  3.9903
   48MOL0     H 6475   8.426   4.951  11.977 -1.8734  1.5685  2.3868
   48MOL0     H 6476   8.265   4.707  12.072  2.8093 -1.2281 -0.4909
   48MOL0     H 6477   8.277   4.866  12.150 -0.7919 -0.4174  0.1714
   48MOL0     H 6478   8.583   4.660  12.327 -2.5995  1.1236  2.4082
   48MOL0     H 6479   8.321   5.118  11.639  0.2198 -3.4561  2.2248
   48MOL0     H 6480   8.400   5.327  11.530  1.7709  1.1562 -2.6662
   49MOL0     O 6481   9.334  11.424   0.224  0.1806  0.5566  0.2619
   49MOL0     C 6482   9.366  11.506   0.138 -0.9507  0.5643  0.7893
   49MOL0     O 6483   9.394  11.635   0.152 -0.0766  0.7845 -0.0382
   49MOL0     C 6484   9.378  11.679   0.279  0.5482  0.3180 -0.5349
   49MOL0     C 6485   9.261  11.756   0.304 -0.2138  0.1845 -0.3184
   49MOL0     C 6486   9.225  11.809   0.430  0.6650  0.7168  0.2182
   49MOL0     C 6487   9.316  11.783   0.534  0.5979  0.5772 -0.5963
   49MOL0     O 6488   9.283  11.849   0.651 -0.4120 -0.6921 -0.0908
   49MOL0     C 6489   9.387  11.860   0.747 -0.6478 -0.0792 -0.1692
   49MOL0     C 6490   9.351  11.963   0.854 -0.8980  0.7541 -0.6781
   49MOL0     C 6491   9.474  12.035   0.896 -0.3052 -0.5504 -0.6695
   49MOL0     C 6492   9.495  12.167   0.834  0.0256 -0.9854 -1.0623
   49MOL0     C 6493   9.431  12.272   0.930 -0.7649 -0.0754 -0.2564
   49MOL0     C 6494   9.432  12.401   0.853  0.3259  0.7656  1.1100
   49MOL0     C 6495   9.357  12.506   0.934  0.0619  0.0107 -0.0672
   49MOL0     C 6496   9.441  12.551   1.065 -0.5208  0.1181  0.7784
   49MOL0     N 6497   9.570  12.613   1.025  0.4897  0.3881  0.5133
   49MOL0     C 6498   9.583  12.711   0.930 -0.0870 -1.2011 -0.0679
   49MOL0     C 6499   9.707  12.770   0.960  0.5292  0.7053  0.6011
   49MOL0     C 6500   9.765  12.887   0.893 -0.2370 -1.2744  0.2398
   49MOL0     C 6501   9.690  13.017   0.936 -0.3075 -0.3263  0.1953
   49MOL0     C 6502   9.773  13.141   0.888 -0.0320 -0.2759 -0.5693
   49MOL0     C 6503   9.727  13.259   0.961  0.1552  0.2664 -0.6464
   49MOL0     O 6504   9.751  13.383   0.894 -0.5707 -0.2146 -0.1921
   49MOL0     C 6505   9.741  13.507   0.953  0.2596  0.0953  0.3875
   49MOL0     C 6506   9.711  13.523   1.083  0.3696 -0.7288  0.1186
   49MOL0     C 6507   9.683  13.649   1.139  0.9335 -0.6413 -0.1144
   49MOL0     C 6508   9.630  13.642   1.274 -0.3532 -0.2600 -0.1651
   49MOL0     C 6509   9.715  13.765   1.068  0.3044 -0.1052 -0.1756
   49MOL0     C 6510   9.674  13.900   1.118  0.1899  0.7941  0.4495
   49MOL0     O 6511   9.687  13.927   1.251 -0.3071  0.6674  0.6995
   49MOL0     C 6512   9.586  13.997   1.306  0.1250 -0.0340 -0.7104
   49MOL0     C 6513   9.450  13.961   1.292 -0.7878  0.0005  0.6127
   49MOL0     C 6514   9.344  14.026   1.349 -0.0117 -0.3165  0.2434
   49MOL0     C 6515   9.362  14.135   1.431  0.4313  1.1674  0.6302
   49MOL0     O 6516   9.256  14.202   1.500 -0.3893  0.3559 -0.0870
   49MOL0     C 6517   9.115  14.180   1.469 -0.6087 -0.1876 -0.3055
   49MOL0     C 6518   9.038  14.263   1.561  0.7063 -0.3225  0.6053
   49MOL0     C 6519   8.899  14.210   1.561 -0.5204 -0.0980  0.3369
   49MOL0     C 6520   8.814  14.228   1.676 -0.3520  0.1923 -0.2405
   49MOL0     C 6521   8.670  14.196   1.646  0.1731  1.1576 -1.1080
   49MOL0     C 6522   8.572  14.233   1.753 -0.6698  0.1942  1.3602
   49MOL0     C 6523   8.433  14.207   1.696 -0.7649  1.6108  0.3473
   49MOL0     C 6524   8.399  14.051   1.688  0.2720  0.3307 -1.6127
   49MOL0    Cl 6525   8.473  13.952   1.548 -0.2716  0.3581 -0.0176
   49MOL0     C 6526   9.494  14.169   1.469 -0.6378  1.5543  1.4655
   49MOL0     C 6527   9.608  14.103   1.403  0.0389 -0.4529  0.3106
   49MOL0     O 6528   9.636  13.979   1.035 -0.6421 -0.3736 -0.3060
   49MOL0     C 6529   9.750  13.752   0.936 -0.1853  0.3970  0.3396
   49MOL0     C 6530   9.764  13.623   0.879  0.6920  0.8467  0.2207
   49MOL0     N 6531   9.763  12.701   1.053 -0.0032  1.3837  0.1529
   49MOL0     N 6532   9.690  12.594   1.093  0.3121 -0.9291 -0.1514
   49MOL0     C 6533   9.434  11.709   0.512 -0.4499  1.0482  0.2747
   49MOL0     C 6534   9.465  11.654   0.386  0.4538  0.1318  0.5710
   49MOL0     C 6535   9.379  11.446  -0.006  0.2949 -1.0359  0.2923
   49MOL0     C 6536   9.394  11.532  -0.118  1.2152  0.3636  0.6299
   49MOL0     C 6537   9.413  11.474  -0.243 -0.7702  0.3123 -1.1131
   49MOL0     C 6538   9.419  11.335  -0.265  0.0908 -0.5838  0.7679
   49MOL0     O 6539   9.474  11.298  -0.383 -0.5244  0.2061 -0.5662
   49MOL0     C 6540   9.521  11.164  -0.407 -0.0489 -0.3297  0.4992
   49MOL0     C 6541   9.650  11.137  -0.339  0.4290  0.1012  0.2060
   49MOL0     C 6542   9.710  10.999  -0.375  0.1644  1.1718 -1.0676
   49MOL0     C 6543   9.850  10.988  -0.316 -0.0456  0.1687  0.7241
   49MOL0     C 6544   9.911  10.852  -0.325  0.3371 -0.4184 -0.1562
   49MOL0     C 6545   9.986  10.750  -0.324 -0.0398  0.4504  0.2348
   49MOL0     C 6546   9.398  11.252  -0.158 -0.5020 -0.1520  0.5950
   49MOL0     C 6547   9.383  11.304  -0.023  0.1987 -0.1631 -0.4158
   49MOL0     H 6548   9.193  11.759   0.220 -0.4436 -0.6829 -0.1716
   49MOL0     H 6549   9.142  11.875   0.454 -0.9349 -0.1477 -2.5058
   49MOL0     H 6550   9.398  11.762   0.794 -3.7964 -0.3266  0.2882
   49MOL0     H 6551   9.480  11.897   0.703 -0.6402  0.6746  0.4465
   49MOL0     H 6552   9.277  12.040   0.833 -2.9565 -0.3304  2.0249
   49MOL0     H 6553   9.301  11.913   0.937  2.0502 -1.8682 -0.2764
   49MOL0     H 6554   9.479  12.044   1.005 -1.0232 -0.4442 -0.6395
   49MOL0     H 6555   9.567  11.983   0.873  1.2962  1.2469  1.3677
   49MOL0     H 6556   9.602  12.182   0.820 -0.1334  0.0739 -1.1542
   49MOL0     H 6557   9.458  12.168   0.732  2.3874  3.7470 -2.1403
   49MOL0     H 6558   9.335  12.231   0.961  0.5447 -3.7553 -0.6480
   49MOL0     H 6559   9.492  12.282   1.020  0.1067 -0.3411 -0.8004
   49MOL0     H 6560   9.528  12.434   0.814 -1.7351  4.0952 -1.7868
   49MOL0     H 6561   9.369  12.383   0.766  2.2100  1.3914 -0.4416
   49MOL0     H 6562   9.340  12.594   0.871 -1.6697  0.3508  0.8285
   49MOL0     H 6563   9.261  12.467   0.969  1.1161  0.1446  3.2734
   49MOL0     H 6564   9.471  12.469   1.131  2.2936  1.8112  1.7919
   49MOL0     H 6565   9.387  12.614   1.137 -0.1498 -0.6537  1.7564
   49MOL0     H 6566   9.506  12.751   0.865 -0.7495 -2.3896 -0.0403
   49MOL0     H 6567   9.868  12.889   0.929 -0.2077  1.4839  0.2025
   49MOL0     H 6568   9.773  12.878   0.784  1.4236 -0.9231  0.2989
   49MOL0     H 6569   9.678  13.016   1.045 -1.4431 -1.7339  0.0863
   49MOL0     H 6570   9.589  13.024   0.896 -0.2979  1.6548  0.3920
   49MOL0     H 6571   9.758  13.162   0.782  0.6391  4.2175  0.0109
   49MOL0     H 6572   9.879  13.127   0.914  0.6454  2.4613 -1.5558
   49MOL0     H 6573   9.776  13.267   1.058 -0.7904  0.4490 -0.1803
   49MOL0     H 6574   9.619  13.254   0.976 -0.0947  5.1712  0.7714
   49MOL0     H 6575   9.675  13.435   1.136 -1.0153  0.5853  1.4429
   49MOL0     H 6576   9.695  13.676   1.355  0.2223 -1.4687 -0.1102
   49MOL0     H 6577   9.549  13.716   1.286 -1.1275 -0.9172 -1.1713
   49MOL0     H 6578   9.572  13.552   1.295 -1.9117  1.2687  2.6874
   49MOL0     H 6579   9.424  13.877   1.228  0.0845 -0.9405  1.4620
   49MOL0     H 6580   9.250  13.979   1.323  1.0111 -2.4507  0.2037
   49MOL0     H 6581   9.093  14.193   1.362  1.2984  1.9161 -0.5203
   49MOL0     H 6582   9.090  14.077   1.498 -0.9738  0.7896  3.2961
   49MOL0     H 6583   9.073  14.250   1.664  1.9134  1.8451  0.5377
   49MOL0     H 6584   9.047  14.369   1.535  4.0438 -0.4272  0.8599
   49MOL0     H 6585   8.897  14.106   1.529 -0.7966 -0.5971  1.9054
   49MOL0     H 6586   8.853  14.274   1.485  2.2871  1.7833  0.0635
   49MOL0     H 6587   8.837  14.156   1.755 -0.9002 -1.7072 -1.7224
   49MOL0     H 6588   8.822  14.328   1.718 -1.2463 -0.7876  2.4707
   49MOL0     H 6589   8.667  14.091   1.613 -0.2881  0.7749  0.0839
   49MOL0     H 6590   8.641  14.246   1.553  0.9061  0.4695 -1.7292
   49MOL0     H 6591   8.599  14.182   1.845 -3.0429 -0.9021  1.5136
   49MOL0     H 6592   8.576  14.340   1.778  0.1178  0.6313 -0.4969
   49MOL0     H 6593   8.418  14.245   1.594 -2.4717  2.1752  0.7714
   49MOL0     H 6594   8.355  14.245   1.763  0.8431  1.7029  2.2379
   49MOL0     H 6595   8.293  14.025   1.700  0.5190  0.6894  2.8982
   49MOL0     H 6596   8.435  13.997   1.776  0.8985  0.5344 -1.7390
   49MOL0     H 6597   9.499  14.243   1.548  1.3655  0.2113  2.6913
   49MOL0     H 6598   9.704  14.146   1.427 -1.2790  1.1641  3.1884
   49MOL0     H 6599   9.752  13.846   0.883 -0.5005 -0.6499 -1.6235
   49MOL0     H 6600   9.788  13.600   0.775  3.6173 -1.4160  1.2491
   49MOL0     H 6601   9.500  11.690   0.596  0.8979  2.9353 -0.2721
   49MOL0     H 6602   9.560  11.602   0.374  0.9003  0.5749  1.9649
   49MOL0     H 6603   9.376  11.637  -0.096 -3.3354 -0.2083  0.6676
   49MOL0     H 6604   9.408  11.534  -0.333 -4.1175  1.0262 -0.5663
   49MOL0     H 6605   9.434  11.099  -0.392  0.8852 -1.4106  1.3865
   49MOL0     H 6606   9.536  11.171  -0.515  0.2813 -0.7464  0.5178
   49MOL0     H 6607   9.622  11.137  -0.234 -3.2858  0.9711 -0.6160
   49MOL0     H 6608   9.721  11.217  -0.360  0.7148 -0.1240  0.2993
   49MOL0     H 6609   9.721  10.980  -0.482 -0.5492 -1.3999 -0.7624
   49MOL0     H 6610   9.641  10.922  -0.340 -1.5350  2.3269 -1.7466
   49MOL0     H 6611   9.844  11.000  -0.207 -2.6987  0.5132  0.5968
   49MOL0     H 6612   9.907  11.071  -0.358 -2.8813  1.5484 -0.6528
   49MOL0     H 6613  10.063  10.677  -0.335  0.7875  1.2596  0.5138
   49MOL0     H 6614   9.416  11.145  -0.162  4.6395  0.3850  1.7469
   49MOL0     H 6615   9.371  11.233   0.058  0.7411 -0.1541 -0.3195
   50MOL0     O 6616   0.469   2.657   5.981 -0.5186  0.3307 -0.4151
   50MOL0     C 6617   0.459   2.781   5.997  0.8009  0.1854  0.5930
   50MOL0     O 6618   0.516   2.849   6.095  0.4570 -0.5161 -0.1895
   50MOL0     C 6619   0.587   2.785   6.181  0.0278  0.9332  0.0030
   50MOL0     C 6620   0.539   2.767   6.313  0.1868 -0.9354 -0.3375
   50MOL0     C 6621   0.599   2.675   6.399  0.4180 -1.1872  0.3793
   50MOL0     C 6622   0.720   2.617   6.364  0.1923 -0.2704 -1.4826
   50MOL0     O 6623   0.789   2.528   6.442 -0.2286  0.3376 -0.7863
   50MOL0     C 6624   0.872   2.603   6.536  0.2664 -0.3306  0.8937
   50MOL0     C 6625   0.938   2.513   6.641  0.2308  0.1131  0.5954
   50MOL0     C 6626   1.044   2.586   6.728  0.4222 -0.3706  0.4199
   50MOL0     C 6627   1.096   2.481   6.829 -0.5763  0.5316 -0.1932
   50MOL0     C 6628   1.224   2.406   6.793  0.6984 -0.7352  0.6813
   50MOL0     C 6629   1.333   2.496   6.769 -0.9227 -1.1624 -0.2396
   50MOL0     C 6630   1.476   2.433   6.798  1.1790  0.1637 -1.0515
   50MOL0     C 6631   1.594   2.498   6.719  0.7836 -0.3395  0.2423
   50MOL0     N 6632   1.578   2.502   6.571 -0.6320 -0.4786  0.7371
   50MOL0     C 6633   1.545   2.614   6.498  0.0948 -0.5793 -0.1934
   50MOL0     C 6634   1.513   2.570   6.375 -0.1134 -0.7763 -1.1392
   50MOL0     C 6635   1.463   2.666   6.271 -0.2922  0.3683  1.1095
   50MOL0     C 6636   1.319   2.627   6.244 -0.4736 -0.6420 -0.6348
   50MOL0     C 6637   1.237   2.734   6.172 -0.4711  0.3949 -0.2024
   50MOL0     C 6638   1.094   2.680   6.152 -0.3765 -0.2879 -0.9443
   50MOL0     O 6639   1.008   2.788   6.096  0.1656 -0.8084  0.2546
   50MOL0     C 6640   1.023   2.833   5.965  0.7977  0.2985 -0.8121
   50MOL0     C 6641   1.089   2.757   5.860  0.0900 -0.1140 -0.6408
   50MOL0     C 6642   1.110   2.802   5.723  0.0815  1.4301  0.1116
   50MOL0     C 6643   1.192   2.711   5.625  0.2153 -0.4433 -0.6184
   50MOL0     C 6644   1.056   2.930   5.691  0.0050 -0.1852 -0.3050
   50MOL0     C 6645   1.076   2.997   5.565 -1.2304  1.1012  0.3679
   50MOL0     O 6646   1.052   3.128   5.556 -0.2816  0.4264 -0.0375
   50MOL0     C 6647   1.038   3.181   5.434  0.1615 -0.1390  0.9898
   50MOL0     C 6648   0.969   3.128   5.327 -0.3642  0.4386  0.5837
   50MOL0     C 6649   0.943   3.195   5.202 -0.6147  0.0626 -0.2112
   50MOL0     C 6650   1.002   3.321   5.181 -0.3651  0.6902 -0.9537
   50MOL0     O 6651   0.989   3.397   5.064  0.6806 -0.3449 -0.5066
   50MOL0     C 6652   0.864   3.374   4.990 -0.8163 -0.1086 -0.1128
   50MOL0     C 6653   0.867   3.479   4.868  1.2930 -0.2809 -0.5766
   50MOL0     C 6654   0.734   3.475   4.777  0.9411 -0.2936  0.1546
   50MOL0     C 6655   0.742   3.568   4.656 -0.0174 -0.6575 -0.1692
   50MOL0     C 6656   0.603   3.580   4.587 -0.7221 -0.7526  0.8112
   50MOL0     C 6657   0.582   3.686   4.478 -0.2909  0.1095  0.4343
   50MOL0     C 6658   0.693   3.708   4.370 -0.2029 -0.3031 -0.4035
   50MOL0     C 6659   0.760   3.843   4.397  0.3713 -1.8110 -0.1190
   50MOL0    Cl 6660   0.644   3.972   4.351 -0.1507 -0.0662  0.6392
   50MOL0     C 6661   1.069   3.377   5.295  0.0546 -1.0640 -0.0162
   50MOL0     C 6662   1.090   3.311   5.416 -0.0466 -1.2850 -0.8741
   50MOL0     O 6663   1.131   2.938   5.474  0.4507 -0.4818  0.8975
   50MOL0     C 6664   0.981   3.000   5.795 -0.0038 -0.0859  0.8114
   50MOL0     C 6665   0.959   2.942   5.918 -0.6633  0.1627  0.1615
   50MOL0     N 6666   1.528   2.443   6.361 -0.8297  0.2166 -0.2874
   50MOL0     N 6667   1.576   2.404   6.479  0.6846  0.1842  0.1742
   50MOL0     C 6668   0.779   2.635   6.231 -0.1509  0.1962 -0.7407
   50MOL0     C 6669   0.716   2.726   6.151  1.0377  0.8442  0.9424
   50MOL0     C 6670   0.390   2.863   5.894  0.1331 -0.6303 -0.8958
   50MOL0     C 6671   0.386   2.998   5.915 -0.8234 -0.1353  0.7569
   50MOL0     C 6672   0.310   3.078   5.827  0.7041  0.2143 -0.3262
   50MOL0     C 6673   0.242   3.019   5.723 -0.2830  0.4739  0.5914
   50MOL0     O 6674   0.181   3.101   5.642  0.0184 -1.1937  0.4684
   50MOL0     C 6675   0.053   3.139   5.686 -0.6809 -1.4887  0.6095
   50MOL0     C 6676   0.030   3.287   5.645  0.2069 -0.0218  0.0955
   50MOL0     C 6677   0.086   3.382   5.751 -1.1346 -0.0282  0.2094
   50MOL0     C 6678   0.076   3.529   5.705 -0.4700  0.2809 -0.2525
   50MOL0     C 6679  -0.055   3.598   5.700 -0.2411  0.3773 -0.2135
   50MOL0     C 6680  -0.162   3.657   5.722 -0.2482 -0.3769  0.6815
   50MOL0     C 6681   0.258   2.882   5.694  0.2244 -0.5666  0.1051
   50MOL0     C 6682   0.328   2.795   5.784  1.0950 -0.2631  0.0582
   50MOL0     H 6683   0.441   2.800   6.346 -0.6340 -1.6324 -1.9689
   50MOL0     H 6684   0.552   2.647   6.492 -1.2033 -0.0026 -0.0291
   50MOL0     H 6685   0.943   2.649   6.467 -0.8978  0.1053 -0.0479
   50MOL0     H 6686   0.810   2.681   6.581  0.1180  0.8627 -1.2607
   50MOL0     H 6687   0.849   2.479   6.693 -1.2485 -1.9133 -2.9302
   50MOL0     H 6688   0.987   2.434   6.583 -1.6082 -0.0573 -0.7900
   50MOL0     H 6689   1.126   2.624   6.666  1.3482 -1.2316  1.0788
   50MOL0     H 6690   1.006   2.668   6.790  1.0118  0.6790 -0.5618
   50MOL0     H 6691   1.121   2.539   6.918  2.2394  0.0344 -0.5738
   50MOL0     H 6692   1.020   2.408   6.857 -0.2496  0.1448 -0.3086
   50MOL0     H 6693   1.255   2.331   6.866 -1.0836 -1.9824  0.2229
   50MOL0     H 6694   1.212   2.347   6.701 -1.1529 -1.1186  1.1266
   50MOL0     H 6695   1.329   2.526   6.664  3.1122 -2.6018 -1.0079
   50MOL0     H 6696   1.328   2.587   6.829  0.6854 -1.3596  0.2480
   50MOL0     H 6697   1.499   2.430   6.905 -1.8419 -1.8785 -0.3019
   50MOL0     H 6698   1.454   2.329   6.770 -3.3380  1.2200 -2.3013
   50MOL0     H 6699   1.689   2.452   6.745  1.4499  2.4763  3.5198
   50MOL0     H 6700   1.598   2.600   6.758  0.1619 -0.2475  0.0880
   50MOL0     H 6701   1.542   2.715   6.540  1.9502 -1.3036  1.9351
   50MOL0     H 6702   1.460   2.771   6.303  1.9543  0.4392  1.2487
   50MOL0     H 6703   1.511   2.663   6.173 -2.2991 -0.6743  0.0933
   50MOL0     H 6704   1.259   2.612   6.334 -0.8324  2.3499 -0.2833
   50MOL0     H 6705   1.327   2.541   6.176  3.5688 -0.1832 -1.0192
   50MOL0     H 6706   1.284   2.759   6.077 -0.7549 -0.1127 -0.4833
   50MOL0     H 6707   1.213   2.818   6.238  0.5578  0.2826  0.3318
   50MOL0     H 6708   1.064   2.655   6.254  2.9706  1.3565  0.5997
   50MOL0     H 6709   1.086   2.587   6.094 -0.2898  0.5476 -2.3410
   50MOL0     H 6710   1.119   2.656   5.882 -0.6845 -0.4781 -1.2164
   50MOL0     H 6711   1.290   2.757   5.611  0.1227  0.3310  0.9708
   50MOL0     H 6712   1.216   2.614   5.670 -3.3744 -1.2280 -0.0262
   50MOL0     H 6713   1.132   2.692   5.535 -1.4488 -1.9983  0.7440
   50MOL0     H 6714   0.927   3.029   5.338  1.9964 -0.9731 -1.8814
   50MOL0     H 6715   0.904   3.140   5.117  1.3267 -1.7234 -0.0257
   50MOL0     H 6716   0.858   3.275   4.944 -1.1978 -0.1554  0.0371
   50MOL0     H 6717   0.777   3.393   5.053 -2.1998 -2.6284 -1.1355
   50MOL0     H 6718   0.881   3.580   4.908 -0.3044 -0.3560  0.2675
   50MOL0     H 6719   0.953   3.449   4.808 -0.2610 -3.2701 -1.5178
   50MOL0     H 6720   0.656   3.499   4.850  4.5594  3.3319  3.3471
   50MOL0     H 6721   0.722   3.377   4.730  0.2105  0.5628 -1.5396
   50MOL0     H 6722   0.762   3.670   4.689 -0.5457 -0.9475  1.0998
   50MOL0     H 6723   0.815   3.547   4.577  1.8813  1.8093  0.8006
   50MOL0     H 6724   0.528   3.606   4.663 -2.8790 -1.6690 -0.9190
   50MOL0     H 6725   0.571   3.493   4.529  0.2330 -1.3786  1.1905
   50MOL0     H 6726   0.484   3.674   4.431 -1.0404  0.6574  1.8033
   50MOL0     H 6727   0.566   3.783   4.525  1.2866  0.6288 -0.0327
   50MOL0     H 6728   0.654   3.719   4.268 -0.3785  0.7611 -0.2356
   50MOL0     H 6729   0.767   3.628   4.368 -0.9355 -0.9858 -1.7896
   50MOL0     H 6730   0.854   3.852   4.342  0.0115  1.5573 -0.3814
   50MOL0     H 6731   0.776   3.868   4.503 -2.9127  0.6282 -0.0343
   50MOL0     H 6732   1.108   3.478   5.302  1.3035 -1.4187 -1.4145
   50MOL0     H 6733   1.150   3.353   5.496 -1.8720  1.0919 -0.6093
   50MOL0     H 6734   0.947   3.103   5.786 -0.1718 -0.2346 -0.5114
   50MOL0     H 6735   0.889   2.997   5.979 -0.5930  0.5431 -0.0952
   50MOL0     H 6736   0.865   2.572   6.213 -0.2859 -0.5397  0.9224
   50MOL0     H 6737   0.751   2.737   6.048 -2.9920  0.1058 -0.6610
   50MOL0     H 6738   0.441   3.051   5.992  0.3970  1.9271 -1.4229
   50MOL0     H 6739   0.291   3.182   5.849  0.0182  0.1666 -0.6857
   50MOL0     H 6740  -0.022   3.084   5.629  2.0516 -3.2896 -1.4979
   50MOL0     H 6741   0.042   3.121   5.794 -0.3740  0.6319  1.0432
   50MOL0     H 6742  -0.079   3.296   5.635  0.4255  2.5227 -0.7497
   50MOL0     H 6743   0.074   3.305   5.546  0.0172 -2.4336 -0.5037
   50MOL0     H 6744   0.195   3.372   5.754 -1.0705 -0.2620 -1.5976
   50MOL0     H 6745   0.043   3.370   5.851 -1.3405  3.1855  0.6075
   50MOL0     H 6746   0.123   3.531   5.606  0.2271  0.7147  0.0794
   50MOL0     H 6747   0.146   3.599   5.753  0.6218  0.6232 -2.2322
   50MOL0     H 6748  -0.254   3.709   5.738  1.9512  4.6135 -0.9194
   50MOL0     H 6749   0.217   2.847   5.601 -0.3220 -1.7195  0.7656
   50MOL0     H 6750   0.334   2.688   5.771  0.3466 -0.4739  1.2738
   51MOL0     O 6751   4.376   5.373   7.916  0.1074  0.0796  0.9444
   51MOL0     C 6752   4.331   5.475   7.964  1.0803  0.2002 -1.2877
   51MOL0     O 6753   4.278   5.584   7.892 -0.1940 -0.2688 -0.5105
   51MOL0     C 6754   4.291   5.582   7.756  0.3671 -0.2344 -0.0292
   51MOL0     C 6755   4.321   5.707   7.696 -0.5707 -0.3058 -0.4875
   51MOL0     C 6756   4.359   5.710   7.559 -0.3124  1.0448 -0.0549
   51MOL0     C 6757   4.347   5.597   7.477 -0.3738 -0.1486 -0.2979
   51MOL0     O 6758   4.379   5.584   7.343  0.0728 -0.9376 -0.3698
   51MOL0     C 6759   4.474   5.674   7.274  1.2402  0.4106 -0.2399
   51MOL0     C 6760   4.503   5.627   7.132 -0.7796 -0.2790 -0.2412
   51MOL0     C 6761   4.378   5.626   7.047 -0.8354  0.1002 -0.3925
   51MOL0     C 6762   4.403   5.614   6.892  0.1443  0.8868  0.1930
   51MOL0     C 6763   4.272   5.647   6.811  0.0284  0.9765  0.0528
   51MOL0     C 6764   4.162   5.548   6.861 -0.2643  0.4932  0.0217
   51MOL0     C 6765   4.028   5.558   6.791 -0.5952  0.2631  0.1518
   51MOL0     C 6766   4.018   5.475   6.667  0.6789  0.2809  0.0563
   51MOL0     N 6767   3.942   5.348   6.701  0.4776 -0.2267  0.1669
   51MOL0     C 6768   3.806   5.341   6.744 -0.2616 -0.6176  0.5574
   51MOL0     C 6769   3.795   5.229   6.818 -0.1305  0.5725  0.3667
   51MOL0     C 6770   3.690   5.170   6.905  0.1884  0.2527 -0.6408
   51MOL0     C 6771   3.703   5.232   7.045 -0.8978 -1.1079 -1.6547
   51MOL0     C 6772   3.573   5.216   7.140 -0.0840 -0.2837  0.6130
   51MOL0     C 6773   3.454   5.295   7.089  0.6284 -0.8757 -0.2534
   51MOL0     O 6774   3.327   5.276   7.167  0.5646 -0.3495 -0.6091
   51MOL0     C 6775   3.295   5.150   7.195  0.5879 -0.0291  0.2354
   51MOL0     C 6776   3.265   5.066   7.087  1.0669 -0.0662 -1.1979
   51MOL0     C 6777   3.198   4.938   7.125 -0.3258  0.4846  0.6064
   51MOL0     C 6778   3.186   4.834   7.007  0.7028  0.8047 -0.5841
   51MOL0     C 6779   3.184   4.898   7.261 -0.3679  0.0245 -0.5019
   51MOL0     C 6780   3.116   4.772   7.308 -0.0232 -0.6745 -0.8305
   51MOL0     O 6781   3.096   4.759   7.447  0.0405 -0.0511  0.7446
   51MOL0     C 6782   3.027   4.649   7.495  0.1268 -0.4788  0.4096
   51MOL0     C 6783   3.086   4.521   7.495  0.6379 -0.0513  0.5455
   51MOL0     C 6784   3.023   4.416   7.558  0.6058  0.0407 -0.1649
   51MOL0     C 6785   2.899   4.433   7.620 -0.9901 -0.5510  0.2357
   51MOL0     O 6786   2.845   4.330   7.682  0.2228 -1.0427  0.2477
   51MOL0     C 6787   2.813   4.360   7.819 -0.5518 -0.6324  0.0969
   51MOL0     C 6788   2.813   4.234   7.898  0.5485  0.8327 -0.5733
   51MOL0     C 6789   2.803   4.245   8.054  0.7438 -0.2509  0.1033
   51MOL0     C 6790   2.768   4.115   8.127 -0.3702  0.6500 -0.1703
   51MOL0     C 6791   2.859   4.082   8.242  0.1418  0.1711 -0.0088
   51MOL0     C 6792   2.860   3.932   8.274  0.4625  0.9267 -0.7796
   51MOL0     C 6793   2.990   3.904   8.350  0.6692  0.3839  0.0890
   51MOL0     C 6794   2.987   3.762   8.418 -0.4507  0.2472  0.1442
   51MOL0    Cl 6795   2.851   3.741   8.536 -0.1198  0.5256  0.1551
   51MOL0     C 6796   2.846   4.563   7.623 -0.3055  0.7147 -0.5942
   51MOL0     C 6797   2.905   4.662   7.553  0.2679 -0.6505 -0.0162
   51MOL0     O 6798   3.080   4.681   7.234  0.8723 -0.4427 -0.3715
   51MOL0     C 6799   3.226   4.991   7.357 -0.4024 -0.0258 -0.6802
   51MOL0     C 6800   3.282   5.116   7.323  0.1087 -0.0246  0.1326
   51MOL0     N 6801   3.926   5.171   6.812 -0.8820  0.0177  0.5497
   51MOL0     N 6802   4.004   5.234   6.727  0.9597 -1.2292 -0.0604
   51MOL0     C 6803   4.301   5.475   7.537  0.9217  0.6317  0.1629
   51MOL0     C 6804   4.272   5.472   7.674 -0.0870  0.6641  0.3929
   51MOL0     C 6805   4.324   5.489   8.111 -0.0194 -1.0371 -0.1793
   51MOL0     C 6806   4.239   5.587   8.172 -0.3540 -0.2069 -0.7680
   51MOL0     C 6807   4.237   5.605   8.313 -0.0091  0.1953  0.9079
   51MOL0     C 6808   4.329   5.538   8.395  0.0099 -0.6440  0.6189
   51MOL0     O 6809   4.349   5.556   8.530  0.3964 -0.4913  0.0595
   51MOL0     C 6810   4.233   5.604   8.599  0.2619  0.1442 -1.1218
   51MOL0     C 6811   4.275   5.583   8.751  0.6873 -0.7033  0.2865
   51MOL0     C 6812   4.162   5.639   8.833  1.7314  0.0920 -0.6438
   51MOL0     C 6813   4.199   5.658   8.979 -0.5950 -0.3967 -1.0230
   51MOL0     C 6814   4.296   5.776   9.007 -0.5112 -0.7011  0.8849
   51MOL0     C 6815   4.371   5.874   9.019 -0.6156  0.2463 -0.8793
   51MOL0     C 6816   4.410   5.440   8.335 -0.3219 -0.3211 -0.0299
   51MOL0     C 6817   4.407   5.413   8.191 -0.2952  0.5443 -0.0997
   51MOL0     H 6818   4.325   5.799   7.753 -0.0984 -0.1551 -0.7578
   51MOL0     H 6819   4.393   5.803   7.515  1.0572  0.2267 -0.7671
   51MOL0     H 6820   4.445   5.780   7.273 -0.3525  0.0010  0.5795
   51MOL0     H 6821   4.570   5.664   7.325  2.3234  0.1730 -2.2118
   51MOL0     H 6822   4.586   5.681   7.084  0.7895 -0.1845  2.3790
   51MOL0     H 6823   4.541   5.525   7.132  1.9226  0.6434 -0.2843
   51MOL0     H 6824   4.314   5.551   7.094 -2.2022 -0.2035 -2.5893
   51MOL0     H 6825   4.323   5.720   7.059  1.2029  1.1657  1.4797
   51MOL0     H 6826   4.487   5.680   6.872 -0.0343  1.5222  1.4841
   51MOL0     H 6827   4.444   5.516   6.865  2.6985  1.6105  1.1851
   51MOL0     H 6828   4.240   5.748   6.836  1.2680  1.4141 -0.0816
   51MOL0     H 6829   4.279   5.641   6.702 -2.3563  0.9519 -0.1603
   51MOL0     H 6830   4.195   5.444   6.868 -0.8994  0.3932  2.5912
   51MOL0     H 6831   4.143   5.570   6.966  0.4009  2.4423 -0.2252
   51MOL0     H 6832   3.949   5.535   6.864 -0.4295 -2.2344 -0.3566
   51MOL0     H 6833   4.008   5.665   6.779 -0.3027  0.2782 -0.1999
   51MOL0     H 6834   4.117   5.457   6.623  0.9437 -1.2720  1.1804
   51MOL0     H 6835   3.956   5.539   6.604 -0.5757 -0.1589  0.7966
   51MOL0     H 6836   3.736   5.423   6.731  0.7075  0.6990  2.9941
   51MOL0     H 6837   3.593   5.209   6.872 -1.5238 -4.5836 -2.2234
   51MOL0     H 6838   3.687   5.062   6.889  4.3250 -0.3930  1.5758
   51MOL0     H 6839   3.735   5.336   7.036  1.6375 -1.6682 -0.2208
   51MOL0     H 6840   3.794   5.185   7.084 -0.3457 -0.5557 -2.2492
   51MOL0     H 6841   3.591   5.256   7.240  1.0604  1.1939 -0.1351
   51MOL0     H 6842   3.567   5.107   7.135  0.2869 -0.2638 -0.6746
   51MOL0     H 6843   3.437   5.261   6.987  0.3783 -2.1021  0.1866
   51MOL0     H 6844   3.476   5.403   7.093 -0.0210 -0.6764  4.9937
   51MOL0     H 6845   3.275   5.095   6.983  1.0705 -3.3356 -2.2362
   51MOL0     H 6846   3.084   4.826   6.968 -0.3681 -0.1287  2.2034
   51MOL0     H 6847   3.259   4.865   6.931 -1.4152 -0.6130 -3.3933
   51MOL0     H 6848   3.232   4.739   7.037  1.4301  0.9345 -1.2464
   51MOL0     H 6849   3.176   4.500   7.438 -0.2546 -2.7902 -0.0000
   51MOL0     H 6850   3.058   4.313   7.554  0.7926  0.0471  1.0753
   51MOL0     H 6851   2.892   4.428   7.853 -0.6037 -0.8613  0.6714
   51MOL0     H 6852   2.713   4.402   7.822 -0.4680 -0.2911 -1.1513
   51MOL0     H 6853   2.736   4.160   7.877 -0.6495  1.7031  0.5856
   51MOL0     H 6854   2.910   4.186   7.879 -0.0745 -1.7179  1.8949
   51MOL0     H 6855   2.726   4.318   8.081  4.9183  3.8349  2.3821
   51MOL0     H 6856   2.896   4.287   8.093  1.1128  0.2236 -1.2188
   51MOL0     H 6857   2.663   4.118   8.158 -1.4972  2.2621 -3.6555
   51MOL0     H 6858   2.773   4.030   8.059  3.0946  1.2202 -0.8019
   51MOL0     H 6859   2.822   4.130   8.333  0.3469  0.6171 -0.1579
   51MOL0     H 6860   2.959   4.126   8.234  0.0894 -0.0482 -3.3320
   51MOL0     H 6861   2.768   3.903   8.325  1.2797 -1.0929 -0.3664
   51MOL0     H 6862   2.870   3.877   8.180 -4.2290  0.0913 -1.0461
   51MOL0     H 6863   3.008   3.983   8.424 -0.5836  2.3041 -1.5354
   51MOL0     H 6864   3.071   3.924   8.279 -0.5532  0.2846 -1.4057
   51MOL0     H 6865   3.081   3.747   8.470  2.3276  0.5564 -4.2579
   51MOL0     H 6866   2.978   3.683   8.342  0.0859  1.9469 -1.7780
   51MOL0     H 6867   2.757   4.599   7.675 -0.9998  0.3407 -1.4994
   51MOL0     H 6868   2.863   4.762   7.553  0.1827 -0.6256  2.5395
   51MOL0     H 6869   3.232   4.952   7.458 -0.1526  0.5051 -0.4870
   51MOL0     H 6870   3.328   5.170   7.406 -0.0122 -1.7136  1.3349
   51MOL0     H 6871   4.289   5.386   7.477  1.9765 -1.8514  3.3354
   51MOL0     H 6872   4.230   5.381   7.716  4.8562 -2.4679 -0.5371
   51MOL0     H 6873   4.181   5.654   8.110  3.4006  2.3652 -1.8712
   51MOL0     H 6874   4.190   5.696   8.351  0.8186  0.0849  2.2470
   51MOL0     H 6875   4.218   5.710   8.581  1.1398  0.9767  2.3069
   51MOL0     H 6876   4.147   5.543   8.570  0.5400 -0.6805 -0.2664
   51MOL0     H 6877   4.372   5.630   8.772  0.8328 -0.9679  0.2104
   51MOL0     H 6878   4.289   5.476   8.769  1.5514 -0.3062  2.2393
   51MOL0     H 6879   4.086   5.561   8.827  1.2366  0.5526 -0.3717
   51MOL0     H 6880   4.121   5.734   8.798 -0.1248 -0.1298  0.7921
   51MOL0     H 6881   4.239   5.568   9.027 -0.7702 -0.2910 -0.6785
   51MOL0     H 6882   4.110   5.677   9.039  0.3125 -0.7210  0.4832
   51MOL0     H 6883   4.436   5.960   9.018  1.4305 -1.1626 -3.8606
   51MOL0     H 6884   4.473   5.378   8.399  0.8646  2.0090  1.1842
   51MOL0     H 6885   4.472   5.339   8.146  2.7217  2.1430  1.3338
   52MOL0     O 6886   1.010  11.457   1.656 -0.2185  0.3120  0.3098
   52MOL0     C 6887   0.931  11.367   1.694 -0.7712  0.9485 -0.3015
   52MOL0     O 6888   0.799  11.377   1.731 -0.9032 -0.2580 -0.6043
   52MOL0     C 6889   0.738  11.493   1.695 -0.6922  0.8173 -1.5424
   52MOL0     C 6890   0.745  11.604   1.780  0.5582 -0.6402  0.0461
   52MOL0     C 6891   0.678  11.718   1.736  0.9798  0.2912 -1.7050
   52MOL0     C 6892   0.612  11.714   1.607  0.1446 -0.3363 -0.0959
   52MOL0     O 6893   0.540  11.829   1.561  0.3541  0.5453 -0.7706
   52MOL0     C 6894   0.403  11.807   1.517  0.4819 -0.4575  0.8670
   52MOL0     C 6895   0.328  11.936   1.516  0.1634 -0.5210  0.3489
   52MOL0     C 6896   0.292  11.973   1.663 -0.1418  0.0537 -0.2075
   52MOL0     C 6897   0.209  12.102   1.670  0.3453  0.4281  0.0646
   52MOL0     C 6898   0.143  12.103   1.809  0.2036  0.2308 -0.3564
   52MOL0     C 6899   0.234  12.181   1.906  0.3803  0.5342 -0.1775
   52MOL0     C 6900   0.160  12.257   2.024 -0.0211  0.0378  0.0701
   52MOL0     C 6901   0.243  12.317   2.142  0.0139  0.2789  0.4686
   52MOL0     N 6902   0.309  12.443   2.116 -0.2769  0.2550 -0.6678
   52MOL0     C 6903   0.333  12.524   2.005 -0.0512 -0.0796 -0.1385
   52MOL0     C 6904   0.384  12.641   2.049  0.1061  0.6986  0.4894
   52MOL0     C 6905   0.407  12.751   1.957 -0.4098 -0.3681  0.0685
   52MOL0     C 6906   0.363  12.880   2.026  0.7929 -0.2336 -0.5181
   52MOL0     C 6907   0.202  12.887   2.026  0.1046  0.5823  0.6242
   52MOL0     C 6908   0.141  13.028   2.019 -0.7032 -0.2029 -0.2141
   52MOL0     O 6909   0.010  13.026   2.063 -0.2131  0.0164  0.4409
   52MOL0     C 6910  -0.073  13.123   2.022  0.1548 -0.2415  0.7000
   52MOL0     C 6911  -0.032  13.243   1.966 -0.2813 -0.2721  0.2792
   52MOL0     C 6912  -0.114  13.348   1.925 -0.3387  0.8132 -0.1265
   52MOL0     C 6913  -0.052  13.465   1.869 -0.2503 -0.0253  0.5401
   52MOL0     C 6914  -0.254  13.329   1.955  0.0118  0.2901  0.1187
   52MOL0     C 6915  -0.361  13.438   1.946 -0.4724  0.2094 -0.3597
   52MOL0     O 6916  -0.474  13.402   2.012 -0.0213 -0.0963  0.2819
   52MOL0     C 6917  -0.588  13.483   2.030 -1.6251 -0.3382 -0.4275
   52MOL0     C 6918  -0.588  13.624   2.016 -0.4625 -0.2956 -0.4206
   52MOL0     C 6919  -0.713  13.687   2.024 -0.3057 -0.3786 -0.2574
   52MOL0     C 6920  -0.831  13.627   2.061  1.2691 -0.6464 -0.8554
   52MOL0     O 6921  -0.950  13.696   2.078 -0.6483 -0.7141  0.0423
   52MOL0     C 6922  -0.942  13.796   2.188  0.2156 -0.2024 -0.5584
   52MOL0     C 6923  -1.053  13.762   2.285  0.0973 -0.2327  0.1106
   52MOL0     C 6924  -1.203  13.795   2.237 -0.0392 -0.4645 -0.1586
   52MOL0     C 6925  -1.296  13.768   2.350 -0.0408 -0.6402 -1.4198
   52MOL0     C 6926  -1.362  13.627   2.361  0.4285 -1.2408 -0.0096
   52MOL0     C 6927  -1.410  13.560   2.225  1.4591  0.0666  0.2063
   52MOL0     C 6928  -1.299  13.471   2.176 -0.8587 -0.8707  0.1377
   52MOL0     C 6929  -1.302  13.337   2.248  0.2855  0.2607  0.4992
   52MOL0    Cl 6930  -1.156  13.231   2.210 -0.1571  0.0098 -0.0851
   52MOL0     C 6931  -0.823  13.489   2.085  0.1876  0.1009  0.5905
   52MOL0     C 6932  -0.709  13.420   2.063 -1.0069 -0.1558 -1.5049
   52MOL0     O 6933  -0.331  13.552   1.903  1.0579  0.1825  0.6962
   52MOL0     C 6934  -0.301  13.207   2.011  0.8297  0.0441 -0.1977
   52MOL0     C 6935  -0.209  13.107   2.042  0.3266  0.0495 -0.0490
   52MOL0     N 6936   0.395  12.631   2.186 -0.1840 -0.2251  0.0844
   52MOL0     N 6937   0.352  12.509   2.228 -0.5006  0.0179 -0.4487
   52MOL0     C 6938   0.609  11.608   1.524 -0.4806 -0.3874 -0.1474
   52MOL0     C 6939   0.673  11.498   1.569  0.0432  0.6192  0.9084
   52MOL0     C 6940   0.994  11.240   1.719 -0.4628  0.3865 -0.3451
   52MOL0     C 6941   0.918  11.136   1.784  0.2629 -0.2279  0.0929
   52MOL0     C 6942   0.976  11.014   1.825  0.0413  1.0234 -0.2938
   52MOL0     C 6943   1.112  11.000   1.821  0.3999 -0.4364  0.4073
   52MOL0     O 6944   1.177  10.896   1.876 -0.0099 -0.0403  0.7922
   52MOL0     C 6945   1.127  10.768   1.821  0.0091 -0.7652 -0.8085
   52MOL0     C 6946   1.239  10.676   1.782  0.6531 -0.0755 -0.6460
   52MOL0     C 6947   1.343  10.733   1.673 -0.0989  0.0181 -0.2429
   52MOL0     C 6948   1.357  10.634   1.554 -0.6990  0.0364  0.4504
   52MOL0     C 6949   1.447  10.524   1.588  0.3087 -0.6617 -0.2976
   52MOL0     C 6950   1.542  10.457   1.625  0.0708  0.9427 -1.0217
   52MOL0     C 6951   1.187  11.095   1.757  0.6693 -0.6203 -0.6119
   52MOL0     C 6952   1.134  11.210   1.706 -0.4562  0.3278  0.0852
   52MOL0     H 6953   0.806  11.602   1.869  1.9522 -3.8250 -0.8283
   52MOL0     H 6954   0.683  11.803   1.803 -3.3497 -2.9199  3.4677
   52MOL0     H 6955   0.398  11.774   1.412  0.4019 -0.0602  0.7466
   52MOL0     H 6956   0.357  11.732   1.583  0.1483  0.4560  1.6841
   52MOL0     H 6957   0.374  12.014   1.456  2.0719  1.1066  3.6471
   52MOL0     H 6958   0.240  11.910   1.457  0.7469 -0.4145 -0.5747
   52MOL0     H 6959   0.242  11.888   1.710 -0.2203  1.1921  1.9140
   52MOL0     H 6960   0.378  12.007   1.722 -0.1498  1.0640 -0.7590
   52MOL0     H 6961   0.286  12.176   1.646  0.9608 -0.2363 -0.0522
   52MOL0     H 6962   0.127  12.101   1.599  0.4426 -0.4795 -0.0481
   52MOL0     H 6963   0.050  12.159   1.794  0.2987 -0.0722 -2.3055
   52MOL0     H 6964   0.110  12.015   1.864  1.2614 -0.7058 -1.1944
   52MOL0     H 6965   0.304  12.108   1.947 -1.8546 -0.8354  1.4847
   52MOL0     H 6966   0.296  12.260   1.862 -0.8206  0.6405 -1.7687
   52MOL0     H 6967   0.099  12.340   1.986 -1.0500 -0.2363  1.0847
   52MOL0     H 6968   0.093  12.181   2.063 -1.2697  0.9573 -0.2140
   52MOL0     H 6969   0.315  12.246   2.184 -1.6429 -0.7926  1.6246
   52MOL0     H 6970   0.167  12.332   2.219 -1.7188 -1.3590 -0.7995
   52MOL0     H 6971   0.290  12.518   1.905 -1.0455  2.0109  0.1251
   52MOL0     H 6972   0.512  12.741   1.928  0.0957  1.9302  0.9395
   52MOL0     H 6973   0.342  12.728   1.871 -1.4110 -0.6670  0.8890
   52MOL0     H 6974   0.386  12.975   1.975 -0.8097  0.1960 -0.5038
   52MOL0     H 6975   0.400  12.889   2.128  0.0962  3.6719 -0.4256
   52MOL0     H 6976   0.166  12.834   2.115 -1.5927  1.2859  0.3744
   52MOL0     H 6977   0.161  12.834   1.940  0.6261  0.3816  0.4946
   52MOL0     H 6978   0.156  13.087   1.928  0.2805  1.3467  0.8939
   52MOL0     H 6979   0.204  13.089   2.085 -1.8489  1.4051 -0.5330
   52MOL0     H 6980   0.073  13.258   1.942  0.6012 -1.3012  3.0947
   52MOL0     H 6981  -0.004  13.524   1.948 -0.5413  0.0242  0.6834
   52MOL0     H 6982   0.032  13.437   1.806 -0.4540  3.5190 -1.5793
   52MOL0     H 6983  -0.114  13.534   1.812 -1.5503 -1.3130  0.3238
   52MOL0     H 6984  -0.512  13.691   1.978 -1.1897  2.5560  2.7293
   52MOL0     H 6985  -0.720  13.789   1.989  0.2668 -1.0659 -2.5358
   52MOL0     H 6986  -0.844  13.788   2.237 -0.4862 -2.0707  0.6578
   52MOL0     H 6987  -0.966  13.894   2.145  0.0116  0.7606  1.6197
   52MOL0     H 6988  -1.049  13.654   2.300 -1.1490 -0.3707 -0.4206
   52MOL0     H 6989  -1.030  13.805   2.383  0.8199 -2.7780  1.1308
   52MOL0     H 6990  -1.220  13.748   2.140  0.1279  2.5135 -1.7068
   52MOL0     H 6991  -1.206  13.903   2.222  1.1250 -0.3784  0.1513
   52MOL0     H 6992  -1.253  13.806   2.443  0.8764  1.1180 -2.4972
   52MOL0     H 6993  -1.377  13.841   2.335  1.2115  1.1651  0.1553
   52MOL0     H 6994  -1.453  13.652   2.417  0.1051  2.1119 -1.7760
   52MOL0     H 6995  -1.296  13.555   2.411  1.9063  1.2952  1.9155
   52MOL0     H 6996  -1.494  13.498   2.259  2.2458 -0.3590  1.4693
   52MOL0     H 6997  -1.459  13.622   2.150 -0.2732  1.1730  2.1431
   52MOL0     H 6998  -1.200  13.517   2.180 -0.8498 -0.9059  0.2981
   52MOL0     H 6999  -1.322  13.458   2.069  2.7720 -0.7597 -0.7747
   52MOL0     H 7000  -1.397  13.284   2.241  1.0326 -0.9254 -1.5566
   52MOL0     H 7001  -1.279  13.348   2.355  2.8255  0.0213  0.0327
   52MOL0     H 7002  -0.924  13.454   2.099  0.2911  0.2375  1.7421
   52MOL0     H 7003  -0.719  13.312   2.070 -4.5284  0.1648  0.5147
   52MOL0     H 7004  -0.406  13.187   2.028  0.3631  1.4064 -1.3200
   52MOL0     H 7005  -0.237  13.016   2.094  2.1579 -0.4930  0.0612
   52MOL0     H 7006   0.553  11.619   1.432  0.1413  0.4442 -0.4380
   52MOL0     H 7007   0.660  11.420   1.495 -0.9332  1.0105  0.6548
   52MOL0     H 7008   0.811  11.142   1.801  0.6708  0.9631  2.8382
   52MOL0     H 7009   0.923  10.932   1.873  2.2150  0.6496  1.6658
   52MOL0     H 7010   1.069  10.721   1.900 -0.2864  2.0578  0.8054
   52MOL0     H 7011   1.055  10.782   1.740 -1.0972 -1.3778  0.0334
   52MOL0     H 7012   1.194  10.587   1.737  1.8732 -0.9215 -0.2446
   52MOL0     H 7013   1.306  10.653   1.865  2.6744  4.5410 -0.6843
   52MOL0     H 7014   1.441  10.742   1.721  1.3112  1.3921 -3.1106
   52MOL0     H 7015   1.323  10.833   1.634 -0.4980 -0.6482 -1.8495
   52MOL0     H 7016   1.394  10.686   1.465  0.7141 -3.3673 -1.1695
   52MOL0     H 7017   1.261  10.585   1.535  0.1283 -1.5387  0.1433
   52MOL0     H 7018   1.635  10.407   1.642  1.1432  2.2079 -2.7646
   52MOL0     H 7019   1.294  11.075   1.749  0.6130 -0.8019 -0.9214
   52MOL0     H 7020   1.206  11.275   1.657  4.4356 -4.3342  0.1442
   53MOL0     O 7021   8.383   7.702   4.676  1.1744  0.5282  0.3838
   53MOL0     C 7022   8.468   7.766   4.622  0.2115  0.0379  0.5671
   53MOL0     O 7023   8.488   7.898   4.645 -0.7194  0.0170  0.0947
   53MOL0     C 7024   8.393   7.961   4.723 -0.9594 -0.6233  0.3905
   53MOL0     C 7025   8.264   8.001   4.690 -0.6874  0.4510 -0.1174
   53MOL0     C 7026   8.180   8.059   4.788  1.2183  0.1122  0.8276
   53MOL0     C 7027   8.221   8.086   4.912  0.9409  0.0921  0.5518
   53MOL0     O 7028   8.125   8.129   4.997  0.8517 -0.6743  0.3658
   53MOL0     C 7029   8.168   8.214   5.101  0.1194 -0.5956 -0.2908
   53MOL0     C 7030   8.046   8.216   5.206 -0.2636 -0.3360  0.6752
   53MOL0     C 7031   7.980   8.075   5.216  0.3911 -1.0153  0.6989
   53MOL0     C 7032   7.883   8.082   5.325  0.2063  1.1929  0.6501
   53MOL0     C 7033   7.844   7.948   5.390 -1.3866 -0.3998  1.0626
   53MOL0     C 7034   7.744   7.963   5.496  0.1404 -0.8074  0.4921
   53MOL0     C 7035   7.816   8.004   5.616  0.2147 -1.1357 -0.4242
   53MOL0     C 7036   7.720   8.021   5.744 -0.6467  0.4849 -0.3970
   53MOL0     N 7037   7.785   8.069   5.866 -0.6274 -0.9126 -0.1035
   53MOL0     C 7038   7.729   8.158   5.953 -0.1992  0.5358 -0.0628
   53MOL0     C 7039   7.819   8.174   6.047 -0.4037 -0.6856 -0.9904
   53MOL0     C 7040   7.812   8.259   6.182  0.2782  0.5474  0.4197
   53MOL0     C 7041   7.925   8.356   6.199 -1.9487 -0.0514 -0.4543
   53MOL0     C 7042   7.908   8.470   6.289  0.5803 -0.5259  0.4193
   53MOL0     C 7043   7.847   8.435   6.426  0.0231  0.2954 -0.9873
   53MOL0     O 7044   7.933   8.341   6.497  1.0517  0.0509 -0.1955
   53MOL0     C 7045   7.886   8.311   6.629 -0.4791 -0.6704 -0.4539
   53MOL0     C 7046   7.754   8.303   6.663  0.2755 -0.8058 -0.9685
   53MOL0     C 7047   7.709   8.265   6.798 -0.2925  0.3705  1.0309
   53MOL0     C 7048   7.555   8.274   6.831  0.1327  0.1293  1.2483
   53MOL0     C 7049   7.809   8.227   6.883  0.5068  0.0352 -0.2793
   53MOL0     C 7050   7.793   8.183   7.031  0.0125 -0.1298  0.4685
   53MOL0     O 7051   7.908   8.169   7.106 -0.9195 -0.2084  0.2348
   53MOL0     C 7052   7.925   8.089   7.219 -0.1982  0.2595  0.4230
   53MOL0     C 7053   7.848   7.978   7.259  0.3434 -0.1284 -1.2334
   53MOL0     C 7054   7.869   7.920   7.384 -0.1605 -0.2899 -0.3497
   53MOL0     C 7055   7.978   7.947   7.460 -0.2334  1.3324 -0.5795
   53MOL0     O 7056   8.014   7.887   7.586  0.4265  0.6697  0.3418
   53MOL0     C 7057   7.917   7.815   7.653  0.3552  1.1684  0.1944
   53MOL0     C 7058   7.804   7.902   7.707 -0.4344  0.0935  0.4344
   53MOL0     C 7059   7.860   8.016   7.799  0.6083 -0.0485  0.0233
   53MOL0     C 7060   7.740   8.100   7.836 -0.0261 -0.3452 -1.1077
   53MOL0     C 7061   7.771   8.241   7.899 -0.3654 -0.2515  0.7050
   53MOL0     C 7062   7.646   8.333   7.901 -1.1661 -0.6835 -0.6070
   53MOL0     C 7063   7.692   8.455   7.977  0.5510  0.6664  0.0288
   53MOL0     C 7064   7.573   8.547   8.019  0.8396 -0.7390 -0.9785
   53MOL0    Cl 7065   7.486   8.609   7.871  0.6681 -0.0352 -0.0088
   53MOL0     C 7066   8.059   8.047   7.421 -0.1024 -0.4431  0.3098
   53MOL0     C 7067   8.036   8.115   7.303  0.7483 -0.1598 -0.1147
   53MOL0     O 7068   7.675   8.154   7.072 -0.0978  0.1246  0.5498
   53MOL0     C 7069   7.943   8.213   6.832  0.1388 -0.3104 -1.7467
   53MOL0     C 7070   7.987   8.269   6.717  0.7366  0.5710 -0.2776
   53MOL0     N 7071   7.930   8.098   6.018 -0.7604 -0.2477 -0.2584
   53MOL0     N 7072   7.911   8.040   5.907  0.0073 -0.2039  0.5093
   53MOL0     C 7073   8.353   8.045   4.943  0.6716  0.0672  0.5180
   53MOL0     C 7074   8.435   7.989   4.849  1.1174  0.1500  0.0881
   53MOL0     C 7075   8.553   7.692   4.517  1.2229  0.3179 -0.1907
   53MOL0     C 7076   8.521   7.554   4.479 -0.1616  0.1799 -0.6390
   53MOL0     C 7077   8.614   7.479   4.416 -0.4595  0.1965  0.9477
   53MOL0     C 7078   8.731   7.535   4.366  0.0540  0.1123  0.3874
   53MOL0     O 7079   8.809   7.449   4.288 -0.8480 -0.5771  0.1194
   53MOL0     C 7080   8.923   7.505   4.226 -0.4262  0.1499  0.3391
   53MOL0     C 7081   9.004   7.395   4.155 -0.1679 -0.6131  0.4828
   53MOL0     C 7082   8.922   7.338   4.029 -0.2916 -1.0359 -0.5321
   53MOL0     C 7083   8.953   7.185   4.010  0.0916 -0.1171 -0.0395
   53MOL0     C 7084   9.099   7.163   3.999 -0.2561 -0.8333 -0.3662
   53MOL0     C 7085   9.217   7.156   3.977  0.4001 -0.2710  0.5588
   53MOL0     C 7086   8.764   7.665   4.398 -0.1051  0.2143 -0.3337
   53MOL0     C 7087   8.681   7.742   4.481 -0.1617 -0.3852 -0.3767
   53MOL0     H 7088   8.234   7.984   4.587  1.6538 -2.2585 -0.4951
   53MOL0     H 7089   8.080   8.081   4.751  1.9733  0.8608 -0.8848
   53MOL0     H 7090   8.255   8.171   5.151  0.1546  0.8046  0.9018
   53MOL0     H 7091   8.197   8.316   5.076  2.0007 -0.7241  1.1759
   53MOL0     H 7092   8.065   8.257   5.306  0.0997 -0.1295  0.5221
   53MOL0     H 7093   7.975   8.287   5.162  1.1937  1.6438  1.3674
   53MOL0     H 7094   7.939   8.042   5.121  0.4218  0.9789 -0.0676
   53MOL0     H 7095   8.062   8.007   5.239 -0.6630 -2.2855  0.8409
   53MOL0     H 7096   7.929   8.142   5.404  0.8195 -1.7888  2.7142
   53MOL0     H 7097   7.795   8.128   5.279 -0.0041  0.3264  0.1695
   53MOL0     H 7098   7.809   7.885   5.309  0.8623  0.4260 -0.6480
   53MOL0     H 7099   7.931   7.896   5.430  0.0144 -0.4477 -1.8028
   53MOL0     H 7100   7.663   8.034   5.479  1.5880  2.3455  4.9041
   53MOL0     H 7101   7.689   7.871   5.517  0.1798 -1.6198 -2.5005
   53MOL0     H 7102   7.892   7.927   5.637  2.7690  1.4578  0.5809
   53MOL0     H 7103   7.863   8.100   5.593 -0.6972 -0.6681 -0.3749
   53MOL0     H 7104   7.652   7.937   5.762  0.5449 -0.4913 -0.3271
   53MOL0     H 7105   7.657   8.103   5.708  1.1647  0.5837 -3.7445
   53MOL0     H 7106   7.625   8.191   5.946 -0.6407 -0.4815  1.2697
   53MOL0     H 7107   7.715   8.310   6.189 -0.0848 -0.2074  1.0077
   53MOL0     H 7108   7.800   8.193   6.268 -2.4400 -0.1567 -0.4042
   53MOL0     H 7109   7.950   8.392   6.099 -5.9222  0.3991 -1.4428
   53MOL0     H 7110   8.012   8.301   6.236 -2.5894 -0.3655  0.6519
   53MOL0     H 7111   7.840   8.536   6.234  2.8956  0.0888 -1.9181
   53MOL0     H 7112   8.003   8.519   6.311 -0.1308  0.5530  1.2145
   53MOL0     H 7113   7.746   8.398   6.406 -2.2697  4.3001  1.8593
   53MOL0     H 7114   7.826   8.524   6.485 -3.1564 -1.4432  0.7697
   53MOL0     H 7115   7.667   8.329   6.603  1.4691  0.4812 -2.2492
   53MOL0     H 7116   7.508   8.300   6.735  0.4764  0.2115  1.1012
   53MOL0     H 7117   7.512   8.178   6.861 -2.9675  0.8584 -0.3305
   53MOL0     H 7118   7.531   8.349   6.906 -1.3774  1.3498 -0.3495
   53MOL0     H 7119   7.775   7.952   7.183 -1.2891  2.3451 -0.6158
   53MOL0     H 7120   7.799   7.839   7.402  2.1219 -2.1313  0.7878
   53MOL0     H 7121   7.883   7.731   7.592  1.3877  0.3599  0.7121
   53MOL0     H 7122   7.972   7.764   7.732 -2.3534 -0.0794  1.4233
   53MOL0     H 7123   7.753   7.940   7.618 -2.0964 -2.4799  0.1676
   53MOL0     H 7124   7.725   7.837   7.746  1.3139 -3.4269 -1.4450
   53MOL0     H 7125   7.939   8.070   7.747  0.9351  0.7693  1.3305
   53MOL0     H 7126   7.912   7.982   7.889  0.2215  1.2393  0.7523
   53MOL0     H 7127   7.680   8.123   7.747 -1.5099  1.0861  0.1950
   53MOL0     H 7128   7.679   8.040   7.905  0.4501  0.7965  0.3479
   53MOL0     H 7129   7.850   8.284   7.836 -3.2915 -0.1653 -3.2116
   53MOL0     H 7130   7.815   8.203   7.993 -0.8324 -1.5997  0.4007
   53MOL0     H 7131   7.612   8.353   7.798  0.3079  0.3649 -0.9109
   53MOL0     H 7132   7.560   8.291   7.954  0.3007 -2.2854  0.6085
   53MOL0     H 7133   7.758   8.509   7.908 -2.1604 -1.4045 -4.5952
   53MOL0     H 7134   7.757   8.443   8.065  0.4857  1.4284  0.1915
   53MOL0     H 7135   7.599   8.624   8.092  1.7670  0.8419 -2.9031
   53MOL0     H 7136   7.494   8.485   8.063  3.6761 -3.2836  0.9682
   53MOL0     H 7137   8.153   8.069   7.471  1.0421 -2.0645 -1.0220
   53MOL0     H 7138   8.110   8.190   7.276  1.2159 -0.2328  0.9011
   53MOL0     H 7139   8.011   8.162   6.899 -2.4789 -0.9920  0.6031
   53MOL0     H 7140   8.090   8.264   6.682  0.8064  0.4205 -0.0473
   53MOL0     H 7141   8.409   8.062   5.034  1.1411  0.7580  0.1066
   53MOL0     H 7142   8.531   7.951   4.880  1.7012  0.8621 -0.7884
   53MOL0     H 7143   8.428   7.518   4.522  0.7206  0.8782  2.0644
   53MOL0     H 7144   8.590   7.374   4.402  1.0113 -0.3889  2.5120
   53MOL0     H 7145   8.896   7.569   4.141 -3.3844 -3.1509 -1.4355
   53MOL0     H 7146   8.992   7.548   4.300  0.6583 -2.4642  0.9561
   53MOL0     H 7147   9.034   7.310   4.217  0.9769 -2.1757 -2.0456
   53MOL0     H 7148   9.101   7.431   4.119 -1.0811  3.6440  1.7414
   53MOL0     H 7149   8.951   7.401   3.944 -0.1202  1.0623  0.9844
   53MOL0     H 7150   8.816   7.345   4.055  0.2210  0.7512  1.3840
   53MOL0     H 7151   8.909   7.145   3.918  1.8098 -1.3138 -0.3949
   53MOL0     H 7152   8.906   7.126   4.089 -1.4770 -2.8231 -2.7871
   53MOL0     H 7153   9.324   7.160   3.990  0.2869  1.0930  1.2772
   53MOL0     H 7154   8.863   7.694   4.366  0.3796 -0.9923  0.0420
   53MOL0     H 7155   8.713   7.837   4.525  0.4267  0.5716 -2.6931
   54MOL0     O 7156   0.088   2.470   4.873  0.0001  0.7876  0.2565
   54MOL0     C 7157   0.040   2.499   4.983  0.4867 -0.8396 -0.1995
   54MOL0     O 7158   0.106   2.537   5.098  0.5547 -0.0990 -0.0624
   54MOL0     C 7159   0.244   2.527   5.092  0.5803  0.3856 -0.3066
   54MOL0     C 7160   0.306   2.412   5.058  0.4532 -0.0285  0.6547
   54MOL0     C 7161   0.447   2.414   5.050  0.1563  0.4291 -0.1502
   54MOL0     C 7162   0.524   2.524   5.080 -0.5816 -0.3858  0.4566
   54MOL0     O 7163   0.664   2.512   5.081 -0.2364 -0.1719  0.4625
   54MOL0     C 7164   0.726   2.594   5.180  0.2749  0.4266 -0.0698
   54MOL0     C 7165   0.875   2.571   5.170  0.7597 -0.0300 -0.1635
   54MOL0     C 7166   0.948   2.670   5.264  0.5087  0.3910  0.0600
   54MOL0     C 7167   1.102   2.645   5.253  0.0218  0.0421  0.4165
   54MOL0     C 7168   1.159   2.517   5.298 -0.0895  0.1973 -0.3939
   54MOL0     C 7169   1.309   2.524   5.269 -0.1267  0.5279 -0.2157
   54MOL0     C 7170   1.378   2.402   5.328 -0.0384 -0.7072  0.8319
   54MOL0     C 7171   1.517   2.377   5.285  0.3978  0.0364 -0.4955
   54MOL0     N 7172   1.536   2.235   5.260 -0.5918  0.6060  0.5840
   54MOL0     C 7173   1.624   2.161   5.323 -0.2620 -0.9833  0.0004
   54MOL0     C 7174   1.638   2.045   5.259 -0.5851  0.7480 -0.1552
   54MOL0     C 7175   1.688   1.916   5.319  0.5968 -0.2730 -0.9664
   54MOL0     C 7176   1.602   1.879   5.454  0.6153  0.4030  0.7130
   54MOL0     C 7177   1.687   1.843   5.578  0.0298  0.3229  0.4092
   54MOL0     C 7178   1.598   1.782   5.684 -0.1625  0.6943 -0.3340
   54MOL0     O 7179   1.534   1.661   5.657  0.7010  0.5144  0.3737
   54MOL0     C 7180   1.414   1.644   5.719  0.6733  0.2619 -0.4963
   54MOL0     C 7181   1.385   1.531   5.795  0.2737  0.4798  0.1575
   54MOL0     C 7182   1.266   1.512   5.870 -0.3192  0.4194 -0.6313
   54MOL0     C 7183   1.258   1.387   5.949  0.6376 -0.5615 -0.7266
   54MOL0     C 7184   1.177   1.618   5.861  0.3040  0.5807  0.4571
   54MOL0     C 7185   1.053   1.623   5.938 -0.1737  0.2916 -1.4652
   54MOL0     O 7186   0.984   1.505   5.956  0.1341  0.6768  0.3564
   54MOL0     C 7187   0.854   1.480   5.990 -1.0145 -0.2468  0.0793
   54MOL0     C 7188   0.753   1.575   5.992  0.1765 -0.2437  0.7252
   54MOL0     C 7189   0.623   1.549   6.032 -0.2593  0.8221  0.6229
   54MOL0     C 7190   0.594   1.425   6.100  0.6129  0.0200  0.1321
   54MOL0     O 7191   0.467   1.400   6.155  0.2116 -0.6328 -0.1360
   54MOL0     C 7192   0.458   1.342   6.283 -0.1898 -0.4002 -0.6490
   54MOL0     C 7193   0.330   1.267   6.310 -0.2343 -0.9368 -0.0626
   54MOL0     C 7194   0.196   1.337   6.305 -0.3419  0.2640  0.5968
   54MOL0     C 7195   0.082   1.242   6.294 -1.5988  0.7381 -0.0726
   54MOL0     C 7196  -0.064   1.301   6.293 -0.3660  0.1376 -0.4607
   54MOL0     C 7197  -0.099   1.394   6.406 -0.6192 -0.3926  0.4462
   54MOL0     C 7198  -0.240   1.433   6.396  0.6919 -0.6975 -0.9752
   54MOL0     C 7199  -0.268   1.535   6.507 -0.6874 -0.3342 -0.6432
   54MOL0    Cl 7200  -0.442   1.538   6.514  0.4088  0.3926  0.5398
   54MOL0     C 7201   0.697   1.332   6.108 -1.1982  0.5810  0.1821
   54MOL0     C 7202   0.822   1.354   6.041 -0.9080 -0.0454  0.3439
   54MOL0     O 7203   1.011   1.732   5.982  0.2588  0.0581 -0.1047
   54MOL0     C 7204   1.193   1.736   5.773 -0.5360  0.9369 -0.8586
   54MOL0     C 7205   1.307   1.734   5.696 -0.2686  0.6175  0.8668
   54MOL0     N 7206   1.567   2.054   5.149  0.8496  0.0601 -0.1295
   54MOL0     N 7207   1.502   2.166   5.150  0.0132 -0.3612  0.3260
   54MOL0     C 7208   0.459   2.641   5.109 -0.4459 -0.0580  0.4297
   54MOL0     C 7209   0.324   2.641   5.114  0.1024 -0.5837  0.1778
   54MOL0     C 7210  -0.102   2.482   4.992  0.5715 -0.2702 -0.0345
   54MOL0     C 7211  -0.166   2.360   4.958 -0.0169 -0.3173 -1.4786
   54MOL0     C 7212  -0.308   2.361   4.976  0.8269  0.4159  0.3240
   54MOL0     C 7213  -0.384   2.464   5.016  0.1454 -0.5115 -0.5071
   54MOL0     O 7214  -0.519   2.446   5.007  0.0392  0.2597  0.1965
   54MOL0     C 7215  -0.600   2.557   4.971  0.6559  0.0445  0.4376
   54MOL0     C 7216  -0.724   2.536   5.053  0.2708 -0.4108 -0.0161
   54MOL0     C 7217  -0.843   2.616   4.995  1.4212  0.2564 -0.5933
   54MOL0     C 7218  -0.953   2.626   5.108  0.0306 -0.5557 -0.2115
   54MOL0     C 7219  -1.082   2.661   5.038 -0.5829  0.2088 -0.8965
   54MOL0     C 7220  -1.186   2.686   4.985  0.9394  0.3957 -1.2355
   54MOL0     C 7221  -0.314   2.580   5.061 -0.2725  0.9559 -0.0579
   54MOL0     C 7222  -0.169   2.583   5.058  0.2556 -0.8064  0.7473
   54MOL0     H 7223   0.243   2.326   5.037  2.8519 -3.4655  5.7259
   54MOL0     H 7224   0.507   2.333   5.009 -0.9596 -0.3474 -0.3033
   54MOL0     H 7225   0.704   2.697   5.152  0.5412  0.2697 -0.8733
   54MOL0     H 7226   0.697   2.558   5.279  1.2585 -0.9195 -0.2355
   54MOL0     H 7227   0.902   2.466   5.188  0.3193 -0.4118 -1.5968
   54MOL0     H 7228   0.898   2.593   5.065  0.5817  0.7853 -0.0368
   54MOL0     H 7229   0.924   2.772   5.233 -0.0439  0.3774  0.4466
   54MOL0     H 7230   0.913   2.649   5.365  3.8109  0.7690  1.4326
   54MOL0     H 7231   1.125   2.633   5.147 -2.9419 -4.4000 -0.0341
   54MOL0     H 7232   1.165   2.726   5.290  2.6370 -1.2169 -1.0544
   54MOL0     H 7233   1.128   2.503   5.402  1.3882 -3.9352 -0.3394
   54MOL0     H 7234   1.106   2.434   5.250  0.5043 -0.2908 -0.2140
   54MOL0     H 7235   1.329   2.523   5.162  0.4726 -4.8137 -0.3572
   54MOL0     H 7236   1.356   2.614   5.309 -0.3219  0.7577 -0.4967
   54MOL0     H 7237   1.369   2.402   5.437 -1.0411 -0.2117  0.7627
   54MOL0     H 7238   1.320   2.315   5.295 -2.9553  2.5597 -3.8139
   54MOL0     H 7239   1.570   2.414   5.373 -0.9861  0.1418  0.3265
   54MOL0     H 7240   1.550   2.437   5.199 -1.0235  3.5790  1.2905
   54MOL0     H 7241   1.668   2.188   5.419  0.0123 -0.4508 -0.2737
   54MOL0     H 7242   1.688   1.835   5.245  1.5191  2.7489 -4.5827
   54MOL0     H 7243   1.793   1.930   5.346 -0.1111  0.0857  1.9192
   54MOL0     H 7244   1.540   1.795   5.420  4.6095 -1.6743 -2.3386
   54MOL0     H 7245   1.556   1.974   5.479  5.1650  3.3865 -0.9461
   54MOL0     H 7246   1.731   1.933   5.623  1.4872 -0.8580  1.4710
   54MOL0     H 7247   1.764   1.767   5.559  1.1927  1.1741  1.5129
   54MOL0     H 7248   1.527   1.855   5.725 -3.0740 -0.1425 -3.4332
   54MOL0     H 7249   1.672   1.752   5.759 -0.4459  1.2689  0.1820
   54MOL0     H 7250   1.462   1.454   5.796  0.3753  0.3364 -3.8981
   54MOL0     H 7251   1.356   1.350   5.980 -0.5225 -2.4923  0.8476
   54MOL0     H 7252   1.203   1.404   6.042  3.7895 -1.9482  1.5650
   54MOL0     H 7253   1.203   1.319   5.883 -0.5911  0.3176 -0.6509
   54MOL0     H 7254   0.777   1.669   5.943 -0.3808 -0.4132  0.1047
   54MOL0     H 7255   0.541   1.617   6.010 -1.0359 -0.3940 -0.3560
   54MOL0     H 7256   0.540   1.271   6.298  0.3272 -0.0186 -1.5631
   54MOL0     H 7257   0.489   1.416   6.357  0.0189  0.0374 -1.1663
   54MOL0     H 7258   0.325   1.172   6.256 -1.6895 -1.0597  0.2329
   54MOL0     H 7259   0.336   1.234   6.414 -2.1212 -1.3144 -0.0288
   54MOL0     H 7260   0.173   1.392   6.213  1.5114  1.7150  0.9405
   54MOL0     H 7261   0.187   1.397   6.396  2.5742 -0.4649  1.4933
   54MOL0     H 7262   0.091   1.185   6.201  0.7658  0.7954  0.0645
   54MOL0     H 7263   0.095   1.173   6.378  1.2926  1.3296  0.0554
   54MOL0     H 7264  -0.137   1.220   6.300  0.4840 -0.5385  0.9088
   54MOL0     H 7265  -0.073   1.373   6.211  0.4752  1.9549  0.9653
   54MOL0     H 7266  -0.079   1.349   6.503  0.0877 -0.0285  0.4824
   54MOL0     H 7267  -0.038   1.485   6.398  0.3957 -1.1286 -0.7923
   54MOL0     H 7268  -0.312   1.351   6.396 -0.4431  0.2220  0.9265
   54MOL0     H 7269  -0.258   1.490   6.305  1.8596  0.4304 -0.5246
   54MOL0     H 7270  -0.221   1.631   6.484  0.9131 -0.1311  2.7700
   54MOL0     H 7271  -0.235   1.499   6.605  0.1678 -0.4164 -0.9459
   54MOL0     H 7272   0.681   1.234   6.153  2.6353 -0.4733 -0.3894
   54MOL0     H 7273   0.901   1.279   6.037 -0.8813  0.0284 -0.6752
   54MOL0     H 7274   1.116   1.812   5.772 -2.4917 -0.5198  4.4614
   54MOL0     H 7275   1.313   1.818   5.627 -1.4652 -0.5586 -0.7653
   54MOL0     H 7276   0.500   2.739   5.130  0.0156 -0.8187  3.6472
   54MOL0     H 7277   0.266   2.732   5.130  0.9675 -0.1143  0.7020
   54MOL0     H 7278  -0.104   2.278   4.922 -0.6283 -1.6039  0.2654
   54MOL0     H 7279  -0.358   2.265   4.964  0.8611  0.6854 -2.6573
   54MOL0     H 7280  -0.568   2.655   5.009 -2.6322  0.5618  2.3301
   54MOL0     H 7281  -0.625   2.554   4.865  5.6758 -0.1974 -1.0034
   54MOL0     H 7282  -0.717   2.581   5.152  1.2240  3.5482 -1.6575
   54MOL0     H 7283  -0.756   2.432   5.055 -0.1275 -0.3428  4.0428
   54MOL0     H 7284  -0.877   2.570   4.902 -0.0546  2.6836 -1.3558
   54MOL0     H 7285  -0.807   2.714   4.961 -3.8296  1.8541 -2.5421
   54MOL0     H 7286  -0.932   2.701   5.184  0.9565  0.4144 -1.3785
   54MOL0     H 7287  -0.951   2.529   5.158 -0.9173  0.8090  2.6417
   54MOL0     H 7288  -1.281   2.727   4.957 -0.2162 -0.2257  1.4648
   54MOL0     H 7289  -0.378   2.660   5.095  0.2540  0.7064  1.6001
   54MOL0     H 7290  -0.112   2.671   5.087 -0.8208 -1.0958  4.1265
   55MOL0     O 7291   4.222   0.764   9.632  0.0019 -0.1402 -0.6107
   55MOL0     C 7292   4.200   0.780   9.749 -0.1118  0.0410 -0.0656
   55MOL0     O 7293   4.188   0.903   9.810  0.1504 -0.4390  0.0052
   55MOL0     C 7294   4.200   1.024   9.750 -0.8393  0.2380  0.4913
   55MOL0     C 7295   4.133   1.142   9.792  0.1156  0.2645  0.2340
   55MOL0     C 7296   4.133   1.263   9.716  0.6934  0.8065  0.1359
   55MOL0     C 7297   4.212   1.275   9.597 -0.5426  0.6950  0.1409
   55MOL0     O 7298   4.215   1.393   9.523 -0.0864  0.1129 -0.4466
   55MOL0     C 7299   4.125   1.389   9.404 -0.6184  0.2881 -0.4162
   55MOL0     C 7300   4.156   1.278   9.305 -0.1205  0.6603  0.7921
   55MOL0     C 7301   4.040   1.260   9.207  0.2421  0.6293  0.0925
   55MOL0     C 7302   4.065   1.193   9.070 -0.2853 -0.2490 -0.9323
   55MOL0     C 7303   3.961   1.182   8.963  0.3441  0.2767 -0.3202
   55MOL0     C 7304   3.823   1.147   9.017  0.1671 -1.3017 -0.0227
   55MOL0     C 7305   3.717   1.128   8.913 -0.8491 -0.8432  0.3339
   55MOL0     C 7306   3.751   1.017   8.796 -0.2125  0.5643 -0.8219
   55MOL0     N 7307   3.644   0.996   8.706 -0.4176 -0.4357  0.9277
   55MOL0     C 7308   3.612   1.079   8.602 -0.7433  0.3375  0.4193
   55MOL0     C 7309   3.551   0.997   8.509  0.6651 -0.1710 -0.2429
   55MOL0     C 7310   3.502   1.043   8.375 -0.2293 -0.6670 -0.1540
   55MOL0     C 7311   3.366   1.097   8.363  0.8422 -0.5590 -0.5348
   55MOL0     C 7312   3.261   1.033   8.451  1.0609 -0.4973 -0.3304
   55MOL0     C 7313   3.136   1.107   8.442  0.0589  0.1783 -0.9040
   55MOL0     O 7314   3.028   1.008   8.447 -0.4551  0.1162  0.0813
   55MOL0     C 7315   2.898   1.049   8.420  0.9783  0.2298  0.2561
   55MOL0     C 7316   2.819   0.955   8.348 -0.2433  0.1957  0.2467
   55MOL0     C 7317   2.684   0.989   8.303  0.4772  1.1069  0.1480
   55MOL0     C 7318   2.615   0.878   8.233 -0.3137 -1.2899 -0.9763
   55MOL0     C 7319   2.628   1.112   8.329 -0.5970 -0.2729 -0.7393
   55MOL0     C 7320   2.493   1.149   8.289  0.3128  0.3561  0.3778
   55MOL0     O 7321   2.406   1.064   8.227 -0.4072 -0.2498 -0.6293
   55MOL0     C 7322   2.316   1.104   8.139 -0.1866  0.0212  1.0418
   55MOL0     C 7323   2.352   1.178   8.028  0.3687  0.6470 -0.0994
   55MOL0     C 7324   2.266   1.197   7.927 -0.5085 -0.4504 -0.3486
   55MOL0     C 7325   2.136   1.168   7.943 -0.4529  0.3444 -0.0929
   55MOL0     O 7326   2.054   1.206   7.840  0.2072  0.9796  0.0135
   55MOL0     C 7327   1.970   1.321   7.879 -0.1065 -0.8117 -0.5991
   55MOL0     C 7328   1.862   1.339   7.782 -0.4387 -0.2311  0.2490
   55MOL0     C 7329   1.762   1.449   7.836 -1.0730 -0.3582  0.3180
   55MOL0     C 7330   1.824   1.593   7.850 -0.9696  0.5092  0.1224
   55MOL0     C 7331   1.742   1.693   7.941  0.2250 -0.1798 -0.3437
   55MOL0     C 7332   1.838   1.827   7.971 -1.0665  0.3739 -0.2302
   55MOL0     C 7333   1.760   1.952   8.006 -0.4115 -0.3825 -0.3388
   55MOL0     C 7334   1.846   2.071   8.018  0.2606 -1.1129 -0.3541
   55MOL0    Cl 7335   1.934   2.076   8.173  0.4223  0.3746 -0.5209
   55MOL0     C 7336   2.085   1.095   8.055  0.2874  0.5622 -0.3116
   55MOL0     C 7337   2.186   1.062   8.151 -0.4031 -0.0416  0.0497
   55MOL0     O 7338   2.464   1.269   8.304 -0.3149 -1.1268 -0.6245
   55MOL0     C 7339   2.707   1.202   8.407  0.3514  0.7596 -0.0055
   55MOL0     C 7340   2.842   1.173   8.435  0.8361 -0.7595 -0.8948
   55MOL0     N 7341   3.519   0.880   8.562  0.1550 -0.2456  0.0866
   55MOL0     N 7342   3.580   0.879   8.680 -1.2595  1.2776 -0.9719
   55MOL0     C 7343   4.302   1.175   9.575 -0.3506 -0.0900  0.3922
   55MOL0     C 7344   4.288   1.052   9.642 -0.1492  0.4859 -0.3346
   55MOL0     C 7345   4.190   0.659   9.835 -0.1652  1.0602  0.9289
   55MOL0     C 7346   4.146   0.531   9.777  0.1344 -0.3111  0.6821
   55MOL0     C 7347   4.098   0.426   9.854 -0.1956 -0.1437  0.6814
   55MOL0     C 7348   4.088   0.440   9.990  0.4989 -0.1321 -0.9642
   55MOL0     O 7349   4.028   0.356  10.083 -0.2193 -0.4709 -0.2170
   55MOL0     C 7350   3.975   0.234  10.038 -0.7994  1.3893  0.4803
   55MOL0     C 7351   4.080   0.120  10.044  0.2659  0.9972  0.4923
   55MOL0     C 7352   4.014  -0.017  10.047 -0.1661  1.0317 -0.5810
   55MOL0     C 7353   4.104  -0.124  10.128  0.1327 -1.5585  0.5210
   55MOL0     C 7354   4.032  -0.249  10.150  0.3958  0.7770  0.2849
   55MOL0     C 7355   3.977  -0.354  10.167 -0.0268 -0.5008 -0.1845
   55MOL0     C 7356   4.151   0.553  10.043  0.5771 -0.4719  0.2975
   55MOL0     C 7357   4.206   0.663   9.972  0.3919  0.4686  0.1490
   55MOL0     H 7358   4.067   1.129   9.877 -0.1180  0.8075  0.1420
   55MOL0     H 7359   4.090   1.355   9.754 -0.5065  0.6207 -0.6915
   55MOL0     H 7360   4.023   1.386   9.442 -0.2326  4.7724  1.5144
   55MOL0     H 7361   4.130   1.489   9.360 -1.2807  0.3910 -0.2637
   55MOL0     H 7362   4.241   1.299   9.241 -1.3016 -0.0108 -1.0910
   55MOL0     H 7363   4.178   1.179   9.347 -2.4589 -0.0659  0.4606
   55MOL0     H 7364   3.973   1.188   9.254 -0.0779  0.6015 -0.4090
   55MOL0     H 7365   3.984   1.353   9.190 -0.0037  0.6252  0.8582
   55MOL0     H 7366   4.148   1.244   9.021  0.8592  0.0208  1.1600
   55MOL0     H 7367   4.081   1.087   9.093  0.0426  0.7807  5.2793
   55MOL0     H 7368   3.961   1.273   8.902  1.6859  2.0012  2.0658
   55MOL0     H 7369   4.005   1.104   8.900 -1.3843 -0.4817 -0.6365
   55MOL0     H 7370   3.850   1.057   9.074  4.3656  0.5355  1.2371
   55MOL0     H 7371   3.799   1.221   9.094  3.6795 -1.1066  1.0710
   55MOL0     H 7372   3.635   1.079   8.966 -1.6452 -0.0390 -0.1411
   55MOL0     H 7373   3.701   1.228   8.871 -2.3914 -0.9415  0.6553
   55MOL0     H 7374   3.766   0.920   8.843  1.9892  1.4848  0.5435
   55MOL0     H 7375   3.850   1.028   8.751  1.0780 -1.1001  1.4469
   55MOL0     H 7376   3.625   1.181   8.567  3.7624  1.3448  4.0403
   55MOL0     H 7377   3.577   1.102   8.322  1.3160 -2.6803 -0.3388
   55MOL0     H 7378   3.496   0.948   8.320  3.7334 -0.9495 -0.4068
   55MOL0     H 7379   3.330   1.075   8.262 -2.1133  0.3865  0.2212
   55MOL0     H 7380   3.363   1.205   8.382 -0.6230 -0.5634 -0.6808
   55MOL0     H 7381   3.294   1.036   8.555  0.9039  3.7136 -0.2017
   55MOL0     H 7382   3.234   0.934   8.416 -4.9044  1.0738 -1.2644
   55MOL0     H 7383   3.130   1.150   8.341 -0.8241 -0.0017 -0.9374
   55MOL0     H 7384   3.124   1.188   8.515 -0.4169 -5.2376  5.9758
   55MOL0     H 7385   2.866   0.860   8.324 -1.5105 -0.9852  2.1733
   55MOL0     H 7386   2.528   0.839   8.287  1.1664  0.4279  3.0583
   55MOL0     H 7387   2.580   0.902   8.132 -3.5724  0.1790  0.3292
   55MOL0     H 7388   2.681   0.791   8.229  0.9677 -0.3923  0.0244
   55MOL0     H 7389   2.457   1.206   8.021 -0.1358  2.6999 -0.0114
   55MOL0     H 7390   2.302   1.255   7.843  2.3992  0.7357  1.5887
   55MOL0     H 7391   1.930   1.302   7.979 -2.1563  2.0192 -0.7831
   55MOL0     H 7392   2.038   1.407   7.874  0.8260 -1.4557  0.4481
   55MOL0     H 7393   1.903   1.371   7.686 -0.9378 -0.1551  0.0588
   55MOL0     H 7394   1.807   1.246   7.766 -4.5565  2.0335 -0.3408
   55MOL0     H 7395   1.730   1.434   7.939 -1.1705  3.3793  0.9906
   55MOL0     H 7396   1.666   1.452   7.784 -0.9928  1.0864  0.1954
   55MOL0     H 7397   1.924   1.592   7.893 -0.8325  3.2653  0.0344
   55MOL0     H 7398   1.852   1.645   7.758  1.9463  1.9174  1.6642
   55MOL0     H 7399   1.727   1.647   8.039 -2.2943  3.2120  1.0741
   55MOL0     H 7400   1.647   1.724   7.896  0.3360  2.2597  0.9446
   55MOL0     H 7401   1.913   1.802   8.047 -2.2438  0.8610  1.1285
   55MOL0     H 7402   1.899   1.847   7.882 -0.8197  1.0495  0.0887
   55MOL0     H 7403   1.720   1.934   8.106 -2.1318 -0.6581 -1.0476
   55MOL0     H 7404   1.683   1.966   7.930  1.4707  2.0108 -1.9628
   55MOL0     H 7405   1.785   2.161   8.008  2.1437  0.1340 -1.1604
   55MOL0     H 7406   1.913   2.079   7.932  0.7806 -1.7273 -0.0138
   55MOL0     H 7407   1.981   1.068   8.062  0.2707  0.0478 -2.0468
   55MOL0     H 7408   2.153   1.006   8.238 -1.6993  1.8340  0.8426
   55MOL0     H 7409   2.661   1.296   8.438 -0.4918  1.0716 -2.0636
   55MOL0     H 7410   2.891   1.257   8.483 -0.6475  1.0554 -2.4270
   55MOL0     H 7411   4.373   1.179   9.494 -0.0911  2.3239  0.6674
   55MOL0     H 7412   4.358   0.977   9.608 -0.2329 -0.1632  0.8458
   55MOL0     H 7413   4.138   0.526   9.669  2.1417 -0.3943  0.4899
   55MOL0     H 7414   4.068   0.337   9.801 -0.6847  0.4352 -0.0304
   55MOL0     H 7415   3.899   0.215  10.114  0.3680 -0.2450  1.3113
   55MOL0     H 7416   3.923   0.238   9.941  0.0739 -3.6316 -0.5077
   55MOL0     H 7417   4.131   0.122  10.141 -1.6000 -1.2263  1.6350
   55MOL0     H 7418   4.140   0.127   9.953 -2.3884 -4.0210 -2.0885
   55MOL0     H 7419   4.024  -0.057   9.946  2.4544  3.1307 -1.2646
   55MOL0     H 7420   3.911  -0.032  10.080  0.7734 -3.4974  1.0482
   55MOL0     H 7421   4.125  -0.078  10.225 -3.5384  1.7825 -0.0126
   55MOL0     H 7422   4.197  -0.143  10.074  1.4513 -0.6078  2.3719
   55MOL0     H 7423   3.936  -0.449  10.193 -1.1311 -0.0014 -0.0128
   55MOL0     H 7424   4.143   0.571  10.150 -0.6014  0.4539  0.0748
   55MOL0     H 7425   4.249   0.752  10.016  0.6043  0.0927  0.7175
   56MOL0     O 7426   2.413   2.282   1.469  0.1865  0.0960 -0.4999
   56MOL0     C 7427   2.473   2.350   1.397 -0.4036  0.2274  0.4004
   56MOL0     O 7428   2.599   2.315   1.345 -0.1183 -0.3978 -0.7435
   56MOL0     C 7429   2.648   2.191   1.330 -0.1404  0.0184 -0.1718
   56MOL0     C 7430   2.717   2.166   1.206  0.5411  0.4730 -0.7169
   56MOL0     C 7431   2.767   2.037   1.179  0.6968 -0.5122 -0.0372
   56MOL0     C 7432   2.759   1.936   1.281  0.1993 -0.7320 -0.0907
   56MOL0     O 7433   2.773   1.804   1.250  0.3543  0.5761  1.1827
   56MOL0     C 7434   2.909   1.754   1.278 -0.1445 -0.3800  0.3372
   56MOL0     C 7435   2.908   1.623   1.374  0.3293 -0.3424  0.9985
   56MOL0     C 7436   2.841   1.497   1.302 -0.2804  0.2716  0.1686
   56MOL0     C 7437   2.870   1.384   1.395 -0.2768 -0.9590 -0.5850
   56MOL0     C 7438   2.850   1.251   1.328  0.6962 -0.0927 -0.9632
   56MOL0     C 7439   2.843   1.140   1.443 -1.1034 -0.2530 -0.2311
   56MOL0     C 7440   2.828   1.003   1.371 -0.1840 -0.3492 -0.1606
   56MOL0     C 7441   2.683   0.966   1.358 -0.1372  0.1518 -0.6179
   56MOL0     N 7442   2.670   0.834   1.300 -0.2059  0.5998  0.3361
   56MOL0     C 7443   2.561   0.788   1.230  0.5599  0.4121 -0.2572
   56MOL0     C 7444   2.576   0.656   1.204 -0.0648  0.7368  0.8276
   56MOL0     C 7445   2.471   0.562   1.157  0.4219  0.1155  0.1864
   56MOL0     C 7446   2.526   0.444   1.087 -0.2093 -0.0222  0.0431
   56MOL0     C 7447   2.540   0.459   0.931  0.1058 -0.3066 -0.0179
   56MOL0     C 7448   2.611   0.341   0.868 -0.5777 -0.1612 -0.1052
   56MOL0     O 7449   2.654   0.341   0.730  0.3886  0.3636  0.4606
   56MOL0     C 7450   2.719   0.442   0.672 -0.2759  0.0629 -0.7002
   56MOL0     C 7451   2.802   0.524   0.749 -0.1310  0.3066  0.5403
   56MOL0     C 7452   2.858   0.638   0.692  1.3100 -0.3934  0.1831
   56MOL0     C 7453   2.931   0.725   0.783 -0.1229  1.1905 -0.5571
   56MOL0     C 7454   2.828   0.674   0.558 -0.5145 -0.0389  0.8520
   56MOL0     C 7455   2.876   0.796   0.479 -0.5890  0.0855 -0.3194
   56MOL0     O 7456   2.927   0.897   0.551  0.2709 -0.1463  0.5067
   56MOL0     C 7457   2.957   1.014   0.494  0.4751  0.1047  1.0102
   56MOL0     C 7458   2.855   1.089   0.434 -0.0116 -0.3996 -0.9003
   56MOL0     C 7459   2.879   1.216   0.385  0.1986 -0.1307  1.3596
   56MOL0     C 7460   3.005   1.273   0.403 -0.7667  0.7009 -0.3692
   56MOL0     O 7461   3.044   1.399   0.365  0.5802 -0.4196  1.2856
   56MOL0     C 7462   2.956   1.517   0.367 -0.0378  0.6767 -0.1080
   56MOL0     C 7463   3.014   1.615   0.265  0.4717  0.7335 -1.4705
   56MOL0     C 7464   2.938   1.744   0.259 -0.2030 -0.4418  0.1748
   56MOL0     C 7465   3.017   1.846   0.174 -0.5942  0.2989  1.0762
   56MOL0     C 7466   2.944   1.980   0.164  0.3813 -0.0618  0.0664
   56MOL0     C 7467   2.978   2.076   0.051 -0.2421  0.2475  0.9373
   56MOL0     C 7468   3.130   2.106   0.022  0.2118  0.4490 -0.0152
   56MOL0     C 7469   3.133   2.248  -0.050  1.1257  0.4982  0.6815
   56MOL0    Cl 7470   3.304   2.271  -0.085  0.6808 -0.1040 -0.0502
   56MOL0     C 7471   3.110   1.186   0.448 -0.0607  0.3428 -0.3111
   56MOL0     C 7472   3.087   1.053   0.492 -0.4659 -0.5306 -0.5713
   56MOL0     O 7473   2.865   0.793   0.354 -0.3463 -0.2167 -0.7356
   56MOL0     C 7474   2.755   0.577   0.479 -0.4143 -0.7245 -0.8817
   56MOL0     C 7475   2.700   0.470   0.540 -1.1714  0.0065  0.0459
   56MOL0     N 7476   2.690   0.622   1.267 -0.3789 -0.2026 -0.5020
   56MOL0     N 7477   2.752   0.729   1.313  0.1147 -0.4201  0.3718
   56MOL0     C 7478   2.701   1.975   1.406 -0.2817  0.3136 -0.1978
   56MOL0     C 7479   2.653   2.098   1.430 -0.4846  0.3348 -0.3551
   56MOL0     C 7480   2.426   2.481   1.369 -0.2496 -0.5771  0.3947
   56MOL0     C 7481   2.304   2.537   1.424  1.3919 -0.2186  0.5779
   56MOL0     C 7482   2.269   2.656   1.392 -0.2077 -0.2185  0.3771
   56MOL0     C 7483   2.340   2.741   1.308 -0.1586  0.2649  0.6994
   56MOL0     O 7484   2.310   2.871   1.308 -0.4233 -0.0463  0.3193
   56MOL0     C 7485   2.418   2.965   1.306 -0.5710  0.3100 -1.2304
   56MOL0     C 7486   2.365   3.107   1.331 -0.1144 -0.5278  0.0777
   56MOL0     C 7487   2.248   3.145   1.223 -0.3200 -0.0965  0.0591
   56MOL0     C 7488   2.181   3.288   1.243  0.1859 -0.9725 -0.3887
   56MOL0     C 7489   2.097   3.320   1.133 -0.1600  0.5556 -0.5642
   56MOL0     C 7490   2.026   3.368   1.044 -0.9536  0.6495 -0.5494
   56MOL0     C 7491   2.444   2.686   1.236  0.8575 -0.0392  0.2470
   56MOL0     C 7492   2.493   2.557   1.269 -0.3366 -1.2037 -0.4804
   56MOL0     H 7493   2.712   2.250   1.137 -2.4355 -0.4868 -1.8342
   56MOL0     H 7494   2.808   2.003   1.085  0.8912 -0.2437 -0.0502
   56MOL0     H 7495   2.951   1.734   1.179 -0.0461 -1.7112  0.6364
   56MOL0     H 7496   2.978   1.824   1.327  1.6063 -0.2592 -2.0716
   56MOL0     H 7497   3.004   1.601   1.423 -0.9744  0.3860  4.1221
   56MOL0     H 7498   2.846   1.659   1.456  0.9966 -1.2539  1.9292
   56MOL0     H 7499   2.739   1.515   1.268  0.7414  0.3815 -3.2069
   56MOL0     H 7500   2.887   1.480   1.204 -1.8685  1.1065 -0.7620
   56MOL0     H 7501   2.975   1.404   1.419 -0.7780  1.9564 -0.3845
   56MOL0     H 7502   2.812   1.409   1.484 -3.7943 -1.7498 -2.4819
   56MOL0     H 7503   2.757   1.248   1.270  1.3820 -0.4417 -2.0615
   56MOL0     H 7504   2.933   1.233   1.259  1.4316  2.7175 -0.9380
   56MOL0     H 7505   2.941   1.144   1.492 -0.8486  4.1470 -0.6787
   56MOL0     H 7506   2.765   1.169   1.514  0.9821  0.5051  1.8929
   56MOL0     H 7507   2.877   0.997   1.273  0.9414 -2.2195  0.4548
   56MOL0     H 7508   2.861   0.922   1.436  1.6684  0.5549  0.0877
   56MOL0     H 7509   2.624   1.029   1.291 -1.2101 -1.0530 -0.8459
   56MOL0     H 7510   2.642   0.953   1.459  0.0875 -1.6675 -0.7147
   56MOL0     H 7511   2.478   0.853   1.203  1.5827  2.5204  1.3761
   56MOL0     H 7512   2.416   0.535   1.247  0.1175 -0.1550 -0.0833
   56MOL0     H 7513   2.397   0.616   1.097  0.8524  1.2562  0.6489
   56MOL0     H 7514   2.468   0.353   1.105  1.6493 -0.8600  2.3700
   56MOL0     H 7515   2.627   0.422   1.126 -1.1998 -3.0802  1.2253
   56MOL0     H 7516   2.605   0.547   0.922  0.4359 -0.3788  1.4917
   56MOL0     H 7517   2.447   0.490   0.881  0.3917  2.1822  0.8621
   56MOL0     H 7518   2.550   0.252   0.886  1.0268 -1.4685 -0.8089
   56MOL0     H 7519   2.700   0.332   0.930 -1.1922  1.0859  1.0099
   56MOL0     H 7520   2.834   0.492   0.848  0.0438 -1.4632 -0.0437
   56MOL0     H 7521   3.020   0.773   0.742  1.9736 -2.6639 -0.9323
   56MOL0     H 7522   2.861   0.796   0.829 -0.7663  0.2097  0.0081
   56MOL0     H 7523   2.980   0.664   0.860 -0.4914  0.1013 -1.1721
   56MOL0     H 7524   2.764   1.035   0.411 -1.3494 -0.0952  2.9007
   56MOL0     H 7525   2.802   1.269   0.329 -1.5119 -1.5221  2.2734
   56MOL0     H 7526   2.858   1.502   0.321 -1.4904  2.5672  2.1441
   56MOL0     H 7527   2.940   1.559   0.467  0.5733 -1.1458  0.7822
   56MOL0     H 7528   3.118   1.632   0.295  0.6240 -1.9190 -0.1705
   56MOL0     H 7529   3.013   1.577   0.163 -0.9593 -1.6296 -0.6388
   56MOL0     H 7530   2.913   1.802   0.349 -0.8986 -2.0618  1.0836
   56MOL0     H 7531   2.840   1.730   0.213 -0.1573  0.4769 -0.2225
   56MOL0     H 7532   3.120   1.846   0.210  1.6238 -2.9603 -4.0924
   56MOL0     H 7533   3.024   1.827   0.066  1.0954  3.5657  0.4648
   56MOL0     H 7534   2.977   2.028   0.256  0.7246  2.7725 -1.3995
   56MOL0     H 7535   2.839   1.960   0.144  0.7326  0.2264 -2.5520
   56MOL0     H 7536   2.919   2.059  -0.040  2.6503  0.1950 -1.0718
   56MOL0     H 7537   2.944   2.176   0.078 -0.4212 -0.2026  2.4697
   56MOL0     H 7538   3.162   2.027  -0.046  2.6236  1.1027  0.2771
   56MOL0     H 7539   3.181   2.104   0.118  1.0757 -0.6362 -0.4776
   56MOL0     H 7540   3.103   2.327   0.019  1.8162  1.1256  0.2804
   56MOL0     H 7541   3.061   2.263  -0.132  1.2727  0.7888  0.6076
   56MOL0     H 7542   3.209   1.230   0.442 -0.7032  1.6009 -3.2261
   56MOL0     H 7543   3.166   0.992   0.533 -1.1799  0.2413  2.1883
   56MOL0     H 7544   2.751   0.578   0.371 -0.2444 -2.7736 -0.9401
   56MOL0     H 7545   2.652   0.395   0.479  0.3986 -0.4107 -0.7357
   56MOL0     H 7546   2.657   1.904   1.477  1.3677 -1.1208 -0.5302
   56MOL0     H 7547   2.602   2.121   1.523 -3.0841 -1.1137 -1.3006
   56MOL0     H 7548   2.245   2.485   1.498  0.3745  2.2794  1.6452
   56MOL0     H 7549   2.167   2.682   1.419 -1.2229 -1.6015 -1.8783
   56MOL0     H 7550   2.493   2.948   1.385 -2.1420  0.9842  0.4765
   56MOL0     H 7551   2.472   2.970   1.211  2.2815 -2.5819  0.0388
   56MOL0     H 7552   2.452   3.171   1.316 -0.5149 -0.5741 -3.0398
   56MOL0     H 7553   2.325   3.113   1.433  1.7431 -1.6986  0.9255
   56MOL0     H 7554   2.166   3.074   1.239 -1.4622  1.3788  1.0573
   56MOL0     H 7555   2.296   3.135   1.126 -0.6343 -0.3026 -0.0795
   56MOL0     H 7556   2.261   3.361   1.259  0.1851 -1.3121  1.2590
   56MOL0     H 7557   2.128   3.290   1.338  2.7892  1.0507  1.1698
   56MOL0     H 7558   1.977   3.420   0.965  0.1440 -1.0064 -2.3977
   56MOL0     H 7559   2.496   2.736   1.155  1.0817 -1.9779 -0.8702
   56MOL0     H 7560   2.580   2.525   1.213  1.8104  1.8109  0.9043
   57MOL0     O 7561   6.359   9.201   8.870  0.2339 -0.4910  0.3579
   57MOL0     C 7562   6.321   9.142   8.968 -0.5235 -0.8420 -0.4655
   57MOL0     O 7563   6.354   9.018   9.011 -0.5057 -0.2791  0.1858
   57MOL0     C 7564   6.443   8.951   8.928 -0.9385  0.7154  0.1940
   57MOL0     C 7565   6.402   8.825   8.876  1.2433 -1.0278 -0.0169
   57MOL0     C 7566   6.473   8.757   8.785  0.4952  0.1444 -0.8542
   57MOL0     C 7567   6.601   8.797   8.741 -0.6336 -0.1596  0.9467
   57MOL0     O 7568   6.654   8.733   8.636 -0.0518 -0.1758  0.3326
   57MOL0     C 7569   6.775   8.769   8.575 -0.0170 -0.1238 -1.3625
   57MOL0     C 7570   6.802   8.713   8.433  0.3070 -0.4634  0.1654
   57MOL0     C 7571   6.786   8.556   8.428  0.1480  0.0976  0.5966
   57MOL0     C 7572   6.780   8.508   8.281  0.2316  0.8712  0.1995
   57MOL0     C 7573   6.793   8.352   8.282  0.6532 -0.5780 -0.2979
   57MOL0     C 7574   6.795   8.299   8.134  0.2716  0.0848  0.0339
   57MOL0     C 7575   6.766   8.144   8.119 -0.6822  0.2854 -0.7346
   57MOL0     C 7576   6.874   8.057   8.185  0.3191  0.5833  1.2431
   57MOL0     N 7577   6.839   8.021   8.320 -0.7101  0.2608  0.4291
   57MOL0     C 7578   6.783   7.898   8.363  1.4420 -0.1442  0.2507
   57MOL0     C 7579   6.767   7.918   8.497 -0.3414  0.4639  0.2953
   57MOL0     C 7580   6.703   7.819   8.585 -0.9016 -0.1301  0.4002
   57MOL0     C 7581   6.776   7.781   8.712  0.3168 -0.0040 -0.2230
   57MOL0     C 7582   6.913   7.723   8.683  0.4805 -0.0979 -1.3029
   57MOL0     C 7583   6.980   7.658   8.806 -0.6960  0.3694  0.1196
   57MOL0     O 7584   6.955   7.518   8.810  0.1124 -0.3077  0.0210
   57MOL0     C 7585   7.002   7.441   8.907  0.0477 -0.0932  0.4678
   57MOL0     C 7586   7.057   7.327   8.850  0.0004 -0.3217  0.2241
   57MOL0     C 7587   7.130   7.241   8.934 -0.8812 -0.4043 -0.9161
   57MOL0     C 7588   7.198   7.114   8.880  1.2167 -1.1407 -0.6877
   57MOL0     C 7589   7.135   7.263   9.076  0.4366  0.0722 -0.0547
   57MOL0     C 7590   7.216   7.189   9.186  0.9867 -0.0798  0.3578
   57MOL0     O 7591   7.304   7.091   9.161 -0.2793  0.9064  0.2860
   57MOL0     C 7592   7.337   6.999   9.263  0.0930  0.1460 -0.0241
   57MOL0     C 7593   7.463   6.947   9.257 -0.5972 -0.6209 -0.3801
   57MOL0     C 7594   7.511   6.853   9.349  0.0333  0.3867 -0.1829
   57MOL0     C 7595   7.431   6.804   9.452 -0.4339 -0.1783  1.1117
   57MOL0     O 7596   7.484   6.699   9.525 -0.4743 -0.2691  0.1516
   57MOL0     C 7597   7.392   6.650   9.627  0.0701  0.4758 -0.2685
   57MOL0     C 7598   7.462   6.567   9.734 -1.2361  0.1681 -0.2758
   57MOL0     C 7599   7.375   6.473   9.811  0.7597  0.1468 -0.0683
   57MOL0     C 7600   7.284   6.537   9.916 -0.3955 -0.2979  0.1114
   57MOL0     C 7601   7.360   6.559  10.052 -0.3571 -0.9345  0.1036
   57MOL0     C 7602   7.254   6.606  10.156 -0.1087  0.7091 -0.3724
   57MOL0     C 7603   7.180   6.740  10.140  1.2654  0.2322 -0.1334
   57MOL0     C 7604   7.073   6.773  10.245  0.3272 -1.1607  0.0250
   57MOL0    Cl 7605   7.154   6.810  10.401 -0.5822  0.5705  0.1415
   57MOL0     C 7606   7.303   6.864   9.460  0.6651 -0.1831 -0.7528
   57MOL0     C 7607   7.266   6.966   9.375 -0.2011 -0.6880  0.2321
   57MOL0     O 7608   7.198   7.233   9.298 -0.5236  0.3056  0.2746
   57MOL0     C 7609   7.061   7.368   9.129 -0.8184  0.1010 -0.0757
   57MOL0     C 7610   6.996   7.458   9.048  0.4691  0.3441 -0.4145
   57MOL0     N 7611   6.828   8.035   8.535 -0.5213  0.3093  0.5179
   57MOL0     N 7612   6.865   8.092   8.432 -0.0567 -0.0727  0.2254
   57MOL0     C 7613   6.642   8.922   8.789  0.2802  0.1924  0.2507
   57MOL0     C 7614   6.566   8.998   8.882 -0.4560  0.1427 -0.5628
   57MOL0     C 7615   6.227   9.217   9.061 -0.5661  0.7331 -0.2931
   57MOL0     C 7616   6.229   9.360   9.066 -0.0277  0.0042  0.4628
   57MOL0     C 7617   6.154   9.424   9.162  0.4692  0.0772  0.5342
   57MOL0     C 7618   6.068   9.352   9.243  0.4531  0.4822  0.4675
   57MOL0     O 7619   5.999   9.425   9.328  0.6480 -0.2623 -0.8222
   57MOL0     C 7620   6.057   9.457   9.452  0.8761 -0.0895  0.6748
   57MOL0     C 7621   5.948   9.522   9.543 -1.1367  0.7243  0.0905
   57MOL0     C 7622   6.008   9.609   9.658 -0.3421 -0.6327  0.3396
   57MOL0     C 7623   5.900   9.684   9.738 -0.1208  0.6306 -0.8248
   57MOL0     C 7624   5.954   9.774   9.835 -0.3665  0.8181  0.2073
   57MOL0     C 7625   5.996   9.856   9.918 -0.2560  0.1327 -0.7418
   57MOL0     C 7626   6.049   9.217   9.222  0.4921  0.7150 -0.3800
   57MOL0     C 7627   6.135   9.149   9.142 -0.0948 -0.5113  0.1151
   57MOL0     H 7628   6.311   8.785   8.920  1.7281 -0.5114  1.5225
   57MOL0     H 7629   6.442   8.660   8.748  2.5595 -1.1532  0.5908
   57MOL0     H 7630   6.785   8.878   8.563  0.0585  0.3577  2.1283
   57MOL0     H 7631   6.857   8.743   8.643 -1.5217 -1.3281  0.0620
   57MOL0     H 7632   6.742   8.759   8.353 -1.0748  1.4497  2.1659
   57MOL0     H 7633   6.905   8.740   8.410  0.7267 -0.5975  1.7528
   57MOL0     H 7634   6.862   8.500   8.484  0.1040  2.3718  3.1449
   57MOL0     H 7635   6.688   8.537   8.472 -0.1636  0.6329  0.1478
   57MOL0     H 7636   6.693   8.545   8.226  1.3880  0.9570 -1.6626
   57MOL0     H 7637   6.870   8.544   8.231  0.0040  0.2693 -0.6602
   57MOL0     H 7638   6.885   8.314   8.328  0.3929 -1.5904 -0.5887
   57MOL0     H 7639   6.707   8.306   8.330  0.8242 -0.4712  0.1092
   57MOL0     H 7640   6.726   8.351   8.067  0.1118  0.0162  0.1463
   57MOL0     H 7641   6.891   8.338   8.098 -0.0899  0.9687  0.0139
   57MOL0     H 7642   6.668   8.124   8.162 -1.0992 -0.4738 -1.9730
   57MOL0     H 7643   6.759   8.134   8.010  1.0698 -4.2541 -0.6164
   57MOL0     H 7644   6.966   8.114   8.196 -0.0853  1.2853  1.0731
   57MOL0     H 7645   6.897   7.964   8.131 -3.6828 -1.3284  2.3838
   57MOL0     H 7646   6.753   7.816   8.298  2.8314  1.0007 -1.9659
   57MOL0     H 7647   6.598   7.849   8.598 -0.6747  2.4099 -2.6495
   57MOL0     H 7648   6.689   7.725   8.531  0.1038 -1.3650  2.1910
   57MOL0     H 7649   6.716   7.711   8.771 -0.4419  2.1969  1.7767
   57MOL0     H 7650   6.780   7.867   8.779  1.9326  1.5657 -2.2047
   57MOL0     H 7651   6.987   7.801   8.665  0.6219  0.2434  0.5520
   57MOL0     H 7652   6.907   7.655   8.598 -0.0395 -0.5159 -0.9419
   57MOL0     H 7653   6.926   7.701   8.891 -5.7273 -0.2992 -2.3216
   57MOL0     H 7654   7.088   7.670   8.796 -0.7170  1.0182  0.6925
   57MOL0     H 7655   7.052   7.312   8.742 -1.6943  2.0463 -0.0913
   57MOL0     H 7656   7.143   7.031   8.925  0.4839 -1.0821 -1.4484
   57MOL0     H 7657   7.191   7.099   8.771 -2.9457 -1.1897 -0.5826
   57MOL0     H 7658   7.302   7.096   8.908  1.4887  1.4149  0.2134
   57MOL0     H 7659   7.523   6.967   9.169  4.1551 -2.2083  2.1530
   57MOL0     H 7660   7.610   6.811   9.339  0.2900  0.8558  0.3678
   57MOL0     H 7661   7.329   6.730   9.670  0.1063  0.1319  0.4335
   57MOL0     H 7662   7.327   6.584   9.569  0.9670 -2.1669  1.5813
   57MOL0     H 7663   7.537   6.505   9.683 -1.6276  1.6867 -2.8893
   57MOL0     H 7664   7.511   6.632   9.808 -2.1668 -1.2849  1.7096
   57MOL0     H 7665   7.436   6.391   9.852  1.2583  0.6294  0.1673
   57MOL0     H 7666   7.307   6.428   9.738  0.3531  0.2415  0.2500
   57MOL0     H 7667   7.238   6.631   9.885  0.3567  0.2480  0.6161
   57MOL0     H 7668   7.202   6.467   9.936  1.2163 -3.3505 -2.9264
   57MOL0     H 7669   7.429   6.644  10.047 -0.2882 -0.9986 -0.0369
   57MOL0     H 7670   7.415   6.466  10.068  1.0891 -0.1115  0.0867
   57MOL0     H 7671   7.176   6.530  10.162 -0.3002  0.7437 -1.9617
   57MOL0     H 7672   7.311   6.604  10.249  0.0206  1.0587 -0.4429
   57MOL0     H 7673   7.142   6.760  10.040 -2.5626  2.3658  1.5344
   57MOL0     H 7674   7.256   6.817  10.158  0.3738  1.4275 -1.2959
   57MOL0     H 7675   7.005   6.688  10.251 -2.7953  1.1855  1.0315
   57MOL0     H 7676   7.000   6.848  10.213 -0.1554 -1.4290  0.4814
   57MOL0     H 7677   7.228   6.846   9.537  2.0052  1.5055  1.0467
   57MOL0     H 7678   7.160   6.988   9.379 -0.6942 -2.5337 -1.2527
   57MOL0     H 7679   7.040   7.379   9.235  2.7979 -0.9899  0.8935
   57MOL0     H 7680   6.952   7.545   9.095  0.6360  1.6943 -2.6021
   57MOL0     H 7681   6.738   8.961   8.756  1.6615  1.0331  4.5829
   57MOL0     H 7682   6.594   9.095   8.921 -1.0159  0.4894 -1.0104
   57MOL0     H 7683   6.294   9.428   9.013 -2.5874  3.3601  1.2369
   57MOL0     H 7684   6.149   9.530   9.184 -4.6881  0.4268 -0.9569
   57MOL0     H 7685   6.096   9.367   9.501 -1.2835 -2.5131 -1.7620
   57MOL0     H 7686   6.138   9.530   9.442 -0.6512  1.3622 -2.2369
   57MOL0     H 7687   5.885   9.440   9.577 -1.5126  1.7743  2.0269
   57MOL0     H 7688   5.892   9.589   9.477  0.3616  0.7639 -1.2225
   57MOL0     H 7689   6.055   9.688   9.598  0.1977 -0.2488  1.2372
   57MOL0     H 7690   6.074   9.551   9.722  0.7605  2.5863  2.3792
   57MOL0     H 7691   5.843   9.614   9.799  0.3316  1.3477  0.4469
   57MOL0     H 7692   5.824   9.734   9.678 -3.0996 -1.0719  1.2434
   57MOL0     H 7693   6.047   9.919   9.987  0.6829 -0.3606 -0.9699
   57MOL0     H 7694   5.970   9.173   9.282  1.2722  1.7303  1.4650
   57MOL0     H 7695   6.145   9.043   9.122  0.6103 -0.0634 -2.2244
   58MOL0     O 7696   5.643  11.393   8.078  0.4462  0.9029  0.0228
   58MOL0     C 7697   5.541  11.435   8.022 -0.6668  0.4076 -1.4343
   58MOL0     O 7698   5.533  11.545   7.941 -0.9976  0.2221  0.0335
   58MOL0     C 7699   5.652  11.599   7.883 -0.4510  0.5811  0.0626
   58MOL0     C 7700   5.612  11.711   7.808 -0.1060 -0.0067 -0.9011
   58MOL0     C 7701   5.706  11.780   7.731  0.3716  0.3383  0.0244
   58MOL0     C 7702   5.843  11.733   7.728  0.4815 -0.0135  0.2331
   58MOL0     O 7703   5.927  11.802   7.642  0.3860 -0.3089 -0.2903
   58MOL0     C 7704   6.055  11.752   7.595  0.7436  1.3394 -0.1667
   58MOL0     C 7705   6.125  11.862   7.513  0.3340  0.1859 -1.6090
   58MOL0     C 7706   6.256  11.808   7.451 -0.0478  0.6300 -0.6205
   58MOL0     C 7707   6.368  11.773   7.563  0.9964  0.0157 -0.0518
   58MOL0     C 7708   6.484  11.687   7.511 -0.6270  0.4872 -1.2410
   58MOL0     C 7709   6.615  11.726   7.577  0.3450  0.7576  0.4134
   58MOL0     C 7710   6.740  11.672   7.510  0.0257  0.3444  0.4507
   58MOL0     C 7711   6.764  11.519   7.542  0.2269 -0.2743  0.0980
   58MOL0     N 7712   6.756  11.471   7.688  0.1268  0.5513 -0.2500
   58MOL0     C 7713   6.854  11.512   7.779  0.5772 -0.0929  0.0636
   58MOL0     C 7714   6.810  11.462   7.896  1.5007  0.3046 -0.0565
   58MOL0     C 7715   6.886  11.449   8.024  0.4570 -0.4105 -0.7639
   58MOL0     C 7716   6.998  11.347   8.018  0.3742  0.7698  0.0712
   58MOL0     C 7717   6.968  11.192   8.013  0.1575  0.4981  1.1920
   58MOL0     C 7718   6.900  11.133   8.134  0.2511  0.5071  0.4894
   58MOL0     O 7719   6.990  11.136   8.248  0.2538 -0.3111 -0.1350
   58MOL0     C 7720   6.931  11.114   8.365  0.0198  0.1550  0.3065
   58MOL0     C 7721   6.999  11.152   8.484  1.0271  0.2730  0.3804
   58MOL0     C 7722   6.941  11.141   8.617 -0.8981 -0.4216 -0.9477
   58MOL0     C 7723   7.032  11.163   8.732  0.0271  0.2852  0.0062
   58MOL0     C 7724   6.814  11.091   8.631 -0.5272 -0.4184 -0.4579
   58MOL0     C 7725   6.748  11.057   8.766 -0.1845 -0.0420  0.3715
   58MOL0     O 7726   6.611  11.036   8.760 -0.4129 -0.2539  0.5985
   58MOL0     C 7727   6.524  11.005   8.860 -0.1796  0.5212  0.1891
   58MOL0     C 7728   6.397  11.027   8.832  0.2323  0.0015 -0.2260
   58MOL0     C 7729   6.297  10.990   8.921  0.6417  0.0348 -0.8920
   58MOL0     C 7730   6.327  10.944   9.052 -0.7683 -0.7645  0.5407
   58MOL0     O 7731   6.219  10.913   9.136 -0.5021 -0.7620  0.7610
   58MOL0     C 7732   6.099  10.985   9.128  0.2544  0.6445 -0.9373
   58MOL0     C 7733   6.028  10.935   9.258  0.1990  0.5912 -0.7457
   58MOL0     C 7734   6.088  11.011   9.381  0.2605  0.2699 -0.4881
   58MOL0     C 7735   6.015  10.980   9.522 -0.4844 -0.2405 -0.4508
   58MOL0     C 7736   5.869  11.004   9.507  1.0211 -0.4984 -0.2498
   58MOL0     C 7737   5.808  11.009   9.647 -0.0789  0.0586 -0.8166
   58MOL0     C 7738   5.657  10.990   9.652 -0.4129 -0.9374  0.2751
   58MOL0     C 7739   5.612  10.872   9.733  0.1448 -0.4160 -0.9018
   58MOL0    Cl 7740   5.446  10.825   9.717  0.1796  0.0945  0.0145
   58MOL0     C 7741   6.461  10.908   9.075  0.6822  0.1310 -0.3299
   58MOL0     C 7742   6.557  10.941   8.983 -0.7621  0.5846 -0.0695
   58MOL0     O 7743   6.819  11.028   8.858 -0.0463  0.5960 -0.5268
   58MOL0     C 7744   6.737  11.073   8.512  0.2630  0.1437  0.3502
   58MOL0     C 7745   6.794  11.088   8.386  0.5438  0.2606 -0.0653
   58MOL0     N 7746   6.680  11.423   7.878  0.1938  0.1715 -0.1012
   58MOL0     N 7747   6.646  11.434   7.758  0.7213 -0.5748  0.6179
   58MOL0     C 7748   5.866  11.602   7.775  0.5051 -0.4139  0.5143
   58MOL0     C 7749   5.777  11.544   7.870  0.4306  0.2561  0.0477
   58MOL0     C 7750   5.405  11.356   8.053 -0.1263 -0.7356  0.0582
   58MOL0     C 7751   5.396  11.265   8.157  0.1527  0.9206 -0.0208
   58MOL0     C 7752   5.276  11.224   8.203  1.2653  0.8608 -0.1409
   58MOL0     C 7753   5.158  11.271   8.145  0.4453 -0.5097  0.3421
   58MOL0     O 7754   5.041  11.243   8.212  0.5176  1.0352  1.0052
   58MOL0     C 7755   4.918  11.284   8.164  0.1328 -0.5998 -1.0603
   58MOL0     C 7756   4.824  11.280   8.291 -0.1849  0.4704  0.9587
   58MOL0     C 7757   4.814  11.136   8.347  0.5693 -0.6264  0.2214
   58MOL0     C 7758   4.704  11.134   8.455 -0.3612 -0.3863 -0.0692
   58MOL0     C 7759   4.729  11.026   8.550 -0.3443 -0.7215  0.7910
   58MOL0     C 7760   4.738  10.932   8.626  0.1241 -0.2963 -0.4413
   58MOL0     C 7761   5.163  11.350   8.026 -0.3728  0.9289 -0.4620
   58MOL0     C 7762   5.289  11.396   7.984  0.3578 -0.5585  0.2608
   58MOL0     H 7763   5.508  11.742   7.812  0.5522  2.2470  0.5901
   58MOL0     H 7764   5.674  11.865   7.672 -0.2353 -0.5516 -0.9691
   58MOL0     H 7765   6.124  11.709   7.669 -0.4289 -3.7649 -1.6223
   58MOL0     H 7766   6.035  11.666   7.530 -0.5980  0.2165  1.6325
   58MOL0     H 7767   6.051  11.896   7.440 -1.6324 -1.5842 -0.5677
   58MOL0     H 7768   6.143  11.949   7.576  2.3622  0.1580 -2.0790
   58MOL0     H 7769   6.247  11.708   7.409  0.9209  0.1800  0.2072
   58MOL0     H 7770   6.294  11.884   7.381 -0.5299  0.8437 -0.6502
   58MOL0     H 7771   6.399  11.870   7.604 -1.9014  1.1149 -0.2119
   58MOL0     H 7772   6.318  11.709   7.636  1.5405 -1.5991 -1.0475
   58MOL0     H 7773   6.468  11.581   7.535  1.8270  0.0574 -1.2150
   58MOL0     H 7774   6.495  11.695   7.402  1.3822 -3.5056 -1.5075
   58MOL0     H 7775   6.626  11.835   7.574 -2.0019  1.1437  2.1893
   58MOL0     H 7776   6.604  11.719   7.686  0.6533  1.9542  0.5390
   58MOL0     H 7777   6.744  11.679   7.401  1.9905 -1.0672  0.3754
   58MOL0     H 7778   6.818  11.740   7.547 -0.6908  1.7487 -0.5147
   58MOL0     H 7779   6.865  11.498   7.504  0.0088 -1.0495 -0.0657
   58MOL0     H 7780   6.686  11.466   7.488 -0.3070  1.5728 -1.0002
   58MOL0     H 7781   6.948  11.560   7.753  0.5860  0.9933  1.8669
   58MOL0     H 7782   6.945  11.540   8.037 -2.0074  1.4601 -1.9779
   58MOL0     H 7783   6.822  11.427   8.110  1.9850 -1.8845  0.0757
   58MOL0     H 7784   7.057  11.370   8.107 -1.0437  3.6738  0.3978
   58MOL0     H 7785   7.062  11.372   7.933  0.2355 -0.2380 -0.3337
   58MOL0     H 7786   7.060  11.138   7.990 -0.4254 -1.5055  3.1885
   58MOL0     H 7787   6.905  11.175   7.926  2.4924 -1.0545 -0.3241
   58MOL0     H 7788   6.882  11.026   8.123  0.5592  0.6442 -1.8668
   58MOL0     H 7789   6.806  11.185   8.157 -1.9070 -1.8055 -2.4398
   58MOL0     H 7790   7.098  11.189   8.456  2.2571 -2.2671  1.0725
   58MOL0     H 7791   6.979  11.196   8.822 -1.0746 -3.5317  0.9772
   58MOL0     H 7792   7.077  11.067   8.758 -0.3483  1.0780  4.2123
   58MOL0     H 7793   7.111  11.228   8.695 -0.1777  0.9901  0.7898
   58MOL0     H 7794   6.359  11.076   8.743 -1.1707  3.0516  1.8612
   58MOL0     H 7795   6.196  11.013   8.890  0.0289 -0.1599  0.8617
   58MOL0     H 7796   6.114  11.091   9.150  0.3291 -0.1214  3.5063
   58MOL0     H 7797   6.041  10.958   9.039 -0.3048  0.6741 -0.5797
   58MOL0     H 7798   5.923  10.962   9.245 -0.1871  0.0862  1.0519
   58MOL0     H 7799   6.025  10.826   9.272 -2.6036  0.5119 -1.3568
   58MOL0     H 7800   6.080  11.118   9.360  0.5122  0.6326  1.1794
   58MOL0     H 7801   6.192  10.979   9.383  1.2668  3.2356  1.0856
   58MOL0     H 7802   6.018  10.872   9.539 -0.9661 -0.6195 -2.5018
   58MOL0     H 7803   6.062  11.020   9.612  0.9327 -1.9529 -0.3720
   58MOL0     H 7804   5.822  10.926   9.447  1.7304 -3.1633  2.3986
   58MOL0     H 7805   5.846  11.100   9.459 -0.4048 -2.0074 -2.7758
   58MOL0     H 7806   5.854  10.922   9.695  0.9780  0.3492 -1.2863
   58MOL0     H 7807   5.832  11.102   9.699 -1.6586 -0.6446  1.3079
   58MOL0     H 7808   5.618  10.975   9.551 -2.2732 -0.7585  0.9142
   58MOL0     H 7809   5.603  11.079   9.686 -1.4383 -0.7326 -1.7462
   58MOL0     H 7810   5.634  10.885   9.840  0.7321 -0.5448 -1.0008
   58MOL0     H 7811   5.672  10.786   9.700  0.6131 -0.4584  0.0124
   58MOL0     H 7812   6.487  10.857   9.168  1.1271  2.5187  0.9435
   58MOL0     H 7813   6.662  10.919   8.997 -1.2608 -2.7539 -0.8111
   58MOL0     H 7814   6.641  11.024   8.516  0.9309 -1.3709 -1.1011
   58MOL0     H 7815   6.727  11.053   8.308  1.7382 -0.7267 -0.6996
   58MOL0     H 7816   5.964  11.559   7.757  0.6688  0.4657 -0.8278
   58MOL0     H 7817   5.803  11.448   7.914  3.4969 -0.7335 -3.4287
   58MOL0     H 7818   5.488  11.233   8.204 -0.1407 -1.5120 -0.9653
   58MOL0     H 7819   5.256  11.155   8.285 -1.0985 -1.4902 -2.4842
   58MOL0     H 7820   4.916  11.389   8.132  0.1788  0.8206  3.0119
   58MOL0     H 7821   4.875  11.216   8.091 -1.1350  0.5892 -1.4660
   58MOL0     H 7822   4.726  11.322   8.266 -0.5556 -0.2031  1.2475
   58MOL0     H 7823   4.868  11.349   8.364 -0.3587  0.4538  1.0817
   58MOL0     H 7824   4.913  11.115   8.389  0.1795  0.4324  1.7995
   58MOL0     H 7825   4.784  11.061   8.275  2.2866  2.1551 -3.7499
   58MOL0     H 7826   4.603  11.116   8.417 -1.7559  1.4241  2.4434
   58MOL0     H 7827   4.697  11.224   8.517 -0.6624 -0.1875 -0.3840
   58MOL0     H 7828   4.761  10.838   8.672  1.7165 -0.1200 -0.8353
   58MOL0     H 7829   5.089  11.379   7.952  0.4284  0.6132 -1.4014
   58MOL0     H 7830   5.304  11.470   7.906  2.3303  0.9493  1.9668
   59MOL0     O 7831   7.707   5.645   1.456  0.0757  0.4742 -0.0191
   59MOL0     C 7832   7.772   5.599   1.544  0.4750 -0.0780  0.4058
   59MOL0     O 7833   7.870   5.504   1.528 -0.3772 -0.3213  0.4155
   59MOL0     C 7834   7.884   5.433   1.409  0.4443 -0.2552  0.8182
   59MOL0     C 7835   7.865   5.499   1.284  0.4399  0.0273  1.2971
   59MOL0     C 7836   7.885   5.434   1.166  0.3214  0.0975  1.6078
   59MOL0     C 7837   7.932   5.306   1.153  0.0318 -0.0652  0.3877
   59MOL0     O 7838   7.953   5.245   1.026  0.0329  0.6293 -0.3297
   59MOL0     C 7839   7.848   5.257   0.931  0.3097  0.0900  0.7299
   59MOL0     C 7840   7.846   5.127   0.852 -0.3997 -0.6058 -0.1332
   59MOL0     C 7841   7.824   4.991   0.915  0.2083  0.5288 -0.5341
   59MOL0     C 7842   7.883   4.874   0.830 -0.1486  0.0066 -0.2635
   59MOL0     C 7843   7.895   4.739   0.908 -0.3293 -0.1378  0.0542
   59MOL0     C 7844   7.753   4.704   0.954 -0.9395  0.3447  1.7258
   59MOL0     C 7845   7.733   4.568   1.021 -0.9660  0.2944 -0.2186
   59MOL0     C 7846   7.725   4.448   0.927 -0.2344 -0.5762  0.2354
   59MOL0     N 7847   7.671   4.339   1.005 -0.6108 -0.7400  0.2112
   59MOL0     C 7848   7.542   4.328   1.058 -1.0621 -0.2565 -0.8455
   59MOL0     C 7849   7.540   4.209   1.113  0.1364  0.5406 -0.5501
   59MOL0     C 7850   7.424   4.146   1.182 -0.5540 -0.1447 -0.0928
   59MOL0     C 7851   7.432   4.001   1.223 -0.7656 -0.3342 -0.7663
   59MOL0     C 7852   7.393   3.894   1.123 -0.0500 -0.1126  0.0465
   59MOL0     C 7853   7.444   3.906   0.977 -0.1198  1.0130 -0.8991
   59MOL0     O 7854   7.340   3.862   0.894  0.9253 -0.1797 -0.6362
   59MOL0     C 7855   7.329   3.721   0.868 -1.1177  0.7242  0.1413
   59MOL0     C 7856   7.236   3.677   0.769  0.5690 -0.8534 -0.4955
   59MOL0     C 7857   7.231   3.543   0.729 -0.5208  0.8572 -0.3005
   59MOL0     C 7858   7.134   3.508   0.623 -0.7156 -0.3458  0.0313
   59MOL0     C 7859   7.310   3.447   0.785 -0.1646  0.2009  0.3508
   59MOL0     C 7860   7.319   3.298   0.743  0.5479  0.1552  0.1566
   59MOL0     O 7861   7.221   3.249   0.653 -0.4500 -0.0459 -0.1312
   59MOL0     C 7862   7.230   3.124   0.603  0.8552 -0.1435  0.2583
   59MOL0     C 7863   7.243   2.997   0.665 -0.5142 -0.6274 -0.0239
   59MOL0     C 7864   7.247   2.871   0.603  0.1252  0.1436 -0.3125
   59MOL0     C 7865   7.229   2.874   0.462  1.0828 -0.8100  0.1830
   59MOL0     O 7866   7.206   2.762   0.381  0.1103 -0.2148 -0.0522
   59MOL0     C 7867   7.172   2.636   0.446 -0.8133  0.5220 -0.3026
   59MOL0     C 7868   7.115   2.542   0.352  0.3635  0.6859  0.6164
   59MOL0     C 7869   6.980   2.587   0.301 -0.3715 -0.0863  0.0099
   59MOL0     C 7870   6.954   2.550   0.148 -0.0539  0.9211 -0.2830
   59MOL0     C 7871   6.798   2.565   0.128  0.2820  0.1901  0.2522
   59MOL0     C 7872   6.742   2.487   0.002 -0.5044 -0.1854 -0.7939
   59MOL0     C 7873   6.605   2.535  -0.016  0.7196 -1.1355 -0.2449
   59MOL0     C 7874   6.530   2.474  -0.139  0.0840  0.8040  0.6086
   59MOL0    Cl 7875   6.367   2.554  -0.135 -0.3557 -0.3507  0.0296
   59MOL0     C 7876   7.210   2.995   0.394 -0.9644  0.4526  0.4037
   59MOL0     C 7877   7.209   3.115   0.467  0.0236  0.2285  0.7212
   59MOL0     O 7878   7.399   3.229   0.798  0.0709  0.2890 -0.6174
   59MOL0     C 7879   7.404   3.487   0.892  0.1633 -0.1353 -0.7095
   59MOL0     C 7880   7.410   3.617   0.933  0.0106 -0.0558  0.5429
   59MOL0     N 7881   7.659   4.145   1.092 -0.3987 -0.7866 -0.7113
   59MOL0     N 7882   7.742   4.225   1.033  0.3287  0.0713 -1.2469
   59MOL0     C 7883   7.963   5.235   1.285  1.0035 -0.7632  0.4903
   59MOL0     C 7884   7.927   5.300   1.404 -0.3440  0.5091 -0.1935
   59MOL0     C 7885   7.750   5.653   1.679  0.1030  0.1538 -0.1623
   59MOL0     C 7886   7.831   5.602   1.782  0.7619  0.6725  0.0735
   59MOL0     C 7887   7.834   5.660   1.907  0.0520  0.5993 -0.0409
   59MOL0     C 7888   7.759   5.783   1.925 -0.4030 -0.2957 -0.3198
   59MOL0     O 7889   7.753   5.851   2.045  0.3285  0.2968 -0.4338
   59MOL0     C 7890   7.848   5.831   2.153 -0.4962 -0.5132 -0.3008
   59MOL0     C 7891   7.857   5.963   2.236 -0.2431  0.1456  0.1775
   59MOL0     C 7892   7.961   5.966   2.347  0.6531  1.0133 -0.7404
   59MOL0     C 7893   8.081   6.035   2.285 -0.4216 -0.6042 -1.5439
   59MOL0     C 7894   8.164   5.972   2.179 -0.8208  0.1224 -0.1290
   59MOL0     C 7895   8.225   5.926   2.088 -0.7268  0.3027 -0.4380
   59MOL0     C 7896   7.665   5.825   1.830  1.5040  0.3289  0.8597
   59MOL0     C 7897   7.668   5.763   1.701  0.2686 -0.1765  0.2308
   59MOL0     H 7898   7.859   5.607   1.275 -3.5807 -0.0707  1.1547
   59MOL0     H 7899   7.881   5.499   1.079 -2.5210  0.2535  1.7716
   59MOL0     H 7900   7.746   5.271   0.971  0.3464 -1.5801  1.4616
   59MOL0     H 7901   7.863   5.349   0.872  0.6607 -0.4446 -0.0255
   59MOL0     H 7902   7.765   5.141   0.780 -1.6279 -1.9790  0.9197
   59MOL0     H 7903   7.932   5.122   0.785 -0.5555  2.5636 -0.7425
   59MOL0     H 7904   7.890   4.989   1.002  1.6214 -0.7021 -1.5744
   59MOL0     H 7905   7.717   4.971   0.928 -1.1427  4.1487 -4.0129
   59MOL0     H 7906   7.821   4.877   0.740 -2.6135  0.2653  1.3388
   59MOL0     H 7907   7.988   4.898   0.811  0.1083 -0.8402  0.0602
   59MOL0     H 7908   7.943   4.670   0.839 -0.5329  0.7263 -0.9850
   59MOL0     H 7909   7.969   4.751   0.988  1.4005 -4.0049 -0.7235
   59MOL0     H 7910   7.724   4.782   1.025  0.6535 -0.5788  3.4692
   59MOL0     H 7911   7.702   4.708   0.857  3.6889 -0.9901 -1.0640
   59MOL0     H 7912   7.819   4.563   1.088 -2.3015  0.5438  1.5828
   59MOL0     H 7913   7.645   4.571   1.087 -0.0671 -1.1630  1.1182
   59MOL0     H 7914   7.812   4.425   0.865  0.3390  0.8667  0.4657
   59MOL0     H 7915   7.641   4.464   0.859  2.0770 -1.1069 -2.9714
   59MOL0     H 7916   7.472   4.411   1.055  0.5148  1.1703 -0.5116
   59MOL0     H 7917   7.421   4.209   1.271  1.3506  1.7518 -1.2322
   59MOL0     H 7918   7.336   4.173   1.123 -0.0525  1.0322 -0.3498
   59MOL0     H 7919   7.372   3.997   1.315  3.1817  1.7551  2.2599
   59MOL0     H 7920   7.532   3.982   1.263 -0.4717  1.1900 -0.7099
   59MOL0     H 7921   7.285   3.891   1.110  0.1476 -0.4157 -1.8038
   59MOL0     H 7922   7.418   3.796   1.163 -3.0417  0.1399  2.8691
   59MOL0     H 7923   7.541   3.862   0.951 -0.6808 -0.6586 -0.3257
   59MOL0     H 7924   7.471   4.007   0.946 -2.4114  1.4517 -1.6057
   59MOL0     H 7925   7.175   3.758   0.730 -1.6807 -1.7516  0.9918
   59MOL0     H 7926   7.075   3.595   0.593 -2.1917 -0.7750  1.5401
   59MOL0     H 7927   7.173   3.471   0.528 -0.8714  1.9865 -1.0054
   59MOL0     H 7928   7.074   3.424   0.659  1.2997 -1.8030  0.1247
   59MOL0     H 7929   7.263   2.993   0.771 -1.8012 -0.2624  0.2426
   59MOL0     H 7930   7.258   2.786   0.669  1.7305  0.8534  0.3953
   59MOL0     H 7931   7.259   2.585   0.488 -1.4719 -0.6778 -0.3305
   59MOL0     H 7932   7.102   2.652   0.529 -0.1388  3.8547 -0.2303
   59MOL0     H 7933   7.188   2.516   0.274  0.0478 -0.0866  0.5699
   59MOL0     H 7934   7.097   2.447   0.403  2.7852  0.9169  2.0375
   59MOL0     H 7935   6.946   2.691   0.312  0.1178 -0.1283  2.5785
   59MOL0     H 7936   6.909   2.525   0.356 -0.8800  0.5463  0.0828
   59MOL0     H 7937   7.011   2.611   0.077  1.9377  1.9461  2.0810
   59MOL0     H 7938   6.993   2.450   0.123 -1.0726  0.4301  0.0365
   59MOL0     H 7939   6.777   2.671   0.115 -1.8873 -0.5281 -3.9969
   59MOL0     H 7940   6.750   2.519   0.215  0.9357 -1.7100 -0.3196
   59MOL0     H 7941   6.802   2.523  -0.082  2.1296 -1.1165  0.5841
   59MOL0     H 7942   6.740   2.378   0.008 -2.0113 -0.1030  2.3358
   59MOL0     H 7943   6.595   2.643  -0.010 -0.3933 -1.2007 -0.6188
   59MOL0     H 7944   6.545   2.508   0.071 -5.5132  2.7985 -2.6303
   59MOL0     H 7945   6.530   2.365  -0.132 -1.7784  0.7820  0.6160
   59MOL0     H 7946   6.577   2.508  -0.232 -1.1498  1.0028  0.0355
   59MOL0     H 7947   7.192   2.990   0.287  1.8984  0.7647 -0.1605
   59MOL0     H 7948   7.188   3.205   0.410 -1.1659 -2.0104 -2.7276
   59MOL0     H 7949   7.474   3.418   0.936  1.7965  0.8326 -1.6788
   59MOL0     H 7950   7.480   3.646   1.011 -1.2237  2.5941  0.7863
   59MOL0     H 7951   8.002   5.134   1.277  2.5607 -0.0404 -2.9460
   59MOL0     H 7952   7.935   5.243   1.496 -0.1641 -2.8662 -2.1000
   59MOL0     H 7953   7.885   5.509   1.765 -2.0837 -0.7550 -2.1745
   59MOL0     H 7954   7.888   5.627   1.996 -0.1575 -0.3873 -0.2646
   59MOL0     H 7955   7.825   5.740   2.209  0.6381  0.2860  1.5322
   59MOL0     H 7956   7.945   5.816   2.106  0.4128 -0.0645  1.3763
   59MOL0     H 7957   7.757   5.987   2.272 -0.4515 -0.9501  0.3611
   59MOL0     H 7958   7.879   6.047   2.169 -0.0503  1.9014  2.3286
   59MOL0     H 7959   7.992   5.867   2.381  0.4959  0.3076 -2.5241
   59MOL0     H 7960   7.919   6.016   2.434  0.6217 -1.3038  0.6706
   59MOL0     H 7961   8.144   6.062   2.371 -2.3663 -2.7272  0.6929
   59MOL0     H 7962   8.061   6.135   2.247  0.0086  1.2547  2.4998
   59MOL0     H 7963   8.260   5.901   1.990  0.5583  1.2049 -0.2260
   59MOL0     H 7964   7.611   5.916   1.855  0.6720  0.4668 -1.2334
   59MOL0     H 7965   7.620   5.806   1.613  0.4788 -1.3176 -0.4714
   60MOL0     O 7966   5.019   1.353   2.289 -0.4725 -0.3422  0.3924
   60MOL0     C 7967   5.069   1.418   2.381 -0.6989  0.4243  0.5053
   60MOL0     O 7968   5.061   1.557   2.391 -0.2818  0.8903 -0.5745
   60MOL0     C 7969   5.000   1.619   2.293  0.6480  0.0471  0.5347
   60MOL0     C 7970   4.863   1.637   2.287  0.7953  0.5117  0.3970
   60MOL0     C 7971   4.802   1.687   2.167 -0.0386 -0.1414  0.3747
   60MOL0     C 7972   4.883   1.710   2.054  0.1449 -1.1946 -0.2085
   60MOL0     O 7973   4.833   1.762   1.934  0.4154 -0.0209  0.6805
   60MOL0     C 7974   4.848   1.671   1.819  0.1691 -0.2502  0.8497
   60MOL0     C 7975   4.748   1.694   1.705 -1.2150  0.0414 -0.1407
   60MOL0     C 7976   4.762   1.588   1.601 -0.4779 -0.3550  0.4884
   60MOL0     C 7977   4.674   1.622   1.482  0.0940  0.1177 -1.1897
   60MOL0     C 7978   4.688   1.516   1.377 -0.4342 -0.0640  0.4048
   60MOL0     C 7979   4.828   1.525   1.308  0.3111  0.5138 -0.1678
   60MOL0     C 7980   4.841   1.421   1.186  0.0865  0.2106  0.8623
   60MOL0     C 7981   4.975   1.439   1.115 -0.5778 -0.1629 -0.7079
   60MOL0     N 7982   5.008   1.306   1.050 -0.2578  0.1309  0.1752
   60MOL0     C 7983   5.096   1.208   1.096  0.8643 -0.2085 -0.2265
   60MOL0     C 7984   5.101   1.116   1.003  0.2043 -0.0805  0.1497
   60MOL0     C 7985   5.162   0.984   1.025  0.6991  0.4936  0.3330
   60MOL0     C 7986   5.052   0.882   1.078  0.2555  0.1787  0.1512
   60MOL0     C 7987   4.946   0.849   0.967  0.1845  0.5856 -0.0348
   60MOL0     C 7988   4.840   0.741   1.000 -0.9576  0.3780 -0.6604
   60MOL0     O 7989   4.760   0.704   0.887 -0.6168  0.5920  0.4057
   60MOL0     C 7990   4.802   0.590   0.824  1.4627 -0.6303 -0.4079
   60MOL0     C 7991   4.705   0.509   0.760  0.0606 -0.3219  1.1617
   60MOL0     C 7992   4.737   0.391   0.698  0.4968  0.5779  0.1765
   60MOL0     C 7993   4.624   0.309   0.627  0.0709 -0.1728  0.1770
   60MOL0     C 7994   4.863   0.336   0.713  0.1972 -0.6053  0.0925
   60MOL0     C 7995   4.908   0.202   0.657 -0.1615 -0.2684 -0.0941
   60MOL0     O 7996   4.832   0.142   0.557 -0.7140 -0.2210 -0.2995
   60MOL0     C 7997   4.879   0.008   0.507  0.0461 -0.7646  0.5774
   60MOL0     C 7998   5.013  -0.018   0.468 -0.9226  0.3190 -0.6013
   60MOL0     C 7999   5.049  -0.138   0.411 -0.5278  0.4045 -0.9514
   60MOL0     C 8000   4.957  -0.246   0.407  0.4974 -0.0410 -0.1300
   60MOL0     O 8001   4.993  -0.362   0.344 -0.0028 -0.9167  0.1852
   60MOL0     C 8002   4.900  -0.407   0.236 -0.2754  1.2859  0.4715
   60MOL0     C 8003   4.802  -0.507   0.293  0.1463 -0.7316 -0.0368
   60MOL0     C 8004   4.717  -0.576   0.192 -0.1211 -0.2825  0.3155
   60MOL0     C 8005   4.801  -0.654   0.084  1.1921 -0.8259  1.2953
   60MOL0     C 8006   4.716  -0.754   0.001  0.1798  0.2207 -0.0477
   60MOL0     C 8007   4.653  -0.886   0.073 -0.8633  0.2837  0.6887
   60MOL0     C 8008   4.622  -0.988  -0.038  1.0004  0.4054 -0.4596
   60MOL0     C 8009   4.568  -1.120   0.021 -0.1220  0.1619 -0.9136
   60MOL0    Cl 8010   4.470  -1.222  -0.091 -0.0617  0.4241 -0.5454
   60MOL0     C 8011   4.827  -0.229   0.467 -0.6438  0.6644 -0.5809
   60MOL0     C 8012   4.794  -0.105   0.507  0.0503 -0.0719  0.0684
   60MOL0     O 8013   5.014   0.156   0.710 -0.0532  0.1982 -0.1488
   60MOL0     C 8014   4.961   0.422   0.777 -0.0725  1.1905  0.3596
   60MOL0     C 8015   4.938   0.553   0.833 -0.5509  0.5321  1.1758
   60MOL0     N 8016   5.036   1.166   0.900  0.2656  0.2077 -0.4069
   60MOL0     N 8017   4.992   1.288   0.919 -0.3583  0.4739  0.0470
   60MOL0     C 8018   5.021   1.702   2.065  0.0814 -0.4507 -0.4924
   60MOL0     C 8019   5.070   1.662   2.182 -1.1754  1.0338  0.6339
   60MOL0     C 8020   5.117   1.343   2.505 -0.1340  0.3991  0.8009
   60MOL0     C 8021   5.087   1.207   2.529 -0.3109 -0.2695 -0.0620
   60MOL0     C 8022   5.137   1.143   2.646  0.4125  0.2116  1.2760
   60MOL0     C 8023   5.210   1.218   2.738 -0.0025  0.1319 -0.2536
   60MOL0     O 8024   5.251   1.144   2.845  0.0507 -0.0797 -0.1935
   60MOL0     C 8025   5.332   1.206   2.948  0.1609  0.3263 -0.0615
   60MOL0     C 8026   5.482   1.224   2.899  0.2336 -0.0575 -0.3232
   60MOL0     C 8027   5.569   1.229   3.024 -0.1958 -0.9310 -0.8355
   60MOL0     C 8028   5.585   1.371   3.088 -0.1858  0.4664 -0.3779
   60MOL0     C 8029   5.455   1.398   3.148 -0.3204  0.2549  0.1285
   60MOL0     C 8030   5.350   1.411   3.209 -0.3363 -0.3704  1.1399
   60MOL0     C 8031   5.235   1.350   2.719  0.2063  0.1957 -0.0245
   60MOL0     C 8032   5.201   1.411   2.599  0.4267 -0.5503 -0.3485
   60MOL0     H 8033   4.804   1.597   2.369  0.4914 -1.9930 -0.9338
   60MOL0     H 8034   4.694   1.684   2.156 -0.2862 -4.6448  2.0158
   60MOL0     H 8035   4.946   1.682   1.773  0.0252  0.4062  0.6914
   60MOL0     H 8036   4.833   1.567   1.848 -1.6872  0.0986  1.3005
   60MOL0     H 8037   4.642   1.698   1.732 -1.6862  2.5256 -2.0285
   60MOL0     H 8038   4.769   1.790   1.657 -0.8771 -1.0687 -2.3183
   60MOL0     H 8039   4.867   1.570   1.578 -0.5286 -1.4086  1.0456
   60MOL0     H 8040   4.718   1.499   1.646 -3.9180 -0.3005 -2.2457
   60MOL0     H 8041   4.570   1.631   1.512  0.7123 -2.8457  2.5977
   60MOL0     H 8042   4.715   1.716   1.444  2.0565 -1.2212 -2.6149
   60MOL0     H 8043   4.661   1.418   1.417 -0.9735  0.5333  1.5308
   60MOL0     H 8044   4.611   1.530   1.300  3.1199  4.3222 -2.9184
   60MOL0     H 8045   4.861   1.624   1.275 -1.9518  0.8345 -1.6533
   60MOL0     H 8046   4.911   1.496   1.374  1.8447 -0.7339 -2.4846
   60MOL0     H 8047   4.823   1.322   1.230 -0.0697  0.5435  1.5601
   60MOL0     H 8048   4.758   1.445   1.119  0.9827  0.7009 -0.0894
   60MOL0     H 8049   5.053   1.465   1.187  2.0636  0.2514 -3.5143
   60MOL0     H 8050   4.956   1.521   1.046  0.8191  0.5610 -0.2750
   60MOL0     H 8051   5.149   1.207   1.191  1.9115  1.9613 -0.7247
   60MOL0     H 8052   5.192   0.949   0.926  0.7031  1.6573 -0.0935
   60MOL0     H 8053   5.247   1.005   1.091  2.4301 -2.1921 -0.8996
   60MOL0     H 8054   5.008   0.910   1.174  1.1833 -4.5926  2.2748
   60MOL0     H 8055   5.103   0.790   1.111  0.1918  0.0019 -0.2332
   60MOL0     H 8056   4.991   0.826   0.870 -1.7443 -2.2952 -0.3886
   60MOL0     H 8057   4.888   0.941   0.957 -1.2044 -0.0578  1.5901
   60MOL0     H 8058   4.775   0.791   1.073 -1.1565  0.6037 -0.9930
   60MOL0     H 8059   4.882   0.650   1.045 -0.1591  1.2263  0.3793
   60MOL0     H 8060   4.604   0.546   0.742  1.2693  1.5861 -2.6621
   60MOL0     H 8061   4.610   0.214   0.679 -0.6764 -0.7336 -1.0096
   60MOL0     H 8062   4.526   0.355   0.614  0.2843  0.5945  1.1677
   60MOL0     H 8063   4.648   0.275   0.526  2.9851 -4.4529  1.9919
   60MOL0     H 8064   5.081   0.065   0.485  0.9453 -0.9098 -1.7092
   60MOL0     H 8065   5.150  -0.147   0.371 -0.7087  0.2717 -1.3822
   60MOL0     H 8066   4.845  -0.323   0.191 -0.5247  1.9117  1.8741
   60MOL0     H 8067   4.964  -0.460   0.165  1.8155  1.5826  2.0400
   60MOL0     H 8068   4.851  -0.590   0.345  2.6319  0.6666 -0.0252
   60MOL0     H 8069   4.742  -0.462   0.373  0.5430  0.6716 -0.5004
   60MOL0     H 8070   4.643  -0.518   0.137 -0.3992 -1.8551 -1.0597
   60MOL0     H 8071   4.654  -0.651   0.240 -2.8515  0.7508 -1.4201
   60MOL0     H 8072   4.856  -0.576   0.030 -2.0905  2.2055  1.9664
   60MOL0     H 8073   4.873  -0.720   0.133  3.3233  0.7878  0.5145
   60MOL0     H 8074   4.773  -0.777  -0.089 -1.2703  1.7581 -1.4232
   60MOL0     H 8075   4.633  -0.698  -0.043 -0.4020 -1.0152 -0.5368
   60MOL0     H 8076   4.723  -0.932   0.144  0.0464 -0.2456 -0.5138
   60MOL0     H 8077   4.561  -0.868   0.129 -1.0888  1.0016  0.1147
   60MOL0     H 8078   4.708  -1.016  -0.100  0.0768  1.7234 -2.4535
   60MOL0     H 8079   4.541  -0.947  -0.100  1.9513  0.8560 -1.4362
   60MOL0     H 8080   4.497  -1.091   0.099  0.0643  0.0290 -0.6904
   60MOL0     H 8081   4.654  -1.177   0.059 -0.3408 -0.5197 -1.4230
   60MOL0     H 8082   4.754  -0.309   0.478 -1.4774  1.5079  0.2412
   60MOL0     H 8083   4.695  -0.090   0.547 -0.5270 -0.9289 -0.9992
   60MOL0     H 8084   5.066   0.395   0.788 -0.3815  0.3747  1.5114
   60MOL0     H 8085   5.023   0.603   0.877 -0.1443  1.0774 -0.1802
   60MOL0     H 8086   5.077   1.725   1.975 -1.7634  1.3210 -1.2591
   60MOL0     H 8087   5.178   1.647   2.175 -1.4373 -0.8783 -0.0530
   60MOL0     H 8088   5.011   1.147   2.481 -0.0135 -0.1149 -0.7348
   60MOL0     H 8089   5.108   1.041   2.670  1.3368 -0.3479  0.1297
   60MOL0     H 8090   5.275   1.293   2.984 -1.4614 -0.5170 -0.4745
   60MOL0     H 8091   5.333   1.147   3.040 -0.1633 -0.0075 -0.2660
   60MOL0     H 8092   5.473   1.310   2.833 -4.0400 -0.0887 -0.1075
   60MOL0     H 8093   5.509   1.137   2.838  0.5293 -0.0661 -0.1825
   60MOL0     H 8094   5.669   1.206   2.986 -0.0273 -0.7706 -0.5029
   60MOL0     H 8095   5.545   1.147   3.092  0.2472 -1.6709 -1.5638
   60MOL0     H 8096   5.600   1.437   3.002  1.4864  0.2992 -0.2465
   60MOL0     H 8097   5.664   1.366   3.163 -0.1129 -3.7439 -0.4739
   60MOL0     H 8098   5.263   1.419   3.272 -0.9104 -0.8074  0.4249
   60MOL0     H 8099   5.288   1.412   2.790 -0.3613  0.5139  0.1259
   60MOL0     H 8100   5.214   1.517   2.576 -2.3998 -0.0770 -0.0995
   61MOL0     O 8101   3.746   9.939   3.705 -0.3432  0.0429  0.1868
   61MOL0     C 8102   3.638   9.885   3.706  0.7044  1.0907  0.3444
   61MOL0     O 8103   3.543   9.884   3.606  0.7535 -0.4094  1.3788
   61MOL0     C 8104   3.554   9.982   3.514 -0.1100  0.2223 -0.3288
   61MOL0     C 8105   3.665  10.002   3.437  0.5514  0.4759  1.6233
   61MOL0     C 8106   3.661  10.117   3.346 -0.2085 -0.0572 -0.4002
   61MOL0     C 8107   3.543  10.179   3.316  1.3318 -0.3970  0.0605
   61MOL0     O 8108   3.557  10.278   3.222 -0.3630 -0.3112  0.0177
   61MOL0     C 8109   3.456  10.362   3.177  0.9007  0.0998  0.1951
   61MOL0     C 8110   3.389  10.266   3.074  0.9886 -0.9177 -0.8185
   61MOL0     C 8111   3.308  10.337   2.966  0.8196  0.2813 -0.5484
   61MOL0     C 8112   3.222  10.240   2.888  0.4169  0.0880 -0.7196
   61MOL0     C 8113   3.202  10.289   2.739 -0.2355  0.1683 -0.1128
   61MOL0     C 8114   3.067  10.231   2.696 -0.5525 -0.0611  0.0126
   61MOL0     C 8115   3.038  10.256   2.551  0.2666 -0.4549  0.2195
   61MOL0     C 8116   2.893  10.196   2.523 -0.3207 -0.2659  0.6733
   61MOL0     N 8117   2.789  10.307   2.504  0.0958  0.9480 -0.0928
   61MOL0     C 8118   2.744  10.383   2.603  0.6948 -0.2964  0.5670
   61MOL0     C 8119   2.657  10.465   2.544 -0.9252  0.3397 -0.3801
   61MOL0     C 8120   2.574  10.565   2.616 -0.0292 -0.0084  0.6649
   61MOL0     C 8121   2.623  10.710   2.594  0.3222  0.0806 -0.8881
   61MOL0     C 8122   2.625  10.749   2.442  0.5535 -0.1807  0.4445
   61MOL0     C 8123   2.631  10.904   2.419 -0.2617  0.5310  0.7759
   61MOL0     O 8124   2.749  10.954   2.475  0.4940 -0.2283 -0.0326
   61MOL0     C 8125   2.776  11.087   2.492  0.5267  0.2280  1.0702
   61MOL0     C 8126   2.695  11.187   2.443 -0.0815  0.2059 -0.1458
   61MOL0     C 8127   2.739  11.321   2.438  0.1332 -0.1138  0.2632
   61MOL0     C 8128   2.657  11.408   2.352  0.3490 -0.6918  0.4512
   61MOL0     C 8129   2.852  11.361   2.524 -0.3309  0.1224  0.2810
   61MOL0     C 8130   2.901  11.503   2.554  0.0830  0.3050  0.4568
   61MOL0     O 8131   2.834  11.598   2.481 -0.4645  0.0044  1.0439
   61MOL0     C 8132   2.876  11.729   2.474  0.4356  0.2462 -0.0820
   61MOL0     C 8133   3.008  11.772   2.439 -0.7591 -0.0311 -0.1050
   61MOL0     C 8134   3.048  11.907   2.457 -0.0433 -0.5825 -1.4437
   61MOL0     C 8135   2.971  12.005   2.512 -0.8127 -0.4059  0.1170
   61MOL0     O 8136   3.020  12.139   2.523  0.1809 -0.7900  0.5583
   61MOL0     C 8137   2.929  12.244   2.553  0.4051 -0.2862 -0.0647
   61MOL0     C 8138   3.014  12.371   2.570  0.3348  0.3449  0.1542
   61MOL0     C 8139   2.934  12.493   2.645  0.6360  0.4072 -1.0152
   61MOL0     C 8140   2.925  12.473   2.797 -0.3111 -0.3464  0.2334
   61MOL0     C 8141   2.822  12.579   2.859 -0.5089  0.8546 -0.3333
   61MOL0     C 8142   2.814  12.540   3.002  0.5749 -0.1160  0.0011
   61MOL0     C 8143   2.697  12.443   3.038  0.1577  0.7507 -0.1750
   61MOL0     C 8144   2.724  12.353   3.151 -0.1880  0.3364 -0.5107
   61MOL0    Cl 8145   2.865  12.245   3.113 -0.0283  0.3152  0.2545
   61MOL0     C 8146   2.844  11.962   2.547  0.4669 -0.1001  0.0931
   61MOL0     C 8147   2.793  11.830   2.533 -0.0785 -0.5701 -0.9785
   61MOL0     O 8148   3.007  11.517   2.608  0.7951  0.1749 -0.8159
   61MOL0     C 8149   2.923  11.257   2.588  0.0554 -0.1618  0.5725
   61MOL0     C 8150   2.885  11.123   2.561  0.5614 -0.4798  0.0761
   61MOL0     N 8151   2.670  10.434   2.407  0.0875  0.7901 -0.4608
   61MOL0     N 8152   2.744  10.334   2.383  1.1630  0.1893 -0.4059
   61MOL0     C 8153   3.429  10.136   3.386  0.1678  0.1162  0.3782
   61MOL0     C 8154   3.433  10.035   3.483  0.4136  0.1761  0.0934
   61MOL0     C 8155   3.619   9.797   3.827  0.1704 -0.3721 -0.5920
   61MOL0     C 8156   3.502   9.726   3.842  0.0135 -0.4116  0.1406
   61MOL0     C 8157   3.476   9.643   3.949  0.2116 -0.0022  0.8140
   61MOL0     C 8158   3.570   9.637   4.054  0.1007 -1.5796 -0.6405
   61MOL0     O 8159   3.569   9.549   4.152 -0.4091  0.8870 -0.2571
   61MOL0     C 8160   3.583   9.412   4.115 -0.1858 -0.7652 -0.7767
   61MOL0     C 8161   3.650   9.351   4.241 -0.3173  0.4445  0.3647
   61MOL0     C 8162   3.797   9.379   4.275 -0.6550 -0.2967 -0.1672
   61MOL0     C 8163   3.855   9.302   4.387  0.2169 -0.6224  0.3347
   61MOL0     C 8164   3.798   9.331   4.520 -0.0990 -0.1580  0.3962
   61MOL0     C 8165   3.759   9.344   4.636  0.1556  1.4518 -0.5699
   61MOL0     C 8166   3.681   9.722   4.052  1.3263 -0.0193  1.0448
   61MOL0     C 8167   3.710   9.795   3.938  0.4957 -0.6603 -0.8718
   61MOL0     H 8168   3.752   9.942   3.462  0.1468  0.2606  2.5867
   61MOL0     H 8169   3.739  10.145   3.276 -3.5858 -0.7540 -4.9483
   61MOL0     H 8170   3.391  10.386   3.261  4.8741  2.1905  2.9682
   61MOL0     H 8171   3.482  10.446   3.111  1.0528 -0.5091 -0.5452
   61MOL0     H 8172   3.462  10.206   3.018 -0.7176  0.3105 -4.6467
   61MOL0     H 8173   3.321  10.200   3.129  0.3278 -0.2467 -0.8195
   61MOL0     H 8174   3.243  10.407   3.021  2.6799  0.5301  1.4976
   61MOL0     H 8175   3.372  10.391   2.896  0.7345 -0.5815 -1.3017
   61MOL0     H 8176   3.262  10.138   2.887 -1.2363 -0.6903  1.9506
   61MOL0     H 8177   3.126  10.247   2.940  1.0841  3.8752  0.2418
   61MOL0     H 8178   3.199  10.398   2.735 -1.1827  0.1341 -3.3796
   61MOL0     H 8179   3.287  10.256   2.679  0.7145 -0.3712  1.4597
   61MOL0     H 8180   3.064  10.126   2.727  3.1359  0.7902  4.2029
   61MOL0     H 8181   2.986  10.291   2.738  0.4486  3.0039 -2.1440
   61MOL0     H 8182   3.052  10.357   2.512 -1.9772 -0.2557 -0.2117
   61MOL0     H 8183   3.108  10.193   2.496  1.0970  1.8521 -1.5148
   61MOL0     H 8184   2.859  10.126   2.601 -1.2670 -1.5787 -0.8597
   61MOL0     H 8185   2.900  10.139   2.430 -0.9970  2.3411 -1.0782
   61MOL0     H 8186   2.759  10.374   2.710  1.4977 -1.3358  0.3861
   61MOL0     H 8187   2.471  10.560   2.580  0.6629  0.8772 -1.5964
   61MOL0     H 8188   2.573  10.542   2.723 -0.2847  0.8523  0.8556
   61MOL0     H 8189   2.727  10.715   2.628  0.5445 -0.1439 -1.5108
   61MOL0     H 8190   2.558  10.778   2.648 -0.2643  0.7327 -2.3447
   61MOL0     H 8191   2.536  10.706   2.396  0.0294 -0.6373  1.8158
   61MOL0     H 8192   2.705  10.692   2.394 -1.1359 -2.5965  0.2975
   61MOL0     H 8193   2.543  10.956   2.459  0.0707  1.7957 -0.0792
   61MOL0     H 8194   2.627  10.927   2.312 -3.7024 -3.8038 -0.3447
   61MOL0     H 8195   2.606  11.158   2.389 -0.8555  0.9928  0.6743
   61MOL0     H 8196   2.622  11.498   2.403  2.4802  0.0005  0.7918
   61MOL0     H 8197   2.717  11.451   2.271 -2.4453  0.5725 -1.1143
   61MOL0     H 8198   2.571  11.349   2.316  2.0065 -2.7200 -0.4083
   61MOL0     H 8199   3.078  11.699   2.399  0.9950 -0.3040  3.1122
   61MOL0     H 8200   3.150  11.942   2.443 -0.9645  1.3630 -4.0747
   61MOL0     H 8201   2.845  12.260   2.484 -0.4471  1.9752  1.3950
   61MOL0     H 8202   2.883  12.221   2.649  4.0951  0.5503  2.1102
   61MOL0     H 8203   3.105  12.343   2.623  1.1194  3.1400  0.4693
   61MOL0     H 8204   3.042  12.412   2.472  1.6610  0.9980  0.7889
   61MOL0     H 8205   2.839  12.506   2.593  0.4430  2.8432 -0.1975
   61MOL0     H 8206   2.985  12.587   2.621 -1.0943  1.5720 -0.3298
   61MOL0     H 8207   2.889  12.371   2.814 -0.4310 -0.1734  1.1007
   61MOL0     H 8208   3.022  12.479   2.848 -0.3125 -0.0277  0.1981
   61MOL0     H 8209   2.721  12.573   2.818  0.0894 -0.3291 -1.7644
   61MOL0     H 8210   2.872  12.675   2.845 -1.4352  1.2306 -1.1909
   61MOL0     H 8211   2.906  12.493   3.036  0.1004 -1.8995 -1.0641
   61MOL0     H 8212   2.799  12.626   3.068 -3.3804 -0.9725  0.5036
   61MOL0     H 8213   2.675  12.365   2.964  1.5062 -0.3946  0.5940
   61MOL0     H 8214   2.603  12.498   3.051 -0.9747 -0.9994 -0.6676
   61MOL0     H 8215   2.642  12.281   3.160  1.2990 -1.4620 -0.6531
   61MOL0     H 8216   2.729  12.405   3.247  2.7500  2.2995 -1.5636
   61MOL0     H 8217   2.783  12.032   2.602  0.0447  1.4697 -2.2038
   61MOL0     H 8218   2.698  11.805   2.581  1.7379 -0.2384  3.2237
   61MOL0     H 8219   3.017  11.263   2.642  1.1139  0.4147 -1.2414
   61MOL0     H 8220   2.944  11.047   2.612  0.5397  1.0161  2.5255
   61MOL0     H 8221   3.330  10.179   3.376  0.6088  0.9894 -0.4606
   61MOL0     H 8222   3.348  10.012   3.548  1.5557 -2.5724  0.7616
   61MOL0     H 8223   3.435   9.720   3.756  1.4667  2.2911 -1.3310
   61MOL0     H 8224   3.399   9.566   3.941 -0.5718  0.7711  0.8405
   61MOL0     H 8225   3.488   9.362   4.098 -0.5038 -0.1694 -0.7875
   61MOL0     H 8226   3.648   9.400   4.027 -0.0491 -2.0313 -0.5178
   61MOL0     H 8227   3.629   9.244   4.230 -4.4322  1.1384 -0.3438
   61MOL0     H 8228   3.585   9.380   4.324  0.7487 -1.5733  1.9804
   61MOL0     H 8229   3.821   9.484   4.291 -0.5258 -0.3054 -0.3117
   61MOL0     H 8230   3.855   9.358   4.185 -0.4499  2.3912 -0.7558
   61MOL0     H 8231   3.963   9.322   4.386  0.2731 -0.7448 -2.0625
   61MOL0     H 8232   3.835   9.198   4.360 -0.0794  0.2252 -3.2504
   61MOL0     H 8233   3.736   9.368   4.738  4.0956 -0.0181  0.8700
   61MOL0     H 8234   3.743   9.738   4.140  2.5563  1.1734 -0.0049
   61MOL0     H 8235   3.805   9.848   3.937 -0.8595  1.9249 -1.1242
   62MOL0     O 8236   1.647  10.578  10.188 -0.5105 -0.5802  0.2958
   62MOL0     C 8237   1.639  10.481  10.255  1.2422 -0.2850 -0.2277
   62MOL0     O 8238   1.554  10.464  10.359  0.5442 -0.2806  0.3718
   62MOL0     C 8239   1.479  10.579  10.406 -0.9161 -0.3449  0.1357
   62MOL0     C 8240   1.531  10.665  10.505 -0.5810  0.2068 -0.6883
   62MOL0     C 8241   1.471  10.787  10.528 -0.3385 -0.6897  0.9940
   62MOL0     C 8242   1.344  10.808  10.469 -0.0558 -0.3018  0.3049
   62MOL0     O 8243   1.276  10.921  10.470 -0.7898  0.1130 -1.0229
   62MOL0     C 8244   1.330  11.047  10.518 -0.0406 -0.0910  0.2394
   62MOL0     C 8245   1.213  11.152  10.535  0.4263 -0.0284 -0.6698
   62MOL0     C 8246   1.273  11.293  10.536 -0.3425  0.4988  0.0893
   62MOL0     C 8247   1.171  11.388  10.581  0.7436  0.4606 -0.0523
   62MOL0     C 8248   1.226  11.531  10.567  0.9833  0.4204  0.3607
   62MOL0     C 8249   1.118  11.627  10.615 -0.3657 -0.4544  1.1338
   62MOL0     C 8250   1.157  11.770  10.585  0.2559 -0.5330 -0.7026
   62MOL0     C 8251   1.120  11.809  10.446 -0.8119  0.4560  0.4687
   62MOL0     N 8252   1.171  11.942  10.400  0.8009 -0.1380  0.1434
   62MOL0     C 8253   1.290  12.002  10.422 -0.6572  0.5272 -0.8429
   62MOL0     C 8254   1.272  12.124  10.375 -0.9203 -0.8743 -1.1494
   62MOL0     C 8255   1.379  12.233  10.356 -0.6500  0.0295 -0.2295
   62MOL0     C 8256   1.415  12.305  10.490 -0.3296 -0.1733  0.5962
   62MOL0     C 8257   1.327  12.424  10.531  0.3081  0.6748 -0.0756
   62MOL0     C 8258   1.366  12.473  10.679  0.0457 -0.1101  0.6350
   62MOL0     O 8259   1.333  12.385  10.790  0.1434 -0.1735  0.1897
   62MOL0     C 8260   1.202  12.364  10.803  0.3407 -0.3200 -0.1521
   62MOL0     C 8261   1.130  12.260  10.729  0.1310 -0.3530  0.1414
   62MOL0     C 8262   0.998  12.223  10.759  0.7410  0.3016 -0.0523
   62MOL0     C 8263   0.938  12.109  10.677  0.2371 -0.0501 -0.5960
   62MOL0     C 8264   0.935  12.295  10.867 -0.1680 -0.7325 -0.3322
   62MOL0     C 8265   0.794  12.265  10.914 -0.1288 -0.0037  0.3545
   62MOL0     O 8266   0.761  12.330  11.032 -0.0701 -0.1200 -0.5429
   62MOL0     C 8267   0.628  12.381  11.047  0.5412  0.5091  0.1413
   62MOL0     C 8268   0.506  12.306  11.026 -0.5262 -0.1429  1.0632
   62MOL0     C 8269   0.377  12.358  11.026 -1.1177 -0.3647  1.0421
   62MOL0     C 8270   0.372  12.491  11.064  0.1252 -0.4340 -0.2736
   62MOL0     O 8271   0.251  12.555  11.049 -0.1741  0.2263 -0.3483
   62MOL0     C 8272   0.229  12.669  11.133  0.7412 -0.8037 -0.2770
   62MOL0     C 8273   0.077  12.691  11.125 -0.6700  0.5800 -0.6069
   62MOL0     C 8274   0.037  12.741  10.983 -0.7675 -0.4309 -0.0991
   62MOL0     C 8275  -0.105  12.801  10.986 -0.0258 -0.7489 -0.2393
   62MOL0     C 8276  -0.123  12.883  10.853  0.3158 -0.1058 -0.4523
   62MOL0     C 8277  -0.271  12.918  10.827  0.1431  0.6382  0.1908
   62MOL0     C 8278  -0.328  13.026  10.924  0.5001  0.4811 -1.0101
   62MOL0     C 8279  -0.467  13.059  10.895  0.6199 -0.5296 -0.0308
   62MOL0    Cl 8280  -0.546  13.128  11.041  0.3772 -0.3555 -0.2480
   62MOL0     C 8281   0.493  12.567  11.097  0.0334  0.1801  0.2542
   62MOL0     C 8282   0.618  12.515  11.079  1.1971  1.1903 -0.0377
   62MOL0     O 8283   0.719  12.194  10.843 -0.4554  0.2395 -0.0536
   62MOL0     C 8284   1.004  12.402  10.935 -0.8223 -0.1805 -0.7441
   62MOL0     C 8285   1.135  12.434  10.904  0.1206 -0.1810 -0.0607
   62MOL0     N 8286   1.159  12.140  10.307  0.4776 -0.1484  0.6168
   62MOL0     N 8287   1.093  12.031  10.335 -0.1442  0.6816  0.2571
   62MOL0     C 8288   1.279  10.710  10.387 -0.5942 -0.0540  0.6073
   62MOL0     C 8289   1.351  10.596  10.349  0.1910 -0.4906 -0.5467
   62MOL0     C 8290   1.715  10.360  10.246 -0.9705 -0.4236  0.3484
   62MOL0     C 8291   1.659  10.234  10.282 -0.2668 -0.1291 -0.3114
   62MOL0     C 8292   1.730  10.114  10.251  0.9342 -0.3379  1.4035
   62MOL0     C 8293   1.843  10.116  10.173 -0.6081 -0.3275  0.3962
   62MOL0     O 8294   1.909  10.000  10.139 -0.1395  1.0342 -0.1537
   62MOL0     C 8295   2.011   9.964  10.230 -0.9203  0.7951  0.6419
   62MOL0     C 8296   2.142   9.933  10.157  0.1486 -0.0825  0.0006
   62MOL0     C 8297   2.251   9.906  10.262  0.4754 -0.3989 -0.3559
   62MOL0     C 8298   2.387   9.879  10.199 -0.9224 -0.1661  0.7876
   62MOL0     C 8299   2.392   9.751  10.134 -0.0634  0.1735 -0.3211
   62MOL0     C 8300   2.383   9.645  10.076 -0.8285 -0.1702  0.3093
   62MOL0     C 8301   1.901  10.242  10.137 -0.7132  0.3776 -0.2346
   62MOL0     C 8302   1.841  10.363  10.181 -0.4516  1.0291 -1.2863
   62MOL0     H 8303   1.630  10.646  10.544 -1.7049 -2.2439  1.2370
   62MOL0     H 8304   1.525  10.855  10.593  2.2948  0.8268 -2.4299
   62MOL0     H 8305   1.376  11.030  10.616  0.6796  3.9899  0.7959
   62MOL0     H 8306   1.406  11.086  10.450  0.4405 -1.3895  0.0051
   62MOL0     H 8307   1.150  11.151  10.445 -0.2568  1.6049 -0.2492
   62MOL0     H 8308   1.149  11.121  10.619 -1.0058 -0.0600 -1.7243
   62MOL0     H 8309   1.356  11.312  10.605  1.9362 -3.2874 -1.2987
   62MOL0     H 8310   1.325  11.311  10.442  1.2848  0.5038  0.9558
   62MOL0     H 8311   1.088  11.359  10.517  2.6763 -0.3156 -2.3574
   62MOL0     H 8312   1.134  11.382  10.684 -0.7333  1.9051 -0.4657
   62MOL0     H 8313   1.324  11.537  10.617  0.1386  1.2071  2.0006
   62MOL0     H 8314   1.244  11.549  10.461 -1.0855  1.5895  0.1785
   62MOL0     H 8315   1.027  11.608  10.559 -0.0594  0.3477  0.3430
   62MOL0     H 8316   1.102  11.633  10.723 -5.8098  2.8024  0.5316
   62MOL0     H 8317   1.101  11.834  10.654  3.1512  1.2269  0.1920
   62MOL0     H 8318   1.262  11.783  10.612  0.1024 -0.3776 -0.1771
   62MOL0     H 8319   1.012  11.814  10.433 -0.7552  1.1688  0.2737
   62MOL0     H 8320   1.163  11.732  10.382 -2.9191 -1.6355  1.4127
   62MOL0     H 8321   1.382  11.955  10.456 -1.5322 -0.4307  0.3151
   62MOL0     H 8322   1.470  12.197  10.307 -0.3127  0.6549 -0.0774
   62MOL0     H 8323   1.348  12.304  10.279  1.4413  0.5065 -0.6871
   62MOL0     H 8324   1.516  12.343  10.470 -0.9321  0.3722 -1.8106
   62MOL0     H 8325   1.422  12.231  10.569 -1.3853 -1.6864 -0.6610
   62MOL0     H 8326   1.228  12.377  10.530  0.3231  0.6571 -0.7113
   62MOL0     H 8327   1.341  12.509  10.465 -0.9200  0.8819 -0.0880
   62MOL0     H 8328   1.310  12.568  10.683 -0.1855 -0.1000 -1.5668
   62MOL0     H 8329   1.473  12.494  10.685  0.3543 -1.8503  1.7096
   62MOL0     H 8330   1.179  12.205  10.649 -0.1223 -0.0529 -0.2269
   62MOL0     H 8331   0.934  12.019  10.739 -1.4318  1.4405  1.6225
   62MOL0     H 8332   0.835  12.126  10.643  0.8218  0.4200 -2.2078
   62MOL0     H 8333   0.993  12.081  10.587  1.2279 -3.6117  0.9392
   62MOL0     H 8334   0.530  12.203  10.999 -0.6201  0.5193 -1.8538
   62MOL0     H 8335   0.280  12.311  11.010 -1.5125  0.7697 -0.0741
   62MOL0     H 8336   0.248  12.657  11.240  2.3968 -0.1112 -0.4553
   62MOL0     H 8337   0.282  12.759  11.100  1.6430 -0.4574  1.9105
   62MOL0     H 8338   0.035  12.590  11.128  0.5957  0.0169  2.9124
   62MOL0     H 8339   0.043  12.756  11.206 -0.8914  0.7159 -0.8071
   62MOL0     H 8340   0.058  12.667  10.906 -2.9470  2.1347 -3.4225
   62MOL0     H 8341   0.116  12.815  10.971  0.8833 -1.7230  1.9901
   62MOL0     H 8342  -0.178  12.719  10.978 -0.8040  0.0436 -1.6186
   62MOL0     H 8343  -0.120  12.868  11.071  2.1761 -2.1786  1.3716
   62MOL0     H 8344  -0.089  12.836  10.760 -0.0322 -1.0797 -0.0983
   62MOL0     H 8345  -0.073  12.979  10.868 -5.4381  3.2999  0.1170
   62MOL0     H 8346  -0.285  12.964  10.729 -0.9081  0.6133  0.3154
   62MOL0     H 8347  -0.333  12.828  10.837 -0.4389  0.3741 -3.9986
   62MOL0     H 8348  -0.266  13.116  10.927  0.8740  0.2057 -0.4316
   62MOL0     H 8349  -0.330  12.987  11.026  3.4151  2.9725  0.1628
   62MOL0     H 8350  -0.534  12.987  10.847 -0.1312  0.0736  0.0934
   62MOL0     H 8351  -0.470  13.148  10.831 -1.8834  2.2534  3.5645
   62MOL0     H 8352   0.480  12.672  11.120  3.4725  0.8808 -0.5511
   62MOL0     H 8353   0.700  12.586  11.076  1.9174  0.6826  3.4525
   62MOL0     H 8354   0.961  12.471  11.006  0.8124  1.4598 -1.2509
   62MOL0     H 8355   1.206  12.497  10.956  1.1909 -0.8343 -0.6989
   62MOL0     H 8356   1.181  10.745  10.355 -0.5319  0.3427  0.8375
   62MOL0     H 8357   1.299  10.520  10.290 -0.9026  1.7246 -2.6223
   62MOL0     H 8358   1.568  10.219  10.339 -0.0451 -0.7063 -0.1025
   62MOL0     H 8359   1.697  10.017  10.285 -3.1976  0.1902 -0.5093
   62MOL0     H 8360   2.026  10.053  10.291 -1.8579  0.4501  1.3945
   62MOL0     H 8361   1.982   9.877  10.289  2.1036 -1.5974 -1.0502
   62MOL0     H 8362   2.153  10.025  10.099 -4.2029  1.0398  0.6158
   62MOL0     H 8363   2.126   9.848  10.090 -1.0969 -0.1718  0.3868
   62MOL0     H 8364   2.230   9.824  10.331  1.6488  0.4884  1.0932
   62MOL0     H 8365   2.266  10.005  10.306  3.7576 -1.1038  0.3856
   62MOL0     H 8366   2.465   9.869  10.275 -0.2496 -0.4260  0.0768
   62MOL0     H 8367   2.420   9.953  10.125 -2.3351 -0.5817 -0.3036
   62MOL0     H 8368   2.381   9.546  10.034  2.1882 -0.2428  0.1217
   62MOL0     H 8369   1.985  10.264  10.071 -2.1775  1.4645 -1.8380
   62MOL0     H 8370   1.896  10.454  10.159 -0.3052  0.8598 -1.6329
   63MOL0     O 8371   5.933   1.145   9.712  0.4043 -0.1398 -0.1991
   63MOL0     C 8372   5.856   1.057   9.675  0.0024  0.4472  0.6488
   63MOL0     O 8373   5.766   1.063   9.568  0.0596  1.0371  0.3232
   63MOL0     C 8374   5.710   1.177   9.518  0.0002  1.1886  0.4421
   63MOL0     C 8375   5.649   1.192   9.387 -0.6441  0.9483 -0.0524
   63MOL0     C 8376   5.578   1.296   9.337 -0.0105 -0.5956 -0.3235
   63MOL0     C 8377   5.569   1.412   9.417 -1.2849  0.3932  0.0453
   63MOL0     O 8378   5.515   1.535   9.377 -0.5514 -0.4396  0.1120
   63MOL0     C 8379   5.528   1.567   9.242 -1.0359 -0.3377 -0.1938
   63MOL0     C 8380   5.466   1.711   9.224 -0.0311  0.0625  0.3146
   63MOL0     C 8381   5.486   1.759   9.078  0.1413 -0.6108  0.5386
   63MOL0     C 8382   5.403   1.869   9.030  0.3562  0.1645  0.3115
   63MOL0     C 8383   5.452   1.922   8.897  0.8990  0.5758  0.1028
   63MOL0     C 8384   5.346   1.995   8.824  0.1657  0.2685  0.3266
   63MOL0     C 8385   5.406   2.085   8.710  0.4454  0.0741  0.2298
   63MOL0     C 8386   5.305   2.169   8.631  1.1041 -0.1622  0.0400
   63MOL0     N 8387   5.351   2.221   8.501  0.3660  0.3200 -0.2748
   63MOL0     C 8388   5.434   2.325   8.478  0.7176  1.7034 -0.5164
   63MOL0     C 8389   5.435   2.339   8.344  0.7018 -0.3872 -0.2747
   63MOL0     C 8390   5.505   2.447   8.260 -0.4507 -0.4446 -0.0394
   63MOL0     C 8391   5.413   2.569   8.221 -0.0615 -0.1303  0.6862
   63MOL0     C 8392   5.293   2.512   8.144 -0.3450  0.7506 -0.4472
   63MOL0     C 8393   5.228   2.600   8.049 -0.1121  0.3691  0.3559
   63MOL0     O 8394   5.108   2.531   7.990  0.1329 -0.2445  0.2688
   63MOL0     C 8395   5.000   2.616   7.994 -0.4980 -0.2984  0.9377
   63MOL0     C 8396   4.937   2.647   8.113 -0.1785 -0.9113 -0.7412
   63MOL0     C 8397   4.834   2.723   8.129 -0.5556 -0.4454  0.0947
   63MOL0     C 8398   4.772   2.733   8.266  0.8401  0.3404 -0.6532
   63MOL0     C 8399   4.780   2.784   8.016 -0.2645  0.5440  0.5364
   63MOL0     C 8400   4.657   2.866   8.004 -0.6204 -0.2289  0.3276
   63MOL0     O 8401   4.604   2.851   7.884 -0.0564  0.4018  1.2133
   63MOL0     C 8402   4.533   2.955   7.832 -0.4510 -0.1840  0.0105
   63MOL0     C 8403   4.602   3.068   7.779  0.3803  0.4003  0.1708
   63MOL0     C 8404   4.530   3.174   7.723  0.5431  0.1881 -0.4598
   63MOL0     C 8405   4.392   3.165   7.709  0.0583 -0.1917  0.1417
   63MOL0     O 8406   4.321   3.257   7.643 -0.0987 -0.5910  0.1247
   63MOL0     C 8407   4.374   3.383   7.593  0.3921  0.1356  0.7439
   63MOL0     C 8408   4.255   3.472   7.549 -0.1511  0.8578  0.6008
   63MOL0     C 8409   4.148   3.537   7.648  0.2833  0.4050  0.6090
   63MOL0     C 8410   4.110   3.438   7.769  0.4637 -0.1937 -1.0111
   63MOL0     C 8411   3.989   3.481   7.849 -0.8776 -0.5193 -0.5092
   63MOL0     C 8412   4.005   3.607   7.942 -0.5364 -0.0646 -0.3774
   63MOL0     C 8413   3.877   3.674   8.000  0.1046 -0.3279 -0.2353
   63MOL0     C 8414   3.770   3.573   8.059  0.3034 -0.0126  1.4017
   63MOL0    Cl 8415   3.828   3.507   8.208 -0.5004  0.0531 -0.3734
   63MOL0     C 8416   4.330   3.044   7.745  0.4175 -0.6572  0.6723
   63MOL0     C 8417   4.405   2.944   7.802  0.3975 -0.1940  0.0133
   63MOL0     O 8418   4.607   2.940   8.090 -0.5827 -0.0328 -0.2173
   63MOL0     C 8419   4.852   2.766   7.890  0.5490 -0.4467 -0.0536
   63MOL0     C 8420   4.959   2.684   7.878 -1.4127  0.0509  0.1932
   63MOL0     N 8421   5.349   2.240   8.290  0.4085  0.1237 -0.4593
   63MOL0     N 8422   5.294   2.177   8.382 -0.1638  0.1525  0.7553
   63MOL0     C 8423   5.620   1.407   9.546  0.7156 -0.0431  0.2491
   63MOL0     C 8424   5.683   1.290   9.596 -0.1951  0.7839 -0.4945
   63MOL0     C 8425   5.847   0.929   9.752  0.1456 -0.9395 -0.3688
   63MOL0     C 8426   5.963   0.877   9.811 -0.4123  1.6897 -0.0928
   63MOL0     C 8427   5.949   0.764   9.892 -0.3002  0.5014 -0.9792
   63MOL0     C 8428   5.826   0.709   9.927 -0.5779  0.2999 -1.1913
   63MOL0     O 8429   5.809   0.624  10.027 -0.2566  0.4751 -0.6599
   63MOL0     C 8430   5.933   0.567  10.091  0.1925 -0.1265  0.1474
   63MOL0     C 8431   5.883   0.446  10.175 -0.2782 -0.2843 -0.0538
   63MOL0     C 8432   5.773   0.470  10.287  0.1727  0.5650  0.0730
   63MOL0     C 8433   5.769   0.377  10.401 -0.3367  0.3439 -0.4703
   63MOL0     C 8434   5.881   0.403  10.501  0.1347 -0.4185  0.5376
   63MOL0     C 8435   5.942   0.448  10.593  0.2290  1.3871  0.0480
   63MOL0     C 8436   5.710   0.764   9.865  0.8150 -0.0402  0.1884
   63MOL0     C 8437   5.721   0.876   9.778 -0.4010  0.4623  0.2628
   63MOL0     H 8438   5.672   1.114   9.314  2.1819 -1.5845  3.2161
   63MOL0     H 8439   5.531   1.290   9.239  1.7111 -0.6632 -1.1852
   63MOL0     H 8440   5.632   1.564   9.209 -1.0920  2.4343 -0.8785
   63MOL0     H 8441   5.475   1.496   9.178  2.3544 -0.7053 -2.8861
   63MOL0     H 8442   5.359   1.704   9.246 -0.0171 -1.9662 -0.0212
   63MOL0     H 8443   5.518   1.782   9.289  1.4720 -2.1102  1.6136
   63MOL0     H 8444   5.586   1.805   9.076 -1.0572  2.2517 -1.9466
   63MOL0     H 8445   5.476   1.682   9.001 -0.9303  2.3932 -2.5688
   63MOL0     H 8446   5.303   1.824   9.032  1.1720 -1.7396  1.5915
   63MOL0     H 8447   5.407   1.948   9.105 -0.9264 -0.2827  0.8749
   63MOL0     H 8448   5.537   1.982   8.930  0.2848  1.9605 -0.7282
   63MOL0     H 8449   5.488   1.848   8.824  0.3778 -1.9162  2.2290
   63MOL0     H 8450   5.282   1.918   8.780 -0.7779  0.7880  0.7552
   63MOL0     H 8451   5.297   2.054   8.902  1.3198  0.5191  0.8768
   63MOL0     H 8452   5.478   2.156   8.753  2.6795 -0.2981 -2.5408
   63MOL0     H 8453   5.458   2.022   8.637 -0.3947 -0.7314  0.3050
   63MOL0     H 8454   5.282   2.259   8.688  2.7147 -0.3009  0.9660
   63MOL0     H 8455   5.219   2.103   8.616  0.9010 -0.0006  0.4794
   63MOL0     H 8456   5.478   2.383   8.558 -0.8702 -0.2291  1.9119
   63MOL0     H 8457   5.586   2.491   8.319  0.0793  0.6391 -1.5233
   63MOL0     H 8458   5.572   2.392   8.193  1.7831 -1.9014  3.0891
   63MOL0     H 8459   5.471   2.628   8.149  0.1086 -1.5064 -0.3330
   63MOL0     H 8460   5.382   2.641   8.297  0.8981 -0.5042  1.4572
   63MOL0     H 8461   5.222   2.480   8.220  0.9537  2.5381  1.6587
   63MOL0     H 8462   5.323   2.427   8.082 -1.0452 -0.1009  0.3582
   63MOL0     H 8463   5.285   2.611   7.956  1.1045 -0.7611  0.9307
   63MOL0     H 8464   5.201   2.698   8.088  0.0201  1.4151 -1.9605
   63MOL0     H 8465   4.993   2.599   8.192 -1.5269  2.9537  2.9061
   63MOL0     H 8466   4.799   2.826   8.316  0.7123 -1.1894  2.5571
   63MOL0     H 8467   4.667   2.704   8.275  0.6811 -0.3263 -3.5537
   63MOL0     H 8468   4.827   2.662   8.329  1.6077  1.3252 -0.1797
   63MOL0     H 8469   4.710   3.066   7.784  0.4924 -4.4986  0.8521
   63MOL0     H 8470   4.580   3.258   7.676 -2.0854  1.6893 -0.7546
   63MOL0     H 8471   4.425   3.444   7.668 -2.4504  1.4647  1.7299
   63MOL0     H 8472   4.431   3.365   7.501  1.8033 -0.8308  1.7662
   63MOL0     H 8473   4.311   3.552   7.499 -0.5775 -0.0938 -1.5070
   63MOL0     H 8474   4.208   3.440   7.455  0.7184 -2.6173  1.2166
   63MOL0     H 8475   4.054   3.542   7.593  0.1266 -5.0154 -0.1422
   63MOL0     H 8476   4.189   3.630   7.688  2.9070 -0.7717  0.8397
   63MOL0     H 8477   4.101   3.335   7.731  0.1885 -1.0937  1.3064
   63MOL0     H 8478   4.189   3.422   7.843 -1.3695 -1.0532  0.8439
   63MOL0     H 8479   3.971   3.391   7.908  0.1348 -3.7050 -4.6111
   63MOL0     H 8480   3.912   3.498   7.773 -0.5953 -1.5317 -1.0355
   63MOL0     H 8481   4.049   3.573   8.036 -1.4707 -0.7931 -0.1882
   63MOL0     H 8482   4.052   3.692   7.893 -5.4543  4.0225  1.1393
   63MOL0     H 8483   3.826   3.725   7.917  1.4993 -0.0991 -0.9935
   63MOL0     H 8484   3.906   3.756   8.066 -0.8641  2.9845 -3.5489
   63MOL0     H 8485   3.754   3.493   7.986 -1.2971  0.2785  1.4028
   63MOL0     H 8486   3.679   3.626   8.091 -0.3860 -1.1198  1.3272
   63MOL0     H 8487   4.225   3.022   7.727  0.9234 -2.7663 -0.0655
   63MOL0     H 8488   4.363   2.852   7.842 -1.0250  1.6670  3.1613
   63MOL0     H 8489   4.826   2.813   7.795  0.1715 -1.1526 -0.3116
   63MOL0     H 8490   5.007   2.678   7.781 -2.2988  3.9181 -0.6458
   63MOL0     H 8491   5.597   1.485   9.617  1.8538 -0.4266  1.0696
   63MOL0     H 8492   5.717   1.287   9.699  1.8300 -4.1895 -1.0130
   63MOL0     H 8493   6.063   0.918   9.813  0.0220  0.8722 -2.0628
   63MOL0     H 8494   6.037   0.716   9.933  2.0450  0.5344 -5.3780
   63MOL0     H 8495   5.990   0.522  10.009  1.0666 -1.7886  1.6067
   63MOL0     H 8496   5.984   0.640  10.155  0.0528 -1.1055  1.4020
   63MOL0     H 8497   5.969   0.406  10.229 -1.4217 -1.8565  0.6913
   63MOL0     H 8498   5.845   0.372  10.105  0.5842  0.3621 -1.2449
   63MOL0     H 8499   5.682   0.438  10.236  0.4167  2.5416 -1.7907
   63MOL0     H 8500   5.752   0.576  10.308 -0.0549  0.7070 -0.8355
   63MOL0     H 8501   5.794   0.274  10.371  1.9658  0.4179  0.9246
   63MOL0     H 8502   5.668   0.374  10.442 -1.3523 -1.7010 -2.8137
   63MOL0     H 8503   5.971   0.483  10.690 -3.0672  0.0786  1.6366
   63MOL0     H 8504   5.619   0.709   9.885  2.0799 -2.7380 -0.9379
   63MOL0     H 8505   5.634   0.916   9.726  1.3224  1.9851 -1.6446
   64MOL0     O 8506   8.287   3.920   4.757 -0.5721  0.2323 -0.4509
   64MOL0     C 8507   8.324   3.905   4.642 -0.4271  0.3609  0.3488
   64MOL0     O 8508   8.455   3.907   4.610  0.2413  0.1111 -0.2001
   64MOL0     C 8509   8.555   3.942   4.702  0.7253  0.0803  0.3860
   64MOL0     C 8510   8.652   3.853   4.731  0.3375  0.0353 -0.3816
   64MOL0     C 8511   8.762   3.885   4.811 -0.0896 -0.2526 -0.5880
   64MOL0     C 8512   8.760   3.996   4.891 -0.4948 -1.1089  0.6774
   64MOL0     O 8513   8.859   4.024   4.982 -0.1509  0.1593  0.4646
   64MOL0     C 8514   8.985   4.048   4.920 -0.0038 -0.3367  0.5828
   64MOL0     C 8515   9.044   4.172   4.991  0.8497 -0.1108 -0.0110
   64MOL0     C 8516   8.991   4.305   4.919 -0.4642 -0.3975 -0.1524
   64MOL0     C 8517   9.050   4.325   4.772 -1.0917 -0.2714 -0.1548
   64MOL0     C 8518   9.201   4.332   4.763  0.0806  0.1783  0.9283
   64MOL0     C 8519   9.270   4.426   4.860 -0.6256 -0.4035 -0.6961
   64MOL0     C 8520   9.226   4.571   4.850 -0.2262 -0.6921  0.6306
   64MOL0     C 8521   9.262   4.648   4.716 -0.4844 -0.2032  0.4612
   64MOL0     N 8522   9.163   4.646   4.614  0.3873 -0.9855 -0.5245
   64MOL0     C 8523   9.059   4.734   4.616  0.1473 -0.1175 -0.8257
   64MOL0     C 8524   8.994   4.712   4.499  0.4617  0.5294  1.1008
   64MOL0     C 8525   8.892   4.810   4.439  0.1746 -0.4037  0.9374
   64MOL0     C 8526   8.871   4.757   4.280  0.4915  0.1122 -1.0348
   64MOL0     C 8527   8.778   4.845   4.197 -0.0134 -0.4562 -0.3367
   64MOL0     C 8528   8.827   4.979   4.134  0.2397  1.0261 -0.1358
   64MOL0     O 8529   8.726   5.023   4.042 -0.6877 -0.1600 -0.1321
   64MOL0     C 8530   8.710   5.162   4.027 -0.2266 -0.7751 -0.3089
   64MOL0     C 8531   8.588   5.194   3.971  0.5193  0.6559  0.3804
   64MOL0     C 8532   8.554   5.328   3.943  0.1677  0.3660 -0.9705
   64MOL0     C 8533   8.420   5.354   3.878  1.1742 -0.3298 -0.1417
   64MOL0     C 8534   8.643   5.432   3.972 -0.1010  0.4531 -0.1593
   64MOL0     C 8535   8.613   5.577   3.962  0.0670 -0.2779  0.1847
   64MOL0     O 8536   8.682   5.661   4.046  0.4259 -0.4028  0.2914
   64MOL0     C 8537   8.685   5.791   4.011 -0.9538 -0.9696  0.5085
   64MOL0     C 8538   8.587   5.880   4.035  0.9265  0.5761 -0.9232
   64MOL0     C 8539   8.585   6.011   3.988  0.1860 -0.2359 -0.0401
   64MOL0     C 8540   8.693   6.071   3.926 -0.7609  0.3321  0.4418
   64MOL0     O 8541   8.677   6.201   3.876  0.0616  0.4160 -0.1409
   64MOL0     C 8542   8.785   6.297   3.857 -0.1586 -0.0261  0.1282
   64MOL0     C 8543   8.785   6.401   3.968 -0.3482  0.7797 -0.6872
   64MOL0     C 8544   8.927   6.403   4.023 -0.4158 -0.0886 -0.3317
   64MOL0     C 8545   8.945   6.494   4.145  0.8609 -0.5516 -0.5607
   64MOL0     C 8546   9.085   6.566   4.165 -0.1242 -0.5385  0.4284
   64MOL0     C 8547   9.205   6.472   4.149 -0.2599 -0.0950  0.4186
   64MOL0     C 8548   9.317   6.521   4.057  0.8716  0.0158  0.5318
   64MOL0     C 8549   9.425   6.414   4.029  0.4387  0.1483 -0.1965
   64MOL0    Cl 8550   9.345   6.282   3.941  0.4913 -0.0629  0.2783
   64MOL0     C 8551   8.800   5.989   3.901 -0.7830  0.3451 -0.7754
   64MOL0     C 8552   8.800   5.851   3.946  0.7274 -0.2726  0.3536
   64MOL0     O 8553   8.536   5.617   3.872 -0.0359  0.4077 -0.6441
   64MOL0     C 8554   8.767   5.399   4.034 -0.0534 -0.4097  0.8841
   64MOL0     C 8555   8.798   5.268   4.062 -1.1300  0.3186 -0.3179
   64MOL0     N 8556   9.043   4.594   4.439 -0.2084  0.1341  0.3516
   64MOL0     N 8557   9.144   4.564   4.511 -0.3456  0.3231 -0.2365
   64MOL0     C 8558   8.657   4.091   4.857 -0.2782  0.2642 -0.5908
   64MOL0     C 8559   8.554   4.066   4.766 -0.1336  1.4592  0.4724
   64MOL0     C 8560   8.235   3.843   4.539  0.6578  0.5807  0.7007
   64MOL0     C 8561   8.271   3.821   4.404  0.8085  0.0852  0.2654
   64MOL0     C 8562   8.175   3.781   4.315  0.3882 -0.5758  0.7928
   64MOL0     C 8563   8.042   3.764   4.346  1.0722  0.5677 -0.4394
   64MOL0     O 8564   7.958   3.719   4.251  0.2849 -0.2828 -0.2659
   64MOL0     C 8565   7.820   3.672   4.279 -0.3377 -1.3560 -0.3315
   64MOL0     C 8566   7.805   3.526   4.305  0.8073  0.6469 -0.1841
   64MOL0     C 8567   7.853   3.438   4.196 -0.0165 -0.7096 -0.5370
   64MOL0     C 8568   7.911   3.304   4.247 -0.4845  1.4385  0.4238
   64MOL0     C 8569   7.800   3.229   4.305  0.0701  0.5949  0.6116
   64MOL0     C 8570   7.706   3.183   4.358  0.9487 -0.6800 -0.2413
   64MOL0     C 8571   7.999   3.797   4.479  0.1620 -0.4228  0.2817
   64MOL0     C 8572   8.097   3.827   4.576 -0.0349  0.0971  0.4542
   64MOL0     H 8573   8.656   3.761   4.674  2.4603  0.2794 -0.7260
   64MOL0     H 8574   8.853   3.828   4.831 -0.0915  0.6865  2.7669
   64MOL0     H 8575   9.044   3.956   4.915  0.0993 -0.1991 -2.3505
   64MOL0     H 8576   8.972   4.076   4.815  2.3726 -0.9792  0.0407
   64MOL0     H 8577   9.014   4.184   5.096 -0.9080 -0.8857 -0.3881
   64MOL0     H 8578   9.153   4.170   4.976  0.6418  1.8992 -2.4133
   64MOL0     H 8579   8.882   4.302   4.921 -0.4608 -1.1916 -0.5055
   64MOL0     H 8580   9.010   4.398   4.973  0.6678 -1.0119  0.5572
   64MOL0     H 8581   9.018   4.243   4.708 -1.7938 -0.2369  0.1420
   64MOL0     H 8582   9.014   4.415   4.720  0.4331  1.2696  1.3208
   64MOL0     H 8583   9.245   4.232   4.778  0.8032  0.0875 -1.4010
   64MOL0     H 8584   9.225   4.371   4.664 -0.7492 -0.8266  0.3072
   64MOL0     H 8585   9.244   4.399   4.962 -0.8975 -1.4986 -1.0423
   64MOL0     H 8586   9.379   4.415   4.855 -0.5381 -0.0140  0.2357
   64MOL0     H 8587   9.117   4.582   4.854 -0.3953 -2.2676  0.9720
   64MOL0     H 8588   9.264   4.621   4.939  2.9681  1.2525 -1.6024
   64MOL0     H 8589   9.358   4.611   4.677  0.1883 -2.0960  3.4864
   64MOL0     H 8590   9.278   4.750   4.752  1.3410 -0.3676  0.1999
   64MOL0     H 8591   9.036   4.805   4.695  0.9043 -0.7235 -0.0349
   64MOL0     H 8592   8.796   4.793   4.490 -1.2738 -2.6366 -2.1488
   64MOL0     H 8593   8.939   4.909   4.441  0.0874 -0.3571  0.6203
   64MOL0     H 8594   8.820   4.660   4.278 -1.3059  1.0062 -0.4181
   64MOL0     H 8595   8.971   4.743   4.236  2.5054  0.4427  2.9209
   64MOL0     H 8596   8.686   4.858   4.255  1.2425  1.7991  1.3215
   64MOL0     H 8597   8.765   4.789   4.104  2.4096 -0.7022 -0.5899
   64MOL0     H 8598   8.923   4.950   4.092  1.2074  0.1475  2.4952
   64MOL0     H 8599   8.854   5.049   4.214  1.3965 -1.1678  1.5247
   64MOL0     H 8600   8.529   5.107   3.946  1.7901 -0.7897  2.1723
   64MOL0     H 8601   8.361   5.415   3.947  0.7749 -0.7328 -0.1137
   64MOL0     H 8602   8.435   5.396   3.778  3.1848  0.1701  0.3421
   64MOL0     H 8603   8.370   5.258   3.859  1.4641 -0.3039 -1.1148
   64MOL0     H 8604   8.497   5.834   4.075  0.3042  0.1460 -2.7312
   64MOL0     H 8605   8.495   6.068   4.006 -0.6732 -1.7928  0.8737
   64MOL0     H 8606   8.879   6.241   3.852  0.1311  0.0291  3.0239
   64MOL0     H 8607   8.767   6.353   3.765  0.7096  1.1448  0.6494
   64MOL0     H 8608   8.744   6.497   3.935  0.4819  0.8889 -1.4289
   64MOL0     H 8609   8.717   6.371   4.048  1.9218  1.0918  1.4797
   64MOL0     H 8610   9.011   6.424   3.956 -0.6664  1.3525 -0.2201
   64MOL0     H 8611   8.953   6.301   4.053  1.6304  0.0183 -1.5274
   64MOL0     H 8612   8.864   6.567   4.143 -0.2277 -1.7356 -0.6983
   64MOL0     H 8613   8.941   6.434   4.236  3.9003 -0.6022 -0.3337
   64MOL0     H 8614   9.082   6.615   4.262  0.0454 -0.9162  0.6278
   64MOL0     H 8615   9.080   6.643   4.087 -3.5396  1.3290  2.2776
   64MOL0     H 8616   9.236   6.449   4.251 -2.1627 -1.6223  0.7243
   64MOL0     H 8617   9.175   6.374   4.110  1.2123 -0.0305 -0.9480
   64MOL0     H 8618   9.359   6.614   4.095  3.2356 -0.8065  0.1100
   64MOL0     H 8619   9.259   6.540   3.966  0.6294  3.0327  1.2244
   64MOL0     H 8620   9.475   6.376   4.119  1.8331  0.7036 -0.7187
   64MOL0     H 8621   9.502   6.462   3.969 -1.7711  0.7909 -2.7017
   64MOL0     H 8622   8.889   6.025   3.851  0.2605 -1.4479 -0.3222
   64MOL0     H 8623   8.887   5.794   3.917  0.0291  0.5888 -4.2170
   64MOL0     H 8624   8.837   5.476   4.066 -0.0058 -0.3881  0.7260
   64MOL0     H 8625   8.893   5.233   4.101 -2.4759 -2.5924  0.6132
   64MOL0     H 8626   8.660   4.188   4.904  2.4063  0.4419 -0.9925
   64MOL0     H 8627   8.487   4.144   4.731 -0.0546  2.1583  1.8229
   64MOL0     H 8628   8.374   3.828   4.371  0.2478 -0.4680 -1.7187
   64MOL0     H 8629   8.188   3.754   4.211 -0.1763 -1.3008  0.8953
   64MOL0     H 8630   7.783   3.719   4.371  2.9295 -1.2092  1.0169
   64MOL0     H 8631   7.758   3.700   4.193 -0.5810  2.8977  0.9921
   64MOL0     H 8632   7.698   3.507   4.313 -0.0021  3.9234 -1.5415
   64MOL0     H 8633   7.851   3.499   4.401 -3.9883  0.3726  2.3614
   64MOL0     H 8634   7.935   3.488   4.143  0.8705 -3.2089 -1.6454
   64MOL0     H 8635   7.773   3.430   4.123 -1.3673 -1.9440  1.0243
   64MOL0     H 8636   7.982   3.309   4.330 -0.9652 -2.4741  1.2617
   64MOL0     H 8637   7.957   3.248   4.165  2.7758  1.1183  2.3110
   64MOL0     H 8638   7.621   3.146   4.411  2.5007 -3.0127  0.7724
   64MOL0     H 8639   7.895   3.787   4.511 -0.7491  4.5365 -0.3008
   64MOL0     H 8640   8.068   3.843   4.679  2.6785 -1.4603  1.5859
   65MOL0     O 8641   5.030   5.895   8.961  0.8409 -0.1957  0.0331
   65MOL0     C 8642   4.918   5.917   9.022 -0.2016 -0.5819  0.0311
   65MOL0     O 8643   4.789   5.909   8.969  0.2186  0.1972  0.2226
   65MOL0     C 8644   4.774   5.896   8.833 -1.6613  0.7387 -0.2644
   65MOL0     C 8645   4.669   5.812   8.796  0.1411  0.9142 -0.0463
   65MOL0     C 8646   4.642   5.787   8.664  0.7534 -0.4103 -1.2628
   65MOL0     C 8647   4.716   5.853   8.569 -0.8592  0.8869  0.1756
   65MOL0     O 8648   4.688   5.829   8.430 -0.3268  1.2611  0.0196
   65MOL0     C 8649   4.620   5.707   8.387 -0.7340  0.5214  0.3959
   65MOL0     C 8650   4.616   5.712   8.239 -0.4266  0.0182  0.7806
   65MOL0     C 8651   4.524   5.824   8.193  0.5203  0.4838  0.0754
   65MOL0     C 8652   4.534   5.848   8.041  0.4939 -0.4188  0.1964
   65MOL0     C 8653   4.434   5.953   7.993 -0.4133  0.3902 -1.2129
   65MOL0     C 8654   4.458   6.101   8.045  0.0457 -0.1708 -0.4564
   65MOL0     C 8655   4.468   6.203   7.941  1.1663  0.5890  0.2293
   65MOL0     C 8656   4.537   6.328   7.984  0.1481  0.2988  0.7555
   65MOL0     N 8657   4.483   6.453   7.925 -0.0075  1.0676  0.2656
   65MOL0     C 8658   4.359   6.507   7.947 -0.0161 -0.2201 -0.6033
   65MOL0     C 8659   4.365   6.638   7.903 -0.9313 -0.8093  0.1228
   65MOL0     C 8660   4.266   6.747   7.923  0.8148  0.3696 -1.2260
   65MOL0     C 8661   4.157   6.750   7.813 -0.1408  0.5602 -1.1609
   65MOL0     C 8662   4.059   6.636   7.842 -0.2498  0.0480  0.6041
   65MOL0     C 8663   3.928   6.638   7.759  0.7515  0.0778 -0.8319
   65MOL0     O 8664   3.839   6.544   7.827  0.4424 -0.0006  0.3046
   65MOL0     C 8665   3.726   6.493   7.765  0.3945  0.3402 -0.7570
   65MOL0     C 8666   3.682   6.519   7.628 -0.2231 -0.3575 -0.1743
   65MOL0     C 8667   3.564   6.460   7.577 -0.1741 -0.2017 -0.9071
   65MOL0     C 8668   3.506   6.501   7.445  0.1390 -0.4311  0.9526
   65MOL0     C 8669   3.496   6.367   7.672 -0.1011 -0.0163 -0.3139
   65MOL0     C 8670   3.381   6.286   7.619  0.7766  0.1366 -0.1403
   65MOL0     O 8671   3.282   6.241   7.712 -0.4872 -0.3089  0.9552
   65MOL0     C 8672   3.193   6.146   7.660 -0.5300  0.0940 -0.6935
   65MOL0     C 8673   3.062   6.185   7.632  0.9425  0.0619  0.0012
   65MOL0     C 8674   2.965   6.093   7.588 -0.6620  1.2472 -0.4674
   65MOL0     C 8675   3.005   5.969   7.538  0.2121  0.1020  0.5945
   65MOL0     O 8676   2.916   5.876   7.484  0.5917 -0.1990 -0.4963
   65MOL0     C 8677   2.959   5.752   7.425  0.2847 -0.6046  0.2358
   65MOL0     C 8678   2.988   5.646   7.543 -0.0763  0.1729  0.2595
   65MOL0     C 8679   3.054   5.524   7.478  0.4106  0.4950  0.3194
   65MOL0     C 8680   3.054   5.391   7.558 -0.2343  0.3808  0.5430
   65MOL0     C 8681   3.164   5.391   7.661 -0.3673 -0.3919 -0.3023
   65MOL0     C 8682   3.179   5.249   7.719  0.7267 -0.0760 -0.6132
   65MOL0     C 8683   3.316   5.227   7.784  0.9833  0.0617  0.5767
   65MOL0     C 8684   3.318   5.084   7.858 -0.5379  0.3046  0.3911
   65MOL0    Cl 8685   3.277   5.100   8.042  0.2027 -0.2519 -0.2691
   65MOL0     C 8686   3.143   5.933   7.569  0.4288  0.8857  0.0607
   65MOL0     C 8687   3.233   6.016   7.633  0.1243 -0.7407  0.0311
   65MOL0     O 8688   3.379   6.247   7.503 -0.1963  0.2144  0.5987
   65MOL0     C 8689   3.531   6.360   7.811  0.1737  0.3282 -0.5332
   65MOL0     C 8690   3.640   6.426   7.854  0.2592 -0.5965 -0.5963
   65MOL0     N 8691   4.475   6.649   7.817 -1.1859  0.1845 -0.8236
   65MOL0     N 8692   4.548   6.535   7.839 -0.8676  1.3531  0.2974
   65MOL0     C 8693   4.819   5.946   8.600  0.6243 -1.0118 -0.2805
   65MOL0     C 8694   4.843   5.960   8.736 -0.2656 -0.0040 -0.6344
   65MOL0     C 8695   4.935   5.953   9.163 -0.0732 -0.3392 -0.0226
   65MOL0     C 8696   4.829   6.001   9.230 -0.2258  0.4607  0.0121
   65MOL0     C 8697   4.828   6.033   9.364  0.0555 -0.1536 -0.3014
   65MOL0     C 8698   4.942   6.016   9.436  0.1575  1.1652  0.5412
   65MOL0     O 8699   4.955   6.040   9.568  0.5529  0.1045  0.4073
   65MOL0     C 8700   4.887   6.157   9.628  0.5644 -0.2290  0.9722
   65MOL0     C 8701   4.895   6.163   9.777  0.6365 -0.6099 -0.6744
   65MOL0     C 8702   5.025   6.104   9.839  0.2605  0.3423  0.3868
   65MOL0     C 8703   5.152   6.152   9.768  0.0306  0.2168  0.6896
   65MOL0     C 8704   5.155   6.297   9.771 -0.2072 -1.3902 -0.0890
   65MOL0     C 8705   5.162   6.418   9.765 -0.7785  0.6908  0.2972
   65MOL0     C 8706   5.061   5.963   9.370  0.3498 -0.0411 -0.5149
   65MOL0     C 8707   5.058   5.939   9.231 -0.5383 -1.5422  0.2397
   65MOL0     H 8708   4.629   5.757   8.881  3.3039  0.3738  1.2383
   65MOL0     H 8709   4.581   5.701   8.636  2.7753 -1.8947 -1.3121
   65MOL0     H 8710   4.676   5.618   8.418 -2.3132 -0.3684  0.8121
   65MOL0     H 8711   4.519   5.689   8.424 -1.3480  1.2603 -0.8459
   65MOL0     H 8712   4.719   5.734   8.209 -1.0643  1.1376 -0.7243
   65MOL0     H 8713   4.587   5.619   8.190 -1.2507  2.0059 -2.9011
   65MOL0     H 8714   4.424   5.800   8.230  0.1599  3.4247  1.2769
   65MOL0     H 8715   4.557   5.915   8.245  0.1347  0.8619 -0.3440
   65MOL0     H 8716   4.636   5.886   8.028 -0.0546  0.5419 -1.7238
   65MOL0     H 8717   4.517   5.757   7.982  0.0200 -2.0337  2.6950
   65MOL0     H 8718   4.427   5.959   7.884  0.7592  2.1668 -1.2447
   65MOL0     H 8719   4.333   5.919   8.019 -0.5309  0.9636 -0.8877
   65MOL0     H 8720   4.373   6.135   8.104 -1.5716  2.1447 -3.8294
   65MOL0     H 8721   4.552   6.107   8.102 -0.0495 -0.3534 -0.2772
   65MOL0     H 8722   4.511   6.167   7.847 -2.5234  0.4776 -1.6244
   65MOL0     H 8723   4.369   6.240   7.911  1.9776  3.8131  1.0510
   65MOL0     H 8724   4.635   6.317   7.938 -0.0034  0.0562  0.4867
   65MOL0     H 8725   4.558   6.348   8.090  3.4368  0.5384  0.1587
   65MOL0     H 8726   4.278   6.454   7.995  0.0921 -2.7069 -2.9129
   65MOL0     H 8727   4.227   6.740   8.025 -0.1167 -2.8522 -1.7067
   65MOL0     H 8728   4.319   6.843   7.921  2.1862 -0.3529 -2.4626
   65MOL0     H 8729   4.191   6.724   7.712  3.3619  1.0416 -0.2199
   65MOL0     H 8730   4.123   6.854   7.806  0.5013  0.7228 -1.9065
   65MOL0     H 8731   4.034   6.663   7.945  3.5694  0.6382  1.5024
   65MOL0     H 8732   4.107   6.538   7.841  2.8825  1.4739  0.9889
   65MOL0     H 8733   3.955   6.604   7.658  1.7535 -2.5191  0.1963
   65MOL0     H 8734   3.888   6.739   7.765  0.6975  0.0065  0.2181
   65MOL0     H 8735   3.742   6.585   7.567  1.1077 -1.4756 -0.1273
   65MOL0     H 8736   3.545   6.452   7.355  2.3742 -0.5149  1.9005
   65MOL0     H 8737   3.397   6.492   7.447  0.1407 -0.5647  0.5854
   65MOL0     H 8738   3.539   6.602   7.421 -0.9285 -0.3726 -0.3539
   65MOL0     H 8739   3.030   6.288   7.642  1.4416  0.5099 -2.5190
   65MOL0     H 8740   2.862   6.125   7.580 -2.0249 -2.3816  0.8005
   65MOL0     H 8741   2.880   5.720   7.357 -2.1620 -1.0770  3.0459
   65MOL0     H 8742   3.048   5.766   7.363 -0.2591 -0.9735 -0.6360
   65MOL0     H 8743   3.053   5.688   7.620  2.2808 -1.9757 -0.4075
   65MOL0     H 8744   2.897   5.601   7.584 -0.3899  1.1089  0.6207
   65MOL0     H 8745   3.158   5.548   7.453  0.3552 -0.5848 -1.0414
   65MOL0     H 8746   2.993   5.507   7.389  1.2089  0.6277 -0.2646
   65MOL0     H 8747   2.960   5.348   7.594 -0.0824  2.0464  3.2296
   65MOL0     H 8748   3.094   5.328   7.479 -0.4804  2.3197 -1.2133
   65MOL0     H 8749   3.153   5.472   7.733 -0.8529  0.4843 -1.3366
   65MOL0     H 8750   3.257   5.402   7.604 -0.0946 -1.8343 -0.1681
   65MOL0     H 8751   3.090   5.227   7.779  0.3677  0.1316 -1.0554
   65MOL0     H 8752   3.168   5.178   7.636  0.7141  0.2963 -0.9313
   65MOL0     H 8753   3.337   5.299   7.864  0.9631 -0.2822  0.8958
   65MOL0     H 8754   3.394   5.223   7.707 -1.1620  0.0645 -1.7104
   65MOL0     H 8755   3.422   5.054   7.841 -0.3495  1.6790 -1.1091
   65MOL0     H 8756   3.244   5.033   7.796  0.0177  1.2005 -1.0577
   65MOL0     H 8757   3.177   5.841   7.523  0.7510  1.6283 -1.2179
   65MOL0     H 8758   3.335   5.996   7.664  0.6539  1.8000  0.1679
   65MOL0     H 8759   3.456   6.306   7.868 -1.5996  5.5659  2.8226
   65MOL0     H 8760   3.683   6.406   7.951  0.2037 -2.0913 -0.8573
   65MOL0     H 8761   4.881   6.001   8.529  1.6853  1.2228  2.2295
   65MOL0     H 8762   4.915   6.040   8.754 -2.4731  1.8809  0.4537
   65MOL0     H 8763   4.734   6.013   9.179  0.5252 -1.0314 -1.8647
   65MOL0     H 8764   4.738   6.065   9.414  0.2839  0.1262 -0.0720
   65MOL0     H 8765   4.935   6.247   9.589  2.8424 -1.7034  0.1865
   65MOL0     H 8766   4.782   6.161   9.598  0.1213 -3.3319  1.6794
   65MOL0     H 8767   4.805   6.113   9.816  1.4004 -0.7164  1.0812
   65MOL0     H 8768   4.880   6.263   9.819 -0.2930  0.4913 -3.4411
   65MOL0     H 8769   5.034   5.995   9.844  0.9527  0.3598 -0.2763
   65MOL0     H 8770   5.014   6.137   9.943  0.2144  2.1070 -0.1413
   65MOL0     H 8771   5.165   6.108   9.668 -0.5777 -1.0089  1.1307
   65MOL0     H 8772   5.236   6.115   9.828  1.2852 -1.0759 -1.6778
   65MOL0     H 8773   5.174   6.523   9.750 -1.2422  0.5368 -1.3375
   65MOL0     H 8774   5.152   5.946   9.425 -1.1011 -2.6016  1.3261
   65MOL0     H 8775   5.153   5.924   9.180 -0.4401  3.3326 -1.4794
   66MOL0     O 8776   7.888   7.779   8.939  0.2494  0.3095  0.2354
   66MOL0     C 8777   7.982   7.698   8.924  0.4238 -0.0010 -0.8777
   66MOL0     O 8778   8.110   7.726   8.936 -0.6101 -0.4130 -0.2853
   66MOL0     C 8779   8.149   7.847   8.981  0.8297 -0.2732  0.3094
   66MOL0     C 8780   8.111   7.968   8.923  0.6146 -0.7226 -0.9729
   66MOL0     C 8781   8.151   8.093   8.972  0.0478  0.2515 -0.0679
   66MOL0     C 8782   8.247   8.095   9.072  0.5408 -0.5071 -1.0153
   66MOL0     O 8783   8.295   8.214   9.128 -0.8457  0.7434  1.2953
   66MOL0     C 8784   8.204   8.295   9.201 -0.0102 -0.8546 -0.5684
   66MOL0     C 8785   8.196   8.439   9.137  0.2696 -0.0312  0.1531
   66MOL0     C 8786   8.097   8.538   9.208  0.8973  0.4903 -0.1267
   66MOL0     C 8787   7.956   8.500   9.199  0.5873  0.4723 -0.5202
   66MOL0     C 8788   7.870   8.615   9.232  0.5725 -0.7704  0.1132
   66MOL0     C 8789   7.725   8.574   9.203 -0.5703 -0.1657  0.4673
   66MOL0     C 8790   7.688   8.512   9.064  0.1692 -0.4984  0.0593
   66MOL0     C 8791   7.694   8.362   9.057  0.4466  0.9450  0.2007
   66MOL0     N 8792   7.735   8.319   8.913  0.1816  1.0180  0.7180
   66MOL0     C 8793   7.665   8.239   8.829 -0.6182  0.3805 -1.1001
   66MOL0     C 8794   7.759   8.206   8.738  0.7137 -0.2168  0.0110
   66MOL0     C 8795   7.728   8.103   8.631 -0.0500  1.2372  0.4031
   66MOL0     C 8796   7.784   8.152   8.500  0.6223  0.4038 -0.3288
   66MOL0     C 8797   7.738   8.060   8.384 -0.3388 -0.3431  0.3088
   66MOL0     C 8798   7.785   8.096   8.245  0.2989  0.1883  0.6963
   66MOL0     O 8799   7.924   8.139   8.243 -0.5561 -0.2426  0.9556
   66MOL0     C 8800   8.001   8.054   8.163  0.5848  0.0445 -0.3398
   66MOL0     C 8801   8.074   8.105   8.063 -0.3856  0.3919 -0.5607
   66MOL0     C 8802   8.159   8.018   7.983  1.6171  0.1979  0.0264
   66MOL0     C 8803   8.219   8.083   7.857 -0.0491  0.2836 -0.8484
   66MOL0     C 8804   8.163   7.873   8.002 -0.2180 -0.5026 -0.1709
   66MOL0     C 8805   8.252   7.772   7.929  0.6399 -0.3096 -0.5152
   66MOL0     O 8806   8.330   7.820   7.829 -0.0127 -0.1753  0.7509
   66MOL0     C 8807   8.401   7.726   7.748  0.0754 -0.3223  0.3098
   66MOL0     C 8808   8.520   7.672   7.799 -0.4343  0.6206  0.1109
   66MOL0     C 8809   8.575   7.581   7.717 -0.1147  0.9222 -0.3579
   66MOL0     C 8810   8.517   7.527   7.594  0.0239 -0.1774 -0.3989
   66MOL0     O 8811   8.590   7.437   7.515  0.0264 -0.3556 -0.2047
   66MOL0     C 8812   8.524   7.306   7.515 -0.6311 -0.2233  0.6684
   66MOL0     C 8813   8.635   7.187   7.500 -1.0723 -0.7440 -0.5717
   66MOL0     C 8814   8.727   7.190   7.364 -0.2304  0.0757  0.3215
   66MOL0     C 8815   8.874   7.133   7.375  0.2275  0.7126  0.5253
   66MOL0     C 8816   8.952   7.149   7.245  0.0710 -0.3837  1.1622
   66MOL0     C 8817   9.099   7.112   7.263 -0.9317  0.5603 -0.7064
   66MOL0     C 8818   9.120   6.967   7.313 -0.1632 -0.5255 -0.2580
   66MOL0     C 8819   9.180   6.967   7.447 -0.0222  0.5146 -0.1322
   66MOL0    Cl 8820   9.332   7.063   7.448  0.2233 -0.1736 -0.1182
   66MOL0     C 8821   8.393   7.565   7.567  0.3484  0.2154  0.5297
   66MOL0     C 8822   8.335   7.667   7.640  1.3294 -0.0068 -0.5843
   66MOL0     O 8823   8.255   7.654   7.976  0.0404 -0.1107  0.2581
   66MOL0     C 8824   8.081   7.835   8.107 -0.6135  0.4349  1.1535
   66MOL0     C 8825   8.003   7.918   8.180  0.0867 -0.6777  0.4033
   66MOL0     N 8826   7.877   8.266   8.751  0.1422 -0.9900  0.4270
   66MOL0     N 8827   7.864   8.348   8.858 -0.1489  1.6038  0.6104
   66MOL0     C 8828   8.297   7.980   9.126  0.1455  0.4313  0.0610
   66MOL0     C 8829   8.251   7.857   9.080 -0.2158  0.4063  0.3083
   66MOL0     C 8830   7.946   7.567   8.879 -0.1082  0.1396 -0.5153
   66MOL0     C 8831   8.035   7.479   8.806 -0.1313  0.1771  0.1220
   66MOL0     C 8832   7.983   7.364   8.746 -0.8514 -0.3669  0.1828
   66MOL0     C 8833   7.858   7.321   8.754  0.3386 -1.2673 -0.2319
   66MOL0     O 8834   7.828   7.206   8.692  0.7028 -0.1069 -0.0956
   66MOL0     C 8835   7.695   7.153   8.686 -0.8320 -0.2823 -0.0368
   66MOL0     C 8836   7.676   7.097   8.821 -0.1791 -0.0863  0.5104
   66MOL0     C 8837   7.742   6.963   8.850  0.3808 -0.5447 -0.3201
   66MOL0     C 8838   7.647   6.847   8.800 -0.2730 -0.1068 -0.8037
   66MOL0     C 8839   7.531   6.829   8.889 -0.0755 -0.0638  0.1388
   66MOL0     C 8840   7.438   6.809   8.968 -0.6752 -0.7158 -0.1466
   66MOL0     C 8841   7.769   7.403   8.833  0.3160 -0.0480 -1.3212
   66MOL0     C 8842   7.812   7.527   8.888  0.3114  0.4540 -1.4000
   66MOL0     H 8843   8.031   7.967   8.851 -1.6777 -1.4330  1.4219
   66MOL0     H 8844   8.125   8.192   8.937  1.0694 -0.3797 -2.8860
   66MOL0     H 8845   8.099   8.265   9.211  0.0519 -0.3119  3.8773
   66MOL0     H 8846   8.234   8.301   9.306 -0.1176 -0.8877 -0.5356
   66MOL0     H 8847   8.298   8.478   9.141 -0.5168  2.0188  1.7810
   66MOL0     H 8848   8.165   8.440   9.032 -1.2429  2.4052  0.5422
   66MOL0     H 8849   8.132   8.550   9.310  1.1174  0.2534 -0.1723
   66MOL0     H 8850   8.109   8.631   9.152 -2.9519  0.5855 -1.1043
   66MOL0     H 8851   7.934   8.470   9.096  0.7601 -0.1959 -0.3708
   66MOL0     H 8852   7.932   8.419   9.269  0.1849  1.0888  0.0593
   66MOL0     H 8853   7.881   8.635   9.339 -1.3589 -3.8141  0.9855
   66MOL0     H 8854   7.892   8.694   9.159 -2.9328  0.5301  0.2691
   66MOL0     H 8855   7.699   8.503   9.282 -1.7687  1.9255  2.0653
   66MOL0     H 8856   7.653   8.656   9.210 -1.2073 -0.5836 -0.8108
   66MOL0     H 8857   7.588   8.545   9.037  0.3162  0.3599  0.5576
   66MOL0     H 8858   7.755   8.548   8.985  0.3800  3.1978  1.7349
   66MOL0     H 8859   7.600   8.316   9.090  0.4238 -1.6637 -2.9839
   66MOL0     H 8860   7.773   8.326   9.123 -1.0729 -1.3331  0.8749
   66MOL0     H 8861   7.567   8.194   8.842  0.7456 -2.3100  1.2032
   66MOL0     H 8862   7.781   8.009   8.648  1.4151  1.6427 -1.5857
   66MOL0     H 8863   7.622   8.088   8.610  1.1942 -2.7893 -5.2546
   66MOL0     H 8864   7.891   8.171   8.505  0.6724 -0.1521  1.7359
   66MOL0     H 8865   7.731   8.246   8.481  2.4918  2.1365  2.3925
   66MOL0     H 8866   7.630   8.063   8.369 -0.2184 -0.4141 -0.6509
   66MOL0     H 8867   7.767   7.955   8.396  1.3635 -0.0225 -0.6053
   66MOL0     H 8868   7.724   8.176   8.201 -1.6377 -2.2765 -1.4122
   66MOL0     H 8869   7.760   8.016   8.175  2.6770 -2.0633  2.2565
   66MOL0     H 8870   8.070   8.209   8.031 -0.0235  0.2730 -1.0198
   66MOL0     H 8871   8.221   8.013   7.773 -0.7836 -1.7027  0.7177
   66MOL0     H 8872   8.144   8.156   7.824 -1.8801 -1.1474  0.0226
   66MOL0     H 8873   8.316   8.129   7.875  0.7592 -1.2199 -1.2260
   66MOL0     H 8874   8.585   7.697   7.882  0.6814 -5.2768  1.4459
   66MOL0     H 8875   8.674   7.542   7.738 -1.4032 -2.2727  0.4541
   66MOL0     H 8876   8.468   7.285   7.606 -3.3060  2.3908 -0.1859
   66MOL0     H 8877   8.454   7.297   7.431 -0.5341  0.7732  0.4634
   66MOL0     H 8878   8.708   7.193   7.581 -2.8854 -1.3500  1.2043
   66MOL0     H 8879   8.590   7.089   7.521  0.2348 -0.5754  4.1943
   66MOL0     H 8880   8.729   7.289   7.318  0.9681  1.4729  3.1344
   66MOL0     H 8881   8.683   7.116   7.297  0.7647 -0.3457  0.1126
   66MOL0     H 8882   8.917   7.203   7.447 -2.2055  1.6779  1.1495
   66MOL0     H 8883   8.872   7.029   7.407 -0.7412  0.5186 -0.1044
   66MOL0     H 8884   8.947   7.253   7.212 -0.9864 -0.7126  0.2324
   66MOL0     H 8885   8.912   7.083   7.168  1.2070 -0.7406  0.8572
   66MOL0     H 8886   9.158   7.122   7.171 -3.0726 -1.1626 -2.3612
   66MOL0     H 8887   9.143   7.185   7.332 -0.7395  1.1152 -1.4019
   66MOL0     H 8888   9.183   6.921   7.236  0.6889  1.2128 -0.6430
   66MOL0     H 8889   9.024   6.915   7.315  1.5520 -3.9862  0.7454
   66MOL0     H 8890   9.196   6.863   7.476  0.4806  0.1656 -1.5963
   66MOL0     H 8891   9.111   7.004   7.524 -2.4463  1.4704 -2.5702
   66MOL0     H 8892   8.326   7.530   7.489 -1.2177  3.9692 -0.0182
   66MOL0     H 8893   8.237   7.704   7.611  0.9428  1.4972  2.3257
   66MOL0     H 8894   8.082   7.731   8.139  1.6600  0.2831  0.7552
   66MOL0     H 8895   7.938   7.869   8.253 -2.2456 -0.2133 -1.2321
   66MOL0     H 8896   8.368   7.994   9.207 -1.2555  2.3251  1.0380
   66MOL0     H 8897   8.280   7.760   9.121 -2.0444 -0.0478  0.6292
   66MOL0     H 8898   8.134   7.520   8.789 -0.8896  2.7027  1.3848
   66MOL0     H 8899   8.046   7.292   8.695  1.8989  0.8537  1.5981
   66MOL0     H 8900   7.625   7.232   8.655 -1.5411 -1.6272 -2.1259
   66MOL0     H 8901   7.689   7.080   8.604 -0.3783  0.1577 -0.4702
   66MOL0     H 8902   7.568   7.080   8.835 -0.9536  0.6803 -3.3893
   66MOL0     H 8903   7.703   7.165   8.902 -0.0847 -0.9454  1.2144
   66MOL0     H 8904   7.759   6.947   8.957  1.4447 -3.8164 -0.8757
   66MOL0     H 8905   7.832   6.955   8.789 -0.4039 -1.2180 -1.4043
   66MOL0     H 8906   7.702   6.753   8.795  0.9427  0.3463  2.0356
   66MOL0     H 8907   7.622   6.883   8.700  1.1175  0.2328 -1.0521
   66MOL0     H 8908   7.358   6.798   9.038 -2.4562 -0.7731 -2.1069
   66MOL0     H 8909   7.672   7.357   8.852  1.3204 -1.8507 -0.3383
   66MOL0     H 8910   7.747   7.598   8.939  1.5446 -0.9750  2.5312
   67MOL0     O 8911   0.287   6.033   3.426  0.3818  0.3368 -0.4597
   67MOL0     C 8912   0.386   6.105   3.416 -0.2108 -0.0714 -0.0848
   67MOL0     O 8913   0.510   6.089   3.482  0.4880  0.8466  0.5037
   67MOL0     C 8914   0.514   5.958   3.515 -0.1244 -0.7715 -0.1888
   67MOL0     C 8915   0.575   5.868   3.430  0.0765  0.0493  0.2613
   67MOL0     C 8916   0.580   5.733   3.470 -0.4201  0.0086 -0.6172
   67MOL0     C 8917   0.516   5.684   3.590  0.8831  0.8581  0.6870
   67MOL0     O 8918   0.506   5.553   3.639 -0.9613 -1.2982 -0.7609
   67MOL0     C 8919   0.608   5.457   3.590 -0.1936  0.1657 -1.2641
   67MOL0     C 8920   0.582   5.322   3.673  0.2663  0.1147 -1.1084
   67MOL0     C 8921   0.451   5.257   3.631  0.8214  0.2195  0.3218
   67MOL0     C 8922   0.415   5.134   3.718 -0.5298  0.9537 -0.4703
   67MOL0     C 8923   0.322   5.033   3.656 -0.0733 -0.0552 -0.5122
   67MOL0     C 8924   0.365   4.941   3.539  0.8407  0.2406 -0.3919
   67MOL0     C 8925   0.270   4.822   3.513  0.5033  0.1286  0.2439
   67MOL0     C 8926   0.311   4.709   3.432 -0.4301 -0.4413 -0.1765
   67MOL0     N 8927   0.397   4.625   3.515  0.0693  1.3544  0.6375
   67MOL0     C 8928   0.532   4.643   3.538 -0.1221  0.6805 -0.2078
   67MOL0     C 8929   0.563   4.542   3.620 -0.2621  0.7229  0.0867
   67MOL0     C 8930   0.702   4.521   3.669  0.4066  1.0839 -0.6248
   67MOL0     C 8931   0.799   4.640   3.683 -1.1024  0.4099 -0.8691
   67MOL0     C 8932   0.748   4.766   3.764 -0.4230  0.1687  0.1236
   67MOL0     C 8933   0.828   4.884   3.735  0.2398 -0.5297 -0.0715
   67MOL0     O 8934   0.805   4.914   3.598 -0.1666 -0.0735 -0.1030
   67MOL0     C 8935   0.865   5.024   3.557  0.0301  0.5083  0.2482
   67MOL0     C 8936   0.807   5.087   3.445  0.6127 -1.2068 -0.0976
   67MOL0     C 8937   0.844   5.223   3.402 -0.6051  0.1707  0.3087
   67MOL0     C 8938   0.783   5.282   3.271  0.1870 -0.5356  0.9870
   67MOL0     C 8939   0.947   5.291   3.483  0.1310 -0.0722 -0.0407
   67MOL0     C 8940   0.991   5.427   3.462  0.0602 -1.2939 -0.7223
   67MOL0     O 8941   0.944   5.501   3.361  0.2803 -1.0673 -0.2717
   67MOL0     C 8942   0.943   5.636   3.347 -0.7425  0.4353 -0.3556
   67MOL0     C 8943   1.017   5.727   3.418  0.2334  0.0365 -0.4921
   67MOL0     C 8944   1.000   5.868   3.379 -0.2009 -0.6010  0.9261
   67MOL0     C 8945   0.917   5.892   3.269 -0.2515  0.0143  0.5878
   67MOL0     O 8946   0.870   6.020   3.241  0.0660 -0.6354 -0.2926
   67MOL0     C 8947   0.840   6.102   3.358  0.2458  0.5074 -0.1724
   67MOL0     C 8948   0.882   6.237   3.320 -1.0226 -0.3539  0.0953
   67MOL0     C 8949   0.868   6.345   3.428 -0.3045 -0.1828 -0.0528
   67MOL0     C 8950   0.903   6.488   3.382  0.0213 -0.6667 -0.2563
   67MOL0     C 8951   0.789   6.546   3.292  0.7698  0.6028 -0.3007
   67MOL0     C 8952   0.827   6.672   3.230 -0.4349 -0.5316  1.1788
   67MOL0     C 8953   0.727   6.737   3.142 -0.1806 -0.2833  0.3289
   67MOL0     C 8954   0.759   6.877   3.100 -0.0455  0.0987  0.6014
   67MOL0    Cl 8955   0.881   6.893   2.981  0.1673 -0.5563  0.4415
   67MOL0     C 8956   0.863   5.797   3.193 -1.2752 -0.7161 -0.3117
   67MOL0     C 8957   0.881   5.666   3.224 -0.2884  0.9588 -1.2252
   67MOL0     O 8958   1.048   5.478   3.557 -0.4686 -0.6348  0.5888
   67MOL0     C 8959   1.010   5.215   3.586 -0.2530  0.0347  0.6366
   67MOL0     C 8960   0.969   5.086   3.617 -0.1410  0.1850  0.2016
   67MOL0     N 8961   0.457   4.458   3.637 -0.5593 -0.2859 -0.5504
   67MOL0     N 8962   0.360   4.505   3.569  0.0987 -0.2327 -0.0607
   67MOL0     C 8963   0.462   5.787   3.675  0.6079  0.2375  0.1070
   67MOL0     C 8964   0.454   5.922   3.634  0.0404 -0.8870 -0.3731
   67MOL0     C 8965   0.360   6.238   3.339 -0.2954 -0.0412  0.0030
   67MOL0     C 8966   0.438   6.356   3.344  0.1213  0.7127  0.7606
   67MOL0     C 8967   0.408   6.468   3.270  0.3366  0.6552  0.6288
   67MOL0     C 8968   0.292   6.458   3.186  1.6091 -0.3200  0.5389
   67MOL0     O 8969   0.240   6.564   3.110 -0.1698 -0.2765 -0.1581
   67MOL0     C 8970   0.238   6.682   3.194 -0.6507 -0.7852 -0.2937
   67MOL0     C 8971   0.210   6.792   3.102  1.1890 -0.1857 -0.5456
   67MOL0     C 8972   0.064   6.792   3.058 -0.5944 -0.8316 -0.4621
   67MOL0     C 8973   0.037   6.911   2.959  0.0176 -0.6476  0.3231
   67MOL0     C 8974  -0.099   6.914   2.912 -0.7071  0.1519 -0.0513
   67MOL0     C 8975  -0.209   6.893   2.871  0.0959  0.6477  0.5402
   67MOL0     C 8976   0.217   6.335   3.183  0.1710 -0.0901  1.0844
   67MOL0     C 8977   0.249   6.232   3.259  0.4173 -0.4436  0.7206
   67MOL0     H 8978   0.618   5.914   3.341  3.3658 -2.4289  0.4088
   67MOL0     H 8979   0.611   5.669   3.388 -4.5709  1.9743 -4.1338
   67MOL0     H 8980   0.588   5.434   3.485  0.0165 -3.5215 -0.6298
   67MOL0     H 8981   0.705   5.504   3.608 -1.6252  2.8621  0.0072
   67MOL0     H 8982   0.654   5.243   3.651  0.2195  0.9715 -4.9832
   67MOL0     H 8983   0.571   5.348   3.779 -4.1110  3.1094 -2.0444
   67MOL0     H 8984   0.369   5.328   3.648 -0.5744 -0.1888 -3.7173
   67MOL0     H 8985   0.452   5.216   3.530 -1.8579 -2.5357  1.2829
   67MOL0     H 8986   0.507   5.083   3.747 -0.0692  2.8635  1.7207
   67MOL0     H 8987   0.364   5.175   3.806  0.4114  2.9379 -0.7925
   67MOL0     H 8988   0.289   4.968   3.738 -0.8578  0.3657 -0.4799
   67MOL0     H 8989   0.231   5.082   3.619  1.6379  0.9829 -3.7335
   67MOL0     H 8990   0.374   4.996   3.445 -3.1188 -0.5041 -1.4085
   67MOL0     H 8991   0.451   4.885   3.574  0.9339  0.3770 -0.4034
   67MOL0     H 8992   0.241   4.789   3.614  2.4779 -2.4277  0.0602
   67MOL0     H 8993   0.179   4.861   3.468  0.5933  0.0556 -0.0001
   67MOL0     H 8994   0.358   4.755   3.344  0.3964 -1.6496 -0.3975
   67MOL0     H 8995   0.234   4.641   3.394 -0.5247 -2.2726  2.9589
   67MOL0     H 8996   0.592   4.722   3.493 -2.2888  1.3024 -2.1841
   67MOL0     H 8997   0.675   4.491   3.771  0.6717  6.3104  1.2784
   67MOL0     H 8998   0.747   4.440   3.612  1.1815  2.2329 -1.6848
   67MOL0     H 8999   0.841   4.662   3.585 -1.0750  2.4209 -0.4500
   67MOL0     H 9000   0.878   4.591   3.741 -2.4094 -1.3808 -0.5290
   67MOL0     H 9001   0.733   4.742   3.869 -1.7111  0.5648  0.0437
   67MOL0     H 9002   0.647   4.791   3.730 -0.4670  0.2166  0.2902
   67MOL0     H 9003   0.933   4.853   3.743 -0.5812 -3.9345 -0.9454
   67MOL0     H 9004   0.800   4.975   3.788  3.2934  1.4629 -1.5497
   67MOL0     H 9005   0.717   5.052   3.396 -1.3043  1.2848  1.4005
   67MOL0     H 9006   0.741   5.204   3.206 -3.1669 -0.3748  2.7346
   67MOL0     H 9007   0.714   5.363   3.296 -2.1268 -2.5951  1.7464
   67MOL0     H 9008   0.859   5.332   3.210 -1.5796  1.2021  0.1018
   67MOL0     H 9009   1.080   5.713   3.506 -1.4223  0.2374  0.7710
   67MOL0     H 9010   1.051   5.947   3.433  1.3341  0.0223 -1.2917
   67MOL0     H 9011   0.734   6.110   3.384  0.4030  0.6516  0.4417
   67MOL0     H 9012   0.885   6.061   3.449 -2.0625 -2.4219 -0.2225
   67MOL0     H 9013   0.987   6.244   3.291 -0.7565  0.0595  1.1209
   67MOL0     H 9014   0.824   6.258   3.230 -0.8212 -0.7684 -0.1369
   67MOL0     H 9015   0.932   6.330   3.515 -1.4847 -2.1122  0.5352
   67MOL0     H 9016   0.761   6.347   3.450 -1.2500 -0.3467 -3.8908
   67MOL0     H 9017   0.901   6.542   3.478 -1.8284  1.4776 -1.4053
   67MOL0     H 9018   1.005   6.502   3.347  1.2568 -0.8598  2.9435
   67MOL0     H 9019   0.694   6.551   3.347 -0.5681 -1.7323 -2.2069
   67MOL0     H 9020   0.770   6.479   3.208  0.6090  1.2666 -0.7962
   67MOL0     H 9021   0.855   6.738   3.313  1.2349 -0.8678  0.9089
   67MOL0     H 9022   0.918   6.652   3.173 -1.2012 -0.0720 -0.2449
   67MOL0     H 9023   0.627   6.739   3.187 -1.1988  0.5506 -1.8269
   67MOL0     H 9024   0.724   6.678   3.049 -0.1587  0.5243 -0.1968
   67MOL0     H 9025   0.789   6.927   3.192 -0.2473 -0.5944  1.0474
   67MOL0     H 9026   0.670   6.916   3.049 -0.2577 -2.8463 -1.5765
   67MOL0     H 9027   0.808   5.822   3.103  1.5930  0.2819 -1.9377
   67MOL0     H 9028   0.832   5.585   3.170 -0.6202 -0.0133  0.4526
   67MOL0     H 9029   1.088   5.271   3.637 -0.5248  1.5635 -0.5517
   67MOL0     H 9030   1.021   5.041   3.701 -1.2133 -1.2604  0.1053
   67MOL0     H 9031   0.433   5.760   3.776 -1.4178 -0.5875 -0.6273
   67MOL0     H 9032   0.413   5.997   3.700 -0.2805 -1.8648  0.5638
   67MOL0     H 9033   0.532   6.360   3.398  1.8863  0.5385 -2.1058
   67MOL0     H 9034   0.487   6.542   3.274  2.1304 -0.7563 -3.6705
   67MOL0     H 9035   0.166   6.665   3.274 -1.0223  0.2324 -0.3965
   67MOL0     H 9036   0.329   6.719   3.242 -1.3029 -0.0439  0.3985
   67MOL0     H 9037   0.273   6.791   3.013 -2.0263 -0.9400 -2.9822
   67MOL0     H 9038   0.222   6.891   3.146 -0.9521 -0.6251  1.1648
   67MOL0     H 9039  -0.007   6.807   3.140 -0.6591  0.6517 -0.7646
   67MOL0     H 9040   0.043   6.695   3.012 -3.3618  0.3145 -1.7797
   67MOL0     H 9041   0.099   6.899   2.869 -1.9011  0.0173 -1.1558
   67MOL0     H 9042   0.051   7.007   3.009  0.7547 -2.2093  3.3208
   67MOL0     H 9043  -0.310   6.863   2.853  0.7934 -2.3686  0.9451
   67MOL0     H 9044   0.136   6.326   3.111  0.9225  0.7246  0.1063
   67MOL0     H 9045   0.182   6.148   3.249 -4.1766  3.0433 -1.3426
   68MOL0     O 9046   6.624  10.851   7.752  0.8371  0.2271  0.0215
   68MOL0     C 9047   6.738  10.877   7.775  0.1946 -0.6124 -0.7475
   68MOL0     O 9048   6.773  10.945   7.885  0.6656  0.8549  0.2832
   68MOL0     C 9049   6.672  10.974   7.973 -1.8460  0.0987 -0.2589
   68MOL0     C 9050   6.632  10.881   8.072  0.0383 -0.7612  0.7459
   68MOL0     C 9051   6.526  10.907   8.167  0.1456  0.1439  0.2416
   68MOL0     C 9052   6.471  11.038   8.166 -0.2924  0.8788  0.1488
   68MOL0     O 9053   6.370  11.079   8.242  0.1792 -0.0660 -0.3292
   68MOL0     C 9054   6.308  11.006   8.338  1.1413  0.0135  0.4173
   68MOL0     C 9055   6.183  11.076   8.380  0.3421 -0.2601 -0.8350
   68MOL0     C 9056   6.195  11.164   8.510  0.8034  1.1963  0.6769
   68MOL0     C 9057   6.272  11.285   8.493 -0.7655 -0.7116  0.2920
   68MOL0     C 9058   6.266  11.379   8.613  0.1024 -0.5778  0.7472
   68MOL0     C 9059   6.366  11.494   8.617 -0.2060  0.1104  0.3328
   68MOL0     C 9060   6.514  11.449   8.646 -1.1832  0.5087  0.1405
   68MOL0     C 9061   6.618  11.571   8.671  0.3853  0.7628 -0.3624
   68MOL0     N 9062   6.598  11.608   8.815 -0.2711 -0.9259  0.0834
   68MOL0     C 9063   6.510  11.694   8.871 -0.2630 -0.2328  0.2084
   68MOL0     C 9064   6.534  11.692   9.007 -0.1432  0.3271  0.4258
   68MOL0     C 9065   6.461  11.746   9.129 -0.0349  0.9639 -0.2879
   68MOL0     C 9066   6.448  11.901   9.129 -0.3955  0.9167  0.3048
   68MOL0     C 9067   6.349  11.959   9.229  1.1636 -0.8131 -1.5459
   68MOL0     C 9068   6.209  11.984   9.181  0.0174  1.7483 -0.6008
   68MOL0     O 9069   6.222  12.067   9.069  0.3972 -0.5688 -0.3219
   68MOL0     C 9070   6.104  12.112   9.013 -0.2775 -0.2453 -0.8192
   68MOL0     C 9071   5.975  12.112   9.072 -0.3832 -0.0944  0.3442
   68MOL0     C 9072   5.858  12.158   9.009  0.0101 -0.3472 -0.7947
   68MOL0     C 9073   5.740  12.155   9.102 -0.1049 -0.1010  0.1677
   68MOL0     C 9074   5.871  12.224   8.886  1.5209  1.4829 -0.0953
   68MOL0     C 9075   5.759  12.294   8.809 -0.7003  0.1661 -0.5025
   68MOL0     O 9076   5.659  12.342   8.881 -0.1502 -0.5739 -0.5237
   68MOL0     C 9077   5.530  12.322   8.849 -0.8259  0.7087 -0.4226
   68MOL0     C 9078   5.445  12.295   8.954 -0.2219 -0.0308 -0.1816
   68MOL0     C 9079   5.320  12.242   8.932  0.0792 -0.6177  0.5930
   68MOL0     C 9080   5.272  12.235   8.802 -0.0557  0.5023 -0.1055
   68MOL0     O 9081   5.147  12.190   8.777 -0.3412  0.7434 -0.3519
   68MOL0     C 9082   5.067  12.307   8.740  0.9348 -0.2421 -0.0023
   68MOL0     C 9083   4.933  12.297   8.812 -0.1288  0.6430  0.9946
   68MOL0     C 9084   4.850  12.166   8.799  0.3816 -1.2737 -0.5007
   68MOL0     C 9085   4.726  12.167   8.885 -0.0841 -0.3240  0.2197
   68MOL0     C 9086   4.625  12.271   8.823 -0.5171 -0.4147 -1.1543
   68MOL0     C 9087   4.487  12.249   8.884 -0.5012  0.8751 -0.0533
   68MOL0     C 9088   4.396  12.366   8.865 -0.2109 -0.4056 -0.5812
   68MOL0     C 9089   4.334  12.373   8.733  0.1098 -0.6406 -0.8843
   68MOL0    Cl 9090   4.206  12.505   8.713 -0.1422 -0.1821  0.2130
   68MOL0     C 9091   5.350  12.275   8.687 -0.1716  1.2634  0.5463
   68MOL0     C 9092   5.467  12.329   8.719 -0.8844 -1.3394 -0.7961
   68MOL0     O 9093   5.774  12.300   8.686 -0.0838  0.3141 -0.0424
   68MOL0     C 9094   5.997  12.222   8.817 -0.0040  0.4431 -0.0865
   68MOL0     C 9095   6.113  12.168   8.882  0.3483 -0.2847 -0.3440
   68MOL0     N 9096   6.656  11.615   9.024 -0.0936 -0.2840 -0.3836
   68MOL0     N 9097   6.684  11.568   8.909  0.2349  0.4243 -0.1054
   68MOL0     C 9098   6.512  11.126   8.061 -0.6174 -0.4905 -0.2978
   68MOL0     C 9099   6.613  11.096   7.967  0.3822 -0.5924  0.5756
   68MOL0     C 9100   6.831  10.841   7.672 -0.8918  0.0442  0.3378
   68MOL0     C 9101   6.963  10.870   7.692  0.3428 -1.0922  0.1464
   68MOL0     C 9102   7.056  10.845   7.593  0.1730 -0.1124 -0.3271
   68MOL0     C 9103   7.020  10.769   7.481 -0.9119  0.6090  1.3514
   68MOL0     O 9104   7.121  10.744   7.393  0.2332 -0.5672  0.1279
   68MOL0     C 9105   7.095  10.683   7.262  0.0027  0.1387 -0.4596
   68MOL0     C 9106   7.074  10.531   7.257 -0.2173  0.4507 -0.0911
   68MOL0     C 9107   7.183  10.467   7.332  0.0376  0.3271 -0.3017
   68MOL0     C 9108   7.172  10.323   7.297  1.2570 -0.0777  0.5982
   68MOL0     C 9109   7.287  10.242   7.337  0.7714  0.1913 -0.6651
   68MOL0     C 9110   7.394  10.193   7.350 -0.2509 -0.4696 -0.0454
   68MOL0     C 9111   6.886  10.730   7.467  0.0323 -0.8581 -0.1758
   68MOL0     C 9112   6.792  10.768   7.563 -0.4898  0.1584  0.3678
   68MOL0     H 9113   6.671  10.780   8.078 -0.8461 -1.1609 -0.0521
   68MOL0     H 9114   6.488  10.836   8.240 -0.3165  0.1843  0.0487
   68MOL0     H 9115   6.272  10.911   8.298 -0.4578  0.6976  0.1263
   68MOL0     H 9116   6.371  10.997   8.427 -0.1644 -0.6213  1.3199
   68MOL0     H 9117   6.141  11.144   8.306  1.7693 -0.6912 -2.0989
   68MOL0     H 9118   6.114  10.994   8.400 -0.2632  0.6175  0.9197
   68MOL0     H 9119   6.096  11.202   8.538  0.4020  0.9151 -0.3169
   68MOL0     H 9120   6.242  11.109   8.592  0.3774  3.4724  2.5464
   68MOL0     H 9121   6.374  11.250   8.479 -0.8715 -0.9736  0.1667
   68MOL0     H 9122   6.254  11.339   8.399  2.4373 -1.9503 -1.1859
   68MOL0     H 9123   6.164  11.419   8.616  1.1603  2.4667 -0.1218
   68MOL0     H 9124   6.278  11.324   8.706 -3.7072 -3.9976 -0.5238
   68MOL0     H 9125   6.351  11.552   8.525 -0.0417  1.1388  0.9384
   68MOL0     H 9126   6.337  11.557   8.701 -1.2664  1.2728 -0.8597
   68MOL0     H 9127   6.523  11.385   8.735 -0.6078  2.5017  1.6068
   68MOL0     H 9128   6.548  11.396   8.557  0.3779 -0.9442  1.5332
   68MOL0     H 9129   6.585  11.651   8.604 -3.1171  0.0245  0.2776
   68MOL0     H 9130   6.723  11.539   8.668 -0.9018 -5.0672  2.6424
   68MOL0     H 9131   6.428  11.742   8.819 -0.3326  1.1211  1.5191
   68MOL0     H 9132   6.360  11.704   9.141  0.6052 -0.6280 -0.2604
   68MOL0     H 9133   6.531  11.726   9.210  3.6223  0.4330 -3.3359
   68MOL0     H 9134   6.407  11.939   9.035 -3.1777  0.9365  1.4055
   68MOL0     H 9135   6.545  11.944   9.152 -1.3386  2.0319  2.5265
   68MOL0     H 9136   6.390  12.058   9.251 -1.9174 -0.1486  2.4829
   68MOL0     H 9137   6.358  11.907   9.325  1.1975  0.0549 -1.0636
   68MOL0     H 9138   6.154  12.027   9.265  0.6562 -2.1523  2.0382
   68MOL0     H 9139   6.163  11.886   9.172 -0.0372  0.7562  6.0292
   68MOL0     H 9140   5.967  12.057   9.165  1.9824  0.8882  1.1949
   68MOL0     H 9141   5.655  12.137   9.035 -0.6805  2.5272  0.0630
   68MOL0     H 9142   5.737  12.085   9.186  0.5317  1.8637  1.9095
   68MOL0     H 9143   5.731  12.250   9.156 -0.7010 -0.1843  0.2268
   68MOL0     H 9144   5.487  12.287   9.054 -0.9415 -0.5582  0.0893
   68MOL0     H 9145   5.250  12.210   9.008 -1.5999  0.7479 -0.3213
   68MOL0     H 9146   5.116  12.403   8.761  0.8895 -0.2771  0.2646
   68MOL0     H 9147   5.027  12.304   8.639 -0.5218 -0.4528  0.5566
   68MOL0     H 9148   4.951  12.313   8.919 -1.8778 -0.1004  1.4293
   68MOL0     H 9149   4.871  12.373   8.763 -0.6288  0.6604  1.6472
   68MOL0     H 9150   4.922  12.090   8.832  2.4815  1.2816  1.1570
   68MOL0     H 9151   4.824  12.154   8.693 -1.9486  2.0218 -0.4378
   68MOL0     H 9152   4.669  12.074   8.870 -3.0439  1.6161 -1.7247
   68MOL0     H 9153   4.752  12.177   8.990 -1.6706  4.4521  0.3960
   68MOL0     H 9154   4.618  12.275   8.714 -1.7258 -2.2586 -1.1915
   68MOL0     H 9155   4.664  12.368   8.856  2.0324  0.1887 -5.1911
   68MOL0     H 9156   4.436  12.163   8.841 -0.1483 -0.6113  2.3280
   68MOL0     H 9157   4.492  12.226   8.991  0.0100 -1.1000 -0.4772
   68MOL0     H 9158   4.452  12.458   8.885  2.2967 -1.2746 -2.9454
   68MOL0     H 9159   4.324  12.359   8.947 -0.6076  0.7234 -0.8164
   68MOL0     H 9160   4.290  12.276   8.704 -0.7379 -0.2704 -0.8693
   68MOL0     H 9161   4.405  12.387   8.651  0.2400  1.1915 -0.4849
   68MOL0     H 9162   5.314  12.272   8.585  1.3223 -4.5096 -0.1400
   68MOL0     H 9163   5.528  12.359   8.634  2.3447 -1.7656  1.1985
   68MOL0     H 9164   5.995  12.268   8.719  0.3891  2.2792  0.7193
   68MOL0     H 9165   6.204  12.153   8.825 -0.7605  0.0745 -2.3224
   68MOL0     H 9166   6.449  11.214   8.053 -1.5440 -1.2597 -1.6499
   68MOL0     H 9167   6.643  11.166   7.890  2.3094 -1.6659  0.2961
   68MOL0     H 9168   6.992  10.916   7.785  0.3130  0.5978 -0.6483
   68MOL0     H 9169   7.155  10.884   7.614 -0.0535  1.1024 -1.4032
   68MOL0     H 9170   7.004  10.729   7.224 -2.7335 -0.7851  4.1503
   68MOL0     H 9171   7.184  10.702   7.201 -0.9384 -0.7668 -2.1764
   68MOL0     H 9172   7.054  10.498   7.155 -0.2219  2.2663 -0.6970
   68MOL0     H 9173   6.981  10.503   7.309 -0.6617 -0.4749 -1.3359
   68MOL0     H 9174   7.170  10.479   7.439 -4.5100 -3.3868 -0.1099
   68MOL0     H 9175   7.277  10.510   7.296 -0.2790 -2.8980 -6.3591
   68MOL0     H 9176   7.156  10.314   7.189  2.9413 -1.6376  0.4424
   68MOL0     H 9177   7.077  10.292   7.341  0.4785  1.3798  0.0327
   68MOL0     H 9178   7.479  10.130   7.366 -0.2919 -0.2335  1.2590
   68MOL0     H 9179   6.850  10.679   7.378 -0.1211 -1.8679  0.4452
   68MOL0     H 9180   6.688  10.743   7.544 -0.1924 -1.6406  0.9441
   69MOL0     O 9181   3.762   2.085   0.690  0.4902  0.1381 -0.4805
   69MOL0     C 9182   3.757   2.207   0.668 -0.2262 -0.3354  0.1400
   69MOL0     O 9183   3.805   2.277   0.568 -0.6630 -0.6239  0.2450
   69MOL0     C 9184   3.845   2.219   0.448 -0.9277  0.0134  0.8509
   69MOL0     C 9185   3.778   2.105   0.388 -0.4657 -0.1974 -1.2684
   69MOL0     C 9186   3.816   2.072   0.254  0.1477 -0.6008 -0.3294
   69MOL0     C 9187   3.912   2.134   0.174 -0.2779 -0.3436  0.4375
   69MOL0     O 9188   3.946   2.090   0.047 -0.1281 -0.1077  0.5543
   69MOL0     C 9189   3.850   2.129  -0.058 -0.2510 -0.1068  0.1368
   69MOL0     C 9190   3.874   2.062  -0.192  0.3909 -0.1684 -0.5018
   69MOL0     C 9191   3.886   1.905  -0.180 -0.6338 -0.1470 -0.0447
   69MOL0     C 9192   3.764   1.825  -0.228 -0.5327 -0.2658 -0.2040
   69MOL0     C 9193   3.797   1.680  -0.223 -1.0363  0.2905  0.4672
   69MOL0     C 9194   3.862   1.639  -0.359 -0.5714 -0.6769 -0.0017
   69MOL0     C 9195   3.904   1.485  -0.374 -0.2153 -0.6650 -0.0019
   69MOL0     C 9196   3.987   1.429  -0.266  0.3963  1.0136 -0.6867
   69MOL0     N 9197   4.038   1.295  -0.313  0.2301  0.6487  0.3811
   69MOL0     C 9198   4.160   1.242  -0.282 -0.4458  0.0718  1.1338
   69MOL0     C 9199   4.148   1.109  -0.337  0.4772 -0.2677  0.0347
   69MOL0     C 9200   4.254   0.998  -0.301  0.5658  0.4103 -0.5770
   69MOL0     C 9201   4.225   0.958  -0.150 -0.0131  0.6440  0.0533
   69MOL0     C 9202   4.321   0.848  -0.098 -0.2576  0.1206  0.6193
   69MOL0     C 9203   4.281   0.708  -0.163 -0.2107  0.3630 -0.4350
   69MOL0     O 9204   4.150   0.690  -0.106  0.2773 -0.1703 -0.6564
   69MOL0     C 9205   4.060   0.629  -0.182 -0.2526 -0.3066 -0.0670
   69MOL0     C 9206   3.987   0.715  -0.266  0.8525 -0.1764 -0.1071
   69MOL0     C 9207   3.891   0.660  -0.352 -0.0569  0.3784 -0.6389
   69MOL0     C 9208   3.816   0.749  -0.444  0.8247  0.2679 -0.2251
   69MOL0     C 9209   3.867   0.520  -0.353  0.1823  0.0365  0.1400
   69MOL0     C 9210   3.765   0.460  -0.440 -0.1982  1.2706  0.2752
   69MOL0     O 9211   3.792   0.461  -0.575 -0.2236 -0.6803 -0.2742
   69MOL0     C 9212   3.699   0.390  -0.653 -0.1237  0.4911 -0.2567
   69MOL0     C 9213   3.578   0.449  -0.697  0.0233  0.5412 -1.4449
   69MOL0     C 9214   3.477   0.380  -0.751 -0.3557  0.4223  0.8799
   69MOL0     C 9215   3.505   0.250  -0.789  0.4929  0.1290 -0.4112
   69MOL0     O 9216   3.423   0.191  -0.884 -0.4069  0.4867 -0.8642
   69MOL0     C 9217   3.410   0.050  -0.922  0.0958 -0.5467  0.5276
   69MOL0     C 9218   3.333   0.047  -1.060 -0.0840  1.1127 -0.8514
   69MOL0     C 9219   3.189   0.063  -1.021  0.2348 -0.0498 -0.2935
   69MOL0     C 9220   3.106   0.114  -1.131 -0.7778 -0.0662  0.4260
   69MOL0     C 9221   2.962   0.136  -1.103  0.1125  0.7266 -0.5230
   69MOL0     C 9222   2.907   0.237  -1.213  0.0651  0.3824 -0.4402
   69MOL0     C 9223   2.757   0.236  -1.241  0.5600  0.3191  0.0820
   69MOL0     C 9224   2.685   0.338  -1.326  0.2033  0.8906  1.1840
   69MOL0    Cl 9225   2.507   0.326  -1.327  0.2834 -0.1328  0.0697
   69MOL0     C 9226   3.630   0.191  -0.756  0.2370 -0.6164 -0.3260
   69MOL0     C 9227   3.727   0.259  -0.688 -0.4995  0.5592  0.4471
   69MOL0     O 9228   3.670   0.397  -0.386 -0.5119 -0.5123 -0.1721
   69MOL0     C 9229   3.943   0.440  -0.279 -0.4153  0.3294 -0.6659
   69MOL0     C 9230   4.036   0.492  -0.195  0.1207 -0.1017  0.4769
   69MOL0     N 9231   4.021   1.088  -0.389 -1.0196  0.2748  0.2776
   69MOL0     N 9232   3.954   1.197  -0.360  0.1888  0.2781 -0.3443
   69MOL0     C 9233   3.985   2.239   0.242 -0.0113  0.0604  0.3984
   69MOL0     C 9234   3.952   2.277   0.376 -0.0303  0.1380 -0.7000
   69MOL0     C 9235   3.670   2.279   0.772 -1.0306 -0.1129  0.3264
   69MOL0     C 9236   3.640   2.411   0.746 -1.0864 -0.7361  0.0196
   69MOL0     C 9237   3.572   2.491   0.837  0.2806  0.3399 -0.5224
   69MOL0     C 9238   3.515   2.432   0.952  0.8918 -0.0097  0.2085
   69MOL0     O 9239   3.447   2.504   1.043  0.0321 -0.9293 -0.2965
   69MOL0     C 9240   3.302   2.493   1.034  1.1055  0.7247  0.0234
   69MOL0     C 9241   3.249   2.604   0.945  0.4317  0.3036 -1.2430
   69MOL0     C 9242   3.225   2.739   1.022 -0.7523 -0.3005 -0.0632
   69MOL0     C 9243   3.359   2.819   1.043  0.3225  0.5808  0.5595
   69MOL0     C 9244   3.334   2.962   1.041  0.5877  0.1972 -0.9336
   69MOL0     C 9245   3.338   3.086   1.036  0.3405 -0.4848 -0.4730
   69MOL0     C 9246   3.529   2.295   0.974 -0.0301 -1.1484  0.7452
   69MOL0     C 9247   3.601   2.216   0.886  0.1159 -0.6117 -0.4502
   69MOL0     H 9248   3.701   2.050   0.442 -1.7795  2.6823 -0.0148
   69MOL0     H 9249   3.752   1.992   0.217 -3.2996  0.5894  2.5116
   69MOL0     H 9250   3.749   2.122  -0.017 -0.0518  0.7868  0.7980
   69MOL0     H 9251   3.859   2.235  -0.082 -0.6864 -0.3009 -0.9303
   69MOL0     H 9252   3.798   2.099  -0.261  0.2162  1.9331  0.7240
   69MOL0     H 9253   3.966   2.110  -0.224  0.2737  0.5114  0.1605
   69MOL0     H 9254   3.972   1.877  -0.241 -0.4676 -3.2467  1.3774
   69MOL0     H 9255   3.922   1.873  -0.082  0.1209 -0.1055 -0.3056
   69MOL0     H 9256   3.675   1.847  -0.168  0.1918 -2.4060  1.8527
   69MOL0     H 9257   3.744   1.857  -0.330  1.0494  0.1153 -0.4209
   69MOL0     H 9258   3.874   1.650  -0.150  0.1917  0.5538 -0.6854
   69MOL0     H 9259   3.701   1.628  -0.214 -2.8351  2.5469 -3.5519
   69MOL0     H 9260   3.795   1.654  -0.445  0.6388  0.4163 -0.7849
   69MOL0     H 9261   3.941   1.711  -0.382 -1.6792  0.8065  0.6790
   69MOL0     H 9262   3.813   1.425  -0.370  0.4763 -1.6980  0.5247
   69MOL0     H 9263   3.931   1.473  -0.479  0.8206  1.7703 -0.0828
   69MOL0     H 9264   3.918   1.401  -0.186  1.3838 -2.1652 -0.8193
   69MOL0     H 9265   4.068   1.500  -0.244  1.4320 -0.4368  0.3822
   69MOL0     H 9266   4.238   1.272  -0.212  0.3663  1.7154 -0.3960
   69MOL0     H 9267   4.252   0.914  -0.371  1.2083  2.7411 -3.5567
   69MOL0     H 9268   4.353   1.046  -0.308  1.9944 -2.5465 -3.4623
   69MOL0     H 9269   4.120   0.940  -0.128 -0.4958  1.8281 -1.0948
   69MOL0     H 9270   4.263   1.039  -0.087 -0.9245  0.6699  0.5859
   69MOL0     H 9271   4.333   0.847   0.011  1.6379  4.5337  0.6646
   69MOL0     H 9272   4.420   0.875  -0.134 -0.7228 -2.1774 -2.8650
   69MOL0     H 9273   4.350   0.633  -0.123  0.7883  0.8943 -1.1297
   69MOL0     H 9274   4.285   0.706  -0.272  2.7753 -2.1214 -0.3997
   69MOL0     H 9275   4.009   0.821  -0.278  0.2095  0.1402  1.3589
   69MOL0     H 9276   3.844   0.854  -0.429  0.5810  0.0848  1.8000
   69MOL0     H 9277   3.846   0.728  -0.547  0.8118  1.3097 -0.4504
   69MOL0     H 9278   3.713   0.735  -0.411  1.8825  1.2512  4.0813
   69MOL0     H 9279   3.565   0.550  -0.660  0.3136  1.1810 -2.9964
   69MOL0     H 9280   3.386   0.434  -0.776 -0.1276  0.5165  0.2371
   69MOL0     H 9281   3.512   0.017  -0.941 -0.4440 -0.8006 -2.4088
   69MOL0     H 9282   3.355  -0.009  -0.847 -4.5290 -0.4425 -2.3519
   69MOL0     H 9283   3.359   0.129  -1.127  2.0272  0.4061 -0.9895
   69MOL0     H 9284   3.353  -0.047  -1.112 -0.3734  0.1860  0.6439
   69MOL0     H 9285   3.185   0.139  -0.943 -0.8739  1.6107 -1.8849
   69MOL0     H 9286   3.155  -0.033  -0.982  0.5260 -0.0662 -0.0742
   69MOL0     H 9287   3.152   0.207  -1.166  0.6841 -1.2763 -1.0458
   69MOL0     H 9288   3.118   0.041  -1.211  3.5896 -2.4191  2.8218
   69MOL0     H 9289   2.950   0.192  -1.010 -1.7986  0.3229 -0.4916
   69MOL0     H 9290   2.904   0.045  -1.085  2.2408 -0.0191  4.1806
   69MOL0     H 9291   2.939   0.335  -1.176 -3.3207  0.6122  2.4134
   69MOL0     H 9292   2.960   0.217  -1.307 -0.0169  0.8348 -0.5850
   69MOL0     H 9293   2.703   0.232  -1.145 -0.1982 -2.9095 -0.3442
   69MOL0     H 9294   2.731   0.137  -1.280 -2.0732  1.7878 -2.2758
   69MOL0     H 9295   2.703   0.313  -1.431 -3.1291 -1.2743  0.9670
   69MOL0     H 9296   2.711   0.441  -1.303  0.5445  1.1131 -0.1201
   69MOL0     H 9297   3.640   0.085  -0.776  1.7734 -0.1010 -2.7826
   69MOL0     H 9298   3.820   0.212  -0.657 -0.2338 -2.0128 -3.5152
   69MOL0     H 9299   3.930   0.332  -0.283  2.4369 -0.1160  0.0817
   69MOL0     H 9300   4.095   0.430  -0.129 -0.5061 -1.7175 -0.4132
   69MOL0     H 9301   4.055   2.302   0.189 -1.6855  1.7424  0.1004
   69MOL0     H 9302   3.982   2.377   0.405 -2.2757  0.7769 -0.3667
   69MOL0     H 9303   3.687   2.467   0.665 -1.3956  0.7467  0.8278
   69MOL0     H 9304   3.562   2.598   0.820  1.5380  0.4980 -0.3991
   69MOL0     H 9305   3.271   2.395   0.995 -1.9910  1.4390  0.3935
   69MOL0     H 9306   3.254   2.493   1.132 -0.4021 -3.7807 -0.4764
   69MOL0     H 9307   3.152   2.568   0.911  1.5819 -1.4726 -2.8494
   69MOL0     H 9308   3.314   2.619   0.858 -0.9640  2.5692 -1.9722
   69MOL0     H 9309   3.188   2.725   1.123 -0.3390  0.1336  0.1574
   69MOL0     H 9310   3.148   2.800   0.973 -0.9495  0.0472  0.6758
   69MOL0     H 9311   3.433   2.797   0.966  1.5861 -0.5285  2.0400
   69MOL0     H 9312   3.401   2.787   1.139 -1.7969 -0.9335  1.0547
   69MOL0     H 9313   3.341   3.192   1.050 -1.5026  0.0900 -3.5071
   69MOL0     H 9314   3.468   2.250   1.051  0.7545 -2.8501  0.3996
   69MOL0     H 9315   3.609   2.110   0.908 -0.7031 -0.4209  0.9679
   70MOL0     O 9316   6.089   9.099   1.192  0.4602 -0.0317 -0.4575
   70MOL0     C 9317   6.008   9.040   1.262 -0.1981 -0.1186 -0.6082
   70MOL0     O 9318   6.031   8.976   1.375  0.3445  0.5715 -1.1480
   70MOL0     C 9319   6.144   9.022   1.439  0.9847 -0.2467 -0.4951
   70MOL0     C 9320   6.279   8.985   1.423 -0.3132  0.1199 -0.1772
   70MOL0     C 9321   6.383   9.049   1.487  0.3331 -0.1157  0.1364
   70MOL0     C 9322   6.360   9.173   1.550  0.2448  0.7598 -0.6386
   70MOL0     O 9323   6.463   9.252   1.592  0.3452 -0.0666 -0.5886
   70MOL0     C 9324   6.445   9.316   1.713  0.6262  1.0466 -0.1402
   70MOL0     C 9325   6.578   9.376   1.761  0.3062 -0.0807  0.3730
   70MOL0     C 9326   6.577   9.451   1.900 -0.2157 -0.6566 -1.0122
   70MOL0     C 9327   6.489   9.577   1.898 -0.2224 -0.8852  0.1426
   70MOL0     C 9328   6.489   9.676   2.020 -0.5729 -0.9717  0.4968
   70MOL0     C 9329   6.633   9.695   2.084  0.0666  0.7731 -0.8277
   70MOL0     C 9330   6.659   9.832   2.141 -0.7371  0.1782  1.9970
   70MOL0     C 9331   6.812   9.856   2.171  0.1609  0.1034  0.2364
   70MOL0     N 9332   6.903   9.831   2.059  0.6045 -0.3331  0.3979
   70MOL0     C 9333   6.893   9.918   1.951  0.4138  1.3982  0.0237
   70MOL0     C 9334   7.009   9.897   1.877 -0.2425 -1.0439  0.0062
   70MOL0     C 9335   7.048   9.974   1.764 -0.5894 -0.0507  0.0778
   70MOL0     C 9336   6.970   9.921   1.647  0.1712 -1.1465  0.6459
   70MOL0     C 9337   7.019   9.960   1.503 -1.0799  0.6360 -0.0447
   70MOL0     C 9338   7.026  10.108   1.482 -0.8960 -0.8784 -0.3280
   70MOL0     O 9339   7.048  10.125   1.341  0.5787 -1.6807  0.7327
   70MOL0     C 9340   7.040  10.250   1.295 -0.2329 -1.2313  0.0930
   70MOL0     C 9341   7.068  10.360   1.372  0.1867 -0.2763  0.3185
   70MOL0     C 9342   7.037  10.491   1.336  0.2861  0.3408  0.6403
   70MOL0     C 9343   7.062  10.596   1.437  0.2218  1.7747 -0.3036
   70MOL0     C 9344   6.994  10.521   1.203 -0.9539 -0.0689  0.8066
   70MOL0     C 9345   6.969  10.647   1.139 -0.1571 -0.4050 -0.1382
   70MOL0     O 9346   6.869  10.656   1.037 -0.0516  0.5461 -0.0701
   70MOL0     C 9347   6.850  10.780   0.974 -0.5516 -0.4366 -0.9071
   70MOL0     C 9348   6.727  10.851   0.989 -0.3132  0.2162 -0.9751
   70MOL0     C 9349   6.713  10.971   0.913 -0.2831  0.0045  0.6361
   70MOL0     C 9350   6.828  11.031   0.852 -0.9622 -1.3755 -0.4593
   70MOL0     O 9351   6.839  11.153   0.800 -0.6803  0.7687  0.1658
   70MOL0     C 9352   6.720  11.210   0.751 -0.6580 -0.5796 -0.0248
   70MOL0     C 9353   6.759  11.335   0.666  0.1300  0.1131 -0.3206
   70MOL0     C 9354   6.642  11.383   0.579 -0.3791  0.4920 -0.2813
   70MOL0     C 9355   6.689  11.461   0.462  0.5988 -0.0436  0.4674
   70MOL0     C 9356   6.578  11.460   0.357 -0.8419  0.2112 -1.5149
   70MOL0     C 9357   6.574  11.328   0.274  0.3266 -1.2534 -0.2864
   70MOL0     C 9358   6.453  11.350   0.182  0.0585  0.4700 -0.2458
   70MOL0     C 9359   6.430  11.210   0.103 -1.0942  0.0585  0.1978
   70MOL0    Cl 9360   6.570  11.184   0.008 -0.0929 -0.0114  0.6097
   70MOL0     C 9361   6.952  10.970   0.866  0.9676  0.0876 -0.1775
   70MOL0     C 9362   6.958  10.834   0.906 -0.0289  0.3837  0.7510
   70MOL0     O 9363   7.036  10.740   1.184  0.4605  0.2038  0.2522
   70MOL0     C 9364   6.976  10.411   1.119  0.3294 -0.0917 -0.0984
   70MOL0     C 9365   7.002  10.274   1.160  0.3210  0.5002 -0.6557
   70MOL0     N 9366   7.078   9.810   1.947 -0.0773  0.5516 -0.5715
   70MOL0     N 9367   7.018   9.768   2.058 -0.2808  0.4819 -0.8147
   70MOL0     C 9368   6.215   9.213   1.556 -0.2930 -0.0130 -0.7264
   70MOL0     C 9369   6.112   9.135   1.521  0.3742  1.2854  0.5726
   70MOL0     C 9370   5.868   9.003   1.212 -0.1240 -0.2829  0.2165
   70MOL0     C 9371   5.788   8.926   1.298 -0.3809  0.3908 -0.4295
   70MOL0     C 9372   5.656   8.886   1.258 -0.2348  0.7816  0.7116
   70MOL0     C 9373   5.610   8.933   1.128  0.4520  0.8540  0.4014
   70MOL0     O 9374   5.487   8.884   1.081  0.2650 -0.2591  0.9191
   70MOL0     C 9375   5.495   8.755   1.017 -1.4466  0.7614 -0.8201
   70MOL0     C 9376   5.356   8.711   0.978  0.4382 -0.1692  0.2132
   70MOL0     C 9377   5.298   8.635   1.092 -0.5175  0.4084  0.6578
   70MOL0     C 9378   5.144   8.641   1.098 -0.5166 -0.4779 -1.2329
   70MOL0     C 9379   5.104   8.576   1.220  0.9407  0.2360  0.7621
   70MOL0     C 9380   5.045   8.557   1.319  0.5598 -0.9264 -1.1765
   70MOL0     C 9381   5.691   9.019   1.051  0.9600  0.3995  0.0321
   70MOL0     C 9382   5.820   9.054   1.096 -0.4596 -0.4728 -0.2010
   70MOL0     H 9383   6.302   8.884   1.391 -0.8345 -1.1448  3.0459
   70MOL0     H 9384   6.477   9.000   1.465  1.9717  2.3860  1.1108
   70MOL0     H 9385   6.373   9.398   1.705 -4.7336 -2.2877  5.0293
   70MOL0     H 9386   6.408   9.244   1.787  2.8485  2.5955  2.7215
   70MOL0     H 9387   6.652   9.297   1.774 -1.5376 -1.8194  0.9953
   70MOL0     H 9388   6.630   9.447   1.697 -1.6760  3.4457  2.3267
   70MOL0     H 9389   6.536   9.385   1.976 -4.8086  1.1306 -1.6264
   70MOL0     H 9390   6.682   9.478   1.915 -0.7087  0.4313  0.6295
   70MOL0     H 9391   6.519   9.643   1.816 -0.9587 -1.0356 -0.2539
   70MOL0     H 9392   6.383   9.556   1.882 -0.4392  0.1035  0.1707
   70MOL0     H 9393   6.444   9.772   1.992 -1.8042 -0.4852  3.7413
   70MOL0     H 9394   6.428   9.625   2.095 -0.8506 -0.0405  0.9099
   70MOL0     H 9395   6.615   9.624   2.166 -1.3841  1.5919 -0.3809
   70MOL0     H 9396   6.715   9.660   2.022 -2.1447 -1.7668 -2.5635
   70MOL0     H 9397   6.630   9.906   2.066  2.0963  2.2581  2.7643
   70MOL0     H 9398   6.592   9.834   2.227 -1.9228  0.6488  1.0943
   70MOL0     H 9399   6.846   9.802   2.260 -0.7234  1.8866  1.7325
   70MOL0     H 9400   6.825   9.964   2.181 -1.2806  0.2860  0.4407
   70MOL0     H 9401   6.818   9.994   1.935  0.6432  1.5313 -0.4245
   70MOL0     H 9402   7.034  10.082   1.770  2.4414  0.6790 -2.9704
   70MOL0     H 9403   7.152   9.959   1.731 -0.6579  0.5895 -0.4462
   70MOL0     H 9404   6.865   9.947   1.662 -0.5898 -1.5111 -3.0198
   70MOL0     H 9405   6.970   9.811   1.650 -1.2177 -1.1423  1.6279
   70MOL0     H 9406   6.945   9.925   1.430 -2.8919  1.5039  1.2970
   70MOL0     H 9407   7.116   9.912   1.489 -2.2700 -2.1763  0.5734
   70MOL0     H 9408   7.104  10.152   1.545  1.8077 -1.1525 -3.2361
   70MOL0     H 9409   6.931  10.155   1.510 -1.6398 -0.2305 -3.5579
   70MOL0     H 9410   7.112  10.352   1.471  2.1120  1.8514 -0.2748
   70MOL0     H 9411   7.168  10.605   1.464  0.4748  0.0449 -0.6160
   70MOL0     H 9412   7.031  10.698   1.413  3.5281  2.8380 -0.5721
   70MOL0     H 9413   7.017  10.564   1.531 -1.5429  2.3897 -0.9076
   70MOL0     H 9414   6.637  10.806   1.029 -1.0482  3.5730  1.6296
   70MOL0     H 9415   6.623  11.029   0.897 -0.2894 -0.9370 -4.7349
   70MOL0     H 9416   6.674  11.134   0.687 -2.4453 -1.3310  2.0475
   70MOL0     H 9417   6.661  11.242   0.838 -1.7330  1.0754 -1.2884
   70MOL0     H 9418   6.792  11.411   0.737 -3.8810  0.5575  1.3275
   70MOL0     H 9419   6.846  11.310   0.605  2.4804  4.9582  0.6023
   70MOL0     H 9420   6.569  11.443   0.634 -2.9652  0.6289 -3.5835
   70MOL0     H 9421   6.598  11.290   0.543  1.2581 -0.4318 -0.0118
   70MOL0     H 9422   6.706  11.566   0.489 -0.4396  0.5820 -1.1638
   70MOL0     H 9423   6.771  11.417   0.406  0.4944  1.0680 -0.5926
   70MOL0     H 9424   6.603  11.527   0.274 -2.4077  1.0074 -1.3930
   70MOL0     H 9425   6.483  11.486   0.406 -0.1352 -2.0644  1.2953
   70MOL0     H 9426   6.669  11.307   0.223 -1.0269 -0.6447 -3.2610
   70MOL0     H 9427   6.551  11.250   0.347 -3.5540 -0.1062 -0.0706
   70MOL0     H 9428   6.469  11.440   0.121  1.2645  0.5909  0.2138
   70MOL0     H 9429   6.362  11.377   0.236 -0.0528  0.9748 -0.6709
   70MOL0     H 9430   6.331  11.217   0.057 -0.6874 -0.5904 -0.8104
   70MOL0     H 9431   6.434  11.136   0.184  3.0662  0.7951  0.8976
   70MOL0     H 9432   7.047  11.006   0.830  0.2214  1.0579 -1.2406
   70MOL0     H 9433   7.052  10.779   0.901  1.0173  1.7896  3.1573
   70MOL0     H 9434   6.953  10.421   1.013  0.5304  0.8760 -0.0649
   70MOL0     H 9435   6.992  10.194   1.087  0.0450  0.5114 -0.6337
   70MOL0     H 9436   6.191   9.302   1.614 -0.1610 -1.4575  1.6942
   70MOL0     H 9437   6.010   9.166   1.540 -0.9311  0.0463 -3.3567
   70MOL0     H 9438   5.811   8.891   1.398 -4.1763 -1.5117 -0.0250
   70MOL0     H 9439   5.595   8.817   1.316  1.6496  1.1315  3.2818
   70MOL0     H 9440   5.557   8.757   0.927  1.8500  1.8303  1.3254
   70MOL0     H 9441   5.551   8.683   1.077  0.4991 -0.0135 -3.3700
   70MOL0     H 9442   5.356   8.643   0.892  2.9438  0.5096 -0.4093
   70MOL0     H 9443   5.300   8.802   0.957 -0.8052 -0.5758  1.5773
   70MOL0     H 9444   5.344   8.675   1.183  2.6006  0.6664 -0.8874
   70MOL0     H 9445   5.334   8.533   1.078 -1.4732  0.5545 -5.0842
   70MOL0     H 9446   5.099   8.600   1.008 -2.1507 -0.4186 -0.4878
   70MOL0     H 9447   5.114   8.744   1.122 -0.9270 -1.0403  0.8741
   70MOL0     H 9448   4.992   8.550   1.412  1.1676  1.5875 -0.5596
   70MOL0     H 9449   5.672   9.047   0.948  1.9054  3.3158  0.5417
   70MOL0     H 9450   5.886   9.116   1.035 -2.2298 -1.2663 -3.1346
   71MOL0     O 9451   2.178   7.976   0.185 -0.0106  0.1391  0.0302
   71MOL0     C 9452   2.251   8.070   0.188 -1.3607 -0.8913  1.1963
   71MOL0     O 9453   2.379   8.078   0.126  0.7325 -0.0469 -0.1270
   71MOL0     C 9454   2.412   7.985   0.039 -0.5764  0.5105  0.5489
   71MOL0     C 9455   2.405   8.021  -0.095 -0.4059  0.9727  0.2528
   71MOL0     C 9456   2.434   7.919  -0.190  1.2022 -0.2119 -0.1283
   71MOL0     C 9457   2.459   7.781  -0.149 -0.4883  0.4534 -1.1084
   71MOL0     O 9458   2.471   7.687  -0.249 -0.6845  0.1151  1.3987
   71MOL0     C 9459   2.412   7.561  -0.234  0.2434 -0.1604 -0.6807
   71MOL0     C 9460   2.525   7.462  -0.218 -0.6751 -0.3105 -0.3102
   71MOL0     C 9461   2.494   7.345  -0.112 -1.1765  0.5604 -0.0228
   71MOL0     C 9462   2.363   7.271  -0.144 -0.0353 -0.4945  0.0317
   71MOL0     C 9463   2.313   7.178  -0.034 -0.3419 -0.0470  1.1657
   71MOL0     C 9464   2.281   7.244   0.098 -0.3606 -0.2693 -0.3643
   71MOL0     C 9465   2.276   7.132   0.203  0.2856  0.1202 -0.8273
   71MOL0     C 9466   2.403   7.089   0.268  0.8168 -0.2161  0.8458
   71MOL0     N 9467   2.393   7.115   0.408  0.4705  0.4847  0.2270
   71MOL0     C 9468   2.370   7.235   0.461 -0.7030  0.1803 -0.7515
   71MOL0     C 9469   2.310   7.202   0.586  0.1971  0.6778  0.1347
   71MOL0     C 9470   2.267   7.315   0.678  0.6872 -0.4370  0.7728
   71MOL0     C 9471   2.130   7.385   0.637  0.3276  0.7692  1.0022
   71MOL0     C 9472   2.012   7.300   0.584 -1.3116 -0.0879 -0.5191
   71MOL0     C 9473   1.974   7.323   0.436 -0.1131  0.5236  0.1624
   71MOL0     O 9474   1.890   7.212   0.404  0.4236 -0.1914  0.1717
   71MOL0     C 9475   1.860   7.191   0.270  0.3363  0.6878 -0.5543
   71MOL0     C 9476   1.855   7.064   0.216  0.4352  0.4824  1.0207
   71MOL0     C 9477   1.825   7.039   0.080 -0.0462  0.2483 -0.3461
   71MOL0     C 9478   1.819   6.892   0.046  0.1247  0.8066 -0.3418
   71MOL0     C 9479   1.811   7.145  -0.018 -0.3825 -0.9767 -0.5737
   71MOL0     C 9480   1.788   7.151  -0.166 -0.1297  0.0193  0.6756
   71MOL0     O 9481   1.741   7.269  -0.220 -0.2449  0.0968  0.3704
   71MOL0     C 9482   1.671   7.268  -0.339  0.7420  0.5950 -0.2103
   71MOL0     C 9483   1.593   7.163  -0.391  0.3259 -0.1506  0.0232
   71MOL0     C 9484   1.536   7.172  -0.521  0.4763 -0.7241 -0.7300
   71MOL0     C 9485   1.560   7.289  -0.596 -0.7424 -0.2243 -0.6054
   71MOL0     O 9486   1.478   7.304  -0.702  0.0011  0.0000  0.1470
   71MOL0     C 9487   1.530   7.252  -0.822 -0.2668 -0.0731  0.5008
   71MOL0     C 9488   1.420   7.203  -0.929 -0.0836 -0.0006 -0.0753
   71MOL0     C 9489   1.327   7.323  -0.954 -0.0157 -0.6774 -0.4011
   71MOL0     C 9490   1.228   7.299  -1.063  1.0453  0.3211 -0.2365
   71MOL0     C 9491   1.115   7.394  -1.087 -0.2272 -0.4760 -1.0752
   71MOL0     C 9492   1.002   7.382  -0.978 -0.1859  0.6409 -0.6867
   71MOL0     C 9493   0.891   7.489  -0.979  0.5195  0.8218  0.7766
   71MOL0     C 9494   0.813   7.504  -1.108 -0.3526 -0.6134 -0.3774
   71MOL0    Cl 9495   0.702   7.643  -1.082  0.3183  0.0862  0.1602
   71MOL0     C 9496   1.643   7.385  -0.550 -0.7275  0.3484 -0.1968
   71MOL0     C 9497   1.687   7.382  -0.416  0.1378  0.4399 -0.2892
   71MOL0     O 9498   1.816   7.043  -0.224  0.4325 -0.3893  0.1868
   71MOL0     C 9499   1.827   7.271   0.041 -0.2648 -0.0379 -0.1157
   71MOL0     C 9500   1.850   7.290   0.178  0.8042 -0.9756 -0.1046
   71MOL0     N 9501   2.310   7.071   0.603 -0.2073 -0.4017  0.8717
   71MOL0     N 9502   2.363   7.022   0.499  0.1425  0.2471 -0.8193
   71MOL0     C 9503   2.469   7.752  -0.014  0.5503  0.1952 -0.0235
   71MOL0     C 9504   2.440   7.857   0.080 -0.0716  0.5574  0.5236
   71MOL0     C 9505   2.232   8.176   0.294  1.2306 -0.4455  0.4545
   71MOL0     C 9506   2.108   8.200   0.356  0.0710 -0.2701 -0.0949
   71MOL0     C 9507   2.084   8.304   0.443  0.1962 -0.1736 -0.2914
   71MOL0     C 9508   2.186   8.388   0.483 -0.2979 -0.2937 -0.3908
   71MOL0     O 9509   2.161   8.491   0.564 -0.2144 -0.2765  0.2344
   71MOL0     C 9510   2.028   8.541   0.589 -0.5872 -0.6196 -0.5476
   71MOL0     C 9511   2.044   8.688   0.642  0.4568 -0.2645  0.5616
   71MOL0     C 9512   2.101   8.771   0.521  0.3989  0.4061 -0.6368
   71MOL0     C 9513   2.105   8.918   0.552 -0.7941 -0.1548 -0.3003
   71MOL0     C 9514   1.980   8.967   0.611  0.2961  0.6310  0.1525
   71MOL0     C 9515   1.857   8.981   0.631  0.1618 -0.0891 -0.7363
   71MOL0     C 9516   2.312   8.362   0.436  0.2208 -0.4218  0.1462
   71MOL0     C 9517   2.338   8.267   0.337 -0.1511  0.7964 -0.4766
   71MOL0     H 9518   2.383   8.122  -0.129  0.3275  0.7390 -0.9946
   71MOL0     H 9519   2.438   7.936  -0.298 -1.0745  0.3842 -0.1813
   71MOL0     H 9520   2.347   7.562  -0.146  3.0020  1.0970  1.4986
   71MOL0     H 9521   2.356   7.540  -0.326 -4.0185  3.8625  0.6331
   71MOL0     H 9522   2.553   7.424  -0.317  2.1926 -2.6405  1.2336
   71MOL0     H 9523   2.616   7.511  -0.182  0.1527  0.3603 -3.0354
   71MOL0     H 9524   2.577   7.276  -0.130 -1.0563  0.5875  0.4044
   71MOL0     H 9525   2.515   7.385  -0.012  1.0510  2.5070 -1.1690
   71MOL0     H 9526   2.284   7.342  -0.169 -0.2380 -1.4991 -2.5057
   71MOL0     H 9527   2.384   7.204  -0.228 -4.1039 -0.5429 -1.1670
   71MOL0     H 9528   2.223   7.131  -0.074 -1.1541  3.9530 -2.4555
   71MOL0     H 9529   2.393   7.104  -0.016 -4.4410 -4.3487  4.0755
   71MOL0     H 9530   2.348   7.328   0.117  2.0799 -1.7854 -1.7672
   71MOL0     H 9531   2.183   7.292   0.086 -0.9955 -0.8119  2.0921
   71MOL0     H 9532   2.202   7.164   0.277  2.7302  2.1783  0.9144
   71MOL0     H 9533   2.240   7.040   0.156 -0.4619 -0.4910  0.8712
   71MOL0     H 9534   2.489   7.140   0.222 -1.4542  1.7070 -1.5787
   71MOL0     H 9535   2.412   6.981   0.255 -4.5090 -1.4714  4.3238
   71MOL0     H 9536   2.381   7.333   0.414  3.9974 -0.3611 -1.3011
   71MOL0     H 9537   2.238   7.262   0.769 -3.4335  1.8063  0.9735
   71MOL0     H 9538   2.352   7.384   0.688 -0.2876  1.0515 -0.6288
   71MOL0     H 9539   2.149   7.467   0.566  0.2190 -0.2544 -0.2409
   71MOL0     H 9540   2.081   7.433   0.723 -4.2302  0.5201 -1.1344
   71MOL0     H 9541   1.923   7.326   0.642 -2.6176 -2.1064 -1.4968
   71MOL0     H 9542   2.035   7.194   0.598  0.4205  0.5557  2.2057
   71MOL0     H 9543   2.061   7.308   0.371  0.0298  0.7660  0.2977
   71MOL0     H 9544   1.925   7.420   0.423  0.8227  0.7304 -2.5353
   71MOL0     H 9545   1.863   6.978   0.282  2.9354  0.0554  0.3003
   71MOL0     H 9546   1.875   6.869  -0.045 -1.9920  3.6296 -2.5439
   71MOL0     H 9547   1.855   6.833   0.131 -1.0912  0.0436 -0.3209
   71MOL0     H 9548   1.716   6.856   0.030  0.5573 -2.3418  2.7552
   71MOL0     H 9549   1.581   7.074  -0.330  2.9482 -0.0640  0.7637
   71MOL0     H 9550   1.461   7.097  -0.543 -2.7998  0.9193  3.4457
   71MOL0     H 9551   1.578   7.340  -0.866  1.7141  1.0800  4.4798
   71MOL0     H 9552   1.605   7.173  -0.808  3.0021  2.9088  1.4482
   71MOL0     H 9553   1.468   7.164  -1.018  2.1884 -0.9577  1.4690
   71MOL0     H 9554   1.359   7.126  -0.881  2.1575 -2.8086 -1.4592
   71MOL0     H 9555   1.382   7.407  -0.996 -1.3667  0.0130 -0.8324
   71MOL0     H 9556   1.276   7.343  -0.859  3.3186 -0.5934  1.5484
   71MOL0     H 9557   1.290   7.293  -1.153  4.0709  4.1851  1.2926
   71MOL0     H 9558   1.184   7.202  -1.039  1.5122  0.0336 -0.5302
   71MOL0     H 9559   1.064   7.384  -1.183 -0.5957  0.2907 -0.9704
   71MOL0     H 9560   1.147   7.499  -1.083 -2.3971  0.2220 -0.2828
   71MOL0     H 9561   0.955   7.284  -0.990  1.9037 -0.3021 -1.7607
   71MOL0     H 9562   1.047   7.398  -0.880 -0.6335 -0.0133 -0.3741
   71MOL0     H 9563   0.940   7.585  -0.963 -0.3576  1.3237  0.4764
   71MOL0     H 9564   0.829   7.463  -0.894 -0.2476 -1.8642 -0.4920
   71MOL0     H 9565   0.756   7.416  -1.140 -2.3165 -0.2621  1.8575
   71MOL0     H 9566   0.882   7.548  -1.180  2.3581  0.4028  2.6020
   71MOL0     H 9567   1.682   7.462  -0.615  0.6923 -0.7689 -0.6961
   71MOL0     H 9568   1.763   7.456  -0.389 -1.3938  2.0680 -0.2618
   71MOL0     H 9569   1.814   7.360  -0.020  1.3036 -0.7328 -1.5413
   71MOL0     H 9570   1.867   7.385   0.230  0.9754 -1.5232  0.8656
   71MOL0     H 9571   2.486   7.657   0.035  0.1741  0.7089  1.1224
   71MOL0     H 9572   2.453   7.836   0.185  2.1076 -5.5454 -0.5572
   71MOL0     H 9573   2.036   8.121   0.337  0.8858 -0.8248 -0.9503
   71MOL0     H 9574   1.982   8.302   0.481  0.0866 -0.5566 -0.5924
   71MOL0     H 9575   1.968   8.543   0.498  1.3171 -3.1218 -1.9754
   71MOL0     H 9576   1.988   8.468   0.659 -0.0524 -0.7384 -0.3613
   71MOL0     H 9577   2.119   8.693   0.722  0.7938  2.1952  0.1798
   71MOL0     H 9578   1.948   8.726   0.679 -0.4269 -1.0189 -0.8607
   71MOL0     H 9579   2.034   8.748   0.438 -0.5781 -3.3109  0.9428
   71MOL0     H 9580   2.198   8.732   0.489 -0.0649 -1.5759  0.2299
   71MOL0     H 9581   2.129   8.973   0.461 -3.1061 -1.6339 -1.8928
   71MOL0     H 9582   2.189   8.944   0.618 -0.6999 -1.9376  0.3364
   71MOL0     H 9583   1.750   8.985   0.636  0.1459 -1.4156  0.4624
   71MOL0     H 9584   2.391   8.430   0.465  0.2352 -0.1958 -0.4277
   71MOL0     H 9585   2.441   8.274   0.305  1.0236  1.6604  3.0861
   72MOL0     O 9586   4.993   4.009   3.360  0.1704 -0.1966 -0.5949
   72MOL0     C 9587   5.106   4.031   3.333  1.0858 -0.4876 -0.1179
   72MOL0     O 9588   5.178   3.976   3.240 -0.1575  0.0183  0.4601
   72MOL0     C 9589   5.146   3.862   3.176  0.3273  0.0672 -0.7675
   72MOL0     C 9590   5.067   3.763   3.218  0.7619  1.1930  0.5833
   72MOL0     C 9591   5.050   3.646   3.133 -0.3657 -0.1071 -0.2514
   72MOL0     C 9592   5.131   3.644   3.017  0.0343 -0.3231 -0.5473
   72MOL0     O 9593   5.139   3.534   2.939  0.2096  0.0817  0.4967
   72MOL0     C 9594   5.025   3.460   2.897  0.0035  0.0571  0.3127
   72MOL0     C 9595   5.062   3.330   2.814 -0.5637 -0.1813  0.9661
   72MOL0     C 9596   5.133   3.230   2.907  0.3480  0.5175 -0.5079
   72MOL0     C 9597   5.140   3.075   2.860  0.4420  0.8099 -0.2720
   72MOL0     C 9598   5.181   2.983   2.979  0.3221 -0.4814 -0.0674
   72MOL0     C 9599   5.339   2.984   3.014 -0.2770 -1.0688  0.1047
   72MOL0     C 9600   5.374   2.849   3.089  0.2818 -0.0078  0.9123
   72MOL0     C 9601   5.311   2.847   3.229  0.4208 -0.0183  0.1272
   72MOL0     N 9602   5.300   2.705   3.276 -0.4662  0.8893  0.3455
   72MOL0     C 9603   5.403   2.623   3.320 -0.2256 -0.1017 -0.6462
   72MOL0     C 9604   5.351   2.497   3.318 -0.1259  0.1927 -0.0035
   72MOL0     C 9605   5.426   2.371   3.350 -0.2041 -0.9934 -0.5649
   72MOL0     C 9606   5.533   2.334   3.246 -0.4001 -0.6819 -0.9657
   72MOL0     C 9607   5.608   2.202   3.291  0.6339  0.8158  0.9274
   72MOL0     C 9608   5.714   2.158   3.185  0.1027 -0.3286 -0.1669
   72MOL0     O 9609   5.733   2.016   3.191  0.8068 -0.0232  0.1145
   72MOL0     C 9610   5.670   1.936   3.094 -0.7911 -0.5914  0.5732
   72MOL0     C 9611   5.536   1.894   3.095  0.1636  0.2567 -0.4459
   72MOL0     C 9612   5.469   1.822   3.000 -0.2261  0.1988  0.8458
   72MOL0     C 9613   5.332   1.770   3.024 -0.4427 -0.4398  0.1986
   72MOL0     C 9614   5.531   1.815   2.877  0.5885 -0.7024 -0.1123
   72MOL0     C 9615   5.475   1.743   2.760 -0.1569  0.0682  0.0183
   72MOL0     O 9616   5.558   1.754   2.655 -0.1790  0.0131  0.1931
   72MOL0     C 9617   5.515   1.706   2.535 -0.2309  1.8126 -0.6798
   72MOL0     C 9618   5.576   1.589   2.486  0.4494  1.0867  0.6799
   72MOL0     C 9619   5.552   1.544   2.357  0.1507 -0.7866  0.2508
   72MOL0     C 9620   5.462   1.619   2.267 -0.4404  0.3829 -0.0138
   72MOL0     O 9621   5.428   1.586   2.140  1.2278  0.5265  0.3069
   72MOL0     C 9622   5.385   1.453   2.118 -0.2709 -0.1126  0.1026
   72MOL0     C 9623   5.317   1.435   1.972 -0.5348  0.2279  0.7687
   72MOL0     C 9624   5.208   1.331   1.953  0.3004  1.0383 -0.6289
   72MOL0     C 9625   5.172   1.313   1.804  1.0773  0.1408 -0.2831
   72MOL0     C 9626   5.031   1.262   1.776 -0.9695 -0.2263  0.0156
   72MOL0     C 9627   4.997   1.124   1.827 -0.2031 -0.5501  0.1941
   72MOL0     C 9628   5.084   1.011   1.787  0.3355 -0.7016 -0.1851
   72MOL0     C 9629   5.031   0.867   1.805 -0.7110  1.6633  0.7675
   72MOL0    Cl 9630   5.127   0.754   1.694  0.5347  0.4833  0.2555
   72MOL0     C 9631   5.405   1.734   2.323  1.0928  0.1410 -0.4486
   72MOL0     C 9632   5.438   1.787   2.455 -0.3038 -0.3800 -0.4945
   72MOL0     O 9633   5.372   1.679   2.754 -0.2475  0.6063  0.2500
   72MOL0     C 9634   5.673   1.867   2.869  0.1194 -0.1819 -0.0058
   72MOL0     C 9635   5.745   1.919   2.975 -0.1174  0.2709  0.0661
   72MOL0     N 9636   5.219   2.503   3.269  0.5733 -0.1189 -0.0734
   72MOL0     N 9637   5.197   2.628   3.237 -0.6898  0.0941  0.2211
   72MOL0     C 9638   5.222   3.742   2.978  0.0982 -0.0062 -0.0558
   72MOL0     C 9639   5.220   3.856   3.059 -0.3352  0.2154  0.2594
   72MOL0     C 9640   5.167   4.150   3.400 -0.3047 -0.4005 -0.4934
   72MOL0     C 9641   5.277   4.213   3.335  0.0133  1.5414 -0.3394
   72MOL0     C 9642   5.339   4.322   3.389 -0.2948 -0.1633  0.8779
   72MOL0     C 9643   5.276   4.389   3.492 -0.0941  0.6629  0.1572
   72MOL0     O 9644   5.321   4.510   3.543 -1.0475  0.1406 -0.0484
   72MOL0     C 9645   5.439   4.584   3.496 -0.4692 -0.6728  0.0450
   72MOL0     C 9646   5.414   4.671   3.384 -1.1193  0.0233  0.0825
   72MOL0     C 9647   5.526   4.767   3.341  0.0578  0.2423 -0.0073
   72MOL0     C 9648   5.650   4.694   3.288 -0.0789 -0.2151 -0.3909
   72MOL0     C 9649   5.742   4.797   3.261 -0.0159  0.0051 -0.5099
   72MOL0     C 9650   5.817   4.892   3.236 -0.2846 -1.0630 -0.6874
   72MOL0     C 9651   5.161   4.338   3.547  0.2916 -0.1956 -0.3399
   72MOL0     C 9652   5.109   4.217   3.513 -0.0667 -0.2862 -0.4148
   72MOL0     H 9653   5.028   3.776   3.318  3.6641  3.0763  1.5774
   72MOL0     H 9654   4.984   3.566   3.164 -1.6498  0.2658 -1.8639
   72MOL0     H 9655   4.980   3.424   2.990  2.2815 -0.1937  1.3902
   72MOL0     H 9656   4.954   3.533   2.858 -0.8137  1.1475  3.5459
   72MOL0     H 9657   4.966   3.286   2.785 -0.9625 -0.0407  2.0514
   72MOL0     H 9658   5.123   3.364   2.730 -2.8832 -1.2507 -1.3135
   72MOL0     H 9659   5.236   3.259   2.929  1.5714 -3.2857 -0.5373
   72MOL0     H 9660   5.072   3.228   2.998  2.4952 -0.1224  1.0024
   72MOL0     H 9661   5.041   3.036   2.834  0.9295  0.4324 -1.7008
   72MOL0     H 9662   5.201   3.052   2.771  0.8193 -0.5653  0.3092
   72MOL0     H 9663   5.121   3.002   3.068 -2.8888  2.0993 -2.4755
   72MOL0     H 9664   5.153   2.883   2.947  0.1132 -0.1261 -1.0346
   72MOL0     H 9665   5.402   2.994   2.925  0.0767  1.0661  0.5422
   72MOL0     H 9666   5.354   3.061   3.090  0.7128 -0.5251 -0.6215
   72MOL0     H 9667   5.331   2.766   3.031 -1.4175  1.0222  0.6097
   72MOL0     H 9668   5.483   2.848   3.091  0.3180 -1.2875  0.0011
   72MOL0     H 9669   5.214   2.897   3.233 -0.0985 -1.0254  0.4820
   72MOL0     H 9670   5.375   2.899   3.301  1.9664  2.2167 -2.6200
   72MOL0     H 9671   5.501   2.654   3.354  1.1258 -1.7892 -2.7111
   72MOL0     H 9672   5.466   2.377   3.451 -1.8933 -1.1731  0.1547
   72MOL0     H 9673   5.354   2.290   3.336 -3.0834  1.7710 -3.4582
   72MOL0     H 9674   5.602   2.419   3.247 -0.8212 -0.3066 -2.2312
   72MOL0     H 9675   5.491   2.325   3.146 -3.4861  2.4585 -0.1639
   72MOL0     H 9676   5.536   2.123   3.313  1.1134  0.6612  2.0196
   72MOL0     H 9677   5.661   2.228   3.384 -0.8856  0.3035  1.9679
   72MOL0     H 9678   5.807   2.207   3.217  0.9086 -2.2921  0.6860
   72MOL0     H 9679   5.698   2.199   3.085 -1.5661 -0.1479  0.1419
   72MOL0     H 9680   5.492   1.901   3.194  4.0939 -1.1129  1.6075
   72MOL0     H 9681   5.335   1.663   3.046 -1.9933 -0.9573 -1.8156
   72MOL0     H 9682   5.293   1.819   3.114  1.5801 -0.9992  1.4322
   72MOL0     H 9683   5.262   1.784   2.941 -3.3805  0.2690  2.6123
   72MOL0     H 9684   5.645   1.533   2.548 -0.7968  0.1074  1.2330
   72MOL0     H 9685   5.618   1.463   2.327  0.5330 -1.2830  2.2316
   72MOL0     H 9686   5.460   1.376   2.136 -1.3615 -1.2364 -0.0669
   72MOL0     H 9687   5.295   1.432   2.177 -0.4869  0.3742 -0.0443
   72MOL0     H 9688   5.275   1.528   1.930 -0.5336 -0.0265  0.1953
   72MOL0     H 9689   5.394   1.402   1.902  0.5771  1.9978  1.1018
   72MOL0     H 9690   5.113   1.342   2.007  0.7703  0.4249  0.3373
   72MOL0     H 9691   5.246   1.233   1.981 -2.2334  0.9511  3.2309
   72MOL0     H 9692   5.179   1.413   1.760  0.9552  0.9748  1.5180
   72MOL0     H 9693   5.241   1.241   1.759 -0.2109 -2.5781  1.8196
   72MOL0     H 9694   5.013   1.265   1.668  0.8810  1.0899 -0.3052
   72MOL0     H 9695   4.970   1.338   1.826 -2.6386  0.7057 -3.1792
   72MOL0     H 9696   4.982   1.134   1.935 -3.2194  1.2751 -0.2525
   72MOL0     H 9697   4.901   1.099   1.781 -1.2755 -1.4359  2.7517
   72MOL0     H 9698   5.169   1.026   1.854 -0.1573 -0.6552  0.4471
   72MOL0     H 9699   5.110   1.016   1.681  0.9260 -0.5404 -0.0330
   72MOL0     H 9700   4.928   0.858   1.772 -0.3508  1.7042 -0.3865
   72MOL0     H 9701   5.042   0.838   1.910  0.1238  1.5549  0.6545
   72MOL0     H 9702   5.343   1.790   2.254 -1.4648 -0.9571  0.8262
   72MOL0     H 9703   5.391   1.879   2.489  1.9908  0.7732 -0.2089
   72MOL0     H 9704   5.728   1.864   2.775 -0.8144  1.4845 -0.6519
   72MOL0     H 9705   5.850   1.947   2.980  0.2437 -0.8460 -0.7851
   72MOL0     H 9706   5.286   3.727   2.891 -0.7361  2.0909 -1.0958
   72MOL0     H 9707   5.280   3.936   3.016 -1.0523  1.3788  1.3616
   72MOL0     H 9708   5.315   4.160   3.248  0.3481  3.4988 -1.4408
   72MOL0     H 9709   5.427   4.359   3.335  0.4351 -4.2789 -1.1546
   72MOL0     H 9710   5.475   4.648   3.578 -3.7487  0.2228  0.9694
   72MOL0     H 9711   5.515   4.511   3.471  0.9289  1.3105 -1.8562
   72MOL0     H 9712   5.328   4.730   3.416 -0.1838  0.9796  0.9076
   72MOL0     H 9713   5.386   4.619   3.292 -0.7932 -0.8122  0.4450
   72MOL0     H 9714   5.564   4.830   3.422 -0.2146 -1.2133  1.2887
   72MOL0     H 9715   5.488   4.840   3.268 -2.3239 -1.7044 -0.8736
   72MOL0     H 9716   5.629   4.634   3.199 -1.1535  1.1183 -1.0865
   72MOL0     H 9717   5.694   4.635   3.369  1.0087  3.4475  1.9787
   72MOL0     H 9718   5.875   4.980   3.220 -1.0548 -0.4208 -0.0205
   72MOL0     H 9719   5.117   4.395   3.629  0.3704  0.7763 -0.9573
   72MOL0     H 9720   5.020   4.177   3.560 -0.6250  1.4995  0.1188
   73MOL0     O 9721   0.014   1.263   4.163 -0.0864  0.6517  0.2261
   73MOL0     C 9722  -0.005   1.148   4.128 -0.1002  1.0704  0.4868
   73MOL0     O 9723  -0.012   1.044   4.218 -0.3673 -0.1414 -0.1071
   73MOL0     C 9724  -0.030   1.061   4.351  0.6624  0.4374  0.1076
   73MOL0     C 9725   0.055   1.127   4.434  0.8851  0.4967  0.5804
   73MOL0     C 9726   0.049   1.131   4.572 -0.3900  0.8575  0.0142
   73MOL0     C 9727  -0.054   1.073   4.641  0.3315 -0.7263  0.3728
   73MOL0     O 9728  -0.061   1.068   4.775  0.8550  0.6068  0.1846
   73MOL0     C 9729   0.060   1.098   4.846  0.1218 -0.5512  0.2983
   73MOL0     C 9730   0.063   1.068   4.998  0.2575 -0.8392  0.9687
   73MOL0     C 9731   0.081   0.913   5.040  0.8627  0.0553  0.5636
   73MOL0     C 9732   0.096   0.898   5.195 -0.8633 -0.7920  0.6807
   73MOL0     C 9733   0.114   0.755   5.242 -0.2898 -0.3840  0.2516
   73MOL0     C 9734   0.187   0.739   5.382 -0.6066 -0.2878  0.4663
   73MOL0     C 9735   0.081   0.730   5.492  0.1771 -0.0086 -0.6153
   73MOL0     C 9736  -0.012   0.598   5.487 -0.2705 -0.9547  0.5081
   73MOL0     N 9737   0.056   0.464   5.499 -0.2153  0.3564  0.4366
   73MOL0     C 9738   0.056   0.370   5.399  0.3583 -0.0551 -0.3180
   73MOL0     C 9739   0.148   0.282   5.444  0.1132 -0.2618  0.1389
   73MOL0     C 9740   0.203   0.167   5.359 -0.2185 -0.0298 -0.2076
   73MOL0     C 9741   0.345   0.123   5.413  0.6549  0.0369 -0.3900
   73MOL0     C 9742   0.341   0.044   5.544  0.1221  0.9511  0.4245
   73MOL0     C 9743   0.430  -0.075   5.525 -0.6290  0.0280  0.2672
   73MOL0     O 9744   0.385  -0.159   5.422  0.4777 -1.2648  0.2900
   73MOL0     C 9745   0.322  -0.273   5.463 -0.0985 -0.1688 -0.0977
   73MOL0     C 9746   0.394  -0.391   5.501 -1.4405 -0.4896  0.9517
   73MOL0     C 9747   0.328  -0.508   5.553 -0.9092 -0.3196  0.2974
   73MOL0     C 9748   0.427  -0.623   5.556 -0.0148  0.3519  1.3898
   73MOL0     C 9749   0.194  -0.506   5.577  1.3425 -0.1465  0.5301
   73MOL0     C 9750   0.143  -0.628   5.653  0.0874 -1.1350 -0.1813
   73MOL0     O 9751   0.021  -0.671   5.622  0.2942  0.4658  0.2411
   73MOL0     C 9752  -0.018  -0.782   5.692 -0.3155  0.3453  0.0695
   73MOL0     C 9753  -0.144  -0.785   5.756  0.4745  0.6457 -1.1802
   73MOL0     C 9754  -0.170  -0.899   5.834  0.7269 -0.5520  0.7339
   73MOL0     C 9755  -0.092  -1.016   5.838  1.3060 -0.5295 -0.9989
   73MOL0     O 9756  -0.130  -1.117   5.913 -0.4639  0.3955  0.1991
   73MOL0     C 9757  -0.139  -1.089   6.053  0.4199 -0.9828 -0.0127
   73MOL0     C 9758  -0.116  -1.224   6.129 -0.0726 -0.6261  0.8666
   73MOL0     C 9759  -0.119  -1.205   6.281  0.1979 -0.2781  0.3175
   73MOL0     C 9760  -0.068  -1.336   6.338  0.0552  0.3426 -0.4068
   73MOL0     C 9761  -0.075  -1.332   6.491 -0.7601 -0.1069  1.0773
   73MOL0     C 9762   0.051  -1.256   6.533  0.2129  1.0248 -0.1315
   73MOL0     C 9763   0.045  -1.202   6.674  0.4989  0.1824  0.5404
   73MOL0     C 9764  -0.054  -1.080   6.663  0.1412  0.0806 -0.9590
   73MOL0    Cl 9765  -0.046  -1.000   6.827  0.2443 -0.5604  0.5053
   73MOL0     C 9766   0.020  -1.011   5.765 -0.0087  0.4892 -0.9069
   73MOL0     C 9767   0.058  -0.896   5.705 -0.7268  0.1070  1.2698
   73MOL0     O 9768   0.202  -0.651   5.758 -0.4077  0.4973  0.1549
   73MOL0     C 9769   0.122  -0.389   5.543 -0.7103 -0.6245  0.8712
   73MOL0     C 9770   0.179  -0.274   5.474 -0.9713 -0.2672 -0.4501
   73MOL0     N 9771   0.189   0.318   5.563 -0.4498  0.7503  0.3313
   73MOL0     N 9772   0.132   0.428   5.603  1.1111  0.0383 -0.5963
   73MOL0     C 9773  -0.144   1.000   4.563  0.8084  0.0922  0.0492
   73MOL0     C 9774  -0.118   0.977   4.421 -0.4856  0.1511 -0.2847
   73MOL0     C 9775   0.001   1.121   3.980  0.4452  0.6007 -1.0686
   73MOL0     C 9776  -0.033   0.990   3.943 -0.6055 -0.0128 -0.2315
   73MOL0     C 9777  -0.039   0.954   3.810  0.7115 -0.9062  0.5002
   73MOL0     C 9778  -0.028   1.050   3.714 -1.5221  0.5861 -0.1390
   73MOL0     O 9779  -0.045   1.026   3.578  0.4106 -0.1007 -1.1854
   73MOL0     C 9780  -0.061   0.892   3.533  0.3210  1.0963  1.1835
   73MOL0     C 9781  -0.204   0.838   3.558 -0.0236  0.0361  0.2423
   73MOL0     C 9782  -0.315   0.919   3.504 -0.9062 -0.0354 -0.7291
   73MOL0     C 9783  -0.459   0.854   3.524 -0.2177 -0.7156 -0.4073
   73MOL0     C 9784  -0.495   0.852   3.668  0.0284  0.6531 -0.2377
   73MOL0     C 9785  -0.503   0.840   3.779 -0.3004 -0.4137 -0.2246
   73MOL0     C 9786   0.002   1.180   3.744 -0.8982 -0.1128 -0.2672
   73MOL0     C 9787   0.015   1.219   3.880 -0.1892 -1.3417  0.9687
   73MOL0     H 9788   0.129   1.175   4.370  1.6582 -0.3685  0.8066
   73MOL0     H 9789   0.134   1.180   4.618 -1.0485  1.4692  0.6044
   73MOL0     H 9790   0.131   1.032   4.796 -0.0910 -0.3613 -0.2666
   73MOL0     H 9791   0.086   1.203   4.832 -1.0558  0.0200  2.0314
   73MOL0     H 9792   0.143   1.123   5.048 -0.0557  0.3347  0.2183
   73MOL0     H 9793  -0.030   1.115   5.032  0.6004 -0.5482  1.5165
   73MOL0     H 9794  -0.004   0.853   5.008  1.3226 -0.4854  0.3418
   73MOL0     H 9795   0.171   0.875   4.991 -0.7455 -3.2722 -0.0511
   73MOL0     H 9796   0.182   0.957   5.230  0.4009 -2.3685  0.3386
   73MOL0     H 9797   0.003   0.949   5.221 -1.4522  0.3510 -3.0854
   73MOL0     H 9798   0.018   0.703   5.234  0.5951 -2.2736  1.3597
   73MOL0     H 9799   0.177   0.709   5.165  0.9681  0.9580  0.4390
   73MOL0     H 9800   0.247   0.648   5.379  0.4092  0.3897 -0.6607
   73MOL0     H 9801   0.267   0.812   5.396  0.1947 -1.4575  2.2944
   73MOL0     H 9802   0.136   0.712   5.584 -0.6548 -2.8095 -0.5494
   73MOL0     H 9803   0.017   0.819   5.490 -0.8684 -0.6268  1.7458
   73MOL0     H 9804  -0.060   0.601   5.389 -0.0341 -1.7250  0.3584
   73MOL0     H 9805  -0.079   0.602   5.573 -0.5828 -1.7426  0.3104
   73MOL0     H 9806   0.017   0.372   5.298  2.6872  0.7967 -1.2777
   73MOL0     H 9807   0.129   0.086   5.368  0.2647 -0.2478  3.2327
   73MOL0     H 9808   0.213   0.200   5.255 -3.0598  1.4486 -0.1217
   73MOL0     H 9809   0.401   0.216   5.428 -0.4976  0.8065 -0.7663
   73MOL0     H 9810   0.397   0.078   5.328  1.4821  1.8470 -0.8912
   73MOL0     H 9811   0.238   0.014   5.569 -0.6623  2.5082 -0.7135
   73MOL0     H 9812   0.377   0.102   5.630  1.9307 -0.7842  0.9071
   73MOL0     H 9813   0.439  -0.136   5.616 -0.5572 -3.6150 -1.9573
   73MOL0     H 9814   0.533  -0.045   5.503 -0.9348  2.9123  2.2600
   73MOL0     H 9815   0.502  -0.388   5.488 -1.4243 -4.1753 -1.0077
   73MOL0     H 9816   0.519  -0.609   5.498 -0.6689  0.8456  0.4444
   73MOL0     H 9817   0.443  -0.635   5.664 -0.5704 -0.8140  1.3618
   73MOL0     H 9818   0.392  -0.719   5.516 -1.5486  0.9837  1.1863
   73MOL0     H 9819  -0.205  -0.697   5.773 -0.0398 -0.0553  0.8253
   73MOL0     H 9820  -0.264  -0.910   5.886 -1.2037 -0.0374 -2.3974
   73MOL0     H 9821  -0.058  -1.023   6.085 -0.0801 -0.7722  0.8206
   73MOL0     H 9822  -0.239  -1.052   6.074  0.1000 -1.1843 -1.0793
   73MOL0     H 9823  -0.205  -1.283   6.104  0.6003 -0.6145 -1.8049
   73MOL0     H 9824  -0.037  -1.284   6.082  0.0740 -0.1039  0.4380
   73MOL0     H 9825  -0.219  -1.175   6.314 -0.4382 -0.3386 -1.4479
   73MOL0     H 9826  -0.050  -1.125   6.308 -2.2872  1.6862  1.3326
   73MOL0     H 9827  -0.133  -1.419   6.310  1.9527 -0.3806 -3.0423
   73MOL0     H 9828   0.033  -1.351   6.299 -0.0162  1.6835 -1.1830
   73MOL0     H 9829  -0.081  -1.436   6.524  1.4276 -0.7114 -0.2196
   73MOL0     H 9830  -0.171  -1.287   6.520  0.6508  4.3185 -0.2881
   73MOL0     H 9831   0.137  -1.323   6.527  0.3071  0.8363  2.1722
   73MOL0     H 9832   0.080  -1.175   6.467  1.2483 -0.2548 -1.3109
   73MOL0     H 9833   0.140  -1.166   6.714  1.9398 -0.6956 -1.8646
   73MOL0     H 9834  -0.006  -1.274   6.738 -0.3811 -0.1063 -0.4553
   73MOL0     H 9835  -0.161  -1.105   6.668 -0.0723  1.1333  1.4903
   73MOL0     H 9836  -0.025  -1.012   6.582  2.6782 -2.2111 -2.0958
   73MOL0     H 9837   0.084  -1.098   5.779  0.0853  1.0274  3.1493
   73MOL0     H 9838   0.154  -0.886   5.655 -0.7804  2.3536  1.5010
   73MOL0     H 9839   0.015  -0.388   5.563 -0.9950  0.3160 -0.5789
   73MOL0     H 9840   0.122  -0.202   5.415 -0.9228 -1.8663 -2.5512
   73MOL0     H 9841  -0.234   0.963   4.610  1.1785 -0.2360  0.5146
   73MOL0     H 9842  -0.205   0.937   4.371 -2.2514  1.1486  1.8294
   73MOL0     H 9843  -0.049   0.912   4.017 -0.1327  1.2925  1.3130
   73MOL0     H 9844  -0.060   0.847   3.804  3.5770 -1.6481  1.7635
   73MOL0     H 9845  -0.035   0.885   3.427 -1.5398  0.0225  0.7604
   73MOL0     H 9846   0.018   0.824   3.563 -0.4963  0.1706  1.2843
   73MOL0     H 9847  -0.210   0.833   3.667  1.3931  1.7914  0.4452
   73MOL0     H 9848  -0.203   0.739   3.511  1.0247 -0.0795  0.4670
   73MOL0     H 9849  -0.305   0.925   3.395  0.7894 -1.6995 -0.7187
   73MOL0     H 9850  -0.317   1.020   3.545  1.4615  0.4700 -1.6726
   73MOL0     H 9851  -0.455   0.759   3.470  1.3992 -0.8391 -0.1190
   73MOL0     H 9852  -0.541   0.910   3.478  2.5491  2.2954 -2.0947
   73MOL0     H 9853  -0.496   0.834   3.886  0.1207 -2.3600 -0.3307
   73MOL0     H 9854   0.027   1.260   3.675  1.6216 -0.5373  0.0645
   73MOL0     H 9855   0.037   1.320   3.911 -0.1180 -0.8645 -0.5576
   74MOL0     O 9856   8.104  11.468   3.375 -0.7283  0.0867  0.3012
   74MOL0     C 9857   7.982  11.478   3.342 -0.3772  0.0517 -0.4863
   74MOL0     O 9858   7.880  11.402   3.393  0.3669  0.2123  0.6074
   74MOL0     C 9859   7.917  11.289   3.469  0.5669  0.7566 -0.5287
   74MOL0     C 9860   7.876  11.156   3.441  0.3541 -0.4638 -0.1147
   74MOL0     C 9861   7.897  11.043   3.519  0.4886  0.3315 -0.4676
   74MOL0     C 9862   7.962  11.067   3.648 -0.1850 -0.3740  0.8653
   74MOL0     O 9863   7.969  10.962   3.727  0.3556  0.4160 -0.1908
   74MOL0     C 9864   7.978  10.975   3.871  0.3470 -0.1546  0.0279
   74MOL0     C 9865   7.844  10.988   3.948  0.6458  0.2233  0.0587
   74MOL0     C 9866   7.878  11.007   4.105  0.1445 -0.5138  1.4059
   74MOL0     C 9867   7.927  11.154   4.136 -1.1708  0.1420 -0.2108
   74MOL0     C 9868   7.978  11.148   4.284 -0.3128  0.7700  0.5732
   74MOL0     C 9869   7.865  11.117   4.387 -1.1651 -0.2218 -0.7727
   74MOL0     C 9870   7.771  11.242   4.393 -1.2895 -0.2719  0.2695
   74MOL0     C 9871   7.615  11.225   4.417 -0.6629 -0.1995  0.5406
   74MOL0     N 9872   7.603  11.204   4.560 -0.0220 -0.0876 -0.1145
   74MOL0     C 9873   7.568  11.298   4.653 -0.2933 -1.0070  0.4831
   74MOL0     C 9874   7.564  11.234   4.765  1.0003 -0.1537  0.2352
   74MOL0     C 9875   7.522  11.290   4.895  0.2661 -0.6269 -0.6383
   74MOL0     C 9876   7.645  11.357   4.971  0.5958 -0.1034 -0.0543
   74MOL0     C 9877   7.755  11.264   5.009  0.1395 -0.0660 -0.2486
   74MOL0     C 9878   7.703  11.147   5.083  0.0233 -0.5142  1.3077
   74MOL0     O 9879   7.616  11.170   5.199  0.3309  0.0645  0.2430
   74MOL0     C 9880   7.582  11.061   5.270  1.1552 -0.4776  0.1720
   74MOL0     C 9881   7.587  10.930   5.220  0.4837  0.3757  0.0308
   74MOL0     C 9882   7.558  10.814   5.291 -0.1965 -0.9499  0.0567
   74MOL0     C 9883   7.584  10.683   5.229  0.4673  0.4934  0.5060
   74MOL0     C 9884   7.513  10.831   5.420  0.3937  0.1194 -0.0831
   74MOL0     C 9885   7.458  10.722   5.499  0.5024  0.3615 -0.1252
   74MOL0     O 9886   7.544  10.640   5.556 -0.5317  0.0441  0.0725
   74MOL0     C 9887   7.503  10.526   5.616  0.4295  0.1013 -0.4390
   74MOL0     C 9888   7.604  10.457   5.683 -0.3049  0.1851 -0.8102
   74MOL0     C 9889   7.598  10.327   5.726 -0.4691  0.6239 -0.3301
   74MOL0     C 9890   7.488  10.254   5.692 -0.5495  1.1546  0.6437
   74MOL0     O 9891   7.470  10.119   5.730 -0.0829  0.0612  0.1060
   74MOL0     C 9892   7.581  10.041   5.757  0.0629  0.0103  1.1368
   74MOL0     C 9893   7.541   9.904   5.744  0.7560  1.2634  0.9626
   74MOL0     C 9894   7.661   9.803   5.741  0.2601 -0.5597  0.5078
   74MOL0     C 9895   7.642   9.672   5.677  0.5425  0.4910 -0.6155
   74MOL0     C 9896   7.766   9.579   5.696  0.8508 -0.5640  0.1833
   74MOL0     C 9897   7.760   9.455   5.606  0.4887  0.6391 -0.8814
   74MOL0     C 9898   7.631   9.377   5.612  0.5818  0.4160  0.7449
   74MOL0     C 9899   7.638   9.233   5.565 -0.1690 -0.2280  0.1188
   74MOL0    Cl 9900   7.748   9.193   5.419  0.1844  0.4986  0.6698
   74MOL0     C 9901   7.380  10.316   5.629  0.4950 -0.7382 -0.4081
   74MOL0     C 9902   7.389  10.446   5.590 -0.0226 -0.8559  0.4368
   74MOL0     O 9903   7.344  10.726   5.533 -0.2456  0.8776 -0.9083
   74MOL0     C 9904   7.485  10.957   5.469 -0.1159  0.2079 -0.1811
   74MOL0     C 9905   7.533  11.070   5.404 -0.3238  0.1060  0.2850
   74MOL0     N 9906   7.604  11.102   4.748  0.6833  0.0203 -0.6057
   74MOL0     N 9907   7.614  11.088   4.623 -0.3969  0.2287  1.0501
   74MOL0     C 9908   7.995  11.200   3.686  0.4553  0.1024 -0.5173
   74MOL0     C 9909   7.982  11.306   3.596 -0.9209  0.5056  0.5369
   74MOL0     C 9910   7.947  11.576   3.241 -0.0080 -0.1854 -0.5508
   74MOL0     C 9911   7.812  11.601   3.208  0.6106  0.0722  0.0258
   74MOL0     C 9912   7.782  11.701   3.106  1.2592  0.0252  0.4403
   74MOL0     C 9913   7.889  11.762   3.021  0.0142  0.6708 -0.5997
   74MOL0     O 9914   7.851  11.850   2.919  0.0348 -0.4990 -0.3926
   74MOL0     C 9915   7.943  11.882   2.816  0.3640  0.2760  0.5335
   74MOL0     C 9916   7.970  11.756   2.714 -0.4220 -0.8227 -0.4925
   74MOL0     C 9917   8.015  11.798   2.567 -0.6359  0.2543  0.1324
   74MOL0     C 9918   8.136  11.898   2.544 -0.2060  0.3060 -0.1269
   74MOL0     C 9919   8.093  12.039   2.566 -0.9382 -0.4532  0.3079
   74MOL0     C 9920   8.068  12.157   2.586  0.8690 -0.4417  0.2939
   74MOL0     C 9921   8.018  11.713   3.050 -0.2218 -0.9952 -1.4934
   74MOL0     C 9922   8.046  11.628   3.159  0.3587 -0.3828  1.6242
   74MOL0     H 9923   7.831  11.128   3.346 -1.9958  2.8498 -0.1181
   74MOL0     H 9924   7.859  10.944   3.495  1.5769 -0.3819  0.6605
   74MOL0     H 9925   8.036  10.893   3.914 -0.4578 -1.3859 -1.1144
   74MOL0     H 9926   8.049  11.057   3.884 -2.5824  3.0956 -2.5872
   74MOL0     H 9927   7.787  11.074   3.912 -2.0609 -2.2490 -2.0618
   74MOL0     H 9928   7.786  10.897   3.929  3.0674 -1.7402  1.3391
   74MOL0     H 9929   7.781  10.994   4.154 -1.2674  0.4090 -0.9519
   74MOL0     H 9930   7.958  10.943   4.143 -0.4506 -0.9092  2.0200
   74MOL0     H 9931   8.011  11.181   4.072 -1.9650 -0.4836 -1.5539
   74MOL0     H 9932   7.841  11.221   4.127 -0.7520  0.7047 -0.0809
   74MOL0     H 9933   8.056  11.072   4.292  1.2770  2.5163  3.2958
   74MOL0     H 9934   8.037  11.235   4.315  1.8825 -0.4887  0.1236
   74MOL0     H 9935   7.804  11.029   4.363 -0.8871 -1.8656  3.6493
   74MOL0     H 9936   7.913  11.101   4.484 -2.9548  0.6416  0.2999
   74MOL0     H 9937   7.808  11.318   4.463  1.6366 -1.9386  0.7114
   74MOL0     H 9938   7.779  11.283   4.292 -1.3145 -2.7696 -0.8075
   74MOL0     H 9939   7.579  11.140   4.359  0.5943  0.0611 -0.6573
   74MOL0     H 9940   7.557  11.312   4.385  0.9893  1.5861  2.1336
   74MOL0     H 9941   7.545  11.403   4.641  0.9339 -0.9112 -1.5449
   74MOL0     H 9942   7.454  11.370   4.866  1.6865  0.2076 -1.8192
   74MOL0     H 9943   7.474  11.212   4.954  0.1514 -1.0305 -1.2636
   74MOL0     H 9944   7.605  11.414   5.055 -1.8595  0.4897 -1.5182
   74MOL0     H 9945   7.696  11.420   4.898 -1.1350 -1.3530 -2.4875
   74MOL0     H 9946   7.825  11.317   5.075  0.4788 -0.4701 -0.2805
   74MOL0     H 9947   7.812  11.240   4.919  5.1216  1.1458  2.2433
   74MOL0     H 9948   7.787  11.086   5.117 -0.3446 -2.9676 -1.7208
   74MOL0     H 9949   7.654  11.087   5.006  2.4303  1.0104 -1.5666
   74MOL0     H 9950   7.648  10.908   5.133  0.9573  0.8952  0.2266
   74MOL0     H 9951   7.508  10.609   5.256  2.3660 -2.0776 -0.8119
   74MOL0     H 9952   7.572  10.687   5.121 -1.5043 -2.9784  0.4354
   74MOL0     H 9953   7.681  10.645   5.262  0.1472  0.4039  1.3641
   74MOL0     H 9954   7.700  10.506   5.700  1.1872 -3.2035  1.7468
   74MOL0     H 9955   7.678  10.282   5.784 -0.2580 -1.4821 -2.1329
   74MOL0     H 9956   7.654  10.052   5.677 -2.6076 -0.9728 -1.6111
   74MOL0     H 9957   7.614  10.066   5.859  1.9998  1.1646  0.2776
   74MOL0     H 9958   7.463   9.877   5.816 -0.0276 -1.1712 -0.6881
   74MOL0     H 9959   7.478   9.885   5.656 -0.4439 -0.5173  2.1376
   74MOL0     H 9960   7.702   9.790   5.841  2.6974  1.0235 -0.1976
   74MOL0     H 9961   7.737   9.856   5.683 -1.6766  1.8677  0.0403
   74MOL0     H 9962   7.559   9.619   5.726  2.0086 -2.7544 -1.4032
   74MOL0     H 9963   7.607   9.688   5.575  1.2248  1.8882 -0.6615
   74MOL0     H 9964   7.775   9.557   5.802 -1.9497  0.1885  0.6715
   74MOL0     H 9965   7.852   9.642   5.672  1.7779 -1.4028  1.2088
   74MOL0     H 9966   7.764   9.491   5.503  0.7378 -0.2484 -1.1925
   74MOL0     H 9967   7.848   9.396   5.631  1.5776  2.5537 -0.0354
   74MOL0     H 9968   7.572   9.429   5.537 -0.2629  1.0420  1.8045
   74MOL0     H 9969   7.578   9.394   5.707 -0.2715 -0.6625  0.4842
   74MOL0     H 9970   7.536   9.201   5.542 -0.9905  1.6118  0.9968
   74MOL0     H 9971   7.682   9.167   5.640 -0.6831 -1.1843 -0.4094
   74MOL0     H 9972   7.293  10.255   5.607 -0.5170  1.2821 -2.4684
   74MOL0     H 9973   7.310  10.494   5.532 -1.6126 -0.0297  3.0907
   74MOL0     H 9974   7.439  10.974   5.566 -2.7677 -0.0115 -1.3296
   74MOL0     H 9975   7.533  11.160   5.466  3.1373 -0.7983  1.8446
   74MOL0     H 9976   8.014  11.230   3.789 -1.4763 -0.4020  0.0289
   74MOL0     H 9977   8.007  11.405   3.632  0.5726  0.3013  0.1332
   74MOL0     H 9978   7.737  11.549   3.266  3.4169 -1.9088  2.1324
   74MOL0     H 9979   7.681  11.726   3.074  2.8157  4.5493 -1.7854
   74MOL0     H 9980   7.904  11.964   2.755 -0.4959 -3.1962 -4.1170
   74MOL0     H 9981   8.038  11.915   2.860  1.3548 -2.1204  0.3093
   74MOL0     H 9982   7.891  11.680   2.713 -0.4800 -0.7624 -0.5790
   74MOL0     H 9983   8.060  11.715   2.761  1.0426  2.1817 -0.4841
   74MOL0     H 9984   7.938  11.847   2.507 -1.0726 -0.3575  0.1788
   74MOL0     H 9985   8.019  11.702   2.513 -3.3449 -1.7243  3.0628
   74MOL0     H 9986   8.163  11.881   2.439 -3.8408 -0.8826 -0.9878
   74MOL0     H 9987   8.218  11.876   2.614 -1.5427  0.7950  1.6542
   74MOL0     H 9988   8.044  12.260   2.605 -2.0613 -0.6215 -1.8890
   74MOL0     H 9989   8.094  11.749   2.982 -1.3977  0.9970 -1.8524
   74MOL0     H 9990   8.150  11.599   3.165  0.8710  0.3445 -1.5845
   75MOL0     O 9991   3.922  10.895   3.176 -1.1818  0.0148  0.0425
   75MOL0     C 9992   4.021  10.969   3.206 -0.7229  0.2653  0.5917
   75MOL0     O 9993   4.092  11.050   3.116 -0.7565  0.5576  0.1576
   75MOL0     C 9994   4.025  11.059   2.992 -0.7464  0.0554 -0.5849
   75MOL0     C 9995   3.934  11.163   2.964  0.7590 -1.0178  0.7079
   75MOL0     C 9996   3.879  11.176   2.831  0.0177 -0.6236  0.2913
   75MOL0     C 9997   3.902  11.070   2.740  0.2926 -0.4062 -0.1431
   75MOL0     O 9998   3.862  11.088   2.609  0.3698 -0.0447  0.3367
   75MOL0     C 9999   3.922  11.187   2.524 -0.8318  0.7206  0.5849
   75MOL0     C10000   3.973  11.116   2.394  0.4106 -0.1039  0.1374
   75MOL0     C10001   3.851  11.041   2.332  0.3540  0.0789  0.8422
   75MOL0     C10002   3.897  10.950   2.214 -0.4621 -0.0822 -0.1764
   75MOL0     C10003   3.783  10.883   2.131 -0.3319 -0.4160 -0.4712
   75MOL0     C10004   3.720  10.770   2.196  0.8334  0.3218 -0.2077
   75MOL0     C10005   3.624  10.673   2.110 -0.1523  0.4447 -0.4304
   75MOL0     C10006   3.707  10.595   2.003 -0.0498 -0.7165  0.0715
   75MOL0     N10007   3.628  10.514   1.895 -0.2354  0.2999 -0.1807
   75MOL0     C10008   3.509  10.547   1.832 -0.0496 -0.3055 -0.6810
   75MOL0     C10009   3.473  10.435   1.757 -0.2752 -0.4212  0.1353
   75MOL0     C10010   3.367  10.415   1.645  1.2856  0.2601 -0.4805
   75MOL0     C10011   3.231  10.414   1.723 -0.1698 -0.2045 -0.2065
   75MOL0     C10012   3.115  10.361   1.631  0.1064  0.4991 -0.6294
   75MOL0     C10013   2.977  10.401   1.695 -0.3125  0.1369  1.1415
   75MOL0     O10014   2.871  10.398   1.595  0.6917  0.4392 -0.1347
   75MOL0     C10015   2.737  10.406   1.623  1.1374  0.6587 -0.0623
   75MOL0     C10016   2.662  10.427   1.510  0.7930 -0.3376  0.6764
   75MOL0     C10017   2.522  10.411   1.509 -0.1065 -0.2776  1.1265
   75MOL0     C10018   2.455  10.414   1.372 -0.0277  0.0493 -0.6201
   75MOL0     C10019   2.454  10.390   1.634  0.4589 -0.1661  0.4653
   75MOL0     C10020   2.310  10.365   1.652  0.8926 -0.0533  0.6141
   75MOL0     O10021   2.260  10.336   1.771 -0.1849  1.0957  0.0255
   75MOL0     C10022   2.135  10.273   1.790  0.2924 -0.0914  0.2719
   75MOL0     C10023   2.110  10.142   1.756 -0.1450 -0.0817  0.2974
   75MOL0     C10024   1.974  10.090   1.768 -0.0494 -0.3686  1.0200
   75MOL0     C10025   1.874  10.168   1.825  0.5783  0.8982 -0.2987
   75MOL0     O10026   1.739  10.123   1.842 -0.5022 -0.0624 -0.0973
   75MOL0     C10027   1.696   9.991   1.819 -0.9531  0.2363  0.9332
   75MOL0     C10028   1.623   9.979   1.681  0.7656 -0.5218  0.0003
   75MOL0     C10029   1.508   9.877   1.658 -0.0156  0.0517 -0.1574
   75MOL0     C10030   1.535   9.746   1.731  1.2933  0.1042  0.9398
   75MOL0     C10031   1.400   9.661   1.737  0.1082 -0.2051  0.7846
   75MOL0     C10032   1.306   9.699   1.849 -0.2526 -0.2897 -0.1834
   75MOL0     C10033   1.360   9.698   1.986  0.3588  1.1948 -1.0171
   75MOL0     C10034   1.417   9.569   2.036 -0.2505  0.5705  0.2148
   75MOL0    Cl10035   1.419   9.571   2.208 -0.2716 -0.9560 -0.1070
   75MOL0     C10036   1.897  10.299   1.861 -0.1524 -0.0052  0.6683
   75MOL0     C10037   2.027  10.348   1.843  0.5947 -0.0037  0.5327
   75MOL0     O10038   2.240  10.396   1.556  0.1854  0.5201 -0.0076
   75MOL0     C10039   2.535  10.386   1.752  0.3761  0.0448 -1.4738
   75MOL0     C10040   2.676  10.381   1.745  1.1839 -0.3222  0.0798
   75MOL0     N10041   3.571  10.335   1.781  0.2425 -0.0381 -1.3711
   75MOL0     N10042   3.658  10.384   1.865  0.4077  0.3859 -0.3007
   75MOL0     C10043   3.984  10.967   2.775  0.1355 -0.0660 -0.5977
   75MOL0     C10044   4.053  10.968   2.888 -0.3451 -0.5310  0.5003
   75MOL0     C10045   4.065  10.971   3.347  0.7803  0.2670  0.5194
   75MOL0     C10046   4.006  10.892   3.443  0.1399  1.5496  0.2009
   75MOL0     C10047   4.048  10.900   3.571  0.5818 -0.9520 -0.3195
   75MOL0     C10048   4.152  10.975   3.619  0.3358 -0.3481 -0.3669
   75MOL0     O10049   4.164  10.995   3.754 -0.2651 -0.1522 -0.1881
   75MOL0     C10050   4.183  10.875   3.828 -0.4486 -0.2213  0.0257
   75MOL0     C10051   4.090  10.884   3.952 -0.9496 -0.5580  0.4449
   75MOL0     C10052   4.171  10.807   4.061 -0.3642 -0.1640 -0.4267
   75MOL0     C10053   4.078  10.749   4.160  1.2699  0.7343 -0.3171
   75MOL0     C10054   4.152  10.696   4.266 -0.4673  0.3560  0.5114
   75MOL0     C10055   4.221  10.664   4.362 -0.2338  0.1141 -0.6768
   75MOL0     C10056   4.218  11.049   3.522 -0.7774  0.1553 -0.0374
   75MOL0     C10057   4.176  11.043   3.388 -0.7830 -0.5408  1.0541
   75MOL0     H10058   3.914  11.247   3.029  0.1843 -0.5673 -0.0288
   75MOL0     H10059   3.812  11.259   2.810  0.0738 -0.2332  1.5687
   75MOL0     H10060   3.844  11.257   2.491 -3.1043 -2.4475 -1.3074
   75MOL0     H10061   3.999  11.240   2.580 -0.7167 -0.3790  1.5045
   75MOL0     H10062   4.030  11.181   2.327 -1.5437  1.5941  0.0369
   75MOL0     H10063   4.049  11.046   2.429  1.0945  0.5435 -0.0316
   75MOL0     H10064   3.802  10.976   2.405  1.6463 -1.3264  0.5074
   75MOL0     H10065   3.777  11.113   2.295 -0.9923 -1.6109  0.1556
   75MOL0     H10066   3.949  11.016   2.144 -0.2609 -0.4389 -0.3629
   75MOL0     H10067   3.965  10.879   2.263 -1.9369 -0.9266  0.7141
   75MOL0     H10068   3.714  10.963   2.102  0.4340 -0.3825 -2.3838
   75MOL0     H10069   3.832  10.860   2.036 -1.2714 -1.8706 -0.6358
   75MOL0     H10070   3.791  10.709   2.255 -2.6693 -2.1293  1.8736
   75MOL0     H10071   3.660  10.800   2.282  2.5711 -0.9407  1.5557
   75MOL0     H10072   3.569  10.600   2.170  1.1178  0.5243  0.8745
   75MOL0     H10073   3.546  10.725   2.053  1.4192  1.3610 -1.8379
   75MOL0     H10074   3.772  10.521   2.052  0.2014 -1.6221 -1.5662
   75MOL0     H10075   3.762  10.675   1.951 -1.6695 -1.1923 -2.5245
   75MOL0     H10076   3.464  10.646   1.841  2.7787  0.8553  2.4097
   75MOL0     H10077   3.378  10.481   1.559  0.1609 -1.7875 -2.2933
   75MOL0     H10078   3.380  10.310   1.617 -0.2387 -0.2466  0.5901
   75MOL0     H10079   3.214  10.512   1.769 -1.0658 -0.2421 -0.4376
   75MOL0     H10080   3.231  10.337   1.800 -0.3103 -0.2094 -0.2126
   75MOL0     H10081   3.121  10.252   1.619 -1.5377 -0.2104  3.3329
   75MOL0     H10082   3.116  10.410   1.534  4.7468  1.1142 -0.5055
   75MOL0     H10083   2.981  10.501   1.738 -0.2809  2.4161 -3.5518
   75MOL0     H10084   2.941  10.331   1.771 -2.6581  2.3575  2.2418
   75MOL0     H10085   2.720  10.425   1.418  0.0210 -0.5465  0.1837
   75MOL0     H10086   2.533  10.383   1.302  0.7544 -1.1366  0.7240
   75MOL0     H10087   2.374  10.342   1.356 -0.2257  0.3417 -0.9645
   75MOL0     H10088   2.414  10.514   1.354  1.2912  1.5782  3.6598
   75MOL0     H10089   2.184  10.073   1.716  0.2374  0.9411 -0.8269
   75MOL0     H10090   1.973   9.987   1.731 -3.2613 -0.4103  0.9424
   75MOL0     H10091   1.779   9.919   1.818  0.6914  1.8519 -3.0808
   75MOL0     H10092   1.624   9.979   1.900  0.6024  0.9056  2.4690
   75MOL0     H10093   1.573  10.075   1.666 -0.9162 -0.6654  3.6668
   75MOL0     H10094   1.694   9.969   1.599 -0.0787  3.4320 -1.4013
   75MOL0     H10095   1.496   9.873   1.549 -2.1955 -0.8399  0.0490
   75MOL0     H10096   1.416   9.891   1.715 -0.7711 -5.4127  0.4958
   75MOL0     H10097   1.606   9.687   1.672 -0.3816 -0.0266 -1.0422
   75MOL0     H10098   1.584   9.770   1.826  1.4508  0.9111  0.6615
   75MOL0     H10099   1.429   9.557   1.758  2.5516  1.2397  6.5591
   75MOL0     H10100   1.359   9.667   1.636  2.1379  1.3842 -0.0070
   75MOL0     H10101   1.276   9.801   1.823  0.7930 -0.0408 -0.4618
   75MOL0     H10102   1.222   9.630   1.832 -3.3966  3.3464 -0.7823
   75MOL0     H10103   1.272   9.722   2.047  1.2222  1.4809  0.1458
   75MOL0     H10104   1.430   9.781   1.993  1.0737  0.5914 -0.8109
   75MOL0     H10105   1.517   9.558   1.994 -0.1821  0.0398  0.5113
   75MOL0     H10106   1.361   9.480   2.006 -0.1727  0.5263  0.2005
   75MOL0     H10107   1.819  10.357   1.909  0.5036  0.2465  1.4560
   75MOL0     H10108   2.037  10.450   1.877  2.6748 -1.0056  3.2284
   75MOL0     H10109   2.478  10.386   1.845  2.0851  0.1197 -0.3792
   75MOL0     H10110   2.737  10.366   1.834 -2.0353  0.1805  2.5842
   75MOL0     H10111   4.023  10.896   2.703  0.5235 -0.1078 -0.3499
   75MOL0     H10112   4.129  10.892   2.902 -0.4135 -0.6938  0.0063
   75MOL0     H10113   3.922  10.827   3.423  2.3198 -1.2802 -0.4059
   75MOL0     H10114   3.989  10.830   3.629 -1.7372  0.0316 -1.3272
   75MOL0     H10115   4.142  10.779   3.793 -1.6940 -1.1731  3.6449
   75MOL0     H10116   4.286  10.853   3.857 -0.4429 -0.1851  0.0343
   75MOL0     H10117   3.994  10.847   3.915  0.6200 -2.7134 -1.8431
   75MOL0     H10118   4.081  10.986   3.989  0.0636 -1.4604  3.4638
   75MOL0     H10119   4.247  10.874   4.102 -1.2370  0.7880 -0.3178
   75MOL0     H10120   4.233  10.732   4.009 -0.8272  0.4061 -1.8529
   75MOL0     H10121   4.020  10.671   4.109  0.5421 -1.0455  2.9496
   75MOL0     H10122   4.011  10.819   4.210 -0.6900 -3.0559  2.9705
   75MOL0     H10123   4.271  10.633   4.451  1.1763 -1.1436 -1.8515
   75MOL0     H10124   4.302  11.111   3.548  1.2052 -1.3376 -2.4187
   75MOL0     H10125   4.228  11.107   3.318 -1.5836  0.0118  0.9537
   76MOL0     O10126   8.352   7.809   5.544  0.3583  0.2908  0.3096
   76MOL0     C10127   8.303   7.843   5.434 -0.2804  0.1776 -0.4054
   76MOL0     O10128   8.269   7.970   5.409  0.5766 -0.4509 -0.6390
   76MOL0     C10129   8.239   8.054   5.513  0.1305 -0.0598 -0.9429
   76MOL0     C10130   8.275   8.185   5.490  0.4122  0.2423 -0.2014
   76MOL0     C10131   8.285   8.278   5.592  0.8533  0.1774  0.7423
   76MOL0     C10132   8.240   8.247   5.724  0.7285 -0.5828 -0.7916
   76MOL0     O10133   8.229   8.351   5.815  0.7858 -0.1997  0.1783
   76MOL0     C10134   8.219   8.315   5.952  0.7302 -0.3158 -0.4287
   76MOL0     C10135   8.273   8.434   6.028 -0.3530 -0.6485  0.7348
   76MOL0     C10136   8.410   8.485   5.986 -1.4751  1.3675 -0.2336
   76MOL0     C10137   8.418   8.606   5.893  0.4718 -0.2096 -0.0775
   76MOL0     C10138   8.384   8.734   5.971 -0.7351  0.2919 -0.3794
   76MOL0     C10139   8.363   8.849   5.863  0.0583 -1.0716  0.1586
   76MOL0     C10140   8.335   8.967   5.961  0.9624  0.8099  1.0565
   76MOL0     C10141   8.301   9.087   5.877 -0.8216  0.6353  0.4453
   76MOL0     N10142   8.297   9.208   5.962 -0.6655  0.3785 -0.1065
   76MOL0     C10143   8.408   9.284   6.003  1.2842 -0.3964  0.1946
   76MOL0     C10144   8.378   9.332   6.127  0.0330  0.1792  0.3588
   76MOL0     C10145   8.459   9.421   6.211 -0.1346  0.2253  1.1907
   76MOL0     C10146   8.432   9.560   6.186 -0.1817 -0.9824  0.3758
   76MOL0     C10147   8.522   9.641   6.278  0.2303  0.0911  0.1588
   76MOL0     C10148   8.506   9.790   6.260 -0.1019  0.3548 -1.0353
   76MOL0     O10149   8.626   9.861   6.278  0.5655  0.6507  0.8066
   76MOL0     C10150   8.627   9.993   6.275 -0.3045 -0.5736  0.4860
   76MOL0     C10151   8.736  10.068   6.320  0.2096 -0.2691  0.2291
   76MOL0     C10152   8.732  10.210   6.313 -0.8511  0.8204 -0.4839
   76MOL0     C10153   8.851  10.276   6.369  0.2062 -0.2318 -0.4824
   76MOL0     C10154   8.615  10.279   6.271  0.3769  0.5573  0.2641
   76MOL0     C10155   8.597  10.425   6.261 -0.7191  0.6896  0.1917
   76MOL0     O10156   8.490  10.465   6.179 -0.0344  0.7196  0.4727
   76MOL0     C10157   8.484  10.597   6.160 -0.2280 -0.4262  0.7028
   76MOL0     C10158   8.384  10.666   6.226  0.0947 -0.5105 -0.6649
   76MOL0     C10159   8.348  10.798   6.193  0.3391 -0.4710  0.1106
   76MOL0     C10160   8.424  10.871   6.105  0.3974 -0.2120  0.9213
   76MOL0     O10161   8.397  11.000   6.080  0.7518 -0.2914  0.0689
   76MOL0     C10162   8.285  11.014   5.992  0.2587 -0.5941  0.0827
   76MOL0     C10163   8.261  11.158   5.972  0.1436 -0.7602 -0.0125
   76MOL0     C10164   8.122  11.183   5.917 -0.4538  0.0864  1.4194
   76MOL0     C10165   8.144  11.176   5.761  0.4292  0.0061 -0.7346
   76MOL0     C10166   8.014  11.168   5.679 -0.2141 -0.1778  1.1542
   76MOL0     C10167   8.044  11.159   5.519 -0.0065 -0.6868  0.1843
   76MOL0     C10168   7.934  11.088   5.443  0.5231  0.1599  0.0052
   76MOL0     C10169   7.998  10.996   5.344 -0.3773  0.4096 -0.2874
   76MOL0    Cl10170   8.069  11.111   5.216 -0.1072  0.2408  0.0833
   76MOL0     C10171   8.536  10.802   6.041  0.6808  0.4926 -0.2521
   76MOL0     C10172   8.566  10.663   6.067 -0.1695 -0.0303 -0.2494
   76MOL0     O10173   8.671  10.506   6.313 -1.1561  0.4034 -0.4358
   76MOL0     C10174   8.516  10.201   6.218 -0.2892 -0.4388 -0.1171
   76MOL0     C10175   8.520  10.065   6.220  1.0299  0.2438  0.0078
   76MOL0     N10176   8.258   9.290   6.163  0.1384  1.0372 -0.6301
   76MOL0     N10177   8.203   9.218   6.058 -0.6290 -0.0385  1.0257
   76MOL0     C10178   8.204   8.118   5.755  0.0557 -0.2054 -0.0963
   76MOL0     C10179   8.216   8.021   5.653  1.0638 -0.3713 -0.3107
   76MOL0     C10180   8.314   7.734   5.331  0.0624 -0.4751  0.4901
   76MOL0     C10181   8.310   7.594   5.360 -0.1686  0.5848 -0.1759
   76MOL0     C10182   8.324   7.497   5.257  1.0254 -0.4011  0.4681
   76MOL0     C10183   8.334   7.535   5.124  0.1017 -0.7283 -0.2232
   76MOL0     O10184   8.325   7.438   5.030 -0.4674  0.8511  0.4887
   76MOL0     C10185   8.332   7.470   4.888  0.5187 -0.3708 -0.1196
   76MOL0     C10186   8.326   7.334   4.814 -0.0874 -0.2964  0.8909
   76MOL0     C10187   8.192   7.261   4.833  0.0538  0.0471  0.4800
   76MOL0     C10188   8.206   7.130   4.744 -0.0694 -0.7720  1.1052
   76MOL0     C10189   8.079   7.052   4.749  0.9103  0.4347 -0.4673
   76MOL0     C10190   7.975   6.989   4.757  0.5963  0.0931 -0.7900
   76MOL0     C10191   8.322   7.679   5.103  0.5011  1.3514  0.5465
   76MOL0     C10192   8.313   7.779   5.198 -0.1750 -0.0247  0.0619
   76MOL0     H10193   8.317   8.230   5.401  1.7139 -0.5693 -0.0266
   76MOL0     H10194   8.317   8.377   5.563  2.3749 -0.3171  0.6633
   76MOL0     H10195   8.119   8.285   5.985 -0.4191 -0.1384 -3.4786
   76MOL0     H10196   8.291   8.237   5.976  0.4692 -0.1287  1.0489
   76MOL0     H10197   8.195   8.509   6.012  0.0604  0.1674  2.3424
   76MOL0     H10198   8.283   8.409   6.134  0.1440  0.5478  0.9823
   76MOL0     H10199   8.465   8.502   6.079 -1.5277  1.9920 -0.3102
   76MOL0     H10200   8.465   8.400   5.943 -2.6851 -0.1689  1.1321
   76MOL0     H10201   8.520   8.604   5.854  0.9097  0.0637  1.0267
   76MOL0     H10202   8.349   8.598   5.808 -2.9668 -0.1687  2.5170
   76MOL0     H10203   8.287   8.726   6.020 -0.3654 -0.0552  0.2967
   76MOL0     H10204   8.463   8.760   6.042 -0.2694  1.5825 -1.3264
   76MOL0     H10205   8.455   8.870   5.807  0.2177  4.5834  1.8347
   76MOL0     H10206   8.280   8.826   5.796 -0.7307  1.2808  0.2128
   76MOL0     H10207   8.247   8.955   6.025 -0.0422  2.3102  0.0314
   76MOL0     H10208   8.418   8.976   6.031  0.9864 -0.9456  1.2986
   76MOL0     H10209   8.205   9.064   5.830  0.2908  0.8819 -2.1076
   76MOL0     H10210   8.367   9.096   5.790 -2.8962  1.3345 -1.1124
   76MOL0     H10211   8.485   9.321   5.935 -0.4231 -1.4737 -2.5065
   76MOL0     H10212   8.439   9.398   6.316  2.9361  1.2361  2.1117
   76MOL0     H10213   8.563   9.396   6.184 -0.9798 -0.9245 -1.3325
   76MOL0     H10214   8.326   9.584   6.204 -0.2331 -0.8161 -0.1400
   76MOL0     H10215   8.457   9.587   6.084 -0.0960  2.0108  1.1135
   76MOL0     H10216   8.630   9.626   6.286  0.5074  2.2105  1.0594
   76MOL0     H10217   8.508   9.632   6.386  2.2334 -2.4263  0.3074
   76MOL0     H10218   8.419   9.821   6.317 -1.1460  0.6332 -2.7155
   76MOL0     H10219   8.494   9.810   6.153  2.7469 -4.0158 -2.4508
   76MOL0     H10220   8.821  10.021   6.368 -2.3606 -4.2169  1.4157
   76MOL0     H10221   8.941  10.214   6.370  0.1382 -0.3252 -0.0515
   76MOL0     H10222   8.859  10.356   6.294 -2.1242 -1.1443 -1.8041
   76MOL0     H10223   8.835  10.313   6.471  3.5048  0.0180  0.0405
   76MOL0     H10224   8.318  10.612   6.293  1.2813 -2.1865 -0.7930
   76MOL0     H10225   8.262  10.849   6.236 -0.0793  1.5700 -2.8895
   76MOL0     H10226   8.316  10.967   5.898 -2.4838 -0.6053 -0.9009
   76MOL0     H10227   8.191  10.968   6.021 -0.6246  0.7424 -0.5459
   76MOL0     H10228   8.252  11.200   6.073 -4.4204 -3.3463  0.9244
   76MOL0     H10229   8.341  11.207   5.917 -0.4852  1.4974  0.9243
   76MOL0     H10230   8.109  11.290   5.932  3.5084  1.2871 -2.0215
   76MOL0     H10231   8.043  11.114   5.950  1.6315 -2.8063  0.8216
   76MOL0     H10232   8.210  11.259   5.735  1.2078  0.3821  2.0823
   76MOL0     H10233   8.192  11.080   5.741  1.0145  0.4683 -1.5894
   76MOL0     H10234   7.944  11.249   5.701 -2.3377 -1.3317 -0.9123
   76MOL0     H10235   7.957  11.078   5.705  2.0368 -1.7808  0.7790
   76MOL0     H10236   8.051  11.265   5.495 -1.7233 -0.1889  1.5923
   76MOL0     H10237   8.139  11.110   5.496  1.0788 -0.7723  4.0485
   76MOL0     H10238   7.883  11.159   5.377 -0.1152 -0.6813 -0.4297
   76MOL0     H10239   7.854  11.038   5.498 -0.2649 -0.3477 -1.5298
   76MOL0     H10240   7.924  10.934   5.292  1.1043 -0.8454 -0.9586
   76MOL0     H10241   8.079  10.936   5.385  1.0378 -1.3440 -4.9503
   76MOL0     H10242   8.601  10.856   5.973  2.5196 -2.4070 -0.9377
   76MOL0     H10243   8.647  10.619   6.009 -0.1522  0.8017 -0.8726
   76MOL0     H10244   8.435  10.246   6.161  1.4002 -0.6022 -2.8348
   76MOL0     H10245   8.431  10.013   6.185  1.4848  0.2521 -1.1947
   76MOL0     H10246   8.168   8.095   5.855 -0.3197 -0.7076 -0.3428
   76MOL0     H10247   8.189   7.917   5.671  2.5936 -1.0430 -1.5354
   76MOL0     H10248   8.304   7.559   5.463 -2.1958  2.5846  0.4814
   76MOL0     H10249   8.332   7.393   5.287 -1.1243 -0.6941  0.1210
   76MOL0     H10250   8.256   7.541   4.857  1.7916  1.4619  0.7281
   76MOL0     H10251   8.426   7.518   4.860 -0.2221  1.1091 -0.1546
   76MOL0     H10252   8.411   7.274   4.846  1.3323  1.3530  0.3638
   76MOL0     H10253   8.329   7.357   4.707 -1.4772 -1.1492  0.6352
   76MOL0     H10254   8.107   7.319   4.796 -0.9634  0.3437  3.0214
   76MOL0     H10255   8.156   7.247   4.936 -3.9891 -0.1192 -0.7920
   76MOL0     H10256   8.289   7.066   4.779 -0.5972 -0.1277  3.7098
   76MOL0     H10257   8.226   7.147   4.637  1.0581 -2.8802  0.9175
   76MOL0     H10258   7.879   6.945   4.775  0.5422 -0.0004 -1.2908
   76MOL0     H10259   8.329   7.716   5.001  1.7236 -1.7014 -0.5899
   76MOL0     H10260   8.312   7.884   5.170  3.2415  0.5473  1.6088
   77MOL0     O10261   1.249   3.037   1.552  0.1002 -0.2571  0.5127
   77MOL0     C10262   1.152   3.003   1.618  0.3718 -0.9846 -0.2893
   77MOL0     O10263   1.112   2.874   1.646  0.8284 -0.6103 -0.2985
   77MOL0     C10264   1.163   2.773   1.580 -0.4771  0.8748  0.5355
   77MOL0     C10265   1.136   2.757   1.443  0.4033 -0.6695 -0.5769
   77MOL0     C10266   1.173   2.645   1.362 -0.0207  0.6541 -0.4238
   77MOL0     C10267   1.259   2.546   1.425  0.4771  0.4290 -0.0522
   77MOL0     O10268   1.307   2.424   1.363 -0.6286 -0.0393 -0.4932
   77MOL0     C10269   1.434   2.354   1.412 -0.3448 -0.0460 -0.0050
   77MOL0     C10270   1.475   2.242   1.317  0.3799  0.4959  0.0644
   77MOL0     C10271   1.361   2.137   1.314 -0.8516 -0.2053 -0.0289
   77MOL0     C10272   1.401   2.030   1.214 -0.1245  0.5624  0.1879
   77MOL0     C10273   1.307   1.905   1.227  0.1694  0.7877 -0.3938
   77MOL0     C10274   1.321   1.805   1.110 -0.2753 -0.4284  0.3437
   77MOL0     C10275   1.250   1.679   1.156 -0.0996  0.2296 -0.7308
   77MOL0     C10276   1.239   1.574   1.046 -0.3818 -0.3478 -0.2521
   77MOL0     N10277   1.118   1.496   1.055 -0.7339 -0.5130 -0.2011
   77MOL0     C10278   1.116   1.373   1.119  0.5854 -0.4477  0.0938
   77MOL0     C10279   0.990   1.346   1.139  0.1374 -0.5484  0.7044
   77MOL0     C10280   0.918   1.217   1.169  1.0363  0.8468  0.6608
   77MOL0     C10281   0.847   1.138   1.056 -0.7862  0.3525 -1.0263
   77MOL0     C10282   0.908   1.000   1.021  0.2686  1.2341 -0.3422
   77MOL0     C10283   1.043   0.977   0.965 -0.8526  0.5490  0.3681
   77MOL0     O10284   1.147   1.029   1.050  0.0659  0.4302  0.1372
   77MOL0     C10285   1.272   0.993   1.008  0.6629  0.2826 -0.2411
   77MOL0     C10286   1.308   0.898   0.911 -0.8675  0.2805 -0.6973
   77MOL0     C10287   1.436   0.847   0.892 -0.6100  0.6474  0.2738
   77MOL0     C10288   1.473   0.759   0.776 -0.5085 -1.1082  0.5739
   77MOL0     C10289   1.541   0.894   0.989  0.1658 -0.4975  0.1195
   77MOL0     C10290   1.681   0.857   0.997 -0.5603  0.7507  0.4306
   77MOL0     O10291   1.777   0.952   1.025 -0.3492  0.5682  0.2019
   77MOL0     C10292   1.909   0.921   1.002  0.3058 -0.0742  1.1113
   77MOL0     C10293   1.978   1.011   0.924  0.2669  0.2918  0.8537
   77MOL0     C10294   2.119   1.009   0.895  0.6982  0.1953  0.1435
   77MOL0     C10295   2.186   0.897   0.954 -0.1543  0.0275  0.0607
   77MOL0     O10296   2.321   0.869   0.937 -0.8947  0.7311 -0.2842
   77MOL0     C10297   2.403   0.977   0.900  0.0987 -0.9425  0.0673
   77MOL0     C10298   2.542   0.929   0.878  0.8006 -0.5298 -0.0169
   77MOL0     C10299   2.633   1.039   0.844 -0.0512 -1.4608  0.0078
   77MOL0     C10300   2.650   1.154   0.960 -0.3856 -0.2472  0.0814
   77MOL0     C10301   2.728   1.262   0.894 -0.9234 -0.0061  0.4054
   77MOL0     C10302   2.870   1.231   0.867  0.5345  0.1511 -0.4054
   77MOL0     C10303   2.916   1.336   0.758  0.1370 -0.5158  0.1714
   77MOL0     C10304   3.076   1.334   0.761 -0.4822  0.1580  0.1096
   77MOL0    Cl10305   3.133   1.471   0.656 -0.0554 -0.3876  0.2328
   77MOL0     C10306   2.122   0.801   1.040 -0.3261 -0.0626 -0.2508
   77MOL0     C10307   1.983   0.818   1.052 -0.6583  0.0818 -0.8981
   77MOL0     O10308   1.716   0.744   0.960  1.1649  0.8921  0.1799
   77MOL0     C10309   1.498   0.985   1.091 -0.4571  1.0523 -0.0662
   77MOL0     C10310   1.374   1.038   1.085 -0.4941 -0.4740 -0.4753
   77MOL0     N10311   0.912   1.453   1.090  0.0996  1.1712  1.0088
   77MOL0     N10312   0.995   1.546   1.045  0.2232  0.2623 -0.2004
   77MOL0     C10313   1.283   2.570   1.562  0.2354  0.9069  0.4629
   77MOL0     C10314   1.239   2.671   1.643  0.3175  0.3035  0.5927
   77MOL0     C10315   1.079   3.108   1.679 -0.6303 -0.2128 -0.2902
   77MOL0     C10316   1.033   3.090   1.803  0.8091  1.0341  0.3985
   77MOL0     C10317   0.963   3.182   1.872  0.0067 -0.2072 -0.5559
   77MOL0     C10318   0.955   3.308   1.824 -0.7409 -0.5619  0.7643
   77MOL0     O10319   0.910   3.393   1.920  0.2444  0.1099  0.4874
   77MOL0     C10320   0.945   3.533   1.898  0.1039 -0.6518 -0.8135
   77MOL0     C10321   0.956   3.600   2.029 -0.5523  0.2996  0.2447
   77MOL0     C10322   1.051   3.536   2.136 -0.9030 -0.8099 -0.3014
   77MOL0     C10323   1.201   3.540   2.099 -0.3521  0.3841  0.3198
   77MOL0     C10324   1.290   3.481   2.210 -0.1599  0.6007  0.2099
   77MOL0     C10325   1.371   3.458   2.298  1.1040 -0.6089 -1.0539
   77MOL0     C10326   1.005   3.342   1.695  0.8033  0.9808  0.6393
   77MOL0     C10327   1.072   3.241   1.624  0.3591 -0.2711 -0.5211
   77MOL0     H10328   1.089   2.844   1.398  1.1237  0.8636  1.4642
   77MOL0     H10329   1.151   2.626   1.257 -1.2896  1.4809 -0.3268
   77MOL0     H10330   1.513   2.427   1.432 -1.3064  1.0345 -0.0324
   77MOL0     H10331   1.406   2.298   1.501  0.6694 -2.8790 -1.3420
   77MOL0     H10332   1.494   2.287   1.220  1.5014  0.3048  0.1886
   77MOL0     H10333   1.575   2.206   1.340 -0.1288 -0.6095  0.6131
   77MOL0     H10334   1.340   2.101   1.415  0.6241  1.3786  0.9074
   77MOL0     H10335   1.266   2.179   1.280  0.0424  2.1904  0.2224
   77MOL0     H10336   1.388   2.071   1.114 -0.0490 -3.1681 -1.5200
   77MOL0     H10337   1.505   1.998   1.227 -0.9335 -2.2413  0.6007
   77MOL0     H10338   1.313   1.863   1.328  0.2347  3.0461  0.6043
   77MOL0     H10339   1.204   1.935   1.207 -0.4581 -0.6015  0.5824
   77MOL0     H10340   1.260   1.850   1.031 -1.5148  0.1487  1.6005
   77MOL0     H10341   1.416   1.771   1.066  0.1455 -0.6270  1.3813
   77MOL0     H10342   1.303   1.645   1.246  0.4755  1.8519 -0.4295
   77MOL0     H10343   1.145   1.704   1.174 -0.2679  2.1555 -3.8531
   77MOL0     H10344   1.324   1.505   1.045 -0.0087  0.0661 -2.1516
   77MOL0     H10345   1.237   1.630   0.952 -0.4546  1.2354  0.6566
   77MOL0     H10346   1.202   1.311   1.143  0.0919 -0.9516  0.5993
   77MOL0     H10347   0.980   1.145   1.222 -0.4154  0.9484  2.5855
   77MOL0     H10348   0.834   1.247   1.232  0.8558 -3.5904  2.8642
   77MOL0     H10349   0.850   1.202   0.968 -0.7115  3.5129  1.1300
   77MOL0     H10350   0.742   1.121   1.082 -1.4508 -0.1557 -3.7213
   77MOL0     H10351   0.829   0.961   0.955  1.0299 -0.1456 -0.4680
   77MOL0     H10352   0.898   0.936   1.109  0.1729 -0.1132 -1.2976
   77MOL0     H10353   1.060   1.017   0.865  0.3796  2.4049  1.2571
   77MOL0     H10354   1.044   0.868   0.953 -0.8279  0.7949 -2.5332
   77MOL0     H10355   1.240   0.848   0.842  0.1721 -0.9274 -0.8634
   77MOL0     H10356   1.400   0.769   0.695  2.4562  1.8575 -2.0836
   77MOL0     H10357   1.573   0.789   0.743  0.8105 -2.6647  2.8456
   77MOL0     H10358   1.484   0.661   0.823  2.1024 -1.4070 -0.4834
   77MOL0     H10359   1.927   1.099   0.886  1.7051  1.7927  2.2246
   77MOL0     H10360   2.173   1.078   0.832  3.4943 -2.7072 -0.8847
   77MOL0     H10361   2.357   1.021   0.811 -1.1564  0.0059  1.1381
   77MOL0     H10362   2.404   1.049   0.982  0.4329  1.9148 -2.2654
   77MOL0     H10363   2.571   0.885   0.973 -1.0620 -0.2396  0.7207
   77MOL0     H10364   2.540   0.854   0.799 -0.2088 -0.2009 -0.3269
   77MOL0     H10365   2.617   1.068   0.740 -0.3407  2.2063  0.9201
   77MOL0     H10366   2.733   0.995   0.840  0.1612 -0.9146 -0.9528
   77MOL0     H10367   2.552   1.195   0.988 -0.6932 -1.9303  1.6398
   77MOL0     H10368   2.713   1.127   1.045  1.2694  1.7492 -0.4303
   77MOL0     H10369   2.722   1.353   0.955 -5.6846  2.1047 -2.5747
   77MOL0     H10370   2.666   1.280   0.806 -4.0427 -3.5927  1.5824
   77MOL0     H10371   2.912   1.224   0.967  0.3742  5.8747  0.3745
   77MOL0     H10372   2.882   1.129   0.829 -1.6754  0.2677 -1.6315
   77MOL0     H10373   2.887   1.438   0.784 -1.4476 -1.1324  0.9554
   77MOL0     H10374   2.877   1.314   0.659 -2.7914 -0.0940  1.1500
   77MOL0     H10375   3.121   1.240   0.728 -0.0039  1.2051 -2.4854
   77MOL0     H10376   3.113   1.352   0.863 -2.4173  0.8545  0.7474
   77MOL0     H10377   2.170   0.722   1.097 -1.8765  0.9562  2.6738
   77MOL0     H10378   1.919   0.751   1.109  2.1182 -1.3869  0.7252
   77MOL0     H10379   1.576   1.022   1.157  2.1738 -2.0389 -1.1441
   77MOL0     H10380   1.338   1.110   1.157  0.7289 -0.3886  0.0597
   77MOL0     H10381   1.338   2.493   1.616 -0.5678 -2.4877 -3.0465
   77MOL0     H10382   1.250   2.659   1.750  0.5914 -0.9730  0.4304
   77MOL0     H10383   1.021   2.986   1.834 -0.0757  0.6934 -0.9942
   77MOL0     H10384   0.914   3.148   1.963  1.3762  1.9754  1.0873
   77MOL0     H10385   1.046   3.543   1.857  0.7110  0.7719  0.8838
   77MOL0     H10386   0.876   3.578   1.826 -2.3384 -1.9388  0.5972
   77MOL0     H10387   0.863   3.605   2.085  1.8279  2.5930  4.5163
   77MOL0     H10388   0.991   3.703   2.022  1.3127 -0.1231  2.1162
   77MOL0     H10389   1.028   3.434   2.167  0.7473 -1.4935 -1.2018
   77MOL0     H10390   1.042   3.593   2.228 -1.2519 -3.5764  1.4995
   77MOL0     H10391   1.237   3.641   2.079 -1.7348  2.0460  4.8251
   77MOL0     H10392   1.213   3.485   2.006  2.0674 -2.1271  1.9332
   77MOL0     H10393   1.433   3.436   2.382  0.3370  1.4545  0.1321
   77MOL0     H10394   0.995   3.443   1.657 -4.9631  0.1807 -0.9199
   77MOL0     H10395   1.109   3.256   1.523 -1.0075 -0.7263 -1.1168
   78MOL0     O10396   4.490   1.768  11.102 -0.0390 -0.5699 -0.2629
   78MOL0     C10397   4.424   1.722  11.195 -0.3444 -0.2636  0.5215
   78MOL0     O10398   4.366   1.794  11.296  0.1970  0.3953  1.4123
   78MOL0     C10399   4.325   1.922  11.294  0.0073  0.3653  1.3175
   78MOL0     C10400   4.275   1.978  11.413  0.4452 -0.4561  0.8516
   78MOL0     C10401   4.236   2.114  11.423  1.1436 -0.7623 -0.0998
   78MOL0     C10402   4.246   2.200  11.316  0.0565 -0.6666  0.5541
   78MOL0     O10403   4.224   2.335  11.335 -1.2703 -0.7118  0.5726
   78MOL0     C10404   4.284   2.410  11.440 -0.4965 -0.2477  0.7835
   78MOL0     C10405   4.431   2.368  11.467  0.9716  0.3514  0.1454
   78MOL0     C10406   4.506   2.472  11.543  0.3480 -0.3970  0.8317
   78MOL0     C10407   4.442   2.508  11.683 -0.5671 -0.0043 -0.7232
   78MOL0     C10408   4.368   2.638  11.688 -0.2271 -0.0036  0.8312
   78MOL0     C10409   4.321   2.677  11.835  0.2104 -0.2251  0.9000
   78MOL0     C10410   4.294   2.827  11.851 -1.0475  0.0591 -0.9708
   78MOL0     C10411   4.421   2.895  11.895 -0.1430 -0.4174 -0.9241
   78MOL0     N10412   4.425   3.029  11.853  0.6413 -0.0085 -0.0869
   78MOL0     C10413   4.331   3.135  11.862 -0.0200 -0.5244 -0.6109
   78MOL0     C10414   4.402   3.244  11.803 -0.6410  0.2620 -0.2900
   78MOL0     C10415   4.339   3.379  11.800  0.3462  0.2622  0.1236
   78MOL0     C10416   4.205   3.372  11.726 -0.7511 -1.4287  0.4270
   78MOL0     C10417   4.116   3.475  11.769  0.5159  0.1198  0.4044
   78MOL0     C10418   4.061   3.464  11.914 -0.2382  0.3157 -0.3126
   78MOL0     O10419   3.951   3.550  11.925  1.3099  0.1832  0.1411
   78MOL0     C10420   3.961   3.638  12.025  0.4672 -0.6845 -0.0698
   78MOL0     C10421   3.850   3.657  12.107 -0.0538 -0.2858  0.6138
   78MOL0     C10422   3.858   3.755  12.203  0.8265 -1.0320 -0.0311
   78MOL0     C10423   3.723   3.765  12.285 -0.2405 -0.4593  0.4983
   78MOL0     C10424   3.966   3.851  12.210 -0.1298 -0.4478  0.7550
   78MOL0     C10425   3.973   3.959  12.308 -0.4653 -0.5167  0.3240
   78MOL0     O10426   4.083   4.037  12.301 -0.7696 -0.1100 -0.6084
   78MOL0     C10427   4.113   4.119  12.408  0.4562 -0.1202  0.3081
   78MOL0     C10428   4.069   4.254  12.403  0.2935  0.9777  0.1219
   78MOL0     C10429   4.101   4.344  12.499 -0.4001  0.1785  0.0672
   78MOL0     C10430   4.166   4.300  12.615  0.1686 -0.6465 -0.7817
   78MOL0     O10431   4.191   4.383  12.725  0.1143  0.4862  0.4223
   78MOL0     C10432   4.261   4.508  12.705 -0.4136  0.2018 -0.0066
   78MOL0     C10433   4.387   4.536  12.791 -0.1353  0.4901 -0.4328
   78MOL0     C10434   4.481   4.649  12.738 -0.1026  1.1028 -0.4061
   78MOL0     C10435   4.407   4.780  12.690  0.0204  0.1118 -0.4600
   78MOL0     C10436   4.501   4.853  12.587  0.6250 -1.0671 -0.6518
   78MOL0     C10437   4.438   4.824  12.446 -0.0196 -0.7705 -0.0242
   78MOL0     C10438   4.537   4.888  12.337 -0.0586  0.6266 -0.1122
   78MOL0     C10439   4.490   4.852  12.201 -0.2876 -0.1680 -0.3720
   78MOL0    Cl10440   4.607   4.904  12.077 -0.0692  0.0007  0.2662
   78MOL0     C10441   4.205   4.167  12.626 -0.4065 -0.2853  0.5852
   78MOL0     C10442   4.182   4.084  12.523 -0.5044 -0.5245  0.4785
   78MOL0     O10443   3.901   3.950  12.410 -0.5693  0.0881  0.0231
   78MOL0     C10444   4.062   3.847  12.117  0.2204  0.5631  0.0697
   78MOL0     C10445   4.059   3.740  12.024 -0.2410 -0.6357  0.4318
   78MOL0     N10446   4.530   3.207  11.771 -0.0218 -0.6406  0.0883
   78MOL0     N10447   4.544   3.073  11.800 -0.3221  0.4360 -0.8341
   78MOL0     C10448   4.283   2.146  11.193 -0.7722 -0.3753  0.0147
   78MOL0     C10449   4.323   2.012  11.183 -0.3520  0.0408  0.2001
   78MOL0     C10450   4.462   1.586  11.229  0.3020  0.4870  0.4056
   78MOL0     C10451   4.504   1.487  11.142  0.8969  0.6297  0.5752
   78MOL0     C10452   4.543   1.354  11.185  0.6158  0.2981 -0.9927
   78MOL0     C10453   4.530   1.322  11.320  0.4564  0.6169 -0.4675
   78MOL0     O10454   4.583   1.196  11.365  0.6484  0.0649 -0.6441
   78MOL0     C10455   4.569   1.164  11.512  0.8989  0.3141  0.5949
   78MOL0     C10456   4.637   1.036  11.546 -0.2611  0.7032  0.2009
   78MOL0     C10457   4.779   1.024  11.479  0.0187 -0.8474  0.7311
   78MOL0     C10458   4.904   1.080  11.550  0.4365  0.0367  0.0947
   78MOL0     C10459   4.956   0.979  11.637  0.2053  0.1316  1.2203
   78MOL0     C10460   5.006   0.896  11.715  0.2669 -0.9710  1.2916
   78MOL0     C10461   4.469   1.417  11.399 -0.0791 -0.3018  0.6514
   78MOL0     C10462   4.430   1.552  11.363  0.7144  0.5697  0.4896
   78MOL0     H10463   4.267   1.919  11.504 -0.9549 -1.7544 -0.0725
   78MOL0     H10464   4.189   2.148  11.515 -1.5710  0.0712 -1.6892
   78MOL0     H10465   4.279   2.518  11.424  0.2772  0.2388  3.3594
   78MOL0     H10466   4.224   2.398  11.531 -1.7625  1.1909  0.1808
   78MOL0     H10467   4.439   2.272  11.518  1.9069 -0.1422 -0.8866
   78MOL0     H10468   4.494   2.350  11.379  1.8650  0.5490  0.7268
   78MOL0     H10469   4.612   2.445  11.547  0.4934 -0.4170 -1.6252
   78MOL0     H10470   4.488   2.561  11.481 -0.9032 -0.7998  0.5890
   78MOL0     H10471   4.378   2.424  11.709  1.9941 -2.4035 -1.6301
   78MOL0     H10472   4.521   2.521  11.758 -2.5630  1.3546  1.2587
   78MOL0     H10473   4.431   2.722  11.655  1.7727 -1.6469  0.1963
   78MOL0     H10474   4.285   2.634  11.617  1.0550 -3.4608 -0.7416
   78MOL0     H10475   4.229   2.626  11.866 -0.6163  1.4280  1.2992
   78MOL0     H10476   4.403   2.648  11.901  1.0482 -2.3524 -0.9322
   78MOL0     H10477   4.258   2.871  11.758  1.0621  0.1636 -1.7959
   78MOL0     H10478   4.218   2.847  11.928  2.3877 -0.7812  3.0282
   78MOL0     H10479   4.507   2.843  11.852  0.7775 -2.3945  2.8712
   78MOL0     H10480   4.430   2.880  12.003 -0.3675 -0.7153 -0.9445
   78MOL0     H10481   4.239   3.125  11.919  2.2350 -2.3004  3.0901
   78MOL0     H10482   4.311   3.387  11.906  1.8978 -0.0212  0.5778
   78MOL0     H10483   4.405   3.463  11.779  0.6791 -0.6510 -2.9361
   78MOL0     H10484   4.160   3.272  11.730 -1.2024 -1.3334 -1.2694
   78MOL0     H10485   4.232   3.400  11.623  1.8329  0.3542  1.4896
   78MOL0     H10486   4.030   3.482  11.702 -0.5018 -0.2619  1.6319
   78MOL0     H10487   4.174   3.568  11.762  3.1670 -1.5238 -1.1513
   78MOL0     H10488   4.136   3.481  11.992 -0.7294 -0.5283  0.3679
   78MOL0     H10489   4.022   3.364  11.935  0.0042  0.5121  1.1964
   78MOL0     H10490   3.755   3.608  12.093 -0.9772  0.7900  2.6457
   78MOL0     H10491   3.731   3.740  12.391  1.0445 -0.9517  0.2965
   78MOL0     H10492   3.683   3.867  12.287  1.8122  0.4125 -0.2009
   78MOL0     H10493   3.650   3.689  12.257  0.0968 -1.1314  1.4268
   78MOL0     H10494   4.035   4.286  12.305  0.6742  0.9075 -0.0330
   78MOL0     H10495   4.097   4.451  12.482 -4.0470  0.6890  2.9727
   78MOL0     H10496   4.304   4.513  12.605  1.0125 -3.1719  0.3189
   78MOL0     H10497   4.198   4.596  12.720  0.9136  1.6385 -2.2311
   78MOL0     H10498   4.366   4.561  12.895  2.7029  0.0823  0.3255
   78MOL0     H10499   4.460   4.454  12.785 -0.0591  0.1888  2.8370
   78MOL0     H10500   4.540   4.603  12.659  0.9119 -1.7180  1.8460
   78MOL0     H10501   4.551   4.662  12.821 -2.2613 -3.6464  2.5969
   78MOL0     H10502   4.315   4.757  12.636  1.7026  0.0172 -3.4730
   78MOL0     H10503   4.399   4.837  12.783 -1.6761 -1.8336  0.6575
   78MOL0     H10504   4.609   4.835  12.591  0.5736 -1.4232 -0.8575
   78MOL0     H10505   4.491   4.958  12.618  0.4859 -0.5753 -2.2720
   78MOL0     H10506   4.431   4.717  12.426  2.4747 -0.8281 -0.9316
   78MOL0     H10507   4.348   4.886  12.434  1.0731  0.5570 -2.1483
   78MOL0     H10508   4.635   4.846  12.362 -1.4729 -1.4423  2.4064
   78MOL0     H10509   4.537   4.997  12.341  2.1546  0.6865 -0.7062
   78MOL0     H10510   4.395   4.902  12.180 -0.0238  1.5365  2.1486
   78MOL0     H10511   4.465   4.745  12.203  0.2211 -0.2878 -0.2258
   78MOL0     H10512   4.260   4.132  12.713  0.4602 -0.4452 -0.0136
   78MOL0     H10513   4.211   3.980  12.538 -2.1819 -1.1954 -0.7069
   78MOL0     H10514   4.148   3.911  12.135 -1.2031  1.9911  2.4670
   78MOL0     H10515   4.138   3.735  11.950 -0.7105  2.9378 -0.4764
   78MOL0     H10516   4.270   2.214  11.110  2.4967  1.2886  0.6930
   78MOL0     H10517   4.353   1.994  11.080  0.3699  3.0436 -0.2028
   78MOL0     H10518   4.499   1.508  11.036 -0.2479 -0.7546  0.3186
   78MOL0     H10519   4.567   1.272  11.118 -0.4238 -1.9683  1.2542
   78MOL0     H10520   4.622   1.244  11.564  0.3816  1.3969 -0.5001
   78MOL0     H10521   4.465   1.162  11.546  1.1422  1.5321  1.4626
   78MOL0     H10522   4.575   0.956  11.502  1.4312 -0.1320 -0.7694
   78MOL0     H10523   4.641   1.019  11.654  1.4755  1.0868  0.2211
   78MOL0     H10524   4.781   1.082  11.387  2.2194 -0.9908  0.6187
   78MOL0     H10525   4.802   0.922  11.447 -0.6285 -0.5812 -0.6377
   78MOL0     H10526   4.869   1.163  11.613  1.6172  0.8718 -0.3148
   78MOL0     H10527   4.975   1.125  11.480  1.8988  0.2526  1.6539
   78MOL0     H10528   5.060   0.829  11.779 -0.7587 -3.3963 -0.2280
   78MOL0     H10529   4.453   1.391  11.503  1.1664 -0.4421  0.8227
   78MOL0     H10530   4.382   1.612  11.440 -0.9148  0.2369 -0.2393
   79MOL0     O10531   1.502   0.960   0.131 -0.4494 -0.4623 -0.2557
   79MOL0     C10532   1.413   0.940   0.057  0.3698 -0.2812 -0.6263
   79MOL0     O10533   1.301   1.019   0.038  0.8632 -0.3417 -0.1712
   79MOL0     C10534   1.299   1.139   0.101  0.3494  0.2066  0.2240
   79MOL0     C10535   1.382   1.239   0.057  0.0725  0.5004  0.1739
   79MOL0     C10536   1.365   1.369   0.100  0.0725 -0.9947 -0.1375
   79MOL0     C10537   1.265   1.399   0.193 -0.6444 -0.0531  0.3442
   79MOL0     O10538   1.265   1.529   0.241 -0.0878  1.2733 -0.3848
   79MOL0     C10539   1.224   1.619   0.144 -0.7550 -0.3878  0.2191
   79MOL0     C10540   1.318   1.741   0.164  0.1405  0.1275  0.7156
   79MOL0     C10541   1.285   1.843   0.270  0.1821  0.5247  0.3964
   79MOL0     C10542   1.347   1.977   0.250  0.1949 -0.3287 -0.4978
   79MOL0     C10543   1.491   1.996   0.312  0.2207 -0.0708  1.5066
   79MOL0     C10544   1.558   2.135   0.300 -0.8373  0.9059 -0.1920
   79MOL0     C10545   1.545   2.195   0.164  0.7800 -0.2648 -0.3037
   79MOL0     C10546   1.569   2.346   0.173 -0.0350 -0.6505  0.0750
   79MOL0     N10547   1.710   2.385   0.211 -0.9387 -0.1311 -0.9321
   79MOL0     C10548   1.759   2.378   0.343 -0.3709 -1.1162 -0.7776
   79MOL0     C10549   1.874   2.441   0.344  0.2144 -0.4397 -0.2728
   79MOL0     C10550   1.949   2.471   0.474  0.5875  0.1296  0.5404
   79MOL0     C10551   1.896   2.598   0.539 -0.2233 -0.6319 -0.2541
   79MOL0     C10552   1.920   2.707   0.436 -0.4363  1.2543  0.4622
   79MOL0     C10553   1.890   2.850   0.483  0.5094  0.2872  0.6267
   79MOL0     O10554   1.964   2.945   0.407 -1.0706 -0.4098  0.1577
   79MOL0     C10555   1.903   3.073   0.372  1.7230  0.1639 -1.0892
   79MOL0     C10556   1.941   3.144   0.262  0.5664 -1.0740  0.6304
   79MOL0     C10557   1.892   3.273   0.233 -0.8704 -0.6296  1.1257
   79MOL0     C10558   1.941   3.335   0.109 -0.2612  0.7778 -0.1890
   79MOL0     C10559   1.797   3.330   0.314  1.6499 -0.0387 -0.1242
   79MOL0     C10560   1.721   3.452   0.277 -0.4039 -0.6157 -0.1576
   79MOL0     O10561   1.726   3.552   0.366 -0.2516 -0.6218 -0.0046
   79MOL0     C10562   1.653   3.663   0.339  0.7270  0.7809 -0.1828
   79MOL0     C10563   1.530   3.690   0.399  0.2933 -0.7693 -0.0370
   79MOL0     C10564   1.463   3.813   0.363  0.0492  0.5609 -0.8062
   79MOL0     C10565   1.527   3.916   0.299 -0.3172  0.7410  0.7098
   79MOL0     O10566   1.453   4.037   0.289 -0.0131  0.3537  0.1118
   79MOL0     C10567   1.515   4.141   0.228  0.0501 -0.5102  0.3624
   79MOL0     C10568   1.427   4.262   0.217  0.9999  0.0019 -0.5130
   79MOL0     C10569   1.275   4.234   0.180 -0.1388 -0.3979 -0.8863
   79MOL0     C10570   1.212   4.316   0.063  0.2897  0.3370  0.6636
   79MOL0     C10571   1.184   4.466   0.094  0.1500  0.0432  0.1325
   79MOL0     C10572   1.068   4.497   0.185  0.1181  0.8023  0.4594
   79MOL0     C10573   1.044   4.639   0.211 -0.1953 -0.5399 -0.5511
   79MOL0     C10574   1.080   4.743   0.108  0.4981  0.3785  0.6454
   79MOL0    Cl10575   1.261   4.769   0.075  0.0013 -0.4252 -0.4883
   79MOL0     C10576   1.645   3.871   0.234  0.4827 -0.0690  0.9971
   79MOL0     C10577   1.705   3.752   0.248 -0.6151 -0.8585  0.3133
   79MOL0     O10578   1.675   3.460   0.161 -0.0654  0.0550  0.1200
   79MOL0     C10579   1.768   3.262   0.432  0.4791  0.4102  1.4011
   79MOL0     C10580   1.817   3.137   0.465  0.6879 -0.5044 -0.8704
   79MOL0     N10581   1.905   2.481   0.221  0.5476 -0.2323  0.2017
   79MOL0     N10582   1.806   2.449   0.136  0.6554  0.2028 -0.5383
   79MOL0     C10583   1.199   1.295   0.263 -0.9197 -1.0947 -0.4207
   79MOL0     C10584   1.217   1.161   0.219 -0.0602  1.3573  0.5153
   79MOL0     C10585   1.407   0.819  -0.034  0.4814 -0.2309  1.4036
   79MOL0     C10586   1.312   0.812  -0.136 -0.0143 -0.3871  0.5407
   79MOL0     C10587   1.299   0.691  -0.213 -1.0910  0.7567 -0.5798
   79MOL0     C10588   1.367   0.575  -0.169 -0.1686  0.2755  0.4668
   79MOL0     O10589   1.334   0.456  -0.229 -0.0354 -0.8297 -0.3166
   79MOL0     C10590   1.272   0.360  -0.145  0.9303  0.9426  0.5680
   79MOL0     C10591   1.341   0.225  -0.180  0.6081 -0.3051  0.4078
   79MOL0     C10592   1.273   0.094  -0.125 -0.3267  0.0533 -1.0028
   79MOL0     C10593   1.140   0.057  -0.199  0.1524 -0.0198  1.6314
   79MOL0     C10594   1.091  -0.070  -0.163 -0.4468  1.0433 -0.1037
   79MOL0     C10595   1.072  -0.182  -0.127 -0.4543 -0.7661  0.5298
   79MOL0     C10596   1.454   0.587  -0.059 -0.0585  0.7044  0.3011
   79MOL0     C10597   1.475   0.703   0.002 -0.2389  0.5570  0.3660
   79MOL0     H10598   1.446   1.213  -0.027  2.2201 -1.4239  2.2617
   79MOL0     H10599   1.427   1.453   0.070  0.0336 -0.3218  1.5680
   79MOL0     H10600   1.244   1.573   0.047  0.2858  0.4209  0.0372
   79MOL0     H10601   1.124   1.664   0.146 -0.9301 -0.5726 -1.8241
   79MOL0     H10602   1.411   1.692   0.197 -1.4354 -2.4959  1.5468
   79MOL0     H10603   1.316   1.796   0.069 -3.1310 -1.6971 -0.4285
   79MOL0     H10604   1.176   1.846   0.279  0.0972 -1.0345  0.1163
   79MOL0     H10605   1.309   1.803   0.369  1.0929 -0.1752 -0.0945
   79MOL0     H10606   1.349   1.997   0.143 -0.6103 -0.6210 -0.5742
   79MOL0     H10607   1.285   2.057   0.292  4.3543  2.3858  1.0484
   79MOL0     H10608   1.488   1.966   0.417 -2.3837 -0.1028  1.4955
   79MOL0     H10609   1.554   1.924   0.258 -0.6503 -4.0215  5.2558
   79MOL0     H10610   1.510   2.200   0.373 -0.0424 -0.7188  1.8800
   79MOL0     H10611   1.659   2.135   0.343 -0.2854 -2.7110 -1.1488
   79MOL0     H10612   1.621   2.151   0.099 -0.3246 -0.3639 -1.5781
   79MOL0     H10613   1.446   2.175   0.120  0.5643 -3.0781  1.2756
   79MOL0     H10614   1.494   2.381   0.245 -2.2841 -0.8701 -2.0102
   79MOL0     H10615   1.529   2.395   0.084  0.9394  0.5009  0.2494
   79MOL0     H10616   1.714   2.354   0.439  2.9750 -0.6232  1.0607
   79MOL0     H10617   1.947   2.390   0.548  3.3161  1.4804  2.2412
   79MOL0     H10618   2.051   2.494   0.443 -0.4168 -0.7993 -4.3193
   79MOL0     H10619   1.964   2.604   0.625 -1.0277  2.6869  0.2759
   79MOL0     H10620   1.791   2.596   0.569 -1.8557 -3.0429 -5.0327
   79MOL0     H10621   1.851   2.686   0.354 -0.0396 -2.1873  0.8708
   79MOL0     H10622   2.022   2.711   0.397 -0.2975  0.8011  0.7648
   79MOL0     H10623   1.918   2.866   0.588  1.9245 -1.2259  0.5244
   79MOL0     H10624   1.781   2.859   0.487  0.4609  2.1458 -2.1382
   79MOL0     H10625   2.011   3.089   0.200  0.0600 -3.3770  1.9394
   79MOL0     H10626   2.038   3.293   0.081 -1.5983 -1.1863 -2.2859
   79MOL0     H10627   1.882   3.302   0.023  3.1961 -4.3807 -1.0297
   79MOL0     H10628   1.950   3.442   0.129  1.4552  0.3877  1.3474
   79MOL0     H10629   1.489   3.615   0.465 -1.9256 -1.2173 -1.7785
   79MOL0     H10630   1.375   3.838   0.422  0.6720 -2.0127  1.4899
   79MOL0     H10631   1.607   4.152   0.286  0.0440 -0.7317  0.4148
   79MOL0     H10632   1.535   4.116   0.123 -2.4664  0.9056 -0.5361
   79MOL0     H10633   1.444   4.332   0.299 -0.2457 -0.1638 -0.0873
   79MOL0     H10634   1.460   4.333   0.141  4.0790  0.6070  1.2172
   79MOL0     H10635   1.219   4.247   0.273  1.6554 -0.8711  0.3051
   79MOL0     H10636   1.265   4.130   0.147  1.5265 -0.7054 -0.5122
   79MOL0     H10637   1.275   4.308  -0.026 -0.8897 -1.5137 -0.0499
   79MOL0     H10638   1.116   4.277   0.029  0.0366  1.4159  0.0891
   79MOL0     H10639   1.164   4.524   0.003 -0.3781 -1.6111 -0.8472
   79MOL0     H10640   1.279   4.510   0.129  1.3847 -1.0136 -1.7105
   79MOL0     H10641   0.983   4.460   0.127  1.7010 -1.6378 -0.4368
   79MOL0     H10642   1.066   4.443   0.280  2.3194  0.9335  0.6470
   79MOL0     H10643   1.091   4.677   0.302 -4.1415  4.1366 -0.0399
   79MOL0     H10644   0.939   4.650   0.240 -0.0339 -0.9969  0.2199
   79MOL0     H10645   1.048   4.846   0.127  2.7089  0.9881  1.4181
   79MOL0     H10646   1.023   4.707   0.022 -1.5356 -0.8927  2.4135
   79MOL0     H10647   1.693   3.927   0.154  1.8345 -1.0227  1.1071
   79MOL0     H10648   1.798   3.727   0.198 -1.3221  1.1761 -2.2767
   79MOL0     H10649   1.699   3.309   0.501 -2.1318  1.2250 -1.5633
   79MOL0     H10650   1.772   3.091   0.552  0.7472 -0.7632 -0.9741
   79MOL0     H10651   1.143   1.343   0.342  0.5810  1.6261 -0.9066
   79MOL0     H10652   1.178   1.074   0.271  1.3700  1.8058  2.4543
   79MOL0     H10653   1.250   0.897  -0.162 -1.0666 -1.0055  0.9618
   79MOL0     H10654   1.235   0.677  -0.299 -0.1695 -0.0969 -1.1492
   79MOL0     H10655   1.274   0.371  -0.036  0.5496 -0.3753  0.7203
   79MOL0     H10656   1.166   0.357  -0.169  0.5378  1.6111  2.0893
   79MOL0     H10657   1.445   0.222  -0.147 -0.3814  1.0191  4.1227
   79MOL0     H10658   1.324   0.225  -0.289  0.5672  1.1244  0.3957
   79MOL0     H10659   1.256   0.113  -0.019  1.6830  0.0037 -0.6270
   79MOL0     H10660   1.345   0.012  -0.133  2.2089  2.1355 -1.0737
   79MOL0     H10661   1.154   0.064  -0.308  0.9395 -1.0133  1.6494
   79MOL0     H10662   1.061   0.127  -0.173  0.4981  0.3193  1.7827
   79MOL0     H10663   1.027  -0.274  -0.097 -2.4924  1.2554  4.5933
   79MOL0     H10664   1.496   0.504  -0.001  1.3593  2.0129  1.2340
   79MOL0     H10665   1.524   0.721   0.097 -1.1234  2.5367  0.5109
   80MOL0     O10666   7.539   6.679   8.096  0.0094 -0.1063  0.6966
   80MOL0     C10667   7.649   6.727   8.115  0.7583 -0.4951 -0.0228
   80MOL0     O10668   7.773   6.667   8.089  0.1488  0.4140  0.0093
   80MOL0     C10669   7.784   6.528   8.062 -0.5935 -0.3169  0.3529
   80MOL0     C10670   7.822   6.429   8.157  0.8602 -0.7604  1.2018
   80MOL0     C10671   7.843   6.298   8.107  0.3782  0.1165  0.6086
   80MOL0     C10672   7.791   6.261   7.983  0.9118 -0.8895  0.8840
   80MOL0     O10673   7.785   6.127   7.943  0.3549 -0.5538 -0.3652
   80MOL0     C10674   7.649   6.084   7.933  0.3027 -0.4279  0.4409
   80MOL0     C10675   7.595   6.037   8.063 -0.1069  0.6004 -0.6615
   80MOL0     C10676   7.444   6.013   8.071 -0.1979  0.5540  0.4822
   80MOL0     C10677   7.377   6.140   8.040 -0.8647  0.3356  0.9845
   80MOL0     C10678   7.256   6.171   8.122 -0.0834 -0.1014  0.2771
   80MOL0     C10679   7.292   6.214   8.262  0.3717 -0.0279 -0.4979
   80MOL0     C10680   7.415   6.297   8.296 -0.7064 -0.3616  0.7261
   80MOL0     C10681   7.421   6.342   8.444 -0.2885  0.0489  0.3963
   80MOL0     N10682   7.557   6.381   8.489 -0.4506 -0.0144  0.6908
   80MOL0     C10683   7.623   6.490   8.444 -0.0828 -0.6941 -0.6013
   80MOL0     C10684   7.714   6.518   8.542 -0.5915  0.0351 -0.5986
   80MOL0     C10685   7.803   6.644   8.576 -0.0533 -0.0410 -0.1222
   80MOL0     C10686   7.932   6.646   8.485  0.1825 -0.9773 -0.3900
   80MOL0     C10687   8.016   6.777   8.519 -0.0086 -0.8364 -0.2799
   80MOL0     C10688   8.146   6.776   8.442 -0.6271 -0.1248  0.9296
   80MOL0     O10689   8.115   6.799   8.300 -0.2019  0.1866  0.2594
   80MOL0     C10690   8.204   6.764   8.201 -0.0631 -0.5953 -0.4232
   80MOL0     C10691   8.157   6.717   8.081 -0.0727  0.8524  0.5939
   80MOL0     C10692   8.250   6.686   7.976  0.8122  0.5707 -1.0734
   80MOL0     C10693   8.188   6.638   7.850  0.4563  0.1049  0.2718
   80MOL0     C10694   8.388   6.712   7.997  0.5784 -0.6796 -0.1740
   80MOL0     C10695   8.486   6.692   7.887 -0.7877 -0.0016 -0.0132
   80MOL0     O10696   8.479   6.578   7.812  0.3219 -0.2869 -0.5498
   80MOL0     C10697   8.536   6.553   7.695  0.1566  0.4572 -0.2237
   80MOL0     C10698   8.647   6.617   7.641  0.3922 -0.5958  0.6842
   80MOL0     C10699   8.684   6.582   7.509 -1.0131  0.7064 -1.0559
   80MOL0     C10700   8.612   6.490   7.430  0.9755  0.2304  0.1939
   80MOL0     O10701   8.641   6.482   7.300 -0.1109  0.0709 -1.0465
   80MOL0     C10702   8.631   6.346   7.243 -0.3041  0.3507 -0.9898
   80MOL0     C10703   8.755   6.259   7.292 -1.3008  0.0750  0.8652
   80MOL0     C10704   8.750   6.114   7.237 -0.0108  0.1023  0.5611
   80MOL0     C10705   8.756   6.107   7.084 -0.4883 -0.0972 -0.0341
   80MOL0     C10706   8.726   5.967   7.034 -1.5393 -0.5190 -0.0025
   80MOL0     C10707   8.590   5.952   6.981 -0.3194 -1.2262 -0.2606
   80MOL0     C10708   8.578   5.822   6.899 -0.0320 -0.3907 -0.5396
   80MOL0     C10709   8.578   5.694   6.977  0.2154 -0.1380 -0.4350
   80MOL0    Cl10710   8.588   5.554   6.856  0.1278 -0.3935 -0.0773
   80MOL0     C10711   8.508   6.423   7.494  0.6140  0.4092 -0.3193
   80MOL0     C10712   8.469   6.457   7.620 -0.6412 -0.7219  0.6924
   80MOL0     O10713   8.568   6.787   7.877  0.0786  0.4349  0.4115
   80MOL0     C10714   8.430   6.761   8.114 -0.1037  0.1964 -0.6184
   80MOL0     C10715   8.342   6.777   8.222  0.1955  0.1864 -0.1601
   80MOL0     N10716   7.711   6.406   8.624 -0.6420  0.7023 -0.2091
   80MOL0     N10717   7.618   6.327   8.589  0.1198  0.7334 -0.9510
   80MOL0     C10718   7.764   6.370   7.885 -0.4651  0.4788  0.4262
   80MOL0     C10719   7.763   6.503   7.928  0.2448  0.8406  0.2011
   80MOL0     C10720   7.646   6.871   8.159  0.4035  0.9226  1.4540
   80MOL0     C10721   7.771   6.931   8.209  0.8403  0.8688  0.5885
   80MOL0     C10722   7.760   7.062   8.267  0.0552  0.8588 -0.1217
   80MOL0     C10723   7.637   7.122   8.272 -0.1813  0.7646 -0.5851
   80MOL0     O10724   7.606   7.242   8.328 -0.2008  0.2880 -0.1563
   80MOL0     C10725   7.719   7.320   8.372 -0.6627  0.1658  0.2668
   80MOL0     C10726   7.669   7.460   8.368  0.2405 -0.6428  0.2605
   80MOL0     C10727   7.792   7.565   8.353  0.4407  0.7754  0.6033
   80MOL0     C10728   7.879   7.569   8.476  0.1772  0.0797  1.1052
   80MOL0     C10729   7.954   7.688   8.490 -0.0158  0.1309 -0.1713
   80MOL0     C10730   8.006   7.794   8.505 -0.1036 -0.3300 -0.3766
   80MOL0     C10731   7.523   7.068   8.217  0.0128  0.6098  0.1531
   80MOL0     C10732   7.525   6.943   8.159  0.2126 -0.5397 -0.5980
   80MOL0     H10733   7.843   6.458   8.260 -1.7959 -0.8850  1.8447
   80MOL0     H10734   7.865   6.227   8.186  0.1514 -2.5580 -1.5743
   80MOL0     H10735   7.594   6.165   7.883  2.4473 -1.0063 -3.2462
   80MOL0     H10736   7.634   6.002   7.861 -1.5366  1.1516 -1.1010
   80MOL0     H10737   7.648   5.943   8.078  2.8456  2.3039  0.4417
   80MOL0     H10738   7.637   6.077   8.156 -1.4772 -1.3201  0.8847
   80MOL0     H10739   7.426   5.931   8.001  2.5347 -0.9107  1.3552
   80MOL0     H10740   7.418   5.995   8.175 -0.9657  1.6054  0.4954
   80MOL0     H10741   7.441   6.229   8.032  1.1029 -1.1971 -2.9140
   80MOL0     H10742   7.339   6.124   7.939 -1.8622  2.1349  1.0178
   80MOL0     H10743   7.191   6.254   8.092 -1.0001  1.0044  4.6583
   80MOL0     H10744   7.187   6.087   8.113  0.1125 -0.2182 -0.1774
   80MOL0     H10745   7.209   6.273   8.304  3.0593  0.5488  4.8116
   80MOL0     H10746   7.304   6.125   8.325  2.7710  0.7118  0.1744
   80MOL0     H10747   7.501   6.232   8.281 -0.4057  0.3095 -0.5559
   80MOL0     H10748   7.430   6.386   8.234  1.9109 -1.7298 -0.7571
   80MOL0     H10749   7.392   6.258   8.508 -0.0042  0.5397  1.1800
   80MOL0     H10750   7.357   6.427   8.464  2.9689  3.2827 -1.6751
   80MOL0     H10751   7.613   6.564   8.365 -4.1773  1.5990  1.6947
   80MOL0     H10752   7.743   6.734   8.562  1.0040  0.2515 -3.8852
   80MOL0     H10753   7.839   6.644   8.679  1.2654  1.3298 -0.5607
   80MOL0     H10754   7.894   6.639   8.383  1.1802  2.0975 -1.0900
   80MOL0     H10755   7.991   6.554   8.490  0.5014 -0.7475  0.2106
   80MOL0     H10756   8.038   6.772   8.626 -0.0024  4.4453  0.2186
   80MOL0     H10757   7.969   6.875   8.506  0.7048 -0.2856  1.0597
   80MOL0     H10758   8.191   6.678   8.462  4.6346  1.9501  0.6978
   80MOL0     H10759   8.208   6.860   8.473 -3.2082  1.1780  2.9152
   80MOL0     H10760   8.052   6.706   8.055  0.0833  2.9976 -1.2546
   80MOL0     H10761   8.237   6.689   7.767  1.6695  3.6135  2.9077
   80MOL0     H10762   8.206   6.530   7.847 -1.4658 -0.2395 -2.2897
   80MOL0     H10763   8.085   6.671   7.836  0.4179  0.5071  1.3971
   80MOL0     H10764   8.709   6.685   7.699  1.4332  0.6046 -1.6921
   80MOL0     H10765   8.774   6.620   7.461  0.7454 -2.1228 -0.2975
   80MOL0     H10766   8.534   6.307   7.275 -0.1746  1.7107  1.2489
   80MOL0     H10767   8.628   6.351   7.134  0.2040 -0.8577 -1.0702
   80MOL0     H10768   8.840   6.324   7.272 -1.1095  2.8051  7.8166
   80MOL0     H10769   8.741   6.259   7.401 -0.2286 -1.6172  1.0326
   80MOL0     H10770   8.656   6.066   7.264 -0.5640 -1.5921 -3.6077
   80MOL0     H10771   8.829   6.046   7.271 -0.3339 -0.4536  0.2080
   80MOL0     H10772   8.686   6.179   7.040 -2.4794 -0.2031  2.6917
   80MOL0     H10773   8.863   6.118   7.065 -0.0910 -3.5587 -0.3996
   80MOL0     H10774   8.742   5.890   7.110  2.4906 -0.7365 -0.8627
   80MOL0     H10775   8.810   5.941   6.969  2.2292 -1.8138  4.7910
   80MOL0     H10776   8.517   5.968   7.061 -0.5864  0.1537 -0.7440
   80MOL0     H10777   8.576   6.042   6.921 -1.0556  1.3386  3.4016
   80MOL0     H10778   8.655   5.809   6.823  0.4979 -0.9275  0.0831
   80MOL0     H10779   8.480   5.824   6.851  0.5650 -3.6420 -2.1383
   80MOL0     H10780   8.487   5.691   7.037 -0.1387  2.5539 -0.6850
   80MOL0     H10781   8.661   5.696   7.048  0.8021  0.9216 -1.1120
   80MOL0     H10782   8.439   6.348   7.456  1.8943  0.4693 -2.9861
   80MOL0     H10783   8.382   6.408   7.662 -0.5043  0.4681  2.5006
   80MOL0     H10784   8.533   6.779   8.141 -1.0058  2.7570  1.4722
   80MOL0     H10785   8.378   6.804   8.321  0.0200 -2.5105  0.7176
   80MOL0     H10786   7.739   6.349   7.781  1.4015  2.0510 -0.4151
   80MOL0     H10787   7.729   6.582   7.863 -2.4493  0.0361  0.4778
   80MOL0     H10788   7.868   6.884   8.194  0.5859  0.1451  1.1493
   80MOL0     H10789   7.849   7.118   8.294 -1.3160  2.7614  0.6059
   80MOL0     H10790   7.752   7.293   8.473 -3.9129 -1.7795  0.9373
   80MOL0     H10791   7.802   7.308   8.301  3.1588 -0.3229  4.3809
   80MOL0     H10792   7.617   7.492   8.459  2.6974  3.0774  0.6054
   80MOL0     H10793   7.600   7.473   8.284  2.1606 -3.0638 -1.8543
   80MOL0     H10794   7.747   7.659   8.321  2.1158  0.2695 -3.8669
   80MOL0     H10795   7.852   7.540   8.265 -1.8806  1.7766 -1.3706
   80MOL0     H10796   7.945   7.482   8.483  1.4411  0.5292 -2.7287
   80MOL0     H10797   7.809   7.572   8.561 -0.7491 -1.0831  0.4212
   80MOL0     H10798   8.037   7.896   8.515 -1.0348 -0.1238  0.5406
   80MOL0     H10799   7.425   7.114   8.218 -0.7032 -0.8524 -0.2581
   80MOL0     H10800   7.444   6.909   8.094 -1.5244  0.6454  0.8245
   81MOL0     O10801   9.231  11.247   4.307 -0.5330 -0.9717 -1.5817
   81MOL0     C10802   9.122  11.201   4.334 -0.6639 -0.7903  0.1794
   81MOL0     O10803   9.001  11.252   4.287  0.6147  1.1678  0.7913
   81MOL0     C10804   9.020  11.377   4.230 -0.6094 -0.3769 -0.7549
   81MOL0     C10805   9.038  11.496   4.294 -0.4015 -0.1788 -0.4146
   81MOL0     C10806   9.056  11.617   4.221 -0.5062 -0.1107 -0.3094
   81MOL0     C10807   9.043  11.615   4.087  0.0646  0.4042  0.7610
   81MOL0     O10808   9.046  11.724   4.000 -0.5508 -0.9687  0.6725
   81MOL0     C10809   9.051  11.856   4.051 -0.6513 -0.5216  0.0446
   81MOL0     C10810   9.059  11.962   3.952 -0.3028 -0.0507  0.9944
   81MOL0     C10811   8.922  11.996   3.886  0.3684  0.1961  0.8289
   81MOL0     C10812   8.926  11.943   3.735 -0.1301 -0.7709 -0.2605
   81MOL0     C10813   8.924  11.787   3.728 -0.2728  0.2557 -0.0887
   81MOL0     C10814   8.898  11.723   3.584  1.6837 -0.2783 -0.3576
   81MOL0     C10815   8.759  11.659   3.586  0.9040 -0.0251 -0.3173
   81MOL0     C10816   8.761  11.537   3.683  0.8773 -0.1678  0.5528
   81MOL0     N10817   8.835  11.425   3.621  0.7634 -0.8679  0.9729
   81MOL0     C10818   8.795  11.363   3.504 -0.8541 -0.3120 -0.1518
   81MOL0     C10819   8.872  11.254   3.482 -0.4069  0.0614  0.4201
   81MOL0     C10820   8.870  11.141   3.369  0.5650 -0.3752  0.2080
   81MOL0     C10821   9.013  11.101   3.314 -1.0153 -0.8255  0.3396
   81MOL0     C10822   9.072  11.216   3.215 -1.0121 -0.0764  0.6665
   81MOL0     C10823   9.131  11.332   3.285  0.0561  0.7758  0.4548
   81MOL0     O10824   9.156  11.436   3.193  0.1980  0.7307  0.0805
   81MOL0     C10825   9.203  11.554   3.254  0.2505 -0.2155  0.3918
   81MOL0     C10826   9.202  11.663   3.164  0.4421 -0.3924 -0.0319
   81MOL0     C10827   9.226  11.791   3.218 -0.0597 -0.3670 -0.8774
   81MOL0     C10828   9.234  11.904   3.114  0.0069 -0.1513  0.0601
   81MOL0     C10829   9.231  11.811   3.364 -0.8763 -0.6809 -0.1271
   81MOL0     C10830   9.265  11.941   3.426 -0.3284 -0.0294  0.3835
   81MOL0     O10831   9.250  12.051   3.344 -0.1195  0.9695 -0.4030
   81MOL0     C10832   9.242  12.176   3.409 -0.6671 -0.4722 -0.3863
   81MOL0     C10833   9.135  12.209   3.474  0.4504 -0.2202 -0.7269
   81MOL0     C10834   9.136  12.336   3.541  1.0089 -0.2815  0.4783
   81MOL0     C10835   9.235  12.431   3.508  0.4419  0.1024 -0.1798
   81MOL0     O10836   9.221  12.564   3.545  0.1595  0.1078  0.0284
   81MOL0     C10837   9.101  12.631   3.504  0.3920  0.0373  0.3402
   81MOL0     C10838   9.101  12.779   3.551  0.1983 -0.4282  0.0078
   81MOL0     C10839   9.046  12.875   3.447  0.1417 -0.3972 -0.4249
   81MOL0     C10840   9.009  13.011   3.498 -0.7176 -0.3412  0.2413
   81MOL0     C10841   8.951  13.100   3.385 -0.7481  0.0175 -0.6731
   81MOL0     C10842   8.794  13.065   3.358 -0.2231 -0.0991  0.5816
   81MOL0     C10843   8.731  13.177   3.272  0.1804 -0.0676 -0.0476
   81MOL0     C10844   8.580  13.160   3.257 -0.0865  0.3011  0.5727
   81MOL0    Cl10845   8.488  13.191   3.407  0.3696  0.4726 -0.1513
   81MOL0     C10846   9.349  12.386   3.448 -0.1188  0.3901 -0.3830
   81MOL0     C10847   9.357  12.259   3.403 -0.4306 -0.1555 -0.3159
   81MOL0     O10848   9.303  11.937   3.542  1.0103 -0.1892  0.0445
   81MOL0     C10849   9.231  11.697   3.438  0.2996 -0.1664 -0.3361
   81MOL0     C10850   9.221  11.567   3.389  0.6398  0.5330 -0.7437
   81MOL0     N10851   8.962  11.253   3.584  0.5746  0.1136 -0.4167
   81MOL0     N10852   8.937  11.345   3.667  0.4778 -0.6179 -0.4499
   81MOL0     C10853   9.019  11.487   4.028 -0.0717 -0.2132 -0.3762
   81MOL0     C10854   8.999  11.373   4.100  0.3243 -0.2945 -0.0206
   81MOL0     C10855   9.109  11.068   4.403  0.2591  1.2805  0.0856
   81MOL0     C10856   8.999  11.038   4.488 -0.3751  0.1507  0.3660
   81MOL0     C10857   9.002  10.923   4.573  0.6626 -0.9996  0.6979
   81MOL0     C10858   9.111  10.842   4.582  0.6885 -0.6333 -0.3575
   81MOL0     O10859   9.131  10.723   4.657  0.8523  0.2199  0.6674
   81MOL0     C10860   9.039  10.679   4.759 -0.7722 -0.3180 -0.7821
   81MOL0     C10861   9.063  10.756   4.886 -0.1372  0.3066  0.0259
   81MOL0     C10862   9.223  10.738   4.917  0.0819 -0.0810 -0.5510
   81MOL0     C10863   9.267  10.609   4.997  0.8871 -0.0535  0.5577
   81MOL0     C10864   9.414  10.592   5.001  0.1051  0.0597 -0.2529
   81MOL0     C10865   9.537  10.587   5.004  0.0573  0.9927 -0.0199
   81MOL0     C10866   9.221  10.875   4.500 -0.4028 -0.1070 -0.6745
   81MOL0     C10867   9.228  10.981   4.416 -0.3755 -0.2546  0.9562
   81MOL0     H10868   9.027  11.516   4.401 -1.9050  0.1979 -0.6142
   81MOL0     H10869   9.050  11.710   4.277  0.6805  0.6427 -1.3569
   81MOL0     H10870   8.960  11.876   4.107  0.2355  0.6980  1.1223
   81MOL0     H10871   9.138  11.861   4.118 -0.7261 -1.2847  0.2037
   81MOL0     H10872   9.109  12.051   3.992  0.8955  0.5612 -1.6436
   81MOL0     H10873   9.133  11.931   3.878  1.1355  2.2157  1.3592
   81MOL0     H10874   8.835  11.955   3.937 -0.2283  2.6367  1.9073
   81MOL0     H10875   8.922  12.105   3.888  1.9646  0.2470  0.1367
   81MOL0     H10876   8.830  11.972   3.692 -1.4955 -2.1468  1.6828
   81MOL0     H10877   9.000  11.985   3.667 -2.6495  0.1753 -2.5687
   81MOL0     H10878   9.022  11.746   3.757  0.9249 -1.3156 -5.3070
   81MOL0     H10879   8.850  11.759   3.804  0.6464 -0.2839  0.6367
   81MOL0     H10880   8.902  11.791   3.498 -1.8185  0.4582 -0.0529
   81MOL0     H10881   8.973  11.644   3.575  3.4761  1.1760  0.9161
   81MOL0     H10882   8.679  11.728   3.613  0.3344 -0.4377 -0.9411
   81MOL0     H10883   8.753  11.617   3.486  0.0208 -0.8356  0.0658
   81MOL0     H10884   8.657  11.508   3.697  1.3919 -1.5163  1.7964
   81MOL0     H10885   8.805  11.558   3.781  2.1845  1.1120 -0.2653
   81MOL0     H10886   8.706  11.362   3.442 -0.1034 -2.4795 -1.3412
   81MOL0     H10887   8.815  11.055   3.408 -1.1822  0.5537 -0.1109
   81MOL0     H10888   8.811  11.185   3.288  0.3558 -2.3295 -0.7442
   81MOL0     H10889   9.018  11.003   3.266 -3.1939  0.1332 -2.1252
   81MOL0     H10890   9.069  11.089   3.407 -1.6391  2.6587  1.2987
   81MOL0     H10891   8.989  11.260   3.159 -2.6242 -0.0130  2.9467
   81MOL0     H10892   9.156  11.177   3.157 -1.5262 -1.5340  0.8577
   81MOL0     H10893   9.227  11.305   3.329  0.6747  0.8741 -0.8034
   81MOL0     H10894   9.060  11.369   3.361 -0.8520 -1.3286  0.6976
   81MOL0     H10895   9.189  11.658   3.057 -1.1390  3.3030 -0.1498
   81MOL0     H10896   9.325  11.963   3.116 -1.2075  2.0768 -2.9044
   81MOL0     H10897   9.235  11.866   3.012  1.2265  1.4695 -0.5713
   81MOL0     H10898   9.145  11.963   3.138 -0.4731  0.1542 -2.2677
   81MOL0     H10899   9.044  12.151   3.473 -0.9483  1.7985  0.4038
   81MOL0     H10900   9.060  12.375   3.607  1.8114 -0.3522  1.4769
   81MOL0     H10901   9.077  12.621   3.398  0.5509 -0.7858  0.3747
   81MOL0     H10902   9.010  12.588   3.549 -2.0501  2.2986 -2.0480
   81MOL0     H10903   9.028  12.787   3.632  1.1762  3.3605  0.7357
   81MOL0     H10904   9.199  12.808   3.591 -0.0615 -2.3085  2.2211
   81MOL0     H10905   8.958  12.843   3.391  0.5348 -1.5730 -0.4130
   81MOL0     H10906   9.129  12.883   3.375  1.0278 -1.6065  0.4206
   81MOL0     H10907   8.937  13.008   3.580 -2.7343  0.4764 -1.3981
   81MOL0     H10908   9.097  13.058   3.542  0.5323  0.1731 -2.5496
   81MOL0     H10909   9.001  13.066   3.294 -0.2051 -6.0165  1.4014
   81MOL0     H10910   8.958  13.203   3.419 -1.7859 -0.9267  2.8655
   81MOL0     H10911   8.793  12.976   3.294  0.5707  0.9314 -0.9075
   81MOL0     H10912   8.742  13.066   3.454  1.1073  1.8285  1.3411
   81MOL0     H10913   8.774  13.191   3.172 -0.9079 -0.2420 -0.5479
   81MOL0     H10914   8.740  13.263   3.338 -4.0337  0.1550  0.4760
   81MOL0     H10915   8.546  13.060   3.229  3.2286 -0.6573 -0.3876
   81MOL0     H10916   8.549  13.236   3.184  0.8072  0.0680 -0.0609
   81MOL0     H10917   9.428  12.461   3.448 -0.4909  0.8694  2.0016
   81MOL0     H10918   9.448  12.229   3.352 -1.0191  0.4295 -1.7668
   81MOL0     H10919   9.238  11.699   3.547 -1.6201 -1.5313 -0.1239
   81MOL0     H10920   9.221  11.488   3.463  0.4195  0.2161 -1.0812
   81MOL0     H10921   9.005  11.503   3.921 -2.0983  1.7174  0.1105
   81MOL0     H10922   8.983  11.283   4.043 -2.6316 -1.2498  2.0518
   81MOL0     H10923   8.908  11.097   4.485 -1.5353 -1.5469  0.5270
   81MOL0     H10924   8.924  10.900   4.644 -0.3317 -1.7549 -0.5810
   81MOL0     H10925   8.938  10.679   4.717 -0.6201 -2.2771 -1.2467
   81MOL0     H10926   9.064  10.576   4.786  1.0818 -0.5579 -3.1290
   81MOL0     H10927   9.001  10.727   4.971 -2.1658  0.1698 -1.4251
   81MOL0     H10928   9.047  10.862   4.867 -3.1397 -0.1240 -0.2786
   81MOL0     H10929   9.263  10.822   4.975 -1.3032  0.6186 -0.5602
   81MOL0     H10930   9.275  10.735   4.821 -0.3392  3.1056 -0.9686
   81MOL0     H10931   9.231  10.511   4.963 -2.5865  0.3380  2.6907
   81MOL0     H10932   9.225  10.613   5.098 -0.0426 -2.1996  0.3072
   81MOL0     H10933   9.643  10.589   5.023 -0.2292  0.4345  1.7579
   81MOL0     H10934   9.310  10.814   4.511  0.5089  1.3962  0.9153
   81MOL0     H10935   9.322  11.005   4.367 -0.5641 -1.5024 -0.0409
   82MOL0     O10936   9.598   7.775   3.682  0.4734  0.1443 -0.0172
   82MOL0     C10937   9.624   7.657   3.709  0.0504  0.9987 -0.1995
   82MOL0     O10938   9.735   7.624   3.785  0.5095  0.0134  0.2538
   82MOL0     C10939   9.815   7.728   3.822  0.3223 -0.0404 -0.5215
   82MOL0     C10940   9.900   7.774   3.725 -0.1915 -0.0438 -0.7716
   82MOL0     C10941   9.991   7.874   3.765 -0.7580 -0.3389  0.1520
   82MOL0     C10942   9.982   7.933   3.897 -0.0675 -0.2342 -0.6561
   82MOL0     O10943  10.071   8.025   3.947 -0.1666 -0.1754 -0.7609
   82MOL0     C10944  10.207   7.992   3.927  0.7810  0.0983 -0.1226
   82MOL0     C10945  10.293   8.054   4.021 -0.8221  0.5261  0.0127
   82MOL0     C10946  10.246   8.005   4.163  1.3263 -0.0231  0.1181
   82MOL0     C10947  10.329   8.063   4.272  0.6532  0.0362  0.8757
   82MOL0     C10948  10.278   8.039   4.410  0.5636 -0.5591 -0.5235
   82MOL0     C10949  10.284   7.893   4.454  0.0076  0.1689  0.2341
   82MOL0     C10950  10.257   7.890   4.595 -0.8879  0.0063  0.4777
   82MOL0     C10951  10.325   7.758   4.658  0.3659 -1.1002  0.5985
   82MOL0     N10952  10.302   7.758   4.803 -0.3165  0.4275 -0.0716
   82MOL0     C10953  10.205   7.823   4.878 -0.4124 -0.5029  0.6261
   82MOL0     C10954  10.200   7.778   5.003 -0.3906  0.2221 -0.0732
   82MOL0     C10955  10.116   7.819   5.128 -0.3648  0.4569  0.1167
   82MOL0     C10956  10.068   7.962   5.133 -0.7974  0.0712 -0.4187
   82MOL0     C10957  10.125   8.040   5.262  0.6475 -0.9609  0.1417
   82MOL0     C10958  10.076   8.183   5.243 -0.8388 -1.5272  0.1433
   82MOL0     O10959  10.136   8.259   5.133  0.5768  0.8112 -0.0547
   82MOL0     C10960  10.146   8.396   5.148 -0.1360  0.0894 -0.7613
   82MOL0     C10961  10.265   8.459   5.155 -1.3016 -0.8438  0.4275
   82MOL0     C10962  10.291   8.598   5.163  0.1140 -0.3389 -0.8273
   82MOL0     C10963  10.445   8.625   5.185 -0.5952  0.9090  0.1794
   82MOL0     C10964  10.184   8.689   5.163 -0.8528 -0.4321 -0.0248
   82MOL0     C10965  10.193   8.832   5.139  0.6317 -0.0573 -0.7099
   82MOL0     O10966  10.320   8.888   5.110  0.2272 -0.9108  0.1604
   82MOL0     C10967  10.308   9.021   5.068 -0.0983 -0.3088  0.6444
   82MOL0     C10968  10.282   9.057   4.934 -0.4235  1.0981 -0.4693
   82MOL0     C10969  10.271   9.190   4.897 -0.1912 -0.3192  0.2295
   82MOL0     C10970  10.304   9.298   4.981 -0.4345  0.2357  0.3784
   82MOL0     O10971  10.291   9.433   4.935  0.1008  0.4365 -1.8002
   82MOL0     C10972  10.182   9.481   4.856  1.0330 -0.3408  0.4294
   82MOL0     C10973  10.209   9.625   4.809 -0.7050 -0.2577 -0.8561
   82MOL0     C10974  10.138   9.658   4.677 -0.6710 -0.4381 -0.2308
   82MOL0     C10975   9.990   9.635   4.681  0.6023 -0.5486 -0.5696
   82MOL0     C10976   9.892   9.696   4.580 -0.0737 -0.9652 -0.0660
   82MOL0     C10977   9.844   9.842   4.618 -0.5421 -0.2892 -0.4604
   82MOL0     C10978   9.743   9.897   4.517 -1.2817  0.3609  0.1333
   82MOL0     C10979   9.664  10.024   4.564  0.2573  0.0943  0.1289
   82MOL0    Cl10980   9.540  10.068   4.441  0.3665 -0.3365 -0.2006
   82MOL0     C10981  10.350   9.262   5.104  0.2187  0.0464  0.3782
   82MOL0     C10982  10.349   9.128   5.149  0.2860  0.0151  0.5681
   82MOL0     O10983  10.084   8.899   5.133 -0.7892  1.4670 -0.4651
   82MOL0     C10984  10.053   8.629   5.162 -0.5650  1.3053  0.0711
   82MOL0     C10985  10.042   8.488   5.161  0.2531  1.2166 -0.1357
   82MOL0     N10986  10.289   7.669   5.000 -0.1023 -0.0572 -0.8346
   82MOL0     N10987  10.349   7.654   4.885 -0.5015  0.1173  0.6997
   82MOL0     C10988   9.882   7.888   3.990 -0.1101 -0.8693  0.1666
   82MOL0     C10989   9.807   7.778   3.949  0.6129 -0.6030 -0.4208
   82MOL0     C10990   9.520   7.555   3.669 -0.5989 -0.2236 -0.0583
   82MOL0     C10991   9.423   7.585   3.574  0.4879  0.4885  0.4328
   82MOL0     C10992   9.324   7.496   3.531 -0.8832 -0.6643 -0.7396
   82MOL0     C10993   9.308   7.384   3.607 -1.0571 -0.5907  0.1190
   82MOL0     O10994   9.213   7.303   3.570  0.3660 -0.0604  0.0948
   82MOL0     C10995   9.084   7.312   3.631 -0.1008 -0.6090 -0.7229
   82MOL0     C10996   9.012   7.173   3.625  0.2391 -0.6213  0.2511
   82MOL0     C10997   8.996   7.110   3.479 -0.6145  0.1856 -0.4788
   82MOL0     C10998   8.871   7.026   3.465 -0.0256  0.0645 -0.1022
   82MOL0     C10999   8.736   7.090   3.458 -0.0238 -0.1064  0.8419
   82MOL0     C11000   8.623   7.134   3.454 -0.5750 -0.1599 -1.4317
   82MOL0     C11001   9.404   7.342   3.704  0.4988 -0.6626  0.8498
   82MOL0     C11002   9.506   7.431   3.742 -0.5623 -0.0164  0.4962
   82MOL0     H11003   9.888   7.736   3.625  0.9733 -1.7694 -0.3032
   82MOL0     H11004  10.072   7.904   3.700  0.8976 -0.0957  2.2159
   82MOL0     H11005  10.219   7.884   3.943  1.0077  0.6021  4.1289
   82MOL0     H11006  10.239   8.015   3.825  0.9239  5.1375  0.8449
   82MOL0     H11007  10.400   8.029   4.019 -0.1074  3.3165  0.1240
   82MOL0     H11008  10.277   8.161   4.011 -1.5250  0.3049 -1.6216
   82MOL0     H11009  10.143   8.039   4.182  1.1356 -0.3884 -0.2372
   82MOL0     H11010  10.257   7.898   4.176  0.5086 -0.2740 -1.0202
   82MOL0     H11011  10.416   7.998   4.264  0.8582  0.3312  0.6992
   82MOL0     H11012  10.347   8.169   4.254  1.8330  0.1891  2.7298
   82MOL0     H11013  10.339   8.097   4.479 -0.9817 -0.5556  0.9169
   82MOL0     H11014  10.179   8.084   4.424  0.8108  0.0461 -0.7191
   82MOL0     H11015  10.204   7.838   4.404  1.7805  1.0316 -3.9746
   82MOL0     H11016  10.384   7.857   4.430 -1.3058 -2.8228 -1.3314
   82MOL0     H11017  10.301   7.974   4.648  2.0969 -0.5831 -0.8723
   82MOL0     H11018  10.149   7.878   4.607 -1.6284 -0.0510 -4.1774
   82MOL0     H11019  10.432   7.758   4.633 -0.0492 -1.3994 -1.3394
   82MOL0     H11020  10.268   7.676   4.614 -0.1871 -0.7446  0.6449
   82MOL0     H11021  10.147   7.906   4.840  1.9467  0.9029 -0.1588
   82MOL0     H11022  10.030   7.751   5.131 -0.6468  0.6807 -1.6819
   82MOL0     H11023  10.182   7.797   5.212 -1.0143 -0.7210  0.3437
   82MOL0     H11024   9.959   7.972   5.133 -0.7385  1.0723  1.2750
   82MOL0     H11025  10.097   8.015   5.043 -3.2810  0.7675 -0.8879
   82MOL0     H11026  10.234   8.046   5.255  0.5359  2.1523 -0.4047
   82MOL0     H11027  10.088   7.992   5.352  0.0464 -0.0611  0.3943
   82MOL0     H11028  10.110   8.234   5.333 -2.6233  1.1741 -0.5781
   82MOL0     H11029   9.968   8.182   5.227 -1.2526  3.1104  1.2081
   82MOL0     H11030  10.348   8.391   5.166  1.4050  1.7581 -1.9532
   82MOL0     H11031  10.469   8.550   5.260 -4.9652  1.0844  2.0517
   82MOL0     H11032  10.507   8.618   5.095  0.4651  0.7221  0.9180
   82MOL0     H11033  10.460   8.725   5.228 -0.2040  0.4259  1.1744
   82MOL0     H11034  10.258   8.976   4.866  1.6559  0.5515 -0.6005
   82MOL0     H11035  10.232   9.208   4.798  0.5750 -0.6884 -0.1545
   82MOL0     H11036  10.182   9.418   4.766  2.8588 -2.6324  1.9337
   82MOL0     H11037  10.088   9.472   4.911 -0.0873  2.6724 -0.7347
   82MOL0     H11038  10.198   9.685   4.900  2.9481 -1.4234  0.5910
   82MOL0     H11039  10.314   9.645   4.784 -1.4495  1.6404 -2.7492
   82MOL0     H11040  10.179   9.588   4.604 -0.4610 -0.4865 -0.0672
   82MOL0     H11041  10.161   9.758   4.640  0.9432 -2.0099 -4.0184
   82MOL0     H11042   9.963   9.529   4.682 -2.1578  0.0567 -2.1700
   82MOL0     H11043   9.964   9.661   4.784  1.2658  1.8041 -0.9498
   82MOL0     H11044   9.810   9.624   4.584 -0.5284 -0.4151  0.7905
   82MOL0     H11045   9.945   9.703   4.485  2.7995  3.1116  1.5132
   82MOL0     H11046   9.809   9.849   4.722  3.0815  2.9074  0.7917
   82MOL0     H11047   9.936   9.902   4.618 -1.7331  1.6325  0.5298
   82MOL0     H11048   9.665   9.823   4.497 -1.1542  0.7036 -1.9164
   82MOL0     H11049   9.796   9.912   4.422 -1.2786 -0.5962 -0.0225
   82MOL0     H11050   9.725  10.114   4.575 -0.4384  0.3469  2.4608
   82MOL0     H11051   9.611   9.994   4.655 -0.7135  0.5915 -0.2532
   82MOL0     H11052  10.399   9.340   5.161 -1.4678  1.4575 -0.0190
   82MOL0     H11053  10.395   9.096   5.242 -1.8732 -4.8199  0.3081
   82MOL0     H11054   9.962   8.688   5.168 -1.8754 -0.5851 -0.5798
   82MOL0     H11055   9.941   8.448   5.158 -0.0490  2.0096 -1.8109
   82MOL0     H11056   9.874   7.925   4.091  0.4303  1.9667 -0.7593
   82MOL0     H11057   9.735   7.743   4.022 -0.4552  0.7623 -0.7694
   82MOL0     H11058   9.425   7.685   3.531 -1.0548  0.4721  0.2598
   82MOL0     H11059   9.265   7.517   3.442  0.7745 -0.1784 -1.7814
   82MOL0     H11060   9.090   7.346   3.735  1.0736 -0.1060 -0.9373
   82MOL0     H11061   9.022   7.378   3.570 -3.6760 -3.4696 -0.4743
   82MOL0     H11062   8.907   7.182   3.655  0.0281 -1.6853 -0.1056
   82MOL0     H11063   9.066   7.100   3.686  0.0569 -1.2612 -0.3461
   82MOL0     H11064   9.080   7.047   3.448 -0.9980  0.0975 -1.3440
   82MOL0     H11065   9.002   7.187   3.401 -1.9340 -0.8516 -1.6405
   82MOL0     H11066   8.864   6.953   3.547  1.4210 -1.7514 -1.4871
   82MOL0     H11067   8.886   6.965   3.375 -1.2161  0.5572 -0.6523
   82MOL0     H11068   8.517   7.153   3.459 -0.9696 -2.2612 -0.4682
   82MOL0     H11069   9.381   7.246   3.749 -3.0210  0.5933  2.0630
   82MOL0     H11070   9.591   7.408   3.806 -0.1712 -0.3647 -0.1389
   83MOL0     O11071   4.059   3.670   7.345  0.1574  0.3713 -0.0869
   83MOL0     C11072   4.000   3.733   7.431  0.2676 -0.0720 -0.3022
   83MOL0     O11073   3.873   3.701   7.476  0.2905  0.1248 -0.6539
   83MOL0     C11074   3.808   3.589   7.436 -0.6912  0.1739  0.5517
   83MOL0     C11075   3.672   3.590   7.474  0.1836 -0.8177  1.3995
   83MOL0     C11076   3.588   3.485   7.461 -0.4221  0.9678  0.3867
   83MOL0     C11077   3.631   3.368   7.400  0.5401 -0.1687  0.2609
   83MOL0     O11078   3.536   3.273   7.370  0.1237 -0.0555  0.3935
   83MOL0     C11079   3.545   3.171   7.262 -0.1278  0.2819 -1.1581
   83MOL0     C11080   3.433   3.067   7.283  0.8333  0.5145  0.7781
   83MOL0     C11081   3.480   2.928   7.206 -0.4589 -0.4940 -0.3117
   83MOL0     C11082   3.389   2.813   7.248 -0.6814 -1.3421  0.1874
   83MOL0     C11083   3.436   2.765   7.388  0.2329  0.4161 -0.2213
   83MOL0     C11084   3.329   2.658   7.434 -0.7365  0.3139  0.3065
   83MOL0     C11085   3.329   2.524   7.358  1.5171 -0.0385 -1.2124
   83MOL0     C11086   3.301   2.405   7.453  0.8651  0.7926 -0.3168
   83MOL0     N11087   3.257   2.287   7.380  0.1900  0.2099 -0.2981
   83MOL0     C11088   3.341   2.210   7.310  0.3523  0.5729  0.3597
   83MOL0     C11089   3.259   2.115   7.244 -0.7100 -0.0548  0.2506
   83MOL0     C11090   3.307   2.015   7.154 -0.0966  0.1133  0.2406
   83MOL0     C11091   3.227   2.019   7.017 -0.3831 -0.0314 -0.4255
   83MOL0     C11092   3.257   2.142   6.919 -0.8940 -0.1870  0.7789
   83MOL0     C11093   3.400   2.153   6.872  0.3636 -0.9548 -0.6066
   83MOL0     O11094   3.459   2.023   6.877 -0.1449  0.0250  1.3589
   83MOL0     C11095   3.549   1.992   6.782 -0.7065 -0.7583 -0.5615
   83MOL0     C11096   3.592   2.068   6.678 -0.5321 -0.8675 -0.0683
   83MOL0     C11097   3.681   2.017   6.579 -0.1083 -0.3712  0.0818
   83MOL0     C11098   3.703   2.112   6.473  0.1282 -0.9908  0.0548
   83MOL0     C11099   3.731   1.891   6.596  0.0210 -1.0890  0.3390
   83MOL0     C11100   3.822   1.827   6.495  0.9259  0.0172  0.7897
   83MOL0     O11101   3.796   1.699   6.468  0.6385  0.5518  0.2471
   83MOL0     C11102   3.862   1.654   6.353  0.2264 -0.1021 -0.5979
   83MOL0     C11103   3.999   1.625   6.364 -0.0993 -0.3071  0.3282
   83MOL0     C11104   4.071   1.589   6.252  0.7671  0.1592 -0.6373
   83MOL0     C11105   4.008   1.575   6.129  0.4458  0.4600  0.3536
   83MOL0     O11106   4.082   1.515   6.030 -0.1484  0.5071  0.5284
   83MOL0     C11107   4.020   1.423   5.942  0.2178  0.0285  0.2083
   83MOL0     C11108   4.119   1.322   5.896  0.0209  0.0063 -0.0414
   83MOL0     C11109   4.073   1.206   5.804  0.5675 -0.5545 -0.9428
   83MOL0     C11110   4.031   1.260   5.669  0.6216  0.5679 -0.2455
   83MOL0     C11111   3.987   1.135   5.590 -0.2777  0.3615  0.9848
   83MOL0     C11112   4.029   1.139   5.451  0.0719 -0.7455 -0.4381
   83MOL0     C11113   4.012   0.998   5.381 -0.2470 -0.0676  0.1810
   83MOL0     C11114   3.866   0.966   5.353  0.3081 -0.6953  0.0938
   83MOL0    Cl11115   3.844   0.824   5.266 -0.0253  0.4634 -0.2067
   83MOL0     C11116   3.879   1.615   6.114 -0.4935  0.8971  0.4128
   83MOL0     C11117   3.809   1.659   6.225  1.1351  0.5293  0.8926
   83MOL0     O11118   3.904   1.899   6.438  0.4825  0.4279  0.4980
   83MOL0     C11119   3.688   1.809   6.703  0.9971  0.1244 -0.8629
   83MOL0     C11120   3.594   1.861   6.789  0.6952 -0.1425 -0.6406
   83MOL0     N11121   3.127   2.136   7.292 -0.5745 -0.6926  0.3839
   83MOL0     N11122   3.137   2.230   7.378  0.6847 -0.2744  0.2071
   83MOL0     C11123   3.769   3.358   7.359  0.5430 -0.2794  0.2526
   83MOL0     C11124   3.857   3.469   7.384  0.0929 -0.3012  0.3250
   83MOL0     C11125   4.070   3.849   7.490 -0.2258  0.4049 -0.0676
   83MOL0     C11126   3.995   3.958   7.540  0.7000 -0.2571 -0.5771
   83MOL0     C11127   4.057   4.065   7.592 -0.3189 -0.6945  0.2590
   83MOL0     C11128   4.195   4.072   7.619  0.1629  0.6856  0.6311
   83MOL0     O11129   4.229   4.177   7.692 -0.7100 -0.3769 -1.1625
   83MOL0     C11130   4.354   4.167   7.762  0.4604 -0.0439 -0.8428
   83MOL0     C11131   4.392   4.301   7.837  0.5541  0.3466  0.0098
   83MOL0     C11132   4.318   4.334   7.966  0.3467  0.5789  0.6953
   83MOL0     C11133   4.333   4.473   8.027 -0.0218  0.2044  0.4484
   83MOL0     C11134   4.450   4.548   7.982 -0.3056 -0.6936 -0.0910
   83MOL0     C11135   4.548   4.606   7.961 -0.3374 -0.3056 -0.4292
   83MOL0     C11136   4.272   3.980   7.564 -0.8640  1.5275  1.1183
   83MOL0     C11137   4.212   3.865   7.510 -0.6060  0.1695 -0.1444
   83MOL0     H11138   3.633   3.678   7.525 -2.8720 -2.7508  2.7451
   83MOL0     H11139   3.484   3.502   7.486 -0.9114  0.2973 -1.0310
   83MOL0     H11140   3.535   3.210   7.160 -1.6103 -0.0678 -1.1736
   83MOL0     H11141   3.647   3.132   7.265 -1.5717 -4.0253 -0.4364
   83MOL0     H11142   3.423   3.049   7.390  3.2460  1.1968  1.1847
   83MOL0     H11143   3.337   3.095   7.239 -1.1962 -1.8256  3.3459
   83MOL0     H11144   3.475   2.950   7.099  0.0648 -0.3716 -0.3160
   83MOL0     H11145   3.584   2.901   7.226 -0.7403 -0.2987  1.6149
   83MOL0     H11146   3.284   2.841   7.256  0.1970  2.9954 -0.9118
   83MOL0     H11147   3.403   2.734   7.174  3.1583  1.8037 -2.9885
   83MOL0     H11148   3.532   2.715   7.375 -0.7725 -1.4919 -0.5540
   83MOL0     H11149   3.439   2.849   7.458 -3.9817 -0.4872  1.3051
   83MOL0     H11150   3.368   2.635   7.533 -1.9960 -0.7859  0.5596
   83MOL0     H11151   3.228   2.698   7.445  0.4110  3.3995  0.6081
   83MOL0     H11152   3.273   2.531   7.264  0.6547 -0.3919 -0.7265
   83MOL0     H11153   3.429   2.511   7.316  1.3388  1.6999 -2.2946
   83MOL0     H11154   3.224   2.442   7.521  0.8075 -0.1514  0.1526
   83MOL0     H11155   3.392   2.390   7.512  0.7657 -4.1126 -0.9274
   83MOL0     H11156   3.448   2.227   7.302 -0.1902  4.3691 -0.4616
   83MOL0     H11157   3.412   2.037   7.129 -0.2585  2.1899  1.1332
   83MOL0     H11158   3.305   1.915   7.197 -0.6268  0.2846  0.6196
   83MOL0     H11159   3.123   2.013   7.048 -0.0408 -0.2158  0.7278
   83MOL0     H11160   3.240   1.921   6.969 -1.2357 -0.4907  0.2474
   83MOL0     H11161   3.226   2.234   6.971 -0.8619  1.0458 -1.3009
   83MOL0     H11162   3.192   2.133   6.831 -1.1485  1.8172  0.7207
   83MOL0     H11163   3.448   2.223   6.940 -0.3589  2.4051 -3.2976
   83MOL0     H11164   3.396   2.204   6.775  0.6558  0.9641  0.3460
   83MOL0     H11165   3.566   2.172   6.665  0.7641 -0.4905  0.2205
   83MOL0     H11166   3.785   2.087   6.404 -0.8407  0.2436 -1.6393
   83MOL0     H11167   3.612   2.105   6.412 -2.3324 -1.7158  3.5388
   83MOL0     H11168   3.737   2.208   6.512 -1.7899 -0.1386 -0.2482
   83MOL0     H11169   4.031   1.637   6.467 -5.3871  2.2002  2.0306
   83MOL0     H11170   4.177   1.574   6.271  1.2205  2.4965 -1.1129
   83MOL0     H11171   3.939   1.375   5.998  0.0915  0.1129  0.0975
   83MOL0     H11172   3.970   1.481   5.864  2.0022  1.9955  0.4242
   83MOL0     H11173   4.201   1.374   5.846 -0.6195  0.2613 -0.8473
   83MOL0     H11174   4.153   1.282   5.992 -2.8637  3.9777  2.9621
   83MOL0     H11175   3.995   1.149   5.855  1.0288 -0.0142  0.4121
   83MOL0     H11176   4.163   1.147   5.784  1.3721  0.2782  0.1105
   83MOL0     H11177   3.957   1.341   5.665 -1.2847 -0.9541  1.9158
   83MOL0     H11178   4.126   1.300   5.631  1.0721  1.0193  1.2970
   83MOL0     H11179   3.878   1.135   5.595 -0.2886 -0.8889  1.0205
   83MOL0     H11180   4.021   1.039   5.630  0.1654  0.9738  2.1029
   83MOL0     H11181   3.976   1.223   5.405  1.0686  0.8217  1.1503
   83MOL0     H11182   4.137   1.156   5.455  0.4093 -2.5386 -0.8811
   83MOL0     H11183   4.050   0.912   5.437 -0.5037  0.1989  0.7730
   83MOL0     H11184   4.071   1.003   5.289  2.1867  2.7225  1.6965
   83MOL0     H11185   3.821   1.052   5.301 -1.6087 -0.4426  2.0146
   83MOL0     H11186   3.815   0.948   5.448  1.7403 -0.8909  0.8436
   83MOL0     H11187   3.832   1.604   6.017  0.5928 -0.3099  0.0005
   83MOL0     H11188   3.705   1.686   6.217  0.9087  0.4688  3.1233
   83MOL0     H11189   3.707   1.703   6.718 -4.2236 -0.7669  1.8641
   83MOL0     H11190   3.554   1.793   6.864  0.3869  1.7782  1.0338
   83MOL0     H11191   3.806   3.269   7.310  1.1129 -0.3282  0.7597
   83MOL0     H11192   3.958   3.445   7.353 -0.3834 -2.2699  0.1534
   83MOL0     H11193   3.888   3.947   7.523  1.1187 -3.8498 -1.6756
   83MOL0     H11194   3.996   4.145   7.631 -1.4965 -1.0420 -0.7784
   83MOL0     H11195   4.344   4.080   7.829  1.4961 -1.1113 -2.0407
   83MOL0     H11196   4.429   4.152   7.685 -0.7067 -0.3459 -1.9502
   83MOL0     H11197   4.379   4.389   7.773 -1.5042 -0.2599 -0.4883
   83MOL0     H11198   4.498   4.292   7.864  0.4959 -1.1383 -0.1736
   83MOL0     H11199   4.350   4.267   8.047 -0.4863 -0.6813 -0.0029
   83MOL0     H11200   4.211   4.315   7.957 -0.2404  3.8897 -0.8790
   83MOL0     H11201   4.328   4.458   8.135  2.5341 -1.3753  0.4100
   83MOL0     H11202   4.245   4.537   8.012 -0.0494  0.0765  0.0452
   83MOL0     H11203   4.632   4.671   7.949 -2.1885  1.9780 -1.7951
   83MOL0     H11204   4.379   3.993   7.566 -0.9820  3.3310 -0.3528
   83MOL0     H11205   4.280   3.789   7.470  0.9092 -0.0059  2.5473
   84MOL0     O11206   5.369   1.845   4.086 -0.5704  0.1980  0.4427
   84MOL0     C11207   5.383   1.870   4.206 -0.3607  0.0368 -0.1130
   84MOL0     O11208   5.410   1.991   4.250  0.2928  0.1886 -0.2844
   84MOL0     C11209   5.523   2.052   4.196  0.4432 -0.4180 -0.9409
   84MOL0     C11210   5.641   2.053   4.272  0.1061  0.5664 -1.3851
   84MOL0     C11211   5.748   2.131   4.232 -0.2428 -1.0329  0.0160
   84MOL0     C11212   5.744   2.205   4.112 -0.5996 -0.3640  0.2947
   84MOL0     O11213   5.859   2.276   4.074 -0.5184  0.1844  0.1171
   84MOL0     C11214   5.907   2.261   3.947  0.5908  0.3051 -0.1492
   84MOL0     C11215   5.916   2.389   3.867 -0.7272 -0.3496  0.3158
   84MOL0     C11216   6.008   2.495   3.944  0.1455  0.1696  0.2307
   84MOL0     C11217   6.023   2.631   3.866 -0.2181  0.2825  0.2927
   84MOL0     C11218   5.927   2.729   3.916  0.4255  0.9997  0.6184
   84MOL0     C11219   5.958   2.866   3.858 -0.6420  0.0929  0.4137
   84MOL0     C11220   5.939   2.889   3.703 -1.1551 -0.3983 -0.2553
   84MOL0     C11221   5.801   2.840   3.657  0.0737 -0.7581 -0.3497
   84MOL0     N11222   5.782   2.839   3.507 -0.5403 -0.5146 -0.3234
   84MOL0     C11223   5.884   2.841   3.408  0.2960 -0.3899  0.0529
   84MOL0     C11224   5.819   2.873   3.293 -0.5313  0.0399 -0.4847
   84MOL0     C11225   5.894   2.912   3.159  0.2721  0.2942 -0.3761
   84MOL0     C11226   5.788   2.969   3.060 -0.0871  1.3872 -0.2178
   84MOL0     C11227   5.866   3.005   2.932  2.0732  0.2743  0.7584
   84MOL0     C11228   5.773   3.019   2.813 -0.0845  1.1962  1.2036
   84MOL0     O11229   5.665   3.113   2.840  0.6798  0.8923  0.3116
   84MOL0     C11230   5.590   3.176   2.735 -0.1038  0.5929  0.1171
   84MOL0     C11231   5.524   3.293   2.755  0.3204  0.4180 -0.3102
   84MOL0     C11232   5.456   3.353   2.644 -0.0450  0.1181 -0.5938
   84MOL0     C11233   5.398   3.478   2.685  0.4138  0.0546  0.6313
   84MOL0     C11234   5.440   3.281   2.518 -0.1137  0.3227  0.1732
   84MOL0     C11235   5.379   3.338   2.397 -0.4873  0.3937 -0.0100
   84MOL0     O11236   5.306   3.453   2.414 -0.4829 -0.3732  1.0680
   84MOL0     C11237   5.232   3.493   2.304  0.0569  0.2915 -0.3986
   84MOL0     C11238   5.200   3.630   2.282  0.5729 -0.0757  0.8614
   84MOL0     C11239   5.114   3.668   2.181 -0.5478  0.0261  0.6548
   84MOL0     C11240   5.058   3.563   2.093  1.0003 -1.2185  0.6440
   84MOL0     O11241   4.985   3.594   1.979 -0.0978 -0.2418  0.4641
   84MOL0     C11242   5.004   3.719   1.920  0.7964  0.1093 -0.6702
   84MOL0     C11243   4.905   3.826   1.978 -0.0501  0.3225  0.5215
   84MOL0     C11244   4.914   3.949   1.890 -0.2995 -0.0297 -0.1778
   84MOL0     C11245   4.826   4.061   1.951  0.5000 -0.4149 -0.6538
   84MOL0     C11246   4.759   4.153   1.841  0.0617 -0.8048  0.0402
   84MOL0     C11247   4.866   4.190   1.744 -0.3951 -0.5218 -0.6457
   84MOL0     C11248   4.801   4.287   1.638  0.3298  0.0673  0.5341
   84MOL0     C11249   4.905   4.330   1.533  0.0039  0.5316  1.4260
   84MOL0    Cl11250   4.840   4.431   1.400 -0.1219 -0.0614  0.3704
   84MOL0     C11251   5.065   3.435   2.134  0.4450  0.5120  0.7784
   84MOL0     C11252   5.154   3.400   2.230  0.5567  0.2430 -0.0969
   84MOL0     O11253   5.424   3.298   2.291 -0.8328 -0.4020 -0.2875
   84MOL0     C11254   5.491   3.145   2.520  0.3728  0.4470 -0.4839
   84MOL0     C11255   5.572   3.101   2.622  0.0705 -0.2490 -0.7180
   84MOL0     N11256   5.680   2.859   3.320  0.8162 -0.9250  0.7504
   84MOL0     N11257   5.664   2.850   3.443  0.0009 -1.3579  0.9786
   84MOL0     C11258   5.629   2.197   4.028 -0.0439 -0.0265 -0.0724
   84MOL0     C11259   5.519   2.126   4.077 -0.2105  0.0239 -0.2476
   84MOL0     C11260   5.330   1.778   4.304  0.4533  0.6124 -0.2525
   84MOL0     C11261   5.301   1.648   4.257  0.1419  0.0590  0.1227
   84MOL0     C11262   5.253   1.551   4.349 -0.9336  1.2688  0.1665
   84MOL0     C11263   5.228   1.580   4.483  1.2117 -0.6599 -0.1866
   84MOL0     O11264   5.169   1.488   4.570  0.5267 -0.6851  0.3642
   84MOL0     C11265   5.071   1.407   4.508  0.0346 -0.1461  0.7076
   84MOL0     C11266   4.945   1.382   4.584  1.4554  0.5247  0.0422
   84MOL0     C11267   4.893   1.516   4.626 -0.4385  0.8241 -0.1782
   84MOL0     C11268   4.768   1.488   4.704  0.8559 -1.0068 -0.5762
   84MOL0     C11269   4.681   1.610   4.699  0.5849  0.0061  0.2547
   84MOL0     C11270   4.608   1.706   4.688 -1.0553 -0.2669 -1.0734
   84MOL0     C11271   5.262   1.704   4.536 -0.3242 -0.8222  0.2638
   84MOL0     C11272   5.302   1.803   4.440 -0.3378 -0.5187 -0.2340
   84MOL0     H11273   5.639   2.001   4.367  0.0013  0.3398 -1.5116
   84MOL0     H11274   5.843   2.140   4.284  1.5761  2.7461 -3.4334
   84MOL0     H11275   6.003   2.209   3.953  0.1795 -0.3748  0.8332
   84MOL0     H11276   5.839   2.196   3.890  1.9550 -0.8412 -0.5513
   84MOL0     H11277   5.952   2.361   3.767  0.4027 -1.0654  0.9166
   84MOL0     H11278   5.817   2.433   3.848  0.4241  1.4664 -1.9751
   84MOL0     H11279   5.980   2.517   4.047  1.2990  0.6192  0.4616
   84MOL0     H11280   6.104   2.446   3.964  0.4685  0.6892 -0.0074
   84MOL0     H11281   6.124   2.668   3.885  0.1229  0.5519 -1.8010
   84MOL0     H11282   6.010   2.613   3.759 -3.4346  1.7350  0.3084
   84MOL0     H11283   5.823   2.697   3.900  0.0475  1.5256  1.8654
   84MOL0     H11284   5.941   2.739   4.024  2.5745 -1.4726  0.6678
   84MOL0     H11285   5.892   2.940   3.904 -0.6727  0.5970 -0.4091
   84MOL0     H11286   6.062   2.890   3.885 -0.3002 -2.6016  1.8534
   84MOL0     H11287   5.940   2.995   3.678 -2.7971 -0.1597  0.5303
   84MOL0     H11288   6.016   2.831   3.652  0.4640  1.0957  0.4049
   84MOL0     H11289   5.730   2.912   3.697 -1.0698 -1.0814 -1.7211
   84MOL0     H11290   5.791   2.744   3.708  3.0747  0.0925  2.2241
   84MOL0     H11291   5.993   2.841   3.413  0.7438  0.2687 -4.7930
   84MOL0     H11292   5.968   2.989   3.180  1.6208 -1.3925  1.3767
   84MOL0     H11293   5.941   2.818   3.128  1.5117  0.1750  1.6910
   84MOL0     H11294   5.733   3.059   3.088 -1.0136  1.0499 -0.8975
   84MOL0     H11295   5.716   2.888   3.040  2.9843 -1.5584 -0.1730
   84MOL0     H11296   5.934   2.920   2.923 -1.2601 -2.8858  2.2048
   84MOL0     H11297   5.933   3.091   2.929  0.6463  1.4247  0.4635
   84MOL0     H11298   5.732   2.920   2.793  0.7581  1.0400  0.1274
   84MOL0     H11299   5.814   3.063   2.722 -2.6376  0.0098 -0.6435
   84MOL0     H11300   5.523   3.342   2.852 -3.7989 -1.3288  0.7511
   84MOL0     H11301   5.392   3.479   2.794 -2.2124 -4.6827  0.7990
   84MOL0     H11302   5.453   3.570   2.663  2.1785 -0.8974  0.8898
   84MOL0     H11303   5.297   3.484   2.642  0.2522  2.3107  1.1805
   84MOL0     H11304   5.221   3.712   2.351 -0.1487 -0.9453  2.1707
   84MOL0     H11305   5.089   3.772   2.160 -2.6886 -0.5411  0.0986
   84MOL0     H11306   5.107   3.749   1.938  0.2624 -0.2519  4.0903
   84MOL0     H11307   4.988   3.723   1.811  0.3917  3.2228 -0.5836
   84MOL0     H11308   4.803   3.787   1.972 -0.0738  0.3427  0.8031
   84MOL0     H11309   4.925   3.848   2.083 -2.1107  1.6964  0.6835
   84MOL0     H11310   4.890   3.940   1.784  0.1231  1.1717 -0.3900
   84MOL0     H11311   5.018   3.977   1.908  0.2402 -2.3294  0.5997
   84MOL0     H11312   4.741   4.036   2.016 -1.2973  0.2689 -2.6093
   84MOL0     H11313   4.891   4.121   2.015 -0.6449 -0.2186  0.3749
   84MOL0     H11314   4.732   4.250   1.886  1.5420 -1.1109  1.7148
   84MOL0     H11315   4.671   4.114   1.790  2.9267 -2.9878 -3.7768
   84MOL0     H11316   4.940   4.246   1.801 -1.8450  0.8708 -0.0461
   84MOL0     H11317   4.912   4.106   1.691 -1.2447 -1.3046 -0.1726
   84MOL0     H11318   4.757   4.372   1.691 -2.9423 -1.4827  0.5572
   84MOL0     H11319   4.713   4.239   1.594  1.7189  0.0106 -2.4364
   84MOL0     H11320   4.948   4.238   1.493 -0.3675  0.4587  1.1991
   84MOL0     H11321   4.979   4.398   1.578  1.2519  0.3992 -0.3141
   84MOL0     H11322   5.011   3.366   2.071 -0.7696  0.5873  1.6808
   84MOL0     H11323   5.165   3.294   2.253  2.1489  1.0110  3.1814
   84MOL0     H11324   5.482   3.083   2.432  2.8303 -1.0548  0.2274
   84MOL0     H11325   5.619   3.005   2.604  0.2691 -0.5229  1.0195
   84MOL0     H11326   5.611   2.247   3.933 -1.3089 -3.8093 -2.0178
   84MOL0     H11327   5.437   2.117   4.006  0.6200 -3.9701 -0.9633
   84MOL0     H11328   5.303   1.624   4.151 -0.8906 -1.7293  0.4721
   84MOL0     H11329   5.227   1.454   4.307 -1.0414  0.2415  2.4188
   84MOL0     H11330   5.037   1.442   4.410  2.4383 -4.5853 -2.0521
   84MOL0     H11331   5.122   1.315   4.477  1.2735  0.9772 -0.7713
   84MOL0     H11332   4.979   1.327   4.672  2.7879 -1.2928 -1.5105
   84MOL0     H11333   4.871   1.330   4.523  1.7793  0.7749 -0.5776
   84MOL0     H11334   4.868   1.584   4.544 -0.9712  1.0604  0.1701
   84MOL0     H11335   4.968   1.567   4.686 -1.5506  0.9763  1.1378
   84MOL0     H11336   4.793   1.453   4.804  4.3249  0.3639 -0.8321
   84MOL0     H11337   4.707   1.413   4.652 -1.3934 -0.1943  0.7420
   84MOL0     H11338   4.540   1.789   4.686  0.9403  1.4720 -1.4836
   84MOL0     H11339   5.241   1.728   4.640 -1.0391  2.5049 -0.5515
   84MOL0     H11340   5.301   1.907   4.470  3.0123 -1.0073  2.2501
   85MOL0     O11341   5.039   1.310  11.008  0.6033 -0.1559 -0.4604
   85MOL0     C11342   4.942   1.348  11.078 -0.1435  0.0288  0.1932
   85MOL0     O11343   4.833   1.266  11.105  2.0522  0.8777  0.1943
   85MOL0     C11344   4.855   1.127  11.086  0.3911  0.2999 -0.6561
   85MOL0     C11345   4.941   1.054  11.160 -0.3496  0.3562 -1.0127
   85MOL0     C11346   4.949   0.911  11.144 -0.5714 -0.6590  0.4603
   85MOL0     C11347   4.865   0.844  11.057  0.7091 -0.3046 -1.0129
   85MOL0     O11348   4.892   0.713  11.069  0.2165  0.7751  0.5549
   85MOL0     C11349   4.801   0.619  10.997 -0.2494 -1.7712 -1.1792
   85MOL0     C11350   4.844   0.474  11.039  0.1292  0.1220 -0.8388
   85MOL0     C11351   4.894   0.397  10.914  0.4310 -0.5609 -0.0618
   85MOL0     C11352   5.030   0.446  10.856 -0.7754 -0.7202 -0.5963
   85MOL0     C11353   5.083   0.360  10.737  0.9814  1.0536 -0.6067
   85MOL0     C11354   5.138   0.221  10.783  0.3314  1.2393 -0.3425
   85MOL0     C11355   5.253   0.160  10.688  0.3208  0.6047 -1.1038
   85MOL0     C11356   5.354   0.083  10.781  0.6287 -0.2233 -0.3386
   85MOL0     N11357   5.484   0.058  10.704  0.3703 -0.0450  0.0367
   85MOL0     C11358   5.527  -0.061  10.653 -0.4573  0.0040 -1.3550
   85MOL0     C11359   5.655  -0.029  10.598 -0.0734  0.6035  0.4055
   85MOL0     C11360   5.744  -0.139  10.543  0.5911 -0.4088 -0.1129
   85MOL0     C11361   5.865  -0.076  10.482 -0.7310 -0.2366 -0.1196
   85MOL0     C11362   5.960  -0.003  10.586 -0.5810 -0.2951 -0.2342
   85MOL0     C11363   6.082   0.054  10.513  0.1455  0.2720  0.7473
   85MOL0     O11364   6.163   0.138  10.602  1.3730 -0.6973 -0.2118
   85MOL0     C11365   6.301   0.131  10.606 -0.2753 -0.0814 -0.2440
   85MOL0     C11366   6.355   0.238  10.670  0.2524 -0.7200  0.0713
   85MOL0     C11367   6.494   0.267  10.671  0.0162 -0.0481  0.0285
   85MOL0     C11368   6.539   0.407  10.712 -0.7513  0.4944  0.4500
   85MOL0     C11369   6.586   0.162  10.615  0.0168 -0.8464 -0.4104
   85MOL0     C11370   6.737   0.164  10.640 -0.0767  0.4180  0.2168
   85MOL0     O11371   6.812   0.054  10.623 -0.2958 -0.1404 -0.0765
   85MOL0     C11372   6.951   0.062  10.621 -0.3004  0.4468  0.8615
   85MOL0     C11373   7.030   0.030  10.736 -0.1980 -0.7026  0.0189
   85MOL0     C11374   7.170   0.044  10.729 -0.4506  0.3835 -0.2592
   85MOL0     C11375   7.234   0.065  10.603 -0.1035 -0.9411  1.3378
   85MOL0     O11376   7.371   0.060  10.590 -0.7827  0.2441  0.2317
   85MOL0     C11377   7.468   0.070  10.700  0.5572  0.5427 -0.3489
   85MOL0     C11378   7.500   0.210  10.750  0.9360  0.2778  0.5398
   85MOL0     C11379   7.561   0.194  10.891 -0.1857  0.1130  1.3861
   85MOL0     C11380   7.592   0.331  10.950  0.6363  0.1389 -0.0656
   85MOL0     C11381   7.653   0.333  11.097 -0.0463 -0.1511 -0.2157
   85MOL0     C11382   7.796   0.277  11.084  0.5863 -0.7937  0.3281
   85MOL0     C11383   7.875   0.294  11.208  1.1024 -0.3083  0.3118
   85MOL0     C11384   7.981   0.189  11.238  0.2304 -0.1279 -0.0093
   85MOL0    Cl11385   8.090   0.185  11.102  0.2203  0.0356 -0.0707
   85MOL0     C11386   7.157   0.103  10.491  0.8056  0.0229 -0.3249
   85MOL0     C11387   7.014   0.107  10.499 -0.8927  0.3504 -0.2716
   85MOL0     O11388   6.783   0.277  10.670  0.5886  0.1924  0.4068
   85MOL0     C11389   6.527   0.050  10.561 -0.7791 -0.0848  0.3290
   85MOL0     C11390   6.387   0.037  10.550 -0.4033 -0.4097  0.3951
   85MOL0     N11391   5.682   0.109  10.594  0.6422 -0.3766 -0.4508
   85MOL0     N11392   5.575   0.155  10.662 -1.4564  0.1014 -0.0780
   85MOL0     C11393   4.773   0.919  10.979 -0.0956  0.0298  0.2222
   85MOL0     C11394   4.776   1.065  10.991 -0.1355  0.0445  0.7262
   85MOL0     C11395   4.961   1.488  11.121 -0.0109  0.0668  0.1257
   85MOL0     C11396   4.869   1.546  11.205  0.0753 -0.3185  0.0951
   85MOL0     C11397   4.867   1.677  11.236  0.0725 -0.2954  0.4397
   85MOL0     C11398   4.958   1.767  11.172 -0.0108 -0.2844 -0.1306
   85MOL0     O11399   4.952   1.901  11.198 -1.4552  0.1206 -0.2206
   85MOL0     C11400   4.831   1.964  11.234 -0.1228  0.3544  0.4851
   85MOL0     C11401   4.817   1.979  11.392  0.3428  0.6671  0.5220
   85MOL0     C11402   4.668   1.990  11.438 -0.2114 -0.0639  0.7489
   85MOL0     C11403   4.650   1.995  11.580  0.4042 -0.7548 -0.7892
   85MOL0     C11404   4.657   1.862  11.644 -0.2480 -0.3799 -1.2779
   85MOL0     C11405   4.647   1.760  11.707 -0.2406  0.2364  1.5727
   85MOL0     C11406   5.057   1.710  11.093 -0.0245  0.1713  0.4352
   85MOL0     C11407   5.063   1.572  11.070 -0.6102  0.4481 -0.3534
   85MOL0     H11408   5.005   1.095  11.239 -1.2524  1.2630 -0.7291
   85MOL0     H11409   5.033   0.871  11.200  1.5655 -0.9511 -2.6315
   85MOL0     H11410   4.703   0.635  11.042  0.5602  0.2791 -0.0016
   85MOL0     H11411   4.804   0.629  10.888 -1.0211 -1.5208 -1.1775
   85MOL0     H11412   4.902   0.461  11.131 -0.7935 -3.1983 -0.6140
   85MOL0     H11413   4.759   0.416  11.074  4.2374 -4.8645  2.2988
   85MOL0     H11414   4.907   0.291  10.940  2.9872  0.0789  1.5693
   85MOL0     H11415   4.818   0.417  10.838 -0.2408 -0.6583  0.5749
   85MOL0     H11416   5.019   0.551  10.830  1.0039  0.4163  2.6722
   85MOL0     H11417   5.104   0.450  10.937 -1.1821 -0.2235 -0.2414
   85MOL0     H11418   5.000   0.353  10.666  0.9013  1.3563 -0.5451
   85MOL0     H11419   5.165   0.408  10.682  3.3868 -1.5720  0.4478
   85MOL0     H11420   5.183   0.231  10.882 -0.0141  1.8212 -0.2347
   85MOL0     H11421   5.057   0.148  10.784  1.0791  0.3644  1.3732
   85MOL0     H11422   5.214   0.101  10.604 -1.7588 -2.0676  1.5336
   85MOL0     H11423   5.299   0.252  10.651 -2.1944  0.8556 -4.0217
   85MOL0     H11424   5.302  -0.010  10.804 -0.2105  0.4274  0.5239
   85MOL0     H11425   5.370   0.153  10.864  2.2215 -1.0086  0.0607
   85MOL0     H11426   5.486  -0.161  10.663 -1.1072  0.5150  2.9396
   85MOL0     H11427   5.771  -0.214  10.617  0.9223 -0.8834 -0.7066
   85MOL0     H11428   5.696  -0.198  10.464  1.3730 -2.1063  0.6414
   85MOL0     H11429   5.833  -0.003  10.408  2.5451  1.9317  0.3780
   85MOL0     H11430   5.929  -0.148  10.429 -0.4097  0.2139 -0.3498
   85MOL0     H11431   6.000  -0.065  10.666  3.2219  0.4998 -1.3021
   85MOL0     H11432   5.913   0.082  10.635  1.6964  1.5132 -0.9732
   85MOL0     H11433   6.044   0.129  10.444 -0.8691 -0.2652  0.7018
   85MOL0     H11434   6.142  -0.016  10.454  1.8563  2.3229 -0.0776
   85MOL0     H11435   6.289   0.322  10.691  0.4911 -0.5063 -0.0318
   85MOL0     H11436   6.603   0.408  10.801 -1.2795 -1.1669  0.8887
   85MOL0     H11437   6.596   0.452  10.630 -2.4450 -0.4039 -1.2893
   85MOL0     H11438   6.453   0.472  10.732 -1.4928 -0.3016 -0.0899
   85MOL0     H11439   6.997  -0.006  10.833 -1.4099 -0.4525 -0.2872
   85MOL0     H11440   7.238   0.022  10.811  0.6408  0.2382 -1.1679
   85MOL0     H11441   7.431  -0.001  10.774  1.8740  0.1205 -0.0799
   85MOL0     H11442   7.555   0.011  10.671  0.5519  1.5639 -2.7292
   85MOL0     H11443   7.571   0.257  10.681  0.3260  0.7438  0.2120
   85MOL0     H11444   7.414   0.277  10.754 -0.3611 -0.5775 -4.9263
   85MOL0     H11445   7.654   0.138  10.879 -0.6239 -0.3515  0.0171
   85MOL0     H11446   7.500   0.143  10.966  0.7420 -2.3534  0.5556
   85MOL0     H11447   7.664   0.387  10.889  0.2768  1.8431  1.0187
   85MOL0     H11448   7.493   0.377  10.956  1.5473  2.0393  3.4741
   85MOL0     H11449   7.587   0.276  11.163  0.2872  1.1008  1.2467
   85MOL0     H11450   7.660   0.435  11.135  1.0468  0.1383 -1.1335
   85MOL0     H11451   7.777   0.170  11.071 -2.5031 -0.2742 -0.2794
   85MOL0     H11452   7.855   0.322  11.004 -0.4629  2.1946  1.0969
   85MOL0     H11453   7.807   0.287  11.294  0.8287  2.9492  0.4899
   85MOL0     H11454   7.938   0.383  11.213  1.3463 -0.5180  1.1050
   85MOL0     H11455   7.922   0.099  11.256  1.0287 -0.9372 -1.2842
   85MOL0     H11456   8.034   0.218  11.329  0.4677  0.8570 -0.4470
   85MOL0     H11457   7.215   0.113  10.399  2.2792 -2.9824  0.1710
   85MOL0     H11458   6.956   0.130  10.411  0.2018 -0.9175 -1.3632
   85MOL0     H11459   6.597  -0.008  10.501 -1.7068  0.4544 -1.3444
   85MOL0     H11460   6.350  -0.048  10.495  0.8312 -2.4994  2.6111
   85MOL0     H11461   4.726   0.880  10.889  3.1686  1.4718 -2.3763
   85MOL0     H11462   4.713   1.132  10.934 -2.8533  0.1336  3.5550
   85MOL0     H11463   4.781   1.495  11.244  0.7307 -0.1538  1.9077
   85MOL0     H11464   4.788   1.707  11.303 -0.8797 -2.4399  0.3809
   85MOL0     H11465   4.824   2.058  11.178 -3.9743 -0.6794 -1.1027
   85MOL0     H11466   4.742   1.908  11.203  0.7498  0.4298 -2.3692
   85MOL0     H11467   4.889   2.054  11.426  4.6148 -1.7205 -2.3231
   85MOL0     H11468   4.850   1.883  11.433  0.3074  0.6712  0.5590
   85MOL0     H11469   4.607   1.911  11.393  2.6692 -2.6230  1.0288
   85MOL0     H11470   4.640   2.090  11.404  0.4224  1.1759  3.5639
   85MOL0     H11471   4.545   2.025  11.590  0.1070 -1.8045 -0.7155
   85MOL0     H11472   4.731   2.063  11.609  0.1068 -0.6702 -0.1423
   85MOL0     H11473   4.632   1.680  11.777 -3.9413  0.1127  0.8557
   85MOL0     H11474   5.135   1.764  11.040 -0.7716 -0.3804 -1.3117
   85MOL0     H11475   5.136   1.541  10.996 -0.2645 -0.5504  0.4018
   86MOL0     O11476  10.033   5.735   3.361  0.0893  0.4194 -0.7719
   86MOL0     C11477   9.935   5.802   3.335  0.2809 -0.5818  0.9238
   86MOL0     O11478   9.813   5.746   3.294 -0.1984  0.6618 -0.6221
   86MOL0     C11479   9.786   5.611   3.284 -0.0481 -0.4159  0.0239
   86MOL0     C11480   9.880   5.505   3.281  0.9671  0.2294 -0.3886
   86MOL0     C11481   9.843   5.374   3.279 -0.3444  0.4431  0.3793
   86MOL0     C11482   9.710   5.334   3.264 -0.3537 -0.3425 -0.1050
   86MOL0     O11483   9.670   5.205   3.251  0.3386  0.6184  0.2949
   86MOL0     C11484   9.582   5.166   3.146 -0.4821  0.6806  0.1574
   86MOL0     C11485   9.594   5.019   3.144 -0.4716  0.4038 -0.0201
   86MOL0     C11486   9.525   4.954   3.261 -0.2741  0.3030  1.1596
   86MOL0     C11487   9.582   4.956   3.406  0.0138 -0.0081 -0.1891
   86MOL0     C11488   9.504   4.889   3.517  1.2385  1.4037  0.1577
   86MOL0     C11489   9.549   4.922   3.660 -0.4726  0.7426  0.1990
   86MOL0     C11490   9.491   4.821   3.760  0.4631  1.1327  0.7449
   86MOL0     C11491   9.519   4.835   3.909 -0.2106  0.2444  0.2640
   86MOL0     N11492   9.671   4.810   3.924 -0.0721 -0.3005  0.4167
   86MOL0     C11493   9.726   4.683   3.900  0.4135 -0.2323  1.0512
   86MOL0     C11494   9.861   4.689   3.934  0.3144  0.4167 -0.3117
   86MOL0     C11495   9.960   4.575   3.911  0.4721 -0.5431 -0.1830
   86MOL0     C11496  10.030   4.580   3.772 -0.5749 -0.3073  0.8037
   86MOL0     C11497  10.147   4.681   3.773  0.5227 -0.3802 -0.4425
   86MOL0     C11498  10.263   4.610   3.840 -0.1067  0.0833  0.3489
   86MOL0     O11499  10.359   4.717   3.872 -1.1473 -0.5922  0.4458
   86MOL0     C11500  10.354   4.747   4.001 -0.0014 -0.4871 -0.1748
   86MOL0     C11501  10.260   4.835   4.059  0.0932  0.5616  0.1421
   86MOL0     C11502  10.255   4.866   4.194 -1.1199  0.1593 -1.3550
   86MOL0     C11503  10.139   4.947   4.241  0.3041  1.0952 -0.3739
   86MOL0     C11504  10.358   4.803   4.277  0.9653  0.1733  0.0326
   86MOL0     C11505  10.361   4.807   4.426 -0.7743 -0.4149  0.0801
   86MOL0     O11506  10.306   4.910   4.483  0.4953  0.0368 -0.5377
   86MOL0     C11507  10.327   4.939   4.613 -0.2421  0.4707 -0.7949
   86MOL0     C11508  10.400   5.054   4.648  1.0477  0.0051 -0.9106
   86MOL0     C11509  10.407   5.082   4.782 -0.3988  0.1764  0.5716
   86MOL0     C11510  10.346   5.006   4.881  0.1138 -0.1906 -0.4935
   86MOL0     O11511  10.339   5.048   5.010  0.3104  0.8766  0.3025
   86MOL0     C11512  10.461   5.051   5.082 -0.6023 -0.3892 -0.3508
   86MOL0     C11513  10.493   4.924   5.151 -0.2630 -0.7173 -0.6240
   86MOL0     C11514  10.620   4.923   5.239 -0.9372  0.2672  0.4849
   86MOL0     C11515  10.621   4.796   5.318  1.3950 -0.3343  0.7709
   86MOL0     C11516  10.728   4.795   5.427 -0.8799 -0.0234 -0.9109
   86MOL0     C11517  10.871   4.809   5.385  0.3671 -0.5144  0.6561
   86MOL0     C11518  10.967   4.795   5.505 -0.3240  0.6648  0.0265
   86MOL0     C11519  11.099   4.886   5.503  0.3366  0.2370 -0.2362
   86MOL0    Cl11520  11.230   4.845   5.607 -0.3115 -0.0216  0.4441
   86MOL0     C11521  10.272   4.895   4.845  0.6344 -0.9031  0.0239
   86MOL0     C11522  10.271   4.854   4.714  0.8777  1.0273 -0.3616
   86MOL0     O11523  10.414   4.706   4.478  0.3305  0.7569  0.5452
   86MOL0     C11524  10.446   4.715   4.218 -1.0170  0.2222 -0.8984
   86MOL0     C11525  10.442   4.689   4.082 -0.7136  0.3720  0.0389
   86MOL0     N11526   9.870   4.817   3.987  0.7266 -0.6507 -0.5947
   86MOL0     N11527   9.759   4.890   3.987  0.4341 -0.0284 -0.7079
   86MOL0     C11528   9.611   5.440   3.258  0.4321 -0.5132 -0.6509
   86MOL0     C11529   9.657   5.575   3.265  0.6988 -0.3210 -0.1018
   86MOL0     C11530   9.951   5.949   3.332  0.3762 -0.3855  0.3685
   86MOL0     C11531   9.839   6.031   3.313 -0.2449  0.4666  0.2271
   86MOL0     C11532   9.854   6.172   3.320 -0.2108 -0.3287  0.3644
   86MOL0     C11533   9.973   6.234   3.339 -1.2326  1.1073 -0.4780
   86MOL0     O11534   9.984   6.370   3.335  0.7451 -0.2257  0.1280
   86MOL0     C11535  10.109   6.429   3.384  0.4589  0.0944 -0.2588
   86MOL0     C11536  10.102   6.581   3.382  0.1908 -0.1708  0.0894
   86MOL0     C11537   9.965   6.632   3.425 -0.3452  0.5590 -0.3027
   86MOL0     C11538   9.971   6.788   3.455 -0.6158  0.4663  0.7229
   86MOL0     C11539  10.045   6.836   3.570  0.5451  0.3540 -0.5252
   86MOL0     C11540  10.117   6.869   3.657 -0.3368 -0.2582  0.1481
   86MOL0     C11541  10.087   6.148   3.360  0.8185 -0.5024 -0.0179
   86MOL0     C11542  10.071   6.005   3.356  0.2374 -0.3021 -0.5911
   86MOL0     H11543   9.988   5.508   3.286  1.4347 -4.2068 -2.6358
   86MOL0     H11544   9.911   5.289   3.288 -1.2183 -0.3460 -0.2299
   86MOL0     H11545   9.479   5.185   3.174 -0.4762  0.9363  0.0065
   86MOL0     H11546   9.613   5.215   3.053 -2.3532  0.2134 -0.7479
   86MOL0     H11547   9.529   5.007   3.057 -2.6487 -1.9534  1.7920
   86MOL0     H11548   9.700   4.993   3.135  0.0632  2.5270 -0.5689
   86MOL0     H11549   9.426   4.999   3.270  0.2485  1.8674 -0.4220
   86MOL0     H11550   9.509   4.848   3.240  2.8015  0.2667 -1.9803
   86MOL0     H11551   9.688   4.930   3.416 -0.4684 -1.7837  0.4586
   86MOL0     H11552   9.573   5.062   3.431  0.1771  1.2417 -4.4930
   86MOL0     H11553   9.405   4.931   3.497  1.4555  2.1023  0.5343
   86MOL0     H11554   9.505   4.781   3.497 -1.1659  1.2830  0.3768
   86MOL0     H11555   9.656   4.909   3.673 -0.6775 -1.4692  0.0914
   86MOL0     H11556   9.519   5.024   3.683  0.7613  1.1387  0.1143
   86MOL0     H11557   9.383   4.825   3.742  0.4881 -1.1735 -0.2820
   86MOL0     H11558   9.513   4.719   3.727  2.4886  1.4603  0.9916
   86MOL0     H11559   9.471   4.751   3.961  4.8293 -2.2180  1.5917
   86MOL0     H11560   9.494   4.932   3.952  2.5151  0.3445  1.8617
   86MOL0     H11561   9.683   4.597   3.850  0.4291 -0.7111  1.8402
   86MOL0     H11562  10.026   4.588   3.998  3.9028 -0.5892 -2.5472
   86MOL0     H11563   9.912   4.478   3.925  1.5983 -1.2351 -0.9521
   86MOL0     H11564   9.971   4.606   3.683  2.4524  0.6672 -1.0711
   86MOL0     H11565  10.063   4.477   3.755 -1.6338 -0.9752  2.5401
   86MOL0     H11566  10.104   4.763   3.832 -1.7377 -0.4247 -1.8899
   86MOL0     H11567  10.166   4.725   3.675 -0.0095  0.4795 -0.1742
   86MOL0     H11568  10.314   4.538   3.775  2.0721 -0.0114  2.0118
   86MOL0     H11569  10.246   4.550   3.930 -1.4316 -1.6407 -0.9986
   86MOL0     H11570  10.182   4.867   3.991  0.1261 -2.6640 -1.6622
   86MOL0     H11571  10.156   5.048   4.278 -4.1247  2.4760 -1.5106
   86MOL0     H11572  10.066   4.958   4.161 -1.0522 -1.2121  0.4319
   86MOL0     H11573  10.075   4.908   4.321  0.6389 -1.3210 -1.2056
   86MOL0     H11574  10.450   5.120   4.578  2.3741 -1.8168 -1.7706
   86MOL0     H11575  10.462   5.171   4.811  1.3289  0.0777 -2.0275
   86MOL0     H11576  10.541   5.090   5.019 -1.9803  3.4920  0.0303
   86MOL0     H11577  10.442   5.131   5.154 -2.6282  1.1018 -2.3638
   86MOL0     H11578  10.409   4.905   5.218 -0.8073 -3.7956 -1.9919
   86MOL0     H11579  10.507   4.841   5.081  2.7612 -0.5703 -0.3224
   86MOL0     H11580  10.628   5.008   5.308  1.8262 -0.8846  1.7100
   86MOL0     H11581  10.704   4.940   5.171 -1.4806  2.3373  0.2416
   86MOL0     H11582  10.526   4.787   5.371  1.5433 -2.0005  0.8152
   86MOL0     H11583  10.624   4.705   5.256 -0.1747 -0.4280  0.8054
   86MOL0     H11584  10.722   4.714   5.500  2.1188  1.4511  1.1698
   86MOL0     H11585  10.706   4.881   5.491  1.1631  1.3415 -1.9363
   86MOL0     H11586  10.904   4.737   5.311  1.7967 -0.1069  0.8673
   86MOL0     H11587  10.877   4.913   5.352  0.2129 -0.6194  0.3001
   86MOL0     H11588  11.008   4.693   5.502 -1.4152  0.2296 -1.0636
   86MOL0     H11589  10.910   4.807   5.598  0.3230 -1.6680  0.7999
   86MOL0     H11590  11.062   4.984   5.536 -2.7688  0.2224 -3.0555
   86MOL0     H11591  11.137   4.887   5.401  1.8373 -1.3894  0.2620
   86MOL0     H11592  10.226   4.829   4.918 -1.4284  0.2273 -0.1562
   86MOL0     H11593  10.238   4.754   4.688  0.4676  0.7702  1.0619
   86MOL0     H11594  10.527   4.671   4.276 -0.2114  0.6091 -1.7055
   86MOL0     H11595  10.525   4.634   4.037  1.3042  3.1125  0.1706
   86MOL0     H11596   9.506   5.421   3.238  0.1667  0.1795  0.0406
   86MOL0     H11597   9.584   5.651   3.237 -0.6602 -1.0645  1.2194
   86MOL0     H11598   9.741   5.992   3.286  0.0845  0.8287 -1.6512
   86MOL0     H11599   9.765   6.226   3.291 -0.0436  0.5463  1.4515
   86MOL0     H11600  10.142   6.396   3.483  2.6561 -1.8849 -1.5398
   86MOL0     H11601  10.186   6.382   3.322 -0.5392 -3.3570  0.8881
   86MOL0     H11602  10.131   6.617   3.283  0.5078 -0.1798  0.1789
   86MOL0     H11603  10.175   6.627   3.449  0.8026 -2.7018  1.3056
   86MOL0     H11604   9.923   6.584   3.514  1.1875  2.6717  1.7008
   86MOL0     H11605   9.900   6.608   3.340 -0.2385 -1.4362  0.1333
   86MOL0     H11606   9.869   6.826   3.464 -0.5784  1.0483 -0.9874
   86MOL0     H11607  10.016   6.827   3.364  1.7768 -3.1637  0.1393
   86MOL0     H11608  10.196   6.892   3.726  0.3278  0.4103 -0.8147
   86MOL0     H11609  10.180   6.188   3.397 -0.0065  1.3685  0.1342
   86MOL0     H11610  10.160   5.946   3.372 -0.3794 -1.7766 -2.2403
   87MOL0     O11611  10.349   1.318   4.636 -0.6200 -0.1158 -0.1282
   87MOL0     C11612  10.413   1.358   4.734 -0.1149 -0.3501 -1.2649
   87MOL0     O11613  10.440   1.486   4.769 -0.4659 -0.4200 -0.0223
   87MOL0     C11614  10.390   1.592   4.692 -0.3907 -0.2649  0.4948
   87MOL0     C11615  10.322   1.699   4.741  1.1201 -0.1670 -0.4134
   87MOL0     C11616  10.275   1.804   4.665 -0.3190  0.2439  0.3879
   87MOL0     C11617  10.306   1.802   4.527 -0.3377  0.0163  0.3153
   87MOL0     O11618  10.274   1.906   4.446 -0.3297  0.5495 -0.2127
   87MOL0     C11619  10.351   2.021   4.470  0.6855  0.6175 -0.3592
   87MOL0     C11620  10.292   2.143   4.396 -0.5759 -0.6242  0.0022
   87MOL0     C11621  10.309   2.148   4.244  0.3198  0.8387  0.0512
   87MOL0     C11622  10.236   2.266   4.180  0.4760 -0.4672 -0.9706
   87MOL0     C11623  10.276   2.298   4.034 -0.4136 -0.2650  0.3657
   87MOL0     C11624  10.267   2.164   3.947 -0.4115 -0.3798 -0.3800
   87MOL0     C11625  10.318   2.183   3.798 -0.1371 -0.1710 -0.0935
   87MOL0     C11626  10.296   2.050   3.728 -0.3991 -0.0775  0.0542
   87MOL0     N11627  10.340   2.060   3.588  0.0352 -0.5781 -0.0685
   87MOL0     C11628  10.447   2.132   3.548  0.3751  0.5702  0.2345
   87MOL0     C11629  10.440   2.130   3.408  0.0876  0.4846 -0.9178
   87MOL0     C11630  10.543   2.177   3.316 -1.1355 -0.5034  0.4292
   87MOL0     C11631  10.531   2.319   3.289 -0.1313 -0.9459 -0.8039
   87MOL0     C11632  10.651   2.395   3.209 -0.1774  0.1599 -0.0196
   87MOL0     C11633  10.627   2.537   3.186  0.0130 -0.0033  0.1270
   87MOL0     O11634  10.738   2.595   3.133 -0.1330 -0.2963 -1.1472
   87MOL0     C11635  10.733   2.694   3.037 -0.4238  0.5190  0.1750
   87MOL0     C11636  10.847   2.715   2.956 -0.3441  0.9534  0.1567
   87MOL0     C11637  10.856   2.807   2.858 -0.9643 -0.0943 -0.0836
   87MOL0     C11638  10.985   2.826   2.788  0.6826  0.0210  0.3766
   87MOL0     C11639  10.743   2.895   2.837  0.1852  0.3050 -0.2752
   87MOL0     C11640  10.739   3.009   2.736  0.1949  0.6641 -0.3623
   87MOL0     O11641  10.853   3.068   2.702  0.6308  0.3496 -0.1749
   87MOL0     C11642  10.856   3.184   2.622 -0.0967  0.1883  0.1120
   87MOL0     C11643  10.785   3.295   2.651  0.1381  0.7921 -0.6189
   87MOL0     C11644  10.779   3.401   2.563  0.0367  0.3348 -0.3847
   87MOL0     C11645  10.867   3.403   2.449  0.1687  0.1068  0.0125
   87MOL0     O11646  10.883   3.500   2.354  0.0173 -1.3058  0.2666
   87MOL0     C11647  10.861   3.638   2.405  0.1445  0.4632 -0.3945
   87MOL0     C11648  10.837   3.723   2.288  0.2450  0.2318 -0.1373
   87MOL0     C11649  10.812   3.870   2.354  0.0907  0.1674  0.0423
   87MOL0     C11650  10.805   3.980   2.246  0.0180  0.2094 -0.3591
   87MOL0     C11651  10.816   4.125   2.295 -0.7593 -0.4838  0.0783
   87MOL0     C11652  10.763   4.166   2.436  0.6472 -0.0007  0.2374
   87MOL0     C11653  10.761   4.319   2.446 -0.3017  0.0222  0.0178
   87MOL0     C11654  10.896   4.391   2.470 -0.1285  0.4546  0.3122
   87MOL0    Cl11655  10.986   4.326   2.606 -0.0887  0.1333 -0.2723
   87MOL0     C11656  10.951   3.293   2.429  0.5485  0.9583  0.4535
   87MOL0     C11657  10.934   3.176   2.510 -0.3310  0.2833 -0.0532
   87MOL0     O11658  10.628   3.029   2.689 -0.0254 -0.1522 -0.4926
   87MOL0     C11659  10.618   2.866   2.907 -0.4415  1.0925 -0.3159
   87MOL0     C11660  10.624   2.765   3.010 -0.3058  0.7266 -0.8060
   87MOL0     N11661  10.327   2.046   3.380 -0.7521  0.6877 -0.0435
   87MOL0     N11662  10.270   2.015   3.483 -0.0489 -0.7504  0.5107
   87MOL0     C11663  10.380   1.699   4.472 -0.1136  0.0591  0.4715
   87MOL0     C11664  10.416   1.593   4.559  0.7490  0.0128  0.4893
   87MOL0     C11665  10.467   1.253   4.832 -0.0539  0.3865  0.0839
   87MOL0     C11666  10.396   1.132   4.853 -0.3717  0.3910 -0.6510
   87MOL0     C11667  10.450   1.041   4.952  0.0716 -0.2253 -1.0958
   87MOL0     C11668  10.558   1.079   5.049 -0.3951  0.1768  0.7238
   87MOL0     O11669  10.607   0.988   5.146  0.2294 -0.9448  0.4750
   87MOL0     C11670  10.744   0.966   5.142  0.5066 -0.3874  0.4399
   87MOL0     C11671  10.807   0.897   5.267  0.3682 -0.1543 -0.5719
   87MOL0     C11672  10.725   0.765   5.301 -0.2791  0.0734  0.6517
   87MOL0     C11673  10.582   0.791   5.349 -0.8882  0.4980 -0.2805
   87MOL0     C11674  10.538   0.658   5.394  0.0433  0.7402  0.6061
   87MOL0     C11675  10.492   0.552   5.436  0.1680  0.7789  0.2160
   87MOL0     C11676  10.608   1.207   5.036 -0.4324  0.4912  0.1813
   87MOL0     C11677  10.569   1.286   4.923  0.3416  0.3125  0.1922
   87MOL0     H11678  10.341   1.703   4.848  3.5861  2.6691 -0.8146
   87MOL0     H11679  10.226   1.893   4.704 -2.2714 -0.0706 -1.1590
   87MOL0     H11680  10.363   2.039   4.577  0.6670  2.7208 -0.6662
   87MOL0     H11681  10.453   2.004   4.435  1.4195  1.1377  1.4180
   87MOL0     H11682  10.189   2.166   4.424 -0.9965 -1.2984 -0.9694
   87MOL0     H11683  10.352   2.227   4.435  0.0150 -0.8360 -0.4368
   87MOL0     H11684  10.414   2.137   4.217  0.0249 -1.9476 -0.3096
   87MOL0     H11685  10.257   2.057   4.210 -0.4704  1.7578 -1.3131
   87MOL0     H11686  10.129   2.243   4.187  0.1075  1.5875  1.4392
   87MOL0     H11687  10.250   2.357   4.239  1.7222 -1.6345  0.5972
   87MOL0     H11688  10.211   2.378   3.998  0.9733  0.3555 -0.7943
   87MOL0     H11689  10.376   2.340   4.022 -0.1742 -0.5285  1.3300
   87MOL0     H11690  10.341   2.093   3.985 -0.3171 -0.3850 -0.5776
   87MOL0     H11691  10.166   2.123   3.949  1.1756 -5.1034 -2.5399
   87MOL0     H11692  10.252   2.262   3.760 -2.7440 -1.2065  1.9608
   87MOL0     H11693  10.424   2.208   3.796  0.4201 -2.0085  2.0744
   87MOL0     H11694  10.191   2.020   3.726 -0.4719  0.0641 -3.0359
   87MOL0     H11695  10.355   1.981   3.789  0.6492  1.7019  1.1521
   87MOL0     H11696  10.530   2.172   3.606 -0.4486 -1.0354  2.6736
   87MOL0     H11697  10.641   2.147   3.356 -0.5978  2.0811  1.2096
   87MOL0     H11698  10.529   2.129   3.219 -3.2284  0.9843 -0.0545
   87MOL0     H11699  10.511   2.370   3.384 -1.9644  0.1061 -1.6984
   87MOL0     H11700  10.440   2.335   3.229  2.5558  6.7904 -4.1073
   87MOL0     H11701  10.675   2.342   3.117 -2.6303 -3.1018  1.0420
   87MOL0     H11702  10.735   2.387   3.279  1.1085 -0.3914 -1.5543
   87MOL0     H11703  10.605   2.589   3.280  1.1854  3.3269 -1.2923
   87MOL0     H11704  10.536   2.540   3.125  3.1827  0.2707 -5.1009
   87MOL0     H11705  10.926   2.642   2.971 -2.0848 -1.1047 -0.2324
   87MOL0     H11706  11.029   2.922   2.815 -2.3787  1.0153  2.4209
   87MOL0     H11707  11.062   2.750   2.797  3.0079  2.1723 -0.2689
   87MOL0     H11708  10.947   2.829   2.685 -0.1069 -1.8795  0.5615
   87MOL0     H11709  10.708   3.272   2.723 -0.7579 -1.5752 -2.1988
   87MOL0     H11710  10.722   3.491   2.584 -0.6055  0.1372 -1.2475
   87MOL0     H11711  10.769   3.636   2.465  1.5287 -3.0509  1.8694
   87MOL0     H11712  10.949   3.657   2.467  0.2098 -2.3986  0.5182
   87MOL0     H11713  10.926   3.723   2.224  1.8444 -1.0402  1.9454
   87MOL0     H11714  10.742   3.682   2.252 -0.4462  0.2980  1.5211
   87MOL0     H11715  10.901   3.882   2.418  1.9288  0.4432 -2.3976
   87MOL0     H11716  10.719   3.869   2.411 -0.5777  0.2360 -1.0244
   87MOL0     H11717  10.877   3.963   2.165 -0.3550  0.7094 -0.8019
   87MOL0     H11718  10.715   3.964   2.186  0.3435  1.7675 -1.2981
   87MOL0     H11719  10.760   4.180   2.220 -2.0252 -1.5583  0.2000
   87MOL0     H11720  10.919   4.158   2.280  0.4673 -3.7426  0.4719
   87MOL0     H11721  10.664   4.120   2.440  1.6718 -2.7521 -2.2632
   87MOL0     H11722  10.827   4.126   2.515 -0.2492 -3.1403 -0.4881
   87MOL0     H11723  10.708   4.346   2.538  0.9031  1.8398  0.2193
   87MOL0     H11724  10.718   4.369   2.358 -2.9775 -0.5216  0.9325
   87MOL0     H11725  10.889   4.500   2.471  3.8958  0.8367  0.9642
   87MOL0     H11726  10.970   4.371   2.392  2.6400  1.6150  2.4845
   87MOL0     H11727  11.014   3.294   2.341  0.3802 -1.5028  0.2589
   87MOL0     H11728  10.990   3.087   2.486 -1.1668 -0.9660  2.2598
   87MOL0     H11729  10.539   2.938   2.887  3.4295  5.2446 -2.7112
   87MOL0     H11730  10.526   2.744   3.051  0.3332 -1.4810 -0.2574
   87MOL0     H11731  10.414   1.699   4.369  0.1788  0.4309  0.5641
   87MOL0     H11732  10.478   1.513   4.519  1.6887  1.4053 -0.9907
   87MOL0     H11733  10.313   1.106   4.787 -2.8635  0.8469  2.0907
   87MOL0     H11734  10.404   0.945   4.971  1.7647 -0.7491  0.6995
   87MOL0     H11735  10.761   0.897   5.058 -2.3881  0.0294 -0.5869
   87MOL0     H11736  10.798   1.060   5.130  1.9215 -1.2009  0.1259
   87MOL0     H11737  10.815   0.973   5.345  3.9741 -0.8847 -0.0541
   87MOL0     H11738  10.911   0.862   5.265  0.3530 -0.6051  2.3286
   87MOL0     H11739  10.785   0.709   5.373 -0.5801  0.2724  1.0590
   87MOL0     H11740  10.726   0.707   5.208 -0.8663 -0.4143  0.9418
   87MOL0     H11741  10.510   0.839   5.282 -2.6428  1.6621  2.2728
   87MOL0     H11742  10.587   0.858   5.435  0.2293  0.9171 -0.6644
   87MOL0     H11743  10.446   0.465   5.478  0.8683 -1.2880 -2.9047
   87MOL0     H11744  10.695   1.239   5.092  0.5032 -4.2156  1.9294
   87MOL0     H11745  10.616   1.381   4.899 -0.9566  1.1218  0.6910
   88MOL0     O11746   4.069   6.114   1.882 -0.1710 -0.1066  0.5093
   88MOL0     C11747   4.159   6.206   1.892  0.1629 -0.0885  0.0499
   88MOL0     O11748   4.284   6.195   1.944  0.3416 -0.5547  0.0739
   88MOL0     C11749   4.329   6.093   2.022 -0.1082 -0.7878  0.2470
   88MOL0     C11750   4.443   6.119   2.103  0.0052 -0.1602  0.7574
   88MOL0     C11751   4.504   6.022   2.175  0.6479  0.2828 -0.9725
   88MOL0     C11752   4.443   5.898   2.197 -0.7529 -0.1521  1.1183
   88MOL0     O11753   4.515   5.810   2.272 -0.6668 -0.2558 -0.0964
   88MOL0     C11754   4.502   5.849   2.414 -0.8831  0.2555 -0.7054
   88MOL0     C11755   4.362   5.839   2.471  0.9267 -0.8254 -0.2284
   88MOL0     C11756   4.311   5.690   2.455 -0.3156  0.5935  0.0339
   88MOL0     C11757   4.320   5.620   2.598 -0.0671  0.0999  0.5753
   88MOL0     C11758   4.246   5.680   2.717  0.4535 -1.2167 -0.0861
   88MOL0     C11759   4.102   5.716   2.688  0.2647  0.8839  0.7621
   88MOL0     C11760   4.031   5.770   2.812  0.1014 -0.0107 -0.3428
   88MOL0     C11761   3.898   5.854   2.785  0.1088 -0.3336 -0.9685
   88MOL0     N11762   3.952   5.976   2.730 -0.9573 -0.1320  0.3860
   88MOL0     C11763   3.944   6.015   2.593  0.6345  0.3877 -0.0612
   88MOL0     C11764   3.997   6.138   2.598 -0.3036 -0.5149  0.6502
   88MOL0     C11765   4.000   6.236   2.475  1.3928 -0.4984  0.0350
   88MOL0     C11766   4.131   6.239   2.392  0.4838  0.3195 -0.4046
   88MOL0     C11767   4.242   6.322   2.448 -0.4736  0.6066 -0.3876
   88MOL0     C11768   4.340   6.246   2.546 -1.2222 -0.9447 -0.5906
   88MOL0     O11769   4.350   6.326   2.663 -0.0219 -1.0271 -0.1164
   88MOL0     C11770   4.464   6.392   2.695 -1.0403  0.3585  1.1326
   88MOL0     C11771   4.567   6.431   2.602  0.7460  0.0733  0.6207
   88MOL0     C11772   4.663   6.520   2.631  0.1271 -0.2145 -1.5223
   88MOL0     C11773   4.758   6.552   2.517  0.5131  0.5500  0.2229
   88MOL0     C11774   4.673   6.568   2.764 -0.1587 -0.6415 -0.0521
   88MOL0     C11775   4.787   6.642   2.811 -0.5932 -0.2415  1.2559
   88MOL0     O11776   4.806   6.642   2.946  0.4486 -0.4823 -0.0820
   88MOL0     C11777   4.920   6.676   3.001 -0.4885 -0.7450  0.6668
   88MOL0     C11778   5.043   6.625   2.959  0.2731  0.4654 -0.1419
   88MOL0     C11779   5.149   6.628   3.041  0.1477  0.2034 -0.4951
   88MOL0     C11780   5.147   6.695   3.172  0.3757  0.7513  0.3411
   88MOL0     O11781   5.263   6.681   3.248 -0.3371  0.2195  0.0868
   88MOL0     C11782   5.287   6.766   3.359 -0.8213  0.8790  0.5214
   88MOL0     C11783   5.440   6.789   3.374 -0.4925  0.6403  0.8658
   88MOL0     C11784   5.468   6.865   3.513 -0.9582 -0.4874  1.0131
   88MOL0     C11785   5.612   6.916   3.540  0.2113  0.6841  0.3572
   88MOL0     C11786   5.676   6.986   3.419  0.4084 -0.0659 -0.0006
   88MOL0     C11787   5.822   7.037   3.444 -0.8340 -1.6024  0.1734
   88MOL0     C11788   5.848   7.188   3.420  0.6286  0.4285 -1.1888
   88MOL0     C11789   5.988   7.207   3.370 -0.0753  0.1934 -0.6694
   88MOL0    Cl11790   6.109   7.172   3.503 -0.0253 -0.0564  0.1203
   88MOL0     C11791   5.018   6.746   3.214 -0.4545  0.4825  0.3225
   88MOL0     C11792   4.907   6.739   3.125  0.4719 -0.1030 -0.5980
   88MOL0     O11793   4.863   6.698   2.735  0.8751  0.8131 -0.3254
   88MOL0     C11794   4.573   6.524   2.862  0.2218  0.3816  0.0622
   88MOL0     C11795   4.468   6.435   2.824  0.4446  0.2549 -0.1481
   88MOL0     N11796   4.027   6.174   2.728 -0.1675 -0.1215  0.3488
   88MOL0     N11797   3.997   6.075   2.806 -0.6598 -0.2064  0.0042
   88MOL0     C11798   4.328   5.874   2.122 -0.2958  0.6681  1.1865
   88MOL0     C11799   4.270   5.969   2.031  0.2857  0.1883  0.2519
   88MOL0     C11800   4.140   6.344   1.847  0.0521  0.2285  1.2666
   88MOL0     C11801   4.027   6.376   1.768  0.1717 -0.1823 -0.4020
   88MOL0     C11802   4.018   6.500   1.704 -0.1005 -0.0535 -1.0938
   88MOL0     C11803   4.115   6.601   1.705 -0.0195 -0.2748 -0.3428
   88MOL0     O11804   4.091   6.718   1.647 -0.5841 -0.7222 -0.4036
   88MOL0     C11805   4.187   6.820   1.675  0.1681  1.1802 -0.5549
   88MOL0     C11806   4.148   6.929   1.584 -1.1432  0.3772  0.0066
   88MOL0     C11807   4.004   6.965   1.613 -0.0647 -0.2515  0.0230
   88MOL0     C11808   3.977   7.113   1.611 -0.0723 -0.7663 -0.7640
   88MOL0     C11809   4.017   7.169   1.479  0.7739  0.0520  0.9441
   88MOL0     C11810   4.061   7.217   1.375  0.2629 -0.4722  0.3723
   88MOL0     C11811   4.216   6.578   1.795  0.2359  0.0359 -0.1689
   88MOL0     C11812   4.230   6.452   1.867 -0.5084 -0.1303 -0.1136
   88MOL0     H11813   4.489   6.217   2.101  1.1072 -0.6617  0.4161
   88MOL0     H11814   4.589   6.063   2.230  1.3328  0.3589 -2.0659
   88MOL0     H11815   4.563   5.776   2.468 -1.7089 -0.1116 -0.2517
   88MOL0     H11816   4.530   5.955   2.416 -1.2917  0.3609 -0.5273
   88MOL0     H11817   4.365   5.885   2.571 -0.2987  2.7506 -1.6550
   88MOL0     H11818   4.291   5.907   2.422  0.0232  1.7030  4.0335
   88MOL0     H11819   4.207   5.690   2.422 -1.7233  0.0290  3.9946
   88MOL0     H11820   4.365   5.619   2.391 -0.7645 -1.7020  2.0337
   88MOL0     H11821   4.269   5.523   2.593  1.4210 -0.9276  3.1005
   88MOL0     H11822   4.428   5.610   2.609  0.7955  3.9782 -2.3485
   88MOL0     H11823   4.261   5.616   2.805 -0.7235 -0.6324  0.5609
   88MOL0     H11824   4.292   5.773   2.750 -1.1442 -0.7541  0.9672
   88MOL0     H11825   4.105   5.803   2.621  0.4116  1.9467  2.0986
   88MOL0     H11826   4.040   5.630   2.661  2.3352 -0.6453  0.6296
   88MOL0     H11827   3.993   5.680   2.861  2.5875 -2.2337 -2.2335
   88MOL0     H11828   4.104   5.831   2.866  0.6212  0.7650 -1.8609
   88MOL0     H11829   3.859   5.889   2.881  4.6398  3.8511 -0.2176
   88MOL0     H11830   3.823   5.806   2.723  0.9182 -0.3956 -1.9270
   88MOL0     H11831   3.896   5.968   2.508 -0.7448 -2.5401  2.1660
   88MOL0     H11832   3.926   6.189   2.409 -0.8057 -1.8089  3.2139
   88MOL0     H11833   3.963   6.337   2.493  0.7018 -0.6692 -0.3972
   88MOL0     H11834   4.118   6.264   2.286  0.9298  2.6059  0.0297
   88MOL0     H11835   4.163   6.135   2.380 -0.1898 -0.1202  1.3136
   88MOL0     H11836   4.200   6.408   2.501 -1.8830  0.9802 -2.0451
   88MOL0     H11837   4.300   6.366   2.367 -1.0144  1.3888 -0.3542
   88MOL0     H11838   4.433   6.229   2.491 -1.6413  0.6024 -1.8306
   88MOL0     H11839   4.304   6.147   2.577 -0.2091 -0.5435  2.1229
   88MOL0     H11840   4.558   6.395   2.500  0.6355  0.1730  0.5956
   88MOL0     H11841   4.749   6.483   2.432  0.8194  1.3736 -0.4912
   88MOL0     H11842   4.755   6.657   2.486  2.4639  0.9586  1.2258
   88MOL0     H11843   4.861   6.554   2.555  0.5487  5.2986  0.4111
   88MOL0     H11844   5.041   6.568   2.867 -0.0166  1.6146 -0.8706
   88MOL0     H11845   5.241   6.572   3.021 -0.6611 -1.8233  1.0460
   88MOL0     H11846   5.238   6.864   3.361 -1.8277  0.5193 -2.0978
   88MOL0     H11847   5.261   6.706   3.446 -0.6076  0.3952  0.2540
   88MOL0     H11848   5.487   6.691   3.375 -2.6698 -0.7879 -4.0652
   88MOL0     H11849   5.484   6.842   3.288 -2.6468  0.2684 -0.5404
   88MOL0     H11850   5.430   6.793   3.587 -0.5561 -2.3536 -0.5136
   88MOL0     H11851   5.409   6.957   3.519  0.5438  0.8179 -1.9415
   88MOL0     H11852   5.601   6.992   3.617 -2.3153  2.2108 -1.3753
   88MOL0     H11853   5.680   6.836   3.571  2.0890  2.3147  0.6392
   88MOL0     H11854   5.608   7.062   3.381  0.1751  0.7687  1.9579
   88MOL0     H11855   5.681   6.913   3.338 -1.6598 -2.9177  2.2102
   88MOL0     H11856   5.870   7.008   3.538 -0.9272 -0.3640  0.6175
   88MOL0     H11857   5.879   6.990   3.364 -1.2774 -0.2944 -0.9335
   88MOL0     H11858   5.851   7.241   3.515  1.8417 -0.1701 -0.8682
   88MOL0     H11859   5.774   7.232   3.352  0.3666  2.3610  0.2728
   88MOL0     H11860   5.995   7.312   3.341 -1.8666  0.3624 -0.6140
   88MOL0     H11861   6.007   7.147   3.281  2.1456  1.3728 -1.0542
   88MOL0     H11862   5.010   6.785   3.315  2.2520 -0.5543  1.0520
   88MOL0     H11863   4.820   6.794   3.160  1.8859  2.0974 -0.3248
   88MOL0     H11864   4.561   6.574   2.958  0.3371  0.2790  0.1308
   88MOL0     H11865   4.404   6.411   2.908  1.9001  0.8223  1.1724
   88MOL0     H11866   4.269   5.783   2.131 -0.6047  0.9223  1.8302
   88MOL0     H11867   4.191   5.938   1.964 -0.2814  3.1046 -0.5524
   88MOL0     H11868   3.955   6.305   1.727  0.9523  0.6422 -3.4573
   88MOL0     H11869   3.930   6.504   1.641 -0.3395  2.8410 -0.6991
   88MOL0     H11870   4.179   6.851   1.780  0.9368  1.8883 -0.6951
   88MOL0     H11871   4.284   6.783   1.643 -0.1984 -0.5673  0.2237
   88MOL0     H11872   4.154   6.884   1.485 -0.5289 -0.8624  0.5867
   88MOL0     H11873   4.216   7.015   1.578 -0.0691 -0.5605 -2.2425
   88MOL0     H11874   3.964   6.925   1.706 -0.4033 -0.0842 -0.0516
   88MOL0     H11875   3.943   6.923   1.533  0.4241 -0.7771 -0.0840
   88MOL0     H11876   4.044   7.172   1.674 -1.2575  1.0280 -1.1158
   88MOL0     H11877   3.871   7.125   1.634 -0.7323 -1.3184 -3.2006
   88MOL0     H11878   4.091   7.247   1.277 -0.5758  0.2970  0.3354
   88MOL0     H11879   4.291   6.654   1.813  0.2030 -0.2765  1.4611
   88MOL0     H11880   4.318   6.441   1.929 -0.1107  1.2304 -0.3950
   89MOL0     O11881   8.425   4.893   6.673  0.1615 -0.5030  1.0563
   89MOL0     C11882   8.349   4.829   6.606  0.0836  0.2592  0.8971
   89MOL0     O11883   8.296   4.708   6.642  0.1186  0.5672  0.1448
   89MOL0     C11884   8.316   4.657   6.767  0.1092 -0.2093  0.0428
   89MOL0     C11885   8.280   4.736   6.878  0.9358 -0.5403 -0.1804
   89MOL0     C11886   8.318   4.695   7.009 -0.2985  0.5302 -0.1331
   89MOL0     C11887   8.373   4.564   7.033 -0.3150 -1.3394  0.0020
   89MOL0     O11888   8.426   4.523   7.155 -0.5483 -0.1991  0.4309
   89MOL0     C11889   8.378   4.580   7.273  0.1823  0.2726  0.0403
   89MOL0     C11890   8.455   4.499   7.379  0.0655 -0.1436 -0.2647
   89MOL0     C11891   8.460   4.572   7.505  0.4806  0.3117 -0.2192
   89MOL0     C11892   8.406   4.487   7.625 -0.8620 -0.0438 -0.6920
   89MOL0     C11893   8.441   4.557   7.756 -0.5258 -0.4816 -1.3697
   89MOL0     C11894   8.437   4.467   7.879 -0.9664 -0.6631 -0.5213
   89MOL0     C11895   8.296   4.454   7.929  0.2185 -0.2652  0.1929
   89MOL0     C11896   8.292   4.342   8.024  1.2548 -0.2939 -0.3592
   89MOL0     N11897   8.246   4.209   7.975  0.2119  0.1690  0.3405
   89MOL0     C11898   8.241   4.104   8.065  0.1058 -0.2840 -1.1195
   89MOL0     C11899   8.209   4.000   7.990 -1.0352  0.3186 -0.5677
   89MOL0     C11900   8.206   3.850   8.017 -0.6070  0.0483 -0.1444
   89MOL0     C11901   8.083   3.812   8.100 -0.6512  0.7419 -0.1766
   89MOL0     C11902   8.094   3.646   8.116 -0.8107  0.1035 -0.7561
   89MOL0     C11903   8.079   3.575   7.977 -0.4734 -0.3447 -1.2376
   89MOL0     O11904   8.060   3.437   8.003  0.5549 -0.4067  0.0659
   89MOL0     C11905   7.942   3.388   8.058  0.0640 -1.0582  0.6933
   89MOL0     C11906   7.825   3.463   8.087  0.2947  0.5075 -1.0857
   89MOL0     C11907   7.715   3.401   8.151  1.0592  0.3857 -0.1475
   89MOL0     C11908   7.594   3.493   8.181 -0.3958  0.4196 -0.0036
   89MOL0     C11909   7.712   3.256   8.172  0.5791 -0.6339  0.0895
   89MOL0     C11910   7.599   3.178   8.216 -0.1734 -0.8395 -0.6409
   89MOL0     O11911   7.596   3.043   8.195  0.4516 -0.8670 -0.2507
   89MOL0     C11912   7.478   2.975   8.190  0.5366 -0.2213  0.8433
   89MOL0     C11913   7.482   2.831   8.192  0.1696  0.2175  0.2219
   89MOL0     C11914   7.371   2.749   8.174 -0.6524  0.2602  0.0953
   89MOL0     C11915   7.242   2.810   8.156  0.0489  0.4987  0.3959
   89MOL0     O11916   7.121   2.734   8.155  0.6776  1.2274  0.0560
   89MOL0     C11917   7.114   2.598   8.181 -0.8023 -0.2032 -0.3307
   89MOL0     C11918   7.155   2.542   8.319  0.1944 -0.5996  1.4645
   89MOL0     C11919   7.030   2.520   8.405  0.0753 -0.0564 -0.4288
   89MOL0     C11920   7.046   2.435   8.526 -0.6086 -0.2369 -0.5587
   89MOL0     C11921   6.999   2.290   8.500 -0.3299 -0.0919  0.2544
   89MOL0     C11922   7.021   2.204   8.631  0.4455 -0.8251  0.3643
   89MOL0     C11923   6.901   2.099   8.648  0.0131  0.5111 -0.1926
   89MOL0     C11924   6.918   2.040   8.787  0.5676 -0.4534  0.7451
   89MOL0    Cl11925   6.804   1.906   8.809  0.4020  0.0869 -0.1917
   89MOL0     C11926   7.240   2.950   8.154 -0.3102 -0.6811 -0.3755
   89MOL0     C11927   7.358   3.034   8.165  0.3121 -0.4130  0.1431
   89MOL0     O11928   7.533   3.237   8.300  0.8846  0.1911  0.5038
   89MOL0     C11929   7.836   3.192   8.151  0.3437 -0.1910  0.2639
   89MOL0     C11930   7.944   3.253   8.078 -0.4231 -1.3833 -0.0202
   89MOL0     N11931   8.206   4.046   7.859 -0.3650 -0.4703 -0.4509
   89MOL0     N11932   8.224   4.173   7.846  0.5412  0.9604  0.2328
   89MOL0     C11933   8.384   4.479   6.927 -0.1787  0.6098  0.2875
   89MOL0     C11934   8.359   4.523   6.793  0.2556  0.0002  0.5328
   89MOL0     C11935   8.314   4.866   6.471 -0.4609  0.0532 -1.0050
   89MOL0     C11936   8.329   5.003   6.425 -0.3211 -0.1379 -0.4795
   89MOL0     C11937   8.297   5.039   6.294 -0.6145  0.1030 -0.0498
   89MOL0     C11938   8.256   4.943   6.204 -0.0092 -0.2612  0.0884
   89MOL0     O11939   8.259   4.987   6.071  0.0841 -0.1066  0.7326
   89MOL0     C11940   8.254   4.896   5.963  0.1682  0.1594  0.0990
   89MOL0     C11941   8.108   4.890   5.939  0.8486  0.6813 -0.2154
   89MOL0     C11942   8.073   4.785   5.830 -1.5868  0.5420  0.5178
   89MOL0     C11943   7.947   4.816   5.753  0.5502  0.2795  0.7575
   89MOL0     C11944   7.990   4.915   5.652 -0.1145  0.6229 -0.1746
   89MOL0     C11945   8.032   4.997   5.576  0.8338  0.3539  1.1559
   89MOL0     C11946   8.236   4.811   6.250 -0.2062  0.3637  0.2127
   89MOL0     C11947   8.268   4.775   6.381  0.2979 -0.0848  0.2365
   89MOL0     H11948   8.232   4.832   6.861  0.0552 -0.9402 -0.0586
   89MOL0     H11949   8.319   4.771   7.086 -3.6036 -0.3218  0.9454
   89MOL0     H11950   8.406   4.685   7.284  4.3161 -0.7891  1.1577
   89MOL0     H11951   8.272   4.558   7.288  0.0070 -0.7310 -2.2248
   89MOL0     H11952   8.411   4.400   7.393  2.3458 -1.3957 -1.3890
   89MOL0     H11953   8.554   4.479   7.337  1.0626  6.7250 -2.5595
   89MOL0     H11954   8.564   4.603   7.516  0.6815 -0.3419 -0.1984
   89MOL0     H11955   8.408   4.668   7.503  0.0293  0.0887  0.4912
   89MOL0     H11956   8.298   4.489   7.610 -0.6624 -0.1297 -2.2765
   89MOL0     H11957   8.449   4.386   7.625 -0.7051 -0.1290  2.9525
   89MOL0     H11958   8.547   4.583   7.746 -0.3844  1.4728  3.1510
   89MOL0     H11959   8.384   4.648   7.772 -2.5602 -2.2276  2.9192
   89MOL0     H11960   8.466   4.367   7.845  0.5189  0.0679 -1.5210
   89MOL0     H11961   8.508   4.501   7.954 -0.2712  2.3372 -2.3604
   89MOL0     H11962   8.265   4.549   7.974 -0.5460  1.0588 -2.8591
   89MOL0     H11963   8.229   4.426   7.848  0.0178 -0.2089  0.3386
   89MOL0     H11964   8.223   4.342   8.109 -1.0617 -3.4754 -2.0170
   89MOL0     H11965   8.393   4.321   8.058  0.6465 -0.1211  1.6562
   89MOL0     H11966   8.261   4.097   8.172 -1.7315  4.7825 -0.1273
   89MOL0     H11967   8.207   3.806   7.917  1.8993  2.0926 -1.1457
   89MOL0     H11968   8.305   3.823   8.057 -1.9024 -2.0920  1.8346
   89MOL0     H11969   7.989   3.842   8.053 -0.3743  0.1735 -1.1209
   89MOL0     H11970   8.087   3.858   8.199 -2.6318  1.9773 -0.6170
   89MOL0     H11971   8.017   3.607   8.182 -0.9485  0.3096 -0.7922
   89MOL0     H11972   8.191   3.628   8.164 -1.2342 -0.1825 -0.0023
   89MOL0     H11973   8.169   3.582   7.915  0.5482  0.2132  0.2420
   89MOL0     H11974   7.991   3.617   7.927 -2.3424 -1.5161  0.9272
   89MOL0     H11975   7.818   3.571   8.078 -1.4436  0.4481 -0.7185
   89MOL0     H11976   7.615   3.599   8.169  1.6789 -0.1867 -2.9166
   89MOL0     H11977   7.502   3.468   8.127 -0.4815 -5.2151  2.0812
   89MOL0     H11978   7.572   3.485   8.288  2.1315 -2.5208  0.4630
   89MOL0     H11979   7.570   2.775   8.221 -1.0519 -1.9608 -0.0758
   89MOL0     H11980   7.390   2.642   8.184 -1.2257  0.3259  2.7207
   89MOL0     H11981   7.009   2.572   8.166 -1.0865  0.4899  0.3795
   89MOL0     H11982   7.173   2.554   8.100  0.3971 -0.5546  0.6980
   89MOL0     H11983   7.193   2.441   8.304  0.2920 -0.4466  0.6254
   89MOL0     H11984   7.227   2.609   8.366  1.3095 -1.1675  0.6337
   89MOL0     H11985   6.954   2.478   8.339  0.7231 -0.3969 -0.9732
   89MOL0     H11986   7.006   2.620   8.443 -0.1821 -1.4757  3.5118
   89MOL0     H11987   7.142   2.449   8.576 -1.0871  1.5124 -0.0723
   89MOL0     H11988   6.982   2.482   8.601 -0.1917  1.6153 -1.3154
   89MOL0     H11989   7.063   2.235   8.431 -0.4732 -1.0105  0.8436
   89MOL0     H11990   6.894   2.282   8.472 -0.3012  1.0943 -0.2650
   89MOL0     H11991   7.116   2.150   8.621 -0.3716 -2.1558 -0.5771
   89MOL0     H11992   7.026   2.264   8.722  1.1449 -2.0392  1.1676
   89MOL0     H11993   6.904   2.022   8.571 -2.1110  0.7473 -0.5755
   89MOL0     H11994   6.804   2.149   8.639 -1.5132 -1.5093  3.1196
   89MOL0     H11995   6.908   2.112   8.868  0.7473  4.4891 -3.1289
   89MOL0     H11996   7.018   1.997   8.784  0.2338 -1.5100  2.8837
   89MOL0     H11997   7.147   3.005   8.153 -0.7466 -1.4036 -1.3850
   89MOL0     H11998   7.351   3.141   8.148  3.0041 -0.2085 -0.0012
   89MOL0     H11999   7.846   3.098   8.204  0.6018  0.7450  1.9233
   89MOL0     H12000   8.036   3.197   8.069  2.0956  2.1354  1.5268
   89MOL0     H12001   8.425   4.379   6.937  1.3557  1.3964  3.0490
   89MOL0     H12002   8.362   4.443   6.720 -0.0249 -0.2135  0.7492
   89MOL0     H12003   8.389   5.075   6.480 -0.2369 -0.5012 -0.0927
   89MOL0     H12004   8.306   5.142   6.261 -4.1739  1.2269  1.8886
   89MOL0     H12005   8.300   4.943   5.876 -1.7832  3.2717  0.5901
   89MOL0     H12006   8.302   4.800   5.984 -0.5622 -0.1280  0.5023
   89MOL0     H12007   8.062   4.988   5.921 -0.3199  0.6938  2.3016
   89MOL0     H12008   8.049   4.855   6.024  3.2408 -2.3848  0.3423
   89MOL0     H12009   8.055   4.696   5.891 -0.5135  0.6667  1.0340
   89MOL0     H12010   8.154   4.761   5.760 -2.9827 -4.3721  0.2173
   89MOL0     H12011   7.869   4.866   5.810 -0.0563  3.7750 -2.7553
   89MOL0     H12012   7.910   4.726   5.702  4.3273 -1.4487  0.6945
   89MOL0     H12013   8.075   5.071   5.511  0.5738  0.5711  1.2332
   89MOL0     H12014   8.212   4.727   6.186  0.6446 -0.3785  0.8457
   89MOL0     H12015   8.246   4.676   6.417 -1.6204  0.9315  2.0527
   90MOL0     O12016  10.126   6.042   2.236  0.1443 -0.2316  0.6159
   90MOL0     C12017  10.218   6.019   2.152  0.1183 -0.0045  0.4770
   90MOL0     O12018  10.255   6.095   2.048 -0.2049 -0.1442  0.5518
   90MOL0     C12019  10.192   6.214   2.028  0.2159 -0.0738 -0.1644
   90MOL0     C12020  10.262   6.332   2.029 -0.2618 -0.1951  0.2424
   90MOL0     C12021  10.209   6.454   1.977 -0.2538  0.0097  0.0603
   90MOL0     C12022  10.077   6.465   1.944 -1.6183 -0.4345 -0.3685
   90MOL0     O12023  10.021   6.568   1.874 -0.1436 -0.1382 -0.2282
   90MOL0     C12024  10.004   6.691   1.949  0.0803  0.7710 -0.3905
   90MOL0     C12025   9.974   6.817   1.867  0.2666  0.5973 -0.4038
   90MOL0     C12026   9.835   6.830   1.795  0.1332 -0.0235  1.0996
   90MOL0     C12027   9.736   6.897   1.889  0.6968  0.1524  0.6330
   90MOL0     C12028   9.762   7.057   1.905 -0.4179 -0.1867 -1.5228
   90MOL0     C12029   9.645   7.130   1.967 -0.3112  0.2909  0.8360
   90MOL0     C12030   9.658   7.281   1.952 -0.5877 -0.1407 -0.4061
   90MOL0     C12031   9.650   7.334   1.809  1.2237 -0.1973 -0.2073
   90MOL0     N12032   9.651   7.481   1.805 -0.5974 -0.9642 -0.8353
   90MOL0     C12033   9.548   7.566   1.763 -0.2571  0.1420 -0.0478
   90MOL0     C12034   9.610   7.680   1.755  0.2988 -0.5203  0.6617
   90MOL0     C12035   9.526   7.805   1.730  0.6148 -0.1483 -0.4201
   90MOL0     C12036   9.604   7.934   1.692  0.2875  0.1738  0.4187
   90MOL0     C12037   9.701   7.925   1.566  0.4083  0.8522 -1.0746
   90MOL0     C12038   9.653   7.870   1.435 -0.1659 -0.4642 -0.7378
   90MOL0     O12039   9.555   7.935   1.349 -0.3565  1.2982  0.4554
   90MOL0     C12040   9.424   7.923   1.373 -0.1820  0.0083  0.5828
   90MOL0     C12041   9.358   7.811   1.352 -1.0291  1.1943  0.6191
   90MOL0     C12042   9.219   7.795   1.367 -0.4002 -0.3440 -0.4386
   90MOL0     C12043   9.158   7.657   1.337  0.6897 -0.4089  0.2430
   90MOL0     C12044   9.140   7.908   1.411  0.5334 -0.2150 -0.6460
   90MOL0     C12045   8.993   7.904   1.429 -0.5202 -0.4490 -0.0842
   90MOL0     O12046   8.920   7.808   1.366 -0.4169 -0.1504 -0.1778
   90MOL0     C12047   8.803   7.773   1.422  0.1822  0.2333 -0.7588
   90MOL0     C12048   8.792   7.760   1.562 -0.7472  0.2878  0.0073
   90MOL0     C12049   8.673   7.708   1.610  0.3892  0.0075  0.6159
   90MOL0     C12050   8.563   7.667   1.530 -0.3496 -0.2736 -1.0252
   90MOL0     O12051   8.449   7.622   1.579  0.3754  0.1828  0.0155
   90MOL0     C12052   8.399   7.667   1.712  0.9174 -0.7830 -0.6017
   90MOL0     C12053   8.270   7.599   1.744  0.2607 -0.2174 -0.9078
   90MOL0     C12054   8.207   7.663   1.871 -1.0210  0.0097 -0.5214
   90MOL0     C12055   8.300   7.666   1.995 -0.1153  0.2299  1.1237
   90MOL0     C12056   8.225   7.749   2.104 -0.6246 -0.1964 -0.4468
   90MOL0     C12057   8.318   7.768   2.232  0.0407 -0.5276  0.8023
   90MOL0     C12058   8.241   7.862   2.332  0.6419  0.1259  1.3902
   90MOL0     C12059   8.334   7.908   2.443  0.0551 -0.0169  0.2692
   90MOL0    Cl12060   8.419   7.781   2.542 -1.0375  0.2135  0.4588
   90MOL0     C12061   8.582   7.687   1.388 -0.2590 -0.2323  0.5114
   90MOL0     C12062   8.699   7.736   1.339 -0.0194 -0.0974  0.0919
   90MOL0     O12063   8.948   8.005   1.490 -0.3746  0.4944 -0.5158
   90MOL0     C12064   9.209   8.034   1.423 -0.2322  0.3617 -0.5565
   90MOL0     C12065   9.350   8.033   1.406  0.0931 -0.0003  0.1275
   90MOL0     N12066   9.747   7.670   1.795  0.3786  0.0896 -0.0131
   90MOL0     N12067   9.761   7.547   1.832 -0.4280 -0.8429  0.5859
   90MOL0     C12068  10.005   6.344   1.936 -0.5513  0.3674 -0.5658
   90MOL0     C12069  10.064   6.215   1.973  0.4085 -0.5110  1.3108
   90MOL0     C12070  10.278   5.880   2.150  0.7081  0.6165 -0.1231
   90MOL0     C12071  10.230   5.775   2.221 -0.2510 -0.6779  0.3801
   90MOL0     C12072  10.282   5.645   2.217 -0.5113  0.2375 -0.3353
   90MOL0     C12073  10.390   5.615   2.128 -1.1398 -0.7728  0.7366
   90MOL0     O12074  10.421   5.484   2.102 -0.3927  0.0559  0.6404
   90MOL0     C12075  10.436   5.446   1.966  0.2124 -0.0225  0.5346
   90MOL0     C12076  10.585   5.418   1.934 -0.1851  0.0680  1.5722
   90MOL0     C12077  10.599   5.394   1.775  0.0327 -0.8861  0.0063
   90MOL0     C12078  10.727   5.336   1.713 -0.1678 -0.8077  0.4794
   90MOL0     C12079  10.843   5.389   1.782  0.4804  0.4628  0.3333
   90MOL0     C12080  10.938   5.445   1.829  0.1939  0.9043 -0.0081
   90MOL0     C12081  10.451   5.734   2.066 -0.0145  1.1792 -1.1713
   90MOL0     C12082  10.393   5.858   2.076  0.4816 -0.2920 -0.1443
   90MOL0     H12083  10.363   6.341   2.065  0.6801  1.4175 -2.5062
   90MOL0     H12084  10.269   6.545   1.979  1.1088 -0.8136 -1.1959
   90MOL0     H12085   9.922   6.679   2.020  0.5410  1.5905  0.2932
   90MOL0     H12086  10.094   6.712   2.007  0.3059 -1.3654  0.1192
   90MOL0     H12087   9.989   6.905   1.930 -0.5761  0.8328 -0.5201
   90MOL0     H12088  10.058   6.814   1.797  0.1765 -0.0123 -0.4862
   90MOL0     H12089   9.859   6.895   1.710 -1.4407 -3.6751 -2.4729
   90MOL0     H12090   9.809   6.729   1.763 -2.6088  0.8908  0.2118
   90MOL0     H12091   9.633   6.881   1.857  0.9344  0.7478 -0.4811
   90MOL0     H12092   9.753   6.839   1.980  0.2421  0.6005  1.0053
   90MOL0     H12093   9.844   7.080   1.973 -0.8819  1.3795 -1.4461
   90MOL0     H12094   9.771   7.090   1.801  2.5257 -1.6262 -1.8429
   90MOL0     H12095   9.549   7.089   1.934 -1.9554  3.8509  0.6798
   90MOL0     H12096   9.649   7.113   2.075  0.9031  1.6557  1.0357
   90MOL0     H12097   9.586   7.343   2.006 -2.9639 -1.7354 -1.5960
   90MOL0     H12098   9.758   7.310   1.987  0.5480 -0.1441 -3.3544
   90MOL0     H12099   9.561   7.295   1.759  1.7949 -1.3262 -0.3775
   90MOL0     H12100   9.738   7.296   1.756 -0.4135 -3.7790 -0.5988
   90MOL0     H12101   9.440   7.558   1.756 -0.2150 -0.6641  0.1349
   90MOL0     H12102   9.447   7.787   1.656  0.3472 -3.2496  0.4901
   90MOL0     H12103   9.474   7.833   1.822  3.5137 -2.2295  2.0379
   90MOL0     H12104   9.651   7.976   1.782  2.2885  0.0715 -0.5179
   90MOL0     H12105   9.521   8.000   1.662  0.2383  0.0743  0.3349
   90MOL0     H12106   9.784   7.863   1.601  1.8056  2.3130 -1.6940
   90MOL0     H12107   9.738   8.024   1.538 -1.5735  1.0522 -3.3263
   90MOL0     H12108   9.625   7.769   1.464  4.4160 -0.7147  4.4276
   90MOL0     H12109   9.743   7.849   1.376  0.5801 -2.9245  1.0884
   90MOL0     H12110   9.422   7.733   1.312  0.7688  1.6822  2.3842
   90MOL0     H12111   9.108   7.665   1.240 -2.0344  1.6701  1.6690
   90MOL0     H12112   9.235   7.581   1.322 -0.3944 -1.0521 -2.8328
   90MOL0     H12113   9.093   7.616   1.415  2.8017 -1.8206  1.3495
   90MOL0     H12114   8.876   7.794   1.621 -1.6428  1.4371  0.6768
   90MOL0     H12115   8.665   7.691   1.717  1.4122  1.9503  1.0410
   90MOL0     H12116   8.463   7.635   1.795  1.3392 -0.1753 -0.6877
   90MOL0     H12117   8.381   7.775   1.713  0.5648 -0.8339  1.3829
   90MOL0     H12118   8.190   7.620   1.672 -4.1213  1.3693  3.8210
   90MOL0     H12119   8.279   7.490   1.750 -0.2393 -0.1799  1.7594
   90MOL0     H12120   8.111   7.617   1.895 -1.0773 -0.4883 -1.6221
   90MOL0     H12121   8.187   7.768   1.850 -0.6968  0.2279  0.2193
   90MOL0     H12122   8.333   7.565   2.020  3.3603 -0.1037 -3.4403
   90MOL0     H12123   8.389   7.724   1.969  1.8062 -1.7598  2.7858
   90MOL0     H12124   8.130   7.703   2.133 -1.3595  0.5285 -1.6044
   90MOL0     H12125   8.194   7.851   2.078  1.4415  1.3700  2.6754
   90MOL0     H12126   8.345   7.671   2.274  1.4781 -0.2775  0.5137
   90MOL0     H12127   8.413   7.819   2.212  1.0061 -1.2561  3.2373
   90MOL0     H12128   8.170   7.790   2.374  1.2515 -1.7005 -0.5125
   90MOL0     H12129   8.204   7.953   2.285  1.2542 -0.3776 -0.1584
   90MOL0     H12130   8.282   7.961   2.523 -0.6845  0.1202 -0.2860
   90MOL0     H12131   8.407   7.982   2.410 -0.6772 -0.6318 -3.1152
   90MOL0     H12132   8.492   7.645   1.344 -1.7315  1.1226  2.0404
   90MOL0     H12133   8.714   7.728   1.232  1.4229 -4.1308  0.4031
   90MOL0     H12134   9.158   8.127   1.447 -1.0647 -0.3069  0.3667
   90MOL0     H12135   9.414   8.120   1.399  0.2281 -0.0249  0.9472
   90MOL0     H12136   9.908   6.341   1.888 -0.7644 -0.1984 -0.1044
   90MOL0     H12137  10.014   6.120   1.954  0.7150 -0.6976  1.4286
   90MOL0     H12138  10.146   5.785   2.289 -0.5262 -1.4329  0.1579
   90MOL0     H12139  10.218   5.564   2.251 -0.4824  0.0479 -0.7232
   90MOL0     H12140  10.398   5.344   1.960  0.2021 -0.0957  1.5759
   90MOL0     H12141  10.402   5.523   1.896 -0.7312 -0.9707 -0.0753
   90MOL0     H12142  10.620   5.329   1.985  1.8890 -1.3212 -1.8972
   90MOL0     H12143  10.644   5.505   1.963 -1.2848  0.3296  3.1283
   90MOL0     H12144  10.565   5.483   1.721 -3.1770 -2.3394 -0.6076
   90MOL0     H12145  10.526   5.316   1.752 -2.1786 -0.3597  4.1992
   90MOL0     H12146  10.730   5.375   1.611 -0.1558 -1.2628  0.3076
   90MOL0     H12147  10.713   5.228   1.704 -0.7170 -0.8413  1.5435
   90MOL0     H12148  11.018   5.508   1.861  1.8162  1.0857 -3.8560
   90MOL0     H12149  10.535   5.712   2.001  1.6233  0.8485  0.9415
   90MOL0     H12150  10.439   5.942   2.026  3.3268 -0.8779  1.2090
   91MOL0     O12151   1.447   5.297   6.888 -0.1324  0.5931 -0.4468
   91MOL0     C12152   1.533   5.387   6.899  0.9612 -0.1447  0.8299
   91MOL0     O12153   1.629   5.425   6.807  0.5811  0.8025 -0.0244
   91MOL0     C12154   1.623   5.402   6.676  0.3112  0.1178  0.4052
   91MOL0     C12155   1.750   5.419   6.608 -0.1124 -0.4969  0.1415
   91MOL0     C12156   1.770   5.383   6.478 -0.2119  0.4011  0.3463
   91MOL0     C12157   1.659   5.340   6.406 -0.2720  0.5194 -0.0684
   91MOL0     O12158   1.683   5.311   6.273  1.1162 -0.6834  0.7839
   91MOL0     C12159   1.579   5.329   6.176  0.6410  1.2581 -0.3117
   91MOL0     C12160   1.640   5.329   6.039  0.5067  0.2320  0.7502
   91MOL0     C12161   1.536   5.364   5.928  0.3515  0.4110 -0.7692
   91MOL0     C12162   1.594   5.428   5.799 -1.0773 -0.7287  0.9734
   91MOL0     C12163   1.699   5.345   5.713  0.8804 -0.8945 -0.2379
   91MOL0     C12164   1.638   5.227   5.640 -0.3507  0.3928  0.2355
   91MOL0     C12165   1.715   5.171   5.517 -0.9012 -0.5987 -1.0240
   91MOL0     C12166   1.666   5.037   5.476  0.9882  0.3455  0.0677
   91MOL0     N12167   1.715   4.992   5.344 -0.1582  0.3054 -0.5692
   91MOL0     C12168   1.846   4.982   5.299  0.5982  0.0220 -0.2367
   91MOL0     C12169   1.835   4.953   5.170  1.1497 -0.5179  1.4121
   91MOL0     C12170   1.949   4.921   5.073  0.1981  0.5777 -0.3345
   91MOL0     C12171   1.997   4.776   5.085 -0.6674 -0.3336 -0.2797
   91MOL0     C12172   2.081   4.744   4.959  0.1501 -0.2520  0.0428
   91MOL0     C12173   2.177   4.848   4.910 -1.4171  0.4882 -0.5736
   91MOL0     O12174   2.280   4.877   5.004 -0.7715 -0.8090 -0.7323
   91MOL0     C12175   2.371   4.967   4.950 -0.0498 -0.0481 -0.6336
   91MOL0     C12176   2.387   5.090   5.007 -0.2613  0.3147 -0.3161
   91MOL0     C12177   2.492   5.179   4.963  0.3646  0.6080  0.0515
   91MOL0     C12178   2.495   5.312   5.023 -0.1785 -0.4485  0.0933
   91MOL0     C12179   2.580   5.136   4.867  0.8479  0.9900  0.2219
   91MOL0     C12180   2.699   5.217   4.832 -0.3022  0.5144 -0.7474
   91MOL0     O12181   2.791   5.232   4.934  0.2780  0.1582  0.0098
   91MOL0     C12182   2.875   5.343   4.923  0.0173  0.2875  0.1845
   91MOL0     C12183   2.877   5.444   5.026 -0.9146  0.1321 -0.0204
   91MOL0     C12184   2.959   5.555   5.028 -0.1599  0.6242 -0.2800
   91MOL0     C12185   3.065   5.549   4.934  0.2215 -0.0244 -0.9801
   91MOL0     O12186   3.156   5.646   4.939 -0.3232 -0.1705  0.1381
   91MOL0     C12187   3.136   5.734   4.829 -0.1082  0.6472 -0.4289
   91MOL0     C12188   3.160   5.874   4.873  0.4383  0.9730 -0.4285
   91MOL0     C12189   3.153   5.971   4.761  0.0995 -0.8789  0.1801
   91MOL0     C12190   3.272   5.951   4.668  0.0721  0.6671  0.4264
   91MOL0     C12191   3.278   6.051   4.559 -0.0275  0.2861  0.0530
   91MOL0     C12192   3.390   6.019   4.452  0.3812  0.8133 -0.0883
   91MOL0     C12193   3.529   6.031   4.500 -0.3261  0.1297  0.8987
   91MOL0     C12194   3.647   5.985   4.404 -0.4658  0.0819  0.5837
   91MOL0    Cl12195   3.807   6.004   4.478 -0.2821  0.4677 -0.0856
   91MOL0     C12196   3.081   5.453   4.843 -0.1672  0.5882  0.9893
   91MOL0     C12197   2.979   5.351   4.834  0.5968 -0.5496  0.2503
   91MOL0     O12198   2.697   5.286   4.728  0.1385 -0.7064 -0.6181
   91MOL0     C12199   2.566   5.001   4.817 -0.2667 -0.4309 -0.5780
   91MOL0     C12200   2.466   4.916   4.866  0.0725 -0.2932 -0.8809
   91MOL0     N12201   1.698   4.948   5.142  0.5319  0.6124  0.9075
   91MOL0     N12202   1.632   4.970   5.246 -0.1403  0.2174 -0.8911
   91MOL0     C12203   1.538   5.318   6.474  0.4046  0.6446  0.5609
   91MOL0     C12204   1.519   5.347   6.602  0.4850 -0.2033 -0.3554
   91MOL0     C12205   1.547   5.445   7.025 -0.1705 -0.5691 -0.4988
   91MOL0     C12206   1.463   5.414   7.137  0.1446  0.2289  0.1327
   91MOL0     C12207   1.479   5.486   7.259 -0.6792 -0.3254  0.0083
   91MOL0     C12208   1.565   5.591   7.277  0.1989 -0.0978  0.0540
   91MOL0     O12209   1.590   5.665   7.386 -0.5660 -0.5811  0.5366
   91MOL0     C12210   1.538   5.633   7.512  1.0676  1.2739 -0.6815
   91MOL0     C12211   1.614   5.519   7.571 -0.8621 -0.0256 -0.1582
   91MOL0     C12212   1.535   5.478   7.697 -0.3636 -1.1425  0.7301
   91MOL0     C12213   1.593   5.364   7.780  0.6434 -0.3775 -0.2957
   91MOL0     C12214   1.712   5.386   7.864 -0.2230  0.0184  0.3464
   91MOL0     C12215   1.821   5.419   7.913  0.0671  0.8574 -0.1933
   91MOL0     C12216   1.648   5.612   7.166  0.6045  0.7332 -0.1408
   91MOL0     C12217   1.643   5.545   7.050  0.2735  0.1609  0.2005
   91MOL0     H12218   1.836   5.436   6.672 -1.4972 -0.5852  2.1417
   91MOL0     H12219   1.866   5.391   6.428 -0.7413 -0.7104 -0.9144
   91MOL0     H12220   1.511   5.244   6.167  1.4568  0.2862  1.8512
   91MOL0     H12221   1.523   5.414   6.217 -0.9614 -0.0724  0.3469
   91MOL0     H12222   1.726   5.397   6.043  2.2177 -1.8719  1.8053
   91MOL0     H12223   1.680   5.232   6.010  0.3546  0.2558  0.4630
   91MOL0     H12224   1.474   5.276   5.907  0.3022  0.8874 -2.8457
   91MOL0     H12225   1.470   5.441   5.970  1.7946 -0.5120  3.7916
   91MOL0     H12226   1.526   5.476   5.728  0.3004 -1.9579 -1.3178
   91MOL0     H12227   1.664   5.503   5.837  0.6608 -2.3738  1.1864
   91MOL0     H12228   1.748   5.418   5.648 -1.3863 -1.3423 -2.5967
   91MOL0     H12229   1.765   5.297   5.786  1.6892 -2.6945 -2.0596
   91MOL0     H12230   1.633   5.140   5.706  2.4766 -1.4787 -1.7859
   91MOL0     H12231   1.540   5.262   5.606 -0.8398 -0.0782  1.1259
   91MOL0     H12232   1.712   5.254   5.445  1.1836 -1.5208 -2.2491
   91MOL0     H12233   1.818   5.158   5.551 -1.4628 -1.3127  0.4681
   91MOL0     H12234   1.559   5.043   5.455  1.0616  0.5661 -0.2384
   91MOL0     H12235   1.704   4.963   5.548  2.4775 -0.5526 -1.5576
   91MOL0     H12236   1.930   4.992   5.367 -0.3688  0.9373  0.8457
   91MOL0     H12237   1.929   4.946   4.968  3.3482  3.2087 -0.4908
   91MOL0     H12238   2.034   4.985   5.101  0.2938  1.3421 -2.1995
   91MOL0     H12239   1.912   4.707   5.095 -0.4301 -0.3102  3.8318
   91MOL0     H12240   2.059   4.759   5.174 -0.9662 -0.0391 -0.0125
   91MOL0     H12241   2.006   4.726   4.881  0.3140 -4.5029  0.6403
   91MOL0     H12242   2.126   4.645   4.973 -1.7504 -0.9019  2.2094
   91MOL0     H12243   2.127   4.945   4.897 -2.4373  0.0489 -0.0983
   91MOL0     H12244   2.217   4.817   4.813 -1.2768 -0.0437 -0.3486
   91MOL0     H12245   2.333   5.113   5.097 -0.0598  1.1694 -0.4111
   91MOL0     H12246   2.521   5.389   4.949 -1.5141  0.0412  0.1118
   91MOL0     H12247   2.402   5.350   5.066  1.1789  2.3114  0.8364
   91MOL0     H12248   2.571   5.298   5.100  1.8916 -2.7525 -2.2017
   91MOL0     H12249   2.824   5.420   5.117 -0.7714  2.8700  0.8916
   91MOL0     H12250   2.959   5.632   5.104  0.2798  0.9343 -0.5852
   91MOL0     H12251   3.215   5.702   4.761 -1.3608 -1.0851 -1.1354
   91MOL0     H12252   3.041   5.728   4.775  0.8341  0.5166 -2.1469
   91MOL0     H12253   3.092   5.896   4.956  1.6841 -0.2219  0.9815
   91MOL0     H12254   3.257   5.869   4.924 -0.7653 -1.0653  1.9241
   91MOL0     H12255   3.158   6.072   4.801 -1.9756  0.7242 -3.0892
   91MOL0     H12256   3.053   5.969   4.715 -2.5117  3.6671  4.6972
   91MOL0     H12257   3.368   5.959   4.720  2.0419  1.8433 -3.1145
   91MOL0     H12258   3.272   5.854   4.617  1.2183  0.0834  1.4723
   91MOL0     H12259   3.293   6.151   4.603  0.2788  0.3584 -0.2123
   91MOL0     H12260   3.177   6.063   4.518 -0.9614 -1.0055  1.8488
   91MOL0     H12261   3.393   5.914   4.424  1.7813  0.4797  1.1451
   91MOL0     H12262   3.388   6.081   4.362 -0.6369 -2.2670 -2.3309
   91MOL0     H12263   3.557   5.973   4.588  1.8270  0.0093  0.2064
   91MOL0     H12264   3.568   6.132   4.520  0.1903  0.3334 -0.9944
   91MOL0     H12265   3.659   6.035   4.307  0.9682 -2.1994 -0.4724
   91MOL0     H12266   3.634   5.878   4.388 -0.5476 -0.1120  1.9020
   91MOL0     H12267   3.167   5.446   4.777  0.3831 -2.2553  1.8866
   91MOL0     H12268   2.984   5.270   4.761 -1.9292 -1.7151  1.2557
   91MOL0     H12269   2.613   4.958   4.729 -0.0551 -0.7573 -0.3098
   91MOL0     H12270   2.462   4.814   4.827  1.2220 -0.5467 -0.3745
   91MOL0     H12271   1.459   5.262   6.425  1.1558 -1.1197  1.3048
   91MOL0     H12272   1.419   5.326   6.638 -0.4435 -0.7446 -3.0330
   91MOL0     H12273   1.374   5.355   7.120 -0.1712  0.5507  0.6282
   91MOL0     H12274   1.414   5.463   7.343  0.8639 -1.3074  0.9787
   91MOL0     H12275   1.546   5.722   7.575 -0.9352  0.0513  1.4540
   91MOL0     H12276   1.431   5.611   7.497  1.0752  2.0615 -2.0856
   91MOL0     H12277   1.713   5.559   7.594 -1.4857  0.2860  2.3004
   91MOL0     H12278   1.625   5.436   7.500 -3.2704 -1.9957  1.5664
   91MOL0     H12279   1.443   5.445   7.649  0.9956 -1.6472 -1.6725
   91MOL0     H12280   1.523   5.558   7.771 -1.2257 -0.6947  0.1237
   91MOL0     H12281   1.626   5.286   7.711  1.3641 -0.4298  0.1054
   91MOL0     H12282   1.518   5.320   7.846  0.2616  1.6313  0.7107
   91MOL0     H12283   1.921   5.442   7.944  0.5530 -0.6653 -0.5695
   91MOL0     H12284   1.715   5.697   7.173 -1.0092  2.2032 -1.5746
   91MOL0     H12285   1.709   5.570   6.967 -1.7921  1.6740 -1.0993
   92MOL0     O12286   7.168   7.040   4.227 -0.1912 -0.0141  0.4823
   92MOL0     C12287   7.129   7.101   4.125  0.6075  0.0990  0.0911
   92MOL0     O12288   7.008   7.090   4.067  0.1306 -0.4271  0.1926
   92MOL0     C12289   6.926   6.993   4.117  0.2608 -1.1658  0.0582
   92MOL0     C12290   6.890   6.992   4.255  0.8782 -0.6395 -0.4502
   92MOL0     C12291   6.778   6.907   4.302 -0.7111 -0.5292 -0.7352
   92MOL0     C12292   6.729   6.809   4.224  0.0635  0.5169  0.0086
   92MOL0     O12293   6.623   6.731   4.279  0.4536 -0.1103 -0.7850
   92MOL0     C12294   6.584   6.607   4.218  0.6634  0.1441 -0.1532
   92MOL0     C12295   6.444   6.567   4.265 -0.2206 -0.2696 -0.2106
   92MOL0     C12296   6.412   6.440   4.206  1.2675 -0.4273 -0.3617
   92MOL0     C12297   6.302   6.382   4.304  0.3418 -0.5057 -0.0494
   92MOL0     C12298   6.244   6.247   4.240  0.3615  0.0030 -0.2642
   92MOL0     C12299   6.148   6.278   4.131  0.3711  0.7211  0.3317
   92MOL0     C12300   6.017   6.349   4.163  0.2763 -1.1110  0.1966
   92MOL0     C12301   5.913   6.347   4.046  0.0529 -0.4694  0.0723
   92MOL0     N12302   5.869   6.211   4.020  1.1220 -0.1600 -0.3600
   92MOL0     C12303   5.754   6.169   4.085  0.0033 -0.4404  0.3618
   92MOL0     C12304   5.710   6.061   4.017  0.5810 -1.0077  0.3052
   92MOL0     C12305   5.587   5.976   4.064  0.3219 -0.2237  0.0669
   92MOL0     C12306   5.457   5.996   3.987  0.8356  0.0327 -0.5632
   92MOL0     C12307   5.328   6.005   4.072 -0.0921  0.5961 -0.1585
   92MOL0     C12308   5.214   6.056   3.987  0.4668 -0.7553  1.6540
   92MOL0     O12309   5.093   6.074   4.070  0.0883  0.1564  0.3335
   92MOL0     C12310   4.980   6.095   3.995 -0.6212 -0.3408  0.9125
   92MOL0     C12311   4.861   6.091   4.069  0.4960 -0.4426  0.5926
   92MOL0     C12312   4.730   6.105   4.009  0.1587  0.4207 -0.8939
   92MOL0     C12313   4.603   6.094   4.088  0.2648  0.2040  0.0600
   92MOL0     C12314   4.738   6.137   3.876 -0.3781  0.3508 -0.1518
   92MOL0     C12315   4.616   6.155   3.792  0.1123  0.1849 -0.1865
   92MOL0     O12316   4.519   6.238   3.843  0.1089 -0.0857  0.0664
   92MOL0     C12317   4.405   6.259   3.765 -0.2006 -0.0015 -1.0366
   92MOL0     C12318   4.377   6.389   3.744  0.2973 -0.5587 -0.4617
   92MOL0     C12319   4.260   6.422   3.674 -0.4213  0.2759  0.1988
   92MOL0     C12320   4.187   6.316   3.615 -0.9715  0.8670  0.6330
   92MOL0     O12321   4.074   6.329   3.534 -0.5195 -0.2910  0.4051
   92MOL0     C12322   4.036   6.460   3.503  0.0196 -0.1411 -0.2104
   92MOL0     C12323   3.937   6.452   3.388  1.0676 -0.0110  0.0124
   92MOL0     C12324   4.018   6.450   3.253 -0.8955 -0.0335 -0.1465
   92MOL0     C12325   3.941   6.448   3.123 -1.4405 -0.0041  0.3505
   92MOL0     C12326   3.923   6.600   3.067  0.0438 -0.6222  0.1491
   92MOL0     C12327   4.060   6.652   3.001 -0.0391 -0.2194  0.3933
   92MOL0     C12328   4.111   6.583   2.858  0.4052  0.5043 -0.2510
   92MOL0     C12329   4.014   6.607   2.745  0.8543  0.5493  0.4426
   92MOL0    Cl12330   4.008   6.786   2.722 -0.3794  0.5771 -0.0727
   92MOL0     C12331   4.218   6.181   3.632 -0.7382 -0.9093  0.8907
   92MOL0     C12332   4.334   6.157   3.701 -0.3785  0.1446 -0.0896
   92MOL0     O12333   4.627   6.126   3.677 -0.3188  0.3570 -0.5297
   92MOL0     C12334   4.858   6.135   3.805  0.1035  0.9018 -0.0007
   92MOL0     C12335   4.980   6.119   3.861  0.5225 -0.2720  0.4269
   92MOL0     N12336   5.806   6.035   3.923  1.1315  1.0502 -0.3758
   92MOL0     N12337   5.899   6.122   3.916  0.0295 -0.3309  0.7990
   92MOL0     C12338   6.769   6.803   4.092  0.6726 -0.3128  0.5120
   92MOL0     C12339   6.863   6.892   4.039 -0.7738 -0.3678 -0.2856
   92MOL0     C12340   7.225   7.190   4.056 -0.2527  0.4661 -0.6730
   92MOL0     C12341   7.195   7.265   3.940  0.4998 -0.6210  0.1643
   92MOL0     C12342   7.288   7.354   3.884 -0.5501 -0.3646  0.0866
   92MOL0     C12343   7.413   7.364   3.942 -0.4133 -0.2552 -0.5954
   92MOL0     O12344   7.516   7.443   3.895  0.0288  0.6573 -0.3403
   92MOL0     C12345   7.505   7.512   3.773 -0.3277 -1.2703 -0.1230
   92MOL0     C12346   7.551   7.429   3.649 -0.2628 -0.0664  0.5734
   92MOL0     C12347   7.506   7.477   3.507 -0.1194  0.0497  0.1003
   92MOL0     C12348   7.591   7.401   3.401 -0.0458 -0.5829 -1.2943
   92MOL0     C12349   7.556   7.432   3.257  0.1903  0.0336  0.0855
   92MOL0     C12350   7.526   7.475   3.145 -0.0498 -0.4683 -0.2939
   92MOL0     C12351   7.439   7.295   4.056 -0.6900 -0.0602  0.5162
   92MOL0     C12352   7.343   7.212   4.117  0.1516  0.4246 -0.3381
   92MOL0     H12353   6.919   7.067   4.328 -1.6756  0.2140 -0.2263
   92MOL0     H12354   6.736   6.916   4.401 -0.4617  0.3277 -0.7006
   92MOL0     H12355   6.572   6.613   4.109 -0.0307 -0.7489 -0.1415
   92MOL0     H12356   6.659   6.532   4.245  0.6233  0.5209  1.0168
   92MOL0     H12357   6.455   6.571   4.374  2.1117 -0.4340 -0.3751
   92MOL0     H12358   6.372   6.647   4.247 -0.6082 -0.5789 -0.0418
   92MOL0     H12359   6.385   6.466   4.103  0.6056  0.5147  0.0392
   92MOL0     H12360   6.489   6.364   4.187  0.3885 -1.2720 -0.6767
   92MOL0     H12361   6.346   6.363   4.403 -0.2934  1.7418  0.7174
   92MOL0     H12362   6.216   6.447   4.319 -2.4986 -3.3442 -2.5791
   92MOL0     H12363   6.333   6.190   4.212  1.9729  1.4130  1.6471
   92MOL0     H12364   6.188   6.194   4.319  0.7848  1.1807  0.8615
   92MOL0     H12365   6.199   6.345   4.061 -1.0483 -0.0420 -1.5307
   92MOL0     H12366   6.128   6.186   4.075  0.2673 -0.6037  2.4524
   92MOL0     H12367   5.970   6.291   4.243 -0.8677 -2.8705 -1.6637
   92MOL0     H12368   6.022   6.452   4.201 -1.7570 -0.5882 -0.8156
   92MOL0     H12369   5.959   6.396   3.959 -1.5398 -1.4624 -1.4008
   92MOL0     H12370   5.821   6.404   4.061 -0.1599 -0.1377 -2.1655
   92MOL0     H12371   5.717   6.199   4.183  1.5887 -2.5915  1.7342
   92MOL0     H12372   5.602   5.868   4.060  0.4352 -0.4357  3.3475
   92MOL0     H12373   5.569   6.004   4.168  0.3518  1.1324 -0.2758
   92MOL0     H12374   5.435   5.907   3.927 -0.9863  0.8903 -1.2241
   92MOL0     H12375   5.463   6.081   3.919 -3.8607 -1.1224 -2.8524
   92MOL0     H12376   5.344   6.091   4.137 -1.6093  1.1061 -0.4268
   92MOL0     H12377   5.311   5.906   4.115 -0.9360  0.3693 -0.9750
   92MOL0     H12378   5.201   6.001   3.893  1.4793  1.4025  0.1750
   92MOL0     H12379   5.238   6.159   3.959 -2.4146  0.1747  2.3090
   92MOL0     H12380   4.850   6.054   4.171 -0.6311  2.7862  1.7888
   92MOL0     H12381   4.559   5.999   4.055  1.2631 -0.6414  1.0543
   92MOL0     H12382   4.611   6.089   4.197 -0.3448 -3.5170  0.0756
   92MOL0     H12383   4.533   6.176   4.073  0.5112  0.3853 -0.0977
   92MOL0     H12384   4.429   6.469   3.796  0.5625 -1.1945  0.2756
   92MOL0     H12385   4.238   6.529   3.669 -0.3343  0.2251 -1.5739
   92MOL0     H12386   3.992   6.508   3.592  0.7117 -1.3967  0.8377
   92MOL0     H12387   4.111   6.529   3.462 -0.2404  1.9853  2.5552
   92MOL0     H12388   3.886   6.356   3.405  3.2835 -1.2426  0.1365
   92MOL0     H12389   3.862   6.532   3.389  1.1460  0.1994 -2.7916
   92MOL0     H12390   4.087   6.365   3.245 -1.1038 -0.2716  0.4891
   92MOL0     H12391   4.093   6.530   3.254  0.5337 -1.3236  0.5506
   92MOL0     H12392   3.983   6.371   3.058 -1.6467 -1.3057  1.6923
   92MOL0     H12393   3.843   6.401   3.136  0.0457 -3.7791 -0.8822
   92MOL0     H12394   3.885   6.672   3.140  1.4578  0.5791 -0.2572
   92MOL0     H12395   3.847   6.594   2.988  0.3660 -0.1082 -0.2060
   92MOL0     H12396   4.062   6.759   2.980  2.8939  0.1980  2.1491
   92MOL0     H12397   4.139   6.635   3.075 -1.3530 -2.7559  1.3316
   92MOL0     H12398   4.126   6.475   2.858  1.3001  0.5938 -1.9438
   92MOL0     H12399   4.202   6.637   2.829  0.3331  0.8510  0.1575
   92MOL0     H12400   3.918   6.565   2.776  0.8233  0.9569  0.9150
   92MOL0     H12401   4.047   6.557   2.654 -1.5178 -1.0060  0.3416
   92MOL0     H12402   4.161   6.105   3.580  0.5532 -1.6353  0.4850
   92MOL0     H12403   4.362   6.052   3.710 -1.5123 -0.0847  1.1667
   92MOL0     H12404   4.867   6.178   3.705  1.9163  0.7487  0.0571
   92MOL0     H12405   5.066   6.114   3.794 -0.8067 -1.3661 -1.2952
   92MOL0     H12406   6.714   6.737   4.026 -0.7836  1.4943 -0.1934
   92MOL0     H12407   6.884   6.884   3.933 -4.9839  0.9611 -1.4210
   92MOL0     H12408   7.095   7.246   3.902  1.0042 -2.7630 -0.1983
   92MOL0     H12409   7.263   7.413   3.796  0.8699  0.3145  0.1052
   92MOL0     H12410   7.401   7.542   3.759 -0.7020 -1.3182  2.1922
   92MOL0     H12411   7.561   7.605   3.756  0.8262 -2.6378 -5.5182
   92MOL0     H12412   7.509   7.329   3.664 -1.6231 -0.7025 -5.1257
   92MOL0     H12413   7.660   7.415   3.645 -0.3741 -0.8446 -0.0121
   92MOL0     H12414   7.498   7.585   3.501  5.0841  0.6322 -0.4429
   92MOL0     H12415   7.401   7.446   3.498 -0.2873  0.5468  0.3597
   92MOL0     H12416   7.565   7.297   3.424  2.7015 -1.2461 -0.7509
   92MOL0     H12417   7.695   7.430   3.421 -0.8372  2.1466 -0.8469
   92MOL0     H12418   7.487   7.497   3.048 -0.5856  1.6452  0.3567
   92MOL0     H12419   7.530   7.302   4.114 -0.9377 -0.4775  0.9605
   92MOL0     H12420   7.364   7.164   4.212  0.4370 -2.1678 -1.6272
   93MOL0     O12421  11.534   0.239   1.144  0.4476  0.4538  0.7962
   93MOL0     C12422  11.654   0.202   1.139  0.4754  0.1377  0.3860
   93MOL0     O12423  11.749   0.253   1.046  0.2897 -0.5405 -0.1481
   93MOL0     C12424  11.709   0.353   0.966  0.5882 -0.2325 -0.5334
   93MOL0     C12425  11.742   0.481   1.000  0.6940  0.0495 -0.6309
   93MOL0     C12426  11.686   0.589   0.932  0.3570  1.2231  0.2191
   93MOL0     C12427  11.595   0.577   0.829 -0.0382 -0.8310  1.1021
   93MOL0     O12428  11.556   0.689   0.760  0.3712 -0.0515 -0.1860
   93MOL0     C12429  11.575   0.695   0.619  0.3534  0.4567  0.7879
   93MOL0     C12430  11.562   0.848   0.577  0.3585  0.2684 -0.2141
   93MOL0     C12431  11.667   0.937   0.652 -0.1886  1.6137  0.0585
   93MOL0     C12432  11.657   1.082   0.605  0.0880 -0.5778 -0.3026
   93MOL0     C12433  11.508   1.138   0.607  1.5789 -0.7595 -0.5025
   93MOL0     C12434  11.451   1.136   0.753  0.4437 -0.9726  0.5933
   93MOL0     C12435  11.306   1.179   0.778 -0.2204  0.5046  0.1462
   93MOL0     C12436  11.209   1.080   0.711  0.0457  0.3917  0.4234
   93MOL0     N12437  11.173   1.098   0.562 -0.3755 -0.2325  1.2690
   93MOL0     C12438  11.219   1.197   0.481 -0.5342 -0.3199 -0.0823
   93MOL0     C12439  11.161   1.177   0.362 -0.6287  0.1190 -0.4036
   93MOL0     C12440  11.210   1.257   0.245  0.1390  0.5701  0.5172
   93MOL0     C12441  11.342   1.193   0.190 -0.4766  0.9151  0.5401
   93MOL0     C12442  11.335   1.039   0.160  0.2864 -0.2484 -0.0833
   93MOL0     C12443  11.206   1.008   0.091 -1.9055  0.2434 -0.0859
   93MOL0     O12444  11.222   0.895  -0.003  0.7942  0.6338  0.5157
   93MOL0     C12445  11.246   0.769   0.055 -0.0565 -0.3858  0.5384
   93MOL0     C12446  11.244   0.736   0.193 -0.5521 -0.7428  0.3570
   93MOL0     C12447  11.259   0.601   0.232  0.0541 -0.1659 -0.3204
   93MOL0     C12448  11.265   0.572   0.381  0.3811 -0.3682 -0.2560
   93MOL0     C12449  11.274   0.495   0.130 -0.1381  0.8879  0.1838
   93MOL0     C12450  11.272   0.349   0.160 -0.0075  0.3842  0.5885
   93MOL0     O12451  11.322   0.270   0.056  0.6234  0.1983 -0.9775
   93MOL0     C12452  11.384   0.159   0.099 -0.7779  0.7519  1.0890
   93MOL0     C12453  11.525   0.146   0.076 -1.0085 -0.2405 -0.3634
   93MOL0     C12454  11.579   0.022   0.099 -0.1172  0.0128 -0.6152
   93MOL0     C12455  11.517  -0.091   0.154  0.5258  0.6199  0.1362
   93MOL0     O12456  11.600  -0.194   0.207 -0.6179 -0.5998 -1.0124
   93MOL0     C12457  11.536  -0.310   0.257 -0.0094  0.0442  0.6430
   93MOL0     C12458  11.643  -0.419   0.255  0.2801 -1.0072 -0.0046
   93MOL0     C12459  11.573  -0.543   0.318  0.0954 -0.1008 -0.2563
   93MOL0     C12460  11.675  -0.666   0.330  0.5944 -0.3126 -0.5890
   93MOL0     C12461  11.596  -0.776   0.410 -0.3828 -0.1748  0.7694
   93MOL0     C12462  11.498  -0.843   0.323  0.1305 -0.8901  0.7157
   93MOL0     C12463  11.426  -0.947   0.397 -0.6374  0.5976  0.7215
   93MOL0     C12464  11.309  -1.016   0.327  0.4327 -0.3711 -0.1151
   93MOL0    Cl12465  11.277  -1.158   0.422 -0.1611 -0.3255  0.2487
   93MOL0     C12466  11.387  -0.075   0.187 -0.1545 -0.3166  0.2227
   93MOL0     C12467  11.319   0.047   0.150 -0.5517  0.1032 -0.2998
   93MOL0     O12468  11.232   0.311   0.270 -0.7636 -0.1038  0.3454
   93MOL0     C12469  11.277   0.537   0.000  0.0264 -0.2786  0.0582
   93MOL0     C12470  11.263   0.668  -0.033  0.2537  0.9950 -0.0657
   93MOL0     N12471  11.070   1.078   0.375 -0.3970  0.7261  0.5907
   93MOL0     N12472  11.074   1.034   0.495 -0.9904  0.2229 -0.6957
   93MOL0     C12473  11.561   0.446   0.796  0.6325  0.5523 -0.3739
   93MOL0     C12474  11.620   0.331   0.861  0.4708  0.2520  0.0490
   93MOL0     C12475  11.703   0.097   1.229 -0.4714  1.1147  0.3115
   93MOL0     C12476  11.638   0.071   1.344 -0.2818  0.1296  0.0022
   93MOL0     C12477  11.677  -0.045   1.413  0.6928  0.8624  0.3502
   93MOL0     C12478  11.798  -0.111   1.391  0.1803  0.7775 -0.0920
   93MOL0     O12479  11.871  -0.205   1.469  0.0901 -0.0760 -0.0690
   93MOL0     C12480  11.810  -0.269   1.579 -0.5681 -0.7083  0.2767
   93MOL0     C12481  11.812  -0.188   1.710  0.0932  0.2816  0.6953
   93MOL0     C12482  11.785  -0.270   1.842  1.0067  0.7255  0.3361
   93MOL0     C12483  11.786  -0.176   1.965 -0.4746  0.4058  0.8116
   93MOL0     C12484  11.784  -0.255   2.086  0.0099  0.7248  0.2792
   93MOL0     C12485  11.763  -0.314   2.194 -0.1349 -0.8284  0.2502
   93MOL0     C12486  11.866  -0.079   1.274  0.6181 -0.0797  0.0464
   93MOL0     C12487  11.812   0.022   1.197 -0.4031  0.0263 -0.2791
   93MOL0     H12488  11.816   0.503   1.077  1.3999  4.2941 -2.2511
   93MOL0     H12489  11.728   0.684   0.962  2.1581  0.7942 -0.7750
   93MOL0     H12490  11.671   0.658   0.582 -1.4700 -3.4613 -0.6153
   93MOL0     H12491  11.496   0.643   0.564  0.1461  0.7916  0.7620
   93MOL0     H12492  11.558   0.866   0.469 -0.2769  1.4103 -0.0136
   93MOL0     H12493  11.467   0.884   0.617  0.0596  0.9430 -1.4781
   93MOL0     H12494  11.638   0.939   0.758 -3.0123 -0.0723 -0.5959
   93MOL0     H12495  11.773   0.909   0.651 -0.4915  0.3893  0.7084
   93MOL0     H12496  11.729   1.146   0.657 -1.0667  0.9584 -0.5280
   93MOL0     H12497  11.695   1.097   0.503  1.7100  4.8521  0.7656
   93MOL0     H12498  11.502   1.246   0.589  1.0882 -0.0295  3.2934
   93MOL0     H12499  11.456   1.087   0.524 -1.2105 -0.3692  0.8843
   93MOL0     H12500  11.458   1.038   0.800 -1.0151 -1.2651  0.2495
   93MOL0     H12501  11.518   1.206   0.803  1.5365 -1.9278  0.5053
   93MOL0     H12502  11.299   1.170   0.887 -2.3989  1.2976  0.1266
   93MOL0     H12503  11.288   1.284   0.753  3.1328  0.9026 -1.0651
   93MOL0     H12504  11.114   1.084   0.765 -1.8615 -1.5725 -2.4698
   93MOL0     H12505  11.235   0.974   0.716 -2.2664 -0.2254  0.3286
   93MOL0     H12506  11.295   1.271   0.504 -3.2346  2.2593  1.2159
   93MOL0     H12507  11.133   1.262   0.167  0.9370 -1.7541 -0.4916
   93MOL0     H12508  11.225   1.358   0.284 -3.9633  0.6054  2.5787
   93MOL0     H12509  11.419   1.206   0.267  1.0949 -0.7469 -0.6595
   93MOL0     H12510  11.371   1.247   0.099 -1.3399  4.2190  2.0671
   93MOL0     H12511  11.347   0.988   0.256 -0.8992  0.5688  0.5248
   93MOL0     H12512  11.417   1.008   0.095  0.7727  1.0377 -0.1151
   93MOL0     H12513  11.171   1.089   0.026 -0.9155 -1.2921 -2.6923
   93MOL0     H12514  11.132   0.975   0.165 -2.2639  0.5828 -0.2910
   93MOL0     H12515  11.209   0.813   0.262  2.0118  0.6292  0.2538
   93MOL0     H12516  11.170   0.538   0.423  0.7929  0.0747  1.0697
   93MOL0     H12517  11.356   0.513   0.396  1.3336  0.8870 -0.8743
   93MOL0     H12518  11.283   0.669   0.428  1.7719 -0.2700 -0.9346
   93MOL0     H12519  11.584   0.226   0.034 -0.4605 -0.5348 -0.1557
   93MOL0     H12520  11.685   0.009   0.079 -0.6336 -2.5901 -2.0481
   93MOL0     H12521  11.490  -0.311   0.356  2.1611 -4.1684  1.7948
   93MOL0     H12522  11.453  -0.341   0.192 -2.2455  2.0402  2.3334
   93MOL0     H12523  11.681  -0.432   0.154  1.6190  1.3514  0.1260
   93MOL0     H12524  11.721  -0.380   0.321 -0.7722 -3.7514  3.1387
   93MOL0     H12525  11.484  -0.576   0.264  1.0575 -2.2704 -0.6529
   93MOL0     H12526  11.537  -0.516   0.418 -2.8429  0.8152 -1.4530
   93MOL0     H12527  11.717  -0.693   0.233 -0.3962  1.4624 -1.5566
   93MOL0     H12528  11.756  -0.642   0.399 -0.2231  0.1474  0.2480
   93MOL0     H12529  11.553  -0.720   0.494 -0.0970  3.7787 -1.4737
   93MOL0     H12530  11.674  -0.849   0.434 -0.5772 -0.4011  0.7131
   93MOL0     H12531  11.420  -0.776   0.286 -0.2449 -2.0726 -0.7552
   93MOL0     H12532  11.544  -0.884   0.232 -1.2630  3.2373 -2.2069
   93MOL0     H12533  11.380  -0.898   0.483 -0.5696 -0.0456  1.1373
   93MOL0     H12534  11.500  -1.021   0.428  1.2733  2.4144  0.6568
   93MOL0     H12535  11.342  -1.062   0.234  3.3267  0.7948  0.2376
   93MOL0     H12536  11.220  -0.952   0.320  0.4523 -0.0318  2.0339
   93MOL0     H12537  11.322  -0.152   0.227 -0.6248 -0.0330  0.0127
   93MOL0     H12538  11.212   0.046   0.169 -0.8396  1.2476 -1.7348
   93MOL0     H12539  11.288   0.459  -0.075  1.3084  0.1826 -0.2526
   93MOL0     H12540  11.264   0.702  -0.136  1.1478  2.7090  0.4741
   93MOL0     H12541  11.490   0.436   0.715 -2.3250  2.4405  1.7862
   93MOL0     H12542  11.595   0.230   0.831 -0.5846  0.9062 -1.4089
   93MOL0     H12543  11.550   0.130   1.368 -0.3498  0.1931 -0.3865
   93MOL0     H12544  11.622  -0.081   1.500  0.8421  1.4205  0.6817
   93MOL0     H12545  11.707  -0.290   1.548 -0.1184 -1.9515 -0.4366
   93MOL0     H12546  11.857  -0.366   1.600 -1.4840 -2.4396 -4.3536
   93MOL0     H12547  11.733  -0.113   1.714 -0.7876 -0.6120  0.3138
   93MOL0     H12548  11.911  -0.142   1.711  0.5070 -0.5901  0.8505
   93MOL0     H12549  11.869  -0.340   1.853  1.5982  1.6552  2.2579
   93MOL0     H12550  11.688  -0.320   1.836  0.9480  0.7090  1.3256
   93MOL0     H12551  11.695  -0.117   1.956  0.1343  2.0379  4.0175
   93MOL0     H12552  11.869  -0.105   1.964 -0.9695  0.9869  0.4466
   93MOL0     H12553  11.750  -0.370   2.284  1.8678 -3.4586 -0.9421
   93MOL0     H12554  11.961  -0.120   1.241  0.4512 -0.5057  0.0784
   93MOL0     H12555  11.870   0.040   1.106  1.1381 -1.4843  0.3438
   94MOL0     O12556   1.126   3.297   9.027  0.2637  0.3350  0.4760
   94MOL0     C12557   1.002   3.285   9.009 -0.9723 -0.2556 -0.5098
   94MOL0     O12558   0.908   3.319   9.099  0.7400  0.1147 -0.0849
   94MOL0     C12559   0.960   3.335   9.225  0.8592 -0.5729 -0.2865
   94MOL0     C12560   0.999   3.224   9.302 -0.6873  1.0177  0.1039
   94MOL0     C12561   1.056   3.242   9.433  0.5945 -0.0285 -0.1735
   94MOL0     C12562   1.072   3.365   9.486 -0.9114 -1.3435  0.5151
   94MOL0     O12563   1.136   3.384   9.609 -0.0260  0.0533  0.9247
   94MOL0     C12564   1.041   3.400   9.707  0.2487 -1.0462  0.4206
   94MOL0     C12565   1.103   3.482   9.816 -0.5166  0.6444  0.0653
   94MOL0     C12566   1.013   3.568   9.909  1.2371 -0.2107 -0.3602
   94MOL0     C12567   0.986   3.708   9.853 -0.2513  0.5267 -0.1201
   94MOL0     C12568   0.907   3.800   9.952  0.1251 -0.7248  0.6206
   94MOL0     C12569   0.943   3.946   9.936 -0.4091  0.0960 -1.0174
   94MOL0     C12570   0.908   4.031  10.064 -1.3295 -0.2913  0.8267
   94MOL0     C12571   0.942   4.186  10.020  0.7201  0.7594 -0.8155
   94MOL0     N12572   0.876   4.241   9.897 -0.1219 -0.1180  0.6468
   94MOL0     C12573   0.738   4.237   9.877 -0.1223  0.1950 -0.5721
   94MOL0     C12574   0.728   4.262   9.743 -0.0291 -0.1606 -0.7417
   94MOL0     C12575   0.606   4.244   9.667  0.1421  0.1047 -0.3282
   94MOL0     C12576   0.481   4.298   9.730  0.0273 -0.2368 -0.5559
   94MOL0     C12577   0.488   4.450   9.744  0.1411  0.6920  0.3567
   94MOL0     C12578   0.345   4.502   9.767 -0.6133 -0.5667  0.0776
   94MOL0     O12579   0.332   4.648   9.805  0.3808  1.0307 -0.2037
   94MOL0     C12580   0.365   4.742   9.721  0.0059 -0.9797 -0.5942
   94MOL0     C12581   0.372   4.870   9.784  0.6632 -0.5359  1.0753
   94MOL0     C12582   0.385   4.995   9.714 -0.6845 -0.7142 -0.3568
   94MOL0     C12583   0.388   5.112   9.809 -0.1705  1.0908 -0.7928
   94MOL0     C12584   0.417   4.986   9.573  1.0968  0.1380  0.3624
   94MOL0     C12585   0.444   5.110   9.489  0.6569  0.2074  1.1266
   94MOL0     O12586   0.485   5.231   9.544 -0.1242  0.6328  0.2278
   94MOL0     C12587   0.516   5.352   9.476  0.4190  0.2226  0.0906
   94MOL0     C12588   0.580   5.453   9.552 -0.3676  0.1167  0.6578
   94MOL0     C12589   0.650   5.566   9.491 -0.0748  0.7888 -0.0260
   94MOL0     C12590   0.636   5.582   9.355 -0.3903  0.2460  0.7795
   94MOL0     O12591   0.691   5.700   9.297 -0.2402  0.9274 -0.5431
   94MOL0     C12592   0.683   5.726   9.157 -0.3100  0.3543 -0.0732
   94MOL0     C12593   0.801   5.816   9.109  0.5012 -0.3086  0.2808
   94MOL0     C12594   0.790   5.953   9.184  0.8275  0.6514 -0.4829
   94MOL0     C12595   0.901   6.038   9.143  0.1408  0.7410  0.0011
   94MOL0     C12596   0.882   6.189   9.176 -0.0058 -0.7692 -0.7547
   94MOL0     C12597   0.973   6.293   9.100  0.4240  0.4049 -0.3147
   94MOL0     C12598   1.105   6.288   9.176 -0.8535  0.1105 -0.3765
   94MOL0     C12599   1.205   6.192   9.101  0.2025 -0.4191  0.9999
   94MOL0    Cl12600   1.343   6.140   9.203 -0.1427 -0.1554  0.2327
   94MOL0     C12601   0.563   5.494   9.287 -0.4225  0.1835 -0.0983
   94MOL0     C12602   0.512   5.375   9.338  0.0451  0.3145 -0.9337
   94MOL0     O12603   0.434   5.086   9.372 -0.1352  0.5276  0.0307
   94MOL0     C12604   0.418   4.851   9.516 -0.5300 -0.0914  0.4895
   94MOL0     C12605   0.388   4.736   9.582  0.6357 -1.2091  0.0974
   94MOL0     N12606   0.848   4.294   9.690  0.3898 -1.4210 -0.2587
   94MOL0     N12607   0.936   4.280   9.777  0.8785  0.5910 -0.4324
   94MOL0     C12608   1.053   3.474   9.404  0.8441  0.0426  0.2450
   94MOL0     C12609   0.984   3.465   9.276 -0.6452 -0.1536 -0.3050
   94MOL0     C12610   0.956   3.238   8.871  0.1563 -0.3235  0.7254
   94MOL0     C12611   0.820   3.200   8.843 -0.4508  0.0383 -0.1123
   94MOL0     C12612   0.802   3.130   8.717  0.0308 -0.2714  0.7270
   94MOL0     C12613   0.905   3.101   8.632 -0.0377  1.5120  0.2682
   94MOL0     O12614   0.892   3.013   8.527  0.2428  0.2039 -0.3832
   94MOL0     C12615   0.774   3.023   8.445 -0.3262 -0.0056 -1.1509
   94MOL0     C12616   0.765   3.168   8.375  0.7198  0.6819 -0.4802
   94MOL0     C12617   0.670   3.186   8.254 -0.0508 -0.0538  0.7332
   94MOL0     C12618   0.671   3.330   8.207 -0.2462 -0.5327  0.7150
   94MOL0     C12619   0.787   3.362   8.122  0.9672 -0.6794 -0.3173
   94MOL0     C12620   0.886   3.410   8.079  0.6763 -0.0159  0.7517
   94MOL0     C12621   1.030   3.142   8.662  0.0860  1.1815 -0.1215
   94MOL0     C12622   1.058   3.220   8.772  0.9124  0.4464 -0.4406
   94MOL0     H12623   0.996   3.129   9.250  2.1043  1.2339 -0.5860
   94MOL0     H12624   1.070   3.155   9.497 -1.3949 -0.2851 -0.0257
   94MOL0     H12625   0.955   3.459   9.674  2.7504  1.9910 -1.1000
   94MOL0     H12626   1.013   3.301   9.745  0.0949 -2.6234 -3.4092
   94MOL0     H12627   1.148   3.399   9.872  0.2757 -0.9779 -2.7931
   94MOL0     H12628   1.177   3.551   9.775 -0.0496  0.8205  1.1724
   94MOL0     H12629   0.929   3.502   9.930  1.0515  0.0849 -0.1488
   94MOL0     H12630   1.067   3.585  10.003 -0.6992  3.7456  0.2530
   94MOL0     H12631   1.082   3.756   9.830 -0.2417  0.9083  0.7014
   94MOL0     H12632   0.933   3.707   9.757 -0.0666  2.3899 -0.2837
   94MOL0     H12633   0.800   3.781   9.944 -0.5259  2.3264  1.0077
   94MOL0     H12634   0.926   3.777  10.057 -0.4849  2.4055  1.5191
   94MOL0     H12635   1.051   3.957   9.932 -0.5819  2.0231 -1.3138
   94MOL0     H12636   0.893   3.989   9.848 -2.2698 -2.0726 -1.1420
   94MOL0     H12637   0.800   4.029  10.083 -1.2363 -0.1753  1.3725
   94MOL0     H12638   0.961   3.993  10.152 -2.0947 -0.8853  1.0416
   94MOL0     H12639   1.051   4.198  10.012  0.6237  1.4108 -1.2140
   94MOL0     H12640   0.902   4.246  10.103 -0.1609 -0.0521 -0.6368
   94MOL0     H12641   0.658   4.194   9.935  0.7224 -0.2782  0.2661
   94MOL0     H12642   0.607   4.286   9.566 -1.5754  1.7389  0.2727
   94MOL0     H12643   0.584   4.138   9.654 -0.2851  0.5492 -5.1298
   94MOL0     H12644   0.469   4.264   9.833 -0.0879  4.4502  1.2125
   94MOL0     H12645   0.400   4.268   9.662 -2.1961  2.9436  0.4344
   94MOL0     H12646   0.519   4.492   9.648  1.0428  0.2224  0.4323
   94MOL0     H12647   0.562   4.474   9.821  2.1150 -2.5740 -0.3277
   94MOL0     H12648   0.305   4.454   9.857  1.7102  1.9712  2.6647
   94MOL0     H12649   0.277   4.486   9.683  2.1682 -1.3541 -2.1862
   94MOL0     H12650   0.345   4.859   9.889  1.8588 -3.9443  1.1461
   94MOL0     H12651   0.483   5.163   9.790  1.7638 -1.7002  0.6937
   94MOL0     H12652   0.300   5.177   9.800 -1.9919 -1.3576 -1.5556
   94MOL0     H12653   0.392   5.082   9.914 -0.7038  0.7876 -0.8574
   94MOL0     H12654   0.579   5.434   9.659 -0.2800  3.3818  1.3588
   94MOL0     H12655   0.701   5.641   9.550 -0.1003 -0.6592  1.9584
   94MOL0     H12656   0.689   5.630   9.105 -0.3482 -0.8598  2.0343
   94MOL0     H12657   0.584   5.769   9.138  0.8663  2.5876 -1.5979
   94MOL0     H12658   0.889   5.764   9.147  0.3904 -0.6674  0.0489
   94MOL0     H12659   0.805   5.839   9.003  2.2811  2.1305  0.7957
   94MOL0     H12660   0.788   5.937   9.292 -2.9969 -1.7407 -0.7144
   94MOL0     H12661   0.692   5.988   9.150  1.3595  1.8714 -0.8020
   94MOL0     H12662   0.994   6.012   9.196  0.7873 -0.4023 -1.6274
   94MOL0     H12663   0.935   6.031   9.040 -0.5433 -0.8423 -0.1404
   94MOL0     H12664   0.903   6.200   9.283  2.1548  0.9222 -1.2895
   94MOL0     H12665   0.777   6.215   9.161 -0.3717 -0.6306  1.5988
   94MOL0     H12666   0.980   6.269   8.993 -1.2915 -0.3510 -0.2953
   94MOL0     H12667   0.920   6.389   9.102 -2.5483 -1.1398  0.4089
   94MOL0     H12668   1.096   6.240   9.274 -3.6618  0.8041 -0.2093
   94MOL0     H12669   1.143   6.390   9.185  0.5152 -0.3540 -0.5926
   94MOL0     H12670   1.241   6.233   9.006 -0.8663  2.2113  1.6425
   94MOL0     H12671   1.156   6.096   9.086  2.1401 -1.6107  1.8354
   94MOL0     H12672   0.544   5.511   9.181 -1.0052  1.2683  0.1610
   94MOL0     H12673   0.469   5.301   9.271 -0.5805 -1.5618  1.3784
   94MOL0     H12674   0.417   4.851   9.407 -3.2587  4.6668  0.2019
   94MOL0     H12675   0.382   4.642   9.528  0.2200 -0.0434 -2.0237
   94MOL0     H12676   1.074   3.575   9.436  0.8141  0.1100  0.0535
   94MOL0     H12677   0.991   3.551   9.210 -0.0770 -0.1590 -0.2542
   94MOL0     H12678   0.743   3.206   8.919  1.0164  0.5139  1.3881
   94MOL0     H12679   0.701   3.090   8.706 -0.1088  0.5279 -1.3518
   94MOL0     H12680   0.785   2.945   8.370  0.4811 -1.3118  0.2591
   94MOL0     H12681   0.683   2.997   8.501 -0.2681 -1.5952 -1.7600
   94MOL0     H12682   0.867   3.191   8.343  0.9893  1.8961  1.0884
   94MOL0     H12683   0.729   3.231   8.457 -0.9303  0.3307 -0.9130
   94MOL0     H12684   0.569   3.162   8.287  0.1336 -1.4396  0.3350
   94MOL0     H12685   0.686   3.113   8.174 -3.0973 -2.2235  1.8999
   94MOL0     H12686   0.664   3.400   8.291 -0.3198 -0.2843  0.5022
   94MOL0     H12687   0.575   3.357   8.161  0.3974  0.4822 -0.0548
   94MOL0     H12688   0.972   3.469   8.054 -1.7967  3.3659 -0.5226
   94MOL0     H12689   1.105   3.133   8.584 -0.4925  0.1605 -0.5640
   94MOL0     H12690   1.157   3.256   8.796  0.9736 -1.7377  3.3539
   95MOL0     O12691   6.817   1.720   6.420  0.3314 -0.0016  0.7430
   95MOL0     C12692   6.825   1.648   6.519  1.8581  0.1110  0.0296
   95MOL0     O12693   6.754   1.665   6.638 -0.7449 -0.2401 -0.5951
   95MOL0     C12694   6.652   1.760   6.641  0.3628  0.5846 -0.9478
   95MOL0     C12695   6.524   1.720   6.614 -0.7517  0.4997  0.8073
   95MOL0     C12696   6.431   1.821   6.596  0.1913  0.0249 -0.0739
   95MOL0     C12697   6.463   1.956   6.598 -0.0572  0.4525  0.2428
   95MOL0     O12698   6.383   2.072   6.564 -0.0230  0.7776 -0.3877
   95MOL0     C12699   6.240   2.054   6.550 -0.3635 -0.2421  0.5032
   95MOL0     C12700   6.180   2.180   6.511  0.0547  0.2725 -0.0236
   95MOL0     C12701   6.218   2.241   6.375 -0.3803  0.1347 -0.0286
   95MOL0     C12702   6.161   2.178   6.252  0.5797  0.5238 -0.6506
   95MOL0     C12703   6.003   2.223   6.256 -0.3656 -0.3823  0.0486
   95MOL0     C12704   5.935   2.143   6.143  0.9622 -0.0858 -0.1834
   95MOL0     C12705   5.868   2.009   6.195  0.2416  0.0978  1.4512
   95MOL0     C12706   5.785   1.935   6.084 -0.1556 -0.0512 -0.0127
   95MOL0     N12707   5.640   1.970   6.083 -0.6918  0.7258 -0.3593
   95MOL0     C12708   5.561   1.949   6.201 -0.6929 -1.6606  0.5412
   95MOL0     C12709   5.442   1.990   6.168  0.9583  0.0091 -0.1896
   95MOL0     C12710   5.310   1.991   6.239 -0.1810 -0.8711 -0.7839
   95MOL0     C12711   5.267   1.847   6.224 -0.4926 -1.3840 -0.1800
   95MOL0     C12712   5.136   1.829   6.301 -0.6437 -0.3216  0.2428
   95MOL0     C12713   5.153   1.841   6.452  0.1550 -0.2579  1.8516
   95MOL0     O12714   5.223   1.724   6.498 -0.2859 -0.0921  0.1228
   95MOL0     C12715   5.208   1.698   6.634 -0.5516 -0.1422  0.7007
   95MOL0     C12716   5.164   1.564   6.665  0.3708  0.1269 -0.2247
   95MOL0     C12717   5.141   1.533   6.802  1.1768  0.1186 -0.8655
   95MOL0     C12718   5.114   1.392   6.830 -0.3466  0.3788 -0.3481
   95MOL0     C12719   5.157   1.626   6.912 -0.2291  0.1553 -0.8580
   95MOL0     C12720   5.147   1.604   7.065  0.3795 -0.5166  0.3956
   95MOL0     O12721   5.152   1.719   7.136 -0.0617 -0.4011 -0.5036
   95MOL0     C12722   5.119   1.717   7.263  0.0392  0.3136  0.4979
   95MOL0     C12723   4.988   1.697   7.293  0.3841 -1.3213  0.7205
   95MOL0     C12724   4.958   1.681   7.432  1.4580 -0.0941  1.3136
   95MOL0     C12725   5.058   1.682   7.528  0.4102  0.3883  0.5013
   95MOL0     O12726   5.031   1.647   7.660  0.4972 -0.0509  0.4442
   95MOL0     C12727   4.956   1.748   7.719  0.5655  0.1608  0.5279
   95MOL0     C12728   4.852   1.676   7.809 -0.7842  0.3167  0.2215
   95MOL0     C12729   4.738   1.607   7.738 -0.4722 -0.1677 -0.6796
   95MOL0     C12730   4.633   1.528   7.833 -0.0913  0.0946 -0.8379
   95MOL0     C12731   4.676   1.389   7.884  0.5518 -1.0202  0.1703
   95MOL0     C12732   4.589   1.334   8.012  0.0194 -0.2118  0.2548
   95MOL0     C12733   4.593   1.178   8.015 -0.4836 -0.3295 -0.9775
   95MOL0     C12734   4.494   1.111   7.921  0.2097 -0.1239 -0.2714
   95MOL0    Cl12735   4.525   0.939   7.906  0.0684  0.0793 -0.1530
   95MOL0     C12736   5.188   1.691   7.484 -1.2390 -1.0784  0.3267
   95MOL0     C12737   5.217   1.720   7.348 -0.0104 -1.5508 -0.2983
   95MOL0     O12738   5.109   1.498   7.105  0.1979 -0.3228  0.9307
   95MOL0     C12739   5.195   1.754   6.873  0.4933  0.1618 -1.1579
   95MOL0     C12740   5.218   1.793   6.739  0.4735  0.7223  0.7260
   95MOL0     N12741   5.438   2.037   6.036 -0.5461  0.7529 -0.4937
   95MOL0     N12742   5.559   2.023   5.986  0.0389  0.0437 -0.3845
   95MOL0     C12743   6.600   1.988   6.619  1.2350 -0.0124 -1.0506
   95MOL0     C12744   6.685   1.893   6.646 -0.4476 -0.1852  0.5771
   95MOL0     C12745   6.937   1.547   6.508 -0.1249 -0.3706  0.3112
   95MOL0     C12746   6.978   1.481   6.623 -0.3457 -1.1225 -0.0906
   95MOL0     C12747   7.077   1.377   6.621 -0.2902  0.6872  1.5581
   95MOL0     C12748   7.140   1.352   6.498 -0.2189 -0.2036  1.2520
   95MOL0     O12749   7.239   1.255   6.474  0.1798 -0.8250 -0.3794
   95MOL0     C12750   7.336   1.255   6.572  0.4140 -0.5227  0.0458
   95MOL0     C12751   7.429   1.377   6.548  1.1122 -0.1775 -1.5398
   95MOL0     C12752   7.378   1.521   6.578  0.9809  0.0146  0.1977
   95MOL0     C12753   7.481   1.623   6.504 -0.4128 -0.1093  1.3027
   95MOL0     C12754   7.621   1.610   6.538  0.3508  0.1771 -0.6709
   95MOL0     C12755   7.733   1.607   6.575 -0.7955  0.2727  0.2344
   95MOL0     C12756   7.099   1.424   6.384  0.4690 -0.3161 -0.2115
   95MOL0     C12757   6.999   1.520   6.390  0.7412 -0.7966 -0.0511
   95MOL0     H12758   6.509   1.613   6.599  0.0921  0.3258  1.1698
   95MOL0     H12759   6.335   1.799   6.551  0.3571  0.0939 -0.4718
   95MOL0     H12760   6.225   1.976   6.475 -0.4815  0.8586 -0.6455
   95MOL0     H12761   6.195   2.021   6.644 -3.2752 -0.1602 -0.7678
   95MOL0     H12762   6.073   2.156   6.518  0.4164 -1.9210 -1.0493
   95MOL0     H12763   6.203   2.255   6.587  0.4656 -0.9913  1.1220
   95MOL0     H12764   6.194   2.346   6.356 -0.5955 -0.0147 -0.5963
   95MOL0     H12765   6.327   2.249   6.376 -0.2048 -1.0770  2.8541
   95MOL0     H12766   6.210   2.198   6.156 -2.6893  0.1928 -2.5565
   95MOL0     H12767   6.161   2.069   6.251 -2.7912  0.3721 -3.5018
   95MOL0     H12768   5.946   2.194   6.345 -2.3906 -0.3945 -1.1776
   95MOL0     H12769   6.008   2.329   6.230  0.0693 -0.5423 -0.5453
   95MOL0     H12770   5.853   2.201   6.099  2.2087  2.6906  0.8771
   95MOL0     H12771   6.007   2.110   6.068 -1.1093 -1.7775 -1.5341
   95MOL0     H12772   5.943   1.944   6.239  0.6265  1.1749  2.4213
   95MOL0     H12773   5.792   2.019   6.273 -1.7877 -0.1874 -0.3770
   95MOL0     H12774   5.775   1.830   6.113  1.3124 -0.2130 -0.0162
   95MOL0     H12775   5.826   1.938   5.982 -1.4919 -3.1787 -0.7688
   95MOL0     H12776   5.598   1.909   6.295  5.7441  1.4924 -0.1815
   95MOL0     H12777   5.321   2.024   6.342 -1.6232  0.3452 -0.9925
   95MOL0     H12778   5.240   2.068   6.207 -3.8276 -2.7295  2.0529
   95MOL0     H12779   5.340   1.777   6.267  1.7914 -1.5851 -3.9260
   95MOL0     H12780   5.248   1.824   6.119  1.0971 -1.2450 -0.5280
   95MOL0     H12781   5.102   1.726   6.289  3.6883 -2.0339  0.5820
   95MOL0     H12782   5.057   1.893   6.262  0.0239 -0.6775 -1.8472
   95MOL0     H12783   5.049   1.834   6.486 -1.2788 -0.3719 -2.0481
   95MOL0     H12784   5.199   1.936   6.482  1.1597  1.2655 -3.4686
   95MOL0     H12785   5.167   1.485   6.591  5.5856 -0.5266  0.3096
   95MOL0     H12786   5.101   1.325   6.744  2.3969 -0.7957  0.0356
   95MOL0     H12787   5.203   1.357   6.883  0.9767  0.1018 -2.6384
   95MOL0     H12788   5.035   1.383   6.904  1.6173  0.1375  1.8319
   95MOL0     H12789   4.902   1.686   7.227 -1.6247 -1.4962  3.1714
   95MOL0     H12790   4.855   1.663   7.461  0.7784  0.1139 -0.7962
   95MOL0     H12791   5.022   1.810   7.781  0.7465  0.8570 -0.3410
   95MOL0     H12792   4.903   1.818   7.653 -1.5721 -1.6192  0.2292
   95MOL0     H12793   4.893   1.592   7.867  0.3140  1.2289  0.8140
   95MOL0     H12794   4.818   1.755   7.877 -0.1399 -0.1256  1.0859
   95MOL0     H12795   4.782   1.541   7.663 -0.1240 -1.6799  0.7923
   95MOL0     H12796   4.676   1.677   7.681 -2.1943  1.1476  2.5130
   95MOL0     H12797   4.613   1.591   7.920 -0.0749  2.6302 -2.5847
   95MOL0     H12798   4.538   1.512   7.781  0.2848 -1.5782 -1.0769
   95MOL0     H12799   4.779   1.406   7.916  0.7209 -0.4978 -0.6435
   95MOL0     H12800   4.660   1.315   7.805  2.3766 -0.2254 -1.0022
   95MOL0     H12801   4.638   1.371   8.103 -0.7021  1.6225 -0.0568
   95MOL0     H12802   4.489   1.377   8.004  1.3563  3.1800  0.1911
   95MOL0     H12803   4.575   1.166   8.123  0.2551  3.1276 -0.3309
   95MOL0     H12804   4.695   1.146   7.994 -0.6621 -0.7582 -1.2001
   95MOL0     H12805   4.501   1.152   7.820  0.4013 -0.8197 -0.5489
   95MOL0     H12806   4.391   1.127   7.956 -0.4081  1.1597 -2.4971
   95MOL0     H12807   5.272   1.682   7.553 -1.0970  1.9440  0.6801
   95MOL0     H12808   5.320   1.724   7.313 -0.0678  1.5164 -0.3884
   95MOL0     H12809   5.198   1.838   6.941 -1.7667 -0.5425 -0.0978
   95MOL0     H12810   5.246   1.897   6.724  0.5568  0.7755  1.2307
   95MOL0     H12811   6.635   2.091   6.618  0.7664  0.1748  0.1111
   95MOL0     H12812   6.792   1.905   6.660  0.4470  0.9339 -4.8520
   95MOL0     H12813   6.931   1.515   6.715  1.2066  0.3701  0.1910
   95MOL0     H12814   7.103   1.323   6.711  0.5593 -2.1892 -0.3053
   95MOL0     H12815   7.286   1.249   6.669  0.9847 -3.5989  0.2442
   95MOL0     H12816   7.388   1.160   6.562  2.6146  0.7178 -1.0687
   95MOL0     H12817   7.448   1.374   6.440  0.3678  3.5858 -1.9018
   95MOL0     H12818   7.525   1.362   6.599  0.4235  1.3483  0.2734
   95MOL0     H12819   7.390   1.534   6.686 -0.8520 -2.8015  0.8515
   95MOL0     H12820   7.273   1.536   6.551  0.6678 -0.9702  0.8341
   95MOL0     H12821   7.456   1.728   6.519  2.0543  1.3900 -3.0526
   95MOL0     H12822   7.466   1.615   6.396  2.6466  3.4952  0.3861
   95MOL0     H12823   7.837   1.595   6.600 -0.8703 -3.4124 -0.5652
   95MOL0     H12824   7.134   1.394   6.286  1.3949 -0.7095  0.2232
   95MOL0     H12825   6.960   1.571   6.302  1.4120  3.4470  1.8468
   96MOL0     O12826   1.729   0.987  11.377  0.4227  1.1307 -0.3371
   96MOL0     C12827   1.831   0.939  11.428  0.0724 -0.2924  0.2137
   96MOL0     O12828   1.931   1.012  11.491  0.7732  0.5215 -0.2436
   96MOL0     C12829   1.904   1.135  11.547 -0.4661 -0.7884  0.0810
   96MOL0     C12830   1.773   1.167  11.590  0.1503 -0.1866  0.6422
   96MOL0     C12831   1.746   1.303  11.635  0.8123  0.3555 -0.2027
   96MOL0     C12832   1.846   1.405  11.625 -0.7968 -0.1024 -0.7806
   96MOL0     O12833   1.808   1.529  11.670  0.6244  0.4244  0.5797
   96MOL0     C12834   1.904   1.623  11.710 -0.7966 -0.1050 -0.2129
   96MOL0     C12835   1.847   1.757  11.784 -0.9629  0.4368  0.3688
   96MOL0     C12836   1.944   1.883  11.789 -0.3544  0.5519 -0.2765
   96MOL0     C12837   2.091   1.848  11.840  0.6955 -0.1019 -0.5327
   96MOL0     C12838   2.161   1.990  11.840 -0.8717  0.5026 -0.3199
   96MOL0     C12839   2.160   2.037  11.993  0.3971  0.0496 -0.1307
   96MOL0     C12840   2.174   2.179  12.032  0.8376  0.2226  0.5495
   96MOL0     C12841   2.204   2.194  12.182  0.2564 -0.2622 -0.0758
   96MOL0     N12842   2.098   2.140  12.262  0.5640 -0.0692  0.7887
   96MOL0     C12843   1.996   2.206  12.330  0.6828  1.0740 -0.4898
   96MOL0     C12844   1.928   2.111  12.407 -0.7382 -0.5528 -0.6588
   96MOL0     C12845   1.817   2.127  12.505  0.3592 -0.0489  0.2898
   96MOL0     C12846   1.861   2.158  12.651 -0.6636  0.5697  0.2638
   96MOL0     C12847   1.967   2.056  12.705  0.0453 -0.9009  0.8609
   96MOL0     C12848   1.918   1.913  12.707  1.1290  1.2055  0.6048
   96MOL0     O12849   1.831   1.896  12.818  0.0339  0.4013  0.0816
   96MOL0     C12850   1.740   1.793  12.827  0.4851 -0.5105 -0.5964
   96MOL0     C12851   1.649   1.785  12.932  0.2877  1.4806 -0.8091
   96MOL0     C12852   1.558   1.673  12.942 -0.9075  0.3753  0.0981
   96MOL0     C12853   1.457   1.673  13.053  0.2030 -0.5842  0.4416
   96MOL0     C12854   1.571   1.566  12.855  0.8573 -0.0027 -0.3908
   96MOL0     C12855   1.499   1.433  12.865  0.5855 -0.4192 -0.1699
   96MOL0     O12856   1.450   1.401  12.983 -0.1304 -0.2915  0.2267
   96MOL0     C12857   1.355   1.305  12.995 -0.3356  0.6268 -0.6062
   96MOL0     C12858   1.227   1.342  12.977 -0.1803  0.4700 -0.3551
   96MOL0     C12859   1.121   1.247  13.001  0.1465 -0.3374  0.0655
   96MOL0     C12860   1.152   1.111  13.046  0.6790  0.0520 -0.0615
   96MOL0     O12861   1.044   1.032  13.070 -0.0162  0.4448  0.0882
   96MOL0     C12862   0.967   1.073  13.187  0.6781  0.1994 -0.9302
   96MOL0     C12863   0.875   0.968  13.241 -0.5864 -0.5133 -0.0908
   96MOL0     C12864   0.786   1.024  13.352 -0.2132 -0.6558 -0.6045
   96MOL0     C12865   0.860   1.040  13.482  0.9027  0.0264 -0.3397
   96MOL0     C12866   0.787   1.122  13.588 -0.4998 -1.4333 -0.2106
   96MOL0     C12867   0.880   1.140  13.710 -0.8770  1.3945 -0.2454
   96MOL0     C12868   0.839   1.255  13.793 -0.3817 -0.4344 -0.4177
   96MOL0     C12869   0.945   1.268  13.899  0.4958 -0.0090  0.0105
   96MOL0    Cl12870   0.910   1.417  13.999  0.3547 -0.1003 -0.6967
   96MOL0     C12871   1.287   1.081  13.061  0.4895 -0.1291  0.1555
   96MOL0     C12872   1.389   1.182  13.030 -0.7776  0.5183 -0.6182
   96MOL0     O12873   1.489   1.360  12.763  0.4468  0.2258  0.0121
   96MOL0     C12874   1.657   1.580  12.746 -0.9157  0.2763  0.0619
   96MOL0     C12875   1.743   1.684  12.735  0.3601 -0.1573 -0.6455
   96MOL0     N12876   1.993   1.989  12.385  0.4054  0.3072  0.0343
   96MOL0     N12877   2.091   2.005  12.306 -0.1795 -0.7400  0.1688
   96MOL0     C12878   1.974   1.369  11.582  0.0130 -0.1005 -0.1945
   96MOL0     C12879   2.000   1.235  11.548  0.1310  0.2763 -0.1685
   96MOL0     C12880   1.853   0.796  11.403  0.5681 -0.3186 -0.8377
   96MOL0     C12881   1.760   0.728  11.335  0.8300  0.2441 -0.3382
   96MOL0     C12882   1.778   0.589  11.318  1.0787  0.0495  0.8712
   96MOL0     C12883   1.886   0.516  11.365 -0.4319  0.2626 -0.2880
   96MOL0     O12884   1.910   0.388  11.326  0.4787 -0.0843 -0.5958
   96MOL0     C12885   1.988   0.287  11.402  0.2872  0.1275 -0.1642
   96MOL0     C12886   2.137   0.282  11.348 -0.0505  0.3267  0.8593
   96MOL0     C12887   2.154   0.223  11.198  0.6351 -0.5416 -0.0456
   96MOL0     C12888   2.097   0.309  11.083  0.1805 -0.4903  0.9094
   96MOL0     C12889   2.148   0.278  10.953  0.5114  0.0635  0.4328
   96MOL0     C12890   2.201   0.255  10.854 -1.1477 -0.1773  0.5186
   96MOL0     C12891   1.976   0.587  11.442  0.4692 -0.1030  0.8608
   96MOL0     C12892   1.960   0.722  11.449  0.0232 -0.5746 -0.3722
   96MOL0     H12893   1.689   1.097  11.590 -0.9230  1.0694  0.5490
   96MOL0     H12894   1.645   1.327  11.665  0.4450 -1.3298  0.0061
   96MOL0     H12895   1.972   1.573  11.780  0.2526 -1.3449 -2.0212
   96MOL0     H12896   1.968   1.645  11.625  0.6710 -2.6919  0.0890
   96MOL0     H12897   1.759   1.788  11.726 -2.4423 -1.8402  1.2937
   96MOL0     H12898   1.814   1.741  11.887  1.5810 -1.6032  0.9634
   96MOL0     H12899   1.945   1.913  11.684 -0.4805 -0.4866 -0.5794
   96MOL0     H12900   1.899   1.964  11.847 -2.0075 -0.4105 -0.1550
   96MOL0     H12901   2.073   1.819  11.944 -2.1477  0.1700 -0.8599
   96MOL0     H12902   2.126   1.768  11.774  0.2853 -1.6340  1.0314
   96MOL0     H12903   2.265   1.969  11.814 -1.2657  0.7704 -2.3209
   96MOL0     H12904   2.112   2.067  11.780  2.3760  2.3404 -0.8637
   96MOL0     H12905   2.068   2.012  12.047  1.6459 -2.9969  0.8392
   96MOL0     H12906   2.229   1.980  12.056 -2.8400 -0.4415  3.3355
   96MOL0     H12907   2.262   2.204  11.972 -0.3362  1.8659 -0.5770
   96MOL0     H12908   2.088   2.239  12.002  0.1645  0.2720  2.4741
   96MOL0     H12909   2.213   2.302  12.199  1.8144 -0.4723  0.5174
   96MOL0     H12910   2.300   2.157  12.217  2.2464  1.3403 -3.3401
   96MOL0     H12911   1.959   2.308  12.325  1.3279  1.3029 -0.5842
   96MOL0     H12912   1.760   2.212  12.466 -0.8158  1.0850  4.0907
   96MOL0     H12913   1.737   2.052  12.510 -0.9125  1.3435  2.6501
   96MOL0     H12914   1.772   2.150  12.713  0.7441 -1.2960  2.2131
   96MOL0     H12915   1.902   2.259  12.658 -0.9462  0.7054  0.0082
   96MOL0     H12916   1.988   2.083  12.808  1.8653  0.4269  0.1985
   96MOL0     H12917   2.056   2.073  12.643 -0.5512  0.8713  0.4308
   96MOL0     H12918   1.994   1.835  12.716 -1.2158 -1.4100 -0.7071
   96MOL0     H12919   1.871   1.883  12.613  2.5325 -1.2497  0.6102
   96MOL0     H12920   1.647   1.859  13.012  1.3730  1.0987 -0.4090
   96MOL0     H12921   1.359   1.645  13.014 -1.1516  1.3497  2.2280
   96MOL0     H12922   1.470   1.607  13.140 -0.9079  1.4490  2.2337
   96MOL0     H12923   1.439   1.774  13.090 -4.6740 -1.3440  0.7031
   96MOL0     H12924   1.202   1.443  12.945 -0.1085  0.0129 -1.9410
   96MOL0     H12925   1.019   1.281  12.987  0.8245  1.5415 -0.5322
   96MOL0     H12926   1.034   1.112  13.264 -0.9722 -1.5272  1.5531
   96MOL0     H12927   0.911   1.164  13.165  1.9492  0.8270 -1.6629
   96MOL0     H12928   0.814   0.937  13.156 -0.1953  0.5470 -0.7917
   96MOL0     H12929   0.930   0.884  13.283  1.8852  0.0397 -1.9933
   96MOL0     H12930   0.705   0.955  13.379 -0.5842  0.3285  0.9307
   96MOL0     H12931   0.743   1.118  13.316  0.8742 -0.3211 -1.0593
   96MOL0     H12932   0.884   0.936  13.509 -3.5750 -1.6787 -1.9556
   96MOL0     H12933   0.958   1.088  13.475  0.8625  0.5705  1.9230
   96MOL0     H12934   0.694   1.071  13.614 -1.1130 -1.7845 -2.7672
   96MOL0     H12935   0.755   1.217  13.543 -2.5273 -2.3220 -0.7756
   96MOL0     H12936   0.882   1.045  13.765  2.4400  1.5780  0.2024
   96MOL0     H12937   0.982   1.154  13.673  0.4281  0.3360  2.5983
   96MOL0     H12938   0.744   1.244  13.846 -0.6961 -3.6337 -1.4578
   96MOL0     H12939   0.835   1.347  13.734  2.1802  1.3695  1.9444
   96MOL0     H12940   1.041   1.273  13.848 -1.1087  1.9769 -3.0922
   96MOL0     H12941   0.934   1.188  13.973 -1.6320  0.8224  0.6728
   96MOL0     H12942   1.327   0.988  13.100 -0.0240  0.2394  1.6237
   96MOL0     H12943   1.493   1.160  13.052 -1.3566 -3.4522 -1.0394
   96MOL0     H12944   1.662   1.502  12.671  0.3542  2.7045 -2.5733
   96MOL0     H12945   1.829   1.674  12.669  0.7954  3.3902 -0.8140
   96MOL0     H12946   2.054   1.442  11.569  0.2934 -0.1405  1.1847
   96MOL0     H12947   2.100   1.215  11.510  0.1827  0.8613 -0.3556
   96MOL0     H12948   1.680   0.775  11.279 -3.6327 -4.2162  1.4499
   96MOL0     H12949   1.711   0.530  11.256  0.6739  1.1520  0.2353
   96MOL0     H12950   1.979   0.313  11.508 -2.2405 -0.2769 -0.2260
   96MOL0     H12951   1.949   0.186  11.392  1.9749 -0.3047 -4.9936
   96MOL0     H12952   2.196   0.222  11.418  0.7135  1.1818  0.9671
   96MOL0     H12953   2.173   0.384  11.360 -1.2910  0.5706  3.0186
   96MOL0     H12954   2.107   0.124  11.197 -1.0581  0.1882  1.7954
   96MOL0     H12955   2.262   0.220  11.181  0.9608  1.4797  1.2872
   96MOL0     H12956   2.118   0.412  11.114  1.3293 -1.3143  3.0894
   96MOL0     H12957   1.987   0.309  11.082  0.0665  2.6903  1.3460
   96MOL0     H12958   2.241   0.250  10.754 -0.1787 -0.5692  0.9131
   96MOL0     H12959   2.068   0.541  11.477  1.3031  0.9846  0.1675
   96MOL0     H12960   2.035   0.776  11.505 -0.6849 -1.3968  1.4321
   97MOL0     O12961  10.217   5.229   9.918  0.4790 -0.8545 -0.4081
   97MOL0     C12962  10.239   5.207  10.036 -0.1043 -1.4861 -0.0981
   97MOL0     O12963  10.344   5.125  10.084  0.3153  0.0426 -0.1184
   97MOL0     C12964  10.437   5.050  10.018 -0.4531  0.7197  0.1362
   97MOL0     C12965  10.556   5.032  10.088  0.1707 -0.1985  1.3889
   97MOL0     C12966  10.652   4.958  10.026 -0.3849  0.8250  2.0088
   97MOL0     C12967  10.642   4.909   9.891  1.2534  0.6897  0.1005
   97MOL0     O12968  10.726   4.826   9.831  0.0807 -0.0467  0.0867
   97MOL0     C12969  10.858   4.865   9.823 -0.6928 -0.2510 -0.1906
   97MOL0     C12970  10.947   4.761   9.759  0.5728 -0.3312  1.2010
   97MOL0     C12971  10.932   4.761   9.607 -1.2341 -0.2936  0.0848
   97MOL0     C12972  11.018   4.643   9.558  0.0651  0.1274  0.4869
   97MOL0     C12973  10.994   4.616   9.406  0.4138 -0.2547  0.7047
   97MOL0     C12974  11.069   4.496   9.350 -0.2972  0.5494  0.6405
   97MOL0     C12975  11.211   4.535   9.331  0.0259  1.0675  0.4456
   97MOL0     C12976  11.274   4.449   9.219  0.0139 -0.4491  1.1072
   97MOL0     N12977  11.301   4.314   9.269 -0.5391 -0.3696  0.7765
   97MOL0     C12978  11.352   4.289   9.392  0.0644 -0.3730 -0.1176
   97MOL0     C12979  11.388   4.160   9.384 -0.4705 -0.4856 -0.9233
   97MOL0     C12980  11.463   4.079   9.490 -0.0546 -0.9073 -0.4776
   97MOL0     C12981  11.429   4.118   9.638 -0.8204 -0.6142 -0.7077
   97MOL0     C12982  11.464   3.997   9.729 -0.7036 -0.4517 -0.2298
   97MOL0     C12983  11.530   4.051   9.853  0.4516  0.3443 -0.0635
   97MOL0     O12984  11.669   4.089   9.830  0.9212 -0.3033 -1.5070
   97MOL0     C12985  11.761   4.089   9.938 -0.0636  1.3853  0.4476
   97MOL0     C12986  11.858   3.997   9.948  0.3780  0.4493  0.3134
   97MOL0     C12987  11.951   3.985  10.045 -0.9289 -0.4365  0.6549
   97MOL0     C12988  12.045   3.867  10.031  0.3424  0.6946 -0.8932
   97MOL0     C12989  11.956   4.074  10.147  0.9167 -0.7555 -0.5429
   97MOL0     C12990  12.060   4.094  10.241 -0.2086  0.2901 -0.5159
   97MOL0     O12991  12.023   4.169  10.355  0.5042  0.1402  0.0029
   97MOL0     C12992  12.103   4.171  10.471  1.4228  0.5116  0.1468
   97MOL0     C12993  12.034   4.157  10.596  0.5371  0.0156  0.9478
   97MOL0     C12994  12.115   4.130  10.707 -0.8862 -0.8577 -0.2791
   97MOL0     C12995  12.254   4.124  10.710 -0.0685  0.2657 -0.0610
   97MOL0     O12996  12.319   4.093  10.833 -0.7329 -0.3528  0.1961
   97MOL0     C12997  12.462   4.069  10.826  0.4332 -0.1101  0.0476
   97MOL0     C12998  12.539   4.204  10.827  0.6836  0.1334  0.5840
   97MOL0     C12999  12.682   4.195  10.878 -1.1804 -0.1724 -1.1302
   97MOL0     C13000  12.788   4.180  10.760  1.2136 -0.5324 -1.4920
   97MOL0     C13001  12.935   4.191  10.816  0.5447 -0.2742  0.2172
   97MOL0     C13002  13.049   4.247  10.725  0.1401 -0.7665 -0.1919
   97MOL0     C13003  13.045   4.200  10.579 -0.1312 -0.1123  0.1255
   97MOL0     C13004  13.177   4.206  10.501  0.7747 -0.2253  0.2827
   97MOL0    Cl13005  13.199   4.376  10.442 -0.0345 -0.0541  0.4746
   97MOL0     C13006  12.322   4.147  10.586  0.6709  0.2123 -0.7730
   97MOL0     C13007  12.243   4.172  10.469 -1.2217 -0.1470  0.0422
   97MOL0     O13008  12.174   4.070  10.214  0.6533  0.3813 -0.3983
   97MOL0     C13009  11.856   4.180  10.148  0.1468  0.3679 -0.4821
   97MOL0     C13010  11.765   4.190  10.044 -0.7558 -0.0610  0.2574
   97MOL0     N13011  11.368   4.120   9.258 -0.4517 -0.7670 -0.2213
   97MOL0     N13012  11.323   4.218   9.183  0.8431  0.2847  0.5134
   97MOL0     C13013  10.525   4.942   9.826 -0.6161  1.0319 -0.7955
   97MOL0     C13014  10.418   5.002   9.887 -0.6225 -0.7145 -0.2886
   97MOL0     C13015  10.154   5.279  10.134  0.9171 -0.8295 -0.6619
   97MOL0     C13016  10.029   5.316  10.101 -0.1297 -0.1672  0.5401
   97MOL0     C13017   9.956   5.382  10.193  0.1757  0.1522  0.0227
   97MOL0     C13018  10.004   5.405  10.323  0.0501 -0.5010  0.4030
   97MOL0     O13019   9.919   5.458  10.420  0.0169  0.1981 -0.6846
   97MOL0     C13020   9.770   5.435  10.415 -0.4443  0.3682 -0.6753
   97MOL0     C13021   9.718   5.409  10.557 -0.3849 -0.0485  0.1198
   97MOL0     C13022   9.572   5.348  10.576  0.8739 -0.2259  0.3644
   97MOL0     C13023   9.559   5.200  10.541 -0.4803 -0.6683  0.5557
   97MOL0     C13024   9.418   5.178  10.526  0.1628 -0.2040  0.5531
   97MOL0     C13025   9.298   5.152  10.511  0.0302  0.3086  0.9569
   97MOL0     C13026  10.128   5.364  10.355 -0.5082  0.0532 -0.6740
   97MOL0     C13027  10.209   5.313  10.260 -0.1399 -0.0075  0.0577
   97MOL0     H13028  10.585   5.075  10.183  2.4207 -2.2835  1.7562
   97MOL0     H13029  10.739   4.929  10.085  0.9340 -0.6765 -0.4672
   97MOL0     H13030  10.866   4.962   9.773  0.0356 -0.8845 -1.3650
   97MOL0     H13031  10.902   4.878   9.922  0.5759  0.3287 -0.8204
   97MOL0     H13032  11.045   4.798   9.791 -0.0883  0.5170  2.3314
   97MOL0     H13033  10.931   4.662   9.804  0.8031 -2.1205 -2.3261
   97MOL0     H13034  10.829   4.750   9.571 -0.9515  5.1504 -3.7059
   97MOL0     H13035  10.986   4.849   9.570  3.3429 -2.3520  1.1267
   97MOL0     H13036  11.119   4.652   9.597 -0.1547 -0.0981  1.1295
   97MOL0     H13037  10.985   4.556   9.617  1.2028  1.5499  3.4364
   97MOL0     H13038  10.889   4.588   9.393  0.3602  0.8981 -2.0760
   97MOL0     H13039  11.019   4.710   9.355 -0.6219 -0.0026  0.6492
   97MOL0     H13040  11.047   4.402   9.401  2.4597 -2.7132 -3.4477
   97MOL0     H13041  11.020   4.478   9.254 -0.6894  1.5495  0.6466
   97MOL0     H13042  11.222   4.632   9.282  2.3528  1.0440  0.8307
   97MOL0     H13043  11.263   4.539   9.427 -1.6208  0.0246  1.4489
   97MOL0     H13044  11.352   4.494   9.156 -1.2315 -0.3960 -0.4639
   97MOL0     H13045  11.205   4.427   9.137  1.2263 -1.5394  0.3360
   97MOL0     H13046  11.377   4.356   9.473  1.5052 -1.0931  0.0780
   97MOL0     H13047  11.434   3.977   9.464 -1.5830  0.0425 -2.7875
   97MOL0     H13048  11.570   4.098   9.479 -0.6594  1.8088 -2.7251
   97MOL0     H13049  11.323   4.139   9.652 -1.0352 -0.7691 -1.9908
   97MOL0     H13050  11.490   4.205   9.664  1.2268 -1.1564 -3.3149
   97MOL0     H13051  11.538   3.922   9.699  0.2096  0.0697  0.6766
   97MOL0     H13052  11.370   3.953   9.764 -0.5005  1.2598  2.7715
   97MOL0     H13053  11.534   3.982   9.937  0.2858  2.8266  2.1221
   97MOL0     H13054  11.475   4.136   9.896  1.1036 -0.4575  2.5366
   97MOL0     H13055  11.851   3.925   9.867 -1.4994 -0.3366  1.1130
   97MOL0     H13056  12.133   3.895   9.973 -0.9711  0.5374 -3.0546
   97MOL0     H13057  12.066   3.837  10.134  2.4577 -2.4238 -2.0657
   97MOL0     H13058  11.999   3.781   9.982  1.4031  0.3369 -1.2942
   97MOL0     H13059  11.926   4.155  10.603  0.4950  1.7854  1.2823
   97MOL0     H13060  12.067   4.112  10.802  0.9074 -2.3963  0.3835
   97MOL0     H13061  12.496   4.033  10.924 -1.4808 -0.9720  0.4247
   97MOL0     H13062  12.496   4.020  10.734 -0.9531  0.4669 -0.7952
   97MOL0     H13063  12.534   4.249  10.728  0.2799  1.0307  0.9963
   97MOL0     H13064  12.489   4.281  10.887  0.8371  0.5543  0.1761
   97MOL0     H13065  12.695   4.108  10.943  2.1496  1.3579  0.4636
   97MOL0     H13066  12.699   4.278  10.947  0.5918 -0.7986 -0.7636
   97MOL0     H13067  12.749   4.089  10.715  2.2070 -1.2217 -0.9981
   97MOL0     H13068  12.774   4.278  10.712  0.1419  1.1032  1.7958
   97MOL0     H13069  12.967   4.091  10.846  1.8567 -1.3784 -4.1145
   97MOL0     H13070  12.935   4.251  10.908  1.8730  2.2280 -1.3007
   97MOL0     H13071  13.049   4.357  10.718 -2.9342 -0.7988 -3.3232
   97MOL0     H13072  13.151   4.225  10.758  0.6839  3.0804  1.2776
   97MOL0     H13073  12.970   4.264  10.532 -0.1788  0.4082  0.8917
   97MOL0     H13074  13.002   4.100  10.587 -1.4387  0.4351  0.1966
   97MOL0     H13075  13.169   4.137  10.416 -3.4182 -0.1854  0.4291
   97MOL0     H13076  13.263   4.177  10.561 -0.2010 -4.5853 -0.1159
   97MOL0     H13077  12.430   4.155  10.587  0.9314 -2.4300 -1.3070
   97MOL0     H13078  12.291   4.189  10.373 -0.8714 -1.6012 -0.0667
   97MOL0     H13079  11.839   4.252  10.227  0.0236 -1.5845  1.3515
   97MOL0     H13080  11.703   4.278  10.036 -1.1251 -0.4889 -3.0212
   97MOL0     H13081  10.511   4.909   9.723  0.7163  2.1194 -1.3570
   97MOL0     H13082  10.323   5.013   9.836 -0.8171 -1.5261 -0.1196
   97MOL0     H13083   9.988   5.294  10.004  1.4965  0.9914 -0.4595
   97MOL0     H13084   9.859   5.421  10.161  0.2723  0.0041 -0.4474
   97MOL0     H13085   9.727   5.525  10.370 -2.0669  0.5788  1.1518
   97MOL0     H13086   9.745   5.341  10.366  0.0790 -2.2407  3.5228
   97MOL0     H13087   9.717   5.509  10.601 -0.0457  0.5827 -1.2474
   97MOL0     H13088   9.781   5.344  10.619  0.6652  0.6427 -0.2008
   97MOL0     H13089   9.502   5.418  10.530 -0.5235 -1.3120  0.7746
   97MOL0     H13090   9.561   5.342  10.685  1.3512 -0.8767  0.3892
   97MOL0     H13091   9.614   5.145  10.618 -0.3810 -1.5592 -0.1316
   97MOL0     H13092   9.611   5.185  10.445 -0.5667  1.7774  0.0816
   97MOL0     H13093   9.194   5.130  10.497 -0.5432  2.2074  1.8548
   97MOL0     H13094  10.160   5.376  10.458  1.2171 -0.5621 -1.0960
   97MOL0     H13095  10.310   5.280  10.284 -0.3244 -0.8368 -0.2617
   98MOL0     O13096   3.699   6.683   8.450 -0.5768 -0.2626  0.3366
   98MOL0     C13097   3.669   6.603   8.355 -0.0103 -0.0052 -0.7659
   98MOL0     O13098   3.745   6.499   8.296 -0.6965  0.1456 -0.0658
   98MOL0     C13099   3.877   6.477   8.302 -0.1167 -0.0489 -0.1740
   98MOL0     C13100   3.956   6.513   8.410 -0.0830 -0.1471 -0.4808
   98MOL0     C13101   4.095   6.494   8.406 -0.4326 -0.0365 -0.0882
   98MOL0     C13102   4.141   6.391   8.312  0.2984 -0.1577 -0.4925
   98MOL0     O13103   4.274   6.356   8.301 -0.0051  0.1744 -0.6523
   98MOL0     C13104   4.325   6.282   8.420 -2.0290 -0.9727 -0.3271
   98MOL0     C13105   4.483   6.281   8.409  0.9368 -0.3567  0.1469
   98MOL0     C13106   4.543   6.173   8.502  0.1613 -0.5801 -0.0670
   98MOL0     C13107   4.555   6.221   8.660  0.4127 -0.7745 -0.4666
   98MOL0     C13108   4.680   6.312   8.664 -0.6016  0.1441  0.9076
   98MOL0     C13109   4.713   6.382   8.790  1.0804 -0.1744 -0.7101
   98MOL0     C13110   4.781   6.282   8.889 -0.0497  0.3597 -1.5306
   98MOL0     C13111   4.774   6.320   9.038  0.0892 -0.9348 -0.3141
   98MOL0     N13112   4.641   6.302   9.091 -0.5370  0.1090  0.0350
   98MOL0     C13113   4.574   6.389   9.169 -0.0014  0.8280 -0.1735
   98MOL0     C13114   4.466   6.323   9.203  0.0465 -0.5547  0.8293
   98MOL0     C13115   4.371   6.386   9.293  0.2869  0.0225 -0.3070
   98MOL0     C13116   4.315   6.512   9.219  0.8635  0.3486  0.6158
   98MOL0     C13117   4.177   6.485   9.147 -1.2183  0.9759  0.0853
   98MOL0     C13118   4.198   6.406   9.020  0.8309  0.0997 -0.9276
   98MOL0     O13119   4.067   6.388   8.963  0.0575  0.0927  0.5611
   98MOL0     C13120   4.064   6.312   8.844 -0.6126  0.2665  1.0042
   98MOL0     C13121   4.159   6.206   8.816  0.6085  0.7858 -0.7510
   98MOL0     C13122   4.150   6.116   8.711 -0.5174  0.1299  0.5791
   98MOL0     C13123   4.258   6.018   8.687  0.0065 -0.5713  0.2606
   98MOL0     C13124   4.056   6.138   8.611  0.1733  1.5134  0.2720
   98MOL0     C13125   4.024   6.046   8.499 -0.1715 -0.0571  0.4552
   98MOL0     O13126   3.953   6.089   8.394 -0.3345  0.6268 -0.0410
   98MOL0     C13127   3.965   6.008   8.284  0.4838 -0.1188 -0.5305
   98MOL0     C13128   4.070   6.015   8.189  0.0487  0.0632  0.1201
   98MOL0     C13129   4.055   5.950   8.071  0.1248  0.3647  0.9016
   98MOL0     C13130   3.952   5.860   8.048 -0.2608  0.1505 -0.8249
   98MOL0     O13131   3.962   5.795   7.927  0.3925  0.3264  0.4726
   98MOL0     C13132   3.887   5.675   7.902  1.1097 -0.4494 -0.0853
   98MOL0     C13133   3.893   5.651   7.753  0.6766 -1.4773  0.2013
   98MOL0     C13134   3.828   5.767   7.668 -0.3974 -0.5987  0.5394
   98MOL0     C13135   3.923   5.836   7.571 -0.5320  0.2102  0.7622
   98MOL0     C13136   3.844   5.944   7.488  0.4746 -0.0214  0.1898
   98MOL0     C13137   3.775   6.060   7.570  1.3824 -0.7561 -0.1162
   98MOL0     C13138   3.876   6.159   7.640  0.2476  0.0836 -0.7142
   98MOL0     C13139   3.912   6.119   7.781  0.5536 -0.2844 -0.3904
   98MOL0    Cl13140   3.979   6.267   7.854  0.0679 -0.1473 -0.2794
   98MOL0     C13141   3.846   5.854   8.139  0.1835 -0.8537  0.2137
   98MOL0     C13142   3.853   5.929   8.253 -0.7552  0.2433  1.3098
   98MOL0     O13143   4.046   5.928   8.524 -0.5787  0.3877 -0.1027
   98MOL0     C13144   3.963   6.246   8.634 -1.0774  0.2903  0.6223
   98MOL0     C13145   3.966   6.325   8.742  0.0796 -0.8130 -0.0014
   98MOL0     N13146   4.466   6.207   9.118  0.1104 -0.8726 -0.2572
   98MOL0     N13147   4.567   6.192   9.054  0.0621  0.5457  0.0549
   98MOL0     C13148   4.060   6.351   8.210  1.1625 -0.7980 -0.7917
   98MOL0     C13149   3.926   6.388   8.209 -0.1387 -0.0701  0.7803
   98MOL0     C13150   3.527   6.604   8.309  0.0502  0.5463  0.2678
   98MOL0     C13151   3.437   6.702   8.357  0.3491  0.4253  0.2666
   98MOL0     C13152   3.307   6.707   8.303 -0.5145  0.3996 -0.1348
   98MOL0     C13153   3.264   6.619   8.209 -0.0871 -0.1322 -0.7090
   98MOL0     O13154   3.137   6.639   8.167 -0.4303 -0.6136  0.0655
   98MOL0     C13155   3.100   6.556   8.053  1.0018  0.0244  0.1627
   98MOL0     C13156   3.047   6.413   8.086 -0.9431 -0.5190  0.3351
   98MOL0     C13157   2.966   6.358   7.962 -1.0263 -0.6500 -0.3597
   98MOL0     C13158   2.886   6.239   8.028 -0.1279  0.7280  0.5701
   98MOL0     C13159   2.799   6.180   7.932 -0.2114  0.2423 -0.6097
   98MOL0     C13160   2.707   6.153   7.847  0.4139  0.3509  0.4377
   98MOL0     C13161   3.351   6.515   8.171  0.3390 -0.5853  0.0042
   98MOL0     C13162   3.490   6.510   8.215 -0.3526 -0.7131 -0.0423
   98MOL0     H13163   3.931   6.573   8.497  0.6453 -0.2339 -0.1988
   98MOL0     H13164   4.174   6.532   8.469 -0.4581 -1.1136  0.6287
   98MOL0     H13165   4.293   6.319   8.518 -0.3114  0.8528 -0.4110
   98MOL0     H13166   4.289   6.178   8.418 -2.3592 -0.8685 -0.0077
   98MOL0     H13167   4.505   6.241   8.309  0.5868 -0.2031  0.0082
   98MOL0     H13168   4.522   6.382   8.424 -0.0374 -0.4259  4.6195
   98MOL0     H13169   4.503   6.071   8.497  4.3382 -2.4463  0.2363
   98MOL0     H13170   4.643   6.157   8.461  0.3475  1.0377 -0.3177
   98MOL0     H13171   4.463   6.272   8.691  0.2206  1.3239 -3.8969
   98MOL0     H13172   4.579   6.136   8.723 -0.8047  0.7288  2.1819
   98MOL0     H13173   4.775   6.261   8.642  0.6931  1.4096  3.1626
   98MOL0     H13174   4.662   6.393   8.593  0.0845 -1.1144 -0.7716
   98MOL0     H13175   4.779   6.466   8.767 -0.7420  2.2341  2.1477
   98MOL0     H13176   4.624   6.424   8.838  0.2356 -0.6930 -1.7697
   98MOL0     H13177   4.736   6.182   8.884 -0.2480  0.3947 -0.5766
   98MOL0     H13178   4.885   6.253   8.871 -0.2509 -1.1116 -0.4788
   98MOL0     H13179   4.800   6.426   9.045 -1.3362 -0.5463 -0.5081
   98MOL0     H13180   4.844   6.266   9.102 -0.2996 -2.6253 -1.2725
   98MOL0     H13181   4.605   6.486   9.206  1.2841 -0.4878  2.4620
   98MOL0     H13182   4.290   6.313   9.308 -0.5832  0.8292 -0.9106
   98MOL0     H13183   4.418   6.414   9.387 -1.4404 -0.0176  0.6098
   98MOL0     H13184   4.389   6.562   9.156  1.4544 -0.7346  0.4249
   98MOL0     H13185   4.291   6.588   9.294 -0.2887 -0.8869  1.5582
   98MOL0     H13186   4.133   6.584   9.135 -0.4961  1.3643  0.5640
   98MOL0     H13187   4.111   6.431   9.216 -0.1122 -0.3178  0.1723
   98MOL0     H13188   4.230   6.305   9.050 -1.7934  0.6197  4.9041
   98MOL0     H13189   4.265   6.455   8.949 -1.3605  2.6590 -1.3822
   98MOL0     H13190   4.235   6.179   8.888 -0.1526  1.5719  0.3815
   98MOL0     H13191   4.223   5.914   8.692 -3.4817  0.4287 -0.5657
   98MOL0     H13192   4.304   6.038   8.589  0.5082  2.8112  1.0758
   98MOL0     H13193   4.345   6.032   8.751  0.3494  3.0675 -0.7804
   98MOL0     H13194   4.156   6.078   8.206 -0.3704  0.2533  1.7587
   98MOL0     H13195   4.138   5.962   8.002 -0.2208  0.7207  0.5432
   98MOL0     H13196   3.930   5.593   7.960 -0.2963 -2.0825 -1.2258
   98MOL0     H13197   3.782   5.697   7.922  1.5459  0.6425  1.1258
   98MOL0     H13198   3.999   5.640   7.726  1.3396 -0.7822  2.2667
   98MOL0     H13199   3.850   5.556   7.721  2.9738 -1.8161 -2.2237
   98MOL0     H13200   3.780   5.834   7.741 -0.9306 -0.9263  0.5035
   98MOL0     H13201   3.750   5.708   7.618 -1.1808  1.8960 -1.3769
   98MOL0     H13202   3.997   5.895   7.626 -0.2423 -0.7512  1.4255
   98MOL0     H13203   3.978   5.759   7.517  2.2958  0.6130  2.8374
   98MOL0     H13204   3.787   5.895   7.409  0.6715  0.5596 -0.3256
   98MOL0     H13205   3.920   6.001   7.433 -0.1209 -1.4214 -2.2335
   98MOL0     H13206   3.729   6.127   7.497  0.5436 -0.7289  0.4147
   98MOL0     H13207   3.693   6.025   7.634 -1.7127  0.2949 -3.1806
   98MOL0     H13208   3.811   6.247   7.640 -3.1357 -2.2132 -0.1707
   98MOL0     H13209   3.961   6.178   7.574  1.2068  0.1918  0.5150
   98MOL0     H13210   3.981   6.038   7.806  2.0027  0.7291 -0.9570
   98MOL0     H13211   3.809   6.111   7.819 -0.7595 -1.0029 -3.6852
   98MOL0     H13212   3.766   5.780   8.141  0.6504 -1.4161 -0.7931
   98MOL0     H13213   3.783   5.937   8.335 -0.1911  1.4288  1.7002
   98MOL0     H13214   3.880   6.253   8.563 -0.0782  1.3944 -0.4858
   98MOL0     H13215   3.894   6.405   8.755  0.3547 -0.4651 -0.5435
   98MOL0     H13216   4.093   6.298   8.121 -2.4318 -0.9272 -2.2186
   98MOL0     H13217   3.867   6.363   8.121  0.3396  0.6604  0.2454
   98MOL0     H13218   3.461   6.770   8.438 -0.1066 -0.9346  1.5849
   98MOL0     H13219   3.244   6.789   8.336 -0.9481  0.3660 -0.8562
   98MOL0     H13220   3.021   6.611   8.001  0.6712  0.7405  1.3883
   98MOL0     H13221   3.177   6.548   7.976  0.5388  2.6482 -0.6671
   98MOL0     H13222   2.983   6.430   8.173 -0.8371 -2.0632  0.7520
   98MOL0     H13223   3.137   6.353   8.097  0.3360  1.1692 -0.4756
   98MOL0     H13224   3.041   6.346   7.883 -0.2229 -0.3798  0.3327
   98MOL0     H13225   2.893   6.435   7.937  0.8213  1.1500 -0.5516
   98MOL0     H13226   2.822   6.274   8.110 -0.1670 -0.5543  1.1066
   98MOL0     H13227   2.954   6.164   8.069 -1.3803 -1.1830 -0.6432
   98MOL0     H13228   2.626   6.134   7.779 -0.8112 -1.7042  2.3121
   98MOL0     H13229   3.317   6.437   8.104 -0.2733  1.8463 -2.7590
   98MOL0     H13230   3.555   6.434   8.175 -1.2260 -1.0484 -0.8490
   99MOL0     O13231   9.200  10.366  10.540 -0.3875 -0.1994  0.0791
   99MOL0     C13232   9.150  10.429  10.443  1.0879 -0.2384 -0.3345
   99MOL0     O13233   9.190  10.406  10.309 -0.2144 -0.1194 -0.0797
   99MOL0     C13234   9.293  10.321  10.285  0.4457 -0.5199 -0.8253
   99MOL0     C13235   9.274  10.184  10.277 -0.6457  0.5435  0.3379
   99MOL0     C13236   9.391  10.110  10.252  0.2582  0.1100  0.3138
   99MOL0     C13237   9.527  10.168  10.220 -0.5329 -0.5062 -0.2897
   99MOL0     O13238   9.635  10.090  10.200 -0.7782  0.9598 -0.5045
   99MOL0     C13239   9.738  10.135  10.112  0.4808 -0.0971 -0.6002
   99MOL0     C13240   9.740  10.068   9.975  0.4664 -0.2478 -0.4724
   99MOL0     C13241   9.669  10.154   9.860  0.6456  0.3512  0.0067
   99MOL0     C13242   9.715  10.125   9.719  0.5619  0.3583 -0.1246
   99MOL0     C13243   9.678  10.227   9.612 -0.0846 -1.0996  0.0854
   99MOL0     C13244   9.711  10.171   9.475 -0.8417 -1.0655 -0.0973
   99MOL0     C13245   9.636  10.262   9.380 -0.1589 -0.1879  0.6532
   99MOL0     C13246   9.645  10.204   9.233 -0.4247  0.5942 -0.2525
   99MOL0     N13247   9.760  10.258   9.153 -0.0170  0.4873 -0.7152
   99MOL0     C13248   9.777  10.378   9.094  0.1992  0.7200  0.1671
   99MOL0     C13249   9.898  10.390   9.044  0.2669  0.4099  0.1602
   99MOL0     C13250   9.959  10.502   8.970 -0.6762 -0.4049 -0.6773
   99MOL0     C13251   9.913  10.514   8.824  0.7611  0.3555  0.6702
   99MOL0     C13252   9.933  10.377   8.751 -0.6468  0.1185 -0.1510
   99MOL0     C13253   9.880  10.380   8.616  0.3261 -0.0579  0.2577
   99MOL0     O13254   9.736  10.410   8.615 -0.1410  0.7020  0.4787
   99MOL0     C13255   9.697  10.517   8.535  0.4522  0.1197 -0.3913
   99MOL0     C13256   9.653  10.630   8.603  0.0151 -0.0853  0.8861
   99MOL0     C13257   9.601  10.752   8.539 -0.3030  0.5782  1.5990
   99MOL0     C13258   9.553  10.864   8.629 -0.2503 -0.0784  1.6270
   99MOL0     C13259   9.610  10.750   8.396 -0.2023  0.5899 -0.9510
   99MOL0     C13260   9.548  10.856   8.310  0.2812 -0.6150  0.2189
   99MOL0     O13261   9.556  10.851   8.171 -0.9413  1.0492  0.8242
   99MOL0     C13262   9.524  10.948   8.081 -0.4287 -0.2192  0.3942
   99MOL0     C13263   9.498  11.084   8.108 -1.0493  0.4959  0.4071
   99MOL0     C13264   9.456  11.175   8.014 -0.1332  1.1845 -0.4506
   99MOL0     C13265   9.443  11.137   7.890  0.3366  1.1716  0.7693
   99MOL0     O13266   9.386  11.229   7.808 -0.1281  0.2094 -0.0348
   99MOL0     C13267   9.450  11.253   7.683  0.0131  1.0207  0.2645
   99MOL0     C13268   9.370  11.345   7.594  0.1205  0.5695  0.0391
   99MOL0     C13269   9.393  11.348   7.446 -0.1137 -0.0206  0.7719
   99MOL0     C13270   9.315  11.246   7.372 -0.1226  1.1724 -0.3034
   99MOL0     C13271   9.339  11.251   7.230  0.1899  0.0314  1.0202
   99MOL0     C13272   9.244  11.356   7.163  1.0889 -0.4134  0.2641
   99MOL0     C13273   9.227  11.332   7.009  0.3855  0.2712 -0.2730
   99MOL0     C13274   9.144  11.445   6.946  0.3308  0.0179 -0.5336
   99MOL0    Cl13275   8.977  11.447   6.988 -0.0807  0.0500 -0.3208
   99MOL0     C13276   9.459  11.002   7.855 -0.9182  0.3847  0.0523
   99MOL0     C13277   9.500  10.907   7.948  1.4027 -0.3455 -0.2424
   99MOL0     O13278   9.487  10.938   8.374  0.2372 -0.1673  0.0480
   99MOL0     C13279   9.662  10.644   8.327 -0.9360 -0.5986 -0.4801
   99MOL0     C13280   9.699  10.526   8.395 -0.5128 -0.0924 -1.2048
   99MOL0     N13281   9.967  10.277   9.083 -0.0032 -0.5241 -0.3240
   99MOL0     N13282   9.887  10.200   9.142 -0.3747  0.5481 -0.4969
   99MOL0     C13283   9.538  10.308  10.233  0.3995 -0.4154  0.9577
   99MOL0     C13284   9.418  10.381  10.261  0.7940  0.5267 -0.5223
   99MOL0     C13285   9.040  10.529  10.463  0.1338  0.4742  1.2875
   99MOL0     C13286   9.000  10.566  10.591 -0.9058  0.1441 -0.6918
   99MOL0     C13287   8.910  10.667  10.602 -0.3404  0.3352 -0.2576
   99MOL0     C13288   8.848  10.729  10.501  0.6292  0.1603 -0.0708
   99MOL0     O13289   8.764  10.845  10.516  0.7300  0.0806  0.4989
   99MOL0     C13290   8.729  10.897  10.646  0.5001  0.1941  0.5581
   99MOL0     C13291   8.605  10.988  10.637 -0.2824 -0.1859 -0.5602
   99MOL0     C13292   8.627  11.113  10.557  0.4276 -0.1807 -0.5240
   99MOL0     C13293   8.482  11.175  10.518  0.4656 -0.0287  0.6954
   99MOL0     C13294   8.496  11.309  10.476 -0.4162 -0.5520 -0.8463
   99MOL0     C13295   8.515  11.418  10.429 -0.3019  0.0873  0.0792
   99MOL0     C13296   8.873  10.681  10.372  0.2934  0.9276  0.0240
   99MOL0     C13297   8.973  10.581  10.347 -0.2160  0.8341 -0.7824
   99MOL0     H13298   9.178  10.137  10.295 -0.8392 -0.1294 -2.0494
   99MOL0     H13299   9.384  10.003  10.268 -0.4220 -0.1962 -1.6924
   99MOL0     H13300   9.736  10.244  10.110  0.2886 -0.0344  1.2504
   99MOL0     H13301   9.833  10.113  10.162  0.6469  2.0761  0.1671
   99MOL0     H13302   9.844  10.060   9.942  0.3601 -3.1113 -0.3244
   99MOL0     H13303   9.697   9.968   9.984 -2.4746  0.9541  0.1623
   99MOL0     H13304   9.562  10.147   9.880  0.3444  0.3386 -1.5429
   99MOL0     H13305   9.691  10.259   9.879 -1.4422  0.7876  0.2197
   99MOL0     H13306   9.824  10.121   9.720  0.5852  0.9704 -0.1652
   99MOL0     H13307   9.675  10.023   9.716  1.2889 -0.1127  2.7237
   99MOL0     H13308   9.571  10.249   9.611  0.3670  1.7307 -2.5756
   99MOL0     H13309   9.724  10.327   9.609 -1.8013 -0.2911 -1.5168
   99MOL0     H13310   9.816  10.168   9.444 -1.3624 -0.4381 -2.0221
   99MOL0     H13311   9.674  10.069   9.468 -2.4800 -0.4428 -0.9764
   99MOL0     H13312   9.529  10.268   9.401 -0.1926 -1.5579  0.9777
   99MOL0     H13313   9.684  10.360   9.378  1.8095 -1.0902 -1.1870
   99MOL0     H13314   9.551  10.221   9.180 -0.1417  2.2832 -0.2929
   99MOL0     H13315   9.661  10.096   9.238 -1.1463  0.5497  2.2304
   99MOL0     H13316   9.698  10.453   9.099 -0.1278  0.4588 -0.9441
   99MOL0     H13317   9.939  10.594   9.026  1.9762  0.7312 -1.4129
   99MOL0     H13318  10.068  10.499   8.981 -0.7988  2.7511  4.1995
   99MOL0     H13319   9.970  10.593   8.775  0.1043 -0.2830 -1.2304
   99MOL0     H13320   9.808  10.542   8.828  0.0190 -1.9849 -0.6011
   99MOL0     H13321   9.879  10.303   8.810 -0.4436 -0.0857 -0.2179
   99MOL0     H13322  10.038  10.345   8.746 -0.7746 -0.1676 -3.5220
   99MOL0     H13323   9.894  10.280   8.572 -0.1726 -0.5762  1.2579
   99MOL0     H13324   9.928  10.463   8.563 -2.4068  3.6506  3.1502
   99MOL0     H13325   9.653  10.623   8.711 -0.6356  1.5274  1.0078
   99MOL0     H13326   9.445  10.867   8.644 -0.0660  3.0182  3.1480
   99MOL0     H13327   9.595  10.870   8.729  1.8426  1.7399  0.7319
   99MOL0     H13328   9.585  10.961   8.589  0.3321  0.1892  2.7205
   99MOL0     H13329   9.525  11.102   8.212 -2.7863 -2.0739  1.3979
   99MOL0     H13330   9.428  11.276   8.042 -3.8938 -0.1917  1.4643
   99MOL0     H13331   9.554  11.280   7.700  0.2514  0.5995 -0.4966
   99MOL0     H13332   9.458  11.157   7.631  1.6916 -0.0856  2.4296
   99MOL0     H13333   9.268  11.308   7.606  0.4288 -0.2396  0.2207
   99MOL0     H13334   9.365  11.449   7.630 -0.7894 -0.0420  1.8071
   99MOL0     H13335   9.501  11.344   7.424 -0.3815  0.0253 -0.6571
   99MOL0     H13336   9.357  11.447   7.416  0.6000  0.1299  0.3921
   99MOL0     H13337   9.348  11.144   7.395 -0.3862  0.2376 -3.5550
   99MOL0     H13338   9.208  11.245   7.396 -0.2032 -1.4213 -0.4406
   99MOL0     H13339   9.309  11.156   7.185  2.1621 -0.1709  0.0081
   99MOL0     H13340   9.444  11.266   7.204  0.0765  2.6720  1.7674
   99MOL0     H13341   9.144  11.344   7.206  2.2781 -1.6333  2.9796
   99MOL0     H13342   9.281  11.459   7.166 -1.3908  0.9648 -5.1491
   99MOL0     H13343   9.181  11.236   6.984  0.4080  0.7926 -2.4508
   99MOL0     H13344   9.329  11.329   6.972 -0.5403 -4.4137 -3.2276
   99MOL0     H13345   9.150  11.427   6.839  0.0963 -1.5702 -0.3083
   99MOL0     H13346   9.171  11.548   6.972  1.3755 -0.6851  1.4056
   99MOL0     H13347   9.442  10.962   7.755  0.5529 -1.7380  0.5800
   99MOL0     H13348   9.511  10.801   7.930  0.4750 -0.9106  2.1716
   99MOL0     H13349   9.670  10.657   8.219 -0.8670  2.6307 -0.1975
   99MOL0     H13350   9.735  10.439   8.342 -2.5313 -2.5305  1.1240
   99MOL0     H13351   9.628  10.369  10.237  0.2278 -0.1274  0.4215
   99MOL0     H13352   9.422  10.488  10.276  1.9701  0.4299 -0.0167
   99MOL0     H13353   9.046  10.533  10.684  2.9085 -1.1310 -2.7840
   99MOL0     H13354   8.897  10.709  10.701 -0.4725  1.3482 -0.7005
   99MOL0     H13355   8.702  10.819  10.718 -1.4000 -0.3291 -0.6636
   99MOL0     H13356   8.823  10.937  10.686 -0.1676  0.8678  1.4774
   99MOL0     H13357   8.580  11.016  10.740  2.5376  0.4865  0.0198
   99MOL0     H13358   8.522  10.934  10.590 -0.5457 -1.4918  1.2686
   99MOL0     H13359   8.698  11.107  10.473  1.6913 -1.9784  0.6184
   99MOL0     H13360   8.681  11.184  10.621  1.7592 -1.2415 -0.4212
   99MOL0     H13361   8.408  11.166  10.598  1.3858  1.0519  1.7091
   99MOL0     H13362   8.439  11.118  10.435  1.3119  3.2198 -2.1936
   99MOL0     H13363   8.526  11.518  10.393 -0.4772 -1.0328 -3.4406
   99MOL0     H13364   8.808  10.722  10.295  3.0339  2.2335 -1.7398
   99MOL0     H13365   9.012  10.554  10.249 -0.1907  3.8206 -1.7040
  100MOL0     O13366   3.856   5.640   8.731  0.1427  0.2502 -0.4027
  100MOL0     C13367   3.802   5.730   8.670 -0.0176 -0.4352  0.4184
  100MOL0     O13368   3.745   5.731   8.542 -0.1118  0.2965 -0.3843
  100MOL0     C13369   3.750   5.615   8.468  0.2660 -0.8409  0.3512
  100MOL0     C13370   3.626   5.561   8.446 -0.7075 -0.2036 -0.8374
  100MOL0     C13371   3.605   5.447   8.368 -0.4943  0.4250 -0.7679
  100MOL0     C13372   3.719   5.392   8.302 -0.6138  0.6883  0.6336
  100MOL0     O13373   3.724   5.273   8.235 -1.0113  0.3072 -0.6288
  100MOL0     C13374   3.654   5.162   8.287  0.2415 -0.0973 -0.2740
  100MOL0     C13375   3.693   5.024   8.244  0.2518  0.0768  0.3317
  100MOL0     C13376   3.729   5.017   8.092  0.4374 -0.3215  0.7016
  100MOL0     C13377   3.718   4.867   8.041  0.5743 -1.1398  0.1283
  100MOL0     C13378   3.841   4.791   8.081 -0.3315  0.7402  0.7144
  100MOL0     C13379   3.835   4.642   8.069 -0.1678  0.4345  0.1105
  100MOL0     C13380   3.971   4.584   8.121 -0.8241 -0.2764 -0.1636
  100MOL0     C13381   3.949   4.560   8.268 -0.3478  0.2321  0.1944
  100MOL0     N13382   4.072   4.532   8.346 -0.3317 -0.1190  0.1157
  100MOL0     C13383   4.122   4.629   8.430  0.4679  0.3273  0.5958
  100MOL0     C13384   4.240   4.580   8.476  0.1638 -0.6271 -1.4294
  100MOL0     C13385   4.316   4.634   8.590 -0.3229  0.3478  0.8976
  100MOL0     C13386   4.232   4.643   8.719 -0.2793 -1.1395 -0.2171
  100MOL0     C13387   4.326   4.729   8.804  0.7234  0.6683 -0.8358
  100MOL0     C13388   4.256   4.758   8.939  0.5201  0.4464 -0.2022
  100MOL0     O13389   4.356   4.803   9.027 -0.7815  0.0374 -0.4402
  100MOL0     C13390   4.327   4.828   9.156 -0.8920  0.0653 -0.6841
  100MOL0     C13391   4.195   4.846   9.204 -0.1293 -0.4334  0.4328
  100MOL0     C13392   4.170   4.892   9.333  0.8499  0.4173 -0.0415
  100MOL0     C13393   4.030   4.912   9.375  0.0180 -0.8099 -0.3171
  100MOL0     C13394   4.273   4.906   9.426 -0.6369  0.1038 -0.5249
  100MOL0     C13395   4.245   4.942   9.565 -0.5879  0.0582  0.5355
  100MOL0     O13396   4.270   4.844   9.670  0.1621 -1.0477  0.4817
  100MOL0     C13397   4.245   4.886   9.797 -0.3160  0.5481 -0.0507
  100MOL0     C13398   4.346   4.895   9.897  0.4453  0.8365 -0.1966
  100MOL0     C13399   4.311   4.927  10.030  0.6226 -0.5177  0.2571
  100MOL0     C13400   4.183   4.954  10.068 -0.3739 -0.0249  0.1419
  100MOL0     O13401   4.152   4.981  10.197  0.3886  0.2866 -0.1269
  100MOL0     C13402   4.018   5.023  10.240 -0.7866  0.3450  0.6376
  100MOL0     C13403   4.008   5.078  10.383 -0.3072 -0.7650  0.6494
  100MOL0     C13404   3.872   5.129  10.413  1.3284 -0.5637  0.0548
  100MOL0     C13405   3.838   5.112  10.567 -0.3765  0.1233 -0.5052
  100MOL0     C13406   3.734   5.213  10.615 -0.1309 -0.0087  0.0392
  100MOL0     C13407   3.592   5.186  10.567  0.1574 -0.0547 -0.3378
  100MOL0     C13408   3.487   5.268  10.649 -0.4031  0.7254  0.8059
  100MOL0     C13409   3.370   5.318  10.568  0.0489  0.3770  0.1286
  100MOL0    Cl13410   3.274   5.176  10.515 -0.3499  0.0282  0.1615
  100MOL0     C13411   4.079   4.931   9.968  0.4482  0.7810  0.3280
  100MOL0     C13412   4.113   4.891   9.840 -0.3744  0.8012 -0.6429
  100MOL0     O13413   4.215   5.062   9.585  1.2580  0.3027  0.3164
  100MOL0     C13414   4.405   4.892   9.376 -1.2123  0.5423 -0.1110
  100MOL0     C13415   4.437   4.861   9.237  0.1429 -0.3788 -1.6255
  100MOL0     N13416   4.253   4.459   8.419 -0.8964 -0.2349  0.3928
  100MOL0     N13417   4.160   4.432   8.337 -0.4187 -0.0478 -0.5175
  100MOL0     C13418   3.846   5.456   8.329 -0.8458  0.1355 -1.1475
  100MOL0     C13419   3.867   5.552   8.424  0.5293 -1.5974 -0.2299
  100MOL0     C13420   3.774   5.852   8.753  0.6729 -0.9386  0.2314
  100MOL0     C13421   3.662   5.934   8.723  0.5281  0.0941 -0.1641
  100MOL0     C13422   3.633   6.050   8.791 -0.5230  0.0280 -0.1715
  100MOL0     C13423   3.706   6.101   8.900 -0.9173  0.5134 -0.2555
  100MOL0     O13424   3.681   6.221   8.957  1.0261 -0.2773 -0.0860
  100MOL0     C13425   3.761   6.271   9.066 -0.0529  0.5561 -0.5491
  100MOL0     C13426   3.733   6.417   9.105  0.3499 -0.2908 -0.4482
  100MOL0     C13427   3.829   6.459   9.226  1.1118  0.7821  0.6192
  100MOL0     C13428   3.753   6.514   9.349 -0.9113 -0.2184 -0.0521
  100MOL0     C13429   3.699   6.401   9.416  1.0589 -0.2578  0.1593
  100MOL0     C13430   3.649   6.303   9.473  0.1267 -0.0252 -0.7834
  100MOL0     C13431   3.810   6.011   8.943  0.1017 -0.5781  0.4500
  100MOL0     C13432   3.845   5.891   8.873 -0.0491 -0.3609 -0.0010
  100MOL0     H13433   3.539   5.604   8.493 -0.4891 -0.7985  0.1514
  100MOL0     H13434   3.504   5.410   8.353 -0.7446 -0.5006  2.4719
  100MOL0     H13435   3.672   5.163   8.395 -1.6679  0.7564  0.0899
  100MOL0     H13436   3.548   5.177   8.262 -0.4966 -1.5321  1.6958
  100MOL0     H13437   3.782   4.991   8.300 -2.4265 -2.3718  3.5626
  100MOL0     H13438   3.629   4.939   8.266  1.4507 -1.7546 -2.5513
  100MOL0     H13439   3.665   5.090   8.042  0.3929 -0.9553 -0.1934
  100MOL0     H13440   3.835   5.045   8.090  1.4004 -3.4671  1.6961
  100MOL0     H13441   3.629   4.817   8.078 -0.0143  0.0050  0.2875
  100MOL0     H13442   3.689   4.858   7.936 -0.5401 -2.4644  0.5187
  100MOL0     H13443   3.917   4.831   8.013 -1.6406  3.3753  0.6749
  100MOL0     H13444   3.885   4.823   8.176  2.2546 -1.1388  0.2556
  100MOL0     H13445   3.751   4.603   8.127 -1.2196 -0.6292 -2.0117
  100MOL0     H13446   3.818   4.622   7.963  2.1166  2.4002 -0.7087
  100MOL0     H13447   3.999   4.493   8.067  4.2010  1.8066 -1.7022
  100MOL0     H13448   4.050   4.657   8.099  1.3037 -2.5922 -0.7403
  100MOL0     H13449   3.889   4.470   8.282  1.8654 -1.2577  0.6365
  100MOL0     H13450   3.886   4.645   8.295 -0.2582  0.1110  0.7929
  100MOL0     H13451   4.081   4.725   8.462  1.4352  0.5085  1.3484
  100MOL0     H13452   4.401   4.567   8.605  1.2894  2.0709  0.0242
  100MOL0     H13453   4.369   4.726   8.563  3.4212 -2.1920 -1.3806
  100MOL0     H13454   4.213   4.552   8.777  0.4142 -0.1933  1.5781
  100MOL0     H13455   4.137   4.694   8.700  0.8707  1.3462  0.3078
  100MOL0     H13456   4.352   4.828   8.764  0.6798  1.2604  0.5629
  100MOL0     H13457   4.420   4.676   8.818 -0.8837 -1.7277  1.9949
  100MOL0     H13458   4.232   4.661   8.984  2.0094  1.3519  2.8407
  100MOL0     H13459   4.172   4.826   8.922 -0.4998 -0.6106  0.3981
  100MOL0     H13460   4.113   4.822   9.137 -0.9871  1.8289  0.6028
  100MOL0     H13461   3.958   4.903   9.293 -1.3294 -1.4123  0.8816
  100MOL0     H13462   3.997   4.848   9.457 -0.7531 -1.8236 -1.3786
  100MOL0     H13463   4.015   5.017   9.404 -1.5341 -0.2621 -2.7820
  100MOL0     H13464   4.448   4.875   9.866 -0.6051 -1.2073 -2.6559
  100MOL0     H13465   4.382   4.933  10.112  1.2982 -0.4284 -0.3245
  100MOL0     H13466   3.972   5.101  10.179 -0.3969  0.6020  0.6735
  100MOL0     H13467   3.936   4.950  10.232  0.9444 -1.5321 -4.4729
  100MOL0     H13468   4.043   5.003  10.455  2.4714 -4.7391 -4.1709
  100MOL0     H13469   4.065   5.171  10.378 -2.8326  0.8903  0.8692
  100MOL0     H13470   3.794   5.085  10.351 -0.8805  2.0465  0.7808
  100MOL0     H13471   3.864   5.236  10.391 -2.2737 -0.7272 -0.0847
  100MOL0     H13472   3.804   5.008  10.562  1.0241 -0.3179 -4.7793
  100MOL0     H13473   3.919   5.138  10.637  1.5774 -3.5956 -1.1352
  100MOL0     H13474   3.762   5.316  10.593 -1.3702 -0.2607 -3.2508
  100MOL0     H13475   3.718   5.207  10.723 -3.4092  2.3523 -0.1522
  100MOL0     H13476   3.583   5.199  10.459  1.8389  1.9371 -0.3013
  100MOL0     H13477   3.572   5.080  10.581  0.5434  0.0150  0.8467
  100MOL0     H13478   3.533   5.339  10.718  3.1514 -1.5877  1.0862
  100MOL0     H13479   3.448   5.192  10.717 -0.2771  0.6532  0.7992
  100MOL0     H13480   3.390   5.377  10.478 -1.8979 -1.3338 -1.5259
  100MOL0     H13481   3.326   5.389  10.638  0.0816 -1.5700  2.2290
  100MOL0     H13482   3.973   4.946   9.986 -0.0910  1.6537 -2.9126
  100MOL0     H13483   4.027   4.855   9.784  0.1541 -1.4893 -0.1153
  100MOL0     H13484   4.486   4.920   9.443 -1.3250  2.5254 -0.7270
  100MOL0     H13485   4.541   4.869   9.206 -0.4342  2.1397 -3.1856
  100MOL0     H13486   3.936   5.408   8.290  0.2457  1.2770 -0.1387
  100MOL0     H13487   3.966   5.580   8.459  0.7723 -4.2521  1.4897
  100MOL0     H13488   3.589   5.907   8.646  3.0440 -0.8718 -2.3685
  100MOL0     H13489   3.551   6.105   8.747 -0.8880  0.0206  0.4806
  100MOL0     H13490   3.748   6.206   9.154  4.3967  2.7702  2.0752
  100MOL0     H13491   3.867   6.274   9.041  1.3267  1.6334  4.4344
  100MOL0     H13492   3.631   6.444   9.135  0.0603 -1.3286 -0.4333
  100MOL0     H13493   3.748   6.480   9.017 -0.1825  2.3244  1.2210
  100MOL0     H13494   3.882   6.548   9.189  1.3566 -0.6870 -2.9265
  100MOL0     H13495   3.897   6.380   9.258  1.7519  1.5972  1.3229
  100MOL0     H13496   3.671   6.578   9.315 -1.5132 -1.6474 -1.4158
  100MOL0     H13497   3.824   6.561   9.417 -2.8172  1.4448  0.9118
  100MOL0     H13498   3.586   6.219   9.497 -1.8170  1.9062  1.3805
  100MOL0     H13499   3.850   6.022   9.043 -0.6659  0.9387  0.6205
  100MOL0     H13500   3.915   5.819   8.915  0.8337 -0.2603 -1.2533
  101MOL0     O13501   2.921   8.310   5.235 -0.2394 -0.4852  0.7667
  101MOL0     C13502   2.829   8.248   5.293 -0.2592  0.1856 -0.3051
  101MOL0     O13503   2.806   8.231   5.426  0.1728 -0.7803  0.0704
  101MOL0     C13504   2.904   8.260   5.510 -0.3290 -0.7562 -1.0971
  101MOL0     C13505   2.879   8.335   5.627 -0.5269 -0.8091  0.7761
  101MOL0     C13506   2.969   8.340   5.732  0.6065  0.5359 -0.2015
  101MOL0     C13507   3.089   8.270   5.728  0.5291 -0.1818 -0.1786
  101MOL0     O13508   3.171   8.283   5.831 -0.8892  0.2785 -0.0565
  101MOL0     C13509   3.302   8.322   5.805 -0.1384 -0.2805 -0.1681
  101MOL0     C13510   3.359   8.380   5.942 -0.2429  0.1635  0.4315
  101MOL0     C13511   3.348   8.535   5.971 -0.6951 -0.3792 -0.4107
  101MOL0     C13512   3.423   8.586   6.088  0.4780 -1.2011 -0.6277
  101MOL0     C13513   3.405   8.737   6.104 -0.8765  0.5565  0.2645
  101MOL0     C13514   3.459   8.781   6.247  0.3048 -0.2102 -0.8720
  101MOL0     C13515   3.417   8.926   6.272  1.0076 -0.3699  0.7004
  101MOL0     C13516   3.436   9.045   6.170 -0.9071 -0.0998  0.1961
  101MOL0     N13517   3.580   9.068   6.133  0.1220 -0.1906  0.2382
  101MOL0     C13518   3.659   9.178   6.176  1.2241  0.6778  0.5151
  101MOL0     C13519   3.762   9.176   6.087 -0.2410 -0.7278 -0.3629
  101MOL0     C13520   3.849   9.302   6.074  0.4558  0.6985 -0.4653
  101MOL0     C13521   3.935   9.322   5.949  0.2852  0.0140  0.3035
  101MOL0     C13522   4.064   9.400   5.987 -0.1719  0.6037 -0.3673
  101MOL0     C13523   4.038   9.544   6.026  0.5614 -0.5945 -0.5229
  101MOL0     O13524   4.130   9.579   6.129 -0.1613 -0.1445  0.0123
  101MOL0     C13525   4.137   9.714   6.153 -0.0927  0.4329  0.1242
  101MOL0     C13526   4.044   9.813   6.113 -0.5639 -0.0547  0.8711
  101MOL0     C13527   4.057   9.945   6.165  0.2959 -0.4768  0.2873
  101MOL0     C13528   3.947  10.046   6.134  1.0705 -0.3403 -0.7340
  101MOL0     C13529   4.168   9.977   6.253 -0.0057  0.7431 -0.2656
  101MOL0     C13530   4.189  10.112   6.313  0.4117  0.6631 -0.3746
  101MOL0     O13531   4.301  10.122   6.402  0.8544 -0.5177 -0.0765
  101MOL0     C13532   4.313  10.212   6.503  0.1213 -0.6017  0.0189
  101MOL0     C13533   4.437  10.244   6.543  0.0273  0.1864 -0.5928
  101MOL0     C13534   4.459  10.346   6.640 -1.2278 -0.0173 -0.0483
  101MOL0     C13535   4.354  10.423   6.689 -1.1518  0.2189  0.9938
  101MOL0     O13536   4.402  10.523   6.765 -0.1741  0.3169  0.0014
  101MOL0     C13537   4.322  10.642   6.771 -1.1877  0.3586 -0.2561
  101MOL0     C13538   4.427  10.765   6.802  0.3021  0.4899 -0.4406
  101MOL0     C13539   4.516  10.733   6.919  0.0841 -1.1429 -0.3948
  101MOL0     C13540   4.452  10.798   7.044  0.2365 -0.5377 -0.5419
  101MOL0     C13541   4.529  10.765   7.174  0.3354 -0.3811 -0.1952
  101MOL0     C13542   4.434  10.811   7.287  0.5018 -0.6667 -0.5047
  101MOL0     C13543   4.474  10.791   7.435 -0.1940  0.5122 -0.5349
  101MOL0     C13544   4.351  10.810   7.525 -0.2864  0.6472  0.6560
  101MOL0    Cl13545   4.278  10.970   7.505 -0.1312 -0.0467 -0.2934
  101MOL0     C13546   4.228  10.399   6.640 -1.3948 -0.9531  0.8422
  101MOL0     C13547   4.207  10.300   6.547 -0.3410  0.7768 -0.9299
  101MOL0     O13548   4.093  10.186   6.309 -0.0745 -0.5440  0.3322
  101MOL0     C13549   4.261   9.871   6.274  0.0034  0.2745 -0.0961
  101MOL0     C13550   4.253   9.749   6.222  0.3741 -0.3353 -0.2541
  101MOL0     N13551   3.751   9.066   6.006 -0.3700 -1.1059  1.1956
  101MOL0     N13552   3.645   9.002   6.033 -0.6824  0.4111 -0.0586
  101MOL0     C13553   3.125   8.202   5.609  0.1944 -0.4893 -0.1165
  101MOL0     C13554   3.030   8.203   5.500 -0.0538  0.3324 -0.4489
  101MOL0     C13555   2.711   8.223   5.217 -0.4910 -0.1952 -0.3608
  101MOL0     C13556   2.585   8.179   5.277 -0.5115 -0.1172 -0.4427
  101MOL0     C13557   2.470   8.181   5.205  0.4366 -0.1113 -0.2523
  101MOL0     C13558   2.467   8.219   5.064 -1.3884 -0.2285 -0.1776
  101MOL0     O13559   2.358   8.227   4.978  0.3930  0.0678 -0.3245
  101MOL0     C13560   2.228   8.217   5.038  0.5880  0.9556  0.6194
  101MOL0     C13561   2.187   8.068   5.032 -0.5228  0.1847 -0.0276
  101MOL0     C13562   2.045   8.056   5.083  0.3171  0.0888  0.1789
  101MOL0     C13563   2.008   7.915   5.122  0.5060  0.2134  0.5535
  101MOL0     C13564   1.999   7.829   5.003  0.8501  0.3626  0.0761
  101MOL0     C13565   1.985   7.746   4.911  0.7692 -0.3699 -0.1391
  101MOL0     C13566   2.593   8.237   5.003 -0.0615 -1.0825 -0.5435
  101MOL0     C13567   2.710   8.247   5.078 -0.0521  0.2263  0.0523
  101MOL0     H13568   2.779   8.376   5.636 -0.0254  0.8716 -0.6049
  101MOL0     H13569   2.951   8.398   5.822 -0.3461 -1.9691  1.3074
  101MOL0     H13570   3.378   8.249   5.775  2.0046  1.3699  0.9744
  101MOL0     H13571   3.292   8.399   5.728 -2.4093 -0.6214 -0.2900
  101MOL0     H13572   3.323   8.320   6.027 -0.3336  1.1994  1.1394
  101MOL0     H13573   3.468   8.367   5.941 -0.0620 -0.1780  4.5659
  101MOL0     H13574   3.367   8.607   5.892 -4.2107  3.0178  1.4485
  101MOL0     H13575   3.243   8.564   5.982 -0.0501  1.7067  0.7496
  101MOL0     H13576   3.369   8.550   6.176  3.0841  2.4082  2.7331
  101MOL0     H13577   3.527   8.551   6.091  0.1651 -2.1552 -0.3250
  101MOL0     H13578   3.463   8.791   6.030  1.4396 -2.7777 -0.5915
  101MOL0     H13579   3.298   8.762   6.103 -0.3876  2.8208 -0.6420
  101MOL0     H13580   3.415   8.717   6.324  3.6282 -4.1698 -1.8787
  101MOL0     H13581   3.566   8.763   6.254 -0.1356 -2.4600  1.6945
  101MOL0     H13582   3.312   8.931   6.302  0.4981 -1.3237 -0.8109
  101MOL0     H13583   3.478   8.957   6.358  2.8543 -0.1215 -0.6531
  101MOL0     H13584   3.396   9.131   6.225 -3.1322 -0.4034 -0.8525
  101MOL0     H13585   3.382   9.037   6.075 -1.0445  2.1902  0.0196
  101MOL0     H13586   3.631   9.247   6.254  1.0766 -0.0260  1.0967
  101MOL0     H13587   3.785   9.388   6.092  4.9193  3.6882  3.5864
  101MOL0     H13588   3.915   9.295   6.161  0.8877  1.0947 -0.7596
  101MOL0     H13589   3.881   9.377   5.872  1.0279 -0.7385 -0.7863
  101MOL0     H13590   3.960   9.222   5.913 -0.0632 -0.4035  1.1691
  101MOL0     H13591   4.130   9.398   5.899  1.0377  0.9782  0.5050
  101MOL0     H13592   4.112   9.348   6.070  0.3728  1.8431  0.1343
  101MOL0     H13593   3.934   9.558   6.058  1.4166  1.7251  1.6172
  101MOL0     H13594   4.051   9.617   5.945 -2.3375  0.4766 -0.1608
  101MOL0     H13595   3.961   9.792   6.046  1.4437 -1.9373 -1.2133
  101MOL0     H13596   3.860  10.009   6.079  2.6418 -0.3128 -3.4310
  101MOL0     H13597   3.904  10.088   6.225  1.5159 -0.5092 -0.4435
  101MOL0     H13598   3.994  10.128   6.079  3.5046 -0.7721  0.5804
  101MOL0     H13599   4.512  10.171   6.516 -2.7314 -1.9982 -2.9391
  101MOL0     H13600   4.557  10.379   6.671 -0.2083 -0.0907 -2.9367
  101MOL0     H13601   4.268  10.670   6.680  0.0419  2.5041 -0.4029
  101MOL0     H13602   4.240  10.644   6.842 -1.1600  3.7371 -0.1582
  101MOL0     H13603   4.487  10.790   6.714 -1.0649  0.3174 -1.4595
  101MOL0     H13604   4.358  10.849   6.811 -0.7155 -0.4718  1.1730
  101MOL0     H13605   4.613  10.782   6.909  0.4243 -1.5492  0.7351
  101MOL0     H13606   4.532  10.626   6.933 -1.9560 -1.5842 -1.0960
  101MOL0     H13607   4.461  10.907   7.039 -2.5206 -0.1675  0.5365
  101MOL0     H13608   4.347  10.767   7.043 -0.3205  1.1411  1.1285
  101MOL0     H13609   4.628  10.810   7.164  0.0869  0.3298  0.5418
  101MOL0     H13610   4.539  10.657   7.190  3.0846 -0.4172 -1.4919
  101MOL0     H13611   4.425  10.920   7.275  0.9848 -0.6275 -0.5207
  101MOL0     H13612   4.338  10.759   7.277  1.0313 -3.0186  4.0960
  101MOL0     H13613   4.548  10.870   7.455  1.0863 -1.0364  1.2582
  101MOL0     H13614   4.519  10.696   7.466 -1.4777 -0.5954 -1.9018
  101MOL0     H13615   4.385  10.798   7.628  1.9319  1.3193  0.0630
  101MOL0     H13616   4.266  10.742   7.514  0.5940 -0.4370  0.2502
  101MOL0     H13617   4.146  10.461   6.674 -1.1150  0.7429 -1.3839
  101MOL0     H13618   4.103  10.285   6.520 -0.0172  0.1548 -1.8973
  101MOL0     H13619   4.354   9.890   6.327  1.3020 -0.3471 -2.0330
  101MOL0     H13620   4.313   9.666   6.259  0.3164 -0.1103  0.3613
  101MOL0     H13621   3.218   8.150   5.587 -0.8741 -2.0876 -1.0576
  101MOL0     H13622   3.050   8.143   5.412 -0.5250  1.2891 -1.2233
  101MOL0     H13623   2.573   8.162   5.384 -0.6223 -1.0925 -0.5975
  101MOL0     H13624   2.374   8.161   5.251 -1.0874  0.5353 -2.9168
  101MOL0     H13625   2.217   8.264   5.136  0.5630  4.4051 -0.8644
  101MOL0     H13626   2.169   8.282   4.972 -1.3906 -0.8947  0.4660
  101MOL0     H13627   2.265   8.035   5.101  0.1158  1.3224 -0.1764
  101MOL0     H13628   2.210   8.007   4.944 -1.1814 -1.5704  0.9761
  101MOL0     H13629   1.977   8.089   5.004  0.8965  1.9627  0.4248
  101MOL0     H13630   2.041   8.125   5.167 -0.3992  2.1337 -1.4437
  101MOL0     H13631   1.908   7.906   5.168 -0.8052 -0.7399 -2.2719
  101MOL0     H13632   2.080   7.875   5.194 -0.4413  2.0536  2.6618
  101MOL0     H13633   1.965   7.675   4.833 -0.8060 -0.4217  0.2779
  101MOL0     H13634   2.603   8.264   4.898 -1.5073  0.0653 -0.4140
  101MOL0     H13635   2.791   8.280   5.014 -0.9874  3.3246  0.3072
  102MOL0     O13636   4.682   9.108   3.770 -0.4092  0.6679 -0.2364
  102MOL0     C13637   4.658   9.062   3.885 -0.2889  0.1410  0.1516
  102MOL0     O13638   4.690   9.133   4.003  0.6438  0.4851  0.6528
  102MOL0     C13639   4.748   9.257   3.983 -0.0071  0.0109 -0.2174
  102MOL0     C13640   4.840   9.305   4.081 -0.4429  0.6059 -0.0548
  102MOL0     C13641   4.902   9.434   4.066 -0.3413 -0.7201 -0.9999
  102MOL0     C13642   4.868   9.517   3.957 -0.5137  0.1254 -0.8912
  102MOL0     O13643   4.921   9.643   3.932  0.2880 -0.2787  0.7641
  102MOL0     C13644   4.978   9.733   4.021  0.4930  0.0558 -0.3113
  102MOL0     C13645   5.128   9.693   4.032  0.4758  0.1308  0.6482
  102MOL0     C13646   5.202   9.761   4.145 -0.5899 -0.4579  0.3522
  102MOL0     C13647   5.156   9.715   4.281  0.2543  0.3802  0.1130
  102MOL0     C13648   5.251   9.758   4.397  0.5136  0.2994 -0.4894
  102MOL0     C13649   5.184   9.734   4.522 -0.2238 -0.5180  0.4777
  102MOL0     C13650   5.265   9.736   4.639 -0.3120 -0.3146 -0.5706
  102MOL0     C13651   5.184   9.746   4.770 -0.0217  0.2089 -0.2580
  102MOL0     N13652   5.181   9.876   4.840 -0.0931 -0.5356  0.7642
  102MOL0     C13653   5.219   9.883   4.973  0.3297 -0.7393  0.4072
  102MOL0     C13654   5.170  10.006   5.015 -0.6626  0.3698 -0.6778
  102MOL0     C13655   5.204  10.062   5.151  0.1051 -0.2358  0.0017
  102MOL0     C13656   5.323  10.162   5.155 -0.9173 -0.6140  0.3145
  102MOL0     C13657   5.338  10.245   5.282 -0.0408 -1.0286 -0.3333
  102MOL0     C13658   5.344  10.181   5.422  0.2517 -0.1561 -0.4038
  102MOL0     O13659   5.449  10.085   5.405  0.3602 -0.8852 -1.0157
  102MOL0     C13660   5.500  10.012   5.517 -0.8080 -0.6471  0.0049
  102MOL0     C13661   5.596   9.917   5.484 -0.0237 -0.3949  0.2385
  102MOL0     C13662   5.657   9.838   5.581  0.0062  0.0556 -0.8515
  102MOL0     C13663   5.748   9.730   5.526  0.2936 -0.1131  0.3198
  102MOL0     C13664   5.631   9.855   5.719  0.2878  0.4402 -0.9924
  102MOL0     C13665   5.695   9.775   5.824 -0.3490  0.1269  0.2798
  102MOL0     O13666   5.707   9.837   5.938 -0.4090  0.6960 -0.6712
  102MOL0     C13667   5.718   9.771   6.058  0.1107  0.8155  0.1599
  102MOL0     C13668   5.617   9.683   6.102  0.6272  0.5501  0.7586
  102MOL0     C13669   5.641   9.600   6.211 -0.1257  1.3863 -0.1437
  102MOL0     C13670   5.772   9.567   6.257 -0.5586 -0.2715 -0.4301
  102MOL0     O13671   5.789   9.466   6.351 -0.5994 -0.0782 -0.5643
  102MOL0     C13672   5.789   9.325   6.298  0.1799  0.1552 -0.5758
  102MOL0     C13673   5.719   9.240   6.408  0.0886 -0.2297  1.1185
  102MOL0     C13674   5.735   9.275   6.555  0.0337 -0.2400 -0.5906
  102MOL0     C13675   5.893   9.254   6.577 -0.2759 -0.5761  0.1624
  102MOL0     C13676   5.945   9.238   6.716  0.9249 -0.7161 -0.3047
  102MOL0     C13677   6.094   9.203   6.730 -0.5570  1.2107  0.8511
  102MOL0     C13678   6.130   9.137   6.867  1.3322  0.1143  0.4083
  102MOL0     C13679   6.273   9.168   6.904  0.2276 -0.1567 -0.1181
  102MOL0    Cl13680   6.322   9.034   7.013 -0.0091  0.0397  0.1348
  102MOL0     C13681   5.875   9.643   6.198 -0.7998  0.8386  0.4660
  102MOL0     C13682   5.850   9.747   6.108  0.8444  0.2895  0.4198
  102MOL0     O13683   5.724   9.656   5.800  0.2747  0.3615  0.8414
  102MOL0     C13684   5.532   9.955   5.758 -0.3578  0.2764  0.5012
  102MOL0     C13685   5.471  10.027   5.657  0.0437  0.1186 -0.4131
  102MOL0     N13686   5.096  10.065   4.908 -0.1861  0.3476 -0.4467
  102MOL0     N13687   5.101   9.979   4.810  0.9802  0.7544  0.0129
  102MOL0     C13688   4.766   9.476   3.867  0.4305  0.3874 -0.1615
  102MOL0     C13689   4.703   9.354   3.887  1.1242 -0.8428 -1.2364
  102MOL0     C13690   4.584   8.924   3.899 -0.3136 -0.7662 -1.0594
  102MOL0     C13691   4.514   8.885   3.790 -0.3630 -0.1046  0.1386
  102MOL0     C13692   4.437   8.776   3.801 -0.4636  0.4459  0.8145
  102MOL0     C13693   4.424   8.706   3.921 -0.6821 -0.8301 -0.7251
  102MOL0     O13694   4.344   8.605   3.920 -0.4940 -0.1360  0.0068
  102MOL0     C13695   4.403   8.468   3.929  0.2406  0.6091  0.8136
  102MOL0     C13696   4.475   8.432   3.801  0.6225  0.1298  0.4036
  102MOL0     C13697   4.576   8.316   3.817 -0.1490  0.5360  0.7496
  102MOL0     C13698   4.650   8.285   3.682  0.8161  0.0070 -0.6686
  102MOL0     C13699   4.552   8.244   3.585 -0.3119  1.0791  0.4156
  102MOL0     C13700   4.463   8.190   3.511  0.5392 -1.1486 -1.0730
  102MOL0     C13701   4.506   8.746   4.037 -0.0331  0.2386  0.5038
  102MOL0     C13702   4.587   8.857   4.029 -0.5929  1.0968  0.9603
  102MOL0     H13703   4.885   9.235   4.151 -1.5152 -0.7000 -0.6358
  102MOL0     H13704   4.960   9.480   4.146 -0.6693 -0.2968 -1.0089
  102MOL0     H13705   4.975   9.822   3.957  1.4696 -0.3766 -1.0005
  102MOL0     H13706   4.926   9.751   4.115 -2.4724 -1.8323 -1.4343
  102MOL0     H13707   5.133   9.584   4.042  0.3620 -0.2060 -2.0706
  102MOL0     H13708   5.181   9.725   3.941  0.0877 -0.7150  0.1113
  102MOL0     H13709   5.311   9.759   4.130 -0.7071  2.1092 -1.4828
  102MOL0     H13710   5.181   9.867   4.129  1.7799 -0.1090 -1.0060
  102MOL0     H13711   5.064   9.771   4.299 -0.6690 -1.4321  1.3603
  102MOL0     H13712   5.129   9.609   4.275 -0.8319  0.7325 -2.3696
  102MOL0     H13713   5.344   9.702   4.381  1.4298 -0.0876  4.6390
  102MOL0     H13714   5.261   9.866   4.380 -3.1358  0.7617 -0.4324
  102MOL0     H13715   5.117   9.821   4.523  1.8487  1.1703  0.0196
  102MOL0     H13716   5.135   9.638   4.506 -1.0565 -0.1317  0.6619
  102MOL0     H13717   5.332   9.650   4.652  0.7018  0.9113  4.0158
  102MOL0     H13718   5.328   9.823   4.654 -1.0521  0.3102 -1.0145
  102MOL0     H13719   5.212   9.663   4.836  1.6629 -0.3459 -1.5990
  102MOL0     H13720   5.080   9.724   4.746  0.3132 -0.1542 -1.4281
  102MOL0     H13721   5.287   9.816   5.026 -1.1119 -3.4199 -0.9345
  102MOL0     H13722   5.112  10.099   5.197 -1.5035 -0.6212 -2.6883
  102MOL0     H13723   5.233   9.979   5.216 -1.6218 -0.3741  0.6328
  102MOL0     H13724   5.315  10.229   5.069  2.6235  1.6624  1.5267
  102MOL0     H13725   5.420  10.111   5.154  1.6869  3.7020  2.5900
  102MOL0     H13726   5.260  10.321   5.282  1.1135  0.3843 -4.1743
  102MOL0     H13727   5.425  10.310   5.264 -0.4627 -0.7983 -1.6225
  102MOL0     H13728   5.252  10.123   5.429  0.3363 -0.4328 -1.4823
  102MOL0     H13729   5.359  10.254   5.503  1.3344 -0.8939  0.0909
  102MOL0     H13730   5.628   9.909   5.380  4.7061 -4.7471  1.6225
  102MOL0     H13731   5.844   9.783   5.530 -0.7860  1.8113  2.5639
  102MOL0     H13732   5.759   9.632   5.573 -2.2208 -1.0806 -0.9104
  102MOL0     H13733   5.718   9.708   5.423  4.0028  1.5003 -1.3061
  102MOL0     H13734   5.516   9.687   6.061  0.4534 -0.4297  1.0827
  102MOL0     H13735   5.571   9.530   6.256  1.8769 -0.2652  0.5444
  102MOL0     H13736   5.760   9.310   6.194  3.6768 -1.9656 -1.4019
  102MOL0     H13737   5.886   9.275   6.301 -1.4469 -3.2125  1.5364
  102MOL0     H13738   5.611   9.252   6.395  0.4177  0.4106 -1.4879
  102MOL0     H13739   5.741   9.134   6.393  2.5583  0.0003  2.5987
  102MOL0     H13740   5.671   9.207   6.612 -1.9824  1.5683 -0.5730
  102MOL0     H13741   5.704   9.377   6.579  0.9325  0.0023 -0.4252
  102MOL0     H13742   5.919   9.169   6.514 -1.6032  0.2729 -1.6565
  102MOL0     H13743   5.942   9.338   6.525 -1.8632  0.4938  0.3024
  102MOL0     H13744   5.878   9.160   6.753 -3.0701  1.4565 -2.3413
  102MOL0     H13745   5.919   9.331   6.767  3.2767  0.3195 -0.8515
  102MOL0     H13746   6.125   9.133   6.652  1.6900 -0.1941  2.8789
  102MOL0     H13747   6.149   9.298   6.731 -0.5839  1.2640 -0.6952
  102MOL0     H13748   6.111   9.031   6.848  2.6552  0.3555 -2.7404
  102MOL0     H13749   6.066   9.179   6.945  0.1253  0.7565 -0.8918
  102MOL0     H13750   6.277   9.265   6.954 -0.1249 -0.0403 -0.3088
  102MOL0     H13751   6.333   9.154   6.813  1.3453 -5.1606  1.0964
  102MOL0     H13752   5.980   9.623   6.220 -1.1632 -0.1333  1.4199
  102MOL0     H13753   5.931   9.803   6.063 -0.8114  0.4281 -2.6831
  102MOL0     H13754   5.514   9.972   5.863  1.6705  0.2827  0.8991
  102MOL0     H13755   5.405  10.102   5.699 -0.3507 -0.9456  0.9450
  102MOL0     H13756   4.745   9.532   3.777  1.9617 -1.3707 -1.6981
  102MOL0     H13757   4.622   9.323   3.821  0.7647  2.2060 -2.4099
  102MOL0     H13758   4.535   8.934   3.696 -1.0383 -0.5805 -0.2708
  102MOL0     H13759   4.397   8.741   3.706 -1.6395  1.6921  0.8194
  102MOL0     H13760   4.476   8.464   4.010  0.2361 -0.8805  0.7846
  102MOL0     H13761   4.329   8.389   3.943  0.7401 -0.2057 -0.8255
  102MOL0     H13762   4.526   8.520   3.760 -0.3320 -0.6749 -2.7553
  102MOL0     H13763   4.397   8.404   3.730 -1.0058  0.6355  1.9216
  102MOL0     H13764   4.535   8.222   3.855 -1.5541 -0.0885 -2.0750
  102MOL0     H13765   4.647   8.342   3.897 -2.0935 -1.3284  3.2595
  102MOL0     H13766   4.718   8.203   3.708 -1.6118 -0.4920  6.1363
  102MOL0     H13767   4.714   8.369   3.652  3.4274 -0.6565  2.4993
  102MOL0     H13768   4.402   8.135   3.443  0.6534  1.6141 -3.6467
  102MOL0     H13769   4.490   8.687   4.126 -3.1143  2.6168  1.7004
  102MOL0     H13770   4.660   8.888   4.103  2.5587 -0.9816 -0.9909
  103MOL0     O13771   3.299   1.107   3.146 -0.4043 -0.7369 -1.0896
  103MOL0     C13772   3.307   0.983   3.122  0.0068 -0.0922  0.9103
  103MOL0     O13773   3.350   0.931   3.005  0.1126 -0.2728 -0.1034
  103MOL0     C13774   3.382   1.025   2.915 -0.8297 -0.8207 -0.8945
  103MOL0     C13775   3.293   1.112   2.851 -0.5853  0.3780 -0.8346
  103MOL0     C13776   3.335   1.190   2.749  0.1657 -0.0292  0.6378
  103MOL0     C13777   3.472   1.181   2.702 -0.5109 -1.4201 -0.1248
  103MOL0     O13778   3.525   1.265   2.607 -0.2562 -0.8552 -0.0266
  103MOL0     C13779   3.440   1.359   2.539  1.1516  0.5462 -0.1727
  103MOL0     C13780   3.485   1.422   2.409 -1.1503  0.6897  1.1004
  103MOL0     C13781   3.367   1.504   2.366  0.0211 -0.8053 -0.2124
  103MOL0     C13782   3.354   1.533   2.215 -0.8494 -0.1582  0.8865
  103MOL0     C13783   3.221   1.597   2.169 -0.2114  0.7039 -0.2215
  103MOL0     C13784   3.208   1.579   2.015  0.3431 -0.4569 -0.5012
  103MOL0     C13785   3.075   1.603   1.961 -0.6472  0.6515  0.5108
  103MOL0     C13786   3.067   1.557   1.818  0.8376  0.6278 -0.9714
  103MOL0     N13787   2.952   1.637   1.763  0.2768  0.3855 -0.8132
  103MOL0     C13788   2.825   1.643   1.808  0.3957  0.5746  0.3617
  103MOL0     C13789   2.759   1.743   1.757  1.0735 -1.7313  0.0072
  103MOL0     C13790   2.608   1.781   1.783 -0.7960 -0.0181  0.1217
  103MOL0     C13791   2.580   1.831   1.923  0.1300 -0.8327 -0.5467
  103MOL0     C13792   2.593   1.719   2.032  0.1362  0.2596 -0.6149
  103MOL0     C13793   2.520   1.755   2.160  0.1511  0.2689  0.0188
  103MOL0     O13794   2.557   1.676   2.268 -0.3011 -0.1379 -0.0694
  103MOL0     C13795   2.681   1.682   2.330  0.2859 -1.4954 -0.1791
  103MOL0     C13796   2.719   1.572   2.404  0.0940  0.0030  1.1337
  103MOL0     C13797   2.827   1.577   2.482  0.6712 -1.0972 -0.4668
  103MOL0     C13798   2.863   1.442   2.544  0.1974  0.1844 -0.0370
  103MOL0     C13799   2.907   1.697   2.490  0.7506  0.3069  0.2083
  103MOL0     C13800   3.022   1.709   2.580  0.8171 -0.6218 -0.7768
  103MOL0     O13801   3.006   1.637   2.694  0.3832 -0.4017  0.1534
  103MOL0     C13802   3.119   1.624   2.777  1.2433  0.5050 -0.0278
  103MOL0     C13803   3.187   1.506   2.797  0.6626 -0.1131 -0.3269
  103MOL0     C13804   3.296   1.498   2.892 -0.0464 -0.2073  0.2130
  103MOL0     C13805   3.341   1.616   2.946  0.1121 -0.4593  0.0318
  103MOL0     O13806   3.461   1.624   3.020 -0.6384  0.3752  0.0336
  103MOL0     C13807   3.444   1.599   3.160 -0.4258  0.1193  0.7148
  103MOL0     C13808   3.401   1.720   3.259 -0.4772  0.5933  0.8268
  103MOL0     C13809   3.536   1.789   3.289  0.4583 -0.6233 -0.1764
  103MOL0     C13810   3.517   1.925   3.368 -0.0167  0.5248  0.0390
  103MOL0     C13811   3.506   2.045   3.277  0.7601 -0.1197 -0.0902
  103MOL0     C13812   3.368   2.071   3.199 -0.0343  0.4593 -0.3983
  103MOL0     C13813   3.349   2.210   3.160  0.1520 -0.7415  0.3784
  103MOL0     C13814   3.419   2.264   3.041 -0.2320  0.3756  0.3650
  103MOL0    Cl13815   3.389   2.161   2.900 -0.5092  0.0511  0.0515
  103MOL0     C13816   3.276   1.737   2.926 -0.0372  0.0420  0.8336
  103MOL0     C13817   3.167   1.742   2.838 -0.3439  0.3244 -0.9531
  103MOL0     O13818   3.113   1.782   2.551 -0.2580 -0.0140 -0.3132
  103MOL0     C13819   2.886   1.802   2.401 -0.6758  0.3006  0.0312
  103MOL0     C13820   2.763   1.798   2.327 -0.0186  0.0215 -0.3020
  103MOL0     N13821   2.860   1.817   1.685 -0.6942  0.3826 -0.1727
  103MOL0     N13822   2.970   1.750   1.679  0.0182 -0.4984 -0.0415
  103MOL0     C13823   3.554   1.097   2.759 -0.5038 -0.8823 -0.2103
  103MOL0     C13824   3.516   1.018   2.864  0.7865 -0.3405 -0.1994
  103MOL0     C13825   3.257   0.889   3.221  0.2288 -0.1649 -0.2589
  103MOL0     C13826   3.281   0.754   3.222  0.1841 -0.7050  1.2675
  103MOL0     C13827   3.211   0.670   3.310 -0.4132  0.0837  1.2924
  103MOL0     C13828   3.120   0.721   3.409  1.7679 -0.8668  0.7185
  103MOL0     O13829   3.050   0.646   3.506  0.5725 -0.7206  0.2688
  103MOL0     C13830   3.039   0.505   3.496 -0.0540  0.8240 -1.2431
  103MOL0     C13831   2.962   0.445   3.372  0.9530 -0.8918 -0.5222
  103MOL0     C13832   2.953   0.298   3.391 -0.5281  0.3842  0.9828
  103MOL0     C13833   2.876   0.232   3.270  0.5793 -0.3547 -1.0350
  103MOL0     C13834   2.923   0.096   3.247  0.1168 -0.7063  0.6004
  103MOL0     C13835   2.967  -0.005   3.196 -1.0958 -0.3393 -0.3807
  103MOL0     C13836   3.105   0.858   3.402 -0.0086  0.0674  0.2378
  103MOL0     C13837   3.174   0.939   3.319 -1.0874  0.1822  0.0109
  103MOL0     H13838   3.191   1.118   2.888 -0.7551  2.4054 -1.4938
  103MOL0     H13839   3.262   1.255   2.702 -0.8486 -0.7899  1.1346
  103MOL0     H13840   3.350   1.303   2.513  0.5668  0.6448  1.5031
  103MOL0     H13841   3.421   1.442   2.607  1.9166  3.5123 -3.3236
  103MOL0     H13842   3.576   1.481   2.405 -1.6609  1.5075 -3.7750
  103MOL0     H13843   3.488   1.332   2.348 -0.2656 -0.1300  2.2974
  103MOL0     H13844   3.276   1.452   2.397 -0.8427 -1.2087 -3.1360
  103MOL0     H13845   3.365   1.600   2.419  2.4208  0.0836 -1.5451
  103MOL0     H13846   3.426   1.609   2.184 -3.7372  2.9031  1.0370
  103MOL0     H13847   3.376   1.442   2.158 -1.3694  0.6238 -0.5993
  103MOL0     H13848   3.148   1.538   2.225  1.1865 -0.5947  0.3055
  103MOL0     H13849   3.204   1.702   2.195  2.6194  1.6178 -1.6189
  103MOL0     H13850   3.279   1.641   1.960  2.1325 -1.5410  0.4774
  103MOL0     H13851   3.234   1.477   1.984  0.1351 -0.6832  0.0431
  103MOL0     H13852   3.007   1.543   2.023 -1.8319 -0.5058 -1.7654
  103MOL0     H13853   3.050   1.708   1.977  2.6237  1.6236 -0.0563
  103MOL0     H13854   3.042   1.451   1.807 -3.4371  1.2435  0.7190
  103MOL0     H13855   3.159   1.584   1.765 -0.1022 -1.9779 -4.3067
  103MOL0     H13856   2.783   1.571   1.879  1.2084  2.6317  3.0981
  103MOL0     H13857   2.606   1.868   1.716  0.7594  0.6014  0.8517
  103MOL0     H13858   2.529   1.709   1.757 -1.6264  1.1071 -0.5929
  103MOL0     H13859   2.477   1.866   1.931  0.3632  0.7521 -3.2963
  103MOL0     H13860   2.640   1.916   1.958 -1.0090 -1.8620  4.8618
  103MOL0     H13861   2.700   1.697   2.035 -0.0496 -0.8248 -1.3289
  103MOL0     H13862   2.550   1.626   1.994 -0.3977 -0.3421  1.3710
  103MOL0     H13863   2.413   1.739   2.147  0.7806 -4.9313 -0.8939
  103MOL0     H13864   2.544   1.857   2.192  3.5857 -0.7512  1.1940
  103MOL0     H13865   2.663   1.479   2.408  1.4376 -0.8726  0.3742
  103MOL0     H13866   2.824   1.357   2.488 -0.2953  1.2015 -1.2883
  103MOL0     H13867   2.972   1.437   2.542  0.3725  2.8943 -0.3128
  103MOL0     H13868   2.818   1.438   2.644  1.4515 -1.7548  0.4984
  103MOL0     H13869   3.132   1.428   2.746 -1.7632 -1.0583  3.3370
  103MOL0     H13870   3.340   1.400   2.906  1.0830  0.0349 -1.3666
  103MOL0     H13871   3.365   1.524   3.163  1.4181 -1.8755  2.6767
  103MOL0     H13872   3.539   1.555   3.192  1.2504  2.2114 -1.0138
  103MOL0     H13873   3.334   1.795   3.215 -2.1367 -0.4491  1.5090
  103MOL0     H13874   3.360   1.675   3.349  0.5470 -1.3836  0.3657
  103MOL0     H13875   3.576   1.813   3.190 -1.4933 -0.0241 -0.8743
  103MOL0     H13876   3.601   1.730   3.354 -2.4361 -1.1257  2.5054
  103MOL0     H13877   3.428   1.917   3.432  0.7354  0.6551  1.1205
  103MOL0     H13878   3.600   1.944   3.436  0.5330 -4.3172  1.1018
  103MOL0     H13879   3.579   2.047   3.195 -0.0954 -0.1186 -0.8659
  103MOL0     H13880   3.530   2.127   3.346  1.0145  0.6259 -1.0390
  103MOL0     H13881   3.369   2.005   3.112 -1.6534 -1.8013  1.1840
  103MOL0     H13882   3.285   2.034   3.260  0.4745 -0.7092 -0.3895
  103MOL0     H13883   3.354   2.280   3.244  1.0839  1.0105 -1.0742
  103MOL0     H13884   3.244   2.215   3.129  0.6045  3.5481 -1.0592
  103MOL0     H13885   3.526   2.255   3.062 -0.2055 -0.8747 -0.1856
  103MOL0     H13886   3.394   2.368   3.019  1.3372  0.6662 -0.1603
  103MOL0     H13887   3.322   1.813   2.988  0.3755  0.2963  0.2269
  103MOL0     H13888   3.129   1.835   2.797  2.0236  0.6886 -2.5113
  103MOL0     H13889   2.944   1.892   2.416 -2.0896  1.5494 -1.6713
  103MOL0     H13890   2.737   1.884   2.266  2.2977 -0.2083 -1.7438
  103MOL0     H13891   3.657   1.105   2.725  0.5957 -2.5846  2.3909
  103MOL0     H13892   3.595   0.957   2.907 -0.1961 -0.8701  0.9247
  103MOL0     H13893   3.356   0.706   3.160  0.0750  0.1956  0.4154
  103MOL0     H13894   3.247   0.568   3.319 -0.2474  0.1270  1.1255
  103MOL0     H13895   3.138   0.458   3.500 -1.6634 -2.9061 -0.7057
  103MOL0     H13896   2.985   0.470   3.585 -1.2359  0.4634 -2.0864
  103MOL0     H13897   3.017   0.468   3.280  2.3930  2.6956  1.0471
  103MOL0     H13898   2.865   0.492   3.351  0.5399 -2.1424 -1.5054
  103MOL0     H13899   2.908   0.268   3.486  0.6737 -1.3255  1.0596
  103MOL0     H13900   3.048   0.244   3.403 -1.6911 -1.3802  2.9306
  103MOL0     H13901   2.898   0.296   3.183  0.1833  1.6177  0.2505
  103MOL0     H13902   2.769   0.225   3.290  0.9490  0.6045  1.7563
  103MOL0     H13903   2.994  -0.097   3.150  0.1476  0.4235 -1.2384
  103MOL0     H13904   3.040   0.908   3.473 -3.7682 -2.7186 -0.9345
  103MOL0     H13905   3.175   1.046   3.334  1.8083  0.3565 -0.8381
  104MOL0     O13906   4.921  11.062  11.310  0.0346 -0.0649 -0.8193
  104MOL0     C13907   5.011  11.143  11.294 -1.3205 -0.2044  0.7842
  104MOL0     O13908   5.040  11.258  11.372 -0.1179 -0.8248  0.5253
  104MOL0     C13909   4.937  11.321  11.451 -0.0737 -0.8239 -0.2078
  104MOL0     C13910   4.979  11.405  11.542  0.5413 -0.2096 -0.0210
  104MOL0     C13911   4.884  11.465  11.630 -1.1445 -0.8946 -0.2476
  104MOL0     C13912   4.753  11.447  11.627 -0.3665  0.3071 -0.4887
  104MOL0     O13913   4.675  11.526  11.714  0.4908  0.4459  0.3541
  104MOL0     C13914   4.575  11.602  11.643  0.8423  1.3325 -0.3389
  104MOL0     C13915   4.531  11.715  11.724  0.7409  0.0913 -1.4161
  104MOL0     C13916   4.416  11.794  11.660 -0.4110  0.6577 -0.1559
  104MOL0     C13917   4.431  11.931  11.705  0.1083 -0.2188  0.5743
  104MOL0     C13918   4.305  12.004  11.683 -0.0059  0.0663 -0.0993
  104MOL0     C13919   4.191  11.966  11.779 -0.2685  0.0108 -0.2135
  104MOL0     C13920   4.070  12.063  11.762  0.3049  0.5932 -0.6570
  104MOL0     C13921   3.945  12.019  11.827 -0.3716  0.4833  0.5496
  104MOL0     N13922   3.833  12.104  11.785 -0.0011 -0.4859 -0.4291
  104MOL0     C13923   3.791  12.124  11.654 -1.0292 -0.2873 -0.8802
  104MOL0     C13924   3.690  12.203  11.662 -0.4946 -0.3536  0.0357
  104MOL0     C13925   3.606  12.254  11.559  0.3868  0.8089 -0.2371
  104MOL0     C13926   3.528  12.142  11.492 -0.6350  0.0525 -0.6309
  104MOL0     C13927   3.416  12.195  11.407  0.2633  1.2066 -0.4450
  104MOL0     C13928   3.365  12.091  11.315 -0.0522  0.0229  0.3012
  104MOL0     O13929   3.312  11.981  11.389 -0.1813  0.5107 -0.3967
  104MOL0     C13930   3.255  11.875  11.319  0.3951 -0.2226 -1.3006
  104MOL0     C13931   3.276  11.843  11.189 -0.1235 -0.2409  0.6858
  104MOL0     C13932   3.233  11.713  11.144  0.6879  0.3579  0.3512
  104MOL0     C13933   3.292  11.670  11.013 -0.5542 -0.4450  1.5129
  104MOL0     C13934   3.137  11.639  11.218  1.0461 -0.2302  0.1044
  104MOL0     C13935   3.083  11.520  11.159 -0.9430  0.5270 -0.1915
  104MOL0     O13936   3.080  11.506  11.026  0.0772  0.4782  0.3945
  104MOL0     C13937   3.029  11.402  10.959 -0.9429  0.9423  0.6923
  104MOL0     C13938   2.934  11.308  11.000 -1.1404 -0.2524  0.1492
  104MOL0     C13939   2.895  11.206  10.905 -0.2756  0.0215  0.1836
  104MOL0     C13940   2.954  11.198  10.776  0.2016 -0.0347 -0.3501
  104MOL0     O13941   2.912  11.097  10.694  0.0986 -0.0018  0.2063
  104MOL0     C13942   2.944  10.957  10.735 -0.3108  0.3253  0.4467
  104MOL0     C13943   2.817  10.871  10.722 -0.5741  0.1618 -0.0713
  104MOL0     C13944   2.772  10.864  10.579 -0.6377 -0.2491 -0.3452
  104MOL0     C13945   2.668  10.753  10.554  0.7350  0.1540 -0.5234
  104MOL0     C13946   2.589  10.764  10.419  0.0981  0.3211 -0.2315
  104MOL0     C13947   2.684  10.754  10.291 -0.0314 -0.1847 -0.4320
  104MOL0     C13948   2.752  10.628  10.266 -0.2508  0.2570 -0.3798
  104MOL0     C13949   2.662  10.511  10.237 -0.3359 -0.5654 -0.0431
  104MOL0    Cl13950   2.610  10.446  10.402  0.3125  0.1140  0.3645
  104MOL0     C13951   3.040  11.299  10.734 -0.7890 -0.6527  0.0074
  104MOL0     C13952   3.073  11.407  10.822 -1.2751  0.2173  0.4567
  104MOL0     O13953   3.042  11.440  11.238  0.1736  0.7603  0.6616
  104MOL0     C13954   3.104  11.676  11.349  0.1797  0.0881 -0.0490
  104MOL0     C13955   3.161  11.796  11.399 -0.6080 -0.1124  0.4284
  104MOL0     N13956   3.673  12.229  11.798  0.5491 -0.2104  0.5542
  104MOL0     N13957   3.766  12.185  11.871 -0.6482 -0.1152 -1.0133
  104MOL0     C13958   4.702  11.358  11.532 -0.2571 -0.0727 -1.4663
  104MOL0     C13959   4.794  11.296  11.449 -0.0122  0.4942  0.8964
  104MOL0     C13960   5.087  11.122  11.170 -1.1967  0.0423 -0.1674
  104MOL0     C13961   5.211  11.184  11.154 -0.3235 -0.2035  0.7110
  104MOL0     C13962   5.304  11.160  11.054 -0.3900  1.4693  0.2281
  104MOL0     C13963   5.269  11.052  10.970 -0.5901 -0.2554  0.4733
  104MOL0     O13964   5.345  11.010  10.868  0.5559 -0.3151  0.2020
  104MOL0     C13965   5.434  11.105  10.809 -0.5787 -0.5805 -1.2193
  104MOL0     C13966   5.470  11.055  10.670  0.0327  0.2047 -0.0332
  104MOL0     C13967   5.578  10.947  10.676 -0.3859 -0.8115  0.1628
  104MOL0     C13968   5.606  10.869  10.545  0.4030 -0.2787 -1.0963
  104MOL0     C13969   5.639  10.965  10.434 -0.8040 -0.5158 -0.0380
  104MOL0     C13970   5.684  11.054  10.354 -1.0704 -0.0512 -0.1753
  104MOL0     C13971   5.151  10.983  10.987 -0.3320 -1.2483 -0.3065
  104MOL0     C13972   5.056  11.028  11.075  0.6202  0.5929 -1.0813
  104MOL0     H13973   5.081  11.438  11.554 -0.0879  1.3340  1.5108
  104MOL0     H13974   4.922  11.540  11.699  0.9158 -0.5841 -1.6407
  104MOL0     H13975   4.621  11.627  11.547  3.0054 -1.8170 -0.2560
  104MOL0     H13976   4.487  11.537  11.629  0.8948  1.3250 -0.6411
  104MOL0     H13977   4.490  11.681  11.820  1.4298  1.0712 -0.7545
  104MOL0     H13978   4.615  11.783  11.740 -1.3505  2.5030  0.0455
  104MOL0     H13979   4.408  11.796  11.551 -2.4670  0.8088 -0.0350
  104MOL0     H13980   4.325  11.738  11.682 -0.4250  0.5627 -0.4445
  104MOL0     H13981   4.449  11.938  11.813  1.5556 -2.8060  0.5704
  104MOL0     H13982   4.515  11.981  11.656 -0.5482 -0.8420 -1.2749
  104MOL0     H13983   4.335  12.108  11.698  1.0700  0.0353 -1.7448
  104MOL0     H13984   4.278  12.019  11.578 -1.3087  1.3367  0.3759
  104MOL0     H13985   4.153  11.871  11.740  0.7640  0.1820 -1.7305
  104MOL0     H13986   4.217  11.944  11.883 -0.8261  0.7043  0.0758
  104MOL0     H13987   4.092  12.164  11.796  2.2016  0.4326 -1.3024
  104MOL0     H13988   4.060  12.065  11.653 -2.2642  2.5747 -0.4743
  104MOL0     H13989   3.968  12.018  11.934 -1.7578  3.4173  0.9622
  104MOL0     H13990   3.912  11.920  11.794 -0.5013  0.7825 -0.2455
  104MOL0     H13991   3.832  12.074  11.566 -3.7568 -3.9786 -0.2820
  104MOL0     H13992   3.533  12.315  11.613  0.3414 -1.1435  2.0879
  104MOL0     H13993   3.649  12.303  11.472  0.5148  1.5775  0.2533
  104MOL0     H13994   3.491  12.075  11.571 -0.6801  0.1964 -0.5291
  104MOL0     H13995   3.599  12.089  11.428  1.0282  0.4138  0.8234
  104MOL0     H13996   3.461  12.271  11.342  4.0250  1.4211  2.1238
  104MOL0     H13997   3.327  12.220  11.466  0.8215 -3.3740  2.8382
  104MOL0     H13998   3.446  12.061  11.248  1.8291 -1.3777  3.0374
  104MOL0     H13999   3.281  12.137  11.261  0.0444  0.1072  0.2234
  104MOL0     H14000   3.357  11.895  11.139 -0.3526  0.8282  1.3826
  104MOL0     H14001   3.221  11.699  10.935  1.5624 -1.1532 -0.8630
  104MOL0     H14002   3.385  11.721  10.986 -0.5902 -1.7247 -1.5183
  104MOL0     H14003   3.304  11.562  11.001 -1.8817 -0.3150 -4.0170
  104MOL0     H14004   2.903  11.297  11.104 -0.1622 -4.5245  0.1522
  104MOL0     H14005   2.814  11.139  10.935  0.4732 -0.4645  1.1966
  104MOL0     H14006   3.022  10.924  10.666  2.7575  0.4897  3.5635
  104MOL0     H14007   2.997  10.951  10.830 -1.2867  1.9445  1.1519
  104MOL0     H14008   2.851  10.773  10.758  0.0080  0.2384 -0.3909
  104MOL0     H14009   2.747  10.910  10.796 -0.9649  1.4146 -1.0669
  104MOL0     H14010   2.860  10.842  10.517 -1.2291 -4.9790  0.1195
  104MOL0     H14011   2.734  10.961  10.545  1.6425  1.1225  0.7845
  104MOL0     H14012   2.722  10.659  10.568  0.2522  0.1741  1.9656
  104MOL0     H14013   2.594  10.752  10.635  1.2015 -0.7476 -0.0946
  104MOL0     H14014   2.541  10.862  10.416  1.0343  0.8427  0.9531
  104MOL0     H14015   2.511  10.687  10.418 -2.0588  2.3595 -2.4974
  104MOL0     H14016   2.627  10.776  10.200 -2.1488  1.8886  1.2974
  104MOL0     H14017   2.753  10.837  10.306 -0.0518  0.4849 -3.3559
  104MOL0     H14018   2.819  10.615  10.351 -0.4906 -0.5171 -0.3013
  104MOL0     H14019   2.817  10.633  10.178 -1.8694 -1.6986 -1.7876
  104MOL0     H14020   2.729  10.444  10.182  1.7162 -2.1213  3.9342
  104MOL0     H14021   2.573  10.540  10.179  0.9036  1.1806 -1.1718
  104MOL0     H14022   3.079  11.265  10.638 -1.2667  0.5105 -0.6205
  104MOL0     H14023   3.140  11.486  10.790  0.2809  0.4076  3.7856
  104MOL0     H14024   3.042  11.619  11.418  2.8737 -1.7180  1.0258
  104MOL0     H14025   3.178  11.808  11.505 -0.9525 -1.4518  0.6612
  104MOL0     H14026   4.595  11.341  11.528  0.1068 -3.1585 -0.8412
  104MOL0     H14027   4.747  11.227  11.380 -2.0443  1.9545  0.7266
  104MOL0     H14028   5.254  11.256  11.223 -0.3948  0.6138 -0.0901
  104MOL0     H14029   5.404  11.200  11.059  0.1898 -0.0919  2.1511
  104MOL0     H14030   5.377  11.199  10.809 -2.0934 -1.4554 -1.5349
  104MOL0     H14031   5.519  11.122  10.875 -0.5983  2.5283 -1.8475
  104MOL0     H14032   5.513  11.139  10.616  0.4793  2.2128  3.1492
  104MOL0     H14033   5.377  11.020  10.625  0.5952  0.3438 -1.3239
  104MOL0     H14034   5.531  10.874  10.743 -2.2201  0.4767  0.3489
  104MOL0     H14035   5.673  10.978  10.721 -0.8833 -1.0125  1.3867
  104MOL0     H14036   5.513  10.821  10.513 -3.0634  4.0001  1.4456
  104MOL0     H14037   5.685  10.796  10.562 -0.1139 -0.7177 -0.5136
  104MOL0     H14038   5.730  11.123  10.287  1.5440 -2.1113 -0.6762
  104MOL0     H14039   5.139  10.885  10.942 -2.3884 -1.4332  0.5418
  104MOL0     H14040   4.958  10.982  11.075  0.7329  0.3390 -0.2124
  105MOL0     O14041   7.658   9.549  11.169  0.6778  0.0745 -0.6076
  105MOL0     C14042   7.667   9.624  11.265  0.7816 -0.3277 -1.2610
  105MOL0     O14043   7.739   9.735  11.271 -0.3198 -0.2197 -0.0959
  105MOL0     C14044   7.842   9.760  11.192  0.4296  0.0785  0.7738
  105MOL0     C14045   7.850   9.726  11.057 -0.2396  0.2232  0.6981
  105MOL0     C14046   7.976   9.736  10.993  0.3333  0.8701 -0.5162
  105MOL0     C14047   8.086   9.801  11.052 -0.4228  0.8915 -0.1367
  105MOL0     O14048   8.207   9.798  10.989  0.6806 -0.2719 -0.3104
  105MOL0     C14049   8.331   9.797  11.063 -0.6081 -0.0755 -0.3941
  105MOL0     C14050   8.371   9.655  11.095  0.5697  0.2833 -0.8909
  105MOL0     C14051   8.513   9.627  11.162  0.3556  0.1474 -0.5190
  105MOL0     C14052   8.548   9.469  11.174 -0.4752  0.2694  0.4082
  105MOL0     C14053   8.457   9.397  11.281  0.9437  0.7719 -0.4702
  105MOL0     C14054   8.518   9.257  11.306  0.7908 -0.0590  0.0157
  105MOL0     C14055   8.397   9.158  11.350 -0.2215  0.2056 -0.2040
  105MOL0     C14056   8.459   9.024  11.404  0.2095  0.4804 -0.4468
  105MOL0     N14057   8.555   8.955  11.306 -0.0026 -0.5318 -0.5422
  105MOL0     C14058   8.501   8.862  11.220 -0.0988 -0.2082  0.1293
  105MOL0     C14059   8.600   8.846  11.133  0.0766  0.8735  1.0201
  105MOL0     C14060   8.599   8.763  11.011  0.2297 -0.4098  0.0781
  105MOL0     C14061   8.509   8.823  10.893 -0.1984  0.2229  0.1215
  105MOL0     C14062   8.464   8.724  10.785 -0.3087 -0.7020 -0.0442
  105MOL0     C14063   8.506   8.771  10.649  0.5543 -0.6462  0.3119
  105MOL0     O14064   8.437   8.897  10.617 -0.8464 -0.1372  0.9502
  105MOL0     C14065   8.303   8.902  10.611  0.9379 -0.6677 -0.1942
  105MOL0     C14066   8.214   8.801  10.560  0.0814 -0.4512 -0.7117
  105MOL0     C14067   8.076   8.821  10.567 -0.1813  0.7377 -0.5985
  105MOL0     C14068   7.989   8.712  10.515 -0.1160  0.8360 -0.1131
  105MOL0     C14069   8.019   8.935  10.625  0.9940  0.2228  0.0656
  105MOL0     C14070   7.880   8.952  10.679  0.4766 -0.2611  0.3680
  105MOL0     O14071   7.870   9.032  10.791 -0.9216 -0.0941 -0.1981
  105MOL0     C14072   7.747   9.073  10.843  0.1212 -0.1935 -0.4318
  105MOL0     C14073   7.727   9.204  10.871 -0.6600  0.0906 -0.3826
  105MOL0     C14074   7.611   9.250  10.930  0.2046  1.0445 -0.6656
  105MOL0     C14075   7.503   9.165  10.956  0.5657  0.2858  0.1331
  105MOL0     O14076   7.384   9.226  11.000  0.1283  0.0390  0.2015
  105MOL0     C14077   7.273   9.153  11.047 -0.1757  0.8344 -0.3437
  105MOL0     C14078   7.217   9.219  11.181 -0.5075  0.5217  0.4609
  105MOL0     C14079   7.078   9.165  11.204 -0.5759  0.1613  0.0880
  105MOL0     C14080   7.022   9.211  11.336  0.4935 -1.2617 -0.1847
  105MOL0     C14081   6.881   9.172  11.357  0.6646  0.7921  0.2697
  105MOL0     C14082   6.854   9.018  11.323  0.3806 -1.0907 -0.7597
  105MOL0     C14083   6.755   8.962  11.427  0.4171  0.2338  0.4103
  105MOL0     C14084   6.667   8.847  11.370  0.3422 -0.7295  0.1716
  105MOL0    Cl14085   6.788   8.730  11.283  0.0667 -0.3577  0.1650
  105MOL0     C14086   7.507   9.031  10.912 -0.8434 -0.9526 -0.4481
  105MOL0     C14087   7.643   8.982  10.869 -0.4645  1.1098  0.9376
  105MOL0     O14088   7.780   8.912  10.616 -0.8756 -0.4347 -0.3011
  105MOL0     C14089   8.115   9.035  10.674  1.6507 -1.1444  0.0719
  105MOL0     C14090   8.252   9.015  10.671 -0.8679  0.1188  0.7912
  105MOL0     N14091   8.713   8.908  11.172 -0.2144  0.8510 -0.3976
  105MOL0     N14092   8.687   8.977  11.275  0.0567  0.8331  0.2334
  105MOL0     C14093   8.072   9.846  11.185  0.5371 -1.0426  0.1279
  105MOL0     C14094   7.949   9.825  11.251  1.1850  0.6746  0.6662
  105MOL0     C14095   7.549   9.601  11.359  1.0028  0.4935 -0.4332
  105MOL0     C14096   7.526   9.694  11.455 -0.9507 -0.0698 -0.4683
  105MOL0     C14097   7.411   9.701  11.531  0.8825  0.7731  0.4578
  105MOL0     C14098   7.326   9.588  11.527 -0.2979  0.3848 -1.0796
  105MOL0     O14099   7.218   9.608  11.616 -0.6605  0.0186 -1.4164
  105MOL0     C14100   7.126   9.498  11.631  0.0946  0.6464 -0.1936
  105MOL0     C14101   7.023   9.514  11.732 -0.4474  0.1059 -0.5896
  105MOL0     C14102   7.094   9.552  11.862  0.2014 -0.4862 -0.8746
  105MOL0     C14103   7.092   9.432  11.956  0.4628 -0.0582 -0.3073
  105MOL0     C14104   7.156   9.468  12.092 -0.4661 -0.4073  1.5343
  105MOL0     C14105   7.216   9.490  12.192 -0.1420 -0.3925 -0.3581
  105MOL0     C14106   7.358   9.478  11.439 -0.0170 -0.2316  0.7146
  105MOL0     C14107   7.459   9.497  11.348  0.5934  0.1161  0.2629
  105MOL0     H14108   7.766   9.680  11.006 -1.2782  1.4045  1.2914
  105MOL0     H14109   8.006   9.671  10.911  1.0465  0.7379 -0.1600
  105MOL0     H14110   8.411   9.841  11.002  1.3715 -2.1411  0.5536
  105MOL0     H14111   8.329   9.844  11.162  1.3818 -2.5673  0.9471
  105MOL0     H14112   8.300   9.621  11.171  0.7236  1.7899 -0.0344
  105MOL0     H14113   8.361   9.607  10.997 -2.4967  0.6811 -0.8865
  105MOL0     H14114   8.595   9.675  11.109  1.2262 -0.7496 -0.0069
  105MOL0     H14115   8.517   9.660  11.266  1.3155 -0.7562 -0.2555
  105MOL0     H14116   8.539   9.424  11.075  1.6723  0.2720  0.1866
  105MOL0     H14117   8.653   9.457  11.201 -0.0559 -1.6875 -1.7836
  105MOL0     H14118   8.461   9.448  11.378 -4.1584 -2.3813  1.7936
  105MOL0     H14119   8.354   9.397  11.245 -0.0402 -0.8610  2.0496
  105MOL0     H14120   8.555   9.228  11.207  0.5059  1.1191 -0.4512
  105MOL0     H14121   8.607   9.263  11.369 -0.5469 -1.1005  2.1228
  105MOL0     H14122   8.342   9.203  11.433 -2.1138 -0.8885 -0.8066
  105MOL0     H14123   8.322   9.147  11.271  0.5640  1.0399 -1.0975
  105MOL0     H14124   8.383   8.946  11.409  1.0101 -0.2530  1.8627
  105MOL0     H14125   8.521   9.038  11.493 -0.8331  1.5547  0.1238
  105MOL0     H14126   8.408   8.807  11.214  0.1459 -0.4632 -2.0056
  105MOL0     H14127   8.696   8.733  10.969  0.0469 -1.4150  0.3440
  105MOL0     H14128   8.544   8.671  11.037  1.2960 -0.4635  2.3117
  105MOL0     H14129   8.556   8.913  10.852  0.1928  0.5314  1.2196
  105MOL0     H14130   8.418   8.856  10.943 -2.1263 -0.5217 -2.6570
  105MOL0     H14131   8.356   8.715  10.796 -0.0437 -0.9973  3.3470
  105MOL0     H14132   8.506   8.625  10.803  1.0787 -0.5254 -2.0288
  105MOL0     H14133   8.480   8.704  10.567  1.4837  2.4212 -2.7168
  105MOL0     H14134   8.616   8.769  10.643  0.5003 -0.6363 -1.0061
  105MOL0     H14135   8.251   8.705  10.525  1.7003 -0.1422  0.0343
  105MOL0     H14136   7.939   8.738  10.421  0.6046  0.4473 -0.6098
  105MOL0     H14137   8.049   8.623  10.497 -1.0618 -0.4121  2.3377
  105MOL0     H14138   7.918   8.682  10.593  1.4028  0.2200  1.0797
  105MOL0     H14139   7.819   9.262  10.862 -0.8138  0.0087 -3.9948
  105MOL0     H14140   7.612   9.352  10.968 -3.1593  0.1268  2.4478
  105MOL0     H14141   7.200   9.152  10.965 -0.5643  1.9575 -0.0334
  105MOL0     H14142   7.300   9.051  11.077  0.6446  1.3742  0.7962
  105MOL0     H14143   7.268   9.192  11.274  1.7693  1.5584 -0.4260
  105MOL0     H14144   7.196   9.326  11.188 -1.6858  0.1921  3.2981
  105MOL0     H14145   7.095   9.057  11.209 -0.4839  0.1992  0.7047
  105MOL0     H14146   7.002   9.191  11.129 -1.0321  4.0171  1.6729
  105MOL0     H14147   7.087   9.184  11.419  1.4719  0.9209 -0.1848
  105MOL0     H14148   7.019   9.320  11.344 -0.3957 -1.1869 -1.2963
  105MOL0     H14149   6.822   9.223  11.280  2.5218 -0.7388 -2.3427
  105MOL0     H14150   6.854   9.204  11.458 -3.7499  1.0418 -0.7594
  105MOL0     H14151   6.806   9.016  11.225  2.2775 -2.9104 -1.7187
  105MOL0     H14152   6.938   8.949  11.332  1.3771  0.0885 -0.6869
  105MOL0     H14153   6.689   9.046  11.453  0.1078  0.3568 -0.6985
  105MOL0     H14154   6.814   8.935  11.515  2.1537  1.5810 -0.2804
  105MOL0     H14155   6.596   8.891  11.300  0.8992  1.1219  0.7168
  105MOL0     H14156   6.628   8.802  11.462 -0.0101  2.4856  1.7419
  105MOL0     H14157   7.426   8.958  10.916 -1.7004 -0.3112 -3.5171
  105MOL0     H14158   7.650   8.887  10.817 -0.2691  3.3150 -3.6712
  105MOL0     H14159   8.080   9.133  10.703 -1.3187 -1.5912 -1.5720
  105MOL0     H14160   8.330   9.086  10.698 -0.5593 -0.7781  2.3813
  105MOL0     H14161   8.151   9.905  11.230  1.3817 -2.4013  0.5116
  105MOL0     H14162   7.940   9.865  11.351 -0.1080 -0.7139  1.1435
  105MOL0     H14163   7.606   9.767  11.463  1.6083 -2.3997 -2.6175
  105MOL0     H14164   7.399   9.777  11.607  2.0285  0.4371  0.9973
  105MOL0     H14165   7.066   9.495  11.540 -1.3503  0.6599  0.7173
  105MOL0     H14166   7.179   9.403  11.636  1.8397  1.5803 -0.0770
  105MOL0     H14167   6.954   9.430  11.743  0.6614 -0.6384  1.0118
  105MOL0     H14168   6.963   9.603  11.709 -1.9701 -0.1549  1.9597
  105MOL0     H14169   7.036   9.634  11.905 -0.0832 -0.2600 -1.6705
  105MOL0     H14170   7.202   9.569  11.854  0.1424  0.3378 -0.0814
  105MOL0     H14171   7.155   9.354  11.911  0.6036  0.5385 -1.1602
  105MOL0     H14172   6.988   9.401  11.973 -1.2844  4.0605 -2.1425
  105MOL0     H14173   7.269   9.499  12.285  0.3207 -0.7671 -0.5820
  105MOL0     H14174   7.294   9.391  11.449 -0.4925 -0.0654 -0.6741
  105MOL0     H14175   7.461   9.428  11.265 -1.8773 -1.8020  1.6405
  106MOL0     O14176   2.247   1.331   0.905  0.1068  0.1193  0.2968
  106MOL0     C14177   2.291   1.414   0.987  1.0156  0.6315 -0.2191
  106MOL0     O14178   2.250   1.429   1.116 -0.1973  0.5609  0.5407
  106MOL0     C14179   2.265   1.313   1.188 -0.3454  0.8103 -0.3385
  106MOL0     C14180   2.173   1.210   1.187  0.0377 -0.5410 -0.3193
  106MOL0     C14181   2.189   1.097   1.266 -0.8434  0.0341 -0.0615
  106MOL0     C14182   2.292   1.082   1.365 -0.1992 -0.0955  0.9066
  106MOL0     O14183   2.314   0.967   1.431 -0.1723 -0.2197 -0.0471
  106MOL0     C14184   2.239   0.847   1.400  0.1887  1.2934 -0.3738
  106MOL0     C14185   2.241   0.747   1.517  0.3576 -0.0494 -0.3214
  106MOL0     C14186   2.194   0.823   1.644  0.8452 -0.2004  0.0999
  106MOL0     C14187   2.197   0.726   1.761 -0.2670 -0.2263  0.1138
  106MOL0     C14188   2.224   0.798   1.887 -0.9004  0.3813 -0.0009
  106MOL0     C14189   2.102   0.837   1.977 -0.3780 -0.2975  0.0192
  106MOL0     C14190   2.147   0.909   2.111  0.0657 -0.0813  0.6171
  106MOL0     C14191   2.029   0.955   2.198  0.0972  0.3268  0.2421
  106MOL0     N14192   1.929   0.853   2.229  0.3786  0.5770 -0.8034
  106MOL0     C14193   1.936   0.761   2.333 -0.4349  0.4271 -0.7902
  106MOL0     C14194   1.835   0.672   2.317 -0.0838 -0.1558 -0.6352
  106MOL0     C14195   1.807   0.558   2.414  1.2087 -0.0816  0.0408
  106MOL0     C14196   1.712   0.611   2.528 -0.6205  0.4669 -0.6086
  106MOL0     C14197   1.595   0.694   2.482  0.4780 -0.4079  0.0780
  106MOL0     C14198   1.506   0.611   2.386  0.5645  0.9011 -0.0874
  106MOL0     O14199   1.471   0.482   2.443  0.5756 -0.0355 -0.5697
  106MOL0     C14200   1.380   0.463   2.554 -0.8752 -0.0132  0.1237
  106MOL0     C14201   1.252   0.512   2.556  0.2013  0.0044 -0.2592
  106MOL0     C14202   1.169   0.500   2.669  0.0329  0.3432 -0.0879
  106MOL0     C14203   1.030   0.566   2.661  0.1970  0.3231 -0.3087
  106MOL0     C14204   1.210   0.428   2.784 -0.5050 -0.0041 -0.2862
  106MOL0     C14205   1.134   0.400   2.913  0.7636  0.4488  0.4855
  106MOL0     O14206   1.171   0.292   2.990 -0.0473 -0.6032 -0.1742
  106MOL0     C14207   1.106   0.272   3.111 -0.9765  0.3494  0.2125
  106MOL0     C14208   1.106   0.360   3.219  0.1631  0.4998  0.4979
  106MOL0     C14209   1.023   0.334   3.326  0.1147 -0.8229 -0.1411
  106MOL0     C14210   0.955   0.218   3.346 -1.1240 -0.9888  0.7605
  106MOL0     O14211   0.915   0.198   3.477 -0.9510  0.0261 -0.0059
  106MOL0     C14212   0.839   0.084   3.516  0.6172  0.5061 -0.6844
  106MOL0     C14213   0.785   0.088   3.665  1.3866  1.1014 -0.0504
  106MOL0     C14214   0.887   0.144   3.776 -0.1128 -0.4788  0.5745
  106MOL0     C14215   0.817   0.145   3.908 -0.0145  0.6214  0.5603
  106MOL0     C14216   0.894   0.219   4.017 -0.0816 -0.2916 -0.5531
  106MOL0     C14217   0.800   0.219   4.146 -0.8035 -0.2713 -0.3749
  106MOL0     C14218   0.869   0.302   4.260  0.1968  1.6655  0.0568
  106MOL0     C14219   0.767   0.304   4.371  0.7278  0.0322 -0.3799
  106MOL0    Cl14220   0.651   0.447   4.341 -0.2143  0.0279 -0.4375
  106MOL0     C14221   0.955   0.132   3.232  1.3644 -0.2308  0.8527
  106MOL0     C14222   1.024   0.159   3.113 -0.3246  0.5539  0.7707
  106MOL0     O14223   1.053   0.486   2.940  0.3915  0.5112  0.2866
  106MOL0     C14224   1.346   0.380   2.788 -1.3663  0.6349  0.9502
  106MOL0     C14225   1.429   0.404   2.671  0.4062 -0.4184  0.1830
  106MOL0     N14226   1.771   0.711   2.205 -1.0120  0.4544 -0.1519
  106MOL0     N14227   1.821   0.824   2.153 -0.4767  0.8050  0.3570
  106MOL0     C14228   2.383   1.193   1.379  0.2027  0.0684 -0.2105
  106MOL0     C14229   2.376   1.311   1.289  0.3742  0.2523  0.2935
  106MOL0     C14230   2.395   1.511   0.931  0.1903 -0.4423 -0.5966
  106MOL0     C14231   2.429   1.506   0.795 -0.6457  0.1351 -1.7259
  106MOL0     C14232   2.539   1.591   0.751  0.2731 -0.1006  0.2838
  106MOL0     C14233   2.599   1.681   0.833 -0.3448 -0.9888 -0.7659
  106MOL0     O14234   2.709   1.760   0.801 -0.2700 -0.3060 -0.6607
  106MOL0     C14235   2.826   1.762   0.882 -0.5547 -0.1896  0.4693
  106MOL0     C14236   2.954   1.749   0.794 -0.1507  0.6033  0.2189
  106MOL0     C14237   2.963   1.867   0.694 -0.8141  0.5711  0.7181
  106MOL0     C14238   3.072   1.844   0.580 -0.8559  0.3471  0.0297
  106MOL0     C14239   3.205   1.811   0.637  0.4648 -0.0291  1.2068
  106MOL0     C14240   3.312   1.771   0.677 -0.6223  0.6718 -0.5018
  106MOL0     C14241   2.558   1.684   0.967 -0.2652  0.3078  0.3868
  106MOL0     C14242   2.459   1.600   1.011  0.8810  0.2566  0.6848
  106MOL0     H14243   2.083   1.218   1.126 -0.4916 -2.2854  0.1859
  106MOL0     H14244   2.110   1.023   1.265 -0.8814  0.0742  0.0130
  106MOL0     H14245   2.132   0.858   1.380 -0.1851 -0.9309  0.0840
  106MOL0     H14246   2.283   0.802   1.311  2.0104  2.6165 -0.1765
  106MOL0     H14247   2.170   0.665   1.507 -2.2318  1.7680  1.6174
  106MOL0     H14248   2.342   0.711   1.536  0.0795 -0.1195  1.1101
  106MOL0     H14249   2.250   0.914   1.664  1.0840 -0.5815  1.2405
  106MOL0     H14250   2.092   0.862   1.635  1.7973  1.9719 -2.6886
  106MOL0     H14251   2.103   0.670   1.761  0.8401 -2.4274 -3.3607
  106MOL0     H14252   2.273   0.649   1.741 -1.3750 -0.9994 -1.3468
  106MOL0     H14253   2.276   0.725   1.951  0.1171  0.2799 -0.9169
  106MOL0     H14254   2.293   0.881   1.873 -0.2090 -0.3025 -0.7613
  106MOL0     H14255   2.052   0.911   1.913 -1.2357  0.4229  1.4666
  106MOL0     H14256   2.026   0.759   1.993 -0.9162  0.0763 -0.6602
  106MOL0     H14257   2.219   0.843   2.161 -0.5052 -0.4847  0.9182
  106MOL0     H14258   2.197   1.003   2.089  2.4277 -1.0974  1.3724
  106MOL0     H14259   1.981   1.036   2.142 -0.8825  0.2100  0.8983
  106MOL0     H14260   2.065   0.989   2.295  0.9296  2.0826 -0.6287
  106MOL0     H14261   2.007   0.758   2.414  0.1771  1.5499 -1.2548
  106MOL0     H14262   1.760   0.487   2.346  1.4786  0.9797 -1.3219
  106MOL0     H14263   1.906   0.528   2.449  0.7318 -0.6903  0.8896
  106MOL0     H14264   1.771   0.673   2.596  2.0976 -2.1428 -0.3994
  106MOL0     H14265   1.687   0.524   2.589  0.2425  1.1847  0.8217
  106MOL0     H14266   1.621   0.795   2.449 -0.1341 -0.3790 -0.3359
  106MOL0     H14267   1.541   0.715   2.575 -0.2570  2.5917 -0.8926
  106MOL0     H14268   1.540   0.599   2.283 -2.4733  2.7556 -1.4463
  106MOL0     H14269   1.415   0.667   2.361 -0.6236 -1.5931 -1.8611
  106MOL0     H14270   1.210   0.560   2.468  0.4813  2.2753  0.7731
  106MOL0     H14271   0.940   0.504   2.654 -0.6942  1.2156  2.1086
  106MOL0     H14272   1.010   0.628   2.749  1.7032 -1.0084  1.0190
  106MOL0     H14273   1.024   0.636   2.577 -3.2719  1.2953  0.5746
  106MOL0     H14274   1.158   0.455   3.212  3.6282 -1.2930 -0.5974
  106MOL0     H14275   1.015   0.410   3.403 -1.6678 -0.1164 -0.9837
  106MOL0     H14276   0.746   0.080   3.458  0.8550  2.5115 -1.2771
  106MOL0     H14277   0.887  -0.012   3.495  1.6983  1.3160 -2.1252
  106MOL0     H14278   0.711   0.168   3.668 -0.4212 -0.3848 -1.9488
  106MOL0     H14279   0.743  -0.011   3.687  0.1782  0.7692 -3.3761
  106MOL0     H14280   0.913   0.245   3.745 -0.2301 -0.5895  0.0995
  106MOL0     H14281   0.974   0.078   3.784 -1.4373 -2.4964 -0.6451
  106MOL0     H14282   0.722   0.199   3.895 -0.0502  0.0262 -2.2666
  106MOL0     H14283   0.804   0.043   3.945  2.9155  1.2399  3.8937
  106MOL0     H14284   0.911   0.321   3.982 -0.7181 -0.1961 -0.5974
  106MOL0     H14285   0.988   0.175   4.049 -0.6192  1.0308  3.2872
  106MOL0     H14286   0.701   0.252   4.115  1.2408  3.8280 -3.5690
  106MOL0     H14287   0.788   0.113   4.173 -0.3672 -0.3776 -0.5804
  106MOL0     H14288   0.879   0.403   4.221 -0.1129  0.9490 -1.9840
  106MOL0     H14289   0.965   0.264   4.296  0.2880  1.0729 -0.7757
  106MOL0     H14290   0.816   0.324   4.467 -1.0363 -0.1839  0.5885
  106MOL0     H14291   0.717   0.209   4.391 -0.2395  0.5488 -0.3235
  106MOL0     H14292   0.889   0.047   3.245 -0.2722  1.2172  2.6396
  106MOL0     H14293   1.034   0.083   3.036 -1.6481 -2.6877  3.5252
  106MOL0     H14294   1.399   0.322   2.863  1.5426  1.2378 -0.4742
  106MOL0     H14295   1.532   0.374   2.687  1.0112  0.9621 -0.9186
  106MOL0     H14296   2.459   1.182   1.456 -1.1207 -2.0854  0.8962
  106MOL0     H14297   2.440   1.398   1.305  2.0625 -1.1340  1.4584
  106MOL0     H14298   2.389   1.435   0.723  3.1253 -2.9394 -1.1205
  106MOL0     H14299   2.576   1.588   0.650  1.4459 -0.1508  0.7035
  106MOL0     H14300   2.845   1.856   0.934  0.1709 -0.0079 -0.1078
  106MOL0     H14301   2.820   1.681   0.956 -2.6454  0.2951  0.8774
  106MOL0     H14302   2.951   1.656   0.737  0.7605  1.5304 -1.3997
  106MOL0     H14303   3.045   1.745   0.855 -0.6711  2.2911  1.1728
  106MOL0     H14304   2.973   1.965   0.742 -0.2778  2.9182 -3.6812
  106MOL0     H14305   2.869   1.877   0.639  0.3712  2.2093 -1.1707
  106MOL0     H14306   3.076   1.927   0.508 -4.8399  0.9997  0.3058
  106MOL0     H14307   3.042   1.766   0.509  0.3233  1.7328 -2.1083
  106MOL0     H14308   3.413   1.752   0.709 -1.2080 -0.3923  0.7859
  106MOL0     H14309   2.613   1.742   1.041  2.6317 -1.7524 -0.0185
  106MOL0     H14310   2.430   1.603   1.116 -0.2448 -2.5090  0.5420
  107MOL0     O14311   3.624  11.284   7.861  0.5050  0.5358  0.1287
  107MOL0     C14312   3.577  11.401   7.873  0.0839  0.5017 -0.0376
  107MOL0     O14313   3.502  11.470   7.774  0.0778 -0.6091  0.2726
  107MOL0     C14314   3.490  11.421   7.651  0.0348 -0.3435 -0.5516
  107MOL0     C14315   3.472  11.285   7.614  1.5571 -0.3761  0.5644
  107MOL0     C14316   3.451  11.253   7.485 -1.1737  0.2228 -0.1125
  107MOL0     C14317   3.439  11.349   7.378  0.2698 -0.0345  1.2977
  107MOL0     O14318   3.422  11.313   7.245 -0.5191 -0.0229  0.3349
  107MOL0     C14319   3.505  11.197   7.216 -0.0496 -0.2903 -0.2998
  107MOL0     C14320   3.526  11.187   7.071  0.6722 -0.2849 -0.6887
  107MOL0     C14321   3.601  11.314   7.008  0.9142 -0.1671 -1.0494
  107MOL0     C14322   3.607  11.312   6.853  0.0543 -0.2622 -0.0823
  107MOL0     C14323   3.720  11.217   6.803 -0.2218 -0.6253  0.0633
  107MOL0     C14324   3.741  11.230   6.656  0.2189 -0.5886  0.1071
  107MOL0     C14325   3.836  11.128   6.595 -0.1440 -0.3726  0.5015
  107MOL0     C14326   3.760  10.990   6.594 -0.7703  0.2820  0.8420
  107MOL0     N14327   3.845  10.892   6.526 -0.7066 -0.1126  0.0650
  107MOL0     C14328   3.900  10.898   6.403  0.2012  0.0768  0.2611
  107MOL0     C14329   3.957  10.774   6.396 -0.7740  0.6357  0.7360
  107MOL0     C14330   4.014  10.710   6.271 -0.4269  1.1833 -0.1822
  107MOL0     C14331   4.068  10.565   6.283 -0.3046  0.0470 -0.0922
  107MOL0     C14332   4.090  10.512   6.143  0.0559 -0.1825  0.2166
  107MOL0     C14333   4.199  10.592   6.051  0.2991 -0.1273 -0.5926
  107MOL0     O14334   4.304  10.616   6.157  0.0755  0.0497  1.0302
  107MOL0     C14335   4.418  10.684   6.122  0.1478 -0.0426 -0.0222
  107MOL0     C14336   4.485  10.666   6.008  0.5565 -1.0203  0.0961
  107MOL0     C14337   4.613  10.730   5.982 -0.3147 -0.8793 -0.1715
  107MOL0     C14338   4.673  10.722   5.840 -0.5441  0.1489 -0.4410
  107MOL0     C14339   4.664  10.818   6.087  0.1701  0.1956 -0.2447
  107MOL0     C14340   4.785  10.903   6.075  0.3728 -0.0101  0.3636
  107MOL0     O14341   4.793  11.001   6.162  0.1621 -0.6006  0.1027
  107MOL0     C14342   4.915  11.064   6.175 -0.4458 -0.0472  1.1674
  107MOL0     C14343   5.016  11.013   6.259  0.0613 -0.7526  0.0711
  107MOL0     C14344   5.138  11.077   6.259 -0.1849 -0.3948  0.0418
  107MOL0     C14345   5.163  11.184   6.175 -0.3129  1.5757 -0.6902
  107MOL0     O14346   5.285  11.248   6.199 -0.0115 -0.7816 -0.7132
  107MOL0     C14347   5.318  11.350   6.099  0.8272 -0.1429 -1.1425
  107MOL0     C14348   5.304  11.488   6.155  0.2411 -0.1189 -0.3377
  107MOL0     C14349   5.154  11.519   6.195  0.7032 -0.8520 -0.5702
  107MOL0     C14350   5.131  11.664   6.233  0.1254  0.6173  0.5453
  107MOL0     C14351   4.986  11.696   6.263  0.7011 -0.6887 -0.2892
  107MOL0     C14352   4.934  11.657   6.413  1.3427  1.1172  0.4235
  107MOL0     C14353   4.800  11.707   6.459  0.1821 -1.5101  1.4900
  107MOL0     C14354   4.765  11.652   6.591 -0.3803 -0.2303  0.1304
  107MOL0    Cl14355   4.680  11.500   6.577 -0.2927  0.0639 -0.2633
  107MOL0     C14356   5.066  11.219   6.074  0.1881  1.6010  0.2728
  107MOL0     C14357   4.945  11.150   6.071  0.0555 -0.6157  0.0011
  107MOL0     O14358   4.876  10.870   5.998  0.0360  0.4896  1.0011
  107MOL0     C14359   4.582  10.831   6.199  0.0377 -0.2702 -0.4174
  107MOL0     C14360   4.475  10.763   6.226  0.5657  0.1523 -0.2872
  107MOL0     N14361   3.954  10.704   6.515  0.6954  0.1826 -0.4834
  107MOL0     N14362   3.875  10.775   6.591 -0.1166 -0.6533  0.5637
  107MOL0     C14363   3.464  11.486   7.408 -0.1378 -0.4841 -0.0816
  107MOL0     C14364   3.483  11.523   7.546  0.4545  0.1974 -0.0025
  107MOL0     C14365   3.593  11.477   8.005  0.6173 -0.0582  0.5641
  107MOL0     C14366   3.678  11.427   8.095  0.0019  0.0712  0.2036
  107MOL0     C14367   3.700  11.501   8.212 -0.7768 -1.2242 -0.1361
  107MOL0     C14368   3.623  11.620   8.239  0.6336  0.6328  0.3355
  107MOL0     O14369   3.639  11.672   8.368 -0.2048 -0.1182  0.1463
  107MOL0     C14370   3.634  11.821   8.367  0.0018 -0.0548 -0.4472
  107MOL0     C14371   3.769  11.873   8.305  0.5830  0.9842 -0.3325
  107MOL0     C14372   3.881  11.887   8.410  0.2165  0.8393  0.0006
  107MOL0     C14373   4.018  11.909   8.345 -0.4212  0.5617 -0.5016
  107MOL0     C14374   4.056  11.784   8.269  0.5938 -0.6977 -0.4273
  107MOL0     C14375   4.095  11.700   8.191  0.3766  0.5031  0.8577
  107MOL0     C14376   3.534  11.664   8.144  0.0741 -0.1098  0.6830
  107MOL0     C14377   3.522  11.594   8.021  0.8014  0.3776 -0.7357
  107MOL0     H14378   3.470  11.208   7.691 -2.2808  1.8805  3.0361
  107MOL0     H14379   3.444  11.148   7.457  2.7852  0.1550 -1.5053
  107MOL0     H14380   3.601  11.217   7.264 -1.1125  2.5588  0.8599
  107MOL0     H14381   3.459  11.101   7.241  0.9992 -1.5371 -2.8189
  107MOL0     H14382   3.548  11.083   7.043 -1.1272 -0.8597 -0.1450
  107MOL0     H14383   3.428  11.204   7.025  0.2934 -1.7067 -0.4685
  107MOL0     H14384   3.550  11.403   7.045  1.9379 -0.3733  1.0108
  107MOL0     H14385   3.699  11.310   7.056 -0.0157 -1.8020  0.8690
  107MOL0     H14386   3.509  11.284   6.813 -1.0463  0.9833  1.5968
  107MOL0     H14387   3.623  11.413   6.816 -0.2622 -0.5190 -0.9493
  107MOL0     H14388   3.812  11.254   6.849  2.7518 -2.5769 -3.6635
  107MOL0     H14389   3.705  11.113   6.833  0.6869 -0.3248  1.6978
  107MOL0     H14390   3.647  11.215   6.602 -0.0298 -1.3381  0.7411
  107MOL0     H14391   3.777  11.331   6.634  0.3486 -1.0469 -1.9927
  107MOL0     H14392   3.864  11.147   6.491  1.0772  0.5857  0.9807
  107MOL0     H14393   3.924  11.128   6.660  0.5600  0.3981 -0.4188
  107MOL0     H14394   3.666  11.008   6.543 -0.5417 -0.8548 -0.0017
  107MOL0     H14395   3.744  10.971   6.701 -0.7554  1.7314  1.1252
  107MOL0     H14396   3.883  10.974   6.327  0.3550 -2.9632 -3.0739
  107MOL0     H14397   3.930  10.706   6.200 -2.3007  1.0911  1.9144
  107MOL0     H14398   4.096  10.775   6.238 -1.2054  2.3389  0.1092
  107MOL0     H14399   3.989  10.503   6.325  1.2464 -2.7774 -1.0561
  107MOL0     H14400   4.154  10.564   6.352  0.5097 -1.3768 -1.0728
  107MOL0     H14401   3.999  10.512   6.082  1.2752  1.2268 -1.6986
  107MOL0     H14402   4.119  10.406   6.147 -0.2797 -0.4778 -2.8996
  107MOL0     H14403   4.168  10.691   6.019  2.9375  0.7248 -0.7242
  107MOL0     H14404   4.225  10.536   5.961 -0.6675  2.4248 -2.5775
  107MOL0     H14405   4.445  10.600   5.931 -0.9307 -2.6700  2.1669
  107MOL0     H14406   4.604  10.704   5.757 -0.3870  0.4270 -0.6341
  107MOL0     H14407   4.732  10.813   5.826 -0.3203  0.1661  0.5624
  107MOL0     H14408   4.749  10.644   5.831 -1.4610 -0.6041 -1.9934
  107MOL0     H14409   4.996  10.931   6.327 -1.0785  0.5231  1.3402
  107MOL0     H14410   5.222  11.044   6.320  1.0286 -2.3728 -2.5072
  107MOL0     H14411   5.423  11.344   6.069  1.5605  2.2393  0.6398
  107MOL0     H14412   5.270  11.329   6.003  3.0630 -0.5513 -2.2473
  107MOL0     H14413   5.356  11.498   6.251 -1.5846 -0.4386  0.7352
  107MOL0     H14414   5.329  11.562   6.079 -0.8075  2.1878  1.4103
  107MOL0     H14415   5.136  11.452   6.280  0.9857 -0.2338 -0.0231
  107MOL0     H14416   5.078  11.494   6.120 -1.5306  0.5691  1.0807
  107MOL0     H14417   5.196  11.705   6.310 -1.8693  1.2194  1.9934
  107MOL0     H14418   5.169  11.708   6.140  0.4923 -0.7742  0.0093
  107MOL0     H14419   4.923  11.660   6.181  1.4844  0.1210 -1.2846
  107MOL0     H14420   4.987  11.805   6.259 -1.7693 -0.6347 -2.2687
  107MOL0     H14421   4.926  11.548   6.415 -1.2981  1.2545  0.6890
  107MOL0     H14422   5.005  11.701   6.484  4.2212 -1.3810 -0.6441
  107MOL0     H14423   4.718  11.692   6.388  1.2092 -3.2731  0.6064
  107MOL0     H14424   4.820  11.814   6.471 -0.0471 -1.1763 -0.7658
  107MOL0     H14425   4.705  11.724   6.648 -0.5343  0.9470 -1.4740
  107MOL0     H14426   4.858  11.626   6.643 -0.7723 -2.4926 -0.2193
  107MOL0     H14427   5.077  11.290   5.993  0.5896  2.4078  1.0150
  107MOL0     H14428   4.864  11.176   6.003  1.1832 -0.5094 -1.3448
  107MOL0     H14429   4.623  10.893   6.278  0.3457 -1.4177  0.3546
  107MOL0     H14430   4.407  10.780   6.309 -1.1998  1.1199 -1.8383
  107MOL0     H14431   3.458  11.561   7.331  1.7193 -1.9062 -1.6902
  107MOL0     H14432   3.506  11.626   7.568  2.2444 -0.2924  0.5500
  107MOL0     H14433   3.730  11.331   8.090 -2.3485 -1.2705 -0.2235
  107MOL0     H14434   3.781  11.480   8.281 -1.6146 -0.4906  1.1168
  107MOL0     H14435   3.552  11.862   8.307 -0.9226  1.7717  1.9103
  107MOL0     H14436   3.611  11.853   8.470 -0.6794 -0.9206 -0.3135
  107MOL0     H14437   3.753  11.971   8.258  3.3881  0.5437 -2.4349
  107MOL0     H14438   3.801  11.804   8.227 -1.1143  1.3519 -1.4103
  107MOL0     H14439   3.876  11.794   8.467 -0.0364  1.9073  1.7812
  107MOL0     H14440   3.867  11.976   8.471  0.9147  0.5063  0.6592
  107MOL0     H14441   4.089  11.925   8.427 -0.3818  0.6952 -0.5615
  107MOL0     H14442   4.028  12.000   8.286 -3.0269  1.2396  0.0204
  107MOL0     H14443   4.117  11.624   8.120 -0.7283  0.7137  0.2702
  107MOL0     H14444   3.474  11.754   8.148 -0.9058 -0.6166 -1.3204
  107MOL0     H14445   3.459  11.633   7.942 -0.2455  1.0768  0.3975
  108MOL0     O14446   1.059   8.791   9.952 -0.1631  0.4404  0.1263
  108MOL0     C14447   1.131   8.760   9.854 -0.4184 -0.3452 -0.4282
  108MOL0     O14448   1.201   8.849   9.781  0.6737  1.1242  0.3429
  108MOL0     C14449   1.222   8.980   9.824 -0.1395  0.3246 -0.1346
  108MOL0     C14450   1.264   9.069   9.728 -0.2729 -0.4139  0.4807
  108MOL0     C14451   1.279   9.206   9.768  0.5307  0.2108 -0.0431
  108MOL0     C14452   1.265   9.254   9.902  0.0524  0.1947  0.3164
  108MOL0     O14453   1.241   9.388   9.917 -1.3252  0.7010 -0.3250
  108MOL0     C14454   1.150   9.424  10.019 -1.2445 -0.5657 -1.1938
  108MOL0     C14455   1.226   9.507  10.136  0.5799 -0.6599 -0.6949
  108MOL0     C14456   1.298   9.635  10.098  0.3187  0.4823  0.0860
  108MOL0     C14457   1.199   9.740  10.060 -0.0725 -0.5553 -0.7543
  108MOL0     C14458   1.240   9.879  10.009  0.5311 -0.1532  0.3027
  108MOL0     C14459   1.350   9.947  10.086 -0.5571 -0.3626  0.5772
  108MOL0     C14460   1.399  10.081  10.019  0.4747  0.8497 -0.1632
  108MOL0     C14461   1.351  10.220  10.062  0.1743 -0.0707 -0.0500
  108MOL0     N14462   1.268  10.211  10.187  0.2478 -0.3156  0.6034
  108MOL0     C14463   1.135  10.174  10.180  0.8240 -0.6130 -0.4081
  108MOL0     C14464   1.092  10.199  10.303 -0.1372 -1.2880 -0.6174
  108MOL0     C14465   0.956  10.205  10.341 -0.1603  0.4184 -0.3083
  108MOL0     C14466   0.909  10.332  10.403  0.0954 -0.1057 -0.8006
  108MOL0     C14467   0.757  10.349  10.390 -0.0756 -0.4100  0.4944
  108MOL0     C14468   0.697  10.468  10.467  0.1483  0.5973  0.0878
  108MOL0     O14469   0.721  10.598  10.408 -0.0232  0.2913  0.6973
  108MOL0     C14470   0.669  10.704  10.475 -0.8495  0.1446  1.2210
  108MOL0     C14471   0.750  10.817  10.479 -1.3235 -0.0987 -0.6377
  108MOL0     C14472   0.700  10.932  10.537 -0.2075 -0.2219 -0.0417
  108MOL0     C14473   0.797  11.044  10.543 -0.3213 -0.6279  0.0563
  108MOL0     C14474   0.571  10.941  10.591  0.3056  0.3280 -1.6897
  108MOL0     C14475   0.500  11.071  10.645  0.0342  0.7386  0.6159
  108MOL0     O14476   0.371  11.050  10.689 -0.1044  0.1427  0.5400
  108MOL0     C14477   0.278  11.149  10.700 -0.1036  0.6769  0.7651
  108MOL0     C14478   0.170  11.115  10.773 -0.4988 -0.2584 -0.6063
  108MOL0     C14479   0.063  11.203  10.793 -0.4053 -1.6285 -0.0866
  108MOL0     C14480   0.078  11.328  10.748 -0.0392 -0.9825  0.5665
  108MOL0     O14481  -0.015  11.430  10.748 -0.4678 -0.5268 -0.0377
  108MOL0     C14482  -0.043  11.486  10.878 -0.0508 -0.4583  0.5962
  108MOL0     C14483  -0.141  11.606  10.866  0.0899 -0.2002  0.6557
  108MOL0     C14484  -0.277  11.542  10.842  0.0207  0.2800  0.4501
  108MOL0     C14485  -0.382  11.646  10.882  0.1058 -0.0676  0.1813
  108MOL0     C14486  -0.526  11.596  10.856 -0.1904 -0.1567  0.2614
  108MOL0     C14487  -0.621  11.718  10.830 -0.2382  1.1930 -0.6032
  108MOL0     C14488  -0.760  11.677  10.819 -0.0963  0.6599 -0.6074
  108MOL0     C14489  -0.802  11.618  10.691  0.1019  0.9517 -0.2709
  108MOL0    Cl14490  -0.977  11.633  10.656  0.5129  0.0932  0.0154
  108MOL0     C14491   0.183  11.358  10.660 -0.4417 -0.3444 -0.0447
  108MOL0     C14492   0.278  11.265  10.629 -0.4986 -0.5008 -0.4935
  108MOL0     O14493   0.561  11.178  10.626  0.4669 -0.1858 -0.2054
  108MOL0     C14494   0.498  10.821  10.602  0.0099 -0.9217  0.4882
  108MOL0     C14495   0.546  10.701  10.538 -0.5639  0.4401  0.0152
  108MOL0     N14496   1.193  10.231  10.390 -0.3017 -0.8473 -0.0331
  108MOL0     N14497   1.298  10.251  10.319 -0.0653  0.2336 -0.3977
  108MOL0     C14498   1.243   9.153   9.996 -0.4131  0.3540 -0.4205
  108MOL0     C14499   1.215   9.020   9.959  0.4252 -0.7437  0.6870
  108MOL0     C14500   1.141   8.622   9.805  0.4606 -0.7968  0.6151
  108MOL0     C14501   1.047   8.527   9.853 -0.5960 -1.0248  0.4646
  108MOL0     C14502   1.038   8.402   9.792 -0.1164 -0.1551  0.0110
  108MOL0     C14503   1.142   8.372   9.700 -0.2591  0.0789 -0.1054
  108MOL0     O14504   1.154   8.255   9.631 -0.1624 -0.3841  0.1578
  108MOL0     C14505   1.147   8.130   9.703  0.6223 -0.3423  0.1256
  108MOL0     C14506   1.251   8.122   9.811  0.1952  0.1196  0.7166
  108MOL0     C14507   1.388   8.167   9.775 -0.3068  0.5151  0.6071
  108MOL0     C14508   1.488   8.105   9.881  0.0112  0.0987 -0.7463
  108MOL0     C14509   1.491   7.956   9.866  0.2922 -0.5690  0.5051
  108MOL0     C14510   1.500   7.836   9.844 -1.2518 -0.2930 -1.3519
  108MOL0     C14511   1.230   8.466   9.647  0.4087  0.3575  0.0418
  108MOL0     C14512   1.231   8.590   9.702 -0.1563  0.1449 -0.0525
  108MOL0     H14513   1.265   9.047   9.622 -3.3048  0.1821  0.2156
  108MOL0     H14514   1.282   9.283   9.691  1.5983 -2.7990 -3.2544
  108MOL0     H14515   1.081   9.495   9.973 -1.1347  0.2474 -0.1299
  108MOL0     H14516   1.088   9.345  10.062 -3.7682  1.4827 -0.8380
  108MOL0     H14517   1.154   9.528  10.216  0.5259 -2.8353 -0.1011
  108MOL0     H14518   1.302   9.448  10.187  0.3161 -0.7030 -0.3502
  108MOL0     H14519   1.374   9.655  10.174 -0.1712  2.8833  0.0223
  108MOL0     H14520   1.353   9.608  10.007 -2.2563 -0.0839 -1.4257
  108MOL0     H14521   1.129   9.691   9.990 -2.5693 -3.5683  3.3868
  108MOL0     H14522   1.128   9.754  10.142 -1.6366  3.0195 -2.4962
  108MOL0     H14523   1.272   9.870   9.905 -1.7609  0.7820 -0.5436
  108MOL0     H14524   1.151   9.942  10.013 -0.5365 -1.5981  0.0402
  108MOL0     H14525   1.319   9.972  10.188 -1.7457  0.1806  0.1034
  108MOL0     H14526   1.438   9.883  10.098 -0.1013 -1.0024 -4.2449
  108MOL0     H14527   1.507  10.080  10.032  0.1853 -1.8389  4.4730
  108MOL0     H14528   1.385  10.080   9.911  0.5512 -1.5989 -0.2258
  108MOL0     H14529   1.294  10.275   9.987 -0.3834  1.2292  1.2888
  108MOL0     H14530   1.441  10.279  10.084 -1.0550  1.5305  0.8774
  108MOL0     H14531   1.081  10.154  10.087  0.7218 -0.6938 -0.3328
  108MOL0     H14532   0.908  10.208  10.243  3.1559 -2.1044 -2.2151
  108MOL0     H14533   0.917  10.132  10.412 -1.7749  1.6803  0.1783
  108MOL0     H14534   0.946  10.418  10.346  2.0226  0.9827  1.8698
  108MOL0     H14535   0.948  10.335  10.506 -1.4245 -0.7042 -0.1863
  108MOL0     H14536   0.719  10.247  10.405 -0.0573 -0.6661 -1.0434
  108MOL0     H14537   0.731  10.371  10.286  0.6037 -2.5501 -0.1692
  108MOL0     H14538   0.738  10.448  10.567  3.0461  0.1416 -1.0716
  108MOL0     H14539   0.590  10.444  10.465  0.0546  0.8182  1.3283
  108MOL0     H14540   0.857  10.819  10.458 -0.9072  0.6416  1.2597
  108MOL0     H14541   0.815  11.083  10.644 -1.7708  2.4156 -0.7568
  108MOL0     H14542   0.897  11.024  10.503 -0.2346  3.5556 -2.3978
  108MOL0     H14543   0.766  11.126  10.477 -0.3014 -4.0676 -4.7697
  108MOL0     H14544   0.167  11.023  10.831  0.8441  1.5468  2.5759
  108MOL0     H14545  -0.017  11.161  10.854 -1.1346  0.9147  0.8494
  108MOL0     H14546  -0.096  11.406  10.930 -2.6188  0.8761  0.2268
  108MOL0     H14547   0.053  11.520  10.917 -1.4168  2.3916  1.7554
  108MOL0     H14548  -0.137  11.646  10.968  1.3912 -3.6876  2.1659
  108MOL0     H14549  -0.115  11.682  10.792 -2.5615  0.6039  0.4580
  108MOL0     H14550  -0.293  11.463  10.916 -1.3975 -0.0598 -0.1718
  108MOL0     H14551  -0.288  11.517  10.736 -0.1805 -1.3993  0.8413
  108MOL0     H14552  -0.383  11.671  10.988  0.1026  0.8783 -0.0281
  108MOL0     H14553  -0.375  11.735  10.819  2.8352 -0.3350 -0.0301
  108MOL0     H14554  -0.562  11.555  10.950 -1.6262  1.2196  0.3521
  108MOL0     H14555  -0.538  11.524  10.775 -2.0963 -1.1269  1.3451
  108MOL0     H14556  -0.616  11.776  10.922  1.0513 -0.0636  0.1547
  108MOL0     H14557  -0.593  11.790  10.752  2.4581  0.8135 -0.0587
  108MOL0     H14558  -0.823  11.766  10.825 -3.0544 -1.1847 -1.8571
  108MOL0     H14559  -0.779  11.621  10.911  1.3269  1.8385  0.4615
  108MOL0     H14560  -0.782  11.512  10.674 -1.8836  0.3061  1.1126
  108MOL0     H14561  -0.753  11.671  10.609  0.5710 -2.1775 -2.2146
  108MOL0     H14562   0.179  11.455  10.611 -0.0447 -0.4185 -0.2297
  108MOL0     H14563   0.352  11.297  10.556  0.1181  0.5842  0.5764
  108MOL0     H14564   0.401  10.820  10.652  0.0544  1.4237  0.7273
  108MOL0     H14565   0.494  10.607  10.541  1.3570 -0.7277 -0.9924
  108MOL0     H14566   1.223   9.190  10.095 -1.3805  0.2398 -0.5593
  108MOL0     H14567   1.180   8.962  10.043 -1.4662  1.1076  1.2621
  108MOL0     H14568   0.981   8.546   9.938  0.2268  1.0028  0.7138
  108MOL0     H14569   0.957   8.334   9.817  0.9155 -1.8065 -0.9807
  108MOL0     H14570   1.050   8.122   9.755  0.5612  0.5572  0.1615
  108MOL0     H14571   1.160   8.045   9.636 -1.8347  0.5000 -1.5457
  108MOL0     H14572   1.245   8.016   9.834 -4.2208  0.1121  0.2730
  108MOL0     H14573   1.226   8.161   9.910  1.3102  0.4885  0.8745
  108MOL0     H14574   1.387   8.276   9.781  1.5038  0.5306  1.2994
  108MOL0     H14575   1.407   8.153   9.668 -1.2375  0.9609  0.3677
  108MOL0     H14576   1.459   8.127   9.985 -2.6931 -0.0606 -1.3864
  108MOL0     H14577   1.587   8.136   9.847 -1.7977  3.4817 -3.6160
  108MOL0     H14578   1.513   7.731   9.827  2.5227  0.2009 -2.5834
  108MOL0     H14579   1.309   8.443   9.575 -0.8554  0.2400 -1.3511
  108MOL0     H14580   1.299   8.670   9.673  0.7502 -0.5142  0.2151
  109MOL0     O14581   9.601   9.915   2.571 -0.3585  0.1576  0.4898
  109MOL0     C14582   9.566   9.968   2.468 -0.2917  0.2633  0.3226
  109MOL0     O14583   9.577  10.100   2.422 -0.2730  0.5594 -0.4156
  109MOL0     C14584   9.598  10.198   2.517  1.0119  0.2055 -0.3480
  109MOL0     C14585   9.658  10.313   2.476 -0.1602  1.0182 -0.6781
  109MOL0     C14586   9.668  10.419   2.570 -0.3390 -0.1264  0.2361
  109MOL0     C14587   9.626  10.409   2.703 -0.7093  0.3194 -0.4050
  109MOL0     O14588   9.634  10.513   2.794  0.2218 -1.1618  0.4665
  109MOL0     C14589   9.752  10.582   2.795  0.8883 -0.6135 -0.0330
  109MOL0     C14590   9.714  10.658   2.922  1.4069  0.9725 -1.0736
  109MOL0     C14591   9.837  10.739   2.967 -0.1740  0.5929  0.4062
  109MOL0     C14592   9.839  10.892   2.925  0.2968 -0.4239 -0.4054
  109MOL0     C14593   9.980  10.947   2.936 -0.0957  0.5516 -0.5621
  109MOL0     C14594   9.990  11.057   2.826  0.6298  1.0714  1.1887
  109MOL0     C14595  10.133  11.111   2.842  0.3044 -0.4829 -0.4039
  109MOL0     C14596  10.164  11.216   2.725 -0.0130 -0.2614 -0.1317
  109MOL0     N14597  10.103  11.352   2.733  0.1912  0.6335 -1.4446
  109MOL0     C14598  10.117  11.424   2.854 -0.8850 -0.3404  0.9815
  109MOL0     C14599  10.079  11.553   2.819  0.1472 -0.2508  0.6781
  109MOL0     C14600  10.069  11.664   2.905  0.2686  0.0113  0.1968
  109MOL0     C14601  10.204  11.744   2.896  0.6585  0.1117  0.1932
  109MOL0     C14602  10.310  11.698   2.988  0.6208  0.7449 -0.6955
  109MOL0     C14603  10.434  11.791   2.994 -0.7847  0.4195 -0.8888
  109MOL0     O14604  10.396  11.908   3.067  0.5676 -0.6413 -0.2527
  109MOL0     C14605  10.489  12.002   3.096  0.0804  0.2555 -0.5298
  109MOL0     C14606  10.576  11.971   3.197  0.7452 -0.0740 -0.8045
  109MOL0     C14607  10.695  12.040   3.223  0.3410  1.3483  0.0109
  109MOL0     C14608  10.781  11.989   3.335 -0.1679  0.0062 -0.3225
  109MOL0     C14609  10.713  12.159   3.146  0.9508  0.3729 -0.1243
  109MOL0     C14610  10.823  12.257   3.188  0.4267 -0.8211  0.0946
  109MOL0     O14611  10.844  12.359   3.095 -0.6937 -0.3991 -0.2760
  109MOL0     C14612  10.931  12.472   3.127  1.5218  0.3444 -0.0809
  109MOL0     C14613  11.046  12.492   3.047  0.0177 -0.4816 -0.5375
  109MOL0     C14614  11.127  12.617   3.073  0.3684  1.0884 -0.2105
  109MOL0     C14615  11.091  12.703   3.172  0.6907 -0.5759 -0.3379
  109MOL0     O14616  11.172  12.802   3.202 -0.5533 -0.2795 -0.4848
  109MOL0     C14617  11.287  12.757   3.279  0.2428  1.1870  0.0812
  109MOL0     C14618  11.398  12.860   3.296  0.1534  0.2915 -0.2416
  109MOL0     C14619  11.518  12.825   3.387 -0.1944  0.3294  0.0907
  109MOL0     C14620  11.649  12.873   3.333 -0.0231 -0.8633 -0.5434
  109MOL0     C14621  11.674  13.024   3.361  0.1513 -0.6142  0.2006
  109MOL0     C14622  11.691  13.070   3.506 -0.2438  0.1128  0.0108
  109MOL0     C14623  11.828  13.028   3.552  0.8384  0.1104  0.6550
  109MOL0     C14624  11.836  12.946   3.685 -0.9158 -0.0578 -0.9065
  109MOL0    Cl14625  12.010  12.920   3.717 -0.0055 -0.2635  0.0767
  109MOL0     C14626  10.972  12.680   3.252  0.1769  0.2523  0.1792
  109MOL0     C14627  10.903  12.550   3.238 -0.5631 -0.7683  0.2808
  109MOL0     O14628  10.874  12.250   3.302  0.1140 -0.4722  0.1966
  109MOL0     C14629  10.616  12.190   3.045  1.1503  0.2333 -0.6102
  109MOL0     C14630  10.499  12.122   3.018 -0.2632  0.3580 -1.2656
  109MOL0     N14631  10.036  11.549   2.682  0.9898  0.5798  0.0816
  109MOL0     N14632  10.045  11.434   2.639 -0.8456  0.4288  0.3610
  109MOL0     C14633   9.562  10.299   2.746 -0.3669 -0.5054  0.7019
  109MOL0     C14634   9.541  10.197   2.651  0.3632 -0.1679 -0.8108
  109MOL0     C14635   9.508   9.886   2.358 -0.3206 -0.4585  0.5440
  109MOL0     C14636   9.470   9.754   2.387 -0.0228  0.4760  0.0559
  109MOL0     C14637   9.413   9.674   2.290  0.2227 -0.6506  0.3384
  109MOL0     C14638   9.418   9.701   2.148 -1.2241  0.4911 -0.3369
  109MOL0     O14639   9.374   9.599   2.062 -0.6154 -0.2808  0.2787
  109MOL0     C14640   9.333   9.640   1.928 -0.1974  1.4904 -0.1180
  109MOL0     C14641   9.256   9.523   1.868  0.0663  0.6523  0.1241
  109MOL0     C14642   9.135   9.463   1.945 -0.6022 -0.0017  1.0305
  109MOL0     C14643   9.031   9.570   1.991 -0.2779 -0.1671 -0.4313
  109MOL0     C14644   8.918   9.512   2.064  0.1863  0.3742 -1.6095
  109MOL0     C14645   8.830   9.466   2.130 -0.5282  0.5116  0.8922
  109MOL0     C14646   9.452   9.830   2.126  0.5871  0.3648  1.1928
  109MOL0     C14647   9.496   9.929   2.225  0.1760 -0.5501 -0.2884
  109MOL0     H14648   9.699  10.308   2.376  1.9509 -3.2148  0.1407
  109MOL0     H14649   9.722  10.508   2.540 -1.2971  0.6698  0.8081
  109MOL0     H14650   9.830  10.510   2.818 -1.5027 -2.5336  2.9468
  109MOL0     H14651   9.763  10.649   2.710  2.6426 -1.0400 -0.1622
  109MOL0     H14652   9.622  10.713   2.899  0.2570 -0.0645  0.7973
  109MOL0     H14653   9.684  10.589   3.002 -3.3413  1.9845 -1.6673
  109MOL0     H14654   9.843  10.759   3.074 -1.3615  2.2641  0.1958
  109MOL0     H14655   9.925  10.682   2.935  0.1316 -0.1688  2.4805
  109MOL0     H14656   9.817  10.890   2.818  2.0495 -1.0767 -0.7852
  109MOL0     H14657   9.761  10.949   2.977 -1.3965 -0.4190 -2.7343
  109MOL0     H14658   9.995  10.976   3.041  0.9655 -1.3645 -0.1367
  109MOL0     H14659  10.055  10.869   2.919 -0.6106  0.1499 -0.9883
  109MOL0     H14660   9.989  11.015   2.725 -1.9567  3.0968  0.2715
  109MOL0     H14661   9.903  11.121   2.842  0.4914  0.6124  2.3906
  109MOL0     H14662  10.157  11.158   2.938  1.9784  2.9268 -2.3132
  109MOL0     H14663  10.198  11.024   2.826  0.0764 -0.5002 -1.3305
  109MOL0     H14664  10.140  11.165   2.631  1.1917 -0.1642 -0.5071
  109MOL0     H14665  10.272  11.230   2.732 -0.5543  4.0812  2.5646
  109MOL0     H14666  10.141  11.382   2.951 -2.3565 -2.0675  0.6528
  109MOL0     H14667   9.984  11.717   2.862 -0.9845 -2.0574 -0.0124
  109MOL0     H14668  10.056  11.635   3.009 -2.0952  3.2071  0.9166
  109MOL0     H14669  10.174  11.843   2.934 -1.4303 -1.3653  2.6905
  109MOL0     H14670  10.237  11.768   2.795  2.6678  1.0016  1.0114
  109MOL0     H14671  10.346  11.605   2.944  0.6344  0.6592 -0.4992
  109MOL0     H14672  10.260  11.684   3.084  1.2020  1.3190 -0.3027
  109MOL0     H14673  10.474  11.816   2.895  1.4338  0.8755  0.0509
  109MOL0     H14674  10.523  11.744   3.036  1.7384  2.8875 -3.0469
  109MOL0     H14675  10.546  11.883   3.254 -2.9629  0.9780 -0.8663
  109MOL0     H14676  10.881  11.971   3.295  0.5779  1.1588  0.9127
  109MOL0     H14677  10.786  12.061   3.418  0.2672  0.2095 -0.5240
  109MOL0     H14678  10.740  11.895   3.375 -3.0772  1.6456  0.9477
  109MOL0     H14679  11.087  12.431   2.967  2.9980  0.9108 -0.2360
  109MOL0     H14680  11.224  12.628   3.026  0.7086 -2.7856 -0.7409
  109MOL0     H14681  11.243  12.721   3.372  1.9734 -1.4196  0.0061
  109MOL0     H14682  11.345  12.674   3.236 -0.7353  0.8242 -0.5593
  109MOL0     H14683  11.436  12.879   3.195 -0.4185  0.5816 -0.4075
  109MOL0     H14684  11.346  12.953   3.321  0.3913  0.6201 -0.9392
  109MOL0     H14685  11.504  12.717   3.402 -0.6720  0.5156  1.1326
  109MOL0     H14686  11.497  12.868   3.486  2.5344  0.8629  0.5111
  109MOL0     H14687  11.734  12.813   3.370 -0.8568 -0.7969  1.6268
  109MOL0     H14688  11.649  12.862   3.225  1.5792  0.7912 -0.7753
  109MOL0     H14689  11.578  13.063   3.326 -0.9639 -3.3808 -0.0504
  109MOL0     H14690  11.748  13.072   3.296  0.1213 -2.0883 -0.9750
  109MOL0     H14691  11.666  13.176   3.515  1.6146  0.5207  1.1771
  109MOL0     H14692  11.619  13.024   3.574 -1.4438 -0.1892 -1.4381
  109MOL0     H14693  11.885  13.121   3.564 -0.3674  1.4914 -2.9918
  109MOL0     H14694  11.889  12.976   3.479  0.9405  1.6540 -0.4030
  109MOL0     H14695  11.795  12.846   3.669  5.9162 -3.3092 -2.0067
  109MOL0     H14696  11.775  12.995   3.761 -0.5589 -1.0148  0.0315
  109MOL0     H14697  10.952  12.734   3.344  0.2437 -0.3839  0.5694
  109MOL0     H14698  10.823  12.517   3.304 -0.9125 -1.1272 -0.3169
  109MOL0     H14699  10.621  12.277   2.980 -1.3521  0.5145 -0.5368
  109MOL0     H14700  10.434  12.147   2.935 -2.1619  2.5594  0.7284
  109MOL0     H14701   9.537  10.304   2.851  1.9657 -0.4536  1.3154
  109MOL0     H14702   9.480  10.110   2.674 -0.0240 -0.2059 -1.8884
  109MOL0     H14703   9.461   9.733   2.493 -4.6116 -3.9439 -0.8045
  109MOL0     H14704   9.367   9.580   2.317  1.4182 -1.9350 -1.8470
  109MOL0     H14705   9.274   9.729   1.952 -2.2079 -0.3594  2.3528
  109MOL0     H14706   9.420   9.652   1.863 -2.0121 -1.5338 -3.4504
  109MOL0     H14707   9.338   9.452   1.853  3.1042  4.1941 -1.6801
  109MOL0     H14708   9.218   9.553   1.770 -0.5449 -1.3336 -0.2880
  109MOL0     H14709   9.171   9.420   2.039  2.1126 -0.5143 -0.1572
  109MOL0     H14710   9.098   9.380   1.884  1.0574  0.5852 -0.8644
  109MOL0     H14711   8.982   9.630   1.913  1.9446  0.9642 -1.0331
  109MOL0     H14712   9.079   9.633   2.067  1.1359 -3.1454  1.3213
  109MOL0     H14713   8.765   9.426   2.205 -2.6716 -0.5062 -1.3596
  109MOL0     H14714   9.460   9.862   2.022  2.4947 -1.3150  0.7708
  109MOL0     H14715   9.523  10.023   2.179 -0.7493 -2.0871 -4.3647
  110MOL0     O14716   3.254   8.495  10.273  0.3636 -0.4974  0.4718
  110MOL0     C14717   3.182   8.526  10.179 -0.7676  0.4109  0.1282
  110MOL0     O14718   3.064   8.466  10.147 -0.3706  0.4844  0.2662
  110MOL0     C14719   3.053   8.335  10.208 -0.0495 -0.1616  0.2228
  110MOL0     C14720   3.009   8.308  10.342  0.0546  0.8088 -0.1828
  110MOL0     C14721   3.010   8.177  10.398 -0.4895  0.5207  0.2463
  110MOL0     C14722   3.054   8.079  10.319  0.9058 -0.1026 -0.0046
  110MOL0     O14723   3.059   7.959  10.380  0.1462  0.3418  0.1800
  110MOL0     C14724   2.958   7.866  10.343  0.1068 -0.0704 -0.0662
  110MOL0     C14725   2.834   7.851  10.446 -0.4156  0.3705 -0.0601
  110MOL0     C14726   2.753   7.725  10.423 -0.5062  1.1889  0.6029
  110MOL0     C14727   2.655   7.695  10.531 -0.8532  0.2738 -0.2978
  110MOL0     C14728   2.523   7.773  10.525 -0.8353 -0.5682 -0.2077
  110MOL0     C14729   2.400   7.687  10.570  0.3040 -0.1367  0.6093
  110MOL0     C14730   2.259   7.764  10.578 -0.1836  0.0395 -0.3087
  110MOL0     C14731   2.284   7.872  10.699 -0.1155  0.7189  0.4258
  110MOL0     N14732   2.195   7.991  10.685 -0.3554 -0.7893 -0.4102
  110MOL0     C14733   2.064   7.995  10.674  0.5173  0.0670 -0.0182
  110MOL0     C14734   2.033   8.126  10.677 -0.3591  0.5648  0.1113
  110MOL0     C14735   1.897   8.179  10.698  0.0832 -0.3734 -0.8808
  110MOL0     C14736   1.819   8.197  10.573  0.1386  0.0984  0.7264
  110MOL0     C14737   1.881   8.307  10.478 -0.4796  0.2819 -0.6652
  110MOL0     C14738   1.791   8.306  10.360  0.1782  0.3586  0.6432
  110MOL0     O14739   1.663   8.370  10.377  0.3542  0.0523  0.4712
  110MOL0     C14740   1.641   8.495  10.438 -0.0380  0.5996 -0.7042
  110MOL0     C14741   1.700   8.609  10.391  0.4412 -0.3150 -0.6299
  110MOL0     C14742   1.697   8.729  10.461  0.3570 -0.2999  0.6599
  110MOL0     C14743   1.758   8.847  10.401 -0.0604 -0.0896  0.3421
  110MOL0     C14744   1.626   8.737  10.578 -0.2740  0.3409 -0.0391
  110MOL0     C14745   1.617   8.863  10.651 -0.8913  0.0280  0.1633
  110MOL0     O14746   1.508   8.887  10.725  0.5667 -0.2088  0.4169
  110MOL0     C14747   1.495   9.013  10.785 -1.0107  0.3638  0.0199
  110MOL0     C14748   1.563   9.049  10.900  0.4032 -0.5739  0.1979
  110MOL0     C14749   1.517   9.154  10.982 -0.4252 -1.3492 -0.8541
  110MOL0     C14750   1.429   9.246  10.930  0.7857 -0.7596  1.0822
  110MOL0     O14751   1.415   9.345  11.010 -0.2254 -0.6461 -0.4339
  110MOL0     C14752   1.440   9.476  10.947 -0.1102  0.7743  0.2983
  110MOL0     C14753   1.451   9.585  11.059  0.2260  0.4241  0.1681
  110MOL0     C14754   1.402   9.723  11.035  0.7852  0.1197  0.3383
  110MOL0     C14755   1.248   9.741  11.048  0.3861 -0.2967 -0.2674
  110MOL0     C14756   1.203   9.887  11.045 -0.7671  0.7524  0.2746
  110MOL0     C14757   1.238   9.959  11.178 -0.5208 -0.0853  0.2916
  110MOL0     C14758   1.167   9.881  11.296 -0.4099 -0.8808 -1.0394
  110MOL0     C14759   1.183   9.967  11.416  0.8379 -0.1496 -0.4088
  110MOL0    Cl14760   1.351   9.998  11.446 -0.1870 -0.0767  0.6807
  110MOL0     C14761   1.373   9.231  10.803  0.2708  0.9892  0.0211
  110MOL0     C14762   1.400   9.104  10.745  1.0844 -0.4311  0.8827
  110MOL0     O14763   1.722   8.930  10.658 -0.2630 -0.7858 -1.0194
  110MOL0     C14764   1.560   8.627  10.627  0.3354  0.3572  0.0780
  110MOL0     C14765   1.562   8.500  10.553  0.8269  0.3658  0.0433
  110MOL0     N14766   2.144   8.202  10.660 -0.0335 -0.7127  0.7610
  110MOL0     N14767   2.238   8.125  10.661 -1.2072 -0.4939  0.1989
  110MOL0     C14768   3.091   8.094  10.187 -0.1598 -0.6733 -0.9864
  110MOL0     C14769   3.099   8.221  10.135  0.6731  0.2808  0.2623
  110MOL0     C14770   3.233   8.628  10.071  0.1545 -1.2130 -0.3152
  110MOL0     C14771   3.339   8.713  10.095  0.3937  0.2491  0.0898
  110MOL0     C14772   3.381   8.814  10.015 -0.4792  0.0919  0.5430
  110MOL0     C14773   3.318   8.822   9.886 -0.1837 -0.8241 -0.5587
  110MOL0     O14774   3.335   8.927   9.803  0.5410  0.2019 -0.5909
  110MOL0     C14775   3.431   9.028   9.833  0.3768 -0.2210 -0.4019
  110MOL0     C14776   3.351   9.147   9.893  0.0642 -0.4303  0.3349
  110MOL0     C14777   3.430   9.270   9.909 -0.3464  0.0789 -0.1562
  110MOL0     C14778   3.345   9.386   9.954 -0.4175  0.0332 -0.2166
  110MOL0     C14779   3.302   9.369  10.092  0.4877  0.1783 -0.6046
  110MOL0     C14780   3.244   9.362  10.198 -0.4869 -0.2928 -0.1654
  110MOL0     C14781   3.220   8.733   9.849  0.5424 -0.3262 -0.5276
  110MOL0     C14782   3.169   8.642   9.946 -0.6684  0.6144 -0.1618
  110MOL0     H14783   2.977   8.388  10.408 -0.1366 -0.5683  1.4671
  110MOL0     H14784   2.980   8.166  10.502 -4.3556  3.0606 -0.3493
  110MOL0     H14785   2.938   7.865  10.236  3.5218 -1.4689 -0.8316
  110MOL0     H14786   3.015   7.773  10.356 -0.5345 -0.5130 -0.3845
  110MOL0     H14787   2.858   7.858  10.552 -0.0982  0.1399 -0.1174
  110MOL0     H14788   2.755   7.926  10.433 -1.8063 -0.1756  3.9234
  110MOL0     H14789   2.711   7.746  10.324  3.0950  1.5686 -1.0015
  110MOL0     H14790   2.817   7.639  10.406 -2.2231  0.1632 -1.0611
  110MOL0     H14791   2.638   7.587  10.518 -0.6842  0.3231 -0.9845
  110MOL0     H14792   2.711   7.707  10.624 -1.3629  0.8357 -0.0631
  110MOL0     H14793   2.537   7.863  10.586  1.6861 -1.9740  1.4557
  110MOL0     H14794   2.518   7.797  10.418  2.1538  1.7586  0.0353
  110MOL0     H14795   2.394   7.592  10.515  0.3520 -0.3193  0.9174
  110MOL0     H14796   2.422   7.657  10.673  0.4941 -2.3267 -0.0187
  110MOL0     H14797   2.248   7.823  10.487  0.1211  1.4966  0.5576
  110MOL0     H14798   2.167   7.709  10.601  1.5739 -2.0975  2.3454
  110MOL0     H14799   2.381   7.920  10.684  1.4560 -2.4014 -0.2131
  110MOL0     H14800   2.284   7.826  10.799  2.2539 -1.1626 -0.3565
  110MOL0     H14801   1.989   7.916  10.673  1.1339 -0.5485 -1.8033
  110MOL0     H14802   1.840   8.112  10.764  0.0292 -1.0878 -1.6319
  110MOL0     H14803   1.906   8.273  10.752  0.2589 -0.0985 -1.3844
  110MOL0     H14804   1.717   8.224  10.605 -0.0618  2.0168 -1.2550
  110MOL0     H14805   1.798   8.110  10.510 -1.6889  2.7709 -2.7672
  110MOL0     H14806   1.980   8.280  10.440 -0.5061 -0.2515 -0.3501
  110MOL0     H14807   1.877   8.406  10.524  0.1710  1.5244 -3.1009
  110MOL0     H14808   1.775   8.203  10.328 -1.2990  0.6590  0.3403
  110MOL0     H14809   1.847   8.347  10.275  0.3155 -0.6669  0.2242
  110MOL0     H14810   1.759   8.605  10.300  0.9557 -2.0768 -0.2644
  110MOL0     H14811   1.702   8.940  10.414  0.7277  0.8763 -2.3696
  110MOL0     H14812   1.859   8.868  10.435  0.3598  3.4080 -2.4518
  110MOL0     H14813   1.761   8.840  10.291 -1.9739  0.8465  0.1745
  110MOL0     H14814   1.655   8.997  10.924  1.4091 -0.5647 -3.1955
  110MOL0     H14815   1.566   9.182  11.075 -0.5744 -1.6267 -0.6895
  110MOL0     H14816   1.525   9.471  10.878 -0.3797  0.5015 -0.0147
  110MOL0     H14817   1.345   9.489  10.894 -0.6920  1.9371  1.5842
  110MOL0     H14818   1.418   9.548  11.157  5.0712  0.5004  2.1196
  110MOL0     H14819   1.557   9.591  11.084 -0.4142 -1.2448  4.0613
  110MOL0     H14820   1.437   9.750  10.935 -1.4228  0.0400 -0.5188
  110MOL0     H14821   1.453   9.783  11.111 -1.9447  0.7610  1.8385
  110MOL0     H14822   1.213   9.676  10.968  0.7410 -4.1485  2.4382
  110MOL0     H14823   1.216   9.691  11.140  1.7506  0.6781  0.7801
  110MOL0     H14824   1.095   9.889  11.027 -0.3588 -1.3315 -3.5748
  110MOL0     H14825   1.257   9.940  10.966 -1.3630  1.0715  0.0741
  110MOL0     H14826   1.346   9.972  11.189 -0.7847  0.9726  1.8907
  110MOL0     H14827   1.192  10.058  11.187 -0.1360 -0.0025  1.4346
  110MOL0     H14828   1.224   9.790  11.314  1.4782  0.2332 -1.1070
  110MOL0     H14829   1.061   9.868  11.270  0.2331 -0.0884 -4.5483
  110MOL0     H14830   1.135   9.915  11.500  0.7235 -1.3975 -1.2253
  110MOL0     H14831   1.129  10.062  11.410  0.4417 -0.3736 -0.4716
  110MOL0     H14832   1.304   9.304  10.760  0.7102  3.3762  3.0094
  110MOL0     H14833   1.345   9.086  10.653 -0.6608  2.2979  1.2839
  110MOL0     H14834   1.498   8.641  10.715  1.3102  0.2758  0.7823
  110MOL0     H14835   1.513   8.407  10.581  1.1260  0.5655  1.2906
  110MOL0     H14836   3.129   8.002  10.143 -0.3492 -3.0948  3.3050
  110MOL0     H14837   3.139   8.227  10.034  2.1131 -2.7886  0.5427
  110MOL0     H14838   3.382   8.702  10.194  2.1219 -2.6015 -0.8389
  110MOL0     H14839   3.453   8.886  10.054  0.6408 -0.3859 -0.5764
  110MOL0     H14840   3.518   8.991   9.889  0.3787 -0.7398 -0.7436
  110MOL0     H14841   3.487   9.066   9.747  0.9250 -0.6489 -0.2423
  110MOL0     H14842   3.294   9.114   9.980  0.1402 -3.0339 -0.5128
  110MOL0     H14843   3.279   9.172   9.814  0.7717 -0.8094 -0.4530
  110MOL0     H14844   3.465   9.304   9.811 -1.5120 -0.2111 -0.7001
  110MOL0     H14845   3.519   9.253   9.971 -0.3235  2.9951  0.7339
  110MOL0     H14846   3.267   9.410   9.880  0.2613 -0.0788 -0.9843
  110MOL0     H14847   3.419   9.465   9.965  2.0065 -2.2749  1.2996
  110MOL0     H14848   3.189   9.371  10.289  2.8516  0.8056  1.8905
  110MOL0     H14849   3.166   8.740   9.755 -0.4764  0.5407  0.1067
  110MOL0     H14850   3.095   8.568   9.915 -0.1835  0.6946 -1.6194
  111MOL0     O14851   7.282   2.418  11.534 -0.4705 -0.3540  0.2980
  111MOL0     C14852   7.265   2.449  11.413  0.1498 -0.1827  0.3075
  111MOL0     O14853   7.354   2.516  11.331  0.0115  1.0682 -0.0466
  111MOL0     C14854   7.473   2.562  11.384 -0.7237 -0.2944  0.2500
  111MOL0     C14855   7.570   2.490  11.463  0.0069 -1.3038  0.9311
  111MOL0     C14856   7.697   2.548  11.493 -0.0217  0.1292 -0.1384
  111MOL0     C14857   7.725   2.683  11.458  0.6684 -0.3839 -1.0658
  111MOL0     O14858   7.838   2.756  11.498 -0.2657 -0.8095  0.3453
  111MOL0     C14859   7.963   2.690  11.513 -0.5362 -0.2780  0.2482
  111MOL0     C14860   8.028   2.634  11.385 -0.6269 -0.6315  0.6109
  111MOL0     C14861   8.045   2.746  11.279  0.2030  0.7542 -0.6237
  111MOL0     C14862   8.139   2.704  11.176  0.6163 -0.9219  0.1201
  111MOL0     C14863   8.130   2.559  11.116 -0.2302 -1.1231 -0.2176
  111MOL0     C14864   8.230   2.526  10.995  0.2905  0.5575  0.0331
  111MOL0     C14865   8.370   2.563  11.014 -0.4435 -0.0277  0.7548
  111MOL0     C14866   8.442   2.543  10.882  0.8826 -0.7527  0.3219
  111MOL0     N14867   8.426   2.646  10.784  0.3463  0.6284 -0.7183
  111MOL0     C14868   8.368   2.636  10.666  0.9950  0.3143 -0.0417
  111MOL0     C14869   8.368   2.769  10.615  0.5579  0.2408 -0.1475
  111MOL0     C14870   8.306   2.821  10.482  0.2377  0.0523 -1.1694
  111MOL0     C14871   8.171   2.913  10.511 -0.1799 -0.3562  0.8937
  111MOL0     C14872   8.055   2.837  10.573 -0.9312 -0.0678  0.2358
  111MOL0     C14873   7.922   2.914  10.563 -0.2560  0.0798 -0.5937
  111MOL0     O14874   7.875   2.923  10.430  0.3416  1.1250 -0.2247
  111MOL0     C14875   7.755   2.982  10.405  0.9299 -0.8272 -0.2990
  111MOL0     C14876   7.682   3.046  10.510  0.1868 -0.2020  0.3339
  111MOL0     C14877   7.572   3.123  10.473  0.7533  0.4199 -0.2732
  111MOL0     C14878   7.504   3.196  10.582 -1.0413 -0.1270 -0.1867
  111MOL0     C14879   7.513   3.118  10.342  0.7786  0.0472  0.2409
  111MOL0     C14880   7.385   3.176  10.297 -1.3172  0.5649  0.8237
  111MOL0     O14881   7.358   3.190  10.161  0.1459 -0.6523 -0.1694
  111MOL0     C14882   7.237   3.243  10.133 -0.3654 -0.7111 -1.2304
  111MOL0     C14883   7.232   3.368  10.068  0.1809  0.0804 -0.4423
  111MOL0     C14884   7.111   3.428  10.055  0.9006 -0.3791  0.3454
  111MOL0     C14885   6.990   3.396  10.118  0.3630 -0.2167  1.0702
  111MOL0     O14886   6.883   3.480  10.117 -0.5304 -0.3198 -0.4290
  111MOL0     C14887   6.770   3.466  10.205  0.2579 -0.0126  0.3335
  111MOL0     C14888   6.665   3.585  10.194  0.5550 -1.1664  0.6998
  111MOL0     C14889   6.630   3.608  10.053  0.4185  0.6487 -0.1227
  111MOL0     C14890   6.510   3.703  10.044 -0.3097 -0.8341 -1.1976
  111MOL0     C14891   6.423   3.691   9.916 -0.2291 -0.2437  0.2428
  111MOL0     C14892   6.491   3.736   9.789  1.0950  0.1110  0.1013
  111MOL0     C14893   6.382   3.732   9.669 -0.4068 -0.1265  0.3205
  111MOL0     C14894   6.335   3.593   9.622  1.1416 -0.3991 -0.7028
  111MOL0    Cl14895   6.476   3.521   9.544 -0.3143  0.1947 -0.4877
  111MOL0     C14896   6.993   3.273  10.190 -0.3075 -0.8130 -0.7432
  111MOL0     C14897   7.115   3.198  10.181  0.1763  0.7672 -0.1855
  111MOL0     O14898   7.311   3.222  10.389  0.1719  0.5800  0.2764
  111MOL0     C14899   7.580   3.042  10.241  0.7669 -0.4559  0.1245
  111MOL0     C14900   7.702   2.986  10.274 -0.1587  0.1543  1.2027
  111MOL0     N14901   8.441   2.850  10.691 -0.6073 -0.1088 -0.5520
  111MOL0     N14902   8.466   2.778  10.804 -0.3548 -0.5264  0.7454
  111MOL0     C14903   7.624   2.756  11.387  0.4106  0.4557 -0.3011
  111MOL0     C14904   7.503   2.696  11.350 -0.8256 -0.4890  0.1301
  111MOL0     C14905   7.144   2.400  11.346  0.0024 -0.9664 -1.1192
  111MOL0     C14906   7.062   2.487  11.270 -0.4734  0.8970  0.1657
  111MOL0     C14907   6.931   2.450  11.231  0.6620  1.2876  0.6420
  111MOL0     C14908   6.879   2.323  11.250 -0.6505  0.1080  0.1107
  111MOL0     O14909   6.747   2.298  11.209  0.2042 -0.1259  0.3831
  111MOL0     C14910   6.696   2.166  11.234 -0.0262  0.2228 -0.1802
  111MOL0     C14911   6.741   2.054  11.134 -0.1094  0.5125  0.3201
  111MOL0     C14912   6.648   1.931  11.114  0.2344 -0.5834 -0.3749
  111MOL0     C14913   6.682   1.840  10.993  0.3189 -0.5232  0.1067
  111MOL0     C14914   6.812   1.788  11.019  1.1177 -0.2386  0.2589
  111MOL0     C14915   6.931   1.757  11.022 -0.1584 -0.1929  0.5983
  111MOL0     C14916   6.968   2.235  11.318  0.1464  0.2349 -0.6037
  111MOL0     C14917   7.094   2.275  11.367 -0.3484 -0.9655 -0.1074
  111MOL0     H14918   7.546   2.389  11.495  0.8380 -1.3050  1.5712
  111MOL0     H14919   7.775   2.489  11.538  1.1472  2.4656  1.0981
  111MOL0     H14920   8.046   2.757  11.535  0.5865 -0.3018 -3.2620
  111MOL0     H14921   7.947   2.615  11.592 -3.8435 -1.5931 -1.4688
  111MOL0     H14922   8.125   2.592  11.412 -0.3375  0.5557  1.5232
  111MOL0     H14923   7.959   2.562  11.340 -1.5669 -0.5403  1.8570
  111MOL0     H14924   7.950   2.763  11.227 -0.1479  2.7214  0.5705
  111MOL0     H14925   8.084   2.828  11.338  1.1774 -1.2351  1.6767
  111MOL0     H14926   8.118   2.771  11.093  2.3067 -2.4033 -1.5767
  111MOL0     H14927   8.243   2.731  11.196  0.1812  1.0958 -0.1210
  111MOL0     H14928   8.152   2.493  11.200 -1.0934  0.8528  1.6509
  111MOL0     H14929   8.031   2.540  11.073 -0.4060 -5.5181  1.5649
  111MOL0     H14930   8.220   2.421  10.968  0.1928  0.8235 -0.9719
  111MOL0     H14931   8.204   2.587  10.908  2.0370  0.9698 -0.2335
  111MOL0     H14932   8.375   2.670  11.035  2.2556  0.9542 -3.5862
  111MOL0     H14933   8.418   2.505  11.094 -1.5396 -0.3227  1.2205
  111MOL0     H14934   8.430   2.442  10.841 -0.3138 -2.1696  3.7208
  111MOL0     H14935   8.549   2.548  10.905  0.4972  0.3787  2.0657
  111MOL0     H14936   8.334   2.554  10.603  0.0740 -1.8293  3.0356
  111MOL0     H14937   8.374   2.872  10.413  0.0113  1.3768 -0.4513
  111MOL0     H14938   8.262   2.735  10.432 -1.6551 -0.0015  0.4702
  111MOL0     H14939   8.140   2.965  10.420  2.5281 -1.3333 -0.7466
  111MOL0     H14940   8.197   2.993  10.581 -2.1381 -0.4247  1.7574
  111MOL0     H14941   8.094   2.807  10.671 -0.0329 -0.0295 -0.1004
  111MOL0     H14942   8.043   2.738  10.528  1.6952 -0.8367  1.0288
  111MOL0     H14943   7.965   3.012  10.584  2.8551 -1.1866 -0.5196
  111MOL0     H14944   7.843   2.883  10.632 -1.6914  3.1510 -0.6937
  111MOL0     H14945   7.704   3.033  10.615 -1.7992  1.6958  1.0695
  111MOL0     H14946   7.582   3.216  10.656  1.0687 -0.0827 -2.3026
  111MOL0     H14947   7.473   3.296  10.548 -0.2646 -0.7445 -2.9141
  111MOL0     H14948   7.416   3.137  10.609 -0.9016 -0.9015 -1.3577
  111MOL0     H14949   7.315   3.425  10.025 -1.2959  2.0079 -0.8582
  111MOL0     H14950   7.120   3.521  10.001  5.5387  1.2294  3.2752
  111MOL0     H14951   6.722   3.376  10.165 -1.4721  0.2308  1.7321
  111MOL0     H14952   6.799   3.456  10.310  1.8460 -2.9223 -0.2740
  111MOL0     H14953   6.577   3.559  10.253 -0.7477  1.9913  0.3286
  111MOL0     H14954   6.716   3.672  10.237  0.7667 -0.9562  0.0296
  111MOL0     H14955   6.604   3.512  10.009 -0.5877 -0.1846  2.1490
  111MOL0     H14956   6.710   3.668  10.007  0.3335  3.7015  3.2049
  111MOL0     H14957   6.443   3.683  10.129  0.9293 -2.0796 -0.4801
  111MOL0     H14958   6.545   3.806  10.061  0.7243 -1.4067  0.4191
  111MOL0     H14959   6.335   3.756   9.926  0.4551  0.9590 -1.2006
  111MOL0     H14960   6.396   3.585   9.921  1.3178 -0.8019 -1.7105
  111MOL0     H14961   6.522   3.840   9.805  0.2788  0.0242  2.7593
  111MOL0     H14962   6.586   3.684   9.775 -0.1201 -1.9541 -0.9920
  111MOL0     H14963   6.424   3.775   9.578 -2.1923  1.6310  0.2531
  111MOL0     H14964   6.297   3.797   9.692 -1.0403 -0.6567 -0.4488
  111MOL0     H14965   6.257   3.595   9.545  2.5135  0.4708 -2.1257
  111MOL0     H14966   6.296   3.542   9.711  0.1068  0.2434 -0.7615
  111MOL0     H14967   6.905   3.229  10.235 -0.3192  0.9635  1.1092
  111MOL0     H14968   7.133   3.107  10.237  0.2722  0.5603 -0.5450
  111MOL0     H14969   7.543   3.051  10.139 -0.4321  2.3249  0.7176
  111MOL0     H14970   7.767   2.944  10.198  2.1516  2.2902  1.8710
  111MOL0     H14971   7.631   2.858  11.350 -1.8731  1.2053  1.1194
  111MOL0     H14972   7.433   2.754  11.290 -0.5109  1.3339  1.4475
  111MOL0     H14973   7.109   2.585  11.262 -0.2231  0.8668  1.1334
  111MOL0     H14974   6.859   2.514  11.182  0.4900  1.1189  0.6763
  111MOL0     H14975   6.714   2.124  11.333  0.0799  0.7524  0.0304
  111MOL0     H14976   6.587   2.172  11.228 -0.1674 -0.5642  1.2572
  111MOL0     H14977   6.835   2.010  11.168  0.3671 -0.1209 -1.6716
  111MOL0     H14978   6.750   2.092  11.032 -2.3621  0.6733  0.1324
  111MOL0     H14979   6.542   1.957  11.099 -0.5494 -2.5364  1.3017
  111MOL0     H14980   6.644   1.873  11.207 -3.5537  1.4488  0.9659
  111MOL0     H14981   6.670   1.902  10.904  1.2331  3.7617  2.6518
  111MOL0     H14982   6.604   1.763  10.986 -3.3704  2.9715 -0.9332
  111MOL0     H14983   7.038   1.743  11.025 -0.4453 -2.6680  1.9289
  111MOL0     H14984   6.937   2.134  11.343 -0.0904  0.7768  1.4232
  111MOL0     H14985   7.159   2.201  11.412 -0.2204 -0.6278  0.2647
  112MOL0     O14986   2.282   0.898   0.148  0.2185  0.4525  0.5498
  112MOL0     C14987   2.333   0.821   0.068  0.5764  0.1414 -0.6575
  112MOL0     O14988   2.416   0.856  -0.026 -0.1041  0.0524  0.0106
  112MOL0     C14989   2.494   0.967  -0.016 -0.0892  0.4820  0.1669
  112MOL0     C14990   2.503   1.035  -0.134 -0.4590 -0.3950  0.0235
  112MOL0     C14991   2.591   1.137  -0.141  0.7082 -0.9442  0.1560
  112MOL0     C14992   2.653   1.190  -0.021  0.1725 -0.9988 -0.7264
  112MOL0     O14993   2.740   1.296  -0.022 -0.8044  0.2863  0.4303
  112MOL0     C14994   2.881   1.270  -0.014 -0.0975 -0.2698  0.4511
  112MOL0     C14995   2.920   1.214  -0.151  0.3480  0.7377  0.1578
  112MOL0     C14996   2.960   1.326  -0.249 -0.3191 -1.1112 -0.1206
  112MOL0     C14997   2.842   1.397  -0.327  1.1207 -0.9290  0.3192
  112MOL0     C14998   2.882   1.478  -0.455 -0.0551  0.2487  0.9171
  112MOL0     C14999   2.932   1.401  -0.578  0.9669  0.1056  0.8634
  112MOL0     C15000   2.973   1.488  -0.697 -0.5318  0.4023 -0.7679
  112MOL0     C15001   3.125   1.500  -0.698 -0.2698  1.0420  0.4132
  112MOL0     N15002   3.168   1.634  -0.738  0.0306 -0.1185 -0.6008
  112MOL0     C15003   3.172   1.739  -0.651  1.0275 -0.5143  0.0664
  112MOL0     C15004   3.230   1.836  -0.720 -0.3496  0.2074 -0.1064
  112MOL0     C15005   3.271   1.974  -0.668  0.1406  1.0276  0.5245
  112MOL0     C15006   3.230   2.095  -0.753 -0.6737  0.0769 -0.5005
  112MOL0     C15007   3.081   2.117  -0.745  0.2602 -0.9253  0.2463
  112MOL0     C15008   3.031   2.243  -0.836  0.7506 -0.3698  0.1820
  112MOL0     O15009   2.891   2.230  -0.874  0.5683 -0.1607 -0.5462
  112MOL0     C15010   2.848   2.317  -0.972 -0.5747  0.4646  0.1039
  112MOL0     C15011   2.908   2.437  -1.008  0.9328  0.1436  0.0243
  112MOL0     C15012   2.852   2.516  -1.106 -0.9554  0.8059  1.1680
  112MOL0     C15013   2.938   2.640  -1.148 -0.0600 -0.5487  0.0516
  112MOL0     C15014   2.741   2.464  -1.185  0.6002  0.4076  0.2051
  112MOL0     C15015   2.680   2.536  -1.287 -0.1213  0.4084 -0.6417
  112MOL0     O15016   2.694   2.672  -1.281 -0.0548 -0.7918  0.2112
  112MOL0     C15017   2.640   2.748  -1.382  0.3243 -0.0584 -0.1229
  112MOL0     C15018   2.709   2.773  -1.498  0.0269 -0.6702 -0.2511
  112MOL0     C15019   2.648   2.850  -1.603 -1.6028  0.3478  0.4528
  112MOL0     C15020   2.515   2.888  -1.593 -0.1546  0.5695 -0.0407
  112MOL0     O15021   2.473   2.962  -1.703 -0.5598 -0.3850  0.4866
  112MOL0     C15022   2.339   2.985  -1.725  0.3565 -0.2393 -0.4609
  112MOL0     C15023   2.324   3.109  -1.827 -0.6247  0.6039 -0.5983
  112MOL0     C15024   2.177   3.136  -1.869  0.8415 -0.4049 -0.1907
  112MOL0     C15025   2.088   3.182  -1.752  0.4362 -0.5524 -0.0209
  112MOL0     C15026   1.975   3.282  -1.798 -0.1094 -1.4335  0.1228
  112MOL0     C15027   1.894   3.329  -1.678 -0.0622 -0.1698  0.7633
  112MOL0     C15028   1.794   3.436  -1.701  1.2462 -0.1188 -0.2292
  112MOL0     C15029   1.754   3.495  -1.566  0.2461  0.3655  0.1495
  112MOL0    Cl15030   1.626   3.386  -1.512 -0.3033 -0.2378  0.8947
  112MOL0     C15031   2.449   2.866  -1.465 -0.1393  0.2555  0.6487
  112MOL0     C15032   2.506   2.796  -1.358 -0.1568  0.3901 -0.3887
  112MOL0     O15033   2.630   2.474  -1.383 -0.6990  0.3428  0.1432
  112MOL0     C15034   2.669   2.345  -1.144  0.0772  0.0750  0.2887
  112MOL0     C15035   2.735   2.275  -1.040  0.7826 -0.2654 -0.1357
  112MOL0     N15036   3.271   1.798  -0.841  1.0958 -0.3764 -0.4261
  112MOL0     N15037   3.226   1.677  -0.854 -0.0514 -1.2157  0.0157
  112MOL0     C15038   2.635   1.128   0.101 -0.7157  0.8966  0.6727
  112MOL0     C15039   2.560   1.004   0.098  0.2706  0.1538  0.1316
  112MOL0     C15040   2.303   0.676   0.091  0.4476  0.2327 -0.3467
  112MOL0     C15041   2.215   0.630   0.191  0.0671  0.1855  0.6830
  112MOL0     C15042   2.201   0.494   0.219 -0.1585  0.2785 -0.5238
  112MOL0     C15043   2.258   0.400   0.138  0.1817  1.2992  0.2549
  112MOL0     O15044   2.221   0.261   0.135  0.2369 -0.8741  0.7631
  112MOL0     C15045   2.161   0.209   0.243  0.0212  0.0162  0.1503
  112MOL0     C15046   2.008   0.237   0.240  0.7622 -0.4298 -0.6782
  112MOL0     C15047   1.953   0.189   0.369 -0.1349  0.4579  1.2051
  112MOL0     C15048   1.966   0.041   0.405  0.4971  0.7039 -0.4479
  112MOL0     C15049   1.898  -0.051   0.321 -0.0243  0.2593  0.3022
  112MOL0     C15050   1.840  -0.141   0.265 -0.3460 -1.2977 -0.2846
  112MOL0     C15051   2.343   0.436   0.037  0.3748  0.8535 -0.2198
  112MOL0     C15052   2.373   0.578   0.017  1.1104  1.4049 -0.0885
  112MOL0     H15053   2.453   1.014  -0.227 -0.6893  0.1371  0.0245
  112MOL0     H15054   2.600   1.174  -0.243 -1.3755 -2.0062 -0.4763
  112MOL0     H15055   2.935   1.363   0.007 -2.2979  1.2836 -0.4053
  112MOL0     H15056   2.902   1.208   0.073  0.9071  2.2216  2.1016
  112MOL0     H15057   2.997   1.136  -0.152 -0.3591 -0.0857 -3.4164
  112MOL0     H15058   2.835   1.162  -0.196  1.5033 -0.1150 -1.1439
  112MOL0     H15059   3.027   1.401  -0.207 -1.1824 -0.4866  0.1654
  112MOL0     H15060   3.034   1.285  -0.319 -0.2023  2.1425 -2.0848
  112MOL0     H15061   2.763   1.328  -0.359 -1.0860  0.7703  1.7853
  112MOL0     H15062   2.786   1.463  -0.260 -0.6310 -0.3977 -1.5900
  112MOL0     H15063   2.792   1.534  -0.483 -0.1203 -0.7463 -1.0465
  112MOL0     H15064   2.965   1.542  -0.424  1.4831 -1.8094  1.2165
  112MOL0     H15065   3.007   1.324  -0.556  3.2312  1.9546  0.0318
  112MOL0     H15066   2.843   1.348  -0.613  0.1875  3.7051 -3.6502
  112MOL0     H15067   2.940   1.444  -0.792  1.0499  1.4033 -1.8172
  112MOL0     H15068   2.916   1.580  -0.685 -1.0402  0.3964 -2.7233
  112MOL0     H15069   3.182   1.433  -0.763 -1.7435  2.2284 -2.2648
  112MOL0     H15070   3.164   1.479  -0.598  2.9444  0.9315 -0.7438
  112MOL0     H15071   3.131   1.738  -0.551 -0.4130  0.4774 -0.4871
  112MOL0     H15072   3.241   1.983  -0.563  1.5515  0.9082  0.9659
  112MOL0     H15073   3.380   1.969  -0.657  0.2688 -0.0502 -0.9185
  112MOL0     H15074   3.263   2.090  -0.857  1.2715  2.3652 -0.0595
  112MOL0     H15075   3.283   2.182  -0.713  2.1244 -0.3047 -3.0271
  112MOL0     H15076   3.047   2.129  -0.642  0.4430  1.3483  0.1035
  112MOL0     H15077   3.026   2.030  -0.783 -2.1301  0.3270  0.6380
  112MOL0     H15078   3.097   2.240  -0.924  1.9678  0.9458  0.9983
  112MOL0     H15079   3.046   2.331  -0.772 -0.3729 -0.2666  0.3257
  112MOL0     H15080   3.001   2.475  -0.966  0.9437  1.3680 -1.0279
  112MOL0     H15081   3.022   2.663  -1.081  0.1212  0.2655 -0.4456
  112MOL0     H15082   2.976   2.629  -1.250  1.5635  1.3856  0.3878
  112MOL0     H15083   2.877   2.729  -1.128  1.5227  0.9882 -1.6607
  112MOL0     H15084   2.812   2.741  -1.510 -0.3686 -3.1391  1.9877
  112MOL0     H15085   2.711   2.884  -1.684 -0.4659 -0.8343  0.8110
  112MOL0     H15086   2.289   2.897  -1.767 -0.3357  0.0311 -0.2216
  112MOL0     H15087   2.282   3.003  -1.633  0.2903 -0.2425 -0.5003
  112MOL0     H15088   2.370   3.196  -1.780 -0.4908  0.2429 -0.0541
  112MOL0     H15089   2.395   3.087  -1.907  1.4105 -0.0961  1.3129
  112MOL0     H15090   2.130   3.043  -1.902  0.2823 -0.4139  0.6081
  112MOL0     H15091   2.184   3.208  -1.951 -0.0972 -1.2914 -1.0953
  112MOL0     H15092   2.041   3.099  -1.698 -2.3681  0.7183 -0.2858
  112MOL0     H15093   2.145   3.242  -1.680 -0.8053 -0.6012  1.0421
  112MOL0     H15094   1.915   3.218  -1.863  4.3682 -5.0089 -1.0638
  112MOL0     H15095   2.010   3.365  -1.861 -1.5385  1.6222  3.0538
  112MOL0     H15096   1.838   3.243  -1.638  0.8911 -0.1325  2.2600
  112MOL0     H15097   1.959   3.370  -1.600  1.0176  0.2395 -0.3299
  112MOL0     H15098   1.711   3.402  -1.763  0.4551  2.3017 -0.5814
  112MOL0     H15099   1.842   3.510  -1.766 -0.6515 -0.8934 -2.6481
  112MOL0     H15100   1.721   3.599  -1.570 -0.4056  0.1439 -2.4515
  112MOL0     H15101   1.834   3.493  -1.492  4.7916 -0.6070 -4.2105
  112MOL0     H15102   2.343   2.891  -1.456 -0.7188 -1.2869 -1.2913
  112MOL0     H15103   2.442   2.773  -1.273 -0.7800  2.4066 -0.2702
  112MOL0     H15104   2.575   2.312  -1.185 -2.0860  3.3543  2.1433
  112MOL0     H15105   2.690   2.181  -1.012  2.4784 -1.8219 -2.3266
  112MOL0     H15106   2.692   1.162   0.187  2.9895  1.7497 -1.8687
  112MOL0     H15107   2.540   0.927   0.172  1.1987 -3.8869 -3.4342
  112MOL0     H15108   2.167   0.710   0.245 -0.2349  3.0249 -3.3911
  112MOL0     H15109   2.126   0.468   0.293  1.3182 -2.1754  0.2526
  112MOL0     H15110   2.174   0.100   0.246  1.1910  0.0742 -1.5323
  112MOL0     H15111   2.213   0.251   0.329 -0.0865  1.1295 -0.3103
  112MOL0     H15112   1.961   0.178   0.161  0.7064 -1.4435  0.0919
  112MOL0     H15113   1.994   0.342   0.212  0.5217 -0.2480  0.1068
  112MOL0     H15114   1.849   0.222   0.378  0.1366  1.6853  0.1938
  112MOL0     H15115   2.008   0.237   0.450  2.3806  0.6354 -0.4765
  112MOL0     H15116   1.914   0.029   0.501  1.3271 -2.2894 -0.2480
  112MOL0     H15117   2.072   0.022   0.423  0.4833  0.8226 -0.2384
  112MOL0     H15118   1.800  -0.218   0.202 -1.1001 -3.0921  2.1905
  112MOL0     H15119   2.390   0.357  -0.021 -3.0828 -0.9069 -0.9055
  112MOL0     H15120   2.442   0.601  -0.064  3.0718  0.7542  1.3187
  113MOL0     O15121  11.439  10.678   9.438  0.3885  0.1334  0.5267
  113MOL0     C15122  11.490  10.643   9.333  0.0409 -0.2266 -0.0107
  113MOL0     O15123  11.542  10.733   9.240  0.2471  0.0105 -1.1624
  113MOL0     C15124  11.538  10.867   9.230 -0.0130  0.6874 -0.3485
  113MOL0     C15125  11.516  10.967   9.325  0.1641 -0.7297  0.4732
  113MOL0     C15126  11.522  11.108   9.297 -1.0867  1.4607 -0.3392
  113MOL0     C15127  11.544  11.144   9.164 -0.5186  1.1371  1.1319
  113MOL0     O15128  11.577  11.273   9.143 -0.3351 -0.3432  1.1816
  113MOL0     C15129  11.658  11.297   9.031  1.0656  0.2632  0.2376
  113MOL0     C15130  11.756  11.393   9.077  0.0716  0.4730  0.1766
  113MOL0     C15131  11.688  11.524   9.096  0.2381 -0.1658 -0.0746
  113MOL0     C15132  11.788  11.641   9.111  0.4165 -0.2794  0.5382
  113MOL0     C15133  11.867  11.638   9.241  0.2311 -0.7046  0.2309
  113MOL0     C15134  11.997  11.716   9.230  0.3031 -0.5010  0.5847
  113MOL0     C15135  11.985  11.869   9.228  0.7111 -0.5334  0.2929
  113MOL0     C15136  12.103  11.944   9.169 -0.0989  0.4691 -0.7267
  113MOL0     N15137  12.068  12.085   9.171  1.2991 -0.5793  0.0972
  113MOL0     C15138  12.013  12.169   9.074 -0.0895 -0.1089 -0.0587
  113MOL0     C15139  12.001  12.287   9.137  0.1384 -0.8297  0.8357
  113MOL0     C15140  11.948  12.407   9.077  0.5898  0.1271 -0.4382
  113MOL0     C15141  11.797  12.429   9.096  0.2955 -0.2358  0.5234
  113MOL0     C15142  11.712  12.299   9.079 -0.1643 -0.2072  0.0566
  113MOL0     C15143  11.694  12.207   9.196  1.0214  0.1278  0.1199
  113MOL0     O15144  11.637  12.085   9.149  0.3794  0.8518 -0.3947
  113MOL0     C15145  11.603  11.992   9.244 -0.9280  1.5089 -0.2191
  113MOL0     C15146  11.594  12.006   9.384  1.7964  0.2896  0.3811
  113MOL0     C15147  11.538  11.909   9.474  0.5189  0.1626  0.2346
  113MOL0     C15148  11.518  11.955   9.613  0.8634  0.8838  0.3763
  113MOL0     C15149  11.470  11.797   9.411  0.2401 -1.0628 -0.8234
  113MOL0     C15150  11.398  11.691   9.494  0.6094 -0.1691  0.0984
  113MOL0     O15151  11.389  11.573   9.425 -0.2246  0.3380  0.1990
  113MOL0     C15152  11.315  11.458   9.462 -1.5558 -0.6259 -0.0926
  113MOL0     C15153  11.303  11.414   9.597  0.2415 -0.3932  0.6926
  113MOL0     C15154  11.228  11.296   9.620 -0.7978  0.5465 -0.3143
  113MOL0     C15155  11.187  11.213   9.511  0.2563 -0.1473  0.6696
  113MOL0     O15156  11.115  11.101   9.540  0.3333  0.4804 -0.1536
  113MOL0     C15157  11.095  10.988   9.451  0.2010  0.1692  0.0536
  113MOL0     C15158  11.057  10.860   9.543 -0.3928 -0.7796  0.2444
  113MOL0     C15159  10.917  10.879   9.610  0.1836  0.3512  0.2011
  113MOL0     C15160  10.905  10.803   9.743  0.2375  0.6450 -0.8229
  113MOL0     C15161  10.996  10.844   9.852 -0.1252  0.2555 -0.7622
  113MOL0     C15162  10.958  10.970   9.939  0.1159  0.8299  1.3418
  113MOL0     C15163  10.829  10.963  10.036  0.3423  1.1717  0.7260
  113MOL0     C15164  10.840  11.049  10.153  0.6320 -0.3061 -0.0919
  113MOL0    Cl15165  10.971  10.980  10.235  0.5670  0.4107 -0.4176
  113MOL0     C15166  11.213  11.251   9.384 -0.5623 -0.8646 -0.1138
  113MOL0     C15167  11.273  11.378   9.358 -1.3009  0.4656  0.7319
  113MOL0     O15168  11.366  11.706   9.609  0.4092 -0.8191 -0.2151
  113MOL0     C15169  11.479  11.783   9.271 -0.5868 -0.6277 -0.5028
  113MOL0     C15170  11.542  11.880   9.199 -0.4636 -0.3390  0.4554
  113MOL0     N15171  12.043  12.275   9.269  0.5545  0.5228  0.0173
  113MOL0     N15172  12.073  12.153   9.292  0.0014  0.6792  0.4716
  113MOL0     C15173  11.554  11.039   9.064  2.0504  0.5822  0.4636
  113MOL0     C15174  11.547  10.904   9.096 -0.5012 -0.4223 -0.0698
  113MOL0     C15175  11.533  10.507   9.323 -0.3038 -0.8287 -0.1137
  113MOL0     C15176  11.613  10.457   9.221  0.1686 -0.6700 -0.1654
  113MOL0     C15177  11.638  10.318   9.221  0.1333 -0.0678  0.0621
  113MOL0     C15178  11.588  10.235   9.319  0.1384 -0.0732 -0.1166
  113MOL0     O15179  11.612  10.098   9.318 -0.4874 -0.3298 -0.5772
  113MOL0     C15180  11.755  10.079   9.348 -0.7283 -0.2333 -0.2071
  113MOL0     C15181  11.814   9.971   9.244 -1.1131 -0.7090 -1.0565
  113MOL0     C15182  11.969   9.988   9.227 -0.0415  0.2884 -0.1464
  113MOL0     C15183  12.003  10.126   9.157 -0.1025  0.3076 -0.0354
  113MOL0     C15184  11.933  10.143   9.029 -0.4984  0.0942  0.0441
  113MOL0     C15185  11.929  10.163   8.907  0.3593  0.9275  0.1680
  113MOL0     C15186  11.530  10.287   9.429 -0.6475 -0.0063  0.0880
  113MOL0     C15187  11.496  10.425   9.432 -0.1437  0.4259 -1.0489
  113MOL0     H15188  11.500  10.938   9.428 -2.6938  0.6981  0.5182
  113MOL0     H15189  11.514  11.183   9.374  0.8529  0.2927  1.0719
  113MOL0     H15190  11.716  11.211   8.997  1.1671 -0.0694  1.2160
  113MOL0     H15191  11.600  11.326   8.942  0.8639  0.3959  0.4097
  113MOL0     H15192  11.798  11.364   9.174 -1.1727 -0.0126  0.5932
  113MOL0     H15193  11.834  11.401   9.001  2.3024  2.0066  2.4273
  113MOL0     H15194  11.629  11.554   9.009 -0.0252  0.7960  0.4136
  113MOL0     H15195  11.622  11.532   9.183  2.0982  2.6654  1.2320
  113MOL0     H15196  11.866  11.621   9.037  1.3633  2.8109  0.5643
  113MOL0     H15197  11.737  11.737   9.096 -0.7214 -0.9856 -0.2981
  113MOL0     H15198  11.811  11.678   9.326 -0.3363 -1.9852  0.4812
  113MOL0     H15199  11.906  11.538   9.260 -1.0824 -1.1280  0.7774
  113MOL0     H15200  12.052  11.682   9.318 -3.7606 -2.3134  2.7260
  113MOL0     H15201  12.056  11.695   9.140  1.1499  4.0092 -0.1613
  113MOL0     H15202  11.902  11.893   9.161  0.1220  0.0251  1.1965
  113MOL0     H15203  11.956  11.904   9.327  1.7901  2.1631 -0.2548
  113MOL0     H15204  12.126  11.905   9.069 -2.3406  1.4114 -1.6797
  113MOL0     H15205  12.191  11.937   9.233  0.0052  2.9634 -0.4962
  113MOL0     H15206  11.998  12.147   8.969  0.5736  1.2357 -0.4565
  113MOL0     H15207  11.997  12.493   9.123 -0.0394  0.1158  0.2838
  113MOL0     H15208  11.973  12.406   8.971 -1.3713 -0.4745 -0.9342
  113MOL0     H15209  11.750  12.496   9.023 -1.3138 -1.3902  0.4408
  113MOL0     H15210  11.777  12.471   9.195 -0.8121  0.4131  0.0541
  113MOL0     H15211  11.749  12.235   8.998 -4.7677  0.0688 -2.6232
  113MOL0     H15212  11.618  12.334   9.034  0.0457 -2.3395 -2.2652
  113MOL0     H15213  11.635  12.258   9.273  0.4817  0.0417 -0.2310
  113MOL0     H15214  11.788  12.190   9.250  0.7594 -0.0532  0.5249
  113MOL0     H15215  11.622  12.102   9.426  1.2863 -0.2979  2.1471
  113MOL0     H15216  11.413  11.981   9.625 -0.0659 -1.8738 -0.9622
  113MOL0     H15217  11.544  11.873   9.680  1.3273  0.0870 -0.7579
  113MOL0     H15218  11.590  12.037   9.628  2.2270 -0.3474  0.8175
  113MOL0     H15219  11.355  11.467   9.677 -0.2753 -3.1225  3.0141
  113MOL0     H15220  11.211  11.263   9.722  2.4066 -0.4581  0.0198
  113MOL0     H15221  11.012  10.985   9.380 -1.7634 -1.8737  2.2401
  113MOL0     H15222  11.190  10.969   9.401 -0.2557 -1.4385 -0.2700
  113MOL0     H15223  11.061  10.779   9.469  3.3990  1.1887 -2.0741
  113MOL0     H15224  11.147  10.849   9.604  0.5214 -3.1351 -1.3706
  113MOL0     H15225  10.846  10.848   9.532  0.8768 -1.0101  0.0721
  113MOL0     H15226  10.892  10.983   9.630 -0.9106  0.3923 -1.1876
  113MOL0     H15227  10.802  10.821   9.775  0.4408 -0.5311  0.6532
  113MOL0     H15228  10.911  10.696   9.721  0.4180  0.8820 -1.9919
  113MOL0     H15229  11.094  10.862   9.807 -0.8287  3.7260 -1.1758
  113MOL0     H15230  11.009  10.762   9.924  0.3307  1.2912  0.3832
  113MOL0     H15231  11.044  11.004   9.997  0.1854  1.4930  0.8611
  113MOL0     H15232  10.939  11.048   9.865 -3.1533 -1.8547 -1.0064
  113MOL0     H15233  10.814  10.860  10.068  0.0209 -0.0237 -2.7606
  113MOL0     H15234  10.739  10.991   9.980  0.2512  0.4654  0.5104
  113MOL0     H15235  10.750  11.060  10.214 -0.5618 -1.0269 -1.6481
  113MOL0     H15236  10.865  11.150  10.118 -2.0535  1.9639  3.7721
  113MOL0     H15237  11.188  11.193   9.296 -2.4777  0.2846 -0.3800
  113MOL0     H15238  11.288  11.409   9.255 -5.1563 -1.3419 -0.5620
  113MOL0     H15239  11.430  11.699   9.223  0.6195 -3.0038  2.1301
  113MOL0     H15240  11.545  11.851   9.095 -4.4084 -0.6663  0.2558
  113MOL0     H15241  11.558  11.060   8.958 -0.2527  3.6789  0.8295
  113MOL0     H15242  11.577  10.833   9.020  0.6835  1.0007 -0.9797
  113MOL0     H15243  11.637  10.528   9.142  3.8092 -2.2933 -0.7272
  113MOL0     H15244  11.690  10.286   9.131  3.5478  1.5338  1.3085
  113MOL0     H15245  11.806  10.175   9.358 -1.7264  0.0939  2.5545
  113MOL0     H15246  11.769  10.031   9.446  5.8286 -3.9151 -2.3557
  113MOL0     H15247  11.761   9.988   9.150 -3.7520 -0.9838  0.2878
  113MOL0     H15248  11.789   9.869   9.276 -0.7271 -0.6804 -0.6571
  113MOL0     H15249  12.009   9.905   9.168 -3.4881 -0.4238 -1.7296
  113MOL0     H15250  12.007   9.976   9.329 -0.5505  1.3629  0.1783
  113MOL0     H15251  12.108  10.119   9.125 -0.2137  0.7182 -0.5000
  113MOL0     H15252  11.978  10.206   9.227 -2.5877 -1.2444  1.0093
  113MOL0     H15253  11.929  10.176   8.800 -0.7347  1.5179  0.2242
  113MOL0     H15254  11.505  10.230   9.518 -0.4689  1.0105  0.7980
  113MOL0     H15255  11.447  10.459   9.523 -1.1060  0.3843 -1.5369
  114MOL0     O15256   2.988   6.924   3.875 -0.1303  0.3786 -0.1188
  114MOL0     C15257   3.007   6.915   3.758 -1.1533 -0.0180  0.5860
  114MOL0     O15258   3.126   6.868   3.700 -0.1517  0.6905 -0.2501
  114MOL0     C15259   3.230   6.825   3.770 -0.1304 -0.8558  0.2964
  114MOL0     C15260   3.226   6.741   3.876  0.5205  0.3442  0.2970
  114MOL0     C15261   3.345   6.701   3.938  0.2414  0.0555 -0.0590
  114MOL0     C15262   3.469   6.759   3.901 -0.4855 -0.4504  1.4722
  114MOL0     O15263   3.587   6.718   3.979  0.2034  0.0239 -0.2910
  114MOL0     C15264   3.718   6.721   3.914 -0.0339  0.0315 -0.3252
  114MOL0     C15265   3.813   6.634   4.001 -0.4147  0.2370  0.3680
  114MOL0     C15266   3.894   6.522   3.923  0.4946 -0.0639 -0.6911
  114MOL0     C15267   3.817   6.393   3.890 -0.2032 -0.4667  0.2005
  114MOL0     C15268   3.692   6.411   3.799 -1.1017 -1.3098 -0.5707
  114MOL0     C15269   3.613   6.295   3.731  0.0558 -0.2905 -0.4639
  114MOL0     C15270   3.604   6.179   3.827  0.4234  0.2537 -0.2008
  114MOL0     C15271   3.547   6.064   3.747  0.3031 -0.5221  0.4632
  114MOL0     N15272   3.524   5.938   3.814  0.0099  0.1326  0.3289
  114MOL0     C15273   3.497   5.833   3.743  0.6343  0.0301 -0.7037
  114MOL0     C15274   3.507   5.729   3.827  0.7124 -0.3026 -0.6133
  114MOL0     C15275   3.465   5.581   3.810 -0.9968 -0.3742 -0.2176
  114MOL0     C15276   3.459   5.542   3.663  0.5889 -0.3671 -0.4240
  114MOL0     C15277   3.419   5.395   3.634 -0.5818 -0.0152 -0.4922
  114MOL0     C15278   3.430   5.358   3.489 -1.1322  0.3078 -0.1422
  114MOL0     O15279   3.567   5.338   3.453  0.8802 -0.0030 -0.2737
  114MOL0     C15280   3.601   5.329   3.324 -0.9489  0.3531 -0.2599
  114MOL0     C15281   3.512   5.312   3.215  0.4373  0.6235 -0.5315
  114MOL0     C15282   3.563   5.287   3.087  0.6031  0.0900 -0.4472
  114MOL0     C15283   3.468   5.260   2.979 -0.1514  0.6958 -1.0900
  114MOL0     C15284   3.709   5.273   3.071 -0.8634  0.0028 -0.1416
  114MOL0     C15285   3.771   5.239   2.949 -1.4813  0.2013 -0.4051
  114MOL0     O15286   3.884   5.149   2.967  0.0350 -0.6235  0.0353
  114MOL0     C15287   3.954   5.130   2.850  0.5959 -0.8006  0.5293
  114MOL0     C15288   4.001   5.228   2.755 -0.1695 -0.1888 -0.1463
  114MOL0     C15289   4.067   5.192   2.647  0.1221 -0.0176  0.3937
  114MOL0     C15290   4.112   5.056   2.618  0.0535  0.1450 -0.1519
  114MOL0     O15291   4.185   5.018   2.513 -0.2174  0.9014  0.1517
  114MOL0     C15292   4.225   5.117   2.419 -0.1237 -0.8593 -0.7628
  114MOL0     C15293   4.257   5.037   2.298 -0.6648 -0.3803 -0.0740
  114MOL0     C15294   4.141   4.971   2.231 -0.2690  0.2963 -0.4148
  114MOL0     C15295   4.166   4.850   2.144  0.5111 -0.8031  0.6444
  114MOL0     C15296   4.032   4.798   2.083  0.9388  0.0611 -0.2211
  114MOL0     C15297   3.938   4.890   2.007  0.1385  0.0684  0.3857
  114MOL0     C15298   3.997   4.948   1.882 -0.1270  0.6713  0.4232
  114MOL0     C15299   3.899   5.048   1.816  0.2122 -0.7096 -0.0728
  114MOL0    Cl15300   3.970   5.114   1.660 -0.0473  0.0531 -0.1562
  114MOL0     C15301   4.045   4.961   2.693 -0.0956 -0.1566 -0.1218
  114MOL0     C15302   3.976   4.996   2.810  0.3235 -0.0032 -1.4232
  114MOL0     O15303   3.739   5.290   2.840  0.4968 -0.0555 -0.3449
  114MOL0     C15304   3.792   5.293   3.181  0.3666  0.3117  0.2010
  114MOL0     C15305   3.734   5.305   3.305  0.6101  0.0859 -0.6387
  114MOL0     N15306   3.557   5.778   3.947 -0.3232 -0.6992  0.1787
  114MOL0     N15307   3.559   5.902   3.944 -0.3402 -0.3259  0.4894
  114MOL0     C15308   3.476   6.843   3.783 -1.2585  0.1756 -0.4935
  114MOL0     C15309   3.353   6.888   3.732  0.1501 -0.3616  0.0332
  114MOL0     C15310   2.912   6.958   3.652  0.0336  0.3270  0.2095
  114MOL0     C15311   2.951   6.958   3.517 -0.1495  0.1977  0.8808
  114MOL0     C15312   2.860   6.988   3.420  0.2084 -0.2206 -0.5951
  114MOL0     C15313   2.721   7.020   3.450  0.5626 -0.4905 -0.2690
  114MOL0     O15314   2.642   7.054   3.338  0.5243  0.5999 -0.3850
  114MOL0     C15315   2.529   7.129   3.359  0.3106  0.1618 -1.3800
  114MOL0     C15316   2.477   7.169   3.223  0.2499 -0.3449 -0.6939
  114MOL0     C15317   2.423   7.051   3.141 -0.1914  0.5464 -0.3270
  114MOL0     C15318   2.372   7.104   3.006  0.1259  0.1249 -0.4801
  114MOL0     C15319   2.271   7.010   2.942 -1.0500  0.4257 -0.2185
  114MOL0     C15320   2.196   6.932   2.891  0.0282  0.2413 -0.7670
  114MOL0     C15321   2.681   7.017   3.589 -0.8320 -0.7871  0.5256
  114MOL0     C15322   2.784   6.993   3.685 -0.4161  0.7898  0.8461
  114MOL0     H15323   3.139   6.701   3.927  1.0357 -0.1561  0.8040
  114MOL0     H15324   3.343   6.633   4.022  0.3470  1.9514  1.5501
  114MOL0     H15325   3.717   6.675   3.815  1.3181  0.0685 -0.3723
  114MOL0     H15326   3.749   6.825   3.906 -0.6176  0.6281  3.2698
  114MOL0     H15327   3.867   6.701   4.069 -0.8565 -0.5933  1.5751
  114MOL0     H15328   3.753   6.577   4.073  1.3473 -0.2073  1.5568
  114MOL0     H15329   3.937   6.562   3.831 -1.4679  1.6968 -0.9197
  114MOL0     H15330   3.983   6.505   3.983  0.5741  2.9871  0.2232
  114MOL0     H15331   3.889   6.327   3.840 -0.0943  0.3185 -0.7049
  114MOL0     H15332   3.785   6.347   3.984 -1.4164  2.7340  1.4819
  114MOL0     H15333   3.625   6.466   3.866 -0.3996 -0.4564 -0.5558
  114MOL0     H15334   3.714   6.473   3.712  3.7728 -2.7226 -0.6430
  114MOL0     H15335   3.521   6.333   3.685  0.7180  0.7228 -0.9968
  114MOL0     H15336   3.678   6.273   3.646 -0.1265  1.7212 -1.1933
  114MOL0     H15337   3.705   6.153   3.860  0.0713 -0.6725  0.1870
  114MOL0     H15338   3.545   6.200   3.916  0.8843 -2.8633  0.9749
  114MOL0     H15339   3.609   6.050   3.657  1.1550 -0.8422  1.0893
  114MOL0     H15340   3.456   6.097   3.696  0.2717 -1.8153 -0.3582
  114MOL0     H15341   3.439   5.840   3.651 -1.7105  1.0876  0.7679
  114MOL0     H15342   3.531   5.513   3.863  0.4137  3.0070  2.8106
  114MOL0     H15343   3.362   5.571   3.845 -1.3672 -2.2569 -1.6578
  114MOL0     H15344   3.560   5.538   3.620  0.5161 -3.1627 -0.4949
  114MOL0     H15345   3.395   5.611   3.607 -0.0797 -0.6638 -0.0290
  114MOL0     H15346   3.313   5.389   3.659 -0.0412  1.2394  2.4946
  114MOL0     H15347   3.470   5.322   3.697 -1.4477 -1.4369 -1.3715
  114MOL0     H15348   3.389   5.447   3.439  0.2772  1.6556  1.0212
  114MOL0     H15349   3.379   5.265   3.462  0.3919  0.2838 -3.4879
  114MOL0     H15350   3.407   5.339   3.226  0.8868  3.0214 -1.3733
  114MOL0     H15351   3.391   5.337   2.986 -1.5377 -0.7183 -0.4293
  114MOL0     H15352   3.515   5.288   2.884  1.2992  0.2884 -0.5239
  114MOL0     H15353   3.438   5.156   2.992  2.6465 -0.4052 -2.4750
  114MOL0     H15354   3.978   5.334   2.765  0.2949  0.0204 -1.1505
  114MOL0     H15355   4.073   5.274   2.576 -3.7089 -0.1842 -0.3207
  114MOL0     H15356   4.148   5.190   2.392 -0.1205  0.1565  1.7024
  114MOL0     H15357   4.314   5.176   2.437 -0.9894  0.1827  0.2442
  114MOL0     H15358   4.318   5.091   2.225  1.6989 -1.4233  1.0061
  114MOL0     H15359   4.322   4.957   2.334 -2.4004 -1.5391  0.5544
  114MOL0     H15360   4.103   5.047   2.162 -1.9406 -1.4890 -1.5716
  114MOL0     H15361   4.059   4.948   2.300 -1.0723 -3.1110 -2.2982
  114MOL0     H15362   4.230   4.884   2.061  0.9808  2.0367  2.0105
  114MOL0     H15363   4.211   4.772   2.206  1.8548 -0.5022  0.0913
  114MOL0     H15364   3.968   4.755   2.161 -1.0499  3.9113  0.5096
  114MOL0     H15365   4.061   4.718   2.014  2.7026 -1.1799  1.8066
  114MOL0     H15366   3.855   4.827   1.974  2.1274 -2.4926 -0.0256
  114MOL0     H15367   3.907   4.975   2.069  2.4122 -0.2273  2.0290
  114MOL0     H15368   4.021   4.869   1.810  0.0186 -2.7932  3.8937
  114MOL0     H15369   4.091   4.999   1.906 -1.1699  2.2587  1.2713
  114MOL0     H15370   3.895   5.135   1.883  2.5529 -1.6808  1.4571
  114MOL0     H15371   3.802   4.998   1.813 -0.6677  0.9123 -0.0481
  114MOL0     H15372   4.030   4.858   2.661 -2.1466 -1.0243  3.2104
  114MOL0     H15373   3.913   4.920   2.856  0.5501  0.2680 -0.6543
  114MOL0     H15374   3.899   5.277   3.171  0.4151  0.8993 -0.3361
  114MOL0     H15375   3.803   5.316   3.389 -1.8661 -0.3246  1.5984
  114MOL0     H15376   3.566   6.878   3.733  0.5538 -0.7432  1.9647
  114MOL0     H15377   3.345   6.960   3.651 -1.2205  0.4644  0.8524
  114MOL0     H15378   3.055   6.945   3.488 -0.8288 -0.8462 -1.3000
  114MOL0     H15379   2.894   6.997   3.317  1.5416  1.2640 -0.0647
  114MOL0     H15380   2.452   7.081   3.421  0.6969 -1.3749 -2.0334
  114MOL0     H15381   2.544   7.223   3.412 -3.2263 -0.7662  1.7611
  114MOL0     H15382   2.553   7.225   3.166 -0.4119  1.7812  0.4174
  114MOL0     H15383   2.398   7.240   3.247  1.5414  0.9062  0.0409
  114MOL0     H15384   2.345   7.001   3.198 -0.8137  2.0017  0.1468
  114MOL0     H15385   2.507   6.983   3.122 -0.8555 -0.2363 -0.5213
  114MOL0     H15386   2.449   7.115   2.928 -0.2317 -0.4619 -0.9309
  114MOL0     H15387   2.329   7.204   3.017 -2.6923 -1.3533  5.0310
  114MOL0     H15388   2.137   6.852   2.850  0.8932 -0.1060 -1.3578
  114MOL0     H15389   2.576   7.038   3.610 -0.4566  2.4231 -0.2761
  114MOL0     H15390   2.750   6.981   3.787 -6.3340  0.1118 -0.8790
  115MOL0     O15391   1.402   7.745   0.145  1.0165  0.7015 -0.5923
  115MOL0     C15392   1.448   7.671   0.058 -1.0423 -0.8848 -0.0624
  115MOL0     O15393   1.537   7.569   0.083 -0.4069  0.6063 -0.1105
  115MOL0     C15394   1.608   7.588   0.201 -0.7487  0.7033  0.0782
  115MOL0     C15395   1.716   7.675   0.218 -0.6980  0.0453  0.1381
  115MOL0     C15396   1.780   7.687   0.342 -0.4872  0.4562 -0.9809
  115MOL0     C15397   1.733   7.619   0.454 -0.1970  0.3854 -0.2523
  115MOL0     O15398   1.794   7.611   0.585 -0.2291  0.4559 -0.4693
  115MOL0     C15399   1.808   7.738   0.653  0.1167 -0.3786 -0.1326
  115MOL0     C15400   1.866   7.714   0.797 -0.6726  0.7566 -0.5780
  115MOL0     C15401   1.874   7.845   0.873 -1.5139 -0.2859 -0.8859
  115MOL0     C15402   1.740   7.889   0.935  0.2389 -0.9755  0.0614
  115MOL0     C15403   1.773   8.021   1.027 -0.6090  0.3964 -0.4827
  115MOL0     C15404   1.727   8.147   0.951 -0.3454 -0.0154  1.0443
  115MOL0     C15405   1.676   8.273   1.030  0.4755  0.1844  0.7161
  115MOL0     C15406   1.684   8.409   0.955 -0.1151  0.1263 -0.3112
  115MOL0     N15407   1.642   8.395   0.813 -0.5300  0.1900  0.3420
  115MOL0     C15408   1.527   8.343   0.776 -0.7031  0.2447  0.9877
  115MOL0     C15409   1.551   8.301   0.649  0.5578 -0.4170 -0.1306
  115MOL0     C15410   1.446   8.245   0.556 -0.6268  0.4652  0.1669
  115MOL0     C15411   1.472   8.097   0.537  0.4253  0.3058 -0.0433
  115MOL0     C15412   1.541   8.051   0.408  0.4823 -0.5968 -0.0629
  115MOL0     C15413   1.682   8.119   0.383 -0.1323  0.3132 -0.8666
  115MOL0     O15414   1.761   8.024   0.300 -0.5919  0.0997 -0.2032
  115MOL0     C15415   1.764   8.056   0.165 -0.1042 -0.0224  0.1523
  115MOL0     C15416   1.869   8.112   0.099  0.7251  0.2130 -0.7719
  115MOL0     C15417   1.883   8.123  -0.037  0.3756 -0.3401 -0.3098
  115MOL0     C15418   2.006   8.176  -0.095  0.5196 -0.5376  0.2674
  115MOL0     C15419   1.771   8.072  -0.112 -0.2906 -0.9891  0.1359
  115MOL0     C15420   1.763   8.091  -0.267 -0.7542  0.2131  0.5172
  115MOL0     O15421   1.643   8.053  -0.327  0.3411  0.9214 -1.7712
  115MOL0     C15422   1.601   8.093  -0.446 -0.9074 -1.2348  0.9847
  115MOL0     C15423   1.661   8.199  -0.521  1.1021  0.6364  0.0036
  115MOL0     C15424   1.601   8.237  -0.644 -0.1755 -0.2649  0.9277
  115MOL0     C15425   1.483   8.170  -0.688  0.5174 -0.1518  0.1747
  115MOL0     O15426   1.429   8.213  -0.808 -0.1875 -0.0186  0.4435
  115MOL0     C15427   1.291   8.190  -0.836  0.1155 -0.2895  0.0264
  115MOL0     C15428   1.259   8.251  -0.965 -0.7574  0.7471  0.0817
  115MOL0     C15429   1.134   8.185  -1.028 -0.0966  1.1610 -0.7812
  115MOL0     C15430   1.090   8.259  -1.164  0.5406 -0.2286  0.2757
  115MOL0     C15431   0.940   8.292  -1.176 -0.7887 -0.2726  0.3609
  115MOL0     C15432   0.910   8.402  -1.079  0.0367 -0.5053 -0.7744
  115MOL0     C15433   0.771   8.481  -1.092  0.7191  0.2996 -0.5766
  115MOL0     C15434   0.652   8.379  -1.122 -0.2914  0.6318 -0.4180
  115MOL0    Cl15435   0.617   8.310  -0.965 -0.1656  0.4968 -0.0476
  115MOL0     C15436   1.419   8.074  -0.603  0.3073 -1.1165  0.3178
  115MOL0     C15437   1.477   8.041  -0.481  0.4829 -0.3844 -0.2699
  115MOL0     O15438   1.861   8.142  -0.327  0.6540  0.5915 -0.2906
  115MOL0     C15439   1.660   8.013  -0.046  0.1135 -0.5029 -0.9925
  115MOL0     C15440   1.655   8.003   0.090 -0.7488 -0.5380  0.1017
  115MOL0     N15441   1.674   8.343   0.614 -0.5848  0.1197  0.4640
  115MOL0     N15442   1.740   8.401   0.708  1.1192 -0.3898  0.2533
  115MOL0     C15443   1.641   7.515   0.438  1.3689  0.1629 -0.3034
  115MOL0     C15444   1.576   7.507   0.309  0.0185 -0.2775  0.2945
  115MOL0     C15445   1.406   7.676  -0.082 -0.8426 -0.5303  0.2621
  115MOL0     C15446   1.284   7.751  -0.112  0.2562 -0.3761 -0.0957
  115MOL0     C15447   1.234   7.754  -0.245 -0.1226 -0.1044  0.3875
  115MOL0     C15448   1.287   7.670  -0.346 -0.6899 -0.8229  0.2378
  115MOL0     O15449   1.214   7.684  -0.465 -1.0503 -0.3625 -0.4855
  115MOL0     C15450   1.264   7.633  -0.594 -0.2440 -0.8861  0.0816
  115MOL0     C15451   1.208   7.730  -0.701  0.0552 -1.0164 -0.5109
  115MOL0     C15452   1.233   7.665  -0.834 -0.4762  0.4183 -0.0641
  115MOL0     C15453   1.223   7.764  -0.950  0.4600 -0.5915 -0.6121
  115MOL0     C15454   1.101   7.834  -0.940 -0.1084  0.0455  0.7980
  115MOL0     C15455   0.992   7.897  -0.955 -0.6975  0.6444  0.0850
  115MOL0     C15456   1.404   7.595  -0.316 -1.2893  1.4067  0.0335
  115MOL0     C15457   1.456   7.593  -0.185  0.4854 -0.5731  0.5309
  115MOL0     H15458   1.738   7.744   0.137 -3.3464  2.3653  1.2407
  115MOL0     H15459   1.859   7.762   0.348  2.8914 -2.6913 -2.5058
  115MOL0     H15460   1.886   7.803   0.613  1.5005 -2.6100 -1.3309
  115MOL0     H15461   1.713   7.792   0.660  1.1012  1.1783  2.0273
  115MOL0     H15462   1.798   7.646   0.850  0.5240 -0.2376 -0.2616
  115MOL0     H15463   1.968   7.674   0.790 -0.8712  0.2847 -0.8452
  115MOL0     H15464   1.940   7.831   0.960 -0.4189  0.0576 -1.6358
  115MOL0     H15465   1.922   7.927   0.818 -0.6762 -0.7434 -0.8589
  115MOL0     H15466   1.670   7.906   0.852 -0.9068  0.2807  1.2278
  115MOL0     H15467   1.695   7.821   1.007  0.8801 -0.8448  0.5890
  115MOL0     H15468   1.706   8.015   1.113  0.8850 -3.3842  0.6521
  115MOL0     H15469   1.871   8.032   1.076 -0.4791 -0.6495 -0.4754
  115MOL0     H15470   1.814   8.175   0.890 -0.9601  1.3789  0.7787
  115MOL0     H15471   1.643   8.117   0.888  0.2240 -2.2090  1.2631
  115MOL0     H15472   1.570   8.262   1.053 -0.0355  0.1495 -1.5009
  115MOL0     H15473   1.726   8.278   1.127 -1.8834 -2.7993  2.2389
  115MOL0     H15474   1.790   8.435   0.947 -0.1315  0.0509 -0.7926
  115MOL0     H15475   1.621   8.486   1.001 -1.8532 -1.6940  0.4978
  115MOL0     H15476   1.447   8.342   0.850 -0.4128 -0.5326  1.3000
  115MOL0     H15477   1.344   8.267   0.589 -2.1615 -0.8409 -3.1725
  115MOL0     H15478   1.456   8.295   0.459  2.5148 -2.1316 -1.0715
  115MOL0     H15479   1.378   8.042   0.533  0.0216  1.0508 -0.9554
  115MOL0     H15480   1.532   8.061   0.622  0.3809 -1.5871 -0.7726
  115MOL0     H15481   1.463   8.062   0.333  0.7950  2.3627 -0.0759
  115MOL0     H15482   1.545   7.943   0.421  0.9472 -0.5047  0.6403
  115MOL0     H15483   1.729   8.131   0.480  0.1865 -2.1640 -0.6560
  115MOL0     H15484   1.665   8.215   0.332  0.6879 -0.1989 -2.1613
  115MOL0     H15485   1.938   8.159   0.169  1.2099 -1.8816  0.2732
  115MOL0     H15486   2.072   8.202  -0.011 -0.6137 -2.2588  1.7814
  115MOL0     H15487   2.059   8.102  -0.155  1.2578 -1.2787  1.7731
  115MOL0     H15488   1.971   8.263  -0.150 -0.2368 -0.9144  0.1384
  115MOL0     H15489   1.754   8.245  -0.490  1.4432 -0.1649  0.1990
  115MOL0     H15490   1.654   8.308  -0.706  0.8753 -0.3069  1.7450
  115MOL0     H15491   1.276   8.081  -0.840  0.4069 -0.2996 -1.2757
  115MOL0     H15492   1.237   8.242  -0.757  2.2035  2.1489 -0.0351
  115MOL0     H15493   1.239   8.358  -0.952 -1.5674  0.6692 -0.4754
  115MOL0     H15494   1.340   8.243  -1.038 -2.0596  1.9379 -1.5507
  115MOL0     H15495   1.068   8.207  -0.943 -0.5160  0.8326 -1.0186
  115MOL0     H15496   1.145   8.079  -1.054 -4.2667 -0.1759  1.7981
  115MOL0     H15497   1.149   8.350  -1.177 -0.1248  0.0766 -0.7362
  115MOL0     H15498   1.132   8.205  -1.249  1.2672  0.7501 -0.0160
  115MOL0     H15499   0.882   8.201  -1.157 -0.3859 -0.1797  2.2991
  115MOL0     H15500   0.904   8.325  -1.273 -2.7162  2.1690  1.8105
  115MOL0     H15501   0.925   8.370  -0.976  0.6116  3.3267  0.4926
  115MOL0     H15502   0.988   8.479  -1.090 -2.6860  2.5890  0.0208
  115MOL0     H15503   0.788   8.543  -1.181 -0.5868 -0.4419 -1.3846
  115MOL0     H15504   0.752   8.545  -1.005 -0.9756 -2.3696  1.1825
  115MOL0     H15505   0.696   8.305  -1.190 -0.0173 -0.1533  0.5826
  115MOL0     H15506   0.565   8.429  -1.165  0.5851  0.7755 -2.1031
  115MOL0     H15507   1.318   8.046  -0.630 -0.5216  1.3800  0.6031
  115MOL0     H15508   1.420   7.978  -0.413  1.5352  0.7654  1.7754
  115MOL0     H15509   1.578   7.988  -0.113  0.0466 -1.7460 -0.4812
  115MOL0     H15510   1.565   7.978   0.146 -1.3387 -0.8735 -0.9728
  115MOL0     H15511   1.606   7.469   0.530 -1.4969  1.9972 -0.3325
  115MOL0     H15512   1.497   7.435   0.288 -1.5791  2.0957 -2.4783
  115MOL0     H15513   1.239   7.804  -0.029 -1.5086 -2.1335  0.1375
  115MOL0     H15514   1.161   7.823  -0.285  1.2743  0.6943 -0.8681
  115MOL0     H15515   1.372   7.647  -0.604 -0.1268 -1.5618  0.3790
  115MOL0     H15516   1.226   7.534  -0.620  2.9029 -2.5864  1.5059
  115MOL0     H15517   1.271   7.820  -0.695  0.2721 -1.2347  4.7168
  115MOL0     H15518   1.106   7.762  -0.679  0.7987 -0.8482  3.4748
  115MOL0     H15519   1.157   7.591  -0.858  0.2681  0.0901 -1.5189
  115MOL0     H15520   1.333   7.622  -0.824  0.1627  2.3452  3.8601
  115MOL0     H15521   1.233   7.708  -1.043 -1.1369  0.1802 -1.2923
  115MOL0     H15522   1.300   7.841  -0.941 -0.0710 -0.0078 -0.9748
  115MOL0     H15523   0.898   7.946  -0.968 -0.2325  0.9322 -2.6942
  115MOL0     H15524   1.432   7.516  -0.384 -3.1757  0.5713  0.1938
  115MOL0     H15525   1.539   7.525  -0.171  0.0350 -0.9911  1.2369
  116MOL0     O15526   5.970   9.900  11.483  0.6406 -0.2823  0.8083
  116MOL0     C15527   5.911  10.000  11.435 -1.6193  0.7937  0.2214
  116MOL0     O15528   5.928  10.051  11.305  0.6906  0.7317  0.3688
  116MOL0     C15529   6.025  10.015  11.215 -0.1513 -0.1688  0.7662
  116MOL0     C15530   6.116   9.902  11.221 -0.5787 -0.2032 -0.2764
  116MOL0     C15531   6.200   9.878  11.111 -0.3049 -1.0347 -0.6174
  116MOL0     C15532   6.203   9.966  10.999  0.0591  0.8777  0.6157
  116MOL0     O15533   6.298   9.962  10.893  0.8118  0.5123 -0.6189
  116MOL0     C15534   6.372   9.842  10.874 -0.2969 -0.1153  0.1835
  116MOL0     C15535   6.274   9.723  10.844  0.5552  0.5734 -0.4333
  116MOL0     C15536   6.214   9.730  10.708  0.5100  0.2488  0.1629
  116MOL0     C15537   6.135   9.607  10.680  0.6850 -0.3770  0.4148
  116MOL0     C15538   6.037   9.624  10.559  0.1917 -0.2580  0.7210
  116MOL0     C15539   5.906   9.692  10.614 -0.5068 -0.1370  0.2684
  116MOL0     C15540   5.808   9.723  10.494 -0.2545 -1.3249 -0.1134
  116MOL0     C15541   5.867   9.813  10.378  0.4153  0.5140  0.4895
  116MOL0     N15542   5.770   9.852  10.277  0.0332 -0.1902 -0.0725
  116MOL0     C15543   5.739   9.984  10.262  0.2390  0.2927  0.5644
  116MOL0     C15544   5.653   9.994  10.154 -0.6092  0.2117 -1.0643
  116MOL0     C15545   5.612  10.130  10.098 -0.0198  0.3602  0.2122
  116MOL0     C15546   5.581  10.129   9.948 -0.2512  1.2164 -0.2317
  116MOL0     C15547   5.702  10.069   9.857 -0.1186 -0.3703 -1.0777
  116MOL0     C15548   5.668  10.064   9.712  0.0107  0.1676 -0.2310
  116MOL0     O15549   5.758   9.977   9.636  0.5428  0.1096  0.0144
  116MOL0     C15550   5.769   9.990   9.504 -0.7422  0.3384 -0.3592
  116MOL0     C15551   5.874   9.920   9.454  0.4266 -0.3564 -0.4858
  116MOL0     C15552   5.906   9.930   9.313  0.3814 -0.3644  0.4201
  116MOL0     C15553   6.040   9.878   9.271  0.5365  0.0752 -0.1557
  116MOL0     C15554   5.821  10.006   9.228  0.2302 -0.7647  0.6577
  116MOL0     C15555   5.835  10.005   9.071 -0.1008 -1.1588  0.2368
  116MOL0     O15556   5.722  10.048   8.999 -0.5324 -0.0779 -0.3000
  116MOL0     C15557   5.743  10.060   8.874  0.3123 -1.3704  0.5677
  116MOL0     C15558   5.706   9.960   8.789  0.8217 -0.4308 -0.0569
  116MOL0     C15559   5.752   9.986   8.655  0.2159 -0.3727  0.6267
  116MOL0     C15560   5.814  10.098   8.603  0.2200 -0.7319  0.2985
  116MOL0     O15561   5.829  10.115   8.464 -0.1834  1.0428 -0.4789
  116MOL0     C15562   5.930  10.201   8.422  0.0217 -0.8492  0.1281
  116MOL0     C15563   6.004  10.143   8.299 -0.7144 -0.3411 -1.5236
  116MOL0     C15564   5.911  10.144   8.177  1.0073 -0.5438 -0.9104
  116MOL0     C15565   5.893  10.276   8.102 -0.1461 -1.0990 -0.1223
  116MOL0     C15566   5.775  10.247   8.004  0.0367  0.3083  0.8899
  116MOL0     C15567   5.741  10.364   7.894  0.5907  0.3270 -1.1074
  116MOL0     C15568   5.710  10.501   7.966  1.0557 -0.1209 -0.6177
  116MOL0     C15569   5.656  10.594   7.867  0.1799 -1.1627  0.6689
  116MOL0    Cl15570   5.475  10.576   7.821 -0.0160 -0.1417  0.0544
  116MOL0     C15571   5.838  10.195   8.699 -0.3997 -0.0049 -0.4100
  116MOL0     C15572   5.800  10.182   8.832 -1.5071  0.2611 -0.2438
  116MOL0     O15573   5.943   9.969   9.017  0.2717 -0.4555  0.5186
  116MOL0     C15574   5.710  10.076   9.285 -0.5372  0.2923 -0.4375
  116MOL0     C15575   5.687  10.069   9.422  0.6287  0.5288 -1.1270
  116MOL0     N15576   5.626   9.860  10.117  0.1564 -0.5039 -0.4075
  116MOL0     N15577   5.702   9.776  10.187 -0.1889 -0.4416  0.3918
  116MOL0     C15578   6.113  10.071  10.993 -0.9101 -0.2783 -0.3134
  116MOL0     C15579   6.025  10.096  11.095  0.3565 -0.7879 -0.6530
  116MOL0     C15580   5.814  10.070  11.508 -0.4686  0.5352  0.1589
  116MOL0     C15581   5.726  10.162  11.449  0.2020 -0.2349  0.1524
  116MOL0     C15582   5.633  10.236  11.524  0.1022 -0.5274  0.3912
  116MOL0     C15583   5.621  10.217  11.660 -0.1094  0.4557 -0.1600
  116MOL0     O15584   5.520  10.302  11.715  0.4591 -0.5047 -0.6985
  116MOL0     C15585   5.454  10.265  11.842  0.2561  0.3536  0.7276
  116MOL0     C15586   5.407  10.121  11.855  0.1587  0.0608 -0.0979
  116MOL0     C15587   5.286  10.091  11.752  0.2884  0.4154 -0.8149
  116MOL0     C15588   5.263   9.942  11.730 -0.1736  0.4655  0.0285
  116MOL0     C15589   5.173   9.882  11.843 -0.1844 -0.4020 -0.0606
  116MOL0     C15590   5.103   9.843  11.935 -0.3329 -0.1291  0.3318
  116MOL0     C15591   5.707  10.121  11.720  0.8161  0.5626 -0.5723
  116MOL0     C15592   5.809  10.055  11.649 -0.0921 -0.3614  0.9467
  116MOL0     H15593   6.114   9.827  11.299  0.2288 -0.4021 -0.4323
  116MOL0     H15594   6.283   9.810  11.128  3.6658  3.3163 -0.7369
  116MOL0     H15595   6.446   9.843  10.793  0.3832 -2.8417  0.6799
  116MOL0     H15596   6.441   9.824  10.957 -1.0405 -0.9078  0.6418
  116MOL0     H15597   6.314   9.622  10.857 -0.7568 -0.0917 -1.3613
  116MOL0     H15598   6.201   9.703  10.922  1.5602 -2.3158 -0.0938
  116MOL0     H15599   6.151   9.819  10.701 -1.2873 -1.1092 -3.1295
  116MOL0     H15600   6.299   9.741  10.640  0.4714  0.8636  0.2082
  116MOL0     H15601   6.199   9.520  10.665  1.2831 -0.0590  1.0504
  116MOL0     H15602   6.068   9.572  10.760 -0.3588 -2.7875 -1.4078
  116MOL0     H15603   6.083   9.692  10.486 -1.1882  3.6588  3.1579
  116MOL0     H15604   6.003   9.523  10.535  0.4451 -0.7646  2.3463
  116MOL0     H15605   5.865   9.636  10.699 -1.3043  0.5869  0.3716
  116MOL0     H15606   5.934   9.787  10.660 -1.7214  1.2442 -1.6949
  116MOL0     H15607   5.795   9.625  10.448  0.5389 -0.5999 -1.9822
  116MOL0     H15608   5.715   9.761  10.537  1.0226  1.8801  0.1359
  116MOL0     H15609   5.939   9.756  10.319 -2.0564 -1.0750 -1.1792
  116MOL0     H15610   5.902   9.909  10.417 -2.4932  1.8582  0.1313
  116MOL0     H15611   5.776  10.063  10.325  1.0113 -0.1963  0.7348
  116MOL0     H15612   5.524  10.157  10.158  0.3215 -1.5662  1.6982
  116MOL0     H15613   5.689  10.205  10.119 -0.4090  0.5959  0.8206
  116MOL0     H15614   5.553  10.233   9.927  1.0926  1.0135 -3.5782
  116MOL0     H15615   5.495  10.062   9.946  0.3540  0.3982  0.4956
  116MOL0     H15616   5.722   9.967   9.891  0.2924 -0.7199 -2.2946
  116MOL0     H15617   5.793  10.124   9.880  1.9829 -1.9624 -4.7061
  116MOL0     H15618   5.699  10.162   9.675  0.3175 -0.6782 -2.3772
  116MOL0     H15619   5.561  10.048   9.696  0.1583 -2.1671  0.7192
  116MOL0     H15620   5.949   9.884   9.524  1.2199  3.1499  0.6574
  116MOL0     H15621   6.037   9.816   9.181 -1.2577  0.6801 -0.5576
  116MOL0     H15622   6.109   9.960   9.254  2.9252 -1.7665  0.1678
  116MOL0     H15623   6.101   9.831   9.349  0.8108  1.3450  0.4288
  116MOL0     H15624   5.636   9.885   8.824 -1.9827  2.8750  2.0702
  116MOL0     H15625   5.724   9.916   8.577  0.1236  1.8851 -1.4949
  116MOL0     H15626   5.897  10.301   8.391  2.4239 -0.4889 -1.4749
  116MOL0     H15627   5.998  10.224   8.505 -0.4758  0.3643  0.2313
  116MOL0     H15628   6.103  10.189   8.285  1.1075 -2.5560  2.3960
  116MOL0     H15629   6.024  10.039   8.328 -0.9936 -0.3413 -1.3279
  116MOL0     H15630   5.815  10.110   8.215  0.6419 -2.0592 -2.9899
  116MOL0     H15631   5.948  10.069   8.107 -0.3431 -1.0546 -1.0913
  116MOL0     H15632   5.863  10.354   8.172  0.1457 -0.4866 -0.6664
  116MOL0     H15633   5.990  10.301   8.058 -1.8173 -1.9405 -4.9990
  116MOL0     H15634   5.683  10.230   8.061 -0.3185  1.6143  0.7513
  116MOL0     H15635   5.800  10.156   7.948  1.1043 -0.1982  2.1343
  116MOL0     H15636   5.817  10.366   7.816 -1.0449 -4.3783 -3.2092
  116MOL0     H15637   5.653  10.334   7.838  0.7328  0.6876 -1.5274
  116MOL0     H15638   5.791  10.537   8.030 -1.1546 -0.8607  2.8229
  116MOL0     H15639   5.626  10.491   8.034  0.4586  0.9709 -1.1644
  116MOL0     H15640   5.722  10.589   7.780  3.9054  0.2212  3.1445
  116MOL0     H15641   5.673  10.693   7.911  0.0636 -2.3383  3.6398
  116MOL0     H15642   5.872  10.296   8.679  1.2703  0.3335  3.3162
  116MOL0     H15643   5.806  10.259   8.908  0.1484  0.2586 -0.3264
  116MOL0     H15644   5.644  10.135   9.222 -0.0536 -0.2097 -1.4293
  116MOL0     H15645   5.604  10.111   9.477  1.5295  0.5932  0.2298
  116MOL0     H15646   6.119  10.143  10.913  3.8210  0.4334  0.4088
  116MOL0     H15647   5.960  10.182  11.086  1.1056  0.1385  1.8585
  116MOL0     H15648   5.744  10.172  11.342  2.6304  0.6635  0.5803
  116MOL0     H15649   5.571  10.317  11.486 -0.9020 -1.1709  0.6199
  116MOL0     H15650   5.529  10.277  11.920  1.4888  4.2243 -0.8166
  116MOL0     H15651   5.370  10.331  11.862 -0.5272 -0.1565 -0.6858
  116MOL0     H15652   5.359  10.113  11.953 -2.7491  0.5174 -1.3659
  116MOL0     H15653   5.488  10.051  11.835 -1.8688 -1.9558 -1.9387
  116MOL0     H15654   5.309  10.134  11.654  1.5504 -0.7800 -1.0613
  116MOL0     H15655   5.190  10.138  11.780 -1.3964 -3.4900  0.6694
  116MOL0     H15656   5.362   9.897  11.729  0.3016  1.3488  2.0728
  116MOL0     H15657   5.213   9.915  11.637 -1.5138 -2.3442  1.4460
  116MOL0     H15658   5.036   9.822  12.016 -0.7116  1.3703  0.4439
  116MOL0     H15659   5.710  10.084  11.822  1.8609 -0.9899 -1.1167
  116MOL0     H15660   5.859   9.974  11.701  0.6539 -0.6335 -0.1527
  117MOL0     O15661   1.917   4.066   4.687  0.0813 -0.2951  0.1861
  117MOL0     C15662   1.819   4.008   4.743 -0.2386 -0.5429 -0.0691
  117MOL0     O15663   1.786   4.019   4.875  0.1521 -0.0007  0.2601
  117MOL0     C15664   1.859   4.105   4.953 -0.3912  0.2705 -0.6572
  117MOL0     C15665   1.907   4.052   5.070 -0.3375 -0.3408 -0.3153
  117MOL0     C15666   1.997   4.127   5.148  0.4551 -0.1386 -0.1804
  117MOL0     C15667   2.046   4.246   5.116  0.5935 -0.1768  1.3158
  117MOL0     O15668   2.146   4.299   5.195  0.4244  0.0409 -0.1711
  117MOL0     C15669   2.260   4.357   5.131 -0.1147 -0.6456  0.0717
  117MOL0     C15670   2.287   4.495   5.192 -0.2023 -0.3079  0.7164
  117MOL0     C15671   2.421   4.558   5.144 -0.2215 -0.0283 -0.1323
  117MOL0     C15672   2.454   4.684   5.225 -0.6608 -0.2067 -0.0682
  117MOL0     C15673   2.604   4.725   5.211  0.0674  0.1476 -0.5041
  117MOL0     C15674   2.614   4.872   5.267 -0.6885  0.4471  0.3148
  117MOL0     C15675   2.756   4.924   5.261 -0.4178 -0.1098 -0.4977
  117MOL0     C15676   2.754   5.079   5.256  0.8596 -0.5792  0.6366
  117MOL0     N15677   2.855   5.148   5.326  0.8576 -0.2530  0.0615
  117MOL0     C15678   2.887   5.107   5.449 -0.7468 -0.0443 -0.7816
  117MOL0     C15679   2.999   5.156   5.477 -0.9773 -0.0191 -0.9377
  117MOL0     C15680   3.076   5.142   5.610  0.7249 -0.3191  0.6391
  117MOL0     C15681   3.222   5.111   5.585 -1.0409 -0.6287  0.6540
  117MOL0     C15682   3.320   5.220   5.540 -0.8162 -0.1889 -0.4588
  117MOL0     C15683   3.452   5.177   5.515 -0.3777  0.3499 -0.5440
  117MOL0     O15684   3.504   5.156   5.651 -0.7684  0.1889  0.1427
  117MOL0     C15685   3.572   5.268   5.698  1.3107  0.2018 -1.2581
  117MOL0     C15686   3.590   5.400   5.642  0.1000  0.0308 -0.7137
  117MOL0     C15687   3.675   5.497   5.704 -0.1571  0.8483  0.2751
  117MOL0     C15688   3.702   5.622   5.633  0.6398  0.7924  0.0224
  117MOL0     C15689   3.716   5.463   5.842  0.2617 -0.5872 -0.1312
  117MOL0     C15690   3.808   5.561   5.925 -0.0455 -0.8212 -0.6666
  117MOL0     O15691   3.867   5.507   6.036 -0.1193  0.0774  0.6659
  117MOL0     C15692   3.954   5.574   6.110 -0.5863  0.7428  0.5143
  117MOL0     C15693   4.094   5.544   6.121 -0.0132 -0.2757  0.2362
  117MOL0     C15694   4.180   5.613   6.195 -1.1196  0.2945  0.4335
  117MOL0     C15695   4.141   5.725   6.262  0.0178  0.0834 -0.4352
  117MOL0     O15696   4.226   5.816   6.318  0.3215  0.2841  0.1701
  117MOL0     C15697   4.204   5.960   6.300  0.2198 -0.2448 -0.9605
  117MOL0     C15698   4.209   6.025   6.441  0.3438  0.2411  0.9491
  117MOL0     C15699   4.352   6.083   6.479 -0.4165 -0.3982 -0.5817
  117MOL0     C15700   4.452   5.997   6.546  0.4581 -0.1474  1.4725
  117MOL0     C15701   4.544   6.063   6.653  0.1142 -0.4366  0.7019
  117MOL0     C15702   4.482   6.108   6.792  0.1366 -0.0885 -0.2593
  117MOL0     C15703   4.514   6.003   6.894 -1.0741 -0.7413  0.0113
  117MOL0     C15704   4.498   6.062   7.040 -0.8700 -0.4268  1.1649
  117MOL0    Cl15705   4.329   6.087   7.092  0.5857 -0.3137  0.1956
  117MOL0     C15706   4.001   5.747   6.265 -1.5488 -0.4822  0.0282
  117MOL0     C15707   3.911   5.668   6.201 -0.2403 -0.4227  0.3928
  117MOL0     O15708   3.812   5.681   5.901  0.2628  0.1938  0.5096
  117MOL0     C15709   3.689   5.342   5.902  0.3852  0.1458  0.4683
  117MOL0     C15710   3.622   5.246   5.827  0.4723  0.4634 -0.0243
  117MOL0     N15711   3.036   5.247   5.385 -0.0386  0.5418 -0.4063
  117MOL0     N15712   2.944   5.240   5.286 -0.4325  0.1164  0.6113
  117MOL0     C15713   1.982   4.310   4.999 -0.0405 -0.6022 -0.8145
  117MOL0     C15714   1.888   4.233   4.925  0.3761 -0.2449 -0.6697
  117MOL0     C15715   1.745   3.915   4.674  0.0359 -0.3917 -0.3552
  117MOL0     C15716   1.789   3.879   4.545  0.1080  0.1433  1.0345
  117MOL0     C15717   1.717   3.777   4.477  0.5791  0.2189 -0.1632
  117MOL0     C15718   1.598   3.720   4.528 -0.3282  0.2494  0.5818
  117MOL0     O15719   1.530   3.626   4.453  0.5091 -0.3570 -0.2117
  117MOL0     C15720   1.394   3.600   4.499  0.4546  1.2003 -0.8126
  117MOL0     C15721   1.329   3.516   4.386  0.5828  0.3584  0.4821
  117MOL0     C15722   1.191   3.461   4.432 -0.1170  0.1887  0.3610
  117MOL0     C15723   1.122   3.375   4.310  0.6744  0.8915  0.2562
  117MOL0     C15724   1.088   3.447   4.192 -0.6074  0.9344 -0.4868
  117MOL0     C15725   1.063   3.506   4.093  0.2574  0.1111 -0.5487
  117MOL0     C15726   1.565   3.752   4.653  0.2120 -0.2847 -0.0216
  117MOL0     C15727   1.629   3.841   4.731 -0.3233 -0.6212 -0.6679
  117MOL0     H15728   1.885   3.950   5.099 -1.3530 -0.7175 -2.2518
  117MOL0     H15729   2.039   4.086   5.239  0.0787 -0.1158  0.0075
  117MOL0     H15730   2.344   4.287   5.139 -1.0050 -2.0189 -1.8668
  117MOL0     H15731   2.244   4.375   5.025  0.1264 -0.2752  0.0946
  117MOL0     H15732   2.205   4.562   5.164 -0.2352 -1.2004 -1.4724
  117MOL0     H15733   2.287   4.487   5.301  1.9611  0.3811  0.8242
  117MOL0     H15734   2.498   4.482   5.163 -0.0100 -0.1319 -1.2972
  117MOL0     H15735   2.419   4.593   5.040 -1.0579 -0.9062 -0.4284
  117MOL0     H15736   2.397   4.768   5.185 -0.1558 -0.1587 -0.7102
  117MOL0     H15737   2.430   4.670   5.331 -1.6968 -1.3785 -0.4416
  117MOL0     H15738   2.666   4.660   5.273 -0.5559  1.5054  1.6769
  117MOL0     H15739   2.636   4.715   5.107  1.6823  2.3082 -0.2985
  117MOL0     H15740   2.552   4.928   5.196  0.5154 -0.9773 -1.9744
  117MOL0     H15741   2.571   4.872   5.368 -0.0588 -0.8764  0.6040
  117MOL0     H15742   2.809   4.885   5.348  0.5197  1.5743 -0.2706
  117MOL0     H15743   2.806   4.890   5.170 -1.9906 -0.9569 -1.0998
  117MOL0     H15744   2.655   5.117   5.283 -0.0199 -2.0727 -0.3634
  117MOL0     H15745   2.756   5.122   5.155  1.7259  1.8211  1.5901
  117MOL0     H15746   2.833   5.048   5.522  0.6927 -0.2606  0.1396
  117MOL0     H15747   3.064   5.235   5.667  1.4787  1.1393 -1.4739
  117MOL0     H15748   3.025   5.062   5.664 -1.1957  0.5020  0.1338
  117MOL0     H15749   3.234   5.024   5.519 -0.3066 -1.1476  1.4544
  117MOL0     H15750   3.254   5.076   5.683 -1.2810  0.2157  1.0414
  117MOL0     H15751   3.309   5.312   5.598  4.0512  0.8037 -0.6283
  117MOL0     H15752   3.288   5.255   5.441 -0.4739  0.2826 -0.4049
  117MOL0     H15753   3.525   5.238   5.460 -0.0104  3.0008  2.5471
  117MOL0     H15754   3.441   5.082   5.463  0.5672 -1.1057  1.7248
  117MOL0     H15755   3.552   5.413   5.542 -1.2199  0.7779 -0.1450
  117MOL0     H15756   3.808   5.644   5.645  1.0840 -1.0952 -0.1702
  117MOL0     H15757   3.679   5.622   5.526  2.3317 -1.3262 -0.3993
  117MOL0     H15758   3.642   5.704   5.674 -0.4479 -0.8757  1.9960
  117MOL0     H15759   4.143   5.466   6.063  1.4372 -0.2410  1.3461
  117MOL0     H15760   4.284   5.594   6.171 -1.6962 -3.9030  0.5431
  117MOL0     H15761   4.287   5.998   6.239  1.5161 -0.9656  0.2963
  117MOL0     H15762   4.107   5.985   6.256 -0.0016 -1.0961 -0.9760
  117MOL0     H15763   4.136   6.106   6.430 -0.9443 -1.0766 -0.7540
  117MOL0     H15764   4.169   5.961   6.520  0.2043  0.4128  1.0187
  117MOL0     H15765   4.341   6.175   6.536  1.9546  2.0718 -3.7125
  117MOL0     H15766   4.395   6.120   6.385 -1.1687  0.6219 -0.5456
  117MOL0     H15767   4.401   5.905   6.577  2.4962 -1.0816  2.2191
  117MOL0     H15768   4.528   5.969   6.473  1.2987  2.7577  1.0926
  117MOL0     H15769   4.565   6.164   6.619 -0.4234  0.4412  2.8019
  117MOL0     H15770   4.645   6.021   6.661 -0.3877 -1.4493  2.5404
  117MOL0     H15771   4.535   6.199   6.821 -0.0953  0.1523 -0.5752
  117MOL0     H15772   4.376   6.132   6.783 -0.9554 -3.1282  2.4551
  117MOL0     H15773   4.622   5.987   6.896 -1.2318 -1.7767  0.8983
  117MOL0     H15774   4.467   5.907   6.871 -0.4330 -0.5634 -2.2594
  117MOL0     H15775   4.564   6.149   7.049 -0.5644 -0.6097  0.7384
  117MOL0     H15776   4.522   5.980   7.109 -1.4440 -0.8779  0.8321
  117MOL0     H15777   3.962   5.828   6.325 -1.7987 -0.9474  0.5058
  117MOL0     H15778   3.804   5.685   6.207  0.0786  2.5067 -0.3840
  117MOL0     H15779   3.723   5.313   6.001 -0.3098  1.0095  0.9806
  117MOL0     H15780   3.594   5.154   5.877 -2.1807 -0.3434 -2.6316
  117MOL0     H15781   2.015   4.412   4.984  3.8476 -1.1667  2.2032
  117MOL0     H15782   1.842   4.257   4.829  0.3187  1.7517 -0.1954
  117MOL0     H15783   1.882   3.912   4.501  1.2754 -4.6317 -0.6750
  117MOL0     H15784   1.746   3.750   4.376 -1.2924  0.0771 -0.6992
  117MOL0     H15785   1.410   3.532   4.583 -0.7928  0.9703 -0.7332
  117MOL0     H15786   1.340   3.694   4.515 -0.1553  0.7865 -0.3769
  117MOL0     H15787   1.389   3.428   4.363  2.8081  1.9257 -0.0025
  117MOL0     H15788   1.326   3.577   4.295  2.6484 -1.9715 -1.2941
  117MOL0     H15789   1.130   3.546   4.466 -0.4923 -0.0520  0.2969
  117MOL0     H15790   1.209   3.395   4.517 -0.0041 -1.3742 -0.8445
  117MOL0     H15791   1.029   3.331   4.348  1.4796 -1.4254 -0.2794
  117MOL0     H15792   1.185   3.291   4.281 -0.1666  0.2227  0.3197
  117MOL0     H15793   1.071   3.555   3.998  0.5144 -0.4244 -0.8092
  117MOL0     H15794   1.477   3.713   4.705 -0.8070  2.8669  0.8683
  117MOL0     H15795   1.586   3.866   4.827  0.9094  3.8800 -1.0606
  118MOL0     O15796   3.358   3.999  10.959  0.1040 -0.1327 -0.1033
  118MOL0     C15797   3.424   4.063  10.878 -0.0160  0.5205  0.5352
  118MOL0     O15798   3.487   4.187  10.887  0.7415  0.2941 -0.1267
  118MOL0     C15799   3.480   4.267  11.000  0.7477 -0.2563  0.7503
  118MOL0     C15800   3.368   4.267  11.079  0.2400 -0.1605 -0.1861
  118MOL0     C15801   3.356   4.345  11.200 -1.5700  0.0932  0.1526
  118MOL0     C15802   3.463   4.437  11.224 -0.7187  0.1768 -0.5528
  118MOL0     O15803   3.460   4.512  11.338 -0.7292  0.7437  0.6677
  118MOL0     C15804   3.574   4.572  11.398 -0.6493  0.4186  0.6646
  118MOL0     C15805   3.541   4.639  11.531 -0.6819  0.2996  0.9926
  118MOL0     C15806   3.660   4.707  11.589  0.6783 -0.7322 -0.2165
  118MOL0     C15807   3.616   4.797  11.704  0.9102 -0.4247 -0.2381
  118MOL0     C15808   3.729   4.892  11.753 -0.7437 -0.6064  0.3082
  118MOL0     C15809   3.866   4.825  11.773 -0.1190 -0.1244  0.8872
  118MOL0     C15810   3.969   4.915  11.842 -0.5406 -0.0727  0.2250
  118MOL0     C15811   4.115   4.842  11.847  0.4270 -0.2307  0.2928
  118MOL0     N15812   4.123   4.752  11.970 -0.1858 -1.1294  0.1240
  118MOL0     C15813   4.138   4.616  11.966 -0.1243  0.3613 -0.1488
  118MOL0     C15814   4.177   4.579  12.082 -0.2031  0.3008 -0.4602
  118MOL0     C15815   4.198   4.441  12.133 -0.9780  1.5219  0.7993
  118MOL0     C15816   4.291   4.342  12.057  0.3321  0.5648 -0.1730
  118MOL0     C15817   4.437   4.368  12.102  1.0791 -1.0434  0.3453
  118MOL0     C15818   4.469   4.311  12.237 -0.0833 -0.5868 -0.1722
  118MOL0     O15819   4.616   4.302  12.253 -0.1358 -0.3430  0.6845
  118MOL0     C15820   4.673   4.233  12.351 -0.2740  0.8280 -0.1537
  118MOL0     C15821   4.611   4.216  12.477  0.3611 -0.2082 -0.3587
  118MOL0     C15822   4.687   4.151  12.579 -0.0005 -0.2374  0.3040
  118MOL0     C15823   4.636   4.167  12.724 -0.2781 -0.2399 -0.1369
  118MOL0     C15824   4.823   4.110  12.553 -0.0249  0.6945 -0.3186
  118MOL0     C15825   4.913   4.044  12.660  0.1188  0.1876  0.6817
  118MOL0     O15826   4.860   3.985  12.772  0.6472 -0.0194  0.3318
  118MOL0     C15827   4.944   3.949  12.870 -0.6352  0.5210  0.2600
  118MOL0     C15828   4.923   3.823  12.918 -0.2699 -0.3059  0.2143
  118MOL0     C15829   5.013   3.763  13.013  0.0528  0.1404 -0.2860
  118MOL0     C15830   5.121   3.841  13.059 -0.2987  0.8947 -0.3208
  118MOL0     O15831   5.216   3.794  13.149 -0.9121 -0.2595  0.0570
  118MOL0     C15832   5.295   3.690  13.087  0.2845  0.3766 -0.5054
  118MOL0     C15833   5.388   3.744  12.978  0.9500 -0.5409  0.9228
  118MOL0     C15834   5.492   3.845  13.012 -0.1735  0.7594 -0.3580
  118MOL0     C15835   5.565   3.896  12.894  0.3863 -0.8193 -0.8444
  118MOL0     C15836   5.485   3.978  12.798  1.1298  0.5590  0.3962
  118MOL0     C15837   5.565   4.056  12.699 -1.2229  0.8572 -0.8391
  118MOL0     C15838   5.495   4.125  12.580  0.3528 -0.4024  0.0486
  118MOL0     C15839   5.365   4.198  12.597  0.7597  1.4852  0.4293
  118MOL0    Cl15840   5.273   4.218  12.440 -0.1504 -0.1540 -0.4194
  118MOL0     C15841   5.140   3.971  13.012 -0.3801  0.4881 -0.3928
  118MOL0     C15842   5.054   4.021  12.926 -0.1725  0.2590  1.5246
  118MOL0     O15843   5.034   4.047  12.636 -0.3740 -0.2949 -0.3663
  118MOL0     C15844   4.877   4.133  12.424  0.4118 -0.2368  0.0206
  118MOL0     C15845   4.806   4.200  12.327  0.6093  1.6535 -0.2543
  118MOL0     N15846   4.205   4.696  12.157  0.9331 -0.0225 -0.6062
  118MOL0     N15847   4.161   4.802  12.091  0.5329  0.1125  0.1816
  118MOL0     C15848   3.568   4.450  11.136  0.5978 -0.4235 -0.5201
  118MOL0     C15849   3.575   4.366  11.028 -0.5008 -0.2608 -0.4604
  118MOL0     C15850   3.456   3.990  10.765 -0.1311 -0.1167  0.1229
  118MOL0     C15851   3.440   4.046  10.636 -0.2846 -0.1123  0.5888
  118MOL0     C15852   3.473   3.983  10.515  0.0737  0.0270  0.1183
  118MOL0     C15853   3.523   3.854  10.521  0.1309 -0.5194 -0.1428
  118MOL0     O15854   3.554   3.787  10.408 -0.1237  0.2284 -0.1940
  118MOL0     C15855   3.465   3.670  10.383 -0.6878  0.5323  0.4507
  118MOL0     C15856   3.355   3.719  10.286  0.3325 -0.2042  0.1744
  118MOL0     C15857   3.228   3.639  10.285  0.0819 -0.6653 -0.1246
  118MOL0     C15858   3.234   3.492  10.217 -0.1561 -1.4060  0.3424
  118MOL0     C15859   3.336   3.481  10.115  0.7185  0.4124  0.3165
  118MOL0     C15860   3.418   3.460  10.038 -0.3017 -0.0911  0.6722
  118MOL0     C15861   3.542   3.787  10.646 -0.0074  0.5103  0.7428
  118MOL0     C15862   3.498   3.861  10.769 -0.2328  0.7956 -0.5334
  118MOL0     H15863   3.284   4.202  11.055  0.1398 -0.9689  2.0400
  118MOL0     H15864   3.273   4.333  11.269  0.2990 -1.6410  2.3003
  118MOL0     H15865   3.659   4.504  11.405 -1.9599 -1.7619 -2.2502
  118MOL0     H15866   3.601   4.660  11.339 -0.1668  1.8978  2.9674
  118MOL0     H15867   3.462   4.714  11.525 -0.7006  0.5896  3.4475
  118MOL0     H15868   3.505   4.555  11.591  0.4910 -1.4774 -0.6770
  118MOL0     H15869   3.725   4.635  11.640  1.8968 -0.8560 -1.8622
  118MOL0     H15870   3.727   4.752  11.515  0.6531  1.4211  0.9834
  118MOL0     H15871   3.535   4.870  11.688  4.0566  4.2263  2.5836
  118MOL0     H15872   3.588   4.727  11.783  2.2105 -3.9103 -2.6226
  118MOL0     H15873   3.735   4.979  11.687  0.8367 -0.0629  1.1100
  118MOL0     H15874   3.701   4.940  11.847 -0.0923 -0.6463  0.5317
  118MOL0     H15875   3.857   4.731  11.830 -0.5719 -0.0431  0.9566
  118MOL0     H15876   3.905   4.797  11.675  0.1412 -0.7795  1.1715
  118MOL0     H15877   3.986   5.014  11.798  0.9004 -1.0253 -1.5126
  118MOL0     H15878   3.937   4.935  11.944 -0.1933  0.5541  0.2160
  118MOL0     H15879   4.198   4.914  11.841  0.4997 -0.4366 -2.2583
  118MOL0     H15880   4.128   4.791  11.751 -0.2441 -1.8519  1.0213
  118MOL0     H15881   4.120   4.539  11.892  3.4769 -2.8908  2.0313
  118MOL0     H15882   4.222   4.445  12.240 -0.6794  3.0714  0.6919
  118MOL0     H15883   4.100   4.393  12.131  0.2547 -1.4059 -3.2708
  118MOL0     H15884   4.285   4.353  11.948 -2.1335 -1.0977 -0.2999
  118MOL0     H15885   4.264   4.239  12.082  1.4502  0.6307  1.4096
  118MOL0     H15886   4.462   4.474  12.094 -0.1302 -0.8219 -0.7860
  118MOL0     H15887   4.505   4.326  12.027  2.1122  1.7088 -0.3648
  118MOL0     H15888   4.434   4.207  12.237 -1.5739 -0.1146  1.0058
  118MOL0     H15889   4.431   4.369  12.321  1.2436 -0.0594  0.0786
  118MOL0     H15890   4.505   4.235  12.491  0.0948 -1.2354 -0.8683
  118MOL0     H15891   4.624   4.067  12.767 -0.5514  0.1321  0.6850
  118MOL0     H15892   4.712   4.224  12.779 -1.6584  0.2639  1.3581
  118MOL0     H15893   4.535   4.210  12.723 -1.5879 -3.0341 -2.7333
  118MOL0     H15894   4.843   3.764  12.874  0.9574 -2.0584  0.2229
  118MOL0     H15895   5.001   3.658  13.041 -0.8277  0.6558  1.3806
  118MOL0     H15896   5.361   3.654  13.167 -1.2838 -1.9669 -0.1992
  118MOL0     H15897   5.220   3.614  13.066  0.0397  0.3693  0.3766
  118MOL0     H15898   5.441   3.657  12.936 -0.5207  0.0077 -2.4031
  118MOL0     H15899   5.317   3.782  12.904 -0.7342  0.0503  2.7552
  118MOL0     H15900   5.551   3.788  13.084 -1.6439 -0.8235 -0.3524
  118MOL0     H15901   5.440   3.928  13.062 -1.3130 -0.8784  1.3023
  118MOL0     H15902   5.658   3.941  12.928  0.4735 -1.6180  0.0222
  118MOL0     H15903   5.601   3.822  12.822  0.5557 -0.3775 -1.2189
  118MOL0     H15904   5.427   4.058  12.846  1.0149 -1.3542  3.7719
  118MOL0     H15905   5.413   3.913  12.749  0.0090  2.3941 -0.5228
  118MOL0     H15906   5.627   4.131  12.748 -0.0749 -0.4515 -0.1949
  118MOL0     H15907   5.639   3.993  12.648 -1.6418 -1.5447  1.2642
  118MOL0     H15908   5.478   4.036  12.519  2.9291 -2.1848  1.7194
  118MOL0     H15909   5.559   4.198  12.530 -3.5754  2.9932 -0.6341
  118MOL0     H15910   5.388   4.298  12.633  0.8847  1.3440  0.7448
  118MOL0     H15911   5.301   4.148  12.671  1.9198 -0.3445  0.2686
  118MOL0     H15912   5.222   4.032  13.048  2.6218 -2.2375 -2.0393
  118MOL0     H15913   5.077   4.120  12.886 -1.0518 -0.5681 -1.2794
  118MOL0     H15914   4.980   4.106  12.404 -0.2109 -1.4282 -1.9545
  118MOL0     H15915   4.856   4.206  12.231 -0.5293  1.1956 -0.9043
  118MOL0     H15916   3.654   4.513  11.158  0.5632 -0.4263 -0.3768
  118MOL0     H15917   3.655   4.370  10.954  1.3652  0.7335  1.5212
  118MOL0     H15918   3.405   4.149  10.629  2.8424  0.9577 -0.8954
  118MOL0     H15919   3.467   4.039  10.422 -1.1924 -1.4551 -0.7582
  118MOL0     H15920   3.521   3.584  10.347 -0.7660  1.7345 -2.8206
  118MOL0     H15921   3.423   3.637  10.479  2.1712  1.2734  2.0636
  118MOL0     H15922   3.398   3.734  10.186 -0.6290 -1.8943 -0.5497
  118MOL0     H15923   3.325   3.822  10.307  3.6089  0.8667  0.1631
  118MOL0     H15924   3.162   3.701  10.223  0.6567 -0.7614 -0.8354
  118MOL0     H15925   3.194   3.644  10.389  0.6078  0.3432  0.0098
  118MOL0     H15926   3.135   3.459  10.183  0.5172 -1.7837 -1.2867
  118MOL0     H15927   3.264   3.422  10.296 -0.1677 -0.1453  1.5139
  118MOL0     H15928   3.498   3.429   9.974  2.4589  0.5776  3.5660
  118MOL0     H15929   3.588   3.689  10.654 -0.4036  0.3782  1.4021
  118MOL0     H15930   3.518   3.815  10.865 -0.3964 -1.3496 -1.4478
  119MOL0     O15931   6.613   4.949   0.778 -0.6268 -0.7916 -0.3853
  119MOL0     C15932   6.498   4.920   0.813  0.0921 -0.2942 -0.1275
  119MOL0     O15933   6.415   4.995   0.892  0.6497  0.8748  0.3778
  119MOL0     C15934   6.428   5.126   0.933  0.0455 -0.2652 -0.3678
  119MOL0     C15935   6.353   5.177   1.029 -0.7172 -0.0161 -0.3616
  119MOL0     C15936   6.355   5.311   1.063 -0.0132 -0.9383 -0.8237
  119MOL0     C15937   6.419   5.405   0.977 -0.6121 -0.2938 -0.1963
  119MOL0     O15938   6.378   5.533   0.979 -0.4125 -0.7176 -0.2635
  119MOL0     C15939   6.470   5.646   0.949 -0.0019  0.0060  0.6503
  119MOL0     C15940   6.394   5.778   0.970  0.5148 -0.0950 -0.9267
  119MOL0     C15941   6.352   5.780   1.113  0.1211  1.7596 -0.5075
  119MOL0     C15942   6.299   5.916   1.157  1.1401 -0.2618  0.3983
  119MOL0     C15943   6.286   5.936   1.308  0.4478 -0.9365  0.0273
  119MOL0     C15944   6.216   6.083   1.333  0.5561 -0.6933  0.1556
  119MOL0     C15945   6.234   6.117   1.486 -0.0638  0.3964  0.7496
  119MOL0     C15946   6.162   6.238   1.531 -0.4561 -0.6832 -0.3226
  119MOL0     N15947   6.191   6.267   1.674 -0.5717  0.3758 -0.2061
  119MOL0     C15948   6.317   6.257   1.735  0.5491 -0.0139  0.8751
  119MOL0     C15949   6.295   6.270   1.869  0.2517  0.4672  0.2477
  119MOL0     C15950   6.376   6.270   1.993 -0.8738 -0.1260  0.0586
  119MOL0     C15951   6.422   6.408   2.034 -0.2221  0.0792  1.1184
  119MOL0     C15952   6.568   6.445   1.995 -0.2301 -0.6498  0.7603
  119MOL0     C15953   6.635   6.556   2.079 -0.7216  0.4672  0.5502
  119MOL0     O15954   6.770   6.528   2.078  0.2270  0.2444  0.2990
  119MOL0     C15955   6.864   6.601   2.143 -1.0868 -0.2959 -0.8683
  119MOL0     C15956   6.984   6.619   2.087  0.2364 -1.1297 -0.1875
  119MOL0     C15957   7.086   6.705   2.143  0.5247  0.2425  0.1287
  119MOL0     C15958   7.226   6.698   2.083 -0.0271 -0.1679 -0.3433
  119MOL0     C15959   7.063   6.765   2.273 -0.5875 -0.2946  0.7635
  119MOL0     C15960   7.169   6.838   2.350  0.8056  0.2406  0.6211
  119MOL0     O15961   7.157   6.826   2.485  0.1503  0.8594  0.1600
  119MOL0     C15962   7.247   6.877   2.575  0.5125 -0.4442  0.8637
  119MOL0     C15963   7.340   6.792   2.639  0.3943 -0.5499  0.4703
  119MOL0     C15964   7.445   6.851   2.720  0.2248  0.8599  0.2298
  119MOL0     C15965   7.455   6.988   2.740 -0.5528  0.0357 -0.4950
  119MOL0     O15966   7.556   7.031   2.830  0.1964  0.6790  0.5784
  119MOL0     C15967   7.512   7.111   2.928 -0.1114 -0.3674 -0.7663
  119MOL0     C15968   7.631   7.163   3.018 -0.0698  0.5318  0.7954
  119MOL0     C15969   7.718   7.060   3.085 -0.0072 -0.6991 -0.1119
  119MOL0     C15970   7.785   7.113   3.213 -0.5038  0.2533  0.2782
  119MOL0     C15971   7.899   7.217   3.178  0.6396 -0.3537 -0.9897
  119MOL0     C15972   7.965   7.271   3.304 -0.1484  0.6590 -0.3000
  119MOL0     C15973   8.027   7.153   3.385 -1.2316 -0.0105  0.0935
  119MOL0     C15974   8.109   7.192   3.512  0.0508 -0.1478  0.9241
  119MOL0    Cl15975   8.291   7.236   3.473 -0.0034 -0.0526  0.2307
  119MOL0     C15976   7.366   7.065   2.666 -0.3072 -0.9796  0.2041
  119MOL0     C15977   7.270   7.015   2.574  1.0528  0.3280 -0.6244
  119MOL0     O15978   7.248   6.914   2.287 -0.1056  1.2830 -1.1925
  119MOL0     C15979   6.935   6.745   2.328 -0.1460 -0.8156 -0.3850
  119MOL0     C15980   6.839   6.672   2.259  0.3177  0.1047  0.9807
  119MOL0     N15981   6.160   6.288   1.882 -0.8483  0.4263 -0.4936
  119MOL0     N15982   6.102   6.292   1.769  1.0491  0.7681  0.6926
  119MOL0     C15983   6.502   5.360   0.880 -0.0777 -0.1258 -0.3989
  119MOL0     C15984   6.524   5.223   0.868  1.2148  1.1378  1.4357
  119MOL0     C15985   6.447   4.788   0.778 -0.5606 -0.1880  0.5294
  119MOL0     C15986   6.309   4.747   0.812  0.2025 -0.6551  0.3208
  119MOL0     C15987   6.250   4.629   0.774  0.0181  0.9407 -0.0301
  119MOL0     C15988   6.327   4.537   0.695 -0.2582  0.5442  0.0923
  119MOL0     O15989   6.272   4.416   0.663 -0.1862 -0.0497 -0.9115
  119MOL0     C15990   6.293   4.386   0.527 -0.5065  0.7349 -0.8392
  119MOL0     C15991   6.171   4.406   0.433  0.4792 -0.4039 -0.8482
  119MOL0     C15992   6.053   4.314   0.472 -0.8974 -0.2431 -0.8718
  119MOL0     C15993   5.946   4.314   0.363  0.4780 -0.3049 -0.6996
  119MOL0     C15994   5.862   4.435   0.350  0.4372 -0.3198 -0.1652
  119MOL0     C15995   5.794   4.531   0.334 -0.1004 -0.5928 -0.4027
  119MOL0     C15996   6.459   4.572   0.670  0.1530 -0.2879  0.6677
  119MOL0     C15997   6.518   4.698   0.696 -0.2693  0.3040  0.7109
  119MOL0     H15998   6.293   5.110   1.091  0.5673 -2.6597 -1.7822
  119MOL0     H15999   6.304   5.353   1.149  5.5297  2.3615  1.4382
  119MOL0     H16000   6.562   5.634   1.006  0.2357 -3.2849 -0.2391
  119MOL0     H16001   6.497   5.650   0.843 -1.2462  1.6717  0.3459
  119MOL0     H16002   6.457   5.861   0.940  3.0598 -1.7331 -0.4235
  119MOL0     H16003   6.306   5.779   0.905  2.2176 -0.8633 -3.3873
  119MOL0     H16004   6.285   5.699   1.143  2.7012  0.1845  1.4014
  119MOL0     H16005   6.438   5.753   1.174  0.8789 -0.3942 -2.3699
  119MOL0     H16006   6.350   6.000   1.109  2.7144 -2.5205 -2.1872
  119MOL0     H16007   6.196   5.921   1.121  1.7943  0.8384 -1.5130
  119MOL0     H16008   6.232   5.859   1.363  0.3393  0.0081  1.3181
  119MOL0     H16009   6.388   5.942   1.348  0.5039  0.5842 -0.2610
  119MOL0     H16010   6.266   6.163   1.278  0.3706  2.4884  4.2068
  119MOL0     H16011   6.108   6.091   1.318  0.6450  2.0531  0.5160
  119MOL0     H16012   6.200   6.034   1.549 -0.9516  1.5818  1.8735
  119MOL0     H16013   6.342   6.114   1.506 -0.2524 -0.8889  1.6924
  119MOL0     H16014   6.057   6.228   1.506 -1.0900  0.8485  1.4620
  119MOL0     H16015   6.194   6.330   1.481  0.4871  0.8406  2.7968
  119MOL0     H16016   6.419   6.241   1.702  0.2402 -3.0268  1.1636
  119MOL0     H16017   6.316   6.224   2.071 -0.9757 -1.6883 -0.8890
  119MOL0     H16018   6.461   6.200   1.995 -2.1607 -1.7717 -0.2016
  119MOL0     H16019   6.397   6.413   2.140 -2.4613  0.1039  0.6545
  119MOL0     H16020   6.351   6.474   1.983  2.3885  0.9364 -1.6548
  119MOL0     H16021   6.552   6.483   1.894  3.6939 -1.6617 -0.3964
  119MOL0     H16022   6.634   6.359   2.007 -0.3029 -0.8362 -0.1415
  119MOL0     H16023   6.588   6.555   2.177 -1.2690  1.9492  0.3253
  119MOL0     H16024   6.614   6.653   2.032  0.7045  1.5902  2.1059
  119MOL0     H16025   6.986   6.573   1.989 -2.5851  1.0407 -1.4197
  119MOL0     H16026   7.296   6.734   2.158 -2.0347  0.6299  1.2365
  119MOL0     H16027   7.245   6.591   2.069 -1.1537 -0.5207  0.6724
  119MOL0     H16028   7.238   6.749   1.987  1.6364  2.9216  1.3557
  119MOL0     H16029   7.328   6.684   2.635 -0.1383 -0.4922  0.4214
  119MOL0     H16030   7.506   6.790   2.786 -0.4550  2.2211  2.2243
  119MOL0     H16031   7.455   7.197   2.891  0.3977  0.3718  0.1354
  119MOL0     H16032   7.444   7.044   2.981  0.7704 -2.3566 -2.0189
  119MOL0     H16033   7.683   7.233   2.952 -1.8931  1.3352  0.1566
  119MOL0     H16034   7.592   7.219   3.104 -0.2536 -1.6756  2.2467
  119MOL0     H16035   7.795   7.024   3.017  0.0437 -2.1027  0.6556
  119MOL0     H16036   7.665   6.970   3.116  0.6096 -1.7673 -2.0574
  119MOL0     H16037   7.696   7.160   3.256 -0.8491  3.3525 -3.2624
  119MOL0     H16038   7.821   7.025   3.267  1.6214 -0.0355 -1.4700
  119MOL0     H16039   7.862   7.293   3.108  2.9258  1.3069 -0.4950
  119MOL0     H16040   7.974   7.167   3.118  1.3078  2.3391 -2.5613
  119MOL0     H16041   8.038   7.347   3.276  1.9724 -2.2235 -3.2752
  119MOL0     H16042   7.892   7.319   3.370 -3.0356 -2.7715 -0.6931
  119MOL0     H16043   8.093   7.097   3.318 -0.2169 -1.0491  1.8631
  119MOL0     H16044   7.957   7.077   3.422  2.2544 -3.4885  0.2867
  119MOL0     H16045   8.118   7.101   3.573  0.8257 -0.3753  0.4955
  119MOL0     H16046   8.059   7.266   3.574  0.3614  0.7188  0.1517
  119MOL0     H16047   7.369   7.172   2.680 -3.5688 -0.2505 -2.9871
  119MOL0     H16048   7.222   7.097   2.522  1.4361  2.0248  1.5436
  119MOL0     H16049   6.915   6.802   2.418 -0.5769  1.7761 -2.0054
  119MOL0     H16050   6.737   6.666   2.296  0.3653 -1.7971  0.9187
  119MOL0     H16051   6.551   5.424   0.807 -2.9512  1.8885 -0.7426
  119MOL0     H16052   6.594   5.214   0.786 -2.2948  0.5688 -1.7803
  119MOL0     H16053   6.249   4.821   0.862  0.0574  0.3697 -1.3019
  119MOL0     H16054   6.150   4.610   0.811  0.6710 -2.0986  0.4001
  119MOL0     H16055   6.361   4.457   0.479  1.5233 -1.0966 -0.8269
  119MOL0     H16056   6.333   4.286   0.509 -3.1953 -0.6307  0.1955
  119MOL0     H16057   6.206   4.394   0.330  1.1715 -0.0017 -0.6676
  119MOL0     H16058   6.141   4.511   0.437 -0.8906 -0.7691 -1.0943
  119MOL0     H16059   6.005   4.338   0.567  1.1101 -1.9582  0.6705
  119MOL0     H16060   6.091   4.211   0.471  1.5365  0.5497  0.9236
  119MOL0     H16061   5.875   4.238   0.398  0.1027 -0.1986 -1.2045
  119MOL0     H16062   5.991   4.297   0.265  0.9120  1.4548 -0.8365
  119MOL0     H16063   5.744   4.625   0.329 -0.9901 -0.8704  2.0605
  119MOL0     H16064   6.512   4.495   0.614 -0.9897  0.6716 -1.9287
  119MOL0     H16065   6.619   4.720   0.665  0.1347 -3.2407 -0.9128
  120MOL0     O16066  10.711   5.499  10.342 -0.6196  0.5197  0.2369
  120MOL0     C16067  10.676   5.407  10.416 -0.5494 -0.0735  0.3144
  120MOL0     O16068  10.720   5.277  10.407 -0.0044 -0.0778 -0.3910
  120MOL0     C16069  10.797   5.242  10.299 -0.2269 -0.3480  1.6975
  120MOL0     C16070  10.927   5.192  10.324 -0.5814  0.4998  0.3429
  120MOL0     C16071  11.014   5.161  10.222 -0.1364  0.8364  0.1224
  120MOL0     C16072  10.979   5.187  10.095 -0.0407 -0.4123  0.8826
  120MOL0     O16073  11.076   5.172   9.998 -0.8018 -0.1914  0.2527
  120MOL0     C16074  11.062   5.204   9.862  0.1840  0.8266  0.8383
  120MOL0     C16075  11.189   5.189   9.790  0.1496  0.4723  0.2348
  120MOL0     C16076  11.248   5.050   9.801 -0.6181  0.1261  0.1357
  120MOL0     C16077  11.303   5.017   9.660 -0.5729 -1.0721 -0.4966
  120MOL0     C16078  11.364   4.875   9.650  0.1481 -0.2584  0.1813
  120MOL0     C16079  11.367   4.815   9.510 -0.1491  0.2088  0.5483
  120MOL0     C16080  11.480   4.863   9.424 -0.5738 -0.1015 -0.5443
  120MOL0     C16081  11.614   4.786   9.467  0.4642 -0.7694 -0.5236
  120MOL0     N16082  11.610   4.644   9.416 -0.6320 -1.3202  0.2672
  120MOL0     C16083  11.652   4.599   9.299 -0.6979 -0.6441 -0.2259
  120MOL0     C16084  11.647   4.463   9.296  0.5615  0.9928  0.9223
  120MOL0     C16085  11.662   4.369   9.171  0.6555  0.7613  0.2920
  120MOL0     C16086  11.811   4.335   9.133  0.6711 -0.4361  0.1064
  120MOL0     C16087  11.890   4.260   9.236 -0.2794 -0.1454 -0.0862
  120MOL0     C16088  12.029   4.237   9.180 -0.2048 -0.4422  0.4178
  120MOL0     O16089  12.114   4.173   9.277  0.4408  0.0476 -0.4440
  120MOL0     C16090  12.251   4.199   9.246 -0.3110  0.5472 -0.1064
  120MOL0     C16091  12.317   4.307   9.292  0.3415 -0.0277  0.0388
  120MOL0     C16092  12.450   4.333   9.249  0.7259 -0.2040  0.1669
  120MOL0     C16093  12.492   4.468   9.296 -1.0941  0.5786  0.5461
  120MOL0     C16094  12.521   4.231   9.177 -0.3315  0.3522  0.2950
  120MOL0     C16095  12.671   4.238   9.138 -0.4054 -0.1627  0.3930
  120MOL0     O16096  12.723   4.364   9.101  0.3834  1.1903  0.1195
  120MOL0     C16097  12.851   4.372   9.054 -0.4937  1.1145  0.2738
  120MOL0     C16098  12.928   4.478   9.093 -1.0781  0.1834 -0.4067
  120MOL0     C16099  13.055   4.491   9.043 -0.5519  0.0537 -0.5191
  120MOL0     C16100  13.122   4.402   8.961  0.6277  0.2092  0.2818
  120MOL0     O16101  13.233   4.439   8.895  0.2617  0.0805 -0.5071
  120MOL0     C16102  13.356   4.435   8.972  0.4498 -0.0840  0.3472
  120MOL0     C16103  13.478   4.441   8.880 -0.5184  0.1851  1.2090
  120MOL0     C16104  13.481   4.317   8.781 -0.1854  0.5633  0.3116
  120MOL0     C16105  13.592   4.339   8.673  0.5883 -0.4802  0.5601
  120MOL0     C16106  13.556   4.277   8.535 -1.3372 -0.2424  0.0188
  120MOL0     C16107  13.521   4.125   8.533  0.0463  0.6237 -0.0624
  120MOL0     C16108  13.501   4.057   8.388  0.2902 -0.0845  0.4457
  120MOL0     C16109  13.561   3.918   8.375  0.0554 -0.5364  0.6612
  120MOL0    Cl16110  13.635   3.891   8.212  0.5789 -0.1600 -0.4226
  120MOL0     C16111  13.051   4.289   8.913 -0.2854 -0.3824 -0.4937
  120MOL0     C16112  12.911   4.282   8.953 -0.7355  0.2402 -1.3087
  120MOL0     O16113  12.733   4.136   9.123 -0.5158 -0.0911 -0.1546
  120MOL0     C16114  12.442   4.124   9.118 -0.7844 -0.0338  0.0452
  120MOL0     C16115  12.311   4.101   9.162 -0.8241  0.1137  0.0328
  120MOL0     N16116  11.619   4.421   9.425  0.1366  0.1912  0.4655
  120MOL0     N16117  11.590   4.524   9.493  0.1795 -1.3303 -0.4629
  120MOL0     C16118  10.852   5.233  10.059  0.4319 -0.0988  0.5900
  120MOL0     C16119  10.761   5.254  10.162 -0.0721  0.1389  0.3316
  120MOL0     C16120  10.579   5.433  10.524 -0.2106  0.0570 -0.4972
  120MOL0     C16121  10.551   5.331  10.615  1.0483  0.5285  1.0631
  120MOL0     C16122  10.468   5.356  10.721 -0.2610  0.2256 -0.1232
  120MOL0     C16123  10.398   5.472  10.732  0.1329 -0.4694 -0.0331
  120MOL0     O16124  10.310   5.495  10.827 -0.2345 -1.0087 -0.2570
  120MOL0     C16125  10.187   5.427  10.817 -0.2843 -0.0263 -0.3692
  120MOL0     C16126  10.089   5.525  10.882  0.2346  0.0816  0.2711
  120MOL0     C16127   9.957   5.444  10.916  0.3140 -0.5421  0.2354
  120MOL0     C16128   9.851   5.548  10.974  0.8190  0.1608 -0.1936
  120MOL0     C16129   9.714   5.485  10.947 -0.7140 -0.2920  0.1855
  120MOL0     C16130   9.597   5.487  10.919 -1.2935  0.7541  0.3484
  120MOL0     C16131  10.425   5.582  10.642  0.8699 -0.1309 -0.4365
  120MOL0     C16132  10.521   5.565  10.542  0.4522  0.2306  0.1429
  120MOL0     H16133  10.948   5.186  10.430 -2.4979  0.0021  0.7314
  120MOL0     H16134  11.117   5.135  10.245  0.4945 -0.4839 -3.5414
  120MOL0     H16135  10.989   5.136   9.818  3.1970 -2.0282 -0.1501
  120MOL0     H16136  11.029   5.307   9.847 -1.0577  1.1305  4.5770
  120MOL0     H16137  11.177   5.218   9.685  0.3403  0.6581  0.2639
  120MOL0     H16138  11.266   5.251   9.837 -1.1329  1.8549  0.6183
  120MOL0     H16139  11.329   5.037   9.874 -1.0674 -3.0652  0.2173
  120MOL0     H16140  11.169   4.982   9.832 -0.0923  0.8950  3.5320
  120MOL0     H16141  11.227   5.005   9.582  0.5642 -1.6877 -1.5531
  120MOL0     H16142  11.356   5.104   9.618 -0.8763  0.3574  1.8998
  120MOL0     H16143  11.468   4.887   9.679  1.1137 -1.9453 -2.2208
  120MOL0     H16144  11.322   4.800   9.717  1.8689  0.9701  2.7750
  120MOL0     H16145  11.386   4.708   9.514  2.1414  0.5371  0.4021
  120MOL0     H16146  11.273   4.831   9.457 -0.5716 -0.7885  0.9779
  120MOL0     H16147  11.454   4.847   9.319  0.0069 -0.4048 -0.6483
  120MOL0     H16148  11.490   4.971   9.438 -2.8079 -0.1397  2.0424
  120MOL0     H16149  11.603   4.773   9.575 -2.9200  1.2561 -0.4876
  120MOL0     H16150  11.701   4.844   9.436 -0.1594 -1.3508 -3.6928
  120MOL0     H16151  11.694   4.657   9.217 -0.3003 -0.9735 -0.2583
  120MOL0     H16152  11.607   4.277   9.196 -0.4030  0.9522 -1.1972
  120MOL0     H16153  11.595   4.407   9.093 -4.3403 -3.0052  2.1497
  120MOL0     H16154  11.863   4.430   9.118 -0.4279  0.8729  3.4699
  120MOL0     H16155  11.803   4.297   9.031  1.9749 -1.3706  0.3305
  120MOL0     H16156  11.844   4.161   9.243 -0.9589 -0.0192 -2.1369
  120MOL0     H16157  11.894   4.301   9.337  2.9583 -1.1477  0.3081
  120MOL0     H16158  12.067   4.335   9.151  0.6752 -0.9818 -0.3123
  120MOL0     H16159  12.021   4.178   9.088 -1.8483  0.0646  0.1928
  120MOL0     H16160  12.262   4.375   9.356  2.8007  0.2914  2.0030
  120MOL0     H16161  12.557   4.463   9.384 -0.4029  1.9629  0.1413
  120MOL0     H16162  12.551   4.521   9.221 -0.3142 -2.4690 -1.1583
  120MOL0     H16163  12.409   4.536   9.316 -2.2477 -0.6524  0.0696
  120MOL0     H16164  12.883   4.563   9.143 -1.5822 -0.4104  0.1592
  120MOL0     H16165  13.095   4.589   9.070 -1.6130 -0.1401  2.0942
  120MOL0     H16166  13.364   4.517   9.043 -2.2584  1.8374 -1.3658
  120MOL0     H16167  13.360   4.336   9.019  0.7469 -0.8780 -1.2707
  120MOL0     H16168  13.471   4.529   8.815  1.9847 -0.3292  0.1441
  120MOL0     H16169  13.575   4.447   8.930  0.9574 -4.4965 -0.5014
  120MOL0     H16170  13.380   4.307   8.741  0.6020 -0.3968 -1.5764
  120MOL0     H16171  13.510   4.228   8.837  0.6713  0.8666  0.3712
  120MOL0     H16172  13.614   4.444   8.652 -1.7244 -0.4239 -2.2370
  120MOL0     H16173  13.685   4.294   8.708  0.5647  0.0736  1.3604
  120MOL0     H16174  13.648   4.311   8.485 -1.4119  0.5684  0.4193
  120MOL0     H16175  13.472   4.337   8.499  0.5427  0.8955 -2.9403
  120MOL0     H16176  13.612   4.082   8.574  0.5909  0.2517 -1.5870
  120MOL0     H16177  13.444   4.104   8.608  1.3058  0.3821  1.1951
  120MOL0     H16178  13.529   4.128   8.309 -1.5017 -0.2136 -0.3471
  120MOL0     H16179  13.393   4.047   8.371  0.6160 -0.1224 -1.9143
  120MOL0     H16180  13.478   3.848   8.384 -1.3630  0.6929 -1.7768
  120MOL0     H16181  13.641   3.903   8.448  2.1504  2.7205 -0.7326
  120MOL0     H16182  13.091   4.218   8.842 -0.8186 -0.0830 -1.0958
  120MOL0     H16183  12.851   4.200   8.916 -1.6932  1.9752 -3.9223
  120MOL0     H16184  12.474   4.051   9.044 -4.2401 -2.8573  1.0657
  120MOL0     H16185  12.251   4.029   9.108 -1.6955 -2.8381  4.4876
  120MOL0     H16186  10.827   5.246   9.954 -0.3694 -0.5487  0.7223
  120MOL0     H16187  10.660   5.292  10.147 -1.3802 -3.6730 -2.0067
  120MOL0     H16188  10.608   5.240  10.607  0.6286  0.3504 -0.1430
  120MOL0     H16189  10.452   5.286  10.803  1.1506  1.1776  1.0131
  120MOL0     H16190  10.173   5.426  10.708  1.9462  0.8308 -0.7240
  120MOL0     H16191  10.188   5.325  10.856  0.3189  0.7754  1.8361
  120MOL0     H16192  10.076   5.618  10.826  4.0736  1.2743  1.0871
  120MOL0     H16193  10.139   5.558  10.973  2.7575 -0.5726 -0.8026
  120MOL0     H16194   9.986   5.374  10.994  0.5933  0.2527  0.8564
  120MOL0     H16195   9.915   5.393  10.829  1.3881  0.9176 -1.2090
  120MOL0     H16196   9.858   5.644  10.923 -1.6307  0.4308 -0.1632
  120MOL0     H16197   9.869   5.565  11.081  2.5542  3.1820 -0.8654
  120MOL0     H16198   9.493   5.497  10.894 -0.8674  3.2387 -0.8523
  120MOL0     H16199  10.348   5.656  10.663 -2.0066 -3.4780  2.0572
  120MOL0     H16200  10.541   5.645  10.472  1.6066 -1.0189 -1.0210
  121MOL0     O16201   2.379   2.681   0.838 -0.5749 -0.0438 -0.7217
  121MOL0     C16202   2.293   2.647   0.923  0.3032 -0.4626  0.2099
  121MOL0     O16203   2.185   2.716   0.969 -0.7419  0.6746  1.1436
  121MOL0     C16204   2.180   2.842   0.927 -0.3615 -0.0445 -0.0789
  121MOL0     C16205   2.046   2.879   0.884  0.4394  1.1521 -0.2358
  121MOL0     C16206   2.034   3.003   0.826 -0.9030  0.8067  0.6628
  121MOL0     C16207   2.132   3.099   0.815  0.7618  0.1509  0.7692
  121MOL0     O16208   2.110   3.208   0.738  0.5674 -0.2210  1.3748
  121MOL0     C16209   2.162   3.187   0.606  0.5810 -0.5558  0.1284
  121MOL0     C16210   2.166   3.304   0.508 -0.0786 -0.2976  0.0172
  121MOL0     C16211   2.235   3.260   0.381 -0.5333  0.1857  0.5159
  121MOL0     C16212   2.391   3.255   0.399  0.2382 -0.6538 -0.2712
  121MOL0     C16213   2.455   3.229   0.256  0.1466 -0.3186 -0.7426
  121MOL0     C16214   2.598   3.234   0.274 -0.6112 -0.4586 -0.0144
  121MOL0     C16215   2.669   3.231   0.137 -0.3813  0.6989  0.3287
  121MOL0     C16216   2.813   3.268   0.171 -0.0390  0.5764 -1.0022
  121MOL0     N16217   2.902   3.186   0.251  0.3928  0.4867  0.3274
  121MOL0     C16218   3.029   3.164   0.205  0.1366 -0.1995  0.6455
  121MOL0     C16219   3.089   3.071   0.280  0.0793 -0.2160 -0.5037
  121MOL0     C16220   3.223   3.015   0.283 -0.3730  0.6221  0.8523
  121MOL0     C16221   3.331   3.094   0.364  0.4121 -1.0250 -0.3667
  121MOL0     C16222   3.311   3.112   0.512 -0.5687  0.2281 -0.0909
  121MOL0     C16223   3.252   2.995   0.584 -0.2252 -0.7395 -0.0934
  121MOL0     O16224   3.298   2.861   0.547 -0.8553  0.5141 -0.2137
  121MOL0     C16225   3.437   2.818   0.562 -0.4501  0.8174  0.1667
  121MOL0     C16226   3.527   2.878   0.651 -0.7373 -0.4592  0.5166
  121MOL0     C16227   3.658   2.836   0.661  0.0979 -0.3542  0.4591
  121MOL0     C16228   3.748   2.902   0.765  0.0590  0.6207 -0.7326
  121MOL0     C16229   3.710   2.743   0.564 -0.0449 -0.3740 -0.7408
  121MOL0     C16230   3.852   2.683   0.563  0.3238 -0.3832  1.8020
  121MOL0     O16231   3.944   2.709   0.661 -0.1895  0.2802 -1.0143
  121MOL0     C16232   4.083   2.688   0.664  0.3268  1.3122  0.6419
  121MOL0     C16233   4.142   2.572   0.608  0.1865 -0.4474 -0.3391
  121MOL0     C16234   4.280   2.554   0.606  0.3352 -0.9545 -0.2780
  121MOL0     C16235   4.370   2.638   0.677  1.2613  0.6331  0.3537
  121MOL0     O16236   4.513   2.626   0.671 -0.3370 -0.4052  0.9613
  121MOL0     C16237   4.565   2.507   0.623 -0.1531  0.4638 -0.8749
  121MOL0     C16238   4.721   2.485   0.637 -0.3910 -0.5754  0.1331
  121MOL0     C16239   4.808   2.552   0.534  0.3581  0.1493  0.1912
  121MOL0     C16240   4.821   2.469   0.405 -0.5241  0.4361 -1.0874
  121MOL0     C16241   4.951   2.508   0.322  0.6857  0.0131 -0.1791
  121MOL0     C16242   4.993   2.388   0.244 -0.9746 -0.5501 -0.1321
  121MOL0     C16243   5.125   2.432   0.170  0.6967  0.7823 -0.5414
  121MOL0     C16244   5.158   2.321   0.061  0.4725 -0.1800  1.9551
  121MOL0    Cl16245   5.020   2.307  -0.049  0.1614  0.0092  0.0087
  121MOL0     C16246   4.308   2.742   0.749 -0.6088 -0.6397 -2.0120
  121MOL0     C16247   4.169   2.761   0.734 -0.5406 -0.4713 -0.0694
  121MOL0     O16248   3.872   2.597   0.478  0.0891 -0.3726  1.1017
  121MOL0     C16249   3.613   2.679   0.472 -0.8328 -0.4894 -0.1981
  121MOL0     C16250   3.483   2.716   0.478  0.1217  0.4507 -0.3991
  121MOL0     N16251   2.981   3.025   0.355 -0.2676  0.0771 -0.7506
  121MOL0     N16252   2.875   3.096   0.346 -0.1644 -0.0725  0.7022
  121MOL0     C16253   2.253   3.069   0.872  0.4776  1.2018 -0.4737
  121MOL0     C16254   2.278   2.942   0.923  0.6083 -0.1332  0.4648
  121MOL0     C16255   2.308   2.507   0.973  0.6426  0.8421 -0.4018
  121MOL0     C16256   2.394   2.410   0.912 -0.0371 -0.0983  0.2184
  121MOL0     C16257   2.396   2.273   0.949 -0.4142 -0.5855  0.4886
  121MOL0     C16258   2.320   2.239   1.065 -0.2523 -0.4999  0.1411
  121MOL0     O16259   2.308   2.117   1.122  0.1515 -0.4043 -0.8718
  121MOL0     C16260   2.399   2.020   1.091 -0.1631 -0.1348  0.4397
  121MOL0     C16261   2.372   1.888   1.158  0.4642 -0.0936 -0.2742
  121MOL0     C16262   2.324   1.898   1.308  0.4547  0.1156 -0.5439
  121MOL0     C16263   2.314   1.758   1.377 -0.1248 -0.3784 -0.4594
  121MOL0     C16264   2.439   1.704   1.429  0.8451 -0.2880  0.2854
  121MOL0     C16265   2.536   1.650   1.465 -0.0836 -0.2787 -0.2060
  121MOL0     C16266   2.234   2.335   1.127 -0.0758  0.7415 -0.2463
  121MOL0     C16267   2.227   2.467   1.077  0.3752  0.1113  1.2440
  121MOL0     H16268   1.961   2.811   0.883 -0.4778  2.2748 -0.8096
  121MOL0     H16269   1.936   3.029   0.788 -1.3225  0.1640  1.2856
  121MOL0     H16270   2.267   3.158   0.607  1.4900  1.9670 -3.1648
  121MOL0     H16271   2.099   3.111   0.558 -0.2844  1.6034 -2.4412
  121MOL0     H16272   2.061   3.325   0.483  0.2634 -0.6459 -1.9265
  121MOL0     H16273   2.213   3.393   0.550 -2.7388  0.8175  0.8349
  121MOL0     H16274   2.190   3.170   0.338  1.7685  0.2686 -2.2987
  121MOL0     H16275   2.229   3.347   0.315 -1.1077 -0.3392 -0.1348
  121MOL0     H16276   2.419   3.356   0.429 -1.7350  0.5875 -2.4040
  121MOL0     H16277   2.423   3.184   0.477  1.1037  0.2006  0.1797
  121MOL0     H16278   2.432   3.129   0.219 -0.2130 -1.0341  1.2764
  121MOL0     H16279   2.432   3.304   0.180  1.5644 -0.8266 -1.7067
  121MOL0     H16280   2.613   3.330   0.324  0.6525  0.0013 -1.2127
  121MOL0     H16281   2.649   3.160   0.338  4.4245  2.0573 -0.6018
  121MOL0     H16282   2.659   3.136   0.084 -1.5251  2.5125 -3.0424
  121MOL0     H16283   2.636   3.306   0.065  3.0924  0.7122 -1.4717
  121MOL0     H16284   2.806   3.371   0.207 -1.1367  0.2555 -0.2478
  121MOL0     H16285   2.862   3.272   0.073  1.5257  0.3639 -0.2623
  121MOL0     H16286   3.083   3.221   0.131 -0.6252 -0.1719  0.1019
  121MOL0     H16287   3.222   2.911   0.317 -0.7381 -0.3801 -1.9204
  121MOL0     H16288   3.254   2.985   0.182 -3.0890 -3.1190  0.9029
  121MOL0     H16289   3.345   3.193   0.319  2.5881 -1.4132 -0.6329
  121MOL0     H16290   3.430   3.051   0.344  1.3434 -0.2201  2.1896
  121MOL0     H16291   3.240   3.194   0.526 -2.1730 -1.2193  0.6323
  121MOL0     H16292   3.404   3.146   0.559 -0.1907 -0.9628  0.0663
  121MOL0     H16293   3.143   2.996   0.581 -0.2650  0.0621  0.9125
  121MOL0     H16294   3.264   3.015   0.691 -0.3289  0.9727 -0.3781
  121MOL0     H16295   3.489   2.948   0.724  3.0384  0.6823  1.6129
  121MOL0     H16296   3.712   2.989   0.819  0.5040 -1.5556  3.4847
  121MOL0     H16297   3.780   2.835   0.846 -2.4332  3.4398  2.8827
  121MOL0     H16298   3.836   2.932   0.707  0.7539  0.4661  0.2258
  121MOL0     H16299   4.072   2.503   0.564 -2.4073 -0.4238  3.3166
  121MOL0     H16300   4.316   2.463   0.560  0.5414 -1.4675  0.8466
  121MOL0     H16301   4.521   2.434   0.692 -0.3295  1.8894  0.5828
  121MOL0     H16302   4.521   2.482   0.526 -2.1212  2.0923 -0.4715
  121MOL0     H16303   4.740   2.522   0.739 -1.8437 -1.7322  0.8615
  121MOL0     H16304   4.733   2.376   0.639  0.1865 -0.5222 -0.2427
  121MOL0     H16305   4.910   2.564   0.572  0.2039 -0.5374  0.8353
  121MOL0     H16306   4.788   2.657   0.508  2.5285 -0.1813 -3.6191
  121MOL0     H16307   4.838   2.362   0.421  1.3582  0.6766 -1.2287
  121MOL0     H16308   4.734   2.484   0.341 -2.7000 -0.6715  1.4433
  121MOL0     H16309   5.040   2.534   0.381  1.8668  0.6553 -2.1629
  121MOL0     H16310   4.926   2.590   0.254  1.2857  0.3096 -0.0563
  121MOL0     H16311   5.006   2.299   0.306 -4.3006 -1.8294 -1.0661
  121MOL0     H16312   4.916   2.356   0.173  0.9897  1.0840 -3.1949
  121MOL0     H16313   5.207   2.439   0.242 -0.7899 -0.5295  1.3605
  121MOL0     H16314   5.113   2.530   0.121  0.9255  0.4241 -1.3359
  121MOL0     H16315   5.183   2.221   0.098  1.7670 -0.0263  1.5464
  121MOL0     H16316   5.249   2.344   0.005  0.4159  0.8812  2.2770
  121MOL0     H16317   4.370   2.813   0.802 -1.1487 -2.9516  2.1517
  121MOL0     H16318   4.125   2.855   0.764  0.6068 -0.0164  0.2226
  121MOL0     H16319   3.644   2.598   0.407 -2.2525 -0.0660 -1.4460
  121MOL0     H16320   3.420   2.658   0.411  1.7804 -0.8280 -0.9319
  121MOL0     H16321   2.330   3.145   0.880  0.6792  0.9706 -0.2244
  121MOL0     H16322   2.380   2.928   0.959  2.2873  1.0641 -3.2968
  121MOL0     H16323   2.435   2.435   0.814 -1.4261 -3.7351 -1.4765
  121MOL0     H16324   2.459   2.192   0.914  2.4151  1.8453 -0.3790
  121MOL0     H16325   2.388   2.007   0.983  0.7323  3.1184 -0.1352
  121MOL0     H16326   2.499   2.049   1.122  0.3960 -3.3953  2.0874
  121MOL0     H16327   2.464   1.829   1.147 -0.6015 -2.0872  0.8824
  121MOL0     H16328   2.303   1.827   1.100 -1.2784 -0.3026  1.8641
  121MOL0     H16329   2.223   1.938   1.301  0.5063  0.3706  0.0914
  121MOL0     H16330   2.389   1.967   1.364  0.0123 -0.3189  0.5289
  121MOL0     H16331   2.275   1.688   1.303  0.6224 -0.8157 -0.4565
  121MOL0     H16332   2.245   1.765   1.462  0.2204  0.4104 -0.2359
  121MOL0     H16333   2.632   1.604   1.467  0.0249 -0.0759 -0.5927
  121MOL0     H16334   2.183   2.304   1.218  0.1908  3.1200  0.8077
  121MOL0     H16335   2.148   2.530   1.116 -1.8844 -2.6693  1.4839
  122MOL0     O16336   0.661  11.382   2.890 -0.3432 -0.2459 -0.6886
  122MOL0     C16337   0.706  11.267   2.861 -0.6368  0.6609 -0.1427
  122MOL0     O16338   0.705  11.160   2.940  0.3005  0.4703  0.5545
  122MOL0     C16339   0.671  11.163   3.070  0.5191  1.1217 -1.0644
  122MOL0     C16340   0.656  11.269   3.161 -0.3577  0.5727  1.1477
  122MOL0     C16341   0.625  11.250   3.293  0.8922 -0.2323  0.2179
  122MOL0     C16342   0.617  11.131   3.355 -0.0018  0.2400  0.6291
  122MOL0     O16343   0.596  11.108   3.488  0.2940  0.9886  0.3289
  122MOL0     C16344   0.501  11.194   3.553  0.7236 -0.0062 -0.2972
  122MOL0     C16345   0.356  11.175   3.504 -0.2852  0.8009 -0.4039
  122MOL0     C16346   0.314  11.023   3.521 -0.5215  0.0117 -0.9741
  122MOL0     C16347   0.170  10.984   3.539  0.4061  0.1611  0.1468
  122MOL0     C16348   0.144  10.831   3.550 -0.5370  0.4752  0.1998
  122MOL0     C16349   0.197  10.745   3.434 -0.0461  0.1226 -0.0525
  122MOL0     C16350   0.148  10.604   3.459 -0.1736  0.2931 -0.4835
  122MOL0     C16351   0.132  10.533   3.322 -0.4813  0.0678  0.5049
  122MOL0     N16352   0.247  10.447   3.313 -0.1208  0.4321 -1.1093
  122MOL0     C16353   0.281  10.349   3.405  0.5454 -0.4168 -0.7733
  122MOL0     C16354   0.394  10.291   3.354  0.6047 -0.2700  0.3986
  122MOL0     C16355   0.460  10.173   3.415 -0.0804 -0.5498 -0.4687
  122MOL0     C16356   0.412  10.036   3.375 -0.6298  0.1848 -1.0949
  122MOL0     C16357   0.261  10.010   3.394 -0.1656  0.2593 -0.2396
  122MOL0     C16358   0.219   9.873   3.376 -0.7923 -0.0155 -0.3906
  122MOL0     O16359   0.288   9.798   3.473  0.6150  0.0209 -0.6102
  122MOL0     C16360   0.298   9.658   3.471  0.1210 -0.9744 -0.1910
  122MOL0     C16361   0.260   9.587   3.357  0.2848 -0.4706 -0.8171
  122MOL0     C16362   0.262   9.441   3.365 -0.3034 -0.1750 -0.2101
  122MOL0     C16363   0.216   9.374   3.248 -0.8312 -1.0783 -0.2399
  122MOL0     C16364   0.316   9.381   3.479  0.5511 -0.3310  0.3807
  122MOL0     C16365   0.309   9.238   3.506 -0.2772  0.1406 -0.2787
  122MOL0     O16366   0.412   9.186   3.591  0.5431 -0.0767  0.7163
  122MOL0     C16367   0.394   9.055   3.639 -0.2873 -0.4606 -1.0013
  122MOL0     C16368   0.496   8.969   3.610  0.1704  0.2164 -1.3346
  122MOL0     C16369   0.486   8.843   3.673  0.3640 -0.3590 -0.4652
  122MOL0     C16370   0.380   8.804   3.759  0.6081  0.8317 -0.3266
  122MOL0     O16371   0.360   8.682   3.815 -0.8049  0.2949  0.3304
  122MOL0     C16372   0.410   8.575   3.750 -0.1063  0.2458 -0.3187
  122MOL0     C16373   0.327   8.453   3.800 -0.0351  0.0515 -0.4303
  122MOL0     C16374   0.370   8.321   3.737  0.5656  0.6793  0.7950
  122MOL0     C16375   0.290   8.208   3.815  0.1592 -1.2334 -0.1074
  122MOL0     C16376   0.314   8.074   3.744  0.2088  0.6941 -0.5025
  122MOL0     C16377   0.253   7.959   3.828 -0.3594  0.4312 -0.5479
  122MOL0     C16378   0.296   7.814   3.802  0.2461 -0.7387  0.1745
  122MOL0     C16379   0.398   7.764   3.903 -0.7922  0.9053  0.2820
  122MOL0    Cl16380   0.566   7.815   3.857 -0.0330 -0.4256 -0.0874
  122MOL0     C16381   0.290   8.907   3.792  0.1312  1.1767  0.1234
  122MOL0     C16382   0.304   9.021   3.739  0.3549 -0.8326  0.0957
  122MOL0     O16383   0.216   9.175   3.464 -0.8216 -0.4678  0.3110
  122MOL0     C16384   0.373   9.460   3.575 -0.4136  0.5160 -0.4121
  122MOL0     C16385   0.370   9.598   3.576  0.0171  0.6228 -0.7546
  122MOL0     N16386   0.434  10.364   3.245  0.9699 -0.3960  0.0048
  122MOL0     N16387   0.336  10.451   3.212 -0.8325 -0.1438 -0.4085
  122MOL0     C16388   0.629  11.017   3.270  0.1228 -0.2403 -0.6738
  122MOL0     C16389   0.653  11.038   3.138  0.6636  0.6858  0.7282
  122MOL0     C16390   0.762  11.248   2.721 -0.0235 -0.3313 -1.1660
  122MOL0     C16391   0.849  11.148   2.682  0.1169  0.2250  0.6736
  122MOL0     C16392   0.894  11.126   2.551  0.4736  0.8129 -0.1087
  122MOL0     C16393   0.846  11.219   2.459  0.1121  0.3212 -0.3063
  122MOL0     O16394   0.883  11.206   2.329  0.3583 -0.3607 -0.0906
  122MOL0     C16395   1.007  11.145   2.287 -0.0806  0.1129 -1.2670
  122MOL0     C16396   1.066  11.195   2.148  0.6152 -0.4822 -0.4650
  122MOL0     C16397   1.081  11.345   2.137  0.4572  0.2614 -0.3650
  122MOL0     C16398   1.180  11.382   2.035 -0.7571 -0.3120 -0.6460
  122MOL0     C16399   1.313  11.326   2.070  1.1525  0.1235 -0.1831
  122MOL0     C16400   1.427  11.291   2.104  0.4007  0.3579 -0.6241
  122MOL0     C16401   0.751  11.319   2.485  0.9110 -0.3643 -0.3731
  122MOL0     C16402   0.710  11.328   2.616  1.2635  0.3769 -0.2619
  122MOL0     H16403   0.655  11.370   3.121 -1.4750  1.3874  3.0954
  122MOL0     H16404   0.621  11.336   3.359  0.5884  0.2452 -0.4194
  122MOL0     H16405   0.514  11.170   3.659  0.1240 -0.2525 -0.2803
  122MOL0     H16406   0.524  11.300   3.539  0.0700  0.2943  0.7610
  122MOL0     H16407   0.295  11.248   3.557 -0.9044  0.3810 -0.5287
  122MOL0     H16408   0.351  11.197   3.397 -2.5668  0.7033 -0.3768
  122MOL0     H16409   0.360  10.975   3.434 -2.9373 -2.0712 -1.1866
  122MOL0     H16410   0.362  10.974   3.606 -1.2127 -0.6780 -0.9720
  122MOL0     H16411   0.122  11.041   3.618 -3.1009  1.3976 -2.6076
  122MOL0     H16412   0.118  11.021   3.450  0.9735  0.5280 -0.0378
  122MOL0     H16413   0.195  10.801   3.642  3.4324  3.5660 -0.7023
  122MOL0     H16414   0.036  10.830   3.565 -0.5852  1.8898  0.0866
  122MOL0     H16415   0.169  10.791   3.339  1.8015 -0.7443 -1.0678
  122MOL0     H16416   0.307  10.745   3.430  0.1011  4.0526  0.2295
  122MOL0     H16417   0.220  10.558   3.526 -2.5385 -0.6706  1.5598
  122MOL0     H16418   0.051  10.617   3.508  1.3586 -1.0158  3.2005
  122MOL0     H16419   0.119  10.613   3.250  0.8208  1.8180  2.1243
  122MOL0     H16420   0.051  10.460   3.313 -0.6315  0.2122  0.6795
  122MOL0     H16421   0.227  10.312   3.491 -3.2131 -1.6382 -3.3650
  122MOL0     H16422   0.565  10.173   3.382 -0.7621 -3.3146 -3.0566
  122MOL0     H16423   0.470  10.181   3.523 -1.1202  3.7788 -0.5157
  122MOL0     H16424   0.455   9.968   3.449 -1.8333  1.1072  0.5339
  122MOL0     H16425   0.440  10.015   3.271  1.9882  4.2152 -1.4078
  122MOL0     H16426   0.207  10.067   3.318 -2.4033  1.5320  2.1728
  122MOL0     H16427   0.216  10.052   3.484 -0.5361 -0.3794 -0.1203
  122MOL0     H16428   0.257   9.846   3.277  4.2976 -0.0595  1.3098
  122MOL0     H16429   0.112   9.860   3.394 -0.5024 -0.1504  1.3661
  122MOL0     H16430   0.229   9.641   3.268 -1.5403  2.1079  1.2163
  122MOL0     H16431   0.116   9.332   3.257 -0.4761 -3.0151 -3.3857
  122MOL0     H16432   0.189   9.443   3.167 -1.6768 -0.6144  0.4272
  122MOL0     H16433   0.293   9.299   3.224  2.4940  0.3404  4.5366
  122MOL0     H16434   0.581   8.989   3.546  0.5697 -0.8447 -1.1517
  122MOL0     H16435   0.558   8.769   3.642  0.0039 -0.5902 -0.7645
  122MOL0     H16436   0.395   8.597   3.644 -0.1807  1.2185 -0.1131
  122MOL0     H16437   0.516   8.584   3.775  0.1781 -0.5524 -1.1703
  122MOL0     H16438   0.347   8.444   3.907  1.1110 -2.3112 -0.7786
  122MOL0     H16439   0.222   8.468   3.775 -0.4253 -3.6438 -1.6166
  122MOL0     H16440   0.478   8.308   3.748  0.8357  0.4971 -1.6533
  122MOL0     H16441   0.343   8.318   3.631  2.4479  3.3029  0.1218
  122MOL0     H16442   0.327   8.210   3.918 -1.0848  2.2659  0.4076
  122MOL0     H16443   0.181   8.222   3.820  0.4542  1.1488  2.1124
  122MOL0     H16444   0.422   8.057   3.746  0.4351  2.0497 -0.8077
  122MOL0     H16445   0.276   8.072   3.642 -1.1098 -3.3170 -0.1214
  122MOL0     H16446   0.263   7.969   3.937  2.2198  0.2573 -0.7117
  122MOL0     H16447   0.144   7.969   3.824 -0.5484 -1.7041 -1.8229
  122MOL0     H16448   0.340   7.816   3.702  0.7610  1.5684  0.3779
  122MOL0     H16449   0.213   7.743   3.805 -0.5794  0.2213  1.0007
  122MOL0     H16450   0.398   7.655   3.907  5.3874  0.2657 -3.5368
  122MOL0     H16451   0.369   7.808   3.998  1.8760  4.3046 -0.2406
  122MOL0     H16452   0.214   8.892   3.868  0.3161  5.2067  1.3926
  122MOL0     H16453   0.237   9.098   3.775 -0.2118 -2.0336  1.7099
  122MOL0     H16454   0.412   9.404   3.660  2.4505 -0.0530 -1.9888
  122MOL0     H16455   0.406   9.662   3.656  0.8874  1.2975 -1.6514
  122MOL0     H16456   0.602  10.921   3.314  0.6738 -0.4602 -0.8160
  122MOL0     H16457   0.654  10.953   3.070 -1.0838  1.1788  0.0327
  122MOL0     H16458   0.884  11.078   2.757  1.1644 -0.1618 -0.1656
  122MOL0     H16459   0.953  11.040   2.522  0.6390  0.3700  1.4521
  122MOL0     H16460   1.088  11.171   2.357 -0.7819  1.4833 -0.9281
  122MOL0     H16461   0.994  11.038   2.301 -2.8921  0.5672  0.4477
  122MOL0     H16462   0.996  11.176   2.066  0.8946  2.1446 -1.3849
  122MOL0     H16463   1.161  11.143   2.130  1.7877  0.2836  2.7824
  122MOL0     H16464   1.114  11.374   2.238  3.7610 -1.3748 -0.8210
  122MOL0     H16465   0.987  11.394   2.112 -0.0337 -0.5085 -0.0836
  122MOL0     H16466   1.197  11.490   2.039  0.9099 -0.5637 -0.1923
  122MOL0     H16467   1.147  11.365   1.932 -4.4671  4.3471 -0.5737
  122MOL0     H16468   1.524  11.255   2.134 -0.1432 -0.3499  0.3356
  122MOL0     H16469   0.701  11.383   2.414 -3.5327 -1.7129  1.1963
  122MOL0     H16470   0.650  11.414   2.641  0.1473 -1.1861  2.9747
  123MOL0     O16471   8.951  11.152  10.602 -0.4166 -0.4500  0.8689
  123MOL0     C16472   9.037  11.190  10.682  0.1645  0.6487  0.1013
  123MOL0     O16473   9.059  11.318  10.725 -0.1589  0.5658 -0.1854
  123MOL0     C16474   8.982  11.423  10.684 -0.4555  0.0013  0.3639
  123MOL0     C16475   9.049  11.543  10.693  0.5378 -0.2575 -0.5050
  123MOL0     C16476   8.980  11.659  10.669  0.9912 -0.2286  0.8775
  123MOL0     C16477   8.852  11.679  10.613  0.6154 -0.4525 -0.1921
  123MOL0     O16478   8.781  11.795  10.581 -0.0726  0.0296 -0.0847
  123MOL0     C16479   8.869  11.906  10.571  0.4777  0.2578 -0.8113
  123MOL0     C16480   8.794  12.015  10.494 -0.7988  0.0367 -0.6466
  123MOL0     C16481   8.813  12.150  10.561  0.4213 -1.0322 -0.0118
  123MOL0     C16482   8.700  12.242  10.510  1.7970 -1.2327  0.2286
  123MOL0     C16483   8.719  12.387  10.558 -0.1287 -0.3121  0.8585
  123MOL0     C16484   8.586  12.468  10.539  0.5114  0.8227  0.2373
  123MOL0     C16485   8.615  12.606  10.595 -0.7323 -0.0488 -0.1419
  123MOL0     C16486   8.497  12.695  10.624  0.1305  0.0785 -1.2776
  123MOL0     N16487   8.451  12.779  10.510  0.0992 -0.4558 -0.6085
  123MOL0     C16488   8.377  12.723  10.410 -0.1040 -0.0837  0.6419
  123MOL0     C16489   8.375  12.820  10.318 -0.3826  0.4779 -0.2361
  123MOL0     C16490   8.289  12.805  10.200 -0.7464 -0.0197  1.3032
  123MOL0     C16491   8.366  12.785  10.071  0.0405  0.1680  0.0982
  123MOL0     C16492   8.444  12.908  10.028 -0.2026  0.5639  0.5280
  123MOL0     C16493   8.566  12.878   9.929 -1.1047 -0.0667 -0.3953
  123MOL0     O16494   8.517  12.785   9.834  0.8033 -0.0077 -0.1810
  123MOL0     C16495   8.593  12.674   9.803  0.6153  0.2861 -0.1694
  123MOL0     C16496   8.528  12.544   9.830 -0.1086  0.1769  0.1152
  123MOL0     C16497   8.596  12.421   9.792  0.1520 -0.2101  0.8780
  123MOL0     C16498   8.520  12.295   9.819 -0.2643 -0.1491 -1.0422
  123MOL0     C16499   8.721  12.417   9.729 -0.5315 -0.3395 -0.6407
  123MOL0     C16500   8.797  12.299   9.673  0.0568 -0.7903 -0.0045
  123MOL0     O16501   8.919  12.319   9.617  0.5414 -0.3948 -0.1423
  123MOL0     C16502   8.985  12.211   9.579 -0.1544  1.0456  0.9552
  123MOL0     C16503   9.061  12.146   9.678  0.1756 -0.0778  0.1789
  123MOL0     C16504   9.149  12.036   9.640  0.0276  0.2461  0.2390
  123MOL0     C16505   9.153  11.979   9.512 -0.5643 -0.7074  0.5377
  123MOL0     O16506   9.225  11.868   9.485 -0.0028 -0.5460  0.5435
  123MOL0     C16507   9.270  11.837   9.347  0.5512 -0.2516  0.0811
  123MOL0     C16508   9.381  11.735   9.354 -0.3600  0.8403  0.2297
  123MOL0     C16509   9.342  11.600   9.408  0.7375 -0.1709  0.0767
  123MOL0     C16510   9.395  11.474   9.329  0.2516  0.1668  0.0488
  123MOL0     C16511   9.527  11.421   9.373 -0.3815 -0.1492  0.7933
  123MOL0     C16512   9.556  11.267   9.351  1.4632 -0.4974 -0.2157
  123MOL0     C16513   9.641  11.232   9.230 -0.1417 -0.6345 -0.1090
  123MOL0     C16514   9.776  11.294   9.225  0.3443 -0.2950 -0.4951
  123MOL0    Cl16515   9.899  11.230   9.334  0.4058  0.0920 -0.1689
  123MOL0     C16516   9.081  12.054   9.414 -0.7238 -0.2838 -0.4376
  123MOL0     C16517   9.001  12.160   9.441  0.4415 -0.5760  0.5262
  123MOL0     O16518   8.738  12.197   9.672  0.7829  0.5348  0.0482
  123MOL0     C16519   8.788  12.546   9.727 -0.1381  0.8132 -0.7385
  123MOL0     C16520   8.728  12.670   9.756  0.6436  0.8880  0.1066
  123MOL0     N16521   8.466  12.912  10.352  0.3729  0.2150  0.1845
  123MOL0     N16522   8.511  12.894  10.468 -0.4170 -0.0982  0.5122
  123MOL0     C16523   8.795  11.553  10.584  0.2046 -0.3024  0.0065
  123MOL0     C16524   8.849  11.426  10.625 -0.1831 -0.4957  0.5737
  123MOL0     C16525   9.138  11.093  10.717  0.4146 -0.5911 -0.8491
  123MOL0     C16526   9.150  10.970  10.654  0.0145 -0.6643 -0.3135
  123MOL0     C16527   9.241  10.876  10.691 -1.0498  0.7818  0.5706
  123MOL0     C16528   9.350  10.907  10.767  0.5142 -0.0113 -0.1364
  123MOL0     O16529   9.450  10.821  10.781 -0.8319 -0.1388  0.2316
  123MOL0     C16530   9.575  10.867  10.828  0.1078  0.0766 -0.3041
  123MOL0     C16531   9.671  10.750  10.805  0.0188  0.3245 -0.2315
  123MOL0     C16532   9.631  10.614  10.869 -0.2125  0.5325 -0.1996
  123MOL0     C16533   9.653  10.614  11.015 -0.1392 -0.0740 -0.4987
  123MOL0     C16534   9.564  10.506  11.078 -0.5076  0.6104  0.4220
  123MOL0     C16535   9.497  10.419  11.133 -0.1693 -0.7018  0.6519
  123MOL0     C16536   9.352  11.027  10.826  0.3922 -0.7344  0.1262
  123MOL0     C16537   9.243  11.121  10.809  0.2282 -0.3810  0.6092
  123MOL0     H16538   9.153  11.556  10.722  0.0103 -0.7200  1.8614
  123MOL0     H16539   9.047  11.744  10.671 -1.1049  1.6428 -1.5636
  123MOL0     H16540   8.879  11.943  10.673  0.8755 -2.0412  0.0305
  123MOL0     H16541   8.962  11.877  10.520  1.2194 -2.4878  1.8608
  123MOL0     H16542   8.822  12.024  10.388 -1.8153 -0.3803 -0.9565
  123MOL0     H16543   8.687  11.993  10.500 -0.9740  1.2156  0.8569
  123MOL0     H16544   8.810  12.156  10.670  1.5747  3.8643  0.0052
  123MOL0     H16545   8.908  12.187  10.520 -0.8868  2.0096 -0.5932
  123MOL0     H16546   8.687  12.240  10.401 -0.3659 -1.0817  0.4466
  123MOL0     H16547   8.605  12.210  10.555 -1.6320 -1.0652 -5.7914
  123MOL0     H16548   8.750  12.369  10.662 -1.2524 -2.6957  0.8595
  123MOL0     H16549   8.804  12.432  10.505 -0.7573  0.5174  0.5373
  123MOL0     H16550   8.557  12.464  10.434  1.3707 -1.2524  0.0327
  123MOL0     H16551   8.510  12.430  10.608  0.3804  2.5422  1.0782
  123MOL0     H16552   8.676  12.597  10.686  0.1960 -1.8787 -0.9008
  123MOL0     H16553   8.681  12.656  10.523  1.4710  0.2791  1.9756
  123MOL0     H16554   8.516  12.754  10.714 -0.4933 -1.0404 -0.3931
  123MOL0     H16555   8.419  12.626  10.657  0.4102 -0.5043 -1.8247
  123MOL0     H16556   8.321  12.630  10.407 -1.7400  0.8748 -1.6228
  123MOL0     H16557   8.216  12.724  10.206  0.7081 -1.6410 -1.0016
  123MOL0     H16558   8.230  12.897  10.198 -0.7190 -0.0061  0.8374
  123MOL0     H16559   8.290  12.769   9.994  0.3277 -1.4717  0.1207
  123MOL0     H16560   8.429  12.696  10.077  0.7282  0.5983 -0.5942
  123MOL0     H16561   8.485  12.958  10.116  0.4459 -0.4104  0.7892
  123MOL0     H16562   8.373  12.977   9.980 -2.0385 -1.1335  0.6701
  123MOL0     H16563   8.642  12.844  10.000  0.2131  1.5081 -0.9844
  123MOL0     H16564   8.610  12.962   9.875 -0.6113 -1.8999 -3.0659
  123MOL0     H16565   8.436  12.543   9.887  0.8527  1.2689  1.7671
  123MOL0     H16566   8.556  12.241   9.907 -1.0410  0.2395 -0.4750
  123MOL0     H16567   8.417  12.322   9.845 -0.7579 -2.4699 -0.3236
  123MOL0     H16568   8.515  12.227   9.734  1.6300 -3.1059  0.9953
  123MOL0     H16569   9.046  12.171   9.782  3.0442 -2.6212  1.3560
  123MOL0     H16570   9.206  11.985   9.718  2.3654 -1.4220 -2.3602
  123MOL0     H16571   9.183  11.799   9.293  0.2628  3.0000 -2.0051
  123MOL0     H16572   9.300  11.924   9.288 -1.7750  1.4668  1.2995
  123MOL0     H16573   9.416  11.724   9.251 -0.1527  3.2954 -0.0238
  123MOL0     H16574   9.466  11.768   9.415 -1.6053 -1.0284  3.1595
  123MOL0     H16575   9.233  11.598   9.420  0.7096  1.6950  0.3861
  123MOL0     H16576   9.392  11.597   9.505  1.0695 -0.4651 -0.0984
  123MOL0     H16577   9.314  11.403   9.350  2.2446 -1.7205  1.8170
  123MOL0     H16578   9.397  11.505   9.224  2.5749  0.7962  0.2305
  123MOL0     H16579   9.519  11.443   9.479  2.0174  1.2250  0.7656
  123MOL0     H16580   9.618  11.480   9.357 -1.1036  0.7185 -0.3514
  123MOL0     H16581   9.594  11.220   9.442 -1.5657 -1.3555  0.7212
  123MOL0     H16582   9.463  11.212   9.337  0.6135  1.5609 -3.9175
  123MOL0     H16583   9.581  11.265   9.144 -1.9427  1.2635  1.7523
  123MOL0     H16584   9.655  11.124   9.225 -2.1831 -0.9257 -0.4745
  123MOL0     H16585   9.775  11.403   9.227  0.0693 -0.1172 -4.1622
  123MOL0     H16586   9.827  11.269   9.131 -0.1547 -0.5353 -0.7037
  123MOL0     H16587   9.098  12.008   9.317  3.3860  0.6259 -0.3439
  123MOL0     H16588   8.964  12.223   9.360  1.6844  1.9454  1.7875
  123MOL0     H16589   8.889  12.548   9.687  0.8896  0.1988  1.6145
  123MOL0     H16590   8.785  12.758   9.727  1.0073  0.5650 -0.1711
  123MOL0     H16591   8.694  11.562  10.545  1.0025 -0.6538 -2.2534
  123MOL0     H16592   8.797  11.333  10.608 -3.8796  1.2404  1.3620
  123MOL0     H16593   9.076  10.938  10.581 -1.7163  3.4511 -0.6412
  123MOL0     H16594   9.241  10.775  10.651  1.3481  1.0152 -0.1898
  123MOL0     H16595   9.598  10.956  10.768 -1.4061  1.8516  1.5746
  123MOL0     H16596   9.575  10.889  10.935 -0.2778  0.1313 -0.3130
  123MOL0     H16597   9.765  10.789  10.845 -1.1872  1.9538  1.1263
  123MOL0     H16598   9.678  10.730  10.697 -0.2939 -6.0183  0.5304
  123MOL0     H16599   9.708  10.543  10.835  0.3195 -0.0892  2.1471
  123MOL0     H16600   9.535  10.577  10.833  1.1315 -1.0008 -2.5399
  123MOL0     H16601   9.620  10.711  11.052 -1.1239  0.3203 -2.2643
  123MOL0     H16602   9.759  10.604  11.041 -0.3056  1.0606  0.7088
  123MOL0     H16603   9.429  10.356  11.188 -1.8620  0.9166  0.5276
  123MOL0     H16604   9.436  11.056  10.889  0.5246  0.0657 -0.4135
  123MOL0     H16605   9.269  11.215  10.857  4.9238 -2.4418  2.7022
  124MOL0     O16606   1.687   0.442   0.456 -0.0510  0.4440 -0.8801
  124MOL0     C16607   1.699   0.522   0.368  0.0330  0.4237 -0.0186
  124MOL0     O16608   1.669   0.500   0.237 -0.1858  0.1227  0.1192
  124MOL0     C16609   1.643   0.374   0.193 -0.2415 -0.3828 -1.4339
  124MOL0     C16610   1.523   0.310   0.238 -0.2067  0.4736  0.9620
  124MOL0     C16611   1.495   0.190   0.185  0.3194  0.4747  0.2330
  124MOL0     C16612   1.565   0.130   0.085 -0.0873  0.0094 -0.3008
  124MOL0     O16613   1.526   0.005   0.052  0.2503  0.2730 -0.3869
  124MOL0     C16614   1.618  -0.073  -0.019 -0.2066  0.9065 -0.0106
  124MOL0     C16615   1.577  -0.205  -0.076 -0.0196 -0.1376  0.3998
  124MOL0     C16616   1.697  -0.298  -0.099 -0.0034  0.0156  0.4178
  124MOL0     C16617   1.661  -0.442  -0.126  1.1548  0.5811  0.1568
  124MOL0     C16618   1.787  -0.537  -0.116  0.4985 -0.0800 -0.0458
  124MOL0     C16619   1.832  -0.572   0.038  0.0304 -0.1111  0.8123
  124MOL0     C16620   1.936  -0.695   0.040 -0.3599 -0.0108 -1.2997
  124MOL0     C16621   1.870  -0.821   0.115  0.1586  0.3011  1.1957
  124MOL0     N16622   1.970  -0.915   0.161  0.5812 -0.5994 -0.4742
  124MOL0     C16623   2.080  -0.949   0.081 -0.2394  1.4074  0.2986
  124MOL0     C16624   2.159  -1.010   0.174  0.4359 -0.4986  0.2728
  124MOL0     C16625   2.296  -1.071   0.164  0.5866  0.1329  0.6428
  124MOL0     C16626   2.292  -1.223   0.140 -0.6029 -0.3063  0.7097
  124MOL0     C16627   2.275  -1.299   0.263 -0.8351 -0.7566  0.2400
  124MOL0     C16628   2.415  -1.331   0.336  0.1963  0.1932  0.5946
  124MOL0     O16629   2.476  -1.456   0.294  0.4787  0.7921  0.1983
  124MOL0     C16630   2.410  -1.564   0.351  0.4495 -0.6769 -0.3427
  124MOL0     C16631   2.424  -1.596   0.486  1.3701  0.1528  0.1401
  124MOL0     C16632   2.354  -1.700   0.544 -1.4573 -0.2461  0.4848
  124MOL0     C16633   2.341  -1.712   0.694  1.2235 -0.8208  0.6862
  124MOL0     C16634   2.292  -1.789   0.455 -1.1354  0.3723  0.7926
  124MOL0     C16635   2.226  -1.913   0.495  1.2685  0.4598  1.1694
  124MOL0     O16636   2.099  -1.915   0.454  0.1555 -0.5235  0.2386
  124MOL0     C16637   2.005  -1.990   0.519 -0.5685 -0.6549 -0.3321
  124MOL0     C16638   2.017  -2.127   0.530 -0.1200 -0.3819 -0.4611
  124MOL0     C16639   1.916  -2.206   0.588 -0.1395  0.1775  0.0335
  124MOL0     C16640   1.795  -2.143   0.630  0.0471 -0.0201 -0.1577
  124MOL0     O16641   1.700  -2.218   0.693  0.6989  0.0328  0.1314
  124MOL0     C16642   1.589  -2.151   0.758 -0.5040  0.5801 -0.3763
  124MOL0     C16643   1.581  -2.230   0.892 -0.5274 -0.5834  1.1229
  124MOL0     C16644   1.713  -2.222   0.970  0.2174 -0.1132  0.1011
  124MOL0     C16645   1.738  -2.071   0.993 -0.2952  0.0055  0.0698
  124MOL0     C16646   1.848  -2.035   1.098 -0.4651  0.0973 -0.7891
  124MOL0     C16647   1.805  -2.073   1.246 -0.0881  0.0990  0.3214
  124MOL0     C16648   1.912  -2.033   1.349  1.0194 -0.3138 -1.0485
  124MOL0     C16649   1.863  -2.040   1.495 -1.2988  0.5574 -0.5073
  124MOL0    Cl16650   1.999  -2.017   1.604 -0.2999  0.5207 -0.1804
  124MOL0     C16651   1.775  -2.002   0.615 -0.6645  0.5596 -0.6150
  124MOL0     C16652   1.889  -1.936   0.574  0.0740  0.6205 -0.1051
  124MOL0     O16653   2.279  -2.001   0.563  0.3806  0.3789  0.3640
  124MOL0     C16654   2.287  -1.765   0.320  0.1042 -0.7557  0.5094
  124MOL0     C16655   2.342  -1.650   0.264 -1.4812  0.3695 -1.0334
  124MOL0     N16656   2.101  -1.019   0.298 -0.3207 -0.3823  0.0243
  124MOL0     N16657   1.997  -0.941   0.295 -0.5620 -0.3128  0.2977
  124MOL0     C16658   1.681   0.201   0.036 -1.3916  1.4247  0.0008
  124MOL0     C16659   1.722   0.323   0.097  0.4205  0.9885  0.8418
  124MOL0     C16660   1.747   0.656   0.412 -0.5318 -1.3959 -0.9375
  124MOL0     C16661   1.764   0.746   0.312  0.2982  0.1467 -0.1307
  124MOL0     C16662   1.792   0.878   0.349  0.5219 -1.4878 -0.7529
  124MOL0     C16663   1.821   0.920   0.480 -0.4435  0.3833  0.8004
  124MOL0     O16664   1.859   1.049   0.523  0.2639 -0.4526 -0.2159
  124MOL0     C16665   1.734   1.106   0.581  0.7594  0.3584  1.4023
  124MOL0     C16666   1.746   1.250   0.628  0.5891  0.0264  0.0146
  124MOL0     C16667   1.608   1.308   0.681 -0.6246  0.0965 -0.4076
  124MOL0     C16668   1.555   1.250   0.809 -0.5165 -0.0748 -0.9040
  124MOL0     C16669   1.661   1.265   0.919 -0.2942 -0.7861  0.3312
  124MOL0     C16670   1.757   1.283   0.997  0.3794 -0.8623  0.4785
  124MOL0     C16671   1.830   0.809   0.577  0.0860 -1.1146  0.1508
  124MOL0     C16672   1.788   0.685   0.548 -0.5872 -1.0862  0.3687
  124MOL0     H16673   1.456   0.345   0.316  0.7341  2.5695  0.8923
  124MOL0     H16674   1.403   0.144   0.220  1.1514 -1.3403  0.0962
  124MOL0     H16675   1.639  -0.012  -0.107 -4.9356  0.8235 -1.5203
  124MOL0     H16676   1.701  -0.093   0.050 -2.5347  0.4982  2.9277
  124MOL0     H16677   1.524  -0.270  -0.006  3.3380 -2.6672  0.7935
  124MOL0     H16678   1.528  -0.194  -0.173  3.3778 -0.6835 -1.5282
  124MOL0     H16679   1.745  -0.273  -0.194 -0.4242  0.4165  0.3109
  124MOL0     H16680   1.763  -0.289  -0.012  0.2539  0.8389  0.1455
  124MOL0     H16681   1.587  -0.469  -0.050 -1.0907 -0.3887 -2.2292
  124MOL0     H16682   1.600  -0.459  -0.215  0.8801 -0.5468  0.5418
  124MOL0     H16683   1.758  -0.632  -0.161  0.6156  1.0154 -2.5935
  124MOL0     H16684   1.869  -0.491  -0.172 -0.2241 -0.8639 -1.7977
  124MOL0     H16685   1.883  -0.487   0.084  1.1302 -1.0077  1.2667
  124MOL0     H16686   1.740  -0.593   0.093 -0.5386  1.6009  0.5960
  124MOL0     H16687   1.974  -0.719  -0.060  0.1348 -1.5717 -0.7575
  124MOL0     H16688   2.018  -0.660   0.103  1.4355 -0.6468 -3.1751
  124MOL0     H16689   1.810  -0.877   0.044 -0.5323  0.3736  1.7122
  124MOL0     H16690   1.808  -0.788   0.199 -0.8947 -1.2821  1.0650
  124MOL0     H16691   2.112  -0.918  -0.018  2.6892  1.5244  1.2023
  124MOL0     H16692   2.351  -1.020   0.084  0.2367  0.2968  0.5050
  124MOL0     H16693   2.356  -1.043   0.251  0.9605  3.3336 -0.5154
  124MOL0     H16694   2.388  -1.241   0.090  1.9401  4.6528  2.9984
  124MOL0     H16695   2.210  -1.249   0.073  1.3755 -2.1315 -1.2019
  124MOL0     H16696   2.232  -1.398   0.247 -1.2899 -1.0102  2.6878
  124MOL0     H16697   2.206  -1.245   0.327  1.5604 -0.4792  2.7653
  124MOL0     H16698   2.400  -1.329   0.444  3.5106  0.2756  1.1474
  124MOL0     H16699   2.475  -1.248   0.297  1.6118 -0.6115  0.9721
  124MOL0     H16700   2.464  -1.515   0.546  1.8060 -0.2266  0.3705
  124MOL0     H16701   2.434  -1.753   0.735  1.3297 -1.1876  0.1056
  124MOL0     H16702   2.329  -1.614   0.740  1.4950  0.8840 -2.5922
  124MOL0     H16703   2.259  -1.781   0.716  1.3800 -1.0911  0.4385
  124MOL0     H16704   2.111  -2.180   0.513 -0.1212 -1.1821  1.6607
  124MOL0     H16705   1.930  -2.313   0.596  5.3081  0.7189  2.1079
  124MOL0     H16706   1.593  -2.043   0.771 -3.0404  0.4988  2.2393
  124MOL0     H16707   1.501  -2.181   0.700 -0.1887  0.7880 -0.9685
  124MOL0     H16708   1.497  -2.196   0.954 -1.3536 -0.5851  0.0187
  124MOL0     H16709   1.557  -2.334   0.867 -0.2717 -0.3817  0.0113
  124MOL0     H16710   1.798  -2.256   0.911 -1.5134 -2.7237 -1.0556
  124MOL0     H16711   1.696  -2.261   1.071  0.5683  1.3657  0.7722
  124MOL0     H16712   1.758  -2.010   0.904 -0.0346  1.1969  0.9243
  124MOL0     H16713   1.651  -2.027   1.041 -0.1550  0.0747  0.2637
  124MOL0     H16714   1.866  -1.928   1.090 -1.4479  0.2823 -0.6442
  124MOL0     H16715   1.937  -2.094   1.072  0.8827  0.9114  1.7142
  124MOL0     H16716   1.716  -2.017   1.275  0.5699  0.6017  1.4697
  124MOL0     H16717   1.778  -2.179   1.253  4.3116 -1.4403 -2.0910
  124MOL0     H16718   1.943  -1.931   1.324 -0.9126 -0.4769 -4.8066
  124MOL0     H16719   2.001  -2.096   1.341  0.8881 -1.0717  2.1812
  124MOL0     H16720   1.815  -2.136   1.516 -0.2448 -0.4278 -2.2771
  124MOL0     H16721   1.792  -1.962   1.521 -0.4708  1.5711 -1.2207
  124MOL0     H16722   1.695  -1.936   0.647  0.7045  1.5080  1.0299
  124MOL0     H16723   1.871  -1.828   0.575 -0.1801  0.5885 -0.7510
  124MOL0     H16724   2.236  -1.834   0.253  1.1555 -1.3930  0.3552
  124MOL0     H16725   2.340  -1.630   0.157 -4.2256 -2.4062 -1.6369
  124MOL0     H16726   1.737   0.154  -0.043 -0.9648  2.8901 -0.5943
  124MOL0     H16727   1.805   0.384   0.064  1.2839 -1.6149 -2.4517
  124MOL0     H16728   1.748   0.731   0.206 -1.4245  1.9637 -0.2057
  124MOL0     H16729   1.787   0.955   0.273  1.2167 -0.0637  0.6104
  124MOL0     H16730   1.667   1.111   0.495  1.4604  3.3300  0.9013
  124MOL0     H16731   1.696   1.040   0.659 -2.3370 -0.1060 -0.3386
  124MOL0     H16732   1.774   1.319   0.548  0.5700  1.5820  1.2915
  124MOL0     H16733   1.827   1.251   0.702 -0.1073  0.0099  0.7838
  124MOL0     H16734   1.538   1.295   0.598  1.9877 -1.1841 -2.5778
  124MOL0     H16735   1.613   1.417   0.688 -1.1905  0.0290  2.5824
  124MOL0     H16736   1.540   1.142   0.812  6.5813 -1.5684  0.4413
  124MOL0     H16737   1.462   1.299   0.838 -0.7222 -0.9777  0.0275
  124MOL0     H16738   1.850   1.287   1.051  0.2700 -3.0242  0.9258
  124MOL0     H16739   1.869   0.820   0.678  0.6095 -0.1734 -0.1477
  124MOL0     H16740   1.777   0.607   0.623 -2.7133 -1.2803 -0.0974
  125MOL0     O16741   7.244   1.949   2.131  0.0039 -0.6119  0.0205
  125MOL0     C16742   7.255   1.966   2.006 -0.1571  0.6977 -0.1064
  125MOL0     O16743   7.220   2.079   1.937  0.5675  0.3592  0.3645
  125MOL0     C16744   7.214   2.207   1.978 -0.6778 -0.5328  0.1238
  125MOL0     C16745   7.213   2.245   2.118  0.0649 -0.4197  0.0239
  125MOL0     C16746   7.208   2.381   2.144 -0.7613 -0.9283 -1.0801
  125MOL0     C16747   7.208   2.473   2.040  0.9618 -0.1620 -0.0821
  125MOL0     O16748   7.212   2.604   2.059  0.1537 -0.2502  0.4980
  125MOL0     C16749   7.195   2.678   2.182 -0.2156 -0.0806 -0.0146
  125MOL0     C16750   7.323   2.693   2.283 -0.9720  0.0623  0.2813
  125MOL0     C16751   7.434   2.763   2.210  0.7983 -0.0065 -0.4503
  125MOL0     C16752   7.557   2.810   2.292  0.2459 -0.5585  1.7566
  125MOL0     C16753   7.678   2.872   2.213 -0.9995  0.9308 -0.6579
  125MOL0     C16754   7.753   2.970   2.308 -0.3750  0.1130 -0.3315
  125MOL0     C16755   7.875   2.902   2.372 -0.4153  0.8962 -0.0011
  125MOL0     C16756   7.950   2.981   2.471 -0.1965 -0.3822  0.0176
  125MOL0     N16757   7.866   3.006   2.588 -0.6967  0.0505 -0.3571
  125MOL0     C16758   7.796   3.115   2.633  0.8537  0.0979  0.4855
  125MOL0     C16759   7.708   3.065   2.722 -0.1199  0.7265 -0.3289
  125MOL0     C16760   7.609   3.124   2.820  0.2222  0.5804 -0.1435
  125MOL0     C16761   7.551   3.259   2.796  0.1806 -1.1086  0.4812
  125MOL0     C16762   7.436   3.246   2.694  0.2668  0.3009  0.7495
  125MOL0     C16763   7.399   3.378   2.623  0.0603  0.6613 -0.2270
  125MOL0     O16764   7.518   3.439   2.554  0.0222  0.8296 -0.1566
  125MOL0     C16765   7.580   3.380   2.447  0.6912  0.3389 -0.4830
  125MOL0     C16766   7.505   3.329   2.344  0.1948  0.3099  0.3847
  125MOL0     C16767   7.573   3.292   2.225  0.2592  0.9056  0.6957
  125MOL0     C16768   7.481   3.235   2.125  0.5875 -0.9653 -0.2485
  125MOL0     C16769   7.717   3.313   2.217  0.6347 -0.0404 -0.8839
  125MOL0     C16770   7.790   3.281   2.098  0.0294 -0.1292 -0.4750
  125MOL0     O16771   7.731   3.233   1.989  0.3925  0.3465  0.4429
  125MOL0     C16772   7.813   3.190   1.880  0.4626  0.0609 -0.2037
  125MOL0     C16773   7.805   3.051   1.841  0.4433 -0.0883  0.2213
  125MOL0     C16774   7.880   2.998   1.741 -0.2318 -1.1682  0.5166
  125MOL0     C16775   7.963   3.080   1.667  0.2415  1.1976 -0.3238
  125MOL0     O16776   8.028   3.016   1.556 -0.0994  0.2918  0.4749
  125MOL0     C16777   8.154   3.069   1.505  0.8171  0.2389 -1.1143
  125MOL0     C16778   8.282   2.982   1.486 -0.8668  0.8764  0.3207
  125MOL0     C16779   8.251   2.865   1.386  1.1842 -0.4372  0.6591
  125MOL0     C16780   8.354   2.870   1.273 -0.6292  0.4235  0.5213
  125MOL0     C16781   8.304   2.948   1.148 -0.4788 -0.3331 -0.3358
  125MOL0     C16782   8.182   2.889   1.076  0.9451 -0.1941  0.9716
  125MOL0     C16783   8.172   2.973   0.951 -0.5874  0.1543 -0.4765
  125MOL0     C16784   8.069   2.921   0.853  0.1666 -0.0646  1.1078
  125MOL0    Cl16785   8.141   2.823   0.723 -0.6639  0.1208 -0.2860
  125MOL0     C16786   7.965   3.221   1.699 -0.8910  0.5307  0.2411
  125MOL0     C16787   7.895   3.278   1.812  0.3812  0.1242 -0.0827
  125MOL0     O16788   7.915   3.289   2.110  0.8988 -0.1764  0.8111
  125MOL0     C16789   7.787   3.350   2.340  0.2597  0.0905  0.3916
  125MOL0     C16790   7.714   3.400   2.448  0.0699  0.1070 -0.1124
  125MOL0     N16791   7.734   2.933   2.753 -0.3719  0.0932 -0.1650
  125MOL0     N16792   7.837   2.904   2.674 -0.3341  0.3534  0.6498
  125MOL0     C16793   7.208   2.428   1.905  0.7319 -0.3961  0.6518
  125MOL0     C16794   7.208   2.298   1.872 -0.8177  1.0192 -1.1307
  125MOL0     C16795   7.315   1.863   1.914  0.1407  0.4803  0.2752
  125MOL0     C16796   7.311   1.885   1.774 -0.9128  0.5184 -0.2995
  125MOL0     C16797   7.371   1.787   1.693  0.4148 -0.7563 -0.5776
  125MOL0     C16798   7.432   1.683   1.754  0.9775  0.9190  0.1981
  125MOL0     O16799   7.483   1.583   1.672 -0.3684 -0.9985  0.2071
  125MOL0     C16800   7.628   1.581   1.665  0.3417 -0.5497 -0.0117
  125MOL0     C16801   7.706   1.704   1.612  0.1149 -0.9094  0.0623
  125MOL0     C16802   7.855   1.677   1.615 -0.3903  0.3593  0.3455
  125MOL0     C16803   7.930   1.796   1.555  0.2035 -0.0066 -0.3430
  125MOL0     C16804   8.080   1.780   1.570 -0.0424 -0.5832 -0.0755
  125MOL0     C16805   8.190   1.748   1.573 -0.5511  0.0372 -0.5224
  125MOL0     C16806   7.443   1.663   1.888  0.4119 -0.0209  1.1009
  125MOL0     C16807   7.381   1.757   1.967  0.7681 -0.4518 -0.1106
  125MOL0     H16808   7.238   2.178   2.200  0.3400 -2.2883 -1.4957
  125MOL0     H16809   7.187   2.431   2.237 -1.5681  3.3805 -3.3267
  125MOL0     H16810   7.164   2.780   2.155  3.0041  1.4225  1.4313
  125MOL0     H16811   7.112   2.636   2.240 -0.0850  1.0132  1.0054
  125MOL0     H16812   7.295   2.751   2.371 -1.7783  1.9341 -1.1258
  125MOL0     H16813   7.358   2.599   2.325 -0.0147 -0.4121 -1.4697
  125MOL0     H16814   7.455   2.696   2.126 -2.0451  0.2649 -1.4902
  125MOL0     H16815   7.377   2.851   2.180  1.3256  0.4614 -0.0912
  125MOL0     H16816   7.518   2.893   2.352  0.6676 -0.5779  2.0644
  125MOL0     H16817   7.598   2.733   2.359  1.7885 -1.5730 -0.2239
  125MOL0     H16818   7.753   2.799   2.180 -0.6850 -0.6902  3.1070
  125MOL0     H16819   7.646   2.944   2.137 -0.1447 -0.5232 -2.4735
  125MOL0     H16820   7.792   3.060   2.259  1.0662  0.1947  0.8952
  125MOL0     H16821   7.683   3.004   2.385 -2.6924 -3.4863 -0.6563
  125MOL0     H16822   7.857   2.806   2.421  3.2246  0.5917  1.0383
  125MOL0     H16823   7.944   2.867   2.296  0.4632  2.8680 -0.1623
  125MOL0     H16824   7.997   3.073   2.435  2.5919 -0.4284  3.0972
  125MOL0     H16825   8.036   2.920   2.500  1.5867  1.3165 -1.3954
  125MOL0     H16826   7.803   3.217   2.597  1.0233 -0.9019 -2.5510
  125MOL0     H16827   7.530   3.050   2.836 -0.9640  1.8301  0.0217
  125MOL0     H16828   7.670   3.127   2.911  0.9646  0.1658 -0.6258
  125MOL0     H16829   7.633   3.321   2.757 -0.8150  0.2553  0.4840
  125MOL0     H16830   7.518   3.309   2.887 -1.4405  0.2121 -0.7759
  125MOL0     H16831   7.346   3.214   2.748 -1.9352  5.6575  0.9829
  125MOL0     H16832   7.466   3.180   2.613 -3.0555  1.5999 -1.7661
  125MOL0     H16833   7.371   3.450   2.701  2.1671  3.4435 -1.8208
  125MOL0     H16834   7.310   3.361   2.561 -2.3824 -1.7045  3.5528
  125MOL0     H16835   7.397   3.323   2.359  0.2765 -0.2083  0.7815
  125MOL0     H16836   7.525   3.169   2.050 -1.2566 -0.8494 -1.4870
  125MOL0     H16837   7.398   3.173   2.160 -0.3363  0.6332  0.4964
  125MOL0     H16838   7.444   3.329   2.084  0.1073 -0.5198  1.1367
  125MOL0     H16839   7.730   2.997   1.897 -0.7481  1.2959  0.0090
  125MOL0     H16840   7.886   2.890   1.725  0.5516 -1.2358  1.1774
  125MOL0     H16841   8.133   3.098   1.402 -0.1074  0.4994 -0.8578
  125MOL0     H16842   8.188   3.150   1.572 -0.4763 -1.2317  1.4689
  125MOL0     H16843   8.360   3.052   1.455 -0.2535  1.2431  2.4920
  125MOL0     H16844   8.317   2.941   1.581 -0.4503  1.0503  0.2470
  125MOL0     H16845   8.147   2.874   1.353  1.2955  0.8703  0.6017
  125MOL0     H16846   8.279   2.770   1.431 -0.2231 -1.5509 -0.7421
  125MOL0     H16847   8.443   2.918   1.314  0.1464  3.0572 -3.6313
  125MOL0     H16848   8.386   2.770   1.242 -0.7731  0.1710  1.1744
  125MOL0     H16849   8.396   2.964   1.092  1.4135  0.1348  2.6490
  125MOL0     H16850   8.278   3.050   1.178 -3.8938 -0.5391 -2.1507
  125MOL0     H16851   8.208   2.784   1.062  0.1487 -0.4877  1.5815
  125MOL0     H16852   8.087   2.894   1.130  1.0588  0.3271  1.1284
  125MOL0     H16853   8.270   2.992   0.906 -0.1048  1.4866  1.0696
  125MOL0     H16854   8.128   3.068   0.982 -0.0590 -0.2058  1.5237
  125MOL0     H16855   7.991   2.988   0.817 -1.0594 -1.9549  0.0500
  125MOL0     H16856   8.002   2.852   0.905 -1.5693  1.1062  0.5493
  125MOL0     H16857   8.034   3.287   1.646 -0.8701  1.8308  1.7991
  125MOL0     H16858   7.906   3.384   1.833  0.5862 -0.0805  0.8791
  125MOL0     H16859   7.895   3.356   2.336  0.1412  2.7985 -1.0693
  125MOL0     H16860   7.768   3.450   2.529  1.4817 -2.1868  0.4607
  125MOL0     H16861   7.195   2.501   1.826  4.5303  0.0825  0.2959
  125MOL0     H16862   7.216   2.260   1.770  4.5212 -0.1403 -0.5880
  125MOL0     H16863   7.263   1.974   1.734 -0.5999  2.1278  2.5767
  125MOL0     H16864   7.373   1.795   1.585  2.6675 -0.7007 -0.5794
  125MOL0     H16865   7.668   1.561   1.765  1.1876 -0.3427 -0.3051
  125MOL0     H16866   7.647   1.493   1.603 -1.6637 -2.9508  2.5195
  125MOL0     H16867   7.691   1.796   1.668  2.5860  0.7753 -1.8325
  125MOL0     H16868   7.668   1.719   1.510  1.8299 -1.5605 -0.7091
  125MOL0     H16869   7.882   1.585   1.563 -2.5102  1.3957 -2.8871
  125MOL0     H16870   7.879   1.652   1.719  0.8525  2.8434  0.7378
  125MOL0     H16871   7.912   1.894   1.602  2.8934  1.0028 -1.2499
  125MOL0     H16872   7.899   1.807   1.451  0.0551  2.9013 -0.0940
  125MOL0     H16873   8.293   1.720   1.582 -0.5913  0.3930  1.3239
  125MOL0     H16874   7.505   1.583   1.927 -1.1372 -1.0987  1.4065
  125MOL0     H16875   7.399   1.757   2.074  2.1548 -0.6345 -0.3206
  126MOL0     O16876   8.411   6.563   1.933 -0.5050  0.2002 -0.1557
  126MOL0     C16877   8.349   6.455   1.959 -1.0764  0.7134 -0.3866
  126MOL0     O16878   8.381   6.333   1.898 -0.0526  0.3834 -0.2646
  126MOL0     C16879   8.443   6.330   1.783  0.3552  0.4239 -0.3460
  126MOL0     C16880   8.579   6.378   1.777  0.4601  0.0306  0.9045
  126MOL0     C16881   8.642   6.385   1.648  0.4930  0.5942  0.0835
  126MOL0     C16882   8.566   6.350   1.528  0.0701 -0.8546 -0.4677
  126MOL0     O16883   8.618   6.351   1.402  0.2480  0.2964  0.5426
  126MOL0     C16884   8.753   6.388   1.371  1.7674 -0.1174 -0.0061
  126MOL0     C16885   8.779   6.344   1.222 -0.0637  0.4266 -0.1432
  126MOL0     C16886   8.740   6.431   1.100 -0.2824 -0.1653  0.1990
  126MOL0     C16887   8.859   6.450   1.001  1.0318  0.4284 -0.4404
  126MOL0     C16888   8.856   6.360   0.885 -0.4171  1.4372  0.4767
  126MOL0     C16889   8.730   6.370   0.797 -0.3925  0.1643  0.4577
  126MOL0     C16890   8.741   6.279   0.676  0.2544 -0.1768 -0.3945
  126MOL0     C16891   8.607   6.263   0.596 -0.3442 -0.3691 -0.3322
  126MOL0     N16892   8.579   6.400   0.544  0.0384 -0.3851  0.7585
  126MOL0     C16893   8.624   6.453   0.423 -0.2385 -0.1238 -0.0772
  126MOL0     C16894   8.542   6.555   0.406  0.4935 -0.5719 -0.6334
  126MOL0     C16895   8.552   6.654   0.299 -0.7018  0.6942  0.4037
  126MOL0     C16896   8.458   6.614   0.187  1.1910 -0.6843 -0.0991
  126MOL0     C16897   8.308   6.629   0.208 -0.1248 -0.3791 -0.3253
  126MOL0     C16898   8.229   6.553   0.106 -0.7064 -1.2484 -0.4334
  126MOL0     O16899   8.206   6.414   0.130  0.6681  0.2953 -0.0400
  126MOL0     C16900   8.094   6.361   0.067  1.1622 -0.2809 -0.6006
  126MOL0     C16901   8.049   6.395  -0.063  0.2635 -0.5895 -0.0377
  126MOL0     C16902   7.936   6.331  -0.127 -0.1622  0.2310  0.1802
  126MOL0     C16903   7.903   6.373  -0.274  0.0703 -0.6983 -0.3311
  126MOL0     C16904   7.869   6.226  -0.057  0.0875  0.5206  0.0030
  126MOL0     C16905   7.736   6.175  -0.106 -0.2438  0.8218 -1.1784
  126MOL0     O16906   7.687   6.072  -0.027 -0.0427 -0.0074 -0.0885
  126MOL0     C16907   7.565   6.013  -0.046  0.2864 -0.2326  0.4141
  126MOL0     C16908   7.507   5.965  -0.165 -0.0594 -0.3974  0.6304
  126MOL0     C16909   7.384   5.895  -0.159 -0.0974 -0.3722  0.7552
  126MOL0     C16910   7.312   5.867  -0.049 -0.3508  0.3512 -0.7149
  126MOL0     O16911   7.182   5.834  -0.071  0.5317 -0.1955  0.7631
  126MOL0     C16912   7.084   5.799   0.039 -0.4804  0.3851  0.1955
  126MOL0     C16913   7.121   5.664   0.098  0.8430  0.0046  1.0179
  126MOL0     C16914   7.081   5.536   0.011  0.1232 -0.3850  1.0088
  126MOL0     C16915   7.163   5.506  -0.124  0.1593 -0.8061 -1.3117
  126MOL0     C16916   7.307   5.472  -0.098  0.7602  0.7123 -0.5948
  126MOL0     C16917   7.372   5.443  -0.235  0.3149  0.3509  0.0660
  126MOL0     C16918   7.522   5.457  -0.227  0.7567  0.2824  0.9848
  126MOL0     C16919   7.551   5.600  -0.229  0.6238 -1.1013 -0.3211
  126MOL0    Cl16920   7.730   5.645  -0.250  0.5915 -0.1866  0.1029
  126MOL0     C16921   7.375   5.906   0.069  0.0565  0.9428 -0.9263
  126MOL0     C16922   7.504   5.976   0.077  0.0143 -0.2438 -0.9586
  126MOL0     O16923   7.680   6.222  -0.199  0.7873 -0.0992 -0.9791
  126MOL0     C16924   7.917   6.174   0.070  0.7003 -0.1512 -0.7446
  126MOL0     C16925   8.022   6.244   0.122  0.2708 -0.3343  0.2263
  126MOL0     N16926   8.445   6.567   0.508  0.5235  0.1629  0.5238
  126MOL0     N16927   8.478   6.479   0.596 -0.6956 -0.4590 -0.4040
  126MOL0     C16928   8.439   6.291   1.538  0.7255  0.4864 -0.7176
  126MOL0     C16929   8.374   6.282   1.668  0.2146 -0.2899 -0.9174
  126MOL0     C16930   8.237   6.460   2.059  0.2133  0.2219  1.7024
  126MOL0     C16931   8.225   6.538   2.171 -0.0039 -0.5409 -0.8290
  126MOL0     C16932   8.115   6.517   2.265 -0.0239 -0.1646 -0.4207
  126MOL0     C16933   8.005   6.437   2.236 -0.2870 -0.4686 -0.5889
  126MOL0     O16934   7.890   6.435   2.311 -0.4320 -0.3453 -0.1163
  126MOL0     C16935   7.889   6.478   2.451 -0.4266 -0.1305  0.3403
  126MOL0     C16936   7.757   6.426   2.526 -0.4761  0.1965 -0.3451
  126MOL0     C16937   7.621   6.487   2.494 -0.4457  0.2207 -0.4964
  126MOL0     C16938   7.515   6.373   2.492 -0.5715 -0.7244  0.1249
  126MOL0     C16939   7.396   6.423   2.407  0.1459  0.2201  0.4083
  126MOL0     C16940   7.305   6.462   2.344 -0.1938 -0.6464  0.2125
  126MOL0     C16941   8.017   6.359   2.120 -1.4979  0.4254  0.3509
  126MOL0     C16942   8.131   6.366   2.038 -0.3156  0.8534 -0.0559
  126MOL0     H16943   8.647   6.407   1.857  0.0925 -2.0187  2.0194
  126MOL0     H16944   8.744   6.420   1.659  0.3166  0.4054  3.1470
  126MOL0     H16945   8.769   6.497   1.373  2.8453 -0.2469  2.2015
  126MOL0     H16946   8.825   6.348   1.443  1.6276 -0.8103 -0.2508
  126MOL0     H16947   8.886   6.325   1.232  0.2363  1.5633 -1.0343
  126MOL0     H16948   8.739   6.244   1.199 -1.6512  0.8406  0.6980
  126MOL0     H16949   8.654   6.384   1.052  0.5136 -2.1746  0.6394
  126MOL0     H16950   8.703   6.529   1.132 -3.1018 -1.3428  0.8177
  126MOL0     H16951   8.848   6.549   0.955 -2.2279 -0.4775 -1.9250
  126MOL0     H16952   8.948   6.407   1.047  0.3510 -0.3070  0.2247
  126MOL0     H16953   8.949   6.370   0.829  0.2085 -0.6523  1.0415
  126MOL0     H16954   8.862   6.258   0.924  1.8685  1.4378  0.2669
  126MOL0     H16955   8.648   6.340   0.863 -1.9104  0.1067 -1.3653
  126MOL0     H16956   8.711   6.472   0.761 -2.6841 -1.1330 -2.5081
  126MOL0     H16957   8.803   6.324   0.598 -1.3558  3.7726  0.3468
  126MOL0     H16958   8.769   6.180   0.714  0.7852 -0.7949 -2.2845
  126MOL0     H16959   8.532   6.214   0.659 -1.4919 -0.8772 -2.0110
  126MOL0     H16960   8.629   6.202   0.508  2.4691  0.6179 -0.4033
  126MOL0     H16961   8.707   6.410   0.369  0.2288 -3.0303  2.6540
  126MOL0     H16962   8.532   6.757   0.329  3.7782  2.1286 -0.7060
  126MOL0     H16963   8.657   6.659   0.269 -0.8724 -0.7925 -0.6063
  126MOL0     H16964   8.468   6.511   0.149  1.6124  0.2594 -2.7501
  126MOL0     H16965   8.476   6.677   0.100 -3.1966  1.0677  0.0131
  126MOL0     H16966   8.290   6.737   0.203  0.6996 -0.2422 -0.4716
  126MOL0     H16967   8.282   6.591   0.307 -1.9432  1.8173  0.1183
  126MOL0     H16968   8.275   6.569   0.007 -0.3835  2.7806  0.1716
  126MOL0     H16969   8.139   6.615   0.109 -1.0676 -1.7926  0.0071
  126MOL0     H16970   8.099   6.475  -0.117  0.1411  0.2398  1.0276
  126MOL0     H16971   7.956   6.466  -0.296 -1.4210 -0.2846 -2.5221
  126MOL0     H16972   7.927   6.297  -0.349 -1.4113 -1.3451 -0.1900
  126MOL0     H16973   7.801   6.409  -0.291  0.1832 -0.8212 -1.3131
  126MOL0     H16974   7.561   5.980  -0.259 -0.3902  2.4123  0.8052
  126MOL0     H16975   7.335   5.862  -0.250  2.0481 -4.6467  0.9084
  126MOL0     H16976   7.093   5.868   0.123  1.0095 -1.1856  1.4014
  126MOL0     H16977   6.980   5.794   0.005  0.1634 -1.4789 -1.7433
  126MOL0     H16978   7.226   5.648   0.125  0.9113 -3.9784 -0.8673
  126MOL0     H16979   7.066   5.656   0.192 -0.6104  3.6779  0.6061
  126MOL0     H16980   6.973   5.544  -0.007  0.4845 -0.2074 -1.2772
  126MOL0     H16981   7.101   5.451   0.078 -1.7763  0.9280  3.3990
  126MOL0     H16982   7.112   5.429  -0.182  0.4551  0.3975 -3.2450
  126MOL0     H16983   7.166   5.595  -0.187  0.7160  0.0849 -0.0738
  126MOL0     H16984   7.297   5.387  -0.030 -1.4943  1.3907 -0.0020
  126MOL0     H16985   7.354   5.549  -0.037  0.1829 -1.3548  2.7442
  126MOL0     H16986   7.339   5.341  -0.258 -2.8731  1.4560 -0.7900
  126MOL0     H16987   7.325   5.502  -0.315 -0.7747 -2.4894 -1.5643
  126MOL0     H16988   7.564   5.420  -0.321  2.8293  0.4664  1.7780
  126MOL0     H16989   7.572   5.417  -0.139  1.1699  2.2348  1.6970
  126MOL0     H16990   7.517   5.642  -0.134 -2.5157 -1.1018 -1.3153
  126MOL0     H16991   7.491   5.659  -0.300 -0.9345  1.5187  2.8770
  126MOL0     H16992   7.327   5.861   0.156  0.1577 -1.1386 -1.8791
  126MOL0     H16993   7.557   6.000   0.168 -0.8537  3.7683 -1.3343
  126MOL0     H16994   7.880   6.084   0.117  0.9526 -0.6525 -1.4859
  126MOL0     H16995   8.072   6.218   0.215  1.4524  0.8244 -0.0471
  126MOL0     H16996   8.397   6.239   1.454  2.2971  1.0733 -1.9217
  126MOL0     H16997   8.273   6.243   1.662  0.6532 -1.1790 -3.5799
  126MOL0     H16998   8.306   6.609   2.187 -0.4878  0.0429 -0.9296
  126MOL0     H16999   8.121   6.574   2.357  2.0110 -1.5190  0.3541
  126MOL0     H17000   7.961   6.415   2.504  0.3764 -1.1908 -1.8928
  126MOL0     H17001   7.912   6.584   2.462  5.2169 -1.1833  1.6158
  126MOL0     H17002   7.786   6.453   2.628  2.1059  0.6878 -1.1358
  126MOL0     H17003   7.758   6.318   2.513  0.7639 -0.1150  1.7213
  126MOL0     H17004   7.625   6.526   2.393  0.7584  1.0269 -0.1664
  126MOL0     H17005   7.598   6.571   2.560 -2.6734  0.9452 -2.0921
  126MOL0     H17006   7.480   6.358   2.595 -1.2975  5.3659  1.1832
  126MOL0     H17007   7.553   6.279   2.453  0.8004 -0.5094  0.8636
  126MOL0     H17008   7.226   6.514   2.294  0.3130 -2.4619 -2.7172
  126MOL0     H17009   7.936   6.297   2.083  1.9286 -1.9367 -4.2371
  126MOL0     H17010   8.145   6.288   1.964 -1.9815 -2.4110  2.7966
  127MOL0     O17011   4.376   6.761   5.021 -0.4500  0.2733 -0.0354
  127MOL0     C17012   4.296   6.856   5.015 -0.6275 -0.2468 -0.0741
  127MOL0     O17013   4.169   6.851   4.975  0.4118 -0.6810  0.6061
  127MOL0     C17014   4.112   6.747   4.907  0.5134  0.2553 -0.6981
  127MOL0     C17015   3.971   6.722   4.927 -1.0530 -0.2511  0.7413
  127MOL0     C17016   3.912   6.616   4.861 -0.3242  0.8869 -0.1376
  127MOL0     C17017   3.996   6.539   4.785  0.4930  0.4159 -0.9873
  127MOL0     O17018   3.922   6.452   4.708  0.6828  0.7585  0.3936
  127MOL0     C17019   3.939   6.313   4.735  1.1017 -0.1905 -0.5969
  127MOL0     C17020   3.810   6.242   4.747  0.7019  0.2509  0.3690
  127MOL0     C17021   3.750   6.262   4.888 -0.1515 -0.4435 -0.8507
  127MOL0     C17022   3.598   6.264   4.903  0.1535  0.7391  0.3582
  127MOL0     C17023   3.551   6.269   5.050  0.6163  0.5512  0.4033
  127MOL0     C17024   3.393   6.287   5.060 -0.0315  0.3614 -0.0595
  127MOL0     C17025   3.338   6.346   5.196  0.3434 -1.3936  0.3788
  127MOL0     C17026   3.191   6.335   5.224 -0.6067 -0.1278  0.3279
  127MOL0     N17027   3.140   6.212   5.273 -0.1053  1.2123 -0.1697
  127MOL0     C17028   3.086   6.120   5.189 -0.1303 -0.1533  0.2841
  127MOL0     C17029   3.017   6.034   5.273  0.1660  0.3973 -0.1424
  127MOL0     C17030   2.925   5.932   5.216  0.0380  0.2893 -0.2020
  127MOL0     C17031   2.828   5.985   5.116 -0.8104 -0.0698 -0.6777
  127MOL0     C17032   2.759   5.882   5.026  0.0876  0.0256 -0.4909
  127MOL0     C17033   2.653   5.806   5.102 -0.2256  0.8813  0.0252
  127MOL0     O17034   2.716   5.714   5.192  0.6460 -0.1954 -0.8625
  127MOL0     C17035   2.628   5.628   5.249  0.7669  0.5711  0.4454
  127MOL0     C17036   2.490   5.633   5.242  0.5486 -0.2221 -0.7893
  127MOL0     C17037   2.405   5.528   5.292  0.5251  0.2614  0.4753
  127MOL0     C17038   2.257   5.532   5.260  0.4763 -0.2725  0.6319
  127MOL0     C17039   2.479   5.419   5.365 -0.2099  0.1278 -0.2128
  127MOL0     C17040   2.413   5.295   5.415  0.4075 -0.2797 -1.1996
  127MOL0     O17041   2.294   5.267   5.356  0.0614  0.1685  0.4294
  127MOL0     C17042   2.239   5.154   5.407 -0.9565  0.1130 -0.2139
  127MOL0     C17043   2.139   5.162   5.503 -0.6256  1.1449 -0.5438
  127MOL0     C17044   2.098   5.045   5.572 -0.5894  0.6460 -0.1447
  127MOL0     C17045   2.136   4.923   5.522 -0.1353  0.5751 -0.3858
  127MOL0     O17046   2.072   4.811   5.572 -0.3998 -0.9197  0.2123
  127MOL0     C17047   2.012   4.713   5.477  0.1364 -0.4070 -0.1265
  127MOL0     C17048   1.883   4.657   5.530  0.1115 -0.8948  0.5184
  127MOL0     C17049   1.789   4.613   5.429  0.4010  1.5097  0.1952
  127MOL0     C17050   1.806   4.477   5.365  0.9993  0.6031  0.9598
  127MOL0     C17051   1.687   4.421   5.281  0.3743  0.0383  0.4666
  127MOL0     C17052   1.688   4.466   5.136  0.8349  0.9396 -0.2767
  127MOL0     C17053   1.546   4.426   5.078  0.4470  0.2623  1.0801
  127MOL0     C17054   1.504   4.277   5.087  0.2087 -0.9242  0.8241
  127MOL0    Cl17055   1.379   4.244   4.949  0.1340  0.7536 -0.2622
  127MOL0     C17056   2.223   4.919   5.407 -0.6952  0.6735 -0.0563
  127MOL0     C17057   2.283   5.033   5.354  0.1010  0.2631  0.3710
  127MOL0     O17058   2.469   5.231   5.510 -0.1660 -0.7970 -0.3818
  127MOL0     C17059   2.617   5.418   5.383 -0.2056 -0.1193 -0.2614
  127MOL0     C17060   2.689   5.517   5.320  0.8514 -0.7301  0.1059
  127MOL0     N17061   3.016   6.080   5.402  0.2079 -0.6604 -1.4449
  127MOL0     N17062   3.093   6.186   5.404 -1.0780 -0.6926 -0.4304
  127MOL0     C17063   4.127   6.548   4.762  0.0392 -1.0262 -0.2586
  127MOL0     C17064   4.184   6.664   4.826  0.5281 -0.1547  1.0597
  127MOL0     C17065   4.339   6.987   5.057  0.2422  0.7691  0.0059
  127MOL0     C17066   4.424   7.003   5.160 -0.9374  0.1932 -0.3186
  127MOL0     C17067   4.476   7.129   5.201 -0.1594  0.4037  0.5043
  127MOL0     C17068   4.431   7.242   5.132 -0.3397 -0.1159  0.5867
  127MOL0     O17069   4.466   7.378   5.147 -0.3207 -0.8225  0.9048
  127MOL0     C17070   4.556   7.407   5.257  0.3559 -0.2528  0.6111
  127MOL0     C17071   4.604   7.554   5.250  0.0633 -0.2791  0.3982
  127MOL0     C17072   4.727   7.579   5.339 -0.0453  0.7875  0.7161
  127MOL0     C17073   4.765   7.727   5.334 -1.0329 -0.3818 -0.7541
  127MOL0     C17074   4.911   7.722   5.371  0.0001 -0.9331 -0.4882
  127MOL0     C17075   5.028   7.704   5.391 -0.2909  0.0030 -0.4675
  127MOL0     C17076   4.350   7.217   5.020  0.2237 -0.5103  0.5125
  127MOL0     C17077   4.303   7.095   4.981  0.9941  0.3700  0.0797
  127MOL0     H17078   3.926   6.799   4.989 -3.3047 -0.7609 -0.1261
  127MOL0     H17079   3.808   6.589   4.856  0.2625 -1.9234  1.0485
  127MOL0     H17080   3.995   6.278   4.648  0.4991 -0.1307 -1.0201
  127MOL0     H17081   4.001   6.283   4.821 -1.0811 -1.4087  0.6519
  127MOL0     H17082   3.749   6.277   4.663  2.0743  0.2901 -0.6380
  127MOL0     H17083   3.811   6.133   4.742  0.9214  0.0250  3.5432
  127MOL0     H17084   3.783   6.176   4.948 -3.0565 -3.6472 -3.4082
  127MOL0     H17085   3.789   6.350   4.939  3.1568 -3.7490  3.0576
  127MOL0     H17086   3.572   6.354   4.846  0.6495  1.2004  0.8414
  127MOL0     H17087   3.561   6.176   4.849  2.4700  1.2464 -2.3209
  127MOL0     H17088   3.584   6.177   5.100 -1.4443 -1.8276 -2.2617
  127MOL0     H17089   3.587   6.352   5.111  0.0941  1.4782 -0.5282
  127MOL0     H17090   3.349   6.344   4.978 -0.1393 -2.2936 -1.9983
  127MOL0     H17091   3.356   6.184   5.054  3.2380 -0.8568 -2.0967
  127MOL0     H17092   3.394   6.291   5.273 -0.8235 -1.0820  1.4929
  127MOL0     H17093   3.360   6.452   5.190 -3.0174 -0.6572 -1.2844
  127MOL0     H17094   3.142   6.376   5.135 -1.1391 -1.0096  0.2091
  127MOL0     H17095   3.172   6.404   5.306 -1.2578 -0.6803  0.6513
  127MOL0     H17096   3.098   6.115   5.082  1.1143 -0.1804  0.4166
  127MOL0     H17097   2.982   5.846   5.178 -0.6167 -0.0905 -0.3573
  127MOL0     H17098   2.872   5.882   5.298  1.4058 -0.7134  0.0983
  127MOL0     H17099   2.881   6.049   5.045 -1.3156 -0.5388 -1.4967
  127MOL0     H17100   2.751   6.035   5.176 -0.3619  0.2988 -0.3984
  127MOL0     H17101   2.836   5.812   4.991  1.5798  0.5749  1.4722
  127MOL0     H17102   2.707   5.926   4.941  1.8972 -0.0569 -1.7034
  127MOL0     H17103   2.592   5.759   5.024 -3.8973  3.6984  0.9027
  127MOL0     H17104   2.574   5.870   5.143 -0.8868 -1.3119  2.4405
  127MOL0     H17105   2.438   5.718   5.201 -1.8974 -0.9737  0.5458
  127MOL0     H17106   2.248   5.457   5.181  1.3537 -1.1211  1.3066
  127MOL0     H17107   2.189   5.509   5.342  1.0735 -0.3887  1.0985
  127MOL0     H17108   2.231   5.632   5.224 -1.0671 -1.7822 -2.9412
  127MOL0     H17109   2.107   5.260   5.538 -2.5358  0.0967  0.7991
  127MOL0     H17110   2.017   5.052   5.644 -0.3340  2.0535  0.0327
  127MOL0     H17111   1.988   4.756   5.379 -2.9905  0.0972  0.7640
  127MOL0     H17112   2.079   4.626   5.477 -0.8806 -1.2171  1.1605
  127MOL0     H17113   1.897   4.583   5.609  1.8141 -0.5121  0.6351
  127MOL0     H17114   1.852   4.750   5.579  3.0590  0.3370  0.2996
  127MOL0     H17115   1.780   4.687   5.349  1.5687  0.6772 -0.7470
  127MOL0     H17116   1.692   4.607   5.478  0.8010  1.3761  0.9994
  127MOL0     H17117   1.895   4.472   5.302 -1.4219  4.4602 -3.4434
  127MOL0     H17118   1.813   4.400   5.442  0.4237  0.2136  0.6330
  127MOL0     H17119   1.596   4.439   5.338 -0.1575 -2.0437  0.3790
  127MOL0     H17120   1.690   4.312   5.269 -1.2670  0.1555 -1.6678
  127MOL0     H17121   1.711   4.572   5.150  2.2905  0.3386  2.6947
  127MOL0     H17122   1.758   4.403   5.081  0.1525 -0.9645  0.9294
  127MOL0     H17123   1.539   4.454   4.972  0.1815 -0.1078  0.9991
  127MOL0     H17124   1.464   4.480   5.125 -1.8618 -0.9148 -1.3383
  127MOL0     H17125   1.457   4.253   5.182  1.4564 -4.4312  0.7138
  127MOL0     H17126   1.594   4.215   5.075 -0.2195 -1.8727  2.2205
  127MOL0     H17127   2.241   4.819   5.367  2.6563  0.3955  1.7734
  127MOL0     H17128   2.351   5.029   5.269 -1.3338 -1.4063 -0.7688
  127MOL0     H17129   2.660   5.330   5.429 -1.2802  0.2505  1.5725
  127MOL0     H17130   2.797   5.503   5.324  0.5178 -3.7294  2.2013
  127MOL0     H17131   4.171   6.472   4.698 -1.7864 -1.3023 -1.2350
  127MOL0     H17132   4.291   6.682   4.817  0.7106  0.3370  3.6224
  127MOL0     H17133   4.446   6.919   5.225 -0.8955  2.1025  2.2964
  127MOL0     H17134   4.533   7.138   5.293  0.4471  1.6408  0.0389
  127MOL0     H17135   4.494   7.397   5.347  1.8730 -3.5745  1.4657
  127MOL0     H17136   4.643   7.340   5.265  1.5337  1.0446 -0.7621
  127MOL0     H17137   4.516   7.612   5.282  0.5231  2.3647 -2.6215
  127MOL0     H17138   4.637   7.579   5.149 -0.2052 -0.1425  0.3424
  127MOL0     H17139   4.807   7.512   5.305  0.1978  1.4533 -0.0712
  127MOL0     H17140   4.704   7.554   5.442 -3.7189 -2.0292 -0.5829
  127MOL0     H17141   4.714   7.785   5.412  3.3360 -1.0598  3.0285
  127MOL0     H17142   4.745   7.771   5.236  0.4019 -1.0493 -1.3762
  127MOL0     H17143   5.128   7.670   5.410 -1.0232 -1.6968  0.5605
  127MOL0     H17144   4.312   7.298   4.959 -1.4153 -2.7405 -1.5779
  127MOL0     H17145   4.263   7.091   4.880  2.4100  3.1791 -0.6902
  128MOL0     O17146   2.723   6.439   4.409  0.7694 -0.5082 -0.2129
  128MOL0     C17147   2.718   6.330   4.352 -0.7529  0.6122  0.1419
  128MOL0     O17148   2.831   6.270   4.294 -0.6994 -0.3620  0.3928
  128MOL0     C17149   2.958   6.324   4.311  0.3088  0.0990 -0.6946
  128MOL0     C17150   3.055   6.271   4.223 -0.9795  0.0667 -0.3054
  128MOL0     C17151   3.190   6.317   4.223  1.0618  0.3666  0.5948
  128MOL0     C17152   3.238   6.410   4.314  0.7777  0.7021  0.2922
  128MOL0     O17153   3.372   6.458   4.307  0.0439  0.0642  0.1930
  128MOL0     C17154   3.472   6.359   4.319 -0.2412 -0.7955 -0.8777
  128MOL0     C17155   3.603   6.434   4.336 -0.2364 -0.4666 -0.2741
  128MOL0     C17156   3.714   6.337   4.295  0.6434 -0.5106  0.7145
  128MOL0     C17157   3.853   6.411   4.306  0.1212  0.3098  0.7337
  128MOL0     C17158   3.968   6.314   4.288 -0.3788  0.5381  0.0177
  128MOL0     C17159   4.090   6.365   4.359 -0.9217 -0.3474 -0.2655
  128MOL0     C17160   4.217   6.279   4.337  0.2534  0.1796  0.9366
  128MOL0     C17161   4.215   6.134   4.403  0.2024  0.3238  0.4170
  128MOL0     N17162   4.240   6.137   4.550  0.1253  0.3771  0.1543
  128MOL0     C17163   4.360   6.148   4.604 -0.2971 -1.1673  0.3609
  128MOL0     C17164   4.350   6.101   4.733 -0.5824 -0.5745 -0.4165
  128MOL0     C17165   4.479   6.079   4.817  1.7384 -0.4910  0.4761
  128MOL0     C17166   4.490   5.938   4.877  0.9421  0.1611 -0.0232
  128MOL0     C17167   4.447   5.827   4.778 -0.5127  0.0200 -0.3682
  128MOL0     C17168   4.556   5.822   4.667 -0.3839  0.4734  0.5795
  128MOL0     O17169   4.505   5.891   4.556 -0.5502 -0.5485 -0.3196
  128MOL0     C17170   4.452   5.820   4.451  0.3024 -1.8940  0.3446
  128MOL0     C17171   4.531   5.779   4.348  0.1235 -0.1253  0.5255
  128MOL0     C17172   4.479   5.723   4.227 -0.3797  0.2650 -0.7784
  128MOL0     C17173   4.588   5.676   4.127  1.2367  0.5256  0.0502
  128MOL0     C17174   4.337   5.701   4.224  0.9287 -0.6310  1.0006
  128MOL0     C17175   4.279   5.634   4.101 -0.0461 -0.5427 -0.7620
  128MOL0     O17176   4.363   5.557   4.013  0.1187  0.2728 -0.3612
  128MOL0     C17177   4.301   5.502   3.907 -0.0492 -0.3787 -0.6397
  128MOL0     C17178   4.258   5.373   3.900  0.7335 -1.0144  0.5103
  128MOL0     C17179   4.204   5.321   3.779 -0.2393 -1.0963 -0.5592
  128MOL0     C17180   4.197   5.407   3.666  0.6880 -0.9497 -0.4015
  128MOL0     O17181   4.126   5.361   3.550  0.1515 -1.3298 -0.2850
  128MOL0     C17182   4.117   5.228   3.531  1.0573 -0.4047  0.7519
  128MOL0     C17183   4.132   5.210   3.373 -1.1670  0.6053 -0.5977
  128MOL0     C17184   4.059   5.080   3.332  0.2983  0.0040 -0.2228
  128MOL0     C17185   4.092   4.953   3.404 -0.3137 -0.2028  0.0575
  128MOL0     C17186   4.241   4.909   3.370 -0.6483 -0.5257 -0.7160
  128MOL0     C17187   4.275   4.775   3.437  0.5237  0.0490  0.3311
  128MOL0     C17188   4.324   4.660   3.338 -0.5106 -0.3854 -0.4873
  128MOL0     C17189   4.200   4.612   3.255 -0.7110 -1.2210 -0.2959
  128MOL0    Cl17190   4.273   4.483   3.151  0.0049 -0.1148 -0.3101
  128MOL0     C17191   4.246   5.536   3.669  0.2861  1.0041 -0.6217
  128MOL0     C17192   4.305   5.578   3.785  0.0919  0.3503 -0.6290
  128MOL0     O17193   4.154   5.633   4.090  0.1740 -0.1879  0.3142
  128MOL0     C17194   4.256   5.753   4.323 -0.1375  0.2654  1.1130
  128MOL0     C17195   4.317   5.806   4.436 -0.9690  0.6508  0.2135
  128MOL0     N17196   4.214   6.079   4.750 -0.3361  0.8339 -0.1440
  128MOL0     N17197   4.149   6.096   4.633  0.0061 -0.4403 -0.7353
  128MOL0     C17198   3.141   6.452   4.406 -0.2231  0.2487  0.1241
  128MOL0     C17199   3.013   6.409   4.408  0.3673  0.2960 -0.5875
  128MOL0     C17200   2.601   6.245   4.346 -0.1194  0.3813 -0.9926
  128MOL0     C17201   2.613   6.103   4.326  0.8856 -0.2990 -0.6130
  128MOL0     C17202   2.503   6.019   4.349 -0.0004  0.0302 -0.2650
  128MOL0     C17203   2.383   6.068   4.383  0.3780  0.2663  0.7160
  128MOL0     O17204   2.264   5.998   4.400 -0.5186 -0.0587  0.0987
  128MOL0     C17205   2.276   5.851   4.417 -0.2491 -1.6688  0.2654
  128MOL0     C17206   2.145   5.783   4.452  0.5005  0.7273  1.7089
  128MOL0     C17207   2.107   5.811   4.596 -0.3005 -0.2516  0.8342
  128MOL0     C17208   1.970   5.754   4.606 -0.0611 -0.0275 -0.6658
  128MOL0     C17209   1.906   5.776   4.739  1.5780 -1.0818  0.5359
  128MOL0     C17210   1.840   5.793   4.841 -0.9461  1.0020 -0.3434
  128MOL0     C17211   2.368   6.206   4.405 -1.0152 -0.4074  0.2281
  128MOL0     C17212   2.480   6.298   4.384 -0.6354 -0.1456 -0.1282
  128MOL0     H17213   3.021   6.211   4.140 -1.0687 -1.9485  1.1227
  128MOL0     H17214   3.243   6.282   4.135 -3.2491 -2.3297 -1.2695
  128MOL0     H17215   3.463   6.297   4.409 -0.6110  0.8087  0.2196
  128MOL0     H17216   3.476   6.291   4.233  0.9040 -0.7232 -0.8915
  128MOL0     H17217   3.612   6.525   4.276 -2.4823 -0.5693 -0.8544
  128MOL0     H17218   3.626   6.462   4.439 -1.2476 -0.5432 -0.0135
  128MOL0     H17219   3.710   6.242   4.349 -1.5939 -1.0282 -0.2572
  128MOL0     H17220   3.692   6.317   4.190 -1.3126 -0.6456  1.1123
  128MOL0     H17221   3.860   6.500   4.242  2.6964  0.8773  1.6852
  128MOL0     H17222   3.840   6.448   4.408  0.4807  1.3844  0.3960
  128MOL0     H17223   3.942   6.211   4.311 -1.1180  0.5863 -0.5617
  128MOL0     H17224   4.000   6.328   4.184  3.4445  1.4386  1.1901
  128MOL0     H17225   4.113   6.467   4.328 -0.8873 -0.8488 -2.0093
  128MOL0     H17226   4.080   6.380   4.467  2.6938 -2.0996  0.4578
  128MOL0     H17227   4.235   6.273   4.229 -0.6159  0.3277  0.7780
  128MOL0     H17228   4.304   6.335   4.373 -1.7518  3.6325  0.7526
  128MOL0     H17229   4.299   6.076   4.362  0.5946 -0.3567  2.0942
  128MOL0     H17230   4.125   6.079   4.376 -0.1703 -0.0744  2.3462
  128MOL0     H17231   4.449   6.184   4.553 -0.6634  1.1611  1.2335
  128MOL0     H17232   4.573   6.074   4.760  0.4655 -1.2331 -1.6968
  128MOL0     H17233   4.479   6.161   4.889  1.7610  1.3631 -1.5365
  128MOL0     H17234   4.425   5.923   4.963 -0.0993  1.0622 -0.6238
  128MOL0     H17235   4.588   5.916   4.920  0.5483 -2.8984 -0.5108
  128MOL0     H17236   4.352   5.840   4.727  0.6224 -1.1872 -3.0007
  128MOL0     H17237   4.444   5.729   4.827  0.2442  1.2397  2.3096
  128MOL0     H17238   4.588   5.720   4.646 -1.7513 -0.0743  1.0472
  128MOL0     H17239   4.651   5.860   4.705  1.3341 -1.9115 -1.0877
  128MOL0     H17240   4.638   5.791   4.360  0.3851 -2.2307  0.7940
  128MOL0     H17241   4.560   5.699   4.024  3.8087 -5.5726 -2.5339
  128MOL0     H17242   4.686   5.723   4.142  0.9946  2.2593 -2.9991
  128MOL0     H17243   4.588   5.566   4.121  3.2966  0.5810 -3.7110
  128MOL0     H17244   4.257   5.310   3.989 -2.5218 -2.9952 -0.7297
  128MOL0     H17245   4.178   5.217   3.793 -0.3910 -0.8654  1.0002
  128MOL0     H17246   4.187   5.163   3.585  0.8160  0.2582  1.8892
  128MOL0     H17247   4.019   5.189   3.560  0.3917 -0.0161 -0.8315
  128MOL0     H17248   4.074   5.286   3.319 -1.5608  1.5567  1.0919
  128MOL0     H17249   4.238   5.201   3.347 -1.6255 -0.1736 -2.3522
  128MOL0     H17250   4.082   5.059   3.227 -2.3026  1.2604 -1.1210
  128MOL0     H17251   3.954   5.109   3.336  0.6320  1.1492  1.3797
  128MOL0     H17252   4.076   4.965   3.511 -0.1696  3.6920 -0.2084
  128MOL0     H17253   4.034   4.867   3.368 -2.0045  0.0990  1.8648
  128MOL0     H17254   4.309   4.986   3.408  1.1107 -1.7957 -1.1352
  128MOL0     H17255   4.247   4.894   3.262  1.8013  1.0910 -0.8829
  128MOL0     H17256   4.348   4.789   3.517  1.8404 -0.8579 -0.6816
  128MOL0     H17257   4.188   4.733   3.488  0.6911 -1.1809 -0.3597
  128MOL0     H17258   4.364   4.571   3.389  1.6401  0.7717 -0.0366
  128MOL0     H17259   4.411   4.694   3.281 -0.0857  0.0259  0.3774
  128MOL0     H17260   4.166   4.695   3.193 -0.7302  1.3681  2.9515
  128MOL0     H17261   4.112   4.579   3.311 -1.8718  0.0655 -1.3075
  128MOL0     H17262   4.248   5.597   3.579  0.6486  0.6773 -0.8394
  128MOL0     H17263   4.348   5.677   3.783  0.3244  0.3118 -3.9433
  128MOL0     H17264   4.148   5.737   4.327 -0.0142 -0.5432  4.4124
  128MOL0     H17265   4.246   5.834   4.513 -0.1410 -0.3424  1.3542
  128MOL0     H17266   3.161   6.526   4.483 -0.0663 -0.6325  0.9468
  128MOL0     H17267   2.941   6.449   4.479 -0.5661  1.3529 -2.0991
  128MOL0     H17268   2.704   6.049   4.301 -0.9393 -5.5894  2.4581
  128MOL0     H17269   2.502   5.912   4.330 -1.2745  0.3873 -2.6921
  128MOL0     H17270   2.304   5.810   4.320  0.2589 -3.7611  1.2332
  128MOL0     H17271   2.350   5.824   4.493 -1.4465 -3.6763  0.7777
  128MOL0     H17272   2.158   5.678   4.427 -1.0022  0.7558  0.7215
  128MOL0     H17273   2.063   5.813   4.386 -0.0028 -0.0554  1.9639
  128MOL0     H17274   2.105   5.919   4.614  0.4738  0.0686 -0.7960
  128MOL0     H17275   2.173   5.766   4.670 -1.1726  0.4110  2.0597
  128MOL0     H17276   1.977   5.646   4.590  1.8247  0.2379 -1.8197
  128MOL0     H17277   1.896   5.799   4.539 -0.4682  1.0035  0.4365
  128MOL0     H17278   1.788   5.793   4.935 -0.6366 -4.2747  0.1365
  128MOL0     H17279   2.277   6.259   4.430 -0.1315  1.1151  0.3918
  128MOL0     H17280   2.480   6.406   4.400  2.1324  0.3880 -2.7837
  129MOL0     O17281   4.898  11.143   2.452  0.3164 -0.2204  0.7490
  129MOL0     C17282   4.797  11.206   2.424  0.5578  0.3970 -0.4711
  129MOL0     O17283   4.677  11.160   2.382 -0.7663  0.1716  0.6113
  129MOL0     C17284   4.680  11.033   2.328  0.7676  0.4574  0.1137
  129MOL0     C17285   4.699  10.921   2.402  0.0161 -0.1242 -0.8299
  129MOL0     C17286   4.685  10.795   2.337  0.4629 -0.1995  0.4812
  129MOL0     C17287   4.653  10.782   2.203  0.2208  0.8136  0.6432
  129MOL0     O17288   4.647  10.666   2.126  0.3349 -0.5308 -0.5313
  129MOL0     C17289   4.670  10.534   2.175 -0.1073  0.0182  0.5954
  129MOL0     C17290   4.811  10.495   2.168 -0.4262  0.1565 -0.0158
  129MOL0     C17291   4.866  10.481   2.026  0.1105 -0.5380  0.2359
  129MOL0     C17292   4.958  10.363   2.013 -0.4670  0.3841  0.0101
  129MOL0     C17293   4.901  10.224   2.026  0.1969 -0.5198  0.1054
  129MOL0     C17294   4.790  10.183   1.924 -0.2017 -0.0213  0.0643
  129MOL0     C17295   4.716  10.050   1.955  0.1125 -0.0115 -0.0280
  129MOL0     C17296   4.600  10.073   2.067  1.0870  0.9214  0.2765
  129MOL0     N17297   4.503   9.961   2.059 -0.1305 -0.7086  0.0034
  129MOL0     C17298   4.533   9.826   2.073 -0.2980 -0.4651  0.1131
  129MOL0     C17299   4.433   9.761   2.013  1.2049 -0.0340 -0.2229
  129MOL0     C17300   4.398   9.612   2.016  0.1665  0.4786 -0.7617
  129MOL0     C17301   4.496   9.551   1.912 -0.4317 -0.2878  0.4491
  129MOL0     C17302   4.464   9.419   1.858  0.5950  1.1921  0.9748
  129MOL0     C17303   4.490   9.310   1.959 -0.9297  0.0692 -1.2381
  129MOL0     O17304   4.383   9.305   2.055 -0.5313 -0.2011  0.2520
  129MOL0     C17305   4.366   9.185   2.113 -0.3527  0.8147  0.2140
  129MOL0     C17306   4.243   9.125   2.100  0.7804 -0.4972  0.6946
  129MOL0     C17307   4.223   8.998   2.156  0.3656 -0.2556 -0.3177
  129MOL0     C17308   4.087   8.930   2.127 -0.2621 -0.3198 -0.2192
  129MOL0     C17309   4.322   8.942   2.240  0.0619  0.1063 -0.0243
  129MOL0     C17310   4.307   8.815   2.318 -0.0501  0.2096 -0.1208
  129MOL0     O17311   4.223   8.727   2.269 -0.4928 -0.6977 -0.1245
  129MOL0     C17312   4.226   8.601   2.310  0.7423  0.8245  0.2545
  129MOL0     C17313   4.328   8.516   2.265 -1.3966  0.0345 -1.5656
  129MOL0     C17314   4.322   8.373   2.279  0.5672 -0.1148 -0.7567
  129MOL0     C17315   4.209   8.322   2.348  0.1078 -0.5691 -0.6375
  129MOL0     O17316   4.179   8.185   2.366  0.4375 -0.4222 -0.1116
  129MOL0     C17317   4.285   8.088   2.385  1.6838 -0.2669 -0.2262
  129MOL0     C17318   4.272   8.037   2.523 -0.5380 -0.1371 -0.7951
  129MOL0     C17319   4.367   7.920   2.555 -0.3772 -0.2185 -0.4013
  129MOL0     C17320   4.335   7.835   2.689  1.1235  0.2381  0.5150
  129MOL0     C17321   4.390   7.910   2.806  0.2128 -0.2360  0.3220
  129MOL0     C17322   4.544   7.896   2.823  0.1850  0.4626  0.6633
  129MOL0     C17323   4.582   7.970   2.963  0.3552 -0.1404 -0.2724
  129MOL0     C17324   4.739   7.957   2.996  0.4001 -0.4607  0.0622
  129MOL0    Cl17325   4.822   8.062   2.889 -0.3171  0.1241 -0.0703
  129MOL0     C17326   4.109   8.407   2.406 -0.4922 -1.1994  0.8499
  129MOL0     C17327   4.116   8.545   2.381  0.2243  0.6902  0.0632
  129MOL0     O17328   4.372   8.811   2.423  0.2594  0.1629  0.5924
  129MOL0     C17329   4.440   9.016   2.265  0.0194 -0.3758  0.9704
  129MOL0     C17330   4.468   9.135   2.188 -1.3617  1.0228 -0.0558
  129MOL0     N17331   4.351   9.857   1.956  0.5947  0.4949 -0.1900
  129MOL0     N17332   4.391   9.978   1.992 -0.1839 -0.2091  0.6042
  129MOL0     C17333   4.626  10.895   2.135  0.3263 -0.8682  1.0600
  129MOL0     C17334   4.648  11.024   2.197  0.4849  0.6071  0.0767
  129MOL0     C17335   4.802  11.353   2.433 -0.0784  0.3226 -0.6156
  129MOL0     C17336   4.925  11.416   2.452  0.3198  0.1388 -1.5027
  129MOL0     C17337   4.922  11.554   2.482 -0.2854 -0.6223  0.8364
  129MOL0     C17338   4.812  11.636   2.474 -0.0941  0.0006  0.5022
  129MOL0     O17339   4.814  11.770   2.481  0.5077  0.7991 -0.4030
  129MOL0     C17340   4.929  11.847   2.519  0.1917 -0.2246  0.6378
  129MOL0     C17341   4.882  11.990   2.502  0.4547 -0.3478  0.4680
  129MOL0     C17342   5.002  12.097   2.516 -1.2338  0.3695 -0.2844
  129MOL0     C17343   4.983  12.224   2.427  0.0982 -0.8282 -0.2422
  129MOL0     C17344   4.945  12.349   2.500 -0.5150  0.3505 -0.5257
  129MOL0     C17345   4.921  12.452   2.551  1.0022  0.4448 -0.1296
  129MOL0     C17346   4.697  11.576   2.442  0.4939  1.2005  0.3749
  129MOL0     C17347   4.679  11.429   2.417 -0.0214 -0.0887  0.0699
  129MOL0     H17348   4.738  10.926   2.503 -0.3652 -2.0528 -0.5639
  129MOL0     H17349   4.723  10.713   2.397  2.9500 -2.1472 -3.3762
  129MOL0     H17350   4.633  10.507   2.275 -4.9850 -2.5372 -1.5563
  129MOL0     H17351   4.628  10.458   2.110  1.7514  1.1601 -2.1292
  129MOL0     H17352   4.880  10.558   2.225 -0.9985  0.6220  0.1622
  129MOL0     H17353   4.804  10.398   2.219 -0.8716 -1.5687 -3.1223
  129MOL0     H17354   4.780  10.477   1.959  1.2194 -0.5335 -1.2244
  129MOL0     H17355   4.924  10.568   1.993  0.2578 -2.1254 -4.2727
  129MOL0     H17356   5.004  10.373   1.914 -2.5202  3.5611 -0.7658
  129MOL0     H17357   5.034  10.376   2.091  0.8924 -0.7791 -1.0600
  129MOL0     H17358   4.986  10.156   2.014  0.0494 -0.2976 -3.3704
  129MOL0     H17359   4.855  10.204   2.123 -2.0910  1.1429 -0.5452
  129MOL0     H17360   4.715  10.261   1.910 -0.2419 -0.1855 -0.6917
  129MOL0     H17361   4.835  10.166   1.826 -1.6906 -1.9064 -0.3502
  129MOL0     H17362   4.674  10.011   1.862 -2.3072  1.7869  0.2157
  129MOL0     H17363   4.799   9.983   1.979  0.1914  0.0182 -0.2182
  129MOL0     H17364   4.550  10.164   2.033  0.5438  0.8441  0.8480
  129MOL0     H17365   4.632  10.089   2.171 -0.2088  1.8135  0.5622
  129MOL0     H17366   4.619   9.797   2.133  1.1513  1.9542 -0.6333
  129MOL0     H17367   4.397   9.567   2.116  1.0739 -0.8938 -1.3433
  129MOL0     H17368   4.296   9.604   1.977  0.2341  1.1756 -1.0933
  129MOL0     H17369   4.600   9.559   1.945  0.3627 -0.2301 -1.8548
  129MOL0     H17370   4.493   9.615   1.823  1.5703  0.8174  1.1157
  129MOL0     H17371   4.518   9.404   1.764  0.6769 -1.5479  1.3540
  129MOL0     H17372   4.357   9.416   1.832  0.7413  1.5209  0.3172
  129MOL0     H17373   4.586   9.317   2.011 -1.3686 -0.0080 -0.3980
  129MOL0     H17374   4.483   9.214   1.909  0.5146 -0.6099 -0.1938
  129MOL0     H17375   4.166   9.171   2.039  0.1920 -4.9403 -2.3999
  129MOL0     H17376   4.023   8.918   2.215  0.3005  0.7872  0.3625
  129MOL0     H17377   4.035   8.974   2.041 -0.9548 -2.1684 -0.7947
  129MOL0     H17378   4.111   8.836   2.075  0.6796 -0.6218  0.7295
  129MOL0     H17379   4.412   8.547   2.204 -1.2466 -0.8118 -1.8024
  129MOL0     H17380   4.406   8.312   2.245  3.0723 -0.0958  4.3598
  129MOL0     H17381   4.279   8.007   2.312 -0.8309 -0.9916  0.6691
  129MOL0     H17382   4.378   8.143   2.369  4.1304 -3.8699  0.4671
  129MOL0     H17383   4.309   8.114   2.591  2.6792 -3.5574  1.7354
  129MOL0     H17384   4.168   8.019   2.554 -0.3984 -1.9280 -1.2539
  129MOL0     H17385   4.466   7.967   2.559 -2.0376  3.5780  1.3017
  129MOL0     H17386   4.368   7.846   2.475  2.0432 -0.8129  0.1050
  129MOL0     H17387   4.229   7.809   2.691  1.8799 -3.4045  2.3504
  129MOL0     H17388   4.381   7.736   2.681 -1.1326 -0.6985 -3.2459
  129MOL0     H17389   4.332   7.888   2.896 -3.7886  2.9714 -1.1402
  129MOL0     H17390   4.367   8.017   2.807  0.9433 -0.0252 -1.4971
  129MOL0     H17391   4.577   7.793   2.831  1.9600  1.0568  1.5744
  129MOL0     H17392   4.595   7.950   2.742  0.5216 -2.2631 -1.0626
  129MOL0     H17393   4.518   7.926   3.040 -1.1232  0.8770 -0.8807
  129MOL0     H17394   4.555   8.075   2.977 -0.2346 -0.4391  0.9591
  129MOL0     H17395   4.772   7.853   2.984 -2.5584 -1.2973 -1.8727
  129MOL0     H17396   4.762   7.992   3.098  2.9452 -2.3678  0.2195
  129MOL0     H17397   4.015   8.394   2.459 -1.2300 -1.2232 -0.4281
  129MOL0     H17398   4.036   8.607   2.421 -0.2787 -0.7706  1.4383
  129MOL0     H17399   4.518   8.974   2.328  0.5870 -0.1720  0.4093
  129MOL0     H17400   4.564   9.186   2.192 -0.5022 -0.6229  1.2533
  129MOL0     H17401   4.580  10.881   2.038 -1.2370  1.4772  1.3784
  129MOL0     H17402   4.656  11.112   2.134  2.9247  0.8714  0.6679
  129MOL0     H17403   5.015  11.357   2.464 -0.4929 -1.4184 -2.6141
  129MOL0     H17404   5.019  11.595   2.507 -1.0590  0.1641  2.7617
  129MOL0     H17405   4.962  11.823   2.620  2.1609  1.8482  0.5631
  129MOL0     H17406   5.012  11.821   2.452 -0.6809  1.4750 -1.1931
  129MOL0     H17407   4.810  12.001   2.583  2.0964  0.0594  1.9347
  129MOL0     H17408   4.832  12.002   2.406  0.9067  0.0342  0.2749
  129MOL0     H17409   5.086  12.047   2.467 -1.6555  0.5176 -1.1732
  129MOL0     H17410   5.024  12.116   2.621  4.1317 -3.7072 -0.2018
  129MOL0     H17411   4.906  12.201   2.352 -0.2707  0.4726 -0.2895
  129MOL0     H17412   5.077  12.241   2.375  1.5316  0.3082  2.5102
  129MOL0     H17413   4.891  12.547   2.589  3.0164 -0.6780  5.1071
  129MOL0     H17414   4.613  11.643   2.428 -0.7087 -0.7473 -2.8932
  129MOL0     H17415   4.583  11.378   2.411  0.2050 -0.3459 -1.8475
  130MOL0     O17416   8.357   7.411   8.495 -0.2598 -0.1515 -0.3617
  130MOL0     C17417   8.324   7.467   8.393  0.2415 -0.8289 -0.1954
  130MOL0     O17418   8.334   7.605   8.364 -0.0440  0.1483  0.1109
  130MOL0     C17419   8.418   7.683   8.434  0.6092  0.5396  0.1841
  130MOL0     C17420   8.546   7.716   8.385 -0.0936  0.0696  0.4915
  130MOL0     C17421   8.628   7.806   8.449  1.0340 -0.0401 -1.1705
  130MOL0     C17422   8.590   7.858   8.580 -0.7677  0.4211  0.1524
  130MOL0     O17423   8.680   7.946   8.629 -0.6658 -0.1278 -0.1487
  130MOL0     C17424   8.695   7.946   8.776  0.5997 -0.2928 -1.1171
  130MOL0     C17425   8.604   8.067   8.825 -0.4700  0.7030 -0.0626
  130MOL0     C17426   8.601   8.055   8.983 -0.7003 -0.0539 -0.0188
  130MOL0     C17427   8.735   8.051   9.063 -0.1231 -0.8983 -0.1092
  130MOL0     C17428   8.714   8.107   9.213  0.0695  0.1243  0.5234
  130MOL0     C17429   8.662   8.004   9.309  0.2908  0.4854  1.5831
  130MOL0     C17430   8.712   8.038   9.454 -0.4634 -1.2914  0.6158
  130MOL0     C17431   8.648   7.949   9.557  0.6797  0.0304 -0.6264
  130MOL0     N17432   8.506   7.911   9.549  0.1240 -0.0861 -0.4518
  130MOL0     C17433   8.447   7.812   9.477 -0.2703  0.1161 -0.1640
  130MOL0     C17434   8.313   7.834   9.492 -0.5677  0.4604  0.4013
  130MOL0     C17435   8.210   7.758   9.417  0.4120 -0.6531  0.7123
  130MOL0     C17436   8.099   7.733   9.511 -0.1822  0.2259  0.9285
  130MOL0     C17437   7.990   7.833   9.496  0.9322  0.9452  0.5510
  130MOL0     C17438   7.887   7.833   9.605  0.0065 -0.4045  0.4906
  130MOL0     O17439   7.947   7.863   9.732 -0.1472  0.1758  0.3103
  130MOL0     C17440   7.889   7.957   9.817  1.1878 -1.4211 -0.0940
  130MOL0     C17441   7.751   7.997   9.817  0.3084  0.5755 -0.3921
  130MOL0     C17442   7.699   8.083   9.915  1.5447 -0.1865  0.3448
  130MOL0     C17443   7.544   8.085   9.934 -0.1117 -0.4162 -0.2928
  130MOL0     C17444   7.783   8.147  10.009 -1.1972  0.3895  0.4820
  130MOL0     C17445   7.740   8.233  10.129 -0.7509  0.6111 -0.3895
  130MOL0     O17446   7.841   8.248  10.228  0.0720 -0.3237 -0.0103
  130MOL0     C17447   7.824   8.304  10.357 -0.1009  0.4011  0.3159
  130MOL0     C17448   7.939   8.336  10.426  0.0247  0.6201  0.2828
  130MOL0     C17449   7.926   8.388  10.554 -0.3216  1.1782  0.2191
  130MOL0     C17450   7.804   8.378  10.629 -0.6645 -0.6855  0.3061
  130MOL0     O17451   7.798   8.432  10.754 -0.5898  0.1292  0.6562
  130MOL0     C17452   7.684   8.501  10.815 -0.0370 -0.0811 -0.3681
  130MOL0     C17453   7.685   8.469  10.963 -0.2690  0.4095  0.6933
  130MOL0     C17454   7.564   8.539  11.023 -0.2612 -0.0752  0.0259
  130MOL0     C17455   7.528   8.483  11.160  0.0280 -0.3061 -0.9467
  130MOL0     C17456   7.403   8.549  11.208  0.0690  1.3230  0.0044
  130MOL0     C17457   7.415   8.682  11.260 -0.1607  0.2294 -1.1089
  130MOL0     C17458   7.292   8.722  11.340 -0.4084 -0.5600 -0.1165
  130MOL0     C17459   7.164   8.709  11.264  0.6902  0.3546  0.0920
  130MOL0    Cl17460   7.164   8.813  11.116  0.4144 -0.0105  0.1969
  130MOL0     C17461   7.689   8.325  10.562 -0.2031  0.5084  0.7254
  130MOL0     C17462   7.703   8.294  10.425 -0.6206  0.2644  0.3811
  130MOL0     O17463   7.627   8.270  10.138  0.0004 -0.2929 -0.3395
  130MOL0     C17464   7.924   8.117   9.996  0.6241  0.4156  0.3393
  130MOL0     C17465   7.967   8.029   9.903 -0.0246 -0.4384  0.3179
  130MOL0     N17466   8.291   7.961   9.533 -0.4933 -0.4308  0.1583
  130MOL0     N17467   8.404   8.007   9.574 -0.2515  0.0528 -0.6587
  130MOL0     C17468   8.468   7.825   8.633 -0.2246 -0.5494  0.1856
  130MOL0     C17469   8.379   7.736   8.564 -0.2297  0.9725 -0.0979
  130MOL0     C17470   8.241   7.390   8.301  0.9069 -0.5939 -0.8413
  130MOL0     C17471   8.153   7.456   8.215  0.2362  0.2084 -0.0098
  130MOL0     C17472   8.076   7.381   8.126 -0.6510  0.2051 -0.5458
  130MOL0     C17473   8.076   7.241   8.127 -0.0122 -0.5592 -1.0548
  130MOL0     O17474   7.993   7.182   8.038 -1.0468 -0.7292 -0.7469
  130MOL0     C17475   8.035   7.047   7.991 -0.3006 -0.3378 -0.5118
  130MOL0     C17476   7.970   7.017   7.865 -0.4436  0.1528  1.2383
  130MOL0     C17477   7.818   6.998   7.876 -0.0524 -0.0844  0.0157
  130MOL0     C17478   7.739   7.011   7.745 -0.0429 -0.7743 -0.1223
  130MOL0     C17479   7.602   6.969   7.780 -0.3989 -0.1682 -0.6755
  130MOL0     C17480   7.492   6.927   7.791 -0.1102  0.6757 -1.0335
  130MOL0     C17481   8.148   7.175   8.228 -0.4623  0.6089  1.4992
  130MOL0     C17482   8.231   7.244   8.311  0.3411  0.4497 -0.0489
  130MOL0     H17483   8.573   7.663   8.295  2.4773  0.5301  0.9316
  130MOL0     H17484   8.725   7.830   8.406  1.5067 -0.6595 -0.4659
  130MOL0     H17485   8.661   7.853   8.823  2.0318  0.3527  1.3442
  130MOL0     H17486   8.798   7.965   8.809 -0.2932 -0.1200  1.8560
  130MOL0     H17487   8.642   8.167   8.802  0.7836  0.1951 -0.2921
  130MOL0     H17488   8.503   8.063   8.784 -0.0744 -0.5440 -0.9845
  130MOL0     H17489   8.547   8.140   9.026  0.7447  1.0460 -0.2838
  130MOL0     H17490   8.554   7.958   8.999  0.8557 -0.5313  2.2345
  130MOL0     H17491   8.768   7.947   9.073  0.5240 -0.9701 -2.4721
  130MOL0     H17492   8.808   8.120   9.020 -1.0761  0.7107  0.7647
  130MOL0     H17493   8.815   8.139   9.237 -0.0942  0.7336  0.4243
  130MOL0     H17494   8.652   8.196   9.230 -0.2907 -0.4182  2.2271
  130MOL0     H17495   8.552   7.997   9.307  0.1819  1.4057 -1.6059
  130MOL0     H17496   8.695   7.904   9.282  2.4287  0.5485  3.6838
  130MOL0     H17497   8.820   8.023   9.449  0.3223  2.1362  3.2803
  130MOL0     H17498   8.704   8.143   9.482  0.7753 -1.1917  0.6377
  130MOL0     H17499   8.652   7.997   9.655 -3.8393 -1.4658  0.5132
  130MOL0     H17500   8.717   7.867   9.582 -1.1303 -0.9171  1.5963
  130MOL0     H17501   8.499   7.729   9.430  1.6938 -0.1131  2.2063
  130MOL0     H17502   8.173   7.810   9.329 -0.9940 -2.2881  0.2860
  130MOL0     H17503   8.251   7.661   9.389  0.8078 -0.5464  0.9253
  130MOL0     H17504   8.133   7.723   9.614  0.3438  2.1396  0.9822
  130MOL0     H17505   8.064   7.631   9.493 -0.0172 -0.4070  3.6887
  130MOL0     H17506   7.936   7.816   9.403 -1.4961 -0.0698  2.0639
  130MOL0     H17507   8.032   7.932   9.519  0.9609  1.2521 -0.7751
  130MOL0     H17508   7.824   7.744   9.592 -2.5378  1.3797  0.0003
  130MOL0     H17509   7.819   7.913   9.575  0.6430  0.8998  2.3792
  130MOL0     H17510   7.685   7.942   9.751 -3.3016  0.2215  3.1000
  130MOL0     H17511   7.484   8.010   9.882 -4.7752  1.9498  1.1524
  130MOL0     H17512   7.531   8.072  10.042  3.7005  3.3563  0.8850
  130MOL0     H17513   7.502   8.183   9.914 -0.5105  0.0388  2.3536
  130MOL0     H17514   8.043   8.325  10.397  0.4455 -0.9452  2.1836
  130MOL0     H17515   8.012   8.424  10.608  0.2172  0.2887 -0.0222
  130MOL0     H17516   7.679   8.610  10.806 -0.8562 -0.1544 -0.8502
  130MOL0     H17517   7.594   8.463  10.765  1.0188  0.7322 -3.0503
  130MOL0     H17518   7.672   8.361  10.965 -2.5662  0.5964 -0.7437
  130MOL0     H17519   7.773   8.515  11.011 -0.4510  2.4574 -0.7749
  130MOL0     H17520   7.474   8.529  10.962 -1.4554 -1.7376  1.9431
  130MOL0     H17521   7.585   8.645  11.040  4.1676 -0.8289  0.5007
  130MOL0     H17522   7.521   8.375  11.148 -0.1371 -0.7463  2.3347
  130MOL0     H17523   7.612   8.492  11.230 -2.8641 -3.5367  3.4375
  130MOL0     H17524   7.371   8.485  11.291  1.7114 -0.1813 -0.4752
  130MOL0     H17525   7.330   8.553  11.126 -2.1354  0.1751  1.7842
  130MOL0     H17526   7.507   8.684  11.319 -0.7346 -2.0255  0.0001
  130MOL0     H17527   7.418   8.753  11.176 -0.9234  3.0289  1.0995
  130MOL0     H17528   7.307   8.825  11.373 -1.7321 -0.3033 -0.2368
  130MOL0     H17529   7.277   8.658  11.429 -2.6194  2.3782  1.8274
  130MOL0     H17530   7.073   8.721  11.323  0.3962 -1.8303  0.1861
  130MOL0     H17531   7.159   8.606  11.227  0.2380  1.4103 -3.0766
  130MOL0     H17532   7.593   8.317  10.611  0.9378 -0.6103  2.9051
  130MOL0     H17533   7.612   8.266  10.372  0.1221 -1.8029  0.0901
  130MOL0     H17534   8.002   8.148  10.066 -0.5356  2.8522  0.6583
  130MOL0     H17535   8.073   8.008   9.903 -0.2728 -2.5517 -3.7668
  130MOL0     H17536   8.431   7.863   8.728  0.8223 -0.3400  0.5256
  130MOL0     H17537   8.283   7.722   8.612  1.0097  0.5903  2.4625
  130MOL0     H17538   8.116   7.558   8.219 -1.5025 -0.3429 -1.0237
  130MOL0     H17539   8.004   7.425   8.058 -0.9968  2.6896  1.2971
  130MOL0     H17540   8.143   7.033   7.978 -0.7566 -2.7230 -2.3665
  130MOL0     H17541   8.014   6.977   8.073  1.3605 -3.4638 -2.5531
  130MOL0     H17542   8.010   6.931   7.810 -1.2428  0.9753 -0.7171
  130MOL0     H17543   7.989   7.098   7.793  0.5304 -1.1720 -0.0582
  130MOL0     H17544   7.774   7.071   7.944 -1.4566  0.9394 -1.9115
  130MOL0     H17545   7.805   6.899   7.920  1.2028  1.3233  4.0031
  130MOL0     H17546   7.789   6.950   7.668 -0.8472 -0.5232 -0.8594
  130MOL0     H17547   7.745   7.112   7.705 -0.5294 -1.6762 -2.7461
  130MOL0     H17548   7.388   6.902   7.785 -0.8661  3.5527 -1.0571
  130MOL0     H17549   8.148   7.068   8.212  1.5827  1.0472 -2.7025
  130MOL0     H17550   8.281   7.189   8.389 -2.6227 -0.6287  1.2580
  131MOL0     O17551   2.770   5.293   8.730  0.2162 -0.3504 -0.2184
  131MOL0     C17552   2.796   5.173   8.734 -0.8504  0.0996  0.3979
  131MOL0     O17553   2.829   5.098   8.619  0.3922 -0.3180 -0.4603
  131MOL0     C17554   2.826   5.158   8.492 -0.4582  0.9580  0.2420
  131MOL0     C17555   2.726   5.246   8.449  0.7831  0.3532  0.2952
  131MOL0     C17556   2.716   5.294   8.319  0.3018  0.2574  0.5978
  131MOL0     C17557   2.800   5.240   8.224  0.6887 -0.0950  0.4759
  131MOL0     O17558   2.775   5.293   8.096  0.1290 -0.2173 -0.4264
  131MOL0     C17559   2.853   5.233   7.984  0.5272  0.9371 -0.9702
  131MOL0     C17560   2.803   5.300   7.854 -0.4714 -0.4761 -0.2466
  131MOL0     C17561   2.650   5.283   7.836 -0.2627 -0.2254  0.4355
  131MOL0     C17562   2.604   5.366   7.718 -0.0285  0.2756 -0.9577
  131MOL0     C17563   2.634   5.516   7.734 -0.5928  0.2270  1.2810
  131MOL0     C17564   2.587   5.585   7.613 -0.4296 -1.5872 -0.1340
  131MOL0     C17565   2.608   5.730   7.607 -0.2322 -0.2742  0.2152
  131MOL0     C17566   2.600   5.798   7.467  0.2548 -0.0301  1.0478
  131MOL0     N17567   2.468   5.795   7.407 -0.1605 -0.3052 -0.4633
  131MOL0     C17568   2.345   5.776   7.469 -0.3704  0.1201  0.1838
  131MOL0     C17569   2.255   5.762   7.365 -0.4641  0.4283  0.1344
  131MOL0     C17570   2.106   5.766   7.364  0.2871  1.2470  0.2886
  131MOL0     C17571   2.049   5.853   7.475  0.3869  0.0015  0.0822
  131MOL0     C17572   1.905   5.900   7.462 -0.2619 -0.4145 -0.3835
  131MOL0     C17573   1.860   5.975   7.586  0.2338  0.1488  0.0484
  131MOL0     O17574   1.839   5.886   7.703 -0.6419 -0.1071  0.3028
  131MOL0     C17575   1.846   5.929   7.828 -0.0798 -0.4185 -0.0672
  131MOL0     C17576   1.779   5.853   7.920 -0.8202  0.4475  1.3451
  131MOL0     C17577   1.796   5.866   8.052 -0.2580  0.2105 -0.0057
  131MOL0     C17578   1.728   5.784   8.149 -0.7958  0.3822  0.9033
  131MOL0     C17579   1.889   5.964   8.102 -0.6161  0.1275 -0.2598
  131MOL0     C17580   1.903   5.981   8.252 -0.3612  0.6897  0.1737
  131MOL0     O17581   1.858   6.102   8.296 -0.4736  0.2544  0.5854
  131MOL0     C17582   1.842   6.129   8.430  0.9743  0.2291 -0.5092
  131MOL0     C17583   1.826   6.266   8.468  0.3547 -0.3567  0.3295
  131MOL0     C17584   1.814   6.305   8.600  0.9829  1.2575  0.9683
  131MOL0     C17585   1.819   6.213   8.701 -0.0702  0.3559  0.3027
  131MOL0     O17586   1.785   6.256   8.827 -0.0047 -0.1703  0.3224
  131MOL0     C17587   1.819   6.185   8.947 -0.2394  0.6734 -0.3596
  131MOL0     C17588   1.693   6.117   9.012 -0.9771  0.4237  1.5017
  131MOL0     C17589   1.658   5.976   8.967  0.0691  0.4046  0.8970
  131MOL0     C17590   1.533   5.916   9.047  0.7109 -0.6513 -0.5392
  131MOL0     C17591   1.552   5.767   9.042  0.7069 -0.1387 -0.1430
  131MOL0     C17592   1.430   5.687   9.094  0.5702  0.1988  0.4161
  131MOL0     C17593   1.437   5.536   9.067  0.3520  0.5140  0.0535
  131MOL0     C17594   1.306   5.465   9.113  0.3622 -0.1236  0.1144
  131MOL0    Cl17595   1.252   5.482   9.285  0.4851  0.2668 -0.1916
  131MOL0     C17596   1.843   6.077   8.677 -0.0614 -0.2291 -0.4115
  131MOL0     C17597   1.849   6.039   8.542  0.4258  0.4427 -0.3054
  131MOL0     O17598   1.954   5.892   8.318 -0.6785 -0.5117  0.3246
  131MOL0     C17599   1.959   6.044   8.021 -0.5884  0.0173 -0.0018
  131MOL0     C17600   1.933   6.028   7.884 -0.7308  0.1442  0.2253
  131MOL0     N17601   2.317   5.785   7.243 -0.1282  0.1526 -0.5470
  131MOL0     N17602   2.443   5.808   7.273 -0.9561  0.5478 -0.6325
  131MOL0     C17603   2.902   5.160   8.266  0.0090  0.0375  0.0341
  131MOL0     C17604   2.911   5.109   8.396 -0.5096 -0.0137 -0.1790
  131MOL0     C17605   2.780   5.095   8.859 -0.0442  0.8850 -0.5373
  131MOL0     C17606   2.823   4.958   8.862  0.1047 -0.8176 -0.5024
  131MOL0     C17607   2.818   4.887   8.980  0.6931 -0.7370 -0.3743
  131MOL0     C17608   2.761   4.936   9.097 -0.3086  0.3152 -0.6814
  131MOL0     O17609   2.755   4.859   9.208  0.8050 -0.1628  0.6726
  131MOL0     C17610   2.743   4.920   9.339  0.3839 -0.1604 -0.2774
  131MOL0     C17611   2.882   4.948   9.379  0.4525 -1.0777  0.0642
  131MOL0     C17612   2.893   5.031   9.508 -0.4459 -0.7024 -0.2741
  131MOL0     C17613   3.040   5.048   9.554  0.5251  0.4235  0.2603
  131MOL0     C17614   3.034   5.085   9.694  0.4507  0.4861 -0.3546
  131MOL0     C17615   3.002   5.099   9.814 -0.6246  0.2016  0.4959
  131MOL0     C17616   2.714   5.068   9.098 -0.5440  0.6058  0.3890
  131MOL0     C17617   2.720   5.143   8.977 -0.8527  0.3450 -0.1809
  131MOL0     H17618   2.652   5.283   8.518 -0.4081  2.6654 -2.0182
  131MOL0     H17619   2.651   5.376   8.292  1.3361  0.3145 -2.0300
  131MOL0     H17620   2.962   5.245   7.990  0.6894 -0.9768  2.4186
  131MOL0     H17621   2.830   5.126   7.982 -2.2276  1.2632  3.0985
  131MOL0     H17622   2.823   5.407   7.868  0.8524 -0.4599 -1.9438
  131MOL0     H17623   2.862   5.255   7.773  1.0231  1.1485 -0.1200
  131MOL0     H17624   2.608   5.186   7.811 -4.1655  1.2361  0.6185
  131MOL0     H17625   2.602   5.312   7.930  1.9556 -2.3397  2.3602
  131MOL0     H17626   2.658   5.326   7.631  1.8041 -0.2957  0.3850
  131MOL0     H17627   2.495   5.357   7.713 -0.1977 -0.2952  2.2218
  131MOL0     H17628   2.580   5.568   7.814 -0.7531 -0.2162  1.4645
  131MOL0     H17629   2.741   5.539   7.730 -0.6965  0.6076  0.0700
  131MOL0     H17630   2.635   5.549   7.521 -1.3278  0.6988 -1.5691
  131MOL0     H17631   2.481   5.565   7.601 -0.2934 -1.2765 -2.0461
  131MOL0     H17632   2.550   5.793   7.675  0.1669  2.3079 -1.7050
  131MOL0     H17633   2.715   5.741   7.624 -0.2565  0.3475 -0.0386
  131MOL0     H17634   2.659   5.734   7.402 -0.6090 -1.2169  1.3935
  131MOL0     H17635   2.631   5.903   7.462 -0.9406  0.3482  1.1510
  131MOL0     H17636   2.327   5.752   7.573 -1.3316 -1.3500 -0.2911
  131MOL0     H17637   2.072   5.798   7.265  0.4714 -1.6729 -0.8419
  131MOL0     H17638   2.068   5.665   7.386  0.5495  1.1606  0.3496
  131MOL0     H17639   2.111   5.943   7.479  2.4004 -1.3215  0.0887
  131MOL0     H17640   2.056   5.792   7.565 -0.6043  1.4295  1.1667
  131MOL0     H17641   1.834   5.818   7.450  0.0151 -0.4834 -1.6388
  131MOL0     H17642   1.895   5.966   7.375 -2.0836  0.5600  0.5066
  131MOL0     H17643   1.761   6.018   7.566  0.2240  0.3745  0.5635
  131MOL0     H17644   1.922   6.064   7.601  0.5647  0.6030 -3.2119
  131MOL0     H17645   1.712   5.773   7.891  0.6869 -0.3002 -0.2583
  131MOL0     H17646   1.800   5.728   8.210  0.3700  0.1370 -0.6441
  131MOL0     H17647   1.671   5.850   8.215 -0.1352  1.8434  0.0423
  131MOL0     H17648   1.653   5.713   8.112  0.5224 -1.3620  1.4503
  131MOL0     H17649   1.836   6.334   8.384 -1.0408 -1.1446 -0.5193
  131MOL0     H17650   1.797   6.408   8.631 -3.3391  1.0950 -0.2833
  131MOL0     H17651   1.895   6.108   8.931 -0.6388  0.4459 -1.2542
  131MOL0     H17652   1.853   6.260   9.018  0.0115  0.1350  0.1009
  131MOL0     H17653   1.716   6.114   9.119 -0.7245 -2.7947  1.4527
  131MOL0     H17654   1.600   6.172   8.997 -1.1221 -0.4270 -1.4589
  131MOL0     H17655   1.750   5.918   8.965  0.8286  1.5857 -1.0838
  131MOL0     H17656   1.631   5.979   8.861 -1.4114 -0.7407  1.2181
  131MOL0     H17657   1.543   5.949   9.150 -2.4297 -2.0185  0.3096
  131MOL0     H17658   1.437   5.939   9.000  0.6697 -1.1056 -0.6790
  131MOL0     H17659   1.644   5.742   9.097 -0.1104 -1.5383  0.6496
  131MOL0     H17660   1.564   5.746   8.935  0.8337 -0.3120 -0.0961
  131MOL0     H17661   1.419   5.694   9.202  3.7155 -0.9938  0.9110
  131MOL0     H17662   1.336   5.725   9.052 -0.2286 -0.2276  1.7381
  131MOL0     H17663   1.523   5.502   9.125  1.1547  2.0299 -0.1851
  131MOL0     H17664   1.457   5.524   8.960  1.6383  0.7131  0.2494
  131MOL0     H17665   1.302   5.357   9.095 -1.5687  0.0606 -0.8152
  131MOL0     H17666   1.226   5.509   9.053 -0.6778  3.3649  3.6544
  131MOL0     H17667   1.841   6.010   8.763 -1.3543 -1.9251 -1.6952
  131MOL0     H17668   1.876   5.936   8.523 -1.2707 -0.1434  0.2757
  131MOL0     H17669   2.025   6.115   8.070 -1.8593  0.7833  0.6331
  131MOL0     H17670   1.972   6.115   7.831  1.7877  0.4933  2.4863
  131MOL0     H17671   2.991   5.128   8.212 -1.8811 -2.5447 -1.7698
  131MOL0     H17672   3.000   5.049   8.414  0.3224  1.0405 -0.5881
  131MOL0     H17673   2.867   4.909   8.776 -0.2053 -0.8069 -0.6650
  131MOL0     H17674   2.840   4.780   8.987 -2.1416 -1.4549 -1.2459
  131MOL0     H17675   2.674   5.005   9.341  0.0792 -0.4081  0.4314
  131MOL0     H17676   2.701   4.840   9.401 -0.5792 -1.9055 -3.0136
  131MOL0     H17677   2.935   5.011   9.307 -1.9955  0.3927 -0.5824
  131MOL0     H17678   2.934   4.852   9.378  0.6426 -1.0059  1.3658
  131MOL0     H17679   2.831   4.995   9.590  0.5442  0.5342  1.1002
  131MOL0     H17680   2.861   5.133   9.486  2.3418  0.1245 -0.9745
  131MOL0     H17681   3.083   5.119   9.483 -0.5214  1.1025  0.2891
  131MOL0     H17682   3.092   4.952   9.555 -0.8783 -0.4257  2.9947
  131MOL0     H17683   2.991   5.111   9.920  1.4604 -0.2315  0.7933
  131MOL0     H17684   2.649   5.119   9.168 -0.8490 -1.5159  1.7485
  131MOL0     H17685   2.674   5.241   8.967 -1.4408 -0.0077 -1.0346
  132MOL0     O17686   4.598   0.031   9.087 -0.1294 -0.8119  0.1555
  132MOL0     C17687   4.489  -0.021   9.079  0.0128 -0.2182  0.2563
  132MOL0     O17688   4.372   0.033   9.094 -0.4340  0.6436 -0.5094
  132MOL0     C17689   4.379   0.165   9.143 -0.0143  0.3565  0.3180
  132MOL0     C17690   4.319   0.204   9.261 -0.1752 -0.1919  0.3518
  132MOL0     C17691   4.321   0.341   9.306  0.1404 -0.5730  1.0115
  132MOL0     C17692   4.397   0.441   9.235  0.8202  1.2414 -0.3174
  132MOL0     O17693   4.413   0.566   9.272  0.5816 -0.2930 -0.1517
  132MOL0     C17694   4.380   0.595   9.411 -0.5848  1.5586 -0.3371
  132MOL0     C17695   4.471   0.515   9.510 -0.5690 -0.3627 -0.4625
  132MOL0     C17696   4.615   0.562   9.491  0.4014  0.2712  0.0634
  132MOL0     C17697   4.723   0.459   9.503 -0.4963 -0.8015 -0.4313
  132MOL0     C17698   4.867   0.499   9.469 -0.3441 -0.9707 -0.2512
  132MOL0     C17699   4.884   0.566   9.339 -0.2948  0.2326  0.4087
  132MOL0     C17700   4.859   0.479   9.218  0.1978  0.2764 -0.4794
  132MOL0     C17701   4.920   0.343   9.220 -0.1705  0.7976 -1.2439
  132MOL0     N17702   4.943   0.297   9.085 -0.9952 -0.4014 -0.0806
  132MOL0     C17703   4.856   0.239   9.003  0.1796  0.7923  0.5775
  132MOL0     C17704   4.918   0.237   8.885  0.8472 -0.2160 -0.2455
  132MOL0     C17705   4.875   0.205   8.736  0.4949 -0.8555 -0.4623
  132MOL0     C17706   4.872   0.047   8.705 -0.1802 -0.9041  0.6445
  132MOL0     C17707   5.006  -0.008   8.743 -0.8078  0.4278 -0.2803
  132MOL0     C17708   5.120   0.016   8.641  0.7345 -0.2433  0.2637
  132MOL0     O17709   5.081  -0.039   8.520 -0.3574 -0.2798 -0.9092
  132MOL0     C17710   5.146   0.023   8.417  1.1797 -0.5307  0.0514
  132MOL0     C17711   5.273   0.085   8.412  0.3246 -0.3311  1.2318
  132MOL0     C17712   5.315   0.155   8.293 -0.2111 -0.9991 -0.1228
  132MOL0     C17713   5.454   0.218   8.303  1.0074 -0.1535 -0.2027
  132MOL0     C17714   5.228   0.157   8.178 -0.3857  0.2979  1.0889
  132MOL0     C17715   5.261   0.232   8.048 -0.0938  1.2823 -0.1661
  132MOL0     O17716   5.310   0.359   8.057 -0.4306  0.2652  0.0963
  132MOL0     C17717   5.319   0.428   7.940 -0.0139 -0.1793 -0.4417
  132MOL0     C17718   5.205   0.484   7.883  0.0032  1.0076  0.0356
  132MOL0     C17719   5.226   0.563   7.772  1.3327 -0.1688 -0.2302
  132MOL0     C17720   5.355   0.603   7.730 -0.6013 -0.6530  1.1360
  132MOL0     O17721   5.381   0.670   7.605  0.3257 -0.1682  0.3452
  132MOL0     C17722   5.288   0.782   7.569 -0.4805  0.2091 -0.0726
  132MOL0     C17723   5.341   0.918   7.612 -0.3068  0.2760 -0.0978
  132MOL0     C17724   5.485   0.950   7.596 -0.3613 -0.1270  0.8062
  132MOL0     C17725   5.517   0.942   7.449  0.0725 -0.3957  0.1303
  132MOL0     C17726   5.660   0.990   7.420  0.0254  0.0317  0.5135
  132MOL0     C17727   5.741   0.859   7.446  0.2919 -1.0252 -0.4129
  132MOL0     C17728   5.884   0.889   7.496  0.5249 -0.5307 -0.3842
  132MOL0     C17729   5.969   0.759   7.523  1.1910  0.3186  0.9911
  132MOL0    Cl17730   5.955   0.637   7.395 -0.0914  0.5173 -0.1135
  132MOL0     C17731   5.467   0.549   7.787  0.5367  1.4896 -0.1317
  132MOL0     C17732   5.454   0.457   7.898  0.6031 -0.5569 -0.1562
  132MOL0     O17733   5.232   0.171   7.945 -0.1138  0.4322  0.2582
  132MOL0     C17734   5.105   0.091   8.177 -0.1792 -0.5060 -0.5824
  132MOL0     C17735   5.062   0.031   8.297  0.5196 -0.0368 -0.4160
  132MOL0     N17736   5.043   0.296   8.898 -0.1129  0.3193  0.2939
  132MOL0     N17737   5.055   0.330   9.019 -0.1073  0.4778  0.8479
  132MOL0     C17738   4.465   0.396   9.115  1.7143 -0.7512  0.1607
  132MOL0     C17739   4.444   0.265   9.067 -0.8190 -0.1305 -0.7284
  132MOL0     C17740   4.488  -0.173   9.061  0.3930  0.3892 -0.0259
  132MOL0     C17741   4.374  -0.242   8.994 -0.6214 -0.2828 -0.4622
  132MOL0     C17742   4.386  -0.383   8.973  0.3023 -0.8371 -0.2479
  132MOL0     C17743   4.491  -0.462   9.011 -0.5886 -1.3097 -0.0495
  132MOL0     O17744   4.489  -0.600   8.999  0.1962  0.6886 -0.1209
  132MOL0     C17745   4.397  -0.663   9.085 -0.4457 -0.0732 -0.4436
  132MOL0     C17746   4.415  -0.647   9.234  0.1138 -0.3717  0.1567
  132MOL0     C17747   4.544  -0.712   9.278 -0.7584 -0.5353 -0.2355
  132MOL0     C17748   4.588  -0.664   9.415  0.4954 -0.1739 -0.8580
  132MOL0     C17749   4.625  -0.523   9.415 -0.0722  0.6479 -0.4245
  132MOL0     C17750   4.666  -0.407   9.396  0.4797  0.1312  0.0559
  132MOL0     C17751   4.606  -0.396   9.071  1.2903 -0.0161 -1.1941
  132MOL0     C17752   4.598  -0.253   9.088 -0.6937 -0.7575 -0.4130
  132MOL0     H17753   4.268   0.126   9.317  0.4788 -1.1910 -0.4124
  132MOL0     H17754   4.255   0.361   9.390  0.8617 -0.7774  1.6335
  132MOL0     H17755   4.402   0.701   9.426  0.4453  1.4770 -1.1687
  132MOL0     H17756   4.275   0.574   9.434 -0.1009 -1.5009 -0.5115
  132MOL0     H17757   4.444   0.541   9.613 -0.0214  0.0522 -0.4212
  132MOL0     H17758   4.466   0.406   9.511 -0.5342 -0.4113 -2.5935
  132MOL0     H17759   4.625   0.607   9.391 -1.1898  0.5339 -0.0026
  132MOL0     H17760   4.619   0.638   9.569 -0.6402 -2.3311  2.8384
  132MOL0     H17761   4.728   0.430   9.608 -3.7509 -0.2661 -0.0266
  132MOL0     H17762   4.701   0.370   9.443  1.0106 -0.5832 -1.3508
  132MOL0     H17763   4.898   0.559   9.554  3.6030 -2.4953 -0.3989
  132MOL0     H17764   4.936   0.414   9.478 -1.1616 -1.7678 -1.2475
  132MOL0     H17765   4.829   0.661   9.341 -0.6524  0.0389  2.3154
  132MOL0     H17766   4.987   0.602   9.341  0.0836 -0.8105  2.5678
  132MOL0     H17767   4.752   0.459   9.203 -0.2502  0.6108  1.8279
  132MOL0     H17768   4.888   0.527   9.124  3.2135 -2.2705 -1.0133
  132MOL0     H17769   4.849   0.281   9.276  0.5671  1.4696  0.5198
  132MOL0     H17770   5.014   0.349   9.276 -1.7399  0.1134  1.6745
  132MOL0     H17771   4.749   0.224   9.016  0.4072 -1.0729  0.5195
  132MOL0     H17772   4.783   0.256   8.704  1.4939  0.7686 -0.8600
  132MOL0     H17773   4.957   0.237   8.672 -1.0750 -0.3272 -2.3213
  132MOL0     H17774   4.853   0.038   8.598  1.2817  1.2559  0.1570
  132MOL0     H17775   4.790   0.005   8.765  0.5255  0.2220  2.4546
  132MOL0     H17776   4.993  -0.116   8.748  0.8820  0.2583  1.5564
  132MOL0     H17777   5.047   0.026   8.838  2.7565  4.5661 -2.9182
  132MOL0     H17778   5.215  -0.025   8.676  0.6817 -0.3314  0.3033
  132MOL0     H17779   5.130   0.124   8.626  0.7071 -0.1736  0.7459
  132MOL0     H17780   5.339   0.083   8.498  3.9245  1.2197 -1.1995
  132MOL0     H17781   5.521   0.197   8.220 -1.8937  1.0018 -3.0671
  132MOL0     H17782   5.445   0.327   8.308  0.3887 -0.1420 -1.3300
  132MOL0     H17783   5.493   0.196   8.403  0.2343 -1.2060 -0.1160
  132MOL0     H17784   5.107   0.468   7.926  0.4677  3.1123  2.0889
  132MOL0     H17785   5.132   0.595   7.727  1.0024  0.1116  0.6477
  132MOL0     H17786   5.283   0.769   7.460  0.7369 -2.5888  0.1115
  132MOL0     H17787   5.187   0.759   7.604  1.0024 -3.4728  2.4790
  132MOL0     H17788   5.287   1.001   7.566 -0.7838  0.1775  0.2807
  132MOL0     H17789   5.324   0.922   7.720  1.9892  2.7432  0.2726
  132MOL0     H17790   5.538   0.870   7.648 -1.8685 -1.0784  0.9443
  132MOL0     H17791   5.522   1.048   7.628  1.8132 -0.8019  0.4800
  132MOL0     H17792   5.499   0.844   7.406 -0.3761 -0.9151  1.4469
  132MOL0     H17793   5.450   1.015   7.401  0.4330  1.0911  1.7733
  132MOL0     H17794   5.697   1.068   7.487  0.1149  1.5641 -1.2477
  132MOL0     H17795   5.673   1.031   7.319 -1.9111 -2.3594 -0.8278
  132MOL0     H17796   5.690   0.797   7.520  0.9235  1.8627  2.6931
  132MOL0     H17797   5.749   0.805   7.351 -3.5353 -0.8581 -0.9826
  132MOL0     H17798   5.892   0.945   7.590 -2.6448  1.7675 -1.3138
  132MOL0     H17799   5.938   0.947   7.421  0.2416  2.4000  1.4855
  132MOL0     H17800   5.927   0.720   7.616 -1.7861  2.1789  0.5769
  132MOL0     H17801   6.074   0.780   7.545  1.5309 -2.9894  3.2959
  132MOL0     H17802   5.566   0.556   7.744  0.9190 -4.1877 -1.0473
  132MOL0     H17803   5.548   0.430   7.947  0.3585 -0.8616  0.1474
  132MOL0     H17804   5.045   0.082   8.086 -1.5501 -0.4598  0.2853
  132MOL0     H17805   4.971  -0.022   8.323  0.8808 -0.4513  0.0366
  132MOL0     H17806   4.516   0.480   9.070  0.3807  0.2841  0.5003
  132MOL0     H17807   4.488   0.226   8.976 -2.6732 -1.7507 -1.0048
  132MOL0     H17808   4.280  -0.193   8.974  0.0546  2.0083  1.4475
  132MOL0     H17809   4.295  -0.436   8.944  1.7464 -1.8940 -3.2369
  132MOL0     H17810   4.296  -0.625   9.064 -0.8638 -0.4969  0.7210
  132MOL0     H17811   4.399  -0.770   9.064 -0.5715  0.1388 -1.6023
  132MOL0     H17812   4.346  -0.705   9.295  1.8252 -1.0568  1.5402
  132MOL0     H17813   4.409  -0.538   9.246 -3.7836 -0.6362  1.8897
  132MOL0     H17814   4.629  -0.678   9.219 -0.7322 -0.2655 -0.0421
  132MOL0     H17815   4.537  -0.820   9.258 -1.6570 -0.3977 -0.7303
  132MOL0     H17816   4.669  -0.724   9.458  0.1626  0.7582  1.1747
  132MOL0     H17817   4.502  -0.669   9.482 -0.0985  1.8426 -1.4028
  132MOL0     H17818   4.707  -0.311   9.374  1.0712  0.3960  2.0782
  132MOL0     H17819   4.682  -0.465   9.104  2.0000  1.7419  1.1350
  132MOL0     H17820   4.692  -0.212   9.124 -2.0743  1.1132  1.2806
  133MOL0     O17821   9.871   9.191   8.436 -0.1896  0.5155 -0.3018
  133MOL0     C17822   9.977   9.155   8.483  0.8776 -0.6196 -0.4546
  133MOL0     O17823   9.986   9.083   8.604  0.2703 -0.1950 -0.1273
  133MOL0     C17824   9.879   9.050   8.684 -1.0865  0.5257  0.4526
  133MOL0     C17825   9.760   9.108   8.694  0.2287  0.0309  0.9517
  133MOL0     C17826   9.664   9.074   8.789 -0.0267  1.0308  0.4333
  133MOL0     C17827   9.697   8.978   8.887  0.3593  0.0429 -0.2773
  133MOL0     O17828   9.620   8.933   8.994  0.2779 -0.7528 -1.0326
  133MOL0     C17829   9.480   8.911   8.970 -0.0268 -0.0027 -0.4881
  133MOL0     C17830   9.426   8.831   9.086  1.4426  0.3153 -0.2865
  133MOL0     C17831   9.282   8.852   9.117  1.2963 -0.0731  0.1772
  133MOL0     C17832   9.193   8.910   9.017  0.4856  0.0057 -1.4187
  133MOL0     C17833   9.048   8.919   9.079 -0.2830 -0.5561  0.9103
  133MOL0     C17834   8.963   9.009   8.979  0.7003  0.1051 -0.8282
  133MOL0     C17835   8.821   9.032   9.040  1.4292  0.2792 -0.6413
  133MOL0     C17836   8.713   9.032   8.921  0.0144  0.2263  1.4254
  133MOL0     N17837   8.728   9.143   8.824 -0.7369  0.4939 -0.0890
  133MOL0     C17838   8.788   9.266   8.841 -0.4141  0.4079  0.2147
  133MOL0     C17839   8.769   9.332   8.727 -0.2219 -0.0401  0.3176
  133MOL0     C17840   8.831   9.467   8.690 -0.0074  1.5761 -0.9390
  133MOL0     C17841   8.959   9.422   8.610 -0.7346 -0.5647  0.0031
  133MOL0     C17842   8.937   9.379   8.460  0.9333  0.0831  0.5332
  133MOL0     C17843   8.920   9.500   8.361  0.1900  0.4367 -0.1823
  133MOL0     O17844   8.922   9.462   8.226 -0.7205  0.1371 -0.0402
  133MOL0     C17845   8.924   9.538   8.114 -0.8902 -0.0231  0.0070
  133MOL0     C17846   8.902   9.674   8.126  0.1392 -0.1189  0.3419
  133MOL0     C17847   8.885   9.754   8.009 -0.3272  0.4703  0.1433
  133MOL0     C17848   8.867   9.907   8.021 -0.0654 -0.5835 -0.2746
  133MOL0     C17849   8.886   9.684   7.881 -0.1724 -0.2167  0.2985
  133MOL0     C17850   8.858   9.744   7.747 -0.3952  0.1320 -0.1058
  133MOL0     O17851   8.871   9.658   7.637  0.5785 -0.4070  0.3908
  133MOL0     C17852   8.800   9.705   7.523  0.0098  0.0525  1.6197
  133MOL0     C17853   8.860   9.778   7.410  0.4985  1.1821  0.1632
  133MOL0     C17854   8.782   9.791   7.289  0.0808  0.0243 -0.2762
  133MOL0     C17855   8.660   9.735   7.275  0.1151 -0.4723 -0.7852
  133MOL0     O17856   8.614   9.740   7.142 -0.1951  0.1252 -0.4344
  133MOL0     C17857   8.485   9.702   7.099 -0.0052 -1.2592 -0.0665
  133MOL0     C17858   8.380   9.822   7.119 -0.2443  0.9172 -0.1892
  133MOL0     C17859   8.233   9.766   7.111 -0.2284 -0.1931 -0.1881
  133MOL0     C17860   8.192   9.664   7.013  0.2333  0.3100  0.6747
  133MOL0     C17861   8.047   9.626   7.029  0.1013 -0.6934  0.4944
  133MOL0     C17862   8.027   9.521   7.137  0.0537  1.5351  0.3734
  133MOL0     C17863   7.883   9.509   7.180  0.1425 -0.4230 -0.5385
  133MOL0     C17864   7.867   9.383   7.264 -0.1475 -0.6760 -0.2258
  133MOL0    Cl17865   7.981   9.355   7.403 -0.3318 -0.0196  0.4771
  133MOL0     C17866   8.600   9.668   7.380  0.8725  0.0589 -0.0002
  133MOL0     C17867   8.666   9.657   7.505  0.3242 -0.1038 -0.5854
  133MOL0     O17868   8.809   9.855   7.745  0.3721 -0.0668  0.1854
  133MOL0     C17869   8.916   9.549   7.878  0.7970 -0.2842  0.5286
  133MOL0     C17870   8.935   9.476   7.994  0.0622  0.7581 -1.2478
  133MOL0     N17871   8.702   9.245   8.632  0.0919  0.1002 -0.1848
  133MOL0     N17872   8.686   9.134   8.699  0.5158  0.5908  0.4326
  133MOL0     C17873   9.828   8.915   8.879 -0.7739 -0.1930  0.5054
  133MOL0     C17874   9.918   8.952   8.772 -0.2501  1.1673  0.4521
  133MOL0     C17875  10.110   9.191   8.416  0.4080  0.1046  1.0339
  133MOL0     C17876  10.213   9.096   8.401 -0.3564  0.2067 -0.0346
  133MOL0     C17877  10.321   9.130   8.319 -0.0794 -0.0956  0.0729
  133MOL0     C17878  10.327   9.247   8.241  0.6420 -0.5188 -0.3641
  133MOL0     O17879  10.432   9.255   8.153 -0.1026 -0.8938 -0.1013
  133MOL0     C17880  10.448   9.358   8.054  0.3191 -0.3663 -0.4917
  133MOL0     C17881  10.473   9.501   8.095  0.2986 -0.2141 -0.1241
  133MOL0     C17882  10.596   9.493   8.187  0.3020  0.8660 -0.7074
  133MOL0     C17883  10.632   9.627   8.241  0.1348  0.6900 -0.4720
  133MOL0     C17884  10.751   9.627   8.322 -0.2352 -0.2993 -0.1601
  133MOL0     C17885  10.851   9.644   8.385  0.1188  0.2686  0.5175
  133MOL0     C17886  10.223   9.342   8.270 -0.7448 -0.5401 -0.0931
  133MOL0     C17887  10.126   9.312   8.350  0.0537 -0.5450  0.6622
  133MOL0     H17888   9.744   9.183   8.617 -2.2424 -0.8745  0.5006
  133MOL0     H17889   9.565   9.119   8.794  0.9453  3.2985  0.4271
  133MOL0     H17890   9.435   9.010   8.965 -1.8066 -0.6773  1.0392
  133MOL0     H17891   9.452   8.860   8.877 -0.8713 -1.7176  0.6521
  133MOL0     H17892   9.445   8.728   9.053  0.7589 -0.4384  1.5151
  133MOL0     H17893   9.490   8.837   9.175 -0.3295 -0.8408  1.1309
  133MOL0     H17894   9.231   8.758   9.141 -0.3200  0.7004 -0.1012
  133MOL0     H17895   9.283   8.896   9.218 -0.0435 -4.0555  2.1595
  133MOL0     H17896   9.217   9.010   8.981 -0.6730  0.2436 -1.5910
  133MOL0     H17897   9.198   8.839   8.934  2.9518 -1.5239 -0.0614
  133MOL0     H17898   9.002   8.821   9.095 -3.1409  1.0329  3.5720
  133MOL0     H17899   9.048   8.963   9.179 -1.3943  0.7664  0.3692
  133MOL0     H17900   9.012   9.107   8.978 -0.1896  0.6078  0.6914
  133MOL0     H17901   8.965   8.979   8.874 -1.0582  0.3801 -0.9767
  133MOL0     H17902   8.788   8.954   9.108  0.5062  0.9969 -0.2367
  133MOL0     H17903   8.809   9.131   9.086 -1.4440 -0.0587 -0.4852
  133MOL0     H17904   8.612   9.034   8.965 -1.7955  3.3503 -2.2434
  133MOL0     H17905   8.718   8.940   8.864  4.7041  1.6257 -0.9425
  133MOL0     H17906   8.839   9.304   8.929  0.3119 -2.2082  1.0171
  133MOL0     H17907   8.752   9.522   8.638 -1.7227  0.2496  0.1011
  133MOL0     H17908   8.858   9.511   8.786 -0.5948 -1.7413  0.9172
  133MOL0     H17909   9.019   9.344   8.656  1.8101  0.8219 -0.7357
  133MOL0     H17910   9.023   9.511   8.601 -0.7845 -0.6914 -2.5313
  133MOL0     H17911   8.868   9.297   8.437  2.1620 -0.5342 -1.1659
  133MOL0     H17912   9.031   9.332   8.430  0.8827  0.9330 -1.0775
  133MOL0     H17913   8.993   9.578   8.381  0.5685  0.2107 -0.6667
  133MOL0     H17914   8.826   9.550   8.388 -0.6710 -1.6178  0.8582
  133MOL0     H17915   8.892   9.729   8.219 -0.9488 -2.5757  1.7738
  133MOL0     H17916   8.760   9.926   8.032  0.3416  2.4757 -0.5643
  133MOL0     H17917   8.911   9.952   8.110 -2.5423 -2.2865  1.9256
  133MOL0     H17918   8.907   9.949   7.927 -0.1980 -0.9630 -0.5013
  133MOL0     H17919   8.956   9.827   7.417 -0.4016  2.8302  2.0215
  133MOL0     H17920   8.831   9.827   7.199  4.0557 -1.9655  0.8414
  133MOL0     H17921   8.490   9.687   6.991  2.7393 -1.9605  0.0799
  133MOL0     H17922   8.465   9.607   7.149 -0.7784 -1.2835 -0.4146
  133MOL0     H17923   8.406   9.872   7.213  1.0505 -0.0338 -0.0080
  133MOL0     H17924   8.399   9.896   7.041 -0.4877  2.6008  1.2953
  133MOL0     H17925   8.157   9.845   7.111  1.1315  1.1809 -0.4963
  133MOL0     H17926   8.210   9.719   7.207 -2.9706 -1.6690 -1.4665
  133MOL0     H17927   8.201   9.706   6.912  2.8677 -1.1757  0.2047
  133MOL0     H17928   8.255   9.576   7.027  0.5079  0.6746  1.8549
  133MOL0     H17929   8.005   9.594   6.933 -2.0938  0.9657  0.8409
  133MOL0     H17930   7.996   9.709   7.078  0.5909 -2.1945  3.8689
  133MOL0     H17931   8.050   9.423   7.094  0.2388  0.6876  2.2891
  133MOL0     H17932   8.094   9.533   7.223 -1.0527  0.3596  1.4428
  133MOL0     H17933   7.808   9.509   7.100 -1.3788  0.1564  0.8332
  133MOL0     H17934   7.852   9.596   7.239  2.0429  0.8105 -1.2446
  133MOL0     H17935   7.880   9.295   7.200 -0.9468 -1.6786  0.9483
  133MOL0     H17936   7.762   9.384   7.296  0.3713  1.7974  1.6970
  133MOL0     H17937   8.498   9.631   7.383 -0.2805  2.7698 -2.0780
  133MOL0     H17938   8.617   9.593   7.578 -0.9360 -1.1032 -2.2400
  133MOL0     H17939   8.913   9.483   7.792  3.7224 -1.3351  1.0980
  133MOL0     H17940   8.925   9.368   8.002 -4.7086  1.1607  2.9512
  133MOL0     H17941   9.862   8.839   8.948 -2.6558 -2.2473 -0.7061
  133MOL0     H17942  10.019   8.914   8.763 -1.7132 -2.7803 -1.2776
  133MOL0     H17943  10.193   9.001   8.448 -1.4391  0.6756  0.4841
  133MOL0     H17944  10.401   9.059   8.297  0.5761 -0.0718  2.1852
  133MOL0     H17945  10.539   9.326   8.002  3.7836  4.2463  2.0345
  133MOL0     H17946  10.359   9.353   7.989  1.3821 -1.9272 -1.9223
  133MOL0     H17947  10.392   9.550   8.149 -1.6898 -5.1124  1.9383
  133MOL0     H17948  10.502   9.560   8.007  1.6315 -1.8315 -0.8295
  133MOL0     H17949  10.693   9.462   8.146  0.0331 -1.1824  0.0914
  133MOL0     H17950  10.577   9.425   8.271  2.6547  0.1282 -0.6941
  133MOL0     H17951  10.552   9.666   8.304  0.5402 -0.1600  0.5949
  133MOL0     H17952  10.645   9.700   8.160 -1.5137  0.0063 -1.3996
  133MOL0     H17953  10.937   9.679   8.439  0.0313  1.1943  0.0795
  133MOL0     H17954  10.220   9.432   8.210 -3.0948  0.0701  0.8556
  133MOL0     H17955  10.045   9.383   8.350  2.6760  2.8318 -2.1081
  134MOL0     O17956   9.970   4.787   8.107 -0.1259 -0.7556 -0.2000
  134MOL0     C17957   9.885   4.832   8.031 -0.0905  0.0542  0.9108
  134MOL0     O17958   9.777   4.761   7.983 -0.4127 -0.5650 -0.7797
  134MOL0     C17959   9.754   4.623   7.994  0.1776 -0.8985 -0.6792
  134MOL0     C17960   9.808   4.532   8.087 -0.9807  0.6067  0.6176
  134MOL0     C17961   9.783   4.389   8.080  0.8929  0.0050  0.3484
  134MOL0     C17962   9.683   4.340   7.997 -0.4717  0.0735  0.3920
  134MOL0     O17963   9.646   4.210   7.999 -0.8820  1.0092 -0.3678
  134MOL0     C17964   9.508   4.178   7.992  0.2929 -0.3799  0.3330
  134MOL0     C17965   9.482   4.136   7.846  0.5215  0.1860  0.3787
  134MOL0     C17966   9.581   4.047   7.788 -1.6327 -0.1514  0.2576
  134MOL0     C17967   9.517   3.981   7.662  0.0089 -0.2121 -0.6740
  134MOL0     C17968   9.583   3.844   7.632 -0.0132 -0.3438  0.5520
  134MOL0     C17969   9.511   3.776   7.511 -0.2489  0.3676 -0.3001
  134MOL0     C17970   9.381   3.701   7.557  0.2762 -0.1300  0.3806
  134MOL0     C17971   9.332   3.617   7.436 -0.2218  0.5594 -0.4059
  134MOL0     N17972   9.201   3.541   7.461 -0.4327 -0.2562  0.6584
  134MOL0     C17973   9.193   3.430   7.541 -0.1161  0.8049 -0.1564
  134MOL0     C17974   9.075   3.371   7.508  0.4695  0.1605 -0.5598
  134MOL0     C17975   8.998   3.270   7.581  0.5000  0.1129  0.0261
  134MOL0     C17976   8.956   3.304   7.718  0.3445  0.5568  0.0673
  134MOL0     C17977   8.847   3.415   7.712  0.5432  0.4774  0.4236
  134MOL0     C17978   8.707   3.362   7.687  1.1362 -0.6816 -0.2598
  134MOL0     O17979   8.663   3.334   7.553  0.7310  0.6039  0.2940
  134MOL0     C17980   8.532   3.358   7.524 -0.3553 -0.6258 -0.2112
  134MOL0     C17981   8.415   3.352   7.603 -0.1353 -0.7241  1.0960
  134MOL0     C17982   8.286   3.384   7.552 -0.1787 -0.5291 -0.0641
  134MOL0     C17983   8.163   3.359   7.636  0.5040  0.0992  0.5807
  134MOL0     C17984   8.269   3.441   7.420  0.2155 -1.5411 -0.3523
  134MOL0     C17985   8.140   3.496   7.361 -0.3753  0.5032  0.5547
  134MOL0     O17986   8.023   3.489   7.427 -0.1370 -0.8617 -0.5626
  134MOL0     C17987   7.907   3.525   7.372  0.3782 -0.9347 -0.7052
  134MOL0     C17988   7.816   3.426   7.342  0.1923 -0.2059  0.0165
  134MOL0     C17989   7.695   3.454   7.283 -0.3312 -0.3489  0.6002
  134MOL0     C17990   7.642   3.580   7.284 -1.3486 -0.4591  0.5166
  134MOL0     O17991   7.508   3.588   7.252 -0.1886 -0.1898 -0.3098
  134MOL0     C17992   7.474   3.716   7.182 -0.3772  0.7487 -1.1760
  134MOL0     C17993   7.352   3.690   7.090 -0.4685 -0.0587 -0.3271
  134MOL0     C17994   7.381   3.575   6.990 -0.4433 -0.2559  0.1655
  134MOL0     C17995   7.318   3.613   6.857  0.4344  0.6026  0.0488
  134MOL0     C17996   7.336   3.511   6.746  0.0801 -0.1634  0.4874
  134MOL0     C17997   7.258   3.383   6.773 -0.6656 -0.7888 -0.3874
  134MOL0     C17998   7.329   3.246   6.745  0.2566  0.0888 -0.6699
  134MOL0     C17999   7.231   3.126   6.780  0.5898 -1.0071  0.1189
  134MOL0    Cl18000   7.127   3.095   6.641  0.1895 -0.1974 -0.1955
  134MOL0     C18001   7.728   3.692   7.320  0.0144  0.6142  0.5931
  134MOL0     C18002   7.853   3.653   7.364 -0.4205 -0.2712 -0.1165
  134MOL0     O18003   8.146   3.550   7.252  0.3979 -0.2078  0.9850
  134MOL0     C18004   8.388   3.447   7.346  0.7304  0.8404  0.7468
  134MOL0     C18005   8.513   3.397   7.397 -0.2931 -0.6353 -0.4245
  134MOL0     N18006   9.021   3.444   7.414 -0.0840 -0.0106  1.2507
  134MOL0     N18007   9.090   3.551   7.387 -0.2385  0.3810 -0.1924
  134MOL0     C18008   9.640   4.434   7.895 -0.4879  0.0407 -0.6602
  134MOL0     C18009   9.670   4.568   7.894 -0.3078 -0.0504 -0.8674
  134MOL0     C18010   9.888   4.967   7.979  0.3784  0.0669 -0.1675
  134MOL0     C18011   9.991   5.053   7.994 -0.4255 -0.8414 -0.9538
  134MOL0     C18012   9.999   5.178   7.931  0.2651 -0.4017 -0.8301
  134MOL0     C18013   9.906   5.217   7.838  0.3348  0.9117 -1.0417
  134MOL0     O18014   9.921   5.344   7.782  0.4042  0.4371  0.3921
  134MOL0     C18015   9.804   5.408   7.740 -0.8186  0.0272 -1.2475
  134MOL0     C18016   9.835   5.556   7.744 -0.2149  0.0643 -0.4627
  134MOL0     C18017   9.713   5.645   7.721 -0.0601  0.2231 -0.3988
  134MOL0     C18018   9.717   5.782   7.803 -0.3381  0.1965  0.0275
  134MOL0     C18019   9.845   5.841   7.795 -0.3693  0.2779 -0.4478
  134MOL0     C18020   9.955   5.895   7.796 -0.2539  0.1321 -0.0197
  134MOL0     C18021   9.788   5.138   7.820  0.0850  1.3865 -0.0234
  134MOL0     C18022   9.784   5.014   7.895  0.6371  0.2142  0.1696
  134MOL0     H18023   9.877   4.565   8.164 -0.7780 -1.5685  1.4386
  134MOL0     H18024   9.824   4.318   8.151 -0.0872 -2.2029 -1.1813
  134MOL0     H18025   9.484   4.102   8.067  0.4429 -0.7673 -0.0053
  134MOL0     H18026   9.450   4.265   8.024 -1.0452 -0.5167 -1.5407
  134MOL0     H18027   9.385   4.087   7.857  0.7334  0.1748  2.6377
  134MOL0     H18028   9.462   4.216   7.775 -0.9645 -2.1977 -2.1027
  134MOL0     H18029   9.664   4.113   7.761 -1.2469 -0.9380 -0.5716
  134MOL0     H18030   9.616   3.967   7.854  0.2577  0.7269  0.3947
  134MOL0     H18031   9.410   3.964   7.679  0.2592  1.1374  3.0518
  134MOL0     H18032   9.527   4.054   7.581  2.3827  2.5375  1.8528
  134MOL0     H18033   9.692   3.852   7.618 -0.2529  1.9508 -0.4897
  134MOL0     H18034   9.567   3.777   7.717 -6.0586 -2.2231 -1.5304
  134MOL0     H18035   9.491   3.852   7.436  1.4210  0.9353 -0.2177
  134MOL0     H18036   9.571   3.693   7.473 -1.7960  0.6586 -3.6931
  134MOL0     H18037   9.397   3.626   7.635 -2.1382 -1.2696 -0.1062
  134MOL0     H18038   9.310   3.779   7.586  1.9742  1.1289  1.2981
  134MOL0     H18039   9.406   3.543   7.406  0.2660  0.4905  0.9137
  134MOL0     H18040   9.325   3.678   7.346  2.9071  0.9671 -0.4841
  134MOL0     H18041   9.253   3.405   7.628 -0.5304  0.3305  0.0011
  134MOL0     H18042   8.913   3.235   7.522 -1.2838  1.7246  1.4921
  134MOL0     H18043   9.070   3.188   7.583  3.5294  2.5344  2.5667
  134MOL0     H18044   9.038   3.337   7.783  0.8914 -3.3076  1.6185
  134MOL0     H18045   8.915   3.209   7.753 -1.8479  0.6023 -2.1452
  134MOL0     H18046   8.875   3.490   7.638 -1.8481  1.0305  0.0090
  134MOL0     H18047   8.841   3.467   7.808  4.1483  1.7062  0.1413
  134MOL0     H18048   8.637   3.436   7.728 -1.4770 -2.2797 -1.5796
  134MOL0     H18049   8.681   3.269   7.738 -0.2164 -1.2796 -1.9266
  134MOL0     H18050   8.435   3.322   7.705  1.6288 -1.1827  0.6520
  134MOL0     H18051   8.094   3.301   7.574 -0.2769  0.3912  1.1567
  134MOL0     H18052   8.197   3.300   7.721  2.8357 -1.0922 -1.0591
  134MOL0     H18053   8.123   3.456   7.669 -0.7065 -0.1975  0.0501
  134MOL0     H18054   7.853   3.324   7.347  2.2116  0.5052  0.6698
  134MOL0     H18055   7.637   3.372   7.240  1.3027 -0.7794 -0.9094
  134MOL0     H18056   7.447   3.786   7.262  0.8715  1.2809 -1.1872
  134MOL0     H18057   7.554   3.751   7.117 -2.1786  2.2615 -2.6871
  134MOL0     H18058   7.277   3.660   7.164  0.1095  2.2270  1.3247
  134MOL0     H18059   7.307   3.780   7.046 -1.9915 -0.2445  0.7610
  134MOL0     H18060   7.347   3.481   7.035  2.8405 -0.3349  2.9000
  134MOL0     H18061   7.491   3.569   6.985 -0.4534  0.1866 -0.9201
  134MOL0     H18062   7.210   3.626   6.871  0.4926 -0.3128  1.5704
  134MOL0     H18063   7.351   3.709   6.817 -2.0365  1.8223  0.7579
  134MOL0     H18064   7.437   3.494   6.706 -0.0302  0.0694  0.1053
  134MOL0     H18065   7.286   3.571   6.669 -0.4460  1.2366  1.8681
  134MOL0     H18066   7.207   3.379   6.869 -1.4054 -0.6486 -0.7635
  134MOL0     H18067   7.183   3.395   6.694  0.2658 -0.7637 -1.2978
  134MOL0     H18068   7.416   3.237   6.811  1.1884  1.3818 -1.6546
  134MOL0     H18069   7.367   3.255   6.643  2.0744  2.8746  0.1158
  134MOL0     H18070   7.170   3.148   6.868  1.6955 -0.1937  0.7013
  134MOL0     H18071   7.287   3.034   6.799  0.5455 -0.7590  1.5327
  134MOL0     H18072   7.689   3.793   7.323  0.7242  0.9618 -0.8107
  134MOL0     H18073   7.908   3.743   7.391  0.3128 -0.8220  0.2722
  134MOL0     H18074   8.389   3.477   7.242 -0.4065  0.5134  0.6286
  134MOL0     H18075   8.586   3.383   7.318  1.4646  0.2755  0.9456
  134MOL0     H18076   9.566   4.408   7.820 -0.7419 -0.4541 -0.2490
  134MOL0     H18077   9.624   4.638   7.827  0.1342 -1.8936 -3.2347
  134MOL0     H18078  10.080   5.031   8.051 -0.0047 -1.4611 -1.8352
  134MOL0     H18079  10.085   5.238   7.958  0.2838  0.4080 -2.5482
  134MOL0     H18080   9.766   5.384   7.640  0.1615 -0.2987 -1.5507
  134MOL0     H18081   9.724   5.381   7.810  0.6218 -1.1154  0.0193
  134MOL0     H18082   9.911   5.570   7.667  3.6712 -1.7584  2.7001
  134MOL0     H18083   9.880   5.584   7.839  2.8685  0.1741 -1.8517
  134MOL0     H18084   9.628   5.584   7.753  1.5881 -2.3622 -0.6589
  134MOL0     H18085   9.690   5.668   7.617  0.7570  3.5188  0.0560
  134MOL0     H18086   9.698   5.766   7.910  1.6737 -3.3156 -0.0077
  134MOL0     H18087   9.647   5.850   7.753  1.3132  3.1227  1.4383
  134MOL0     H18088  10.042   5.957   7.802 -0.3028  0.4509 -1.9661
  134MOL0     H18089   9.726   5.163   7.735  0.0452  0.8258 -0.1648
  134MOL0     H18090   9.706   4.947   7.862 -0.3741  0.5341  1.8048
  135MOL0     O18091   3.647  10.389   7.808 -0.7219 -0.5459 -0.1792
  135MOL0     C18092   3.622  10.403   7.684 -0.4250 -0.9104 -0.5103
  135MOL0     O18093   3.520  10.334   7.615 -0.1131 -0.6011  0.4326
  135MOL0     C18094   3.444  10.240   7.688  0.1546 -0.5655  0.7125
  135MOL0     C18095   3.501  10.146   7.768 -0.3372 -0.8397  0.0709
  135MOL0     C18096   3.410  10.050   7.823  0.0673 -0.1096 -0.7550
  135MOL0     C18097   3.278  10.037   7.785  0.6748  0.6497 -0.5803
  135MOL0     O18098   3.204   9.929   7.840 -0.3614  0.2209  0.9049
  135MOL0     C18099   3.087   9.881   7.776  0.3730  0.9552 -0.8674
  135MOL0     C18100   3.068   9.743   7.823  1.0014  0.2333 -0.1485
  135MOL0     C18101   2.981   9.661   7.733 -0.1515  0.2940  0.8383
  135MOL0     C18102   2.830   9.691   7.748 -0.2260  0.2628  0.6626
  135MOL0     C18103   2.754   9.646   7.625 -0.2943 -0.4114  0.4239
  135MOL0     C18104   2.602   9.656   7.623 -0.4419 -0.9369 -1.0640
  135MOL0     C18105   2.541   9.604   7.498 -0.0538  0.0609  0.6046
  135MOL0     C18106   2.396   9.624   7.493 -0.0037 -0.3284  0.1681
  135MOL0     N18107   2.314   9.544   7.586 -0.6128 -0.3776  0.0064
  135MOL0     C18108   2.274   9.584   7.709 -0.2974 -0.2196  0.3488
  135MOL0     C18109   2.223   9.477   7.776 -1.1433 -0.1797 -0.6189
  135MOL0     C18110   2.158   9.477   7.911  0.4579  0.7461  0.8692
  135MOL0     C18111   2.009   9.525   7.903 -0.1242 -1.3515  1.1724
  135MOL0     C18112   1.907   9.416   7.866 -0.3516  0.9487  0.1053
  135MOL0     C18113   1.764   9.457   7.876 -0.4418 -0.6455  0.7269
  135MOL0     O18114   1.738   9.546   7.760  0.0936  0.9522  0.7739
  135MOL0     C18115   1.709   9.680   7.784  0.4765 -0.6560  1.0693
  135MOL0     C18116   1.686   9.765   7.680  0.4495  1.2112  0.3273
  135MOL0     C18117   1.656   9.898   7.693  0.1343 -0.8878  0.3589
  135MOL0     C18118   1.653   9.990   7.575  0.0048 -0.0217  0.2496
  135MOL0     C18119   1.632   9.959   7.827  0.1408  0.7773 -0.3296
  135MOL0     C18120   1.562  10.085   7.851 -0.1478  0.0903  0.6366
  135MOL0     O18121   1.594  10.184   7.768  0.7072  0.7937 -0.0956
  135MOL0     C18122   1.507  10.287   7.757  0.6927  0.2252  1.0434
  135MOL0     C18123   1.470  10.322   7.625  0.1087 -0.0628 -0.6649
  135MOL0     C18124   1.383  10.437   7.607  0.2361  0.5762 -1.1050
  135MOL0     C18125   1.341  10.529   7.711 -0.0306  0.3306  0.6652
  135MOL0     O18126   1.264  10.636   7.680  0.3187 -0.0201  0.1604
  135MOL0     C18127   1.142  10.625   7.753  0.1424 -0.8295  0.8503
  135MOL0     C18128   1.071  10.749   7.695  0.8122  0.1513  0.5317
  135MOL0     C18129   1.127  10.896   7.724  0.0254  0.2229 -0.7590
  135MOL0     C18130   1.151  10.931   7.875 -0.7109  0.0346 -0.5739
  135MOL0     C18131   1.177  11.084   7.897  0.5293  0.0301  0.4061
  135MOL0     C18132   1.218  11.106   8.040 -0.5623 -0.3808  0.5604
  135MOL0     C18133   1.099  11.070   8.125 -0.3373  0.4461 -0.4974
  135MOL0     C18134   1.123  11.127   8.269  0.6509  0.1697 -0.5684
  135MOL0    Cl18135   1.095  11.308   8.269  0.3678  0.7694 -0.2086
  135MOL0     C18136   1.399  10.500   7.836  0.8825  0.1058 -0.1875
  135MOL0     C18137   1.472  10.375   7.861  0.5195 -0.0215 -0.4459
  135MOL0     O18138   1.483  10.089   7.952  0.6915 -0.2850  0.1481
  135MOL0     C18139   1.646   9.874   7.935 -1.0104  0.5353  1.2551
  135MOL0     C18140   1.692   9.745   7.910  0.0665 -0.4881  0.7449
  135MOL0     N18141   2.230   9.377   7.685  0.2114  0.4607  0.1430
  135MOL0     N18142   2.286   9.413   7.579  0.8345 -1.0743 -0.4026
  135MOL0     C18143   3.234  10.125   7.691 -0.0537 -0.4987 -1.0036
  135MOL0     C18144   3.314  10.232   7.647  1.0313 -0.1052 -0.4705
  135MOL0     C18145   3.720  10.492   7.617  0.1704  0.6416  0.5310
  135MOL0     C18146   3.725  10.463   7.478  0.2171 -0.2149 -1.5591
  135MOL0     C18147   3.818  10.526   7.397  0.9104 -0.5530  0.6188
  135MOL0     C18148   3.898  10.631   7.452  0.8109  0.3179  0.7684
  135MOL0     O18149   3.980  10.711   7.373  0.1278 -0.0794 -0.2960
  135MOL0     C18150   3.944  10.757   7.245  0.2206 -0.7251  0.1959
  135MOL0     C18151   4.073  10.803   7.184  0.5655  0.7626  0.4547
  135MOL0     C18152   4.045  10.889   7.056  0.5248  0.3120 -0.5414
  135MOL0     C18153   3.998  10.825   6.925 -0.0327 -0.6806 -0.4229
  135MOL0     C18154   3.855  10.784   6.929  0.5580 -1.2393 -0.7529
  135MOL0     C18155   3.738  10.789   6.935 -0.1529  0.3124  0.3284
  135MOL0     C18156   3.888  10.661   7.589 -0.2008  0.6670 -0.4521
  135MOL0     C18157   3.797  10.598   7.677 -1.4237  0.0646  0.4999
  135MOL0     H18158   3.609  10.146   7.773 -0.2143 -1.5154 -1.8155
  135MOL0     H18159   3.441   9.966   7.885 -2.5608 -0.3940  0.2993
  135MOL0     H18160   3.002   9.937   7.815  0.6341 -0.2465  1.6366
  135MOL0     H18161   3.085   9.884   7.667 -0.5586  1.0443 -0.8536
  135MOL0     H18162   3.167   9.697   7.832  0.9488  0.3868  1.4109
  135MOL0     H18163   3.030   9.743   7.925  1.9724  0.6929  0.2289
  135MOL0     H18164   3.010   9.696   7.633  2.8983  1.7065  2.1116
  135MOL0     H18165   3.006   9.554   7.737  2.1485  0.5078 -2.8697
  135MOL0     H18166   2.796   9.640   7.838 -2.0015 -2.5806 -1.4646
  135MOL0     H18167   2.809   9.798   7.756  1.6689  0.9563 -2.2019
  135MOL0     H18168   2.793   9.708   7.544 -1.1467 -2.1059 -1.3901
  135MOL0     H18169   2.790   9.547   7.595  0.6078 -0.0321  0.2400
  135MOL0     H18170   2.570   9.595   7.708  0.6474  0.6166  0.5260
  135MOL0     H18171   2.580   9.762   7.635  1.7177 -0.5898  0.2844
  135MOL0     H18172   2.596   9.650   7.415 -0.4358 -1.4276 -0.5110
  135MOL0     H18173   2.557   9.496   7.488 -4.1337 -0.6368 -0.0828
  135MOL0     H18174   2.348   9.605   7.397 -0.2204  0.4624  0.1086
  135MOL0     H18175   2.380   9.730   7.517  0.0082  0.4312 -2.7780
  135MOL0     H18176   2.278   9.690   7.735  0.3692 -0.4011  1.0590
  135MOL0     H18177   2.168   9.382   7.964  1.9492  0.6899  0.5236
  135MOL0     H18178   2.219   9.541   7.975  2.7908 -0.0420 -0.4427
  135MOL0     H18179   1.999   9.609   7.833 -2.9277 -0.6925  2.2526
  135MOL0     H18180   1.978   9.565   8.000  1.0589  0.4705  0.8575
  135MOL0     H18181   1.932   9.348   7.947  0.8709  1.3037  0.0408
  135MOL0     H18182   1.921   9.365   7.770 -0.1464 -2.8255  1.9646
  135MOL0     H18183   1.744   9.500   7.974  0.1434 -2.1426  1.5337
  135MOL0     H18184   1.700   9.370   7.858  0.3289 -1.0873  0.0396
  135MOL0     H18185   1.704   9.722   7.582 -2.4501 -1.4226  0.7932
  135MOL0     H18186   1.551  10.032   7.578 -0.5488 -1.0355 -2.0665
  135MOL0     H18187   1.718  10.075   7.598 -2.2239  1.8279  0.1487
  135MOL0     H18188   1.675   9.939   7.481  0.4509 -2.8181  1.7534
  135MOL0     H18189   1.506  10.267   7.538  2.7460  0.4418  0.0274
  135MOL0     H18190   1.341  10.451   7.508 -3.3224  1.3777  0.3323
  135MOL0     H18191   1.086  10.532   7.745  1.6541 -1.7211  0.1663
  135MOL0     H18192   1.172  10.644   7.857 -0.1412  3.9179  0.2980
  135MOL0     H18193   1.057  10.728   7.589 -1.7785 -0.5751  0.9538
  135MOL0     H18194   0.968  10.741   7.729  0.1672 -2.9315 -1.7067
  135MOL0     H18195   1.061  10.966   7.671 -1.5834 -0.0496  0.8017
  135MOL0     H18196   1.224  10.906   7.674  1.4210 -1.0340  1.5238
  135MOL0     H18197   1.056  10.899   7.920 -1.6860  1.5261 -1.4683
  135MOL0     H18198   1.223  10.861   7.919 -0.5388  0.0080 -0.8985
  135MOL0     H18199   1.082  11.134   7.878 -0.5523 -2.4765 -1.2275
  135MOL0     H18200   1.248  11.118   7.820  1.3363 -0.9420  0.6984
  135MOL0     H18201   1.299  11.036   8.063 -0.4209 -0.4460 -0.0989
  135MOL0     H18202   1.247  11.211   8.046  0.4443 -0.3853 -2.3763
  135MOL0     H18203   1.092  10.961   8.129  3.4432  0.0601 -0.8413
  135MOL0     H18204   1.005  11.112   8.090 -0.1444  2.3456  1.1003
  135MOL0     H18205   1.225  11.104   8.302  0.8317  0.5907 -0.8164
  135MOL0     H18206   1.047  11.090   8.338  1.6996  0.6861  0.9374
  135MOL0     H18207   1.377  10.568   7.918 -0.8250 -1.3609  0.6533
  135MOL0     H18208   1.511  10.344   7.957  0.7752 -0.4733 -0.6922
  135MOL0     H18209   1.631   9.906   8.038  0.5528 -1.3487  2.1321
  135MOL0     H18210   1.688   9.684   7.999  0.5809 -2.3366 -0.4395
  135MOL0     H18211   3.135  10.109   7.649 -1.3198  3.3334  0.1440
  135MOL0     H18212   3.271  10.305   7.579 -0.6421  0.5806  1.2328
  135MOL0     H18213   3.664  10.384   7.435 -2.0305  0.2259  0.5852
  135MOL0     H18214   3.831  10.498   7.293  0.8632  1.2698  0.0726
  135MOL0     H18215   3.893  10.678   7.189  1.1008 -1.0006 -0.2418
  135MOL0     H18216   3.883  10.843   7.276  2.7854  1.1206  0.4490
  135MOL0     H18217   4.135  10.717   7.157  0.1662  0.8281 -0.7113
  135MOL0     H18218   4.139  10.861   7.250  2.4937  1.9960 -2.3994
  135MOL0     H18219   4.144  10.931   7.038  0.8402 -0.6046 -1.0649
  135MOL0     H18220   3.984  10.974   7.087  3.2680  2.3469 -0.3365
  135MOL0     H18221   4.056  10.738   6.891 -0.4790 -2.3518  2.6907
  135MOL0     H18222   4.000  10.899   6.845 -2.0706  0.2351  0.2993
  135MOL0     H18223   3.634  10.790   6.959 -0.7908 -1.2549 -2.0167
  135MOL0     H18224   3.956  10.731   7.636  1.7100 -1.6684  0.4671
  135MOL0     H18225   3.780  10.632   7.779 -0.0746 -2.6898  1.7451
  136MOL0     O18226   1.937   5.847   5.292  0.0154  0.0854 -0.0024
  136MOL0     C18227   1.982   5.791   5.189 -0.0930 -0.1169 -0.1353
  136MOL0     O18228   1.945   5.673   5.127 -0.3789  0.1671 -0.9238
  136MOL0     C18229   1.833   5.605   5.152  0.2839  0.3672  0.2554
  136MOL0     C18230   1.824   5.500   5.057  0.5258 -0.3579 -0.4857
  136MOL0     C18231   1.720   5.417   5.072  0.3049  0.0076  0.4221
  136MOL0     C18232   1.611   5.457   5.161 -0.3351  0.0820  0.8307
  136MOL0     O18233   1.493   5.383   5.164  0.4779  0.3453  0.2253
  136MOL0     C18234   1.475   5.293   5.273  0.1128  0.8529  0.2493
  136MOL0     C18235   1.326   5.252   5.288 -0.9164 -0.8744  0.7910
  136MOL0     C18236   1.314   5.144   5.383  0.0062 -0.9084  0.3291
  136MOL0     C18237   1.168   5.093   5.393  0.1988 -0.2523  0.2005
  136MOL0     C18238   1.055   5.200   5.418  0.5164 -0.3539  0.2114
  136MOL0     C18239   0.929   5.125   5.459  0.4324  0.7949  0.4448
  136MOL0     C18240   0.927   5.091   5.605  0.4635 -0.7590 -0.2023
  136MOL0     C18241   0.804   5.126   5.687  0.6749  0.0798 -0.7012
  136MOL0     N18242   0.801   5.040   5.812  0.4664  0.3189 -0.4554
  136MOL0     C18243   0.885   5.045   5.912 -0.5233  0.7877  0.0524
  136MOL0     C18244   0.829   4.960   6.004  0.1111 -0.2346 -0.2142
  136MOL0     C18245   0.885   4.936   6.142 -0.5029  0.8758 -0.4738
  136MOL0     C18246   0.968   4.806   6.138  0.3879  0.0070  0.0324
  136MOL0     C18247   1.042   4.769   6.263  0.3656 -0.1853 -0.5469
  136MOL0     C18248   1.051   4.615   6.289  0.0992  0.1079  0.3941
  136MOL0     O18249   1.074   4.555   6.165 -0.0959  0.2385  0.8935
  136MOL0     C18250   1.181   4.463   6.141  0.5455  0.0719 -0.2710
  136MOL0     C18251   1.215   4.461   6.005  1.0766  0.3929  1.0334
  136MOL0     C18252   1.314   4.378   5.956  0.1356  0.8156  0.2851
  136MOL0     C18253   1.332   4.401   5.810 -0.3206  0.6556  0.1420
  136MOL0     C18254   1.395   4.302   6.052 -0.1250 -0.0809  0.2681
  136MOL0     C18255   1.510   4.218   6.002 -0.3216  0.0438 -0.7531
  136MOL0     O18256   1.580   4.162   6.102 -0.5572 -0.3734 -0.6206
  136MOL0     C18257   1.651   4.048   6.093 -0.4307  0.0567  0.4845
  136MOL0     C18258   1.729   4.001   6.199 -0.0179  0.2794 -0.5621
  136MOL0     C18259   1.786   3.870   6.203 -0.7323 -0.1156  0.2536
  136MOL0     C18260   1.746   3.772   6.114 -0.2717  0.2834 -0.4613
  136MOL0     O18261   1.772   3.644   6.131 -0.2060  0.5968 -0.0249
  136MOL0     C18262   1.824   3.606   6.254 -0.7374  0.0679 -0.5056
  136MOL0     C18263   1.875   3.460   6.237  0.0869 -0.0456  0.5634
  136MOL0     C18264   1.772   3.357   6.225  0.0588  1.4659 -0.3228
  136MOL0     C18265   1.674   3.363   6.114 -0.8226 -0.1186  0.8159
  136MOL0     C18266   1.589   3.237   6.103  0.3748  0.5644  0.5535
  136MOL0     C18267   1.606   3.165   5.972  0.2383 -0.3971  0.1839
  136MOL0     C18268   1.522   3.036   5.976  0.6046  0.6006  0.4895
  136MOL0     C18269   1.365   3.058   5.985 -1.3295  0.2710  0.2152
  136MOL0    Cl18270   1.316   3.158   5.842 -0.1016 -0.0098 -0.3021
  136MOL0     C18271   1.687   3.818   5.995  0.1320 -0.2946 -0.2989
  136MOL0     C18272   1.631   3.946   5.996 -0.0782 -0.5680  0.3451
  136MOL0     O18273   1.546   4.214   5.886 -0.4208 -0.2396 -0.1164
  136MOL0     C18274   1.369   4.324   6.185 -0.4877 -0.6874  0.0461
  136MOL0     C18275   1.255   4.392   6.234 -0.2018  0.0534  0.2530
  136MOL0     N18276   0.711   4.915   5.958  0.5007  0.0926 -0.4468
  136MOL0     N18277   0.693   4.964   5.840  0.8052 -0.0797 -0.4575
  136MOL0     C18278   1.611   5.579   5.224  0.4361 -0.3047 -0.7008
  136MOL0     C18279   1.731   5.648   5.239 -0.7558  0.6013 -0.2080
  136MOL0     C18280   2.115   5.847   5.134 -0.0505  0.0282 -0.4278
  136MOL0     C18281   2.164   5.832   5.008  0.0849 -0.4870  0.2944
  136MOL0     C18282   2.270   5.906   4.952  0.5454  0.0224  0.3621
  136MOL0     C18283   2.339   5.990   5.032  0.5801 -0.2225 -0.9401
  136MOL0     O18284   2.445   6.064   4.997 -0.8304 -0.3281  0.1189
  136MOL0     C18285   2.480   6.075   4.850  0.5690  0.2454 -0.5250
  136MOL0     C18286   2.557   6.204   4.817  0.3992  1.2359 -0.3978
  136MOL0     C18287   2.629   6.181   4.686 -0.3427  0.2779  0.0523
  136MOL0     C18288   2.774   6.154   4.706 -0.4846 -0.1627 -0.4247
  136MOL0     C18289   2.852   6.276   4.747 -0.0040  0.1101  0.3768
  136MOL0     C18290   2.904   6.376   4.778 -0.1641 -0.8323 -0.6502
  136MOL0     C18291   2.304   6.002   5.162 -0.7804  0.0704  0.4536
  136MOL0     C18292   2.191   5.933   5.217 -0.2231 -0.0985 -1.0662
  136MOL0     H18293   1.909   5.489   4.990 -0.7906  2.6649 -2.8995
  136MOL0     H18294   1.700   5.327   5.016 -3.6583 -0.3404  2.0930
  136MOL0     H18295   1.538   5.203   5.267  1.3017  1.6515  0.5086
  136MOL0     H18296   1.502   5.349   5.362 -3.9715 -0.8290  2.8581
  136MOL0     H18297   1.273   5.339   5.328 -0.4093 -0.4726  0.6006
  136MOL0     H18298   1.297   5.208   5.193 -0.6102 -1.3426  0.9132
  136MOL0     H18299   1.381   5.072   5.334 -0.4283  0.8106 -3.0093
  136MOL0     H18300   1.357   5.171   5.481 -0.8767 -5.2516  2.1548
  136MOL0     H18301   1.155   5.041   5.298  2.6036 -1.3443  0.4172
  136MOL0     H18302   1.173   5.019   5.473  1.6274 -0.0113  0.3601
  136MOL0     H18303   1.075   5.276   5.494  1.4059 -0.1773 -0.1885
  136MOL0     H18304   1.045   5.254   5.323  2.1528  0.7081  0.5930
  136MOL0     H18305   0.859   5.205   5.431  0.3020  0.5188 -0.0322
  136MOL0     H18306   0.917   5.043   5.387  1.0824 -0.3716  1.6228
  136MOL0     H18307   0.934   4.982   5.610  1.2110 -0.6741  0.9877
  136MOL0     H18308   1.020   5.131   5.646  1.4773  0.5271 -3.4518
  136MOL0     H18309   0.720   5.123   5.617 -0.3135  1.1459  0.3786
  136MOL0     H18310   0.807   5.230   5.719  3.9959 -0.8094  2.6248
  136MOL0     H18311   0.978   5.099   5.912 -0.3896  0.5621 -0.1250
  136MOL0     H18312   0.944   5.024   6.168  1.3292 -0.3296 -0.3564
  136MOL0     H18313   0.810   4.926   6.221 -1.2960  0.2514 -1.2835
  136MOL0     H18314   1.042   4.806   6.057  1.2246 -2.4382  0.7201
  136MOL0     H18315   0.891   4.732   6.114 -1.8055  2.2173 -0.1327
  136MOL0     H18316   0.994   4.817   6.349  0.4345  0.1709 -0.7081
  136MOL0     H18317   1.136   4.824   6.253 -1.0663  2.3880 -0.8042
  136MOL0     H18318   0.966   4.572   6.341  0.3683 -0.8013  0.0946
  136MOL0     H18319   1.133   4.596   6.360 -0.0849  3.2143  1.6305
  136MOL0     H18320   1.163   4.541   5.954  0.7528  0.3284  1.2551
  136MOL0     H18321   1.284   4.490   5.769 -1.1349  0.4748  0.6660
  136MOL0     H18322   1.440   4.406   5.790 -0.5057  1.4561 -0.7175
  136MOL0     H18323   1.283   4.316   5.762 -0.5282 -0.7605  2.6802
  136MOL0     H18324   1.745   4.061   6.288 -0.0798  0.6810 -0.8200
  136MOL0     H18325   1.864   3.858   6.277 -2.8071 -1.0727  2.3831
  136MOL0     H18326   1.914   3.660   6.286  0.0614  0.7029 -3.5503
  136MOL0     H18327   1.744   3.609   6.329 -1.4081 -1.0187 -1.1504
  136MOL0     H18328   1.941   3.446   6.151 -0.3763  1.2667 -0.0242
  136MOL0     H18329   1.947   3.429   6.314  1.8676 -1.3013 -1.4825
  136MOL0     H18330   1.728   3.338   6.323  0.7901 -0.6735 -0.3685
  136MOL0     H18331   1.827   3.264   6.210 -1.7307  0.0305  1.5664
  136MOL0     H18332   1.600   3.443   6.129 -3.8687 -1.3399 -4.8622
  136MOL0     H18333   1.720   3.390   6.018 -1.2511  0.1890  0.6928
  136MOL0     H18334   1.484   3.265   6.116 -0.2703 -1.1901 -0.5210
  136MOL0     H18335   1.600   3.172   6.190 -0.6629  0.6174  0.7348
  136MOL0     H18336   1.580   3.222   5.882 -3.1071 -0.9842  0.6488
  136MOL0     H18337   1.709   3.132   5.957  1.2290  1.8205  1.6315
  136MOL0     H18338   1.552   2.967   6.055  0.0765 -0.1992  0.0103
  136MOL0     H18339   1.546   2.977   5.887  0.0243  2.3857 -0.9053
  136MOL0     H18340   1.336   3.113   6.075 -1.2468 -2.2465  1.8855
  136MOL0     H18341   1.322   2.958   5.983 -0.9078  0.0532  1.3239
  136MOL0     H18342   1.665   3.748   5.915  0.6313 -2.9179  1.7202
  136MOL0     H18343   1.573   3.971   5.908  1.2282  0.4995 -0.2334
  136MOL0     H18344   1.429   4.275   6.261 -0.9035 -0.4008  0.5650
  136MOL0     H18345   1.244   4.401   6.342  4.8418 -1.1136  1.1489
  136MOL0     H18346   1.518   5.603   5.274  0.0356 -1.0382 -1.0664
  136MOL0     H18347   1.743   5.727   5.313 -2.4129 -0.2370  1.0148
  136MOL0     H18348   2.116   5.764   4.938  2.0214 -0.7107 -0.9018
  136MOL0     H18349   2.292   5.899   4.846 -1.6888  0.7579 -0.2044
  136MOL0     H18350   2.521   5.981   4.811  0.9188  0.8727 -1.7182
  136MOL0     H18351   2.389   6.090   4.792  1.0992  4.6526 -0.5410
  136MOL0     H18352   2.630   6.226   4.895  1.3910 -0.8394 -0.6644
  136MOL0     H18353   2.487   6.287   4.803 -3.7897 -0.9806  4.1543
  136MOL0     H18354   2.613   6.266   4.619 -1.4530 -1.0374 -1.4312
  136MOL0     H18355   2.588   6.091   4.640 -3.1485  0.7483  1.4019
  136MOL0     H18356   2.817   6.101   4.621 -0.0852 -0.6034  0.0486
  136MOL0     H18357   2.786   6.092   4.795 -1.4361 -0.3297 -0.4003
  136MOL0     H18358   2.949   6.469   4.807 -3.2466  0.0201  1.9024
  136MOL0     H18359   2.346   6.067   5.239  3.0350 -1.2948 -0.2792
  136MOL0     H18360   2.171   5.934   5.324  1.3593  1.4914 -0.7440
  137MOL0     O18361   1.339   0.692   4.243 -0.2479 -0.0655 -0.2711
  137MOL0     C18362   1.254   0.761   4.284 -0.6690 -0.7671 -0.3778
  137MOL0     O18363   1.273   0.867   4.355  0.2465 -0.3425 -1.4270
  137MOL0     C18364   1.403   0.884   4.408 -0.4776 -0.8221 -0.1160
  137MOL0     C18365   1.453   0.844   4.532 -0.0983 -0.1952 -0.8464
  137MOL0     C18366   1.585   0.869   4.578 -0.1061 -0.8352  0.0759
  137MOL0     C18367   1.667   0.940   4.493 -0.1423 -0.2109  0.6388
  137MOL0     O18368   1.809   0.931   4.509  0.5446  0.6514  0.5474
  137MOL0     C18369   1.868   1.025   4.591  0.3335 -0.2155  0.3277
  137MOL0     C18370   1.841   1.173   4.572 -0.1022  0.6052 -0.1866
  137MOL0     C18371   1.941   1.268   4.636 -0.4912  0.7099  0.2086
  137MOL0     C18372   1.895   1.413   4.614 -0.4769  0.8388 -1.0000
  137MOL0     C18373   1.997   1.523   4.650  0.7568  0.5689 -0.7040
  137MOL0     C18374   2.006   1.559   4.805 -0.8073 -0.6247 -0.2641
  137MOL0     C18375   1.952   1.698   4.843 -0.2130 -0.1123 -0.7383
  137MOL0     C18376   1.901   1.713   4.988  0.2471 -0.2241 -0.7475
  137MOL0     N18377   2.007   1.747   5.082 -0.4736 -0.3201  0.3655
  137MOL0     C18378   2.088   1.661   5.149  1.6135 -0.0154 -0.4556
  137MOL0     C18379   2.172   1.751   5.214 -0.4454 -0.2596 -0.0368
  137MOL0     C18380   2.288   1.727   5.304  0.2344 -0.3203 -0.2151
  137MOL0     C18381   2.408   1.673   5.214 -0.2287 -0.3167 -0.4044
  137MOL0     C18382   2.471   1.782   5.134  0.0219  0.2898 -0.5894
  137MOL0     C18383   2.398   1.845   5.011  0.2621  0.0019  0.1688
  137MOL0     O18384   2.334   1.741   4.925 -0.6988  0.1996  0.3316
  137MOL0     C18385   2.398   1.707   4.806  0.8445 -1.0012  0.7981
  137MOL0     C18386   2.515   1.635   4.814 -0.3177 -0.8634  1.0825
  137MOL0     C18387   2.605   1.622   4.705 -0.0093 -1.1630  0.4043
  137MOL0     C18388   2.737   1.558   4.746  0.0312  0.3062  0.9505
  137MOL0     C18389   2.582   1.696   4.581 -0.3990 -0.1166  0.7098
  137MOL0     C18390   2.666   1.689   4.464 -0.3307  0.3094  0.3433
  137MOL0     O18391   2.625   1.768   4.357  0.2097 -0.0892 -0.4755
  137MOL0     C18392   2.679   1.755   4.231 -0.1143  0.1359  0.6665
  137MOL0     C18393   2.812   1.783   4.192  0.2130  0.0391 -1.0430
  137MOL0     C18394   2.861   1.780   4.062 -0.5174  0.5817 -0.3589
  137MOL0     C18395   2.762   1.757   3.958  0.2591 -0.7342 -1.4211
  137MOL0     O18396   2.804   1.770   3.833  0.3754  0.9993  0.6320
  137MOL0     C18397   2.942   1.772   3.805 -0.4138 -0.2925 -0.3542
  137MOL0     C18398   2.977   1.808   3.669  0.1213  0.3250 -0.2397
  137MOL0     C18399   2.918   1.718   3.556  0.4277 -0.2546 -0.0623
  137MOL0     C18400   2.844   1.780   3.439 -0.3520  0.0693  1.0208
  137MOL0     C18401   2.794   1.682   3.342 -0.7329  0.8169 -0.7165
  137MOL0     C18402   2.891   1.607   3.257  0.5572 -0.7375 -0.4192
  137MOL0     C18403   2.816   1.512   3.163  0.4132 -0.2312 -0.4888
  137MOL0     C18404   2.901   1.482   3.038 -0.0563  0.4213  0.3195
  137MOL0    Cl18405   2.783   1.466   2.893 -0.0755 -0.1318  0.3749
  137MOL0     C18406   2.628   1.726   3.994 -1.0682  0.7641  0.4470
  137MOL0     C18407   2.587   1.728   4.128  0.8410 -0.1136 -0.3894
  137MOL0     O18408   2.769   1.623   4.464 -0.3835 -0.8444 -0.2864
  137MOL0     C18409   2.460   1.765   4.573 -0.8025 -0.1588 -1.1480
  137MOL0     C18410   2.376   1.774   4.687  0.0486 -0.7161 -0.0254
  137MOL0     N18411   2.142   1.881   5.197  0.4485  0.2833 -0.1084
  137MOL0     N18412   2.029   1.879   5.126  0.5607 -0.7555  0.2731
  137MOL0     C18413   1.619   0.992   4.375 -0.2994 -0.4583  0.5224
  137MOL0     C18414   1.481   0.969   4.337 -2.0992 -0.5227  0.2167
  137MOL0     C18415   1.116   0.740   4.240  0.2148  0.5107 -0.5447
  137MOL0     C18416   1.013   0.823   4.291 -0.1974  1.0125 -0.6066
  137MOL0     C18417   0.886   0.803   4.235  0.5157 -0.7109  0.4778
  137MOL0     C18418   0.861   0.722   4.125 -0.0869 -0.7091  0.5211
  137MOL0     O18419   0.726   0.696   4.089  0.5846  0.7501 -0.3159
  137MOL0     C18420   0.705   0.581   4.003 -0.3231  0.7644  0.8478
  137MOL0     C18421   0.573   0.594   3.919 -0.5028  0.7450 -0.4740
  137MOL0     C18422   0.557   0.481   3.825  0.6145 -0.1546  0.3898
  137MOL0     C18423   0.451   0.512   3.715  0.8138  0.9624  1.2249
  137MOL0     C18424   0.321   0.549   3.774  0.6802  0.7968  0.6684
  137MOL0     C18425   0.211   0.583   3.809 -0.0234  0.4502  0.2404
  137MOL0     C18426   0.967   0.640   4.078  0.0420  0.5080 -0.1997
  137MOL0     C18427   1.095   0.645   4.140  0.6878  0.2650 -0.0397
  137MOL0     H18428   1.388   0.782   4.593 -1.3199 -0.5743 -2.4405
  137MOL0     H18429   1.629   0.821   4.665 -0.6310 -4.8266 -1.6683
  137MOL0     H18430   1.863   1.004   4.699  4.6682 -3.9470  0.1531
  137MOL0     H18431   1.976   1.019   4.571  0.3978 -2.1342  0.9699
  137MOL0     H18432   1.851   1.176   4.463  1.5003  2.1310 -0.0346
  137MOL0     H18433   1.736   1.197   4.590 -0.6680 -0.6765 -1.5773
  137MOL0     H18434   1.957   1.254   4.744 -1.8046  1.5352  0.5381
  137MOL0     H18435   2.042   1.245   4.603  0.0345 -0.4685  2.4566
  137MOL0     H18436   1.857   1.413   4.511 -2.5976  1.2624 -0.2764
  137MOL0     H18437   1.804   1.430   4.673 -0.1617  3.1491 -1.0811
  137MOL0     H18438   2.096   1.489   4.617  0.2159 -0.1484 -1.6318
  137MOL0     H18439   1.979   1.615   4.592 -2.2400 -0.0719 -0.9264
  137MOL0     H18440   1.967   1.474   4.864  1.5436 -0.6998  1.3009
  137MOL0     H18441   2.113   1.566   4.824 -0.7302 -2.1101 -0.0201
  137MOL0     H18442   2.031   1.774   4.834 -0.6511  0.4593  0.0948
  137MOL0     H18443   1.868   1.714   4.774 -1.2712 -0.7100  0.3864
  137MOL0     H18444   1.847   1.625   5.023  0.7729  0.4890  2.0733
  137MOL0     H18445   1.834   1.800   4.982  3.6236  2.5268 -1.8841
  137MOL0     H18446   2.087   1.553   5.140  2.3622 -0.0645 -0.0501
  137MOL0     H18447   2.314   1.818   5.359  1.0779 -1.7274  1.8262
  137MOL0     H18448   2.269   1.652   5.381 -1.0355  0.1324 -0.0645
  137MOL0     H18449   2.356   1.597   5.156 -3.9568  0.8539  1.0478
  137MOL0     H18450   2.482   1.631   5.282 -2.1130  0.6408  2.4553
  137MOL0     H18451   2.565   1.739   5.098 -0.7745 -4.8836  2.4721
  137MOL0     H18452   2.490   1.864   5.205 -2.1601  1.9051 -1.7742
  137MOL0     H18453   2.477   1.894   4.954 -0.4590  1.1864  0.1534
  137MOL0     H18454   2.315   1.909   5.042 -2.5039 -4.2222  2.5604
  137MOL0     H18455   2.521   1.596   4.915 -1.1759  0.4472  1.6628
  137MOL0     H18456   2.833   1.604   4.722  0.9040  1.4817  5.7848
  137MOL0     H18457   2.733   1.550   4.855 -0.0382  1.2572  1.0292
  137MOL0     H18458   2.743   1.465   4.689  1.4514 -0.4385  2.2599
  137MOL0     H18459   2.880   1.811   4.272 -0.0437 -1.4822 -0.2692
  137MOL0     H18460   2.965   1.808   4.050  0.1754 -1.4875  0.3670
  137MOL0     H18461   2.988   1.854   3.861 -2.0251  2.8474 -3.2917
  137MOL0     H18462   2.990   1.677   3.832 -0.2215  0.0070  0.3890
  137MOL0     H18463   2.924   1.904   3.662 -3.9462 -1.6636 -0.0606
  137MOL0     H18464   3.086   1.812   3.662  0.2724 -0.4199  1.3223
  137MOL0     H18465   2.840   1.652   3.597 -1.6944  1.5692 -0.9725
  137MOL0     H18466   3.002   1.656   3.523  1.8071  0.9080  1.1466
  137MOL0     H18467   2.769   1.851   3.475 -2.1669 -0.9539 -0.5095
  137MOL0     H18468   2.912   1.849   3.388 -1.3698  0.9636  0.8223
  137MOL0     H18469   2.729   1.744   3.280 -1.3562  1.6556  0.7132
  137MOL0     H18470   2.722   1.614   3.387  1.1150 -0.8094 -0.0644
  137MOL0     H18471   2.936   1.694   3.209 -1.4343  0.5665 -0.0495
  137MOL0     H18472   2.959   1.548   3.319  2.9693 -1.6197 -3.6547
  137MOL0     H18473   2.729   1.569   3.129 -1.1783 -3.0973 -1.5330
  137MOL0     H18474   2.780   1.425   3.218  0.4607  0.4264  0.6255
  137MOL0     H18475   2.951   1.387   3.057 -1.9503 -0.3615  1.6470
  137MOL0     H18476   2.963   1.569   3.013 -2.2704  1.2611 -2.9955
  137MOL0     H18477   2.559   1.700   3.914 -1.7651  0.8500  1.0142
  137MOL0     H18478   2.489   1.701   4.166 -0.3787  2.8299 -1.1996
  137MOL0     H18479   2.417   1.809   4.483 -0.3695  3.0419  0.0608
  137MOL0     H18480   2.294   1.840   4.660  0.5828 -0.0558 -0.0670
  137MOL0     H18481   1.693   1.036   4.309 -1.9568 -2.3014 -2.8815
  137MOL0     H18482   1.443   1.012   4.245  1.8632 -0.5918 -1.6448
  137MOL0     H18483   1.027   0.896   4.370 -1.3727  2.0514 -1.3148
  137MOL0     H18484   0.808   0.861   4.283  0.0614  0.4319 -1.5156
  137MOL0     H18485   0.776   0.571   3.921  0.0531 -0.4064  1.2947
  137MOL0     H18486   0.718   0.492   4.065 -0.5707  0.9745  1.2047
  137MOL0     H18487   0.572   0.692   3.871 -1.4596 -0.7695 -3.8363
  137MOL0     H18488   0.499   0.590   3.999  1.3860 -1.1046  1.2864
  137MOL0     H18489   0.521   0.397   3.885  1.2263  0.6943  1.9804
  137MOL0     H18490   0.653   0.454   3.781  0.5686  2.3627 -1.4991
  137MOL0     H18491   0.440   0.416   3.663  1.4880  0.3020  2.2455
  137MOL0     H18492   0.476   0.592   3.646  0.1960 -1.4828 -2.0912
  137MOL0     H18493   0.128   0.631   3.857  2.7286  2.5895  3.2855
  137MOL0     H18494   0.954   0.560   4.005  1.3414  2.6884 -2.9884
  137MOL0     H18495   1.180   0.606   4.087  0.2243  0.8345 -1.2277
  138MOL0     O18496   0.842   7.187   0.342 -1.2798 -0.2526  0.6478
  138MOL0     C18497   0.925   7.255   0.290  0.0261  0.6455  0.3560
  138MOL0     O18498   0.946   7.262   0.153  0.0802 -0.7049  1.1956
  138MOL0     C18499   0.826   7.243   0.078  0.0252 -0.5839 -0.5232
  138MOL0     C18500   0.721   7.338   0.104 -0.1237 -0.7509 -0.7438
  138MOL0     C18501   0.598   7.324   0.038 -0.3508 -0.2006  0.2289
  138MOL0     C18502   0.591   7.226  -0.070  0.3024 -0.0285  1.5514
  138MOL0     O18503   0.482   7.207  -0.156 -0.4045 -0.1444 -0.0531
  138MOL0     C18504   0.362   7.267  -0.110  0.5187 -0.1316 -0.1706
  138MOL0     C18505   0.237   7.211  -0.185 -0.3635 -0.4960  0.9733
  138MOL0     C18506   0.207   7.070  -0.148  0.4000  0.1317  0.1155
  138MOL0     C18507   0.058   7.054  -0.191 -0.2710  0.1476  0.3874
  138MOL0     C18508  -0.015   6.926  -0.117  0.1853 -0.2424 -0.5548
  138MOL0     C18509  -0.143   6.879  -0.182  0.0585 -0.0511 -0.0606
  138MOL0     C18510  -0.217   6.774  -0.099 -1.0388  0.4911  0.0720
  138MOL0     C18511  -0.310   6.681  -0.165 -0.3137 -0.3246  0.2905
  138MOL0     N18512  -0.390   6.729  -0.280 -0.2364 -0.3843 -0.2937
  138MOL0     C18513  -0.431   6.664  -0.395 -0.3809 -0.8963  1.3658
  138MOL0     C18514  -0.506   6.755  -0.458  0.0346 -0.8900 -0.1069
  138MOL0     C18515  -0.573   6.717  -0.587 -0.8031 -0.0276  0.4966
  138MOL0     C18516  -0.472   6.750  -0.707  0.5386 -0.5650 -0.9032
  138MOL0     C18517  -0.519   6.695  -0.843  0.5746 -0.0730  0.5780
  138MOL0     C18518  -0.584   6.563  -0.853 -0.4516  0.6868 -1.1149
  138MOL0     O18519  -0.515   6.471  -0.765 -0.2015  0.7533  0.3451
  138MOL0     C18520  -0.491   6.347  -0.812  0.0422  1.1715  0.0799
  138MOL0     C18521  -0.538   6.291  -0.929 -0.1290 -0.2112 -0.5940
  138MOL0     C18522  -0.513   6.158  -0.960  0.8236  0.7741  0.9054
  138MOL0     C18523  -0.574   6.102  -1.091  0.1925 -0.1440 -0.6727
  138MOL0     C18524  -0.436   6.079  -0.875  0.0223 -0.8448  0.8702
  138MOL0     C18525  -0.383   5.953  -0.912  1.0029  0.2751 -0.4048
  138MOL0     O18526  -0.291   5.932  -1.014  0.1005  0.5427 -0.6630
  138MOL0     C18527  -0.268   5.806  -1.063  0.1945 -0.2741  0.5143
  138MOL0     C18528  -0.369   5.715  -1.085 -0.2962 -0.1220  0.2739
  138MOL0     C18529  -0.324   5.589  -1.133  0.2502  1.1825 -0.0786
  138MOL0     C18530  -0.197   5.560  -1.172 -0.7318  0.0392 -0.4768
  138MOL0     O18531  -0.148   5.441  -1.225  0.5882  0.5550  0.4104
  138MOL0     C18532  -0.206   5.320  -1.178  0.1457  0.3748  0.0548
  138MOL0     C18533  -0.096   5.210  -1.172  0.0117  0.4533 -0.0120
  138MOL0     C18534  -0.153   5.075  -1.123 -0.2878 -0.4849 -0.3663
  138MOL0     C18535  -0.048   4.968  -1.152  0.5940  0.2588  0.4114
  138MOL0     C18536  -0.071   4.853  -1.055 -0.1664  0.7251  0.0870
  138MOL0     C18537   0.060   4.774  -1.061 -0.9055 -0.1001  0.4534
  138MOL0     C18538   0.060   4.648  -0.958  0.2321 -0.4799  0.4511
  138MOL0     C18539   0.147   4.538  -0.994 -0.1333  0.1108 -0.2151
  138MOL0    Cl18540   0.073   4.475  -1.149  0.3458 -0.3040  0.0726
  138MOL0     C18541  -0.095   5.663  -1.149  0.5845  0.0714  0.5773
  138MOL0     C18542  -0.133   5.785  -1.091  0.3995  1.3530  0.2411
  138MOL0     O18543  -0.437   5.864  -0.846 -0.0906  0.4819  0.1060
  138MOL0     C18544  -0.376   6.141  -0.766  0.2919 -0.5163  0.1221
  138MOL0     C18545  -0.407   6.267  -0.728  0.6313 -0.1690 -0.4448
  138MOL0     N18546  -0.510   6.872  -0.387 -0.4263  0.0262 -0.8114
  138MOL0     N18547  -0.437   6.856  -0.283 -0.8741  0.1185  0.5778
  138MOL0     C18548   0.704   7.146  -0.105  0.1458 -0.1442  0.6785
  138MOL0     C18549   0.819   7.155  -0.030 -0.1785 -0.0302  0.1104
  138MOL0     C18550   1.017   7.321   0.381 -0.4012  0.1564 -0.8009
  138MOL0     C18551   1.097   7.434   0.334 -0.0127  0.5899  0.3106
  138MOL0     C18552   1.183   7.504   0.420  0.5322  0.8576  0.0980
  138MOL0     C18553   1.200   7.458   0.553  0.2161  0.6893  0.8767
  138MOL0     O18554   1.288   7.511   0.645  0.1687 -0.5167 -0.1387
  138MOL0     C18555   1.361   7.635   0.626  0.0480 -0.4894 -0.0455
  138MOL0     C18556   1.263   7.737   0.691 -0.1431  0.0193 -0.2213
  138MOL0     C18557   1.137   7.759   0.609 -0.2037 -0.6716 -0.0802
  138MOL0     C18558   1.081   7.903   0.646 -0.4213  0.3440  0.4727
  138MOL0     C18559   1.049   7.907   0.792 -1.2970  0.9735  0.0135
  138MOL0     C18560   1.018   7.907   0.910 -0.5522  0.2264 -0.0039
  138MOL0     C18561   1.132   7.344   0.594  1.1461  0.0213  0.1616
  138MOL0     C18562   1.032   7.274   0.520 -0.8874 -0.1615 -0.6119
  138MOL0     H18563   0.730   7.404   0.189  1.1576 -3.9951  1.8587
  138MOL0     H18564   0.529   7.404   0.062  2.5462  2.7687 -0.4825
  138MOL0     H18565   0.355   7.260  -0.001 -1.5619  0.7723 -0.1850
  138MOL0     H18566   0.364   7.374  -0.132  3.6763 -0.4110 -1.7452
  138MOL0     H18567   0.154   7.274  -0.153  1.8281  1.9717  2.1960
  138MOL0     H18568   0.255   7.216  -0.293 -0.3028 -1.1906  0.9426
  138MOL0     H18569   0.272   7.011  -0.213 -0.7181  0.1823 -1.0895
  138MOL0     H18570   0.225   7.058  -0.041 -1.8131 -2.4566  0.3228
  138MOL0     H18571   0.006   7.149  -0.172 -0.9178  0.1414 -1.1985
  138MOL0     H18572   0.044   7.034  -0.298 -2.7020  0.9665  0.4774
  138MOL0     H18573   0.048   6.838  -0.103 -2.1211 -2.1058 -1.3009
  138MOL0     H18574  -0.044   6.966  -0.019  0.7484 -1.0724 -0.0345
  138MOL0     H18575  -0.208   6.967  -0.185  1.7021  1.1980 -2.6094
  138MOL0     H18576  -0.131   6.849  -0.287 -0.6672  1.8983 -0.7523
  138MOL0     H18577  -0.154   6.710  -0.035 -3.5140  0.7494  2.9715
  138MOL0     H18578  -0.275   6.820  -0.019 -1.3514 -3.6304  2.5488
  138MOL0     H18579  -0.375   6.642  -0.086 -1.2742 -2.0311 -1.2623
  138MOL0     H18580  -0.255   6.595  -0.204 -0.8052 -2.0029  3.0202
  138MOL0     H18581  -0.399   6.564  -0.422  4.3466 -0.6055  4.8055
  138MOL0     H18582  -0.606   6.612  -0.590  0.0944 -0.2957 -0.8936
  138MOL0     H18583  -0.653   6.788  -0.608  0.1696  1.0065  0.1781
  138MOL0     H18584  -0.371   6.716  -0.686  0.6237  0.7354  1.0429
  138MOL0     H18585  -0.474   6.860  -0.703  0.9148 -0.5800  1.9053
  138MOL0     H18586  -0.439   6.690  -0.917  2.2245 -5.6539  2.2244
  138MOL0     H18587  -0.594   6.765  -0.880  2.0433  1.6886  0.8098
  138MOL0     H18588  -0.582   6.526  -0.956  0.5801 -3.5231  0.2191
  138MOL0     H18589  -0.687   6.587  -0.822 -0.5910  1.6958 -2.2541
  138MOL0     H18590  -0.612   6.341  -0.991 -1.7573 -0.1793  1.2694
  138MOL0     H18591  -0.521   6.021  -1.143  0.7094 -0.0024 -0.3709
  138MOL0     H18592  -0.673   6.079  -1.051  0.1739  1.0450  0.0173
  138MOL0     H18593  -0.589   6.173  -1.173 -2.2582 -0.9373 -1.0034
  138MOL0     H18594  -0.471   5.747  -1.065 -0.6602 -0.7412 -0.5276
  138MOL0     H18595  -0.403   5.519  -1.161  1.1067  1.0913 -2.4962
  138MOL0     H18596  -0.231   5.347  -1.075  0.3368  4.3663 -0.7853
  138MOL0     H18597  -0.298   5.281  -1.223 -1.1155  0.4367  2.3982
  138MOL0     H18598  -0.059   5.187  -1.273  1.1053  2.3793 -0.0878
  138MOL0     H18599  -0.018   5.257  -1.112 -0.7568 -1.4583  2.6435
  138MOL0     H18600  -0.257   5.061  -1.155 -1.8127 -0.9911  4.0109
  138MOL0     H18601  -0.162   5.074  -1.014  1.1699 -2.1407 -0.2061
  138MOL0     H18602  -0.053   4.930  -1.255 -0.3542  1.5588 -0.0503
  138MOL0     H18603   0.055   5.005  -1.144  0.9795 -0.2428 -1.5638
  138MOL0     H18604  -0.158   4.793  -1.084  0.0229  0.3649  0.2661
  138MOL0     H18605  -0.087   4.894  -0.955 -0.5641 -1.9386  1.1999
  138MOL0     H18606   0.075   4.746  -1.165 -4.2138  1.0586 -0.4773
  138MOL0     H18607   0.144   4.837  -1.029  2.8437 -3.9128 -0.9658
  138MOL0     H18608  -0.045   4.617  -0.963 -0.0203  0.1496  1.5337
  138MOL0     H18609   0.079   4.671  -0.853  0.3165 -0.2180  0.3807
  138MOL0     H18610   0.151   4.469  -0.909  1.9465  0.7531  0.2750
  138MOL0     H18611   0.249   4.577  -1.009 -0.5956  1.6651  0.5501
  138MOL0     H18612   0.012   5.649  -1.160  0.9490  3.0562 -0.7353
  138MOL0     H18613  -0.059   5.860  -1.065  0.2490  0.9922  1.7859
  138MOL0     H18614  -0.308   6.085  -0.704 -0.8655 -2.3658 -0.1995
  138MOL0     H18615  -0.357   6.308  -0.641  1.1270 -1.6623  0.0102
  138MOL0     H18616   0.704   7.087  -0.196  0.4850  3.4043 -1.8381
  138MOL0     H18617   0.901   7.089  -0.058 -0.4497 -0.8050  1.0792
  138MOL0     H18618   1.080   7.476   0.235  3.1683 -0.5201 -0.8426
  138MOL0     H18619   1.235   7.585   0.371 -0.1345  0.2327 -1.7329
  138MOL0     H18620   1.456   7.642   0.680 -0.2551  1.6554  0.2964
  138MOL0     H18621   1.377   7.656   0.520 -0.5418 -2.7224 -0.6350
  138MOL0     H18622   1.314   7.832   0.711 -0.1028 -0.1134  0.3442
  138MOL0     H18623   1.243   7.703   0.793  0.8039  0.6563  0.1983
  138MOL0     H18624   1.060   7.683   0.627 -0.9668  0.6839  3.2430
  138MOL0     H18625   1.171   7.756   0.506 -3.2041 -0.7286 -1.1636
  138MOL0     H18626   0.984   7.913   0.596 -1.2843  1.6395  2.3019
  138MOL0     H18627   1.150   7.976   0.603 -1.5153  2.5431  2.2785
  138MOL0     H18628   0.997   7.931   1.012 -3.7748  0.4395 -0.6183
  138MOL0     H18629   1.153   7.303   0.692 -0.1979  0.3293  0.6069
  138MOL0     H18630   0.987   7.182   0.556  1.6716 -0.3304  2.5936
  139MOL0     O18631   5.916  11.538   1.624 -0.2303 -0.1029 -0.0909
  139MOL0     C18632   5.980  11.592   1.711  0.5901 -0.2169 -0.9009
  139MOL0     O18633   6.114  11.557   1.731 -0.2909  0.0005  0.8104
  139MOL0     C18634   6.189  11.458   1.664 -0.4229  0.1844 -0.1054
  139MOL0     C18635   6.140  11.359   1.584  0.2507  0.1144  0.7229
  139MOL0     C18636   6.227  11.257   1.539  0.0735  0.4111 -0.3743
  139MOL0     C18637   6.367  11.244   1.562 -0.0326  0.7836  0.5297
  139MOL0     O18638   6.448  11.140   1.524  0.3309  0.1183  0.2384
  139MOL0     C18639   6.404  11.071   1.401 -0.3796  0.7537 -0.3599
  139MOL0     C18640   6.498  10.952   1.366  0.3796  0.1781 -0.6803
  139MOL0     C18641   6.553  10.872   1.490 -0.3440 -0.6822  0.0467
  139MOL0     C18642   6.658  10.764   1.447 -0.4069  0.4627 -0.4561
  139MOL0     C18643   6.724  10.699   1.566 -0.8093 -1.6243  0.0780
  139MOL0     C18644   6.838  10.797   1.616  0.2919 -0.9032 -0.5381
  139MOL0     C18645   6.893  10.752   1.751 -0.6245  0.1837 -0.2611
  139MOL0     C18646   6.795  10.789   1.861 -0.1113 -0.8002  0.1701
  139MOL0     N18647   6.845  10.753   1.990 -0.0846 -0.0183  0.2694
  139MOL0     C18648   6.971  10.768   2.032  0.5596 -0.4235 -0.0622
  139MOL0     C18649   6.987  10.714   2.157 -0.7668 -0.6673 -1.1384
  139MOL0     C18650   7.115  10.712   2.231  0.2510  0.0581 -0.5170
  139MOL0     C18651   7.116  10.798   2.355 -0.2557 -0.2737 -0.1602
  139MOL0     C18652   7.050  10.931   2.331 -0.0498 -1.0806  1.1127
  139MOL0     C18653   7.049  11.019   2.457 -0.2445  0.6230 -0.3719
  139MOL0     O18654   6.993  11.141   2.404 -0.9002  0.8979 -0.3954
  139MOL0     C18655   7.027  11.265   2.453  0.0845 -0.6348  0.3963
  139MOL0     C18656   6.980  11.380   2.392  0.7270 -0.0427  0.6310
  139MOL0     C18657   7.010  11.508   2.439  0.2625  0.2290  0.5061
  139MOL0     C18658   6.958  11.632   2.361 -0.7286 -0.3513  0.5545
  139MOL0     C18659   7.074  11.522   2.566 -0.8008  0.4280  0.2731
  139MOL0     C18660   7.132  11.639   2.628  0.3546 -0.2819 -0.3387
  139MOL0     O18661   7.161  11.638   2.756  1.1823 -0.3205  0.6213
  139MOL0     C18662   7.146  11.758   2.827  0.4437 -0.6960  0.1026
  139MOL0     C18663   7.028  11.851   2.819 -0.5348 -0.3005  0.0871
  139MOL0     C18664   7.028  11.975   2.890 -0.0526  0.2936  0.8410
  139MOL0     C18665   7.135  12.006   2.969 -0.4296 -0.3905 -0.1101
  139MOL0     O18666   7.134  12.145   3.014  0.1953  0.9512 -0.1857
  139MOL0     C18667   7.222  12.174   3.121  0.0325  0.1700 -0.1198
  139MOL0     C18668   7.210  12.310   3.201  0.9623  0.1347  0.1093
  139MOL0     C18669   7.060  12.324   3.242 -0.5792  0.1980 -0.1823
  139MOL0     C18670   7.036  12.463   3.297 -1.0712  0.6648 -0.1027
  139MOL0     C18671   7.002  12.464   3.452 -0.4965 -0.4019  0.3415
  139MOL0     C18672   7.106  12.420   3.551  0.7135 -0.0068  0.5793
  139MOL0     C18673   7.063  12.447   3.704  0.3259 -0.0393  0.2515
  139MOL0     C18674   7.197  12.456   3.792  1.1046  0.1238 -1.0480
  139MOL0    Cl18675   7.135  12.527   3.947  0.9469  0.1794 -0.0764
  139MOL0     C18676   7.230  11.910   3.002 -1.3286 -0.7435  0.3704
  139MOL0     C18677   7.234  11.780   2.936 -0.2642 -0.3467  0.3034
  139MOL0     O18678   7.150  11.738   2.553  0.3979  0.2750 -0.7070
  139MOL0     C18679   7.105  11.399   2.640  0.1853 -0.6354  0.6162
  139MOL0     C18680   7.085  11.278   2.583  0.5506 -0.6951 -0.7676
  139MOL0     N18681   6.863  10.660   2.190 -0.5190  0.3647 -0.0994
  139MOL0     N18682   6.784  10.677   2.087  0.6692 -0.2446 -0.4465
  139MOL0     C18683   6.415  11.351   1.636 -0.2764  0.7541 -0.6547
  139MOL0     C18684   6.325  11.449   1.691  0.9438  0.3666 -0.7108
  139MOL0     C18685   5.936  11.718   1.774  0.1145  0.6567 -0.2482
  139MOL0     C18686   6.008  11.755   1.895 -0.0350  0.5852 -0.4245
  139MOL0     C18687   5.989  11.876   1.955  0.8717 -0.1826 -0.9049
  139MOL0     C18688   5.910  11.970   1.885 -0.6704 -0.1696  0.4707
  139MOL0     O18689   5.899  12.097   1.940 -0.3075 -0.9628 -0.1983
  139MOL0     C18690   6.035  12.152   1.922  0.1528  0.3321  0.3612
  139MOL0     C18691   6.072  12.230   2.050  0.1321 -0.7671 -0.4877
  139MOL0     C18692   5.993  12.354   2.049  0.0195 -0.3676 -0.8471
  139MOL0     C18693   6.053  12.471   2.129  0.0409 -0.3844 -0.6329
  139MOL0     C18694   6.010  12.454   2.275 -0.7004 -0.7287 -0.0610
  139MOL0     C18695   5.983  12.437   2.388 -0.3318  0.4940  0.0590
  139MOL0     C18696   5.842  11.940   1.771 -0.7989  0.7655  0.7344
  139MOL0     C18697   5.852  11.817   1.716 -0.7074  0.1248  0.3970
  139MOL0     H18698   6.035  11.332   1.580  0.4161 -1.1869  3.0110
  139MOL0     H18699   6.170  11.186   1.481 -0.0817  0.1169  0.1306
  139MOL0     H18700   6.305  11.025   1.417  0.0107 -0.5518 -1.4641
  139MOL0     H18701   6.410  11.134   1.312 -0.5347  0.2203 -0.7517
  139MOL0     H18702   6.455  10.870   1.307  3.6677 -1.1202 -1.4868
  139MOL0     H18703   6.582  11.006   1.322  0.8024 -0.2230 -0.3675
  139MOL0     H18704   6.592  10.944   1.563 -5.2659  1.0597  1.3951
  139MOL0     H18705   6.463  10.831   1.538 -1.5437  0.3160 -1.2634
  139MOL0     H18706   6.597  10.689   1.396 -1.2070  0.0989  0.9837
  139MOL0     H18707   6.732  10.820   1.389  1.3714  3.1284  3.9304
  139MOL0     H18708   6.651  10.682   1.645  1.8205 -2.4960  2.4737
  139MOL0     H18709   6.793  10.613   1.559  1.8808  0.2521  1.6500
  139MOL0     H18710   6.921  10.807   1.544  0.8640 -1.0159  0.0978
  139MOL0     H18711   6.796  10.898   1.625  0.2405 -0.9095 -0.7022
  139MOL0     H18712   6.927  10.648   1.759  0.1228  0.5502  2.1167
  139MOL0     H18713   6.986  10.806   1.771 -0.1687  0.8451 -3.5210
  139MOL0     H18714   6.700  10.737   1.846 -0.9772  0.6336  0.5272
  139MOL0     H18715   6.785  10.898   1.860 -0.4948 -0.7266  3.0190
  139MOL0     H18716   7.052  10.811   1.975 -0.2454  0.3694 -0.6292
  139MOL0     H18717   7.148  10.613   2.265 -1.5355 -0.5206 -0.3463
  139MOL0     H18718   7.202  10.759   2.184  1.2009  1.7653  2.6433
  139MOL0     H18719   7.221  10.798   2.386  0.4769 -3.5883 -2.0853
  139MOL0     H18720   7.058  10.741   2.428 -1.3390 -0.0093 -0.8000
  139MOL0     H18721   6.944  10.924   2.307 -0.2378  5.3322 -1.9050
  139MOL0     H18722   7.104  10.987   2.255 -0.5906 -2.2348 -0.1527
  139MOL0     H18723   7.152  11.027   2.493  0.4178  0.5220 -2.1297
  139MOL0     H18724   6.982  10.983   2.535 -0.0652  0.9365 -0.0704
  139MOL0     H18725   6.944  11.355   2.292  0.4835 -0.3349  0.7873
  139MOL0     H18726   7.047  11.678   2.317 -0.4099  0.5438  2.0688
  139MOL0     H18727   6.889  11.605   2.281 -3.0865  1.2319  1.9097
  139MOL0     H18728   6.897  11.699   2.423 -0.9220  0.6548 -0.6807
  139MOL0     H18729   6.953  11.815   2.749  0.0358 -3.2921  0.8382
  139MOL0     H18730   6.947  12.045   2.870  1.2198  1.3854 -0.7593
  139MOL0     H18731   7.236  12.087   3.185  2.3909 -0.8201 -1.8301
  139MOL0     H18732   7.323  12.180   3.079  0.1924  0.7689  0.3471
  139MOL0     H18733   7.264  12.302   3.295  0.8725 -2.0353  0.0224
  139MOL0     H18734   7.246  12.401   3.152 -0.5871  0.1681 -1.0487
  139MOL0     H18735   7.034  12.253   3.321 -0.0693 -0.1482 -0.3170
  139MOL0     H18736   6.991  12.315   3.158  0.9460 -1.9140 -1.3099
  139MOL0     H18737   7.120  12.533   3.288 -1.2211  0.8186 -0.3394
  139MOL0     H18738   6.953  12.512   3.245 -1.5299 -0.4222 -0.4128
  139MOL0     H18739   6.918  12.396   3.468  0.2696 -1.0841  1.6949
  139MOL0     H18740   6.979  12.567   3.483 -0.4985 -0.2982 -0.0043
  139MOL0     H18741   7.121  12.313   3.534  0.7195  0.2273 -1.1090
  139MOL0     H18742   7.191  12.479   3.514  1.4669 -2.0760 -1.2329
  139MOL0     H18743   6.985  12.380   3.742 -1.4255  1.9111  0.2397
  139MOL0     H18744   7.012  12.543   3.699  0.3901 -0.0234 -0.1126
  139MOL0     H18745   7.278  12.514   3.747  1.4564  0.4420 -0.0325
  139MOL0     H18746   7.230  12.352   3.801 -2.0097 -0.8543  0.6727
  139MOL0     H18747   7.319  11.935   3.058 -0.7762 -0.5934 -0.5506
  139MOL0     H18748   7.324  11.721   2.948 -0.4908 -1.1737 -1.5825
  139MOL0     H18749   7.159  11.403   2.734  0.9176 -1.4959  0.2443
  139MOL0     H18750   7.119  11.192   2.640 -1.3066  0.0781  1.6874
  139MOL0     H18751   6.520  11.363   1.660 -0.2180 -1.4273  0.4617
  139MOL0     H18752   6.366  11.530   1.749  0.1097  1.6435 -1.8562
  139MOL0     H18753   6.083  11.687   1.931  1.2843  0.4694 -3.1158
  139MOL0     H18754   6.027  11.892   2.056  0.6834 -1.4245 -0.6162
  139MOL0     H18755   6.112  12.078   1.896 -1.6306 -1.7735  0.7073
  139MOL0     H18756   6.031  12.220   1.837  3.8225 -2.3745 -2.3345
  139MOL0     H18757   6.177  12.258   2.040 -0.7230  2.8797 -0.4137
  139MOL0     H18758   6.052  12.165   2.136 -1.2786 -1.8964 -1.5982
  139MOL0     H18759   5.888  12.338   2.074  0.4833  1.2641  2.7194
  139MOL0     H18760   6.001  12.394   1.947  2.9691  0.7637 -0.2760
  139MOL0     H18761   6.033  12.566   2.080  0.7858  0.7678  1.1843
  139MOL0     H18762   6.160  12.447   2.131  0.0253 -0.4593  0.6918
  139MOL0     H18763   5.979  12.417   2.493  0.9846  0.5091  0.1307
  139MOL0     H18764   5.789  12.016   1.716  1.6988  1.1744 -1.2992
  139MOL0     H18765   5.817  11.795   1.616 -0.8312  0.2919  0.4032
  140MOL0     O18766   1.467  11.470   3.464  0.2019 -0.0269 -0.6403
  140MOL0     C18767   1.397  11.569   3.467  0.3023 -0.5268 -0.8017
  140MOL0     O18768   1.371  11.650   3.357 -0.2166 -0.5408 -0.2709
  140MOL0     C18769   1.445  11.643   3.238  0.0264  1.2544  0.8379
  140MOL0     C18770   1.412  11.536   3.154 -0.4290 -1.1793  0.6528
  140MOL0     C18771   1.482  11.533   3.033  0.2109 -0.4710 -0.2338
  140MOL0     C18772   1.583  11.632   2.992 -0.4329  0.2132  0.7471
  140MOL0     O18773   1.654  11.610   2.884 -0.3929 -0.2374 -0.4591
  140MOL0     C18774   1.755  11.707   2.846  0.4559  0.8053  0.6251
  140MOL0     C18775   1.858  11.628   2.758 -0.9960  0.2160  0.5580
  140MOL0     C18776   1.809  11.594   2.614 -0.2460 -0.1500 -0.4955
  140MOL0     C18777   1.795  11.722   2.525 -0.1751 -0.8386  1.0518
  140MOL0     C18778   1.801  11.706   2.371 -0.3657  0.4688 -0.4130
  140MOL0     C18779   1.681  11.632   2.315  0.4963  0.3816 -0.1134
  140MOL0     C18780   1.547  11.684   2.351 -0.4922  0.1964 -1.1368
  140MOL0     C18781   1.439  11.575   2.318  0.5170  0.0235 -0.1824
  140MOL0     N18782   1.302  11.629   2.347 -0.2032  0.6137 -0.1229
  140MOL0     C18783   1.249  11.646   2.471 -0.2482  0.2163  0.4720
  140MOL0     C18784   1.116  11.646   2.459 -0.3300 -0.9615 -0.3183
  140MOL0     C18785   1.031  11.704   2.567 -0.3681 -0.6452  0.4913
  140MOL0     C18786   1.067  11.654   2.708  0.6780  0.2224  0.1352
  140MOL0     C18787   1.025  11.511   2.736  0.5378  0.3088 -0.4631
  140MOL0     C18788   1.159  11.441   2.753  0.4499  0.1149 -0.1401
  140MOL0     O18789   1.152  11.305   2.818  0.2821  0.1602 -0.0983
  140MOL0     C18790   1.154  11.314   2.951 -0.0553 -0.1263 -0.7084
  140MOL0     C18791   1.255  11.249   3.022  0.9254 -0.6304  0.1134
  140MOL0     C18792   1.246  11.221   3.161 -0.3438 -0.2210 -0.2174
  140MOL0     C18793   1.348  11.148   3.226 -0.0669 -0.2695 -0.1258
  140MOL0     C18794   1.131  11.257   3.232 -0.9587  0.5977 -0.0196
  140MOL0     C18795   1.101  11.227   3.378  0.1850  0.3292 -0.2020
  140MOL0     O18796   0.993  11.285   3.434 -0.4793  0.4046  0.5469
  140MOL0     C18797   0.989  11.272   3.575  0.0772  1.2462  0.2381
  140MOL0     C18798   1.053  11.357   3.671  0.8047  0.2713 -0.1638
  140MOL0     C18799   1.035  11.335   3.809 -0.6069  0.5016 -0.9333
  140MOL0     C18800   0.944  11.229   3.855  0.3597 -1.0192  1.3046
  140MOL0     O18801   0.928  11.199   3.985 -0.3287 -0.0719  0.8233
  140MOL0     C18802   0.847  11.281   4.061 -0.3987 -0.4089  0.1139
  140MOL0     C18803   0.732  11.192   4.111  0.5590  0.3777 -0.4543
  140MOL0     C18804   0.631  11.156   4.002  0.3847  1.4559  1.1396
  140MOL0     C18805   0.504  11.098   4.056 -0.1729 -0.9804  0.2471
  140MOL0     C18806   0.421  11.032   3.937 -0.5057 -0.4932 -0.1688
  140MOL0     C18807   0.288  10.999   3.992  0.9486  0.4451 -0.4572
  140MOL0     C18808   0.171  11.099   3.974 -0.4605 -0.0093  0.0201
  140MOL0     C18809   0.034  11.032   3.998 -1.0078 -0.7062 -0.1268
  140MOL0    Cl18810   0.004  10.909   3.879  0.0856  0.5174 -0.3072
  140MOL0     C18811   0.889  11.149   3.763  0.6597 -0.6021 -0.8895
  140MOL0     C18812   0.904  11.169   3.619  0.4930 -0.6716 -0.5580
  140MOL0     O18813   1.170  11.144   3.433 -0.0510  0.1083  0.0110
  140MOL0     C18814   1.031  11.322   3.155 -0.7744 -0.2126 -0.9466
  140MOL0     C18815   1.045  11.349   3.023 -0.0925 -0.1660  0.2726
  140MOL0     N18816   1.090  11.626   2.327  0.2203 -0.3496  0.4753
  140MOL0     N18817   1.206  11.610   2.266  0.2448 -0.3817 -0.3530
  140MOL0     C18818   1.593  11.749   3.073 -0.1428  0.2461  0.5820
  140MOL0     C18819   1.521  11.752   3.195 -0.4593 -0.8675 -0.5339
  140MOL0     C18820   1.348  11.611   3.594 -0.0576 -0.8917  0.9965
  140MOL0     C18821   1.253  11.718   3.605 -0.2749  0.8163 -0.2942
  140MOL0     C18822   1.221  11.766   3.730  0.0765  0.6722  0.0439
  140MOL0     C18823   1.265  11.701   3.846  0.4718  0.4889 -0.3048
  140MOL0     O18824   1.240  11.768   3.969  0.3989  0.4434 -0.2088
  140MOL0     C18825   1.354  11.793   4.060  0.2910  0.4641  0.1646
  140MOL0     C18826   1.429  11.898   3.995 -0.1087 -0.5130  0.9947
  140MOL0     C18827   1.546  11.927   4.081  0.6013 -0.2206 -0.1286
  140MOL0     C18828   1.605  12.057   4.056 -0.3714  0.2360  0.3235
  140MOL0     C18829   1.656  12.069   3.912 -0.0779  0.4683 -0.9854
  140MOL0     C18830   1.683  12.101   3.798 -1.1417 -1.2645  0.2683
  140MOL0     C18831   1.356  11.600   3.837 -0.2991 -0.3865 -0.0170
  140MOL0     C18832   1.402  11.550   3.717  0.2247 -0.5826 -0.7484
  140MOL0     H18833   1.354  11.451   3.189 -3.6674  1.0845  1.2156
  140MOL0     H18834   1.459  11.449   2.968 -2.3006  0.1387 -0.2519
  140MOL0     H18835   1.704  11.785   2.788 -1.0071 -2.1335 -2.3662
  140MOL0     H18836   1.815  11.750   2.927  5.5918 -0.6510 -1.9196
  140MOL0     H18837   1.950  11.686   2.743 -1.0835 -0.0009 -0.9570
  140MOL0     H18838   1.895  11.543   2.816  0.9964  1.0213  0.5538
  140MOL0     H18839   1.886  11.527   2.574 -0.4653 -1.3436  0.9913
  140MOL0     H18840   1.714  11.540   2.615 -1.7755  2.2916 -2.4234
  140MOL0     H18841   1.702  11.779   2.539 -2.4467 -3.0574 -2.9590
  140MOL0     H18842   1.875  11.794   2.543 -0.3217 -0.4532  0.2322
  140MOL0     H18843   1.797  11.806   2.325  0.8193  0.9038  0.3690
  140MOL0     H18844   1.899  11.669   2.338  0.3466  0.6282  1.4190
  140MOL0     H18845   1.686  11.621   2.206 -0.2241 -3.9540  0.0851
  140MOL0     H18846   1.694  11.534   2.362  3.2091 -0.3676 -2.1557
  140MOL0     H18847   1.544  11.693   2.460  2.0619 -0.5056 -0.9558
  140MOL0     H18848   1.522  11.775   2.296  0.0859  0.6973 -0.5767
  140MOL0     H18849   1.453  11.479   2.369  0.2164 -0.7094 -1.4596
  140MOL0     H18850   1.445  11.548   2.213 -1.1114 -2.1929  0.2067
  140MOL0     H18851   1.309  11.648   2.561  0.4386 -0.4680  0.0446
  140MOL0     H18852   1.027  11.813   2.562  1.0834 -0.5953 -0.1561
  140MOL0     H18853   0.927  11.674   2.555  0.0812 -2.9811  1.7082
  140MOL0     H18854   1.013  11.721   2.776 -0.6931 -0.8932  0.1951
  140MOL0     H18855   1.170  11.683   2.732  0.3697  0.6814  0.9354
  140MOL0     H18856   0.987  11.469   2.642  1.0404 -1.4150  0.0479
  140MOL0     H18857   0.956  11.504   2.820  0.0976  0.6023 -0.7986
  140MOL0     H18858   1.226  11.509   2.805 -0.2787 -0.4468  1.6030
  140MOL0     H18859   1.199  11.422   2.653  1.0892 -0.9966  0.3080
  140MOL0     H18860   1.337  11.236   2.952  1.4213 -2.4207  0.9791
  140MOL0     H18861   1.306  11.054   3.264  1.0839 -2.3032 -3.4767
  140MOL0     H18862   1.438  11.121   3.170 -0.9007  0.7689 -2.0603
  140MOL0     H18863   1.383  11.210   3.309 -3.5676 -0.0333  1.3915
  140MOL0     H18864   1.105  11.448   3.641 -1.8088  1.4488 -1.3970
  140MOL0     H18865   1.076  11.404   3.882 -0.0775  0.7804 -1.4759
  140MOL0     H18866   0.916  11.314   4.139  1.9270 -2.0176 -1.1794
  140MOL0     H18867   0.798  11.359   4.001 -3.2419 -0.9435  1.5483
  140MOL0     H18868   0.772  11.111   4.172 -0.4972 -0.4837 -0.8700
  140MOL0     H18869   0.680  11.261   4.179  0.8766 -0.0034  0.1810
  140MOL0     H18870   0.673  11.076   3.941 -0.1259  2.1356 -0.1489
  140MOL0     H18871   0.602  11.236   3.933 -1.1603 -0.2160 -0.2612
  140MOL0     H18872   0.523  11.036   4.145 -1.1812 -0.3326  0.9398
  140MOL0     H18873   0.449  11.183   4.097 -0.3691 -0.6916 -0.6016
  140MOL0     H18874   0.467  10.941   3.897 -1.2619  0.0559 -2.4298
  140MOL0     H18875   0.411  11.105   3.856  2.3452  0.2073  0.0124
  140MOL0     H18876   0.255  10.903   3.953  3.1217 -0.8398  0.6476
  140MOL0     H18877   0.293  10.971   4.098  1.8473 -1.3228 -0.9423
  140MOL0     H18878   0.185  11.136   3.872  2.0822  1.3284  0.7785
  140MOL0     H18879   0.175  11.186   4.040 -0.1363 -1.0400  1.3998
  140MOL0     H18880  -0.062  11.083   4.011 -2.6703 -3.7416  0.3893
  140MOL0     H18881   0.047  10.985   4.096  3.5300 -0.7016 -0.5271
  140MOL0     H18882   0.818  11.075   3.799  0.7495 -0.8055 -1.1273
  140MOL0     H18883   0.840  11.112   3.552 -2.1267  2.1099 -0.6537
  140MOL0     H18884   0.943  11.364   3.202 -1.0512 -1.3823 -0.3896
  140MOL0     H18885   0.955  11.388   2.976  1.4448 -2.9150 -6.0282
  140MOL0     H18886   1.652  11.832   3.036 -1.3070  0.7140 -0.3007
  140MOL0     H18887   1.529  11.831   3.269  2.1415 -1.7967  0.2878
  140MOL0     H18888   1.212  11.754   3.512  0.7790  2.2506 -0.2376
  140MOL0     H18889   1.148  11.845   3.741 -0.4396  0.1832  0.1454
  140MOL0     H18890   1.305  11.823   4.153  1.3056  1.9911  0.2578
  140MOL0     H18891   1.417  11.708   4.085 -1.0547 -1.5551 -2.7687
  140MOL0     H18892   1.371  11.991   3.995  0.1964 -0.3253  0.9353
  140MOL0     H18893   1.478  11.873   3.901  0.5994  2.9815  0.3264
  140MOL0     H18894   1.620  11.847   4.087  0.6808 -0.2172 -1.0029
  140MOL0     H18895   1.506  11.932   4.183  0.5865  1.1273 -0.1914
  140MOL0     H18896   1.691  12.066   4.123  0.7839  1.8918 -1.2835
  140MOL0     H18897   1.538  12.140   4.079 -0.9602 -0.7972  2.6391
  140MOL0     H18898   1.692  12.137   3.697 -0.1000  0.9339  1.0810
  140MOL0     H18899   1.382  11.562   3.935 -4.4955  0.9799  1.8725
  140MOL0     H18900   1.455  11.455   3.707 -1.7472 -2.1886  2.4334
  141MOL0     O18901  11.492   4.459   0.053 -0.2473  0.4665 -0.1836
  141MOL0     C18902  11.401   4.530   0.015  0.4050  0.4891  1.1405
  141MOL0     O18903  11.412   4.639  -0.062  0.7206 -0.3838  0.0988
  141MOL0     C18904  11.534   4.698  -0.077  0.5769  0.4308 -0.3493
  141MOL0     C18905  11.568   4.704  -0.211  0.3909  0.8156 -0.2072
  141MOL0     C18906  11.681   4.783  -0.236 -0.4715 -0.8791  1.3404
  141MOL0     C18907  11.770   4.840  -0.138 -0.2765 -0.2737 -0.2775
  141MOL0     O18908  11.886   4.912  -0.156  0.1700 -0.4731 -0.0327
  141MOL0     C18909  11.884   5.007  -0.259  0.0536  0.2743 -0.1759
  141MOL0     C18910  11.964   5.131  -0.222  0.5360 -0.1978  0.2031
  141MOL0     C18911  11.985   5.220  -0.336  1.1485 -0.6187 -0.0639
  141MOL0     C18912  12.073   5.171  -0.452  1.2505  0.2303 -0.5697
  141MOL0     C18913  12.220   5.175  -0.414  0.2878 -0.0760 -0.8562
  141MOL0     C18914  12.314   5.162  -0.539 -0.4667 -0.5941  0.0479
  141MOL0     C18915  12.290   5.023  -0.602  0.5763 -0.7830  0.2262
  141MOL0     C18916  12.413   5.002  -0.693 -1.3203 -0.6891  0.4704
  141MOL0     N18917  12.435   4.879  -0.760  0.4081  0.3717 -0.5911
  141MOL0     C18918  12.382   4.841  -0.887  0.3015  0.0570  0.1323
  141MOL0     C18919  12.431   4.719  -0.903 -0.0454 -0.5342  1.3155
  141MOL0     C18920  12.404   4.638  -1.025 -0.9578 -0.2279 -0.1991
  141MOL0     C18921  12.300   4.533  -0.999  0.0851  0.2420  0.2076
  141MOL0     C18922  12.180   4.566  -1.086  0.7025  0.9438  0.3116
  141MOL0     C18923  12.201   4.536  -1.234 -0.4057  0.3422 -0.4772
  141MOL0     O18924  12.164   4.642  -1.332  0.5681 -0.2579 -0.3431
  141MOL0     C18925  12.244   4.658  -1.446 -0.4115  0.7641  0.0449
  141MOL0     C18926  12.380   4.646  -1.454 -0.1663  0.1535 -0.0679
  141MOL0     C18927  12.443   4.637  -1.575 -0.3563  0.0031 -0.1241
  141MOL0     C18928  12.584   4.575  -1.565 -0.3221 -0.7338 -0.5419
  141MOL0     C18929  12.384   4.668  -1.700  0.3888  0.1061  0.6804
  141MOL0     C18930  12.442   4.666  -1.834  0.8235 -0.7640  0.4522
  141MOL0     O18931  12.350   4.693  -1.935 -0.1813 -0.3652 -0.2468
  141MOL0     C18932  12.383   4.789  -2.034  0.3406  0.5578  0.6327
  141MOL0     C18933  12.298   4.899  -2.035 -0.4605  0.2816  0.4160
  141MOL0     C18934  12.315   5.000  -2.132 -0.1550  0.1217 -0.2117
  141MOL0     C18935  12.426   5.002  -2.220  0.2146  0.1638  0.0074
  141MOL0     O18936  12.459   5.097  -2.305 -0.1555  0.9552 -0.4598
  141MOL0     C18937  12.361   5.193  -2.339 -0.3174 -0.7987 -0.1914
  141MOL0     C18938  12.442   5.295  -2.411  0.5091  0.1283 -0.4445
  141MOL0     C18939  12.482   5.266  -2.549 -0.2502 -0.5085  0.0098
  141MOL0     C18940  12.601   5.176  -2.553 -0.3073  0.7558  0.9768
  141MOL0     C18941  12.665   5.173  -2.687 -0.7795  0.1662  1.4286
  141MOL0     C18942  12.607   5.075  -2.776 -0.8621  0.0926  0.5292
  141MOL0     C18943  12.707   5.061  -2.894  0.7523 -0.2098  0.7196
  141MOL0     C18944  12.677   4.926  -2.965  0.2506  0.2635 -0.6333
  141MOL0    Cl18945  12.742   4.901  -3.125  0.3245  0.0660 -0.3820
  141MOL0     C18946  12.508   4.890  -2.216  0.1448 -0.5229 -0.3007
  141MOL0     C18947  12.490   4.781  -2.124 -0.7053 -0.1473 -0.9429
  141MOL0     O18948  12.565   4.671  -1.859  0.0583  0.6972 -0.1696
  141MOL0     C18949  12.246   4.701  -1.686 -0.5496 -0.0444  0.3984
  141MOL0     C18950  12.182   4.708  -1.561 -0.0008  0.0261 -0.3686
  141MOL0     N18951  12.517   4.678  -0.798  0.4030 -0.5314 -0.5710
  141MOL0     N18952  12.527   4.784  -0.718 -0.4832 -0.1013 -0.0197
  141MOL0     C18953  11.738   4.814  -0.003  1.2569 -0.7819 -0.0581
  141MOL0     C18954  11.624   4.740   0.025  0.7401  0.1622 -0.0162
  141MOL0     C18955  11.258   4.480   0.025 -0.7459  0.0312 -0.3063
  141MOL0     C18956  11.207   4.437   0.151 -0.6413  0.1865 -0.2692
  141MOL0     C18957  11.080   4.369   0.159  0.6884 -0.4949  1.5119
  141MOL0     C18958  11.002   4.357   0.037 -0.6359 -0.5447 -0.2151
  141MOL0     O18959  10.881   4.296   0.022  0.3434 -0.3181 -0.1996
  141MOL0     C18960  10.821   4.232   0.140  0.5729  0.1903 -0.7496
  141MOL0     C18961  10.672   4.200   0.124 -0.0766 -0.5065  0.3821
  141MOL0     C18962  10.589   4.123   0.225  1.0207  0.3239  0.8558
  141MOL0     C18963  10.614   4.162   0.375 -0.1306 -0.3803 -0.2120
  141MOL0     C18964  10.600   4.310   0.391 -1.3047  0.7014  0.8127
  141MOL0     C18965  10.597   4.423   0.421  0.1845 -0.3176  0.5005
  141MOL0     C18966  11.047   4.426  -0.077 -1.0741  0.0075  0.7210
  141MOL0     C18967  11.177   4.486  -0.083 -0.6885 -0.5215  0.7826
  141MOL0     H18968  11.505   4.660  -0.288 -3.7335  2.6489  1.7940
  141MOL0     H18969  11.702   4.788  -0.343 -1.9635 -0.2869  1.0527
  141MOL0     H18970  11.928   4.961  -0.347 -0.7363 -2.7187  0.8580
  141MOL0     H18971  11.782   5.034  -0.288 -0.9622 -3.6791 -0.8552
  141MOL0     H18972  11.911   5.188  -0.144  1.2741  3.4061 -1.6799
  141MOL0     H18973  12.066   5.103  -0.193  1.2456 -0.5800 -2.4441
  141MOL0     H18974  11.890   5.249  -0.381 -0.3668 -2.2697  1.8792
  141MOL0     H18975  12.039   5.306  -0.295  0.5709  0.2415 -1.0833
  141MOL0     H18976  12.053   5.071  -0.492  2.9425 -0.4206  0.1430
  141MOL0     H18977  12.042   5.243  -0.528 -2.4147 -1.1476 -0.5965
  141MOL0     H18978  12.246   5.266  -0.358  4.6671 -1.1235 -0.8334
  141MOL0     H18979  12.239   5.103  -0.334  0.2004  0.8078 -0.0079
  141MOL0     H18980  12.293   5.227  -0.624  1.4162 -0.7979 -0.6234
  141MOL0     H18981  12.416   5.181  -0.504  0.5043 -2.1914 -1.7479
  141MOL0     H18982  12.276   4.945  -0.527  1.3711 -0.0904  1.1175
  141MOL0     H18983  12.202   5.029  -0.667 -0.8487 -2.9041  1.8447
  141MOL0     H18984  12.506   5.001  -0.634 -1.5857  2.0615  1.0879
  141MOL0     H18985  12.426   5.089  -0.758 -0.0178 -1.8368 -0.8816
  141MOL0     H18986  12.320   4.884  -0.964 -1.1035  1.0192  1.7308
  141MOL0     H18987  12.385   4.693  -1.118 -1.0456 -0.1373 -0.1271
  141MOL0     H18988  12.492   4.575  -1.041 -1.3855 -1.1376  0.8851
  141MOL0     H18989  12.257   4.539  -0.899 -1.1129 -3.1312  0.0199
  141MOL0     H18990  12.336   4.433  -1.027  1.4267  1.3973 -2.6162
  141MOL0     H18991  12.153   4.672  -1.078 -0.6811  0.5604  0.9873
  141MOL0     H18992  12.099   4.499  -1.057 -0.0799  1.7895  0.1121
  141MOL0     H18993  12.152   4.441  -1.256 -1.6241  0.2865  2.0935
  141MOL0     H18994  12.302   4.507  -1.265 -0.3420  0.8803 -0.7913
  141MOL0     H18995  12.441   4.626  -1.366  0.0207  2.2361  0.3291
  141MOL0     H18996  12.655   4.645  -1.520 -0.1340 -2.0827  1.3789
  141MOL0     H18997  12.579   4.493  -1.493  2.0561  0.5923  1.3082
  141MOL0     H18998  12.616   4.528  -1.659  0.5263  0.2291 -0.7525
  141MOL0     H18999  12.226   4.915  -1.955 -1.6684  2.0988 -0.9576
  141MOL0     H19000  12.242   5.080  -2.128  0.3140  0.5301  3.5559
  141MOL0     H19001  12.286   5.149  -2.405 -1.8045 -0.1711  1.0056
  141MOL0     H19002  12.320   5.235  -2.247  2.4675 -0.1061  0.8320
  141MOL0     H19003  12.368   5.375  -2.420 -1.0984 -1.5558 -4.5755
  141MOL0     H19004  12.520   5.324  -2.339 -0.9590  0.3482  1.1290
  141MOL0     H19005  12.501   5.356  -2.608 -0.2991 -1.4007 -1.4155
  141MOL0     H19006  12.402   5.211  -2.600 -0.9220 -0.1715  0.6819
  141MOL0     H19007  12.678   5.211  -2.485  2.9548  1.3000 -2.6552
  141MOL0     H19008  12.568   5.077  -2.519 -2.6979  1.5171  1.1124
  141MOL0     H19009  12.773   5.167  -2.674 -0.3886  0.1005 -1.2610
  141MOL0     H19010  12.628   5.268  -2.727  0.3707  0.4226  0.9556
  141MOL0     H19011  12.587   4.979  -2.728  0.0028 -0.8140 -0.8432
  141MOL0     H19012  12.510   5.097  -2.822 -1.8291 -3.3336  0.6314
  141MOL0     H19013  12.812   5.082  -2.869  0.6060  0.3702  0.8513
  141MOL0     H19014  12.676   5.140  -2.962 -1.9592 -1.4525  0.3740
  141MOL0     H19015  12.567   4.927  -2.969  0.2732  1.3725 -1.5524
  141MOL0     H19016  12.706   4.845  -2.897  4.3708  0.3373 -2.0552
  141MOL0     H19017  12.591   4.890  -2.286  0.4366  0.5510  0.0389
  141MOL0     H19018  12.561   4.699  -2.122  0.9446  1.1937  1.5736
  141MOL0     H19019  12.186   4.736  -1.769 -1.3451 -2.7037 -0.2428
  141MOL0     H19020  12.076   4.728  -1.547 -0.2466  0.2054 -2.2941
  141MOL0     H19021  11.798   4.847   0.081  0.0448  2.9275 -0.4504
  141MOL0     H19022  11.597   4.712   0.126 -0.0972  1.6406  0.2030
  141MOL0     H19023  11.256   4.462   0.245  1.1643  0.0687 -1.1362
  141MOL0     H19024  11.030   4.332   0.248  0.8960 -0.8858  1.4716
  141MOL0     H19025  10.883   4.150   0.177  1.2087  1.6352  1.5161
  141MOL0     H19026  10.817   4.308   0.218  0.8237 -0.6599  0.1110
  141MOL0     H19027  10.658   4.148   0.028 -0.5082 -2.6091  1.5307
  141MOL0     H19028  10.621   4.292   0.096  1.7365  0.3116 -0.3855
  141MOL0     H19029  10.617   4.019   0.208 -3.2275 -1.7039  4.0910
  141MOL0     H19030  10.483   4.138   0.204  1.2694  2.3886  0.8237
  141MOL0     H19031  10.712   4.122   0.402  0.0131 -0.6912 -1.1346
  141MOL0     H19032  10.542   4.107   0.436 -0.0006 -0.9676 -0.5694
  141MOL0     H19033  10.579   4.527   0.440  2.0611  0.4280 -1.4131
  141MOL0     H19034  10.989   4.431  -0.169  0.9001 -1.5912 -0.6892
  141MOL0     H19035  11.220   4.534  -0.171 -0.0707 -0.8638  0.8909
  142MOL0     O19036   0.216   7.042  10.074  0.0322 -0.5907 -0.9644
  142MOL0     C19037   0.310   6.982  10.129 -0.4177 -0.7143 -0.0620
  142MOL0     O19038   0.341   6.856  10.102  0.0259  0.7886 -0.3722
  142MOL0     C19039   0.265   6.784  10.010  0.7203 -0.7643 -0.1663
  142MOL0     C19040   0.221   6.666  10.042 -0.1202  0.3682 -0.3607
  142MOL0     C19041   0.142   6.587   9.959  1.0758 -0.0631  0.4219
  142MOL0     C19042   0.124   6.630   9.820 -0.4919  0.1209 -0.0004
  142MOL0     O19043   0.066   6.560   9.720  0.2697  0.1779  1.7809
  142MOL0     C19044   0.007   6.439   9.749  0.7722 -0.3316 -0.6167
  142MOL0     C19045   0.120   6.328   9.762  0.3811 -0.5565  0.2775
  142MOL0     C19046   0.050   6.200   9.798  0.1191  0.7088 -0.2485
  142MOL0     C19047   0.151   6.091   9.834 -0.0028  0.8841 -0.8635
  142MOL0     C19048   0.066   5.952   9.853  0.6216 -1.0749 -0.9015
  142MOL0     C19049  -0.037   5.970   9.961  1.0244  0.7570 -0.3266
  142MOL0     C19050  -0.008   6.012  10.098  0.7001 -0.5004 -0.2991
  142MOL0     C19051   0.095   5.915  10.161  0.8257 -0.7049  0.1980
  142MOL0     N19052   0.157   5.989  10.272  0.0566 -0.5927  0.1849
  142MOL0     C19053   0.090   6.062  10.369 -0.2827  0.3433 -0.3906
  142MOL0     C19054   0.177   6.067  10.475  0.1138 -0.7417 -0.8489
  142MOL0     C19055   0.137   6.112  10.614 -0.0344  0.2956  1.1346
  142MOL0     C19056   0.106   5.988  10.707  0.3885 -0.8989  0.4614
  142MOL0     C19057   0.223   5.897  10.741  0.3206 -0.5701  0.0467
  142MOL0     C19058   0.238   5.893  10.899  0.0853 -0.6140  0.0074
  142MOL0     O19059   0.115   5.859  10.971 -0.7631 -0.2821 -0.2914
  142MOL0     C19060   0.079   5.729  10.959 -1.0897  0.2495  0.3060
  142MOL0     C19061  -0.020   5.674  10.875  0.1545  0.4602 -0.2632
  142MOL0     C19062  -0.031   5.538  10.844 -0.1014 -0.4956  0.5095
  142MOL0     C19063  -0.143   5.497  10.750 -0.4050 -0.1453 -1.0760
  142MOL0     C19064   0.063   5.445  10.903  0.3689 -0.0459 -0.0545
  142MOL0     C19065   0.064   5.296  10.876 -0.9397 -1.3093 -0.0882
  142MOL0     O19066   0.148   5.218  10.962  0.0975 -0.5207 -1.3894
  142MOL0     C19067   0.178   5.086  10.926  0.8876 -0.4167 -0.1936
  142MOL0     C19068   0.081   4.991  10.934 -0.2381  0.3185  0.1783
  142MOL0     C19069   0.128   4.856  10.913 -0.7914 -0.6285  0.1582
  142MOL0     C19070   0.264   4.827  10.868  1.4042  0.8245  0.0716
  142MOL0     O19071   0.300   4.693  10.846 -0.4350 -0.3932  0.2521
  142MOL0     C19072   0.442   4.660  10.828  0.2283 -0.8673  0.4108
  142MOL0     C19073   0.482   4.541  10.913  0.2899  0.5869  0.6818
  142MOL0     C19074   0.500   4.576  11.056  0.8560  0.3689 -0.1224
  142MOL0     C19075   0.376   4.584  11.146 -0.0281  0.2073  0.3750
  142MOL0     C19076   0.404   4.604  11.299  0.4687 -0.2832 -0.3096
  142MOL0     C19077   0.509   4.521  11.359 -1.0143 -0.5371  0.0958
  142MOL0     C19078   0.518   4.545  11.509 -0.2233 -0.6513  0.6154
  142MOL0     C19079   0.559   4.684  11.558  0.6027 -0.9254 -0.0847
  142MOL0    Cl19080   0.580   4.668  11.733  0.1662 -0.7668  0.0162
  142MOL0     C19081   0.349   4.942  10.829 -0.1274  0.8681  0.5769
  142MOL0     C19082   0.301   5.060  10.871  0.5387 -0.1246 -0.1407
  142MOL0     O19083   0.004   5.256  10.780  0.6494 -0.1878  0.0197
  142MOL0     C19084   0.167   5.501  10.984  0.4271 -0.4830 -0.0517
  142MOL0     C19085   0.168   5.637  11.020  0.8819 -0.7110  0.6675
  142MOL0     N19086   0.297   6.005  10.434  0.9542  0.4763 -0.0395
  142MOL0     N19087   0.280   5.966  10.309  0.0287  0.5650  0.8247
  142MOL0     C19088   0.170   6.754   9.781 -0.4889 -0.0511  0.3836
  142MOL0     C19089   0.240   6.826   9.875 -0.1394 -0.6881 -0.2164
  142MOL0     C19090   0.383   7.052  10.232 -0.7596 -0.1689 -0.2227
  142MOL0     C19091   0.468   6.987  10.318 -0.1953 -0.1736 -1.1450
  142MOL0     C19092   0.506   7.050  10.438 -0.1279  0.2184  0.7414
  142MOL0     C19093   0.463   7.188  10.466 -0.2655 -0.8114 -1.1159
  142MOL0     O19094   0.475   7.261  10.586 -0.2330  0.5678  0.5130
  142MOL0     C19095   0.492   7.175  10.692 -0.9162  0.6241  0.0647
  142MOL0     C19096   0.531   7.260  10.814  1.3587  0.6757  0.2398
  142MOL0     C19097   0.489   7.203  10.952  0.5030  1.1398 -0.0761
  142MOL0     C19098   0.554   7.070  10.994  0.1636  0.0678  0.0797
  142MOL0     C19099   0.689   7.090  11.048 -0.4122  0.0694 -0.3028
  142MOL0     C19100   0.793   7.092  11.098 -0.3497  0.8807  0.0170
  142MOL0     C19101   0.397   7.252  10.366  0.8457  0.3201  0.1364
  142MOL0     C19102   0.361   7.191  10.249 -0.4694  0.1543 -0.2285
  142MOL0     H19103   0.245   6.630  10.142 -1.1336  0.8294  0.0639
  142MOL0     H19104   0.110   6.492  10.000 -2.7906  0.5577 -0.7985
  142MOL0     H19105  -0.046   6.442   9.845 -1.1652  3.0801 -1.6108
  142MOL0     H19106  -0.054   6.419   9.661  0.6412  0.4546 -0.7177
  142MOL0     H19107   0.175   6.327   9.668  1.4523  1.7586  0.7954
  142MOL0     H19108   0.193   6.348   9.841  1.3291 -3.9063  0.3838
  142MOL0     H19109  -0.006   6.214   9.891 -5.5499  1.9393 -3.4057
  142MOL0     H19110  -0.021   6.159   9.725 -1.0119  1.3436  0.4703
  142MOL0     H19111   0.216   6.075   9.747  0.8438  0.5785 -0.1869
  142MOL0     H19112   0.202   6.110   9.928 -0.0802 -2.4485 -0.0157
  142MOL0     H19113   0.016   5.918   9.762 -0.7838 -2.4368  0.3128
  142MOL0     H19114   0.133   5.868   9.871 -0.5210 -1.8083  0.1899
  142MOL0     H19115  -0.115   6.037   9.924  0.4507  0.6583  0.6555
  142MOL0     H19116  -0.079   5.870   9.973  1.3566  0.8617  2.6800
  142MOL0     H19117   0.017   6.118  10.085 -1.1749 -0.3127 -3.4223
  142MOL0     H19118  -0.103   6.008  10.152 -0.4783  3.7453 -1.5921
  142MOL0     H19119   0.173   5.882  10.090  0.9723 -0.3892  0.2119
  142MOL0     H19120   0.044   5.822  10.189 -1.5892  0.7204  0.8119
  142MOL0     H19121  -0.015   6.091  10.360 -0.2131 -0.0111 -3.8422
  142MOL0     H19122   0.217   6.174  10.656  2.3505 -1.7841 -0.0639
  142MOL0     H19123   0.041   6.159  10.590  1.9280  3.4384 -1.4883
  142MOL0     H19124   0.037   5.930  10.645  0.5727 -1.9083  1.1716
  142MOL0     H19125   0.055   6.023  10.797  2.8931  0.5672  1.4117
  142MOL0     H19126   0.320   5.929  10.701  1.8995 -1.8801  2.6084
  142MOL0     H19127   0.216   5.798  10.695  1.3570 -0.0416 -1.3474
  142MOL0     H19128   0.268   5.995  10.924 -0.2154  0.6366 -3.9845
  142MOL0     H19129   0.314   5.822  10.932  0.1610  0.0298  1.2635
  142MOL0     H19130  -0.084   5.746  10.824 -1.0487  0.7985  1.6247
  142MOL0     H19131  -0.213   5.581  10.743  2.0616  1.9429 -2.4049
  142MOL0     H19132  -0.101   5.457  10.658  1.1016 -1.7508  0.2277
  142MOL0     H19133  -0.194   5.406  10.785  4.8846 -2.5581  1.4832
  142MOL0     H19134  -0.023   5.015  10.950 -0.3449 -0.6085  1.0059
  142MOL0     H19135   0.066   4.769  10.927 -1.8171 -0.4026 -2.4313
  142MOL0     H19136   0.459   4.641  10.722 -2.9202  0.6700 -0.4690
  142MOL0     H19137   0.512   4.740  10.854  3.6085 -3.3128 -0.4019
  142MOL0     H19138   0.415   4.455  10.903 -2.0956  2.5291 -1.4938
  142MOL0     H19139   0.581   4.509  10.880  0.9979  1.9931  1.3172
  142MOL0     H19140   0.575   4.654  11.071  0.6283  0.5179  0.2650
  142MOL0     H19141   0.539   4.480  11.090 -3.7154 -2.1668 -1.0773
  142MOL0     H19142   0.313   4.660  11.098 -0.3474 -1.0035 -1.2040
  142MOL0     H19143   0.315   4.494  11.138  2.5109 -1.5708 -0.1509
  142MOL0     H19144   0.313   4.594  11.360  0.8177 -1.1432  0.0916
  142MOL0     H19145   0.440   4.707  11.298 -2.6499  0.9640  1.6665
  142MOL0     H19146   0.495   4.416  11.332 -3.0444 -0.7867  1.8091
  142MOL0     H19147   0.608   4.539  11.316  1.9672  1.6156  6.5591
  142MOL0     H19148   0.598   4.471  11.526  0.2155 -0.3863 -0.2193
  142MOL0     H19149   0.425   4.512  11.556 -0.9690 -0.6916 -0.8620
  142MOL0     H19150   0.479   4.755  11.539  3.9624  2.5574 -2.8869
  142MOL0     H19151   0.645   4.728  11.507  0.3180  0.4278  0.5499
  142MOL0     H19152   0.440   4.930  10.771 -0.1603  0.2721  0.6432
  142MOL0     H19153   0.360   5.149  10.853  1.0968 -0.6024 -0.7014
  142MOL0     H19154   0.243   5.427  11.006  1.6584  0.7834  0.0664
  142MOL0     H19155   0.238   5.678  11.092 -0.2265  4.9245 -0.9465
  142MOL0     H19156   0.147   6.798   9.685  2.1374  1.8920  0.5223
  142MOL0     H19157   0.276   6.923   9.842  3.6706 -1.1362  2.0083
  142MOL0     H19158   0.497   6.885  10.297  3.7028  0.7766 -1.1079
  142MOL0     H19159   0.565   6.990  10.507 -0.7785 -3.6865 -1.7934
  142MOL0     H19160   0.392   7.140  10.717 -0.3011 -0.2132  1.5106
  142MOL0     H19161   0.560   7.091  10.678 -0.9729  0.4090  1.0101
  142MOL0     H19162   0.476   7.355  10.813 -3.2392 -1.5251  4.5453
  142MOL0     H19163   0.637   7.288  10.815  1.3305  0.9523 -1.2961
  142MOL0     H19164   0.382   7.179  10.956  0.6796  0.3045 -0.1512
  142MOL0     H19165   0.519   7.276  11.028  0.1404  0.3609  0.8349
  142MOL0     H19166   0.554   6.992  10.917  1.1374 -1.5073  1.5906
  142MOL0     H19167   0.496   7.046  11.083 -3.9763  0.2084 -2.3300
  142MOL0     H19168   0.889   7.082  11.146  0.3646  1.9830 -1.1168
  142MOL0     H19169   0.363   7.354  10.375 -2.5334 -0.7215  0.6394
  142MOL0     H19170   0.318   7.252  10.170  3.7824  0.2239 -2.7478
  143MOL0     O19171   2.025  11.542   7.280  0.1323 -0.2236  0.2357
  143MOL0     C19172   1.945  11.566   7.194 -0.0959 -0.1909 -0.1786
  143MOL0     O19173   1.833  11.641   7.205  0.0192 -0.1294  0.0103
  143MOL0     C19174   1.764  11.661   7.322 -0.5419 -0.4022 -0.1852
  143MOL0     C19175   1.767  11.573   7.427 -0.7288  0.1868 -0.4075
  143MOL0     C19176   1.691  11.619   7.534 -0.5225  0.3005 -0.2584
  143MOL0     C19177   1.621  11.737   7.546  0.0797 -1.2515 -0.0311
  143MOL0     O19178   1.550  11.764   7.662  0.1100 -0.0350  0.0204
  143MOL0     C19179   1.536  11.897   7.704  0.4738 -0.3633  0.1524
  143MOL0     C19180   1.451  11.901   7.829  0.4380  1.0612 -0.1925
  143MOL0     C19181   1.425  12.036   7.888  0.4079  0.0690  0.4255
  143MOL0     C19182   1.331  12.012   8.006  1.1878 -0.0989 -0.0163
  143MOL0     C19183   1.297  12.141   8.077  0.0821 -0.1819  0.2593
  143MOL0     C19184   1.243  12.111   8.213  0.4603 -0.4016  1.0528
  143MOL0     C19185   1.218  12.250   8.288  0.4418 -0.6232  0.2152
  143MOL0     C19186   1.152  12.365   8.217  0.8488  0.2875 -0.0790
  143MOL0     N19187   1.123  12.478   8.305 -0.2341 -0.1968  0.4555
  143MOL0     C19188   1.211  12.553   8.387  0.4887 -0.7354  0.0792
  143MOL0     C19189   1.133  12.663   8.412 -0.4067  0.7853  0.2008
  143MOL0     C19190   1.168  12.765   8.517 -0.7037  0.2583  0.1020
  143MOL0     C19191   1.076  12.742   8.636  0.1084 -0.5395  0.8234
  143MOL0     C19192   1.058  12.873   8.719 -0.8499  0.2371  0.5867
  143MOL0     C19193   1.191  12.914   8.789  0.4134 -0.1787  0.4191
  143MOL0     O19194   1.252  12.827   8.883 -0.7267  0.2024 -1.6452
  143MOL0     C19195   1.239  12.856   9.017 -0.2833 -0.1294  0.2346
  143MOL0     C19196   1.113  12.836   9.084 -0.0814 -0.0705 -0.0806
  143MOL0     C19197   1.094  12.892   9.215 -0.1732  0.1727  0.4490
  143MOL0     C19198   0.951  12.882   9.275  0.1866  0.6544 -0.1719
  143MOL0     C19199   1.207  12.950   9.282  0.0346  0.8457 -0.0262
  143MOL0     C19200   1.207  13.002   9.429  0.1821 -1.4244  0.8287
  143MOL0     O19201   1.303  13.100   9.445 -0.0359  1.0201 -0.4520
  143MOL0     C19202   1.308  13.187   9.552 -0.2832  0.1748  0.5905
  143MOL0     C19203   1.226  13.193   9.667  0.2065  0.5799 -0.2570
  143MOL0     C19204   1.247  13.301   9.758  1.2974  0.4253 -0.8822
  143MOL0     C19205   1.353  13.381   9.753  0.8504 -0.1243  0.2746
  143MOL0     O19206   1.356  13.494   9.833 -0.3534 -0.6050  0.1825
  143MOL0     C19207   1.233  13.572   9.849 -0.1170 -0.2919  0.7573
  143MOL0     C19208   1.192  13.574   9.999  0.5841  0.2046  0.2853
  143MOL0     C19209   1.299  13.596  10.095  1.1001  0.6097  0.0883
  143MOL0     C19210   1.253  13.590  10.238  0.4887  0.7835  0.0930
  143MOL0     C19211   1.358  13.638  10.337 -0.5794 -0.1908 -0.2346
  143MOL0     C19212   1.312  13.686  10.477 -0.1067  0.1176 -0.1849
  143MOL0     C19213   1.284  13.569  10.570 -0.0743 -0.3698 -0.1493
  143MOL0     C19214   1.239  13.607  10.709  0.1759  0.5131 -0.5550
  143MOL0    Cl19215   1.380  13.669  10.806  0.3335 -0.6545  0.3119
  143MOL0     C19216   1.452  13.367   9.650  0.4397  0.2278  0.6165
  143MOL0     C19217   1.428  13.274   9.551  0.4497  0.3272 -0.4976
  143MOL0     O19218   1.101  12.990   9.491  0.0776  0.4006 -0.5169
  143MOL0     C19219   1.324  12.971   9.213 -0.7691  0.6182 -0.1674
  143MOL0     C19220   1.338  12.934   9.083 -0.6127 -0.5524  0.3650
  143MOL0     N19221   1.013  12.656   8.351 -0.4647 -0.8173  0.2154
  143MOL0     N19222   1.008  12.546   8.279  0.8656 -0.1888 -0.9961
  143MOL0     C19223   1.626  11.828   7.438 -0.1784  0.9992  0.5171
  143MOL0     C19224   1.690  11.779   7.321  0.2234 -0.1772 -0.0171
  143MOL0     C19225   1.973  11.528   7.056 -0.6319  0.0140 -0.9288
  143MOL0     C19226   1.875  11.536   6.951  0.7987 -1.7185 -0.1197
  143MOL0     C19227   1.906  11.487   6.827 -0.2690  0.7328  0.1469
  143MOL0     C19228   2.030  11.433   6.789 -0.0865  0.6982 -0.2248
  143MOL0     O19229   2.059  11.370   6.661 -0.3581  0.4635  0.1583
  143MOL0     C19230   1.980  11.351   6.540  0.4030 -0.1235  0.1275
  143MOL0     C19231   1.911  11.223   6.537 -0.6820 -0.1291 -0.2461
  143MOL0     C19232   1.797  11.207   6.632  0.0584  0.1526  0.4296
  143MOL0     C19233   1.771  11.060   6.678  0.2385  0.3109 -0.8545
  143MOL0     C19234   1.712  10.963   6.578 -0.8416 -0.3593  0.1615
  143MOL0     C19235   1.655  10.895   6.494  0.8499 -0.9323  0.6855
  143MOL0     C19236   2.128  11.428   6.892  0.5981  0.1898  0.6869
  143MOL0     C19237   2.099  11.468   7.020  0.0156  0.0501 -0.1998
  143MOL0     H19238   1.827  11.483   7.418 -0.1065  0.6679 -1.2505
  143MOL0     H19239   1.685  11.557   7.622  2.9666 -1.6538 -1.2117
  143MOL0     H19240   1.639  11.933   7.718  0.7493 -1.2894  0.5768
  143MOL0     H19241   1.492  11.955   7.622 -0.0004 -2.6556 -1.3136
  143MOL0     H19242   1.357  11.848   7.808 -0.0290  1.8146 -0.0708
  143MOL0     H19243   1.505  11.840   7.901 -0.0170  1.7716  0.7681
  143MOL0     H19244   1.525  12.081   7.901  1.6613 -1.9184 -1.6050
  143MOL0     H19245   1.386  12.104   7.812  2.1825  0.7706  0.0706
  143MOL0     H19246   1.250  11.949   7.967  3.5451 -2.1584 -1.9440
  143MOL0     H19247   1.383  11.957   8.084 -1.5667 -0.3973  1.7513
  143MOL0     H19248   1.382  12.204   8.102  0.4858 -1.6230  2.8579
  143MOL0     H19249   1.221  12.188   8.014  0.0197  0.2466  0.6466
  143MOL0     H19250   1.152  12.053   8.196  0.5865  0.2651 -3.0363
  143MOL0     H19251   1.322  12.054   8.263  3.0899  1.6299 -0.4979
  143MOL0     H19252   1.140  12.226   8.361  0.4512 -0.3233  0.3265
  143MOL0     H19253   1.314  12.281   8.329 -0.6723  2.5152  0.7766
  143MOL0     H19254   1.052  12.330   8.193  0.9735 -1.3877  1.5628
  143MOL0     H19255   1.203  12.396   8.125  0.6610  0.8818  0.0114
  143MOL0     H19256   1.303  12.518   8.434  0.5498 -0.4376  0.1839
  143MOL0     H19257   1.271  12.750   8.550  0.3487 -0.7136 -3.1983
  143MOL0     H19258   1.155  12.862   8.466  0.4373 -0.0491 -0.8107
  143MOL0     H19259   1.115  12.656   8.692 -2.1030 -2.4235 -0.3382
  143MOL0     H19260   0.975  12.721   8.602 -0.5939  3.1941  0.1899
  143MOL0     H19261   0.981  12.852   8.793  1.3086 -1.6077  2.4456
  143MOL0     H19262   1.015  12.955   8.660 -2.1383 -1.0746 -0.3644
  143MOL0     H19263   1.175  13.011   8.838 -0.1918 -0.5329  0.9374
  143MOL0     H19264   1.258  12.943   8.708  1.8477  1.4749  2.1074
  143MOL0     H19265   1.028  12.808   9.023 -0.7317  3.5206 -1.0107
  143MOL0     H19266   0.890  12.844   9.192 -1.2323 -0.9984  1.5532
  143MOL0     H19267   0.949  12.812   9.358  1.8567 -1.9470 -2.1644
  143MOL0     H19268   0.918  12.984   9.297 -0.3245  0.7646 -1.3568
  143MOL0     H19269   1.153  13.118   9.695  0.7864  0.4817  1.0687
  143MOL0     H19270   1.174  13.309   9.838 -0.3868  2.4260 -2.4947
  143MOL0     H19271   1.252  13.675   9.817  2.2066 -0.6156  0.9045
  143MOL0     H19272   1.157  13.530   9.783  0.2266 -2.3042  1.5835
  143MOL0     H19273   1.111  13.648  10.001  0.0365 -0.2851 -1.7299
  143MOL0     H19274   1.151  13.473  10.011  0.7030 -0.0171 -1.0457
  143MOL0     H19275   1.344  13.693  10.073  0.1719  0.4952 -2.8345
  143MOL0     H19276   1.373  13.516  10.081 -0.0525 -0.0351 -3.5026
  143MOL0     H19277   1.164  13.653  10.239 -0.5080 -0.5122  2.3865
  143MOL0     H19278   1.209  13.494  10.267  0.2203  0.8971  0.0638
  143MOL0     H19279   1.407  13.726  10.294 -0.4353 -1.1577 -2.1882
  143MOL0     H19280   1.446  13.575  10.349  1.4171  2.0636 -1.9860
  143MOL0     H19281   1.390  13.750  10.519 -0.7099  0.6462  0.1401
  143MOL0     H19282   1.223  13.750  10.481 -0.4191 -0.2888 -0.5389
  143MOL0     H19283   1.373  13.505  10.580  2.0775  2.3573 -0.4375
  143MOL0     H19284   1.201  13.513  10.526 -0.7858 -1.2786  2.1932
  143MOL0     H19285   1.199  13.518  10.759  2.2241  0.1553  0.5785
  143MOL0     H19286   1.158  13.679  10.713  0.3777  0.6813  0.7755
  143MOL0     H19287   1.532  13.440   9.638 -1.9151  2.6967 -1.5757
  143MOL0     H19288   1.491  13.267   9.462 -1.9331  0.7095 -2.3074
  143MOL0     H19289   1.415  13.014   9.253  0.1199 -0.7213 -0.6813
  143MOL0     H19290   1.431  12.956   9.031 -0.5844  1.5993  1.2400
  143MOL0     H19291   1.586  11.928   7.423 -0.9075  0.7432  0.7398
  143MOL0     H19292   1.706  11.845   7.237 -0.6722 -2.1697 -1.8486
  143MOL0     H19293   1.781  11.590   6.956  1.9594  0.3155  3.8193
  143MOL0     H19294   1.829  11.494   6.751 -1.9104 -0.2035  1.6205
  143MOL0     H19295   1.914  11.436   6.519 -1.6142 -1.4128  1.0241
  143MOL0     H19296   2.061  11.345   6.467 -2.6186 -0.3330 -3.4590
  143MOL0     H19297   1.988  11.147   6.551  2.0658  1.7780 -3.3816
  143MOL0     H19298   1.885  11.197   6.434  0.9871 -1.1109 -0.4569
  143MOL0     H19299   1.705  11.250   6.591 -0.2478 -0.5020  0.4152
  143MOL0     H19300   1.811  11.270   6.720 -0.3079  1.2884 -0.3057
  143MOL0     H19301   1.702  11.055   6.763  0.0340  1.4443 -0.9326
  143MOL0     H19302   1.867  11.013   6.702 -0.4953 -1.9940 -2.0656
  143MOL0     H19303   1.603  10.833   6.425  0.7463 -0.5226  0.3914
  143MOL0     H19304   2.218  11.382   6.854 -1.8585 -3.0732 -1.7937
  143MOL0     H19305   2.174  11.468   7.098  0.6617 -5.0578 -0.4770
  144MOL0     O19306   9.598   9.833   1.152  0.2541  0.1320  0.2053
  144MOL0     C19307   9.654   9.732   1.171  0.3109  0.5297 -1.1532
  144MOL0     O19308   9.771   9.692   1.111  0.0598  0.7188 -0.0012
  144MOL0     C19309   9.826   9.765   1.008  0.1202 -0.3998 -1.0406
  144MOL0     C19310   9.869   9.900   1.030 -0.3766 -0.3786 -1.1807
  144MOL0     C19311   9.933   9.977   0.932  0.9192  0.8806  0.4268
  144MOL0     C19312   9.938   9.926   0.798 -0.6645  0.1574 -0.0109
  144MOL0     O19313   9.982  10.003   0.696 -0.6129  0.1482  0.0932
  144MOL0     C19314  10.069   9.930   0.608 -0.3826 -0.2616  0.9122
  144MOL0     C19315  10.168  10.010   0.534  0.0847  0.2620 -0.0480
  144MOL0     C19316  10.229   9.925   0.420 -0.2898  0.2436  0.0239
  144MOL0     C19317  10.343   9.986   0.360 -0.1341  0.4947  0.0604
  144MOL0     C19318  10.476   9.912   0.385  0.9120  0.4183 -0.4785
  144MOL0     C19319  10.505   9.808   0.269 -0.3068  0.6417  0.3206
  144MOL0     C19320  10.634   9.724   0.304  0.2893  1.1631  0.1041
  144MOL0     C19321  10.615   9.633   0.432 -1.0635  0.2789 -0.0013
  144MOL0     N19322  10.730   9.613   0.518 -0.4938 -0.1520 -0.0506
  144MOL0     C19323  10.858   9.630   0.473 -0.1021  1.0639 -0.6013
  144MOL0     C19324  10.939   9.571   0.569  0.1747 -0.2292 -0.1548
  144MOL0     C19325  11.090   9.573   0.564  0.1058  0.2167 -0.6755
  144MOL0     C19326  11.154   9.715   0.575  1.3829 -0.9959 -0.2624
  144MOL0     C19327  11.304   9.701   0.596 -0.0265 -0.2952 -0.3681
  144MOL0     C19328  11.349   9.841   0.629 -1.3575  0.0871 -0.2579
  144MOL0     O19329  11.476   9.838   0.694 -0.1919 -0.2684  0.3462
  144MOL0     C19330  11.512   9.940   0.783 -0.0231  0.4575 -0.3832
  144MOL0     C19331  11.436  10.043   0.837 -0.5368  0.8410  0.3140
  144MOL0     C19332  11.493  10.130   0.927  0.7961 -0.0523  0.2392
  144MOL0     C19333  11.399  10.235   0.991 -0.6019 -0.2094  0.6586
  144MOL0     C19334  11.626  10.122   0.972  0.3425 -0.0441 -0.4316
  144MOL0     C19335  11.681  10.202   1.091  0.4453 -0.1108  0.4984
  144MOL0     O19336  11.774  10.295   1.055 -0.3247  0.4350 -0.4979
  144MOL0     C19337  11.845  10.379   1.137  0.5762 -0.4769 -0.4217
  144MOL0     C19338  11.966  10.424   1.089  0.8696 -0.0069 -0.0322
  144MOL0     C19339  12.052  10.501   1.170  0.1179 -0.5079  0.3316
  144MOL0     C19340  12.012  10.541   1.302  0.0081  0.5061 -0.1734
  144MOL0     O19341  12.095  10.626   1.370 -0.2985 -0.0472 -0.3318
  144MOL0     C19342  12.206  10.563   1.425  0.1379 -0.6774  0.0689
  144MOL0     C19343  12.307  10.676   1.448  1.1308  0.5542  1.0895
  144MOL0     C19344  12.269  10.776   1.564 -0.2794 -0.2454  0.5006
  144MOL0     C19345  12.281  10.921   1.528 -0.7055  0.2040 -0.3048
  144MOL0     C19346  12.168  10.970   1.437  0.1125 -0.5408  0.9196
  144MOL0     C19347  12.221  11.050   1.307 -0.5228  0.5302 -0.3152
  144MOL0     C19348  12.315  11.162   1.349  0.4959  0.0659  0.8356
  144MOL0     C19349  12.432  11.170   1.245  0.6608  0.3658 -0.7170
  144MOL0    Cl19350  12.544  11.307   1.299  0.0644 -0.6090  0.0824
  144MOL0     C19351  11.889  10.494   1.347  0.2270  0.3878 -0.2260
  144MOL0     C19352  11.811  10.418   1.269 -0.5049  0.5564 -1.0641
  144MOL0     O19353  11.631  10.200   1.199  0.0017 -0.4430 -0.4437
  144MOL0     C19354  11.699  10.019   0.920 -0.3174  0.5358  0.6653
  144MOL0     C19355  11.647   9.934   0.823 -0.6638  0.4148 -1.5486
  144MOL0     N19356  10.864   9.502   0.661  0.8415  0.7375  0.9536
  144MOL0     N19357  10.741   9.527   0.627 -0.5443 -0.4410 -0.7947
  144MOL0     C19358   9.890   9.798   0.781 -0.2475  1.0777  0.6712
  144MOL0     C19359   9.842   9.718   0.879  0.3575  0.5195  0.2407
  144MOL0     C19360   9.598   9.642   1.272  0.5977  0.5260  1.0571
  144MOL0     C19361   9.582   9.500   1.243 -0.4400  0.1767  0.8988
  144MOL0     C19362   9.523   9.412   1.343 -0.1374  0.2680  0.3990
  144MOL0     C19363   9.483   9.456   1.465 -0.2448  0.0433  0.9530
  144MOL0     O19364   9.425   9.377   1.560  0.0179 -0.0633 -0.1367
  144MOL0     C19365   9.526   9.337   1.654 -0.0909  0.0803  0.8529
  144MOL0     C19366   9.491   9.211   1.738  0.0658 -0.6388  0.5983
  144MOL0     C19367   9.602   9.147   1.825 -0.3019  0.9715  0.0168
  144MOL0     C19368   9.725   9.117   1.732  0.3269 -0.0021  0.9446
  144MOL0     C19369   9.815   9.020   1.792 -0.1278  0.6636  0.8675
  144MOL0     C19370   9.872   8.929   1.845 -1.3696 -0.3624  0.6815
  144MOL0     C19371   9.493   9.595   1.490 -0.6008  0.7476  0.0452
  144MOL0     C19372   9.551   9.683   1.394  0.5710  0.5706 -0.5291
  144MOL0     H19373   9.873   9.951   1.125  1.1668  1.9670 -2.3939
  144MOL0     H19374   9.965  10.079   0.947  2.6304  0.4608 -0.1783
  144MOL0     H19375  10.134   9.864   0.666  1.4048 -1.6776 -2.4404
  144MOL0     H19376  10.011   9.875   0.533  2.8934 -1.9787 -0.5629
  144MOL0     H19377  10.122  10.099   0.489 -1.1576 -1.1500 -1.6885
  144MOL0     H19378  10.250  10.033   0.603  1.0294 -5.6337  1.3428
  144MOL0     H19379  10.269   9.838   0.472  1.0934 -0.3530 -1.9010
  144MOL0     H19380  10.158   9.896   0.342 -1.0000  0.2001  0.6780
  144MOL0     H19381  10.331  10.005   0.253  1.8306 -0.3499 -0.3599
  144MOL0     H19382  10.355  10.082   0.412  0.9935 -0.4187  1.5833
  144MOL0     H19383  10.556   9.985   0.369  1.2071  0.2361  0.1159
  144MOL0     H19384  10.494   9.868   0.484 -1.2809  1.1073  0.2913
  144MOL0     H19385  10.420   9.740   0.255 -0.8230  1.0716  1.2605
  144MOL0     H19386  10.514   9.861   0.174 -1.8150 -0.3733 -0.4461
  144MOL0     H19387  10.668   9.649   0.233  1.5475  0.0507  1.7982
  144MOL0     H19388  10.706   9.804   0.327 -0.0207  1.7617 -0.9420
  144MOL0     H19389  10.579   9.533   0.403  0.2178 -0.0611 -0.4927
  144MOL0     H19390  10.534   9.668   0.496 -1.1165  0.7007 -0.2958
  144MOL0     H19391  10.889   9.678   0.380  0.1610 -0.8855 -1.5652
  144MOL0     H19392  11.138   9.495   0.624  0.5912  2.0874  1.5256
  144MOL0     H19393  11.100   9.546   0.458 -0.1191  1.2566 -0.9698
  144MOL0     H19394  11.115   9.770   0.661  2.7173 -0.8091  0.2388
  144MOL0     H19395  11.141   9.771   0.482  3.1280  2.4122  1.3763
  144MOL0     H19396  11.346   9.670   0.500 -0.9075  0.4273 -1.0026
  144MOL0     H19397  11.333   9.642   0.683 -2.1496  2.9447  2.8470
  144MOL0     H19398  11.279   9.905   0.683  2.3011  4.2141  0.1510
  144MOL0     H19399  11.360   9.887   0.530  1.0226  1.3878  0.5023
  144MOL0     H19400  11.330  10.028   0.817 -0.1717 -1.5908 -0.1340
  144MOL0     H19401  11.327  10.278   0.921 -2.4499 -2.5704  0.9667
  144MOL0     H19402  11.324  10.197   1.061 -0.7879 -2.6444 -0.7682
  144MOL0     H19403  11.460  10.317   1.029  0.1948  0.9972 -2.8800
  144MOL0     H19404  11.992  10.391   0.989  2.1095  1.6462 -0.2997
  144MOL0     H19405  12.144  10.541   1.129  1.4176  2.4109  5.2416
  144MOL0     H19406  12.174  10.515   1.518  0.4209 -4.1262 -1.4434
  144MOL0     H19407  12.247  10.476   1.371 -0.4936 -0.0711 -1.4369
  144MOL0     H19408  12.397  10.633   1.494  0.3334 -0.2188  1.9641
  144MOL0     H19409  12.341  10.724   1.356  0.9400 -1.1122  0.1080
  144MOL0     H19410  12.335  10.765   1.651  1.2935  0.1124 -0.6070
  144MOL0     H19411  12.168  10.755   1.599  0.6381 -2.5525  2.0022
  144MOL0     H19412  12.290  10.983   1.618  1.9412  0.1959 -0.4901
  144MOL0     H19413  12.378  10.933   1.481 -0.8863 -0.1797 -0.7815
  144MOL0     H19414  12.107  11.041   1.493 -0.4041 -0.1815 -0.0721
  144MOL0     H19415  12.102  10.888   1.407 -1.4787  0.7192  0.8094
  144MOL0     H19416  12.275  10.977   1.247 -0.1529  1.8083 -1.5852
  144MOL0     H19417  12.137  11.087   1.247  1.1243  1.9662 -1.8248
  144MOL0     H19418  12.358  11.155   1.449  1.7842 -1.9495  0.1930
  144MOL0     H19419  12.250  11.250   1.356 -3.8120 -2.8539  1.5344
  144MOL0     H19420  12.383  11.182   1.148 -1.1543  0.7457  0.2106
  144MOL0     H19421  12.492  11.079   1.247 -0.1053 -0.1670 -1.6537
  144MOL0     H19422  11.849  10.532   1.441 -3.9645 -0.7851 -1.3236
  144MOL0     H19423  11.713  10.391   1.307 -0.1835  1.3015  0.3730
  144MOL0     H19424  11.800   9.990   0.950  1.3631  4.9589  0.1092
  144MOL0     H19425  11.703   9.857   0.772  0.3358 -1.4433  2.0221
  144MOL0     H19426   9.893   9.755   0.681  0.8232 -2.5832  2.0848
  144MOL0     H19427   9.818   9.614   0.857  3.6054  0.0961 -2.1696
  144MOL0     H19428   9.628   9.471   1.149 -0.0172  0.7109  0.9349
  144MOL0     H19429   9.508   9.305   1.332 -0.6983  0.5798 -2.8728
  144MOL0     H19430   9.620   9.321   1.599  0.6923  2.0598  1.5049
  144MOL0     H19431   9.546   9.420   1.723 -1.7722  2.1833 -1.0433
  144MOL0     H19432   9.472   9.138   1.659 -3.2162 -0.4180  1.0334
  144MOL0     H19433   9.403   9.241   1.796  0.7291 -1.0880  1.8677
  144MOL0     H19434   9.568   9.055   1.873  1.5583  0.7385  0.9935
  144MOL0     H19435   9.633   9.214   1.906 -2.0420  2.0171 -0.1441
  144MOL0     H19436   9.778   9.212   1.718 -0.8386  0.6748  1.0338
  144MOL0     H19437   9.693   9.088   1.631 -1.1708  1.1269  1.0620
  144MOL0     H19438   9.920   8.857   1.908 -1.1411 -2.0881 -1.3621
  144MOL0     H19439   9.442   9.635   1.576 -0.8146  2.7332 -0.9594
  144MOL0     H19440   9.553   9.786   1.428  1.8974 -0.0572  1.5113
  145MOL0     O19441  10.049   8.161   4.807  0.2492 -0.1952 -0.7647
  145MOL0     C19442   9.954   8.237   4.799 -0.4033  0.1870 -0.9753
  145MOL0     O19443   9.827   8.192   4.773  0.1615 -0.0865  0.2174
  145MOL0     C19444   9.798   8.054   4.763 -0.2445 -0.0314 -0.7685
  145MOL0     C19445   9.818   7.959   4.861  0.2230 -0.4663 -0.3938
  145MOL0     C19446   9.815   7.824   4.833 -0.0386  0.2037  0.1948
  145MOL0     C19447   9.764   7.778   4.709  0.7394 -1.1181  0.1960
  145MOL0     O19448   9.747   7.648   4.671  0.5062 -0.7118  0.2795
  145MOL0     C19449   9.818   7.539   4.727 -0.0782 -0.1276  0.9947
  145MOL0     C19450   9.841   7.426   4.627 -0.2102 -0.2408 -0.0303
  145MOL0     C19451   9.928   7.468   4.507 -0.0480 -0.4275  0.1969
  145MOL0     C19452   9.845   7.539   4.392  0.2559 -0.4301 -0.0110
  145MOL0     C19453   9.931   7.610   4.281 -0.4462  0.1302  0.1515
  145MOL0     C19454  10.054   7.532   4.222 -0.6097 -0.6400  0.1388
  145MOL0     C19455  10.113   7.613   4.104 -0.1945  0.8241 -0.3253
  145MOL0     C19456  10.228   7.533   4.042  0.1654  0.4558  0.2741
  145MOL0     N19457  10.273   7.600   3.917  0.6986 -0.9599  0.7124
  145MOL0     C19458  10.217   7.580   3.792 -0.1998 -0.0740  1.1859
  145MOL0     C19459  10.299   7.654   3.709  1.0652 -0.4063 -0.8462
  145MOL0     C19460  10.283   7.664   3.555 -0.1552  0.4179  0.2560
  145MOL0     C19461  10.146   7.687   3.499  0.7205  0.1556 -0.3183
  145MOL0     C19462  10.153   7.672   3.346  0.3732  0.6508 -0.4707
  145MOL0     C19463  10.024   7.714   3.280 -1.1874  1.1951  0.5262
  145MOL0     O19464  10.002   7.852   3.286  0.2786 -0.3666  0.1317
  145MOL0     C19465   9.869   7.866   3.282 -0.2615 -0.5314  0.3756
  145MOL0     C19466   9.788   7.843   3.165 -0.6363 -0.3334  0.1981
  145MOL0     C19467   9.648   7.862   3.164 -0.4342  0.4203 -0.4643
  145MOL0     C19468   9.572   7.844   3.043  0.5649 -0.0095 -0.0454
  145MOL0     C19469   9.592   7.908   3.282 -0.4888 -0.1339  0.0219
  145MOL0     C19470   9.450   7.947   3.289 -0.2553  0.3709  0.2867
  145MOL0     O19471   9.421   8.052   3.374 -0.1808 -0.1738 -0.5776
  145MOL0     C19472   9.286   8.096   3.383  0.3666  0.6907 -0.1893
  145MOL0     C19473   9.253   8.228   3.351 -0.3300  0.0375  0.2584
  145MOL0     C19474   9.120   8.264   3.361  0.0674  0.5052 -0.5470
  145MOL0     C19475   9.013   8.170   3.382 -0.4099  0.8693 -1.0526
  145MOL0     O19476   8.883   8.206   3.408 -0.3206  0.5832  0.0017
  145MOL0     C19477   8.818   8.318   3.353  0.1319  0.3990 -0.0724
  145MOL0     C19478   8.667   8.284   3.361 -0.3697  1.1069 -0.0954
  145MOL0     C19479   8.625   8.183   3.248  0.2555 -0.2792  0.1084
  145MOL0     C19480   8.482   8.147   3.262  0.5284 -0.6973  0.1443
  145MOL0     C19481   8.434   8.000   3.227  0.2126  1.0987  0.4232
  145MOL0     C19482   8.502   7.883   3.306 -0.2349 -0.4721  0.0277
  145MOL0     C19483   8.447   7.737   3.273  0.2918 -0.3226 -0.5791
  145MOL0     C19484   8.432   7.642   3.395 -1.0549  0.0706  0.2361
  145MOL0    Cl19485   8.395   7.481   3.334  0.0113  0.0060  0.2374
  145MOL0     C19486   9.051   8.039   3.419  0.9872  0.4719 -0.1908
  145MOL0     C19487   9.184   8.000   3.412  0.1277  0.2044 -1.0497
  145MOL0     O19488   9.368   7.883   3.227 -0.1136  0.0329 -0.2673
  145MOL0     C19489   9.666   7.928   3.403  0.4124  0.2401 -0.3900
  145MOL0     C19490   9.806   7.915   3.399  0.3369 -0.4625  0.0723
  145MOL0     N19491  10.397   7.709   3.788  0.5350 -0.5340  0.0860
  145MOL0     N19492  10.388   7.662   3.906 -0.0890 -0.2862  0.3973
  145MOL0     C19493   9.731   7.878   4.621 -0.2838 -0.4445 -0.4991
  145MOL0     C19494   9.744   8.019   4.642 -0.7617  0.7039 -0.4626
  145MOL0     C19495   9.966   8.375   4.806 -0.0964  0.4321  0.3557
  145MOL0     C19496   9.856   8.465   4.828  0.7722  1.3933  0.3318
  145MOL0     C19497   9.874   8.603   4.827  0.1302 -0.8120  0.6882
  145MOL0     C19498  10.001   8.661   4.805  0.8010  0.2305 -0.0841
  145MOL0     O19499  10.020   8.791   4.810  0.9988 -0.8352 -0.2110
  145MOL0     C19500   9.920   8.884   4.870  0.1923  0.2723 -0.6399
  145MOL0     C19501   9.820   8.946   4.770  0.6712  0.5696 -0.7396
  145MOL0     C19502   9.870   8.978   4.636 -0.1105  0.1091  0.3867
  145MOL0     C19503   9.973   9.096   4.633 -0.2095 -0.6347 -0.1678
  145MOL0     C19504   9.951   9.196   4.747  0.3081  0.0907 -0.6108
  145MOL0     C19505   9.911   9.269   4.832 -0.3143 -1.1096 -0.6853
  145MOL0     C19506  10.111   8.577   4.787 -0.1498 -0.4645 -0.3750
  145MOL0     C19507  10.096   8.432   4.788  0.8701  0.5860 -0.5053
  145MOL0     H19508   9.867   7.986   4.954  1.5749 -2.1607 -0.5836
  145MOL0     H19509   9.846   7.745   4.902 -1.5170 -1.2789 -0.7776
  145MOL0     H19510   9.921   7.552   4.760  1.5321 -5.8411 -0.6585
  145MOL0     H19511   9.752   7.517   4.811 -0.7376  0.3674  0.6180
  145MOL0     H19512   9.888   7.344   4.683 -2.7774 -1.5376  0.3826
  145MOL0     H19513   9.741   7.385   4.609 -0.1433 -0.7501  0.6919
  145MOL0     H19514  10.013   7.530   4.538  1.2767 -1.0230 -1.9613
  145MOL0     H19515   9.970   7.376   4.465  1.3506 -0.9627  2.6133
  145MOL0     H19516   9.790   7.462   4.339 -0.0945  1.0520 -1.8888
  145MOL0     H19517   9.782   7.608   4.448  0.3861 -0.2033 -0.1438
  145MOL0     H19518   9.877   7.644   4.192 -0.2848  0.3801  0.1470
  145MOL0     H19519   9.961   7.703   4.331  1.4885 -0.5792  0.3881
  145MOL0     H19520  10.136   7.532   4.294  0.0938  4.0647 -0.3313
  145MOL0     H19521  10.028   7.432   4.186  1.1851 -1.1574  0.1457
  145MOL0     H19522  10.034   7.635   4.032 -3.2405 -0.9938  2.2174
  145MOL0     H19523  10.155   7.707   4.141  3.0021 -0.0292 -1.4281
  145MOL0     H19524  10.196   7.431   4.018 -1.1833  1.2558 -1.4460
  145MOL0     H19525  10.305   7.525   4.120  1.6014  0.2881 -1.1161
  145MOL0     H19526  10.132   7.519   3.764 -1.8580  3.0171 -1.1506
  145MOL0     H19527  10.341   7.753   3.529  1.1738  0.2685  2.4362
  145MOL0     H19528  10.325   7.579   3.501 -1.8323 -0.8550  0.8452
  145MOL0     H19529  10.101   7.785   3.516 -1.0287 -0.6937  0.2226
  145MOL0     H19530  10.086   7.611   3.550  1.7066 -0.5453 -0.1899
  145MOL0     H19531  10.183   7.569   3.325 -0.7994  0.1169  0.3866
  145MOL0     H19532  10.220   7.749   3.307  0.0175  1.2135  0.0253
  145MOL0     H19533   9.949   7.665   3.342 -3.4226  1.4567 -1.7629
  145MOL0     H19534  10.024   7.678   3.176  0.0825 -1.3304  1.3378
  145MOL0     H19535   9.841   7.813   3.076  1.3117  0.1559  1.1456
  145MOL0     H19536   9.521   7.938   3.020 -1.1161 -1.7909 -4.7215
  145MOL0     H19537   9.632   7.836   2.951 -1.6912 -0.2450 -1.5759
  145MOL0     H19538   9.505   7.758   3.043 -1.8294  1.6516 -2.7207
  145MOL0     H19539   9.322   8.309   3.331  0.4029 -0.1784  1.7397
  145MOL0     H19540   9.107   8.371   3.360  2.8744  0.9316  0.3562
  145MOL0     H19541   8.830   8.415   3.402  1.8354  2.2257 -3.7626
  145MOL0     H19542   8.853   8.327   3.250 -0.5687  0.9306 -0.2730
  145MOL0     H19543   8.667   8.242   3.462  2.7410  0.6919 -0.1442
  145MOL0     H19544   8.607   8.375   3.362  0.8451  1.9885 -1.6914
  145MOL0     H19545   8.697   8.100   3.248  0.0191 -0.4969 -1.1746
  145MOL0     H19546   8.642   8.227   3.150 -0.1220 -3.4241 -1.4999
  145MOL0     H19547   8.454   8.162   3.367  2.2679  2.7300  0.2737
  145MOL0     H19548   8.427   8.216   3.198  0.4896 -1.8576 -1.1162
  145MOL0     H19549   8.449   7.985   3.120  2.6215  0.4523  0.7958
  145MOL0     H19550   8.328   7.999   3.255  0.3479  0.7682  0.9384
  145MOL0     H19551   8.602   7.883   3.261 -0.2958 -1.1755 -0.1179
  145MOL0     H19552   8.510   7.904   3.413  1.7271 -0.5175 -0.0712
  145MOL0     H19553   8.504   7.682   3.198  2.8304  0.0398  0.9786
  145MOL0     H19554   8.349   7.735   3.224  0.1199 -2.4024 -0.2834
  145MOL0     H19555   8.351   7.678   3.458 -2.7766 -1.9669 -0.6756
  145MOL0     H19556   8.528   7.637   3.447 -0.5945 -0.0435 -0.6060
  145MOL0     H19557   8.961   7.981   3.430  1.7575 -0.9441 -1.1354
  145MOL0     H19558   9.209   7.900   3.446  2.9867  1.1532 -0.0759
  145MOL0     H19559   9.617   7.969   3.491  0.5747  1.8511 -1.0024
  145MOL0     H19560   9.868   7.928   3.488  2.4052 -2.1948 -1.0271
  145MOL0     H19561   9.686   7.860   4.524 -2.6005 -1.3320  0.6643
  145MOL0     H19562   9.725   8.098   4.571 -1.9676 -0.9615 -2.0695
  145MOL0     H19563   9.757   8.431   4.856  1.4606 -1.0087  0.0352
  145MOL0     H19564   9.785   8.665   4.835  0.7181  0.1092  0.2258
  145MOL0     H19565   9.858   8.832   4.944  0.9922 -2.2455 -1.6208
  145MOL0     H19566   9.973   8.967   4.916  1.9537 -0.1607 -1.7921
  145MOL0     H19567   9.779   9.024   4.835  0.6309 -1.1179  1.3978
  145MOL0     H19568   9.735   8.880   4.757 -1.3340  2.9157 -0.3045
  145MOL0     H19569   9.794   8.990   4.558  0.4023  0.5235 -0.0521
  145MOL0     H19570   9.916   8.883   4.609 -0.3595  0.1941 -0.3438
  145MOL0     H19571   9.985   9.151   4.539  2.7922 -0.8727 -0.0201
  145MOL0     H19572  10.073   9.057   4.657 -0.3630 -2.7144 -2.5335
  145MOL0     H19573   9.860   9.340   4.893 -1.6001 -1.4742 -1.2930
  145MOL0     H19574  10.216   8.602   4.779 -0.1807 -0.1386  0.1897
  145MOL0     H19575  10.184   8.370   4.770  0.6394  0.6425 -1.8597
  146MOL0     O19576   5.695   8.438   1.235  1.2381  0.9040  0.0050
  146MOL0     C19577   5.788   8.376   1.199  0.8142  1.0928 -0.5897
  146MOL0     O19578   5.794   8.237   1.192 -1.3484 -0.2575 -0.6491
  146MOL0     C19579   5.681   8.165   1.218  0.3568  0.0716  0.2002
  146MOL0     C19580   5.566   8.170   1.132 -0.1955 -0.1024  0.0498
  146MOL0     C19581   5.453   8.104   1.154  0.0559 -1.2450  0.3459
  146MOL0     C19582   5.447   8.008   1.261  0.3792 -0.3252 -0.5342
  146MOL0     O19583   5.337   7.933   1.303  0.4722 -0.2945 -0.2158
  146MOL0     C19584   5.219   7.953   1.228 -0.1891 -0.3934 -0.7085
  146MOL0     C19585   5.094   7.863   1.251  0.0308  0.1023  0.2766
  146MOL0     C19586   5.117   7.715   1.216 -0.8577  0.0471 -0.1204
  146MOL0     C19587   5.251   7.652   1.243  0.2010 -0.0417  0.4585
  146MOL0     C19588   5.253   7.509   1.194 -0.4101  0.3289  0.3077
  146MOL0     C19589   5.344   7.404   1.266 -0.5142 -1.7037 -0.3561
  146MOL0     C19590   5.366   7.282   1.186  0.2895  0.8799 -0.5810
  146MOL0     C19591   5.468   7.191   1.251  1.2719 -0.8283  0.6561
  146MOL0     N19592   5.431   7.153   1.395 -0.9616  0.0416  0.6638
  146MOL0     C19593   5.326   7.069   1.432  0.6268 -0.1669  0.7302
  146MOL0     C19594   5.355   7.036   1.561  1.2061  0.6298  0.1377
  146MOL0     C19595   5.261   6.934   1.627 -0.8403 -1.0462  0.7548
  146MOL0     C19596   5.271   6.912   1.781  0.9498  0.0308  0.3006
  146MOL0     C19597   5.192   7.003   1.880 -0.3006  1.1114  0.2604
  146MOL0     C19598   5.219   7.154   1.879 -0.0248  0.5042 -0.3529
  146MOL0     O19599   5.134   7.214   1.979  0.0229 -0.1529 -0.1192
  146MOL0     C19600   5.145   7.349   1.990 -0.1307 -0.5023 -0.1356
  146MOL0     C19601   5.033   7.434   1.980 -0.3796 -0.0844 -0.7880
  146MOL0     C19602   5.054   7.577   1.971 -0.4072  0.6677 -0.2296
  146MOL0     C19603   4.929   7.653   1.933  0.2886  0.0698 -0.3714
  146MOL0     C19604   5.177   7.639   2.009  0.9933  0.4343 -0.2628
  146MOL0     C19605   5.212   7.786   2.005  0.0255 -0.7937 -1.0082
  146MOL0     O19606   5.343   7.821   2.020  0.2818 -0.4180 -0.7332
  146MOL0     C19607   5.391   7.946   2.021 -0.1000  0.7165 -0.7641
  146MOL0     C19608   5.455   8.004   1.910 -0.2243  0.1069  0.0494
  146MOL0     C19609   5.505   8.135   1.909 -0.1056  0.5697 -0.3194
  146MOL0     C19610   5.494   8.208   2.041  0.2408 -0.0074 -0.0345
  146MOL0     O19611   5.550   8.341   2.023 -0.0506  0.3060 -0.4738
  146MOL0     C19612   5.562   8.415   2.143  0.1872  0.3101  1.0497
  146MOL0     C19613   5.692   8.490   2.124  0.2884  0.1871 -0.9449
  146MOL0     C19614   5.748   8.552   2.262  0.0924 -0.7440 -0.5884
  146MOL0     C19615   5.682   8.679   2.318  0.0773  0.4707 -0.0303
  146MOL0     C19616   5.706   8.800   2.240  0.8234  0.4661  0.2430
  146MOL0     C19617   5.670   8.924   2.332 -0.6167 -1.0559 -0.2705
  146MOL0     C19618   5.712   9.055   2.250 -1.0188 -0.0391  0.4100
  146MOL0     C19619   5.750   9.171   2.328  0.5641 -1.0677 -0.9875
  146MOL0    Cl19620   5.783   9.296   2.211 -0.4070 -0.1960 -0.1240
  146MOL0     C19621   5.429   8.149   2.157 -0.2686 -0.8777  0.0271
  146MOL0     C19622   5.376   8.016   2.143 -1.0869  1.1225 -0.7239
  146MOL0     O19623   5.116   7.865   2.014 -0.1924  0.2101 -0.0888
  146MOL0     C19624   5.270   7.548   2.055  0.2934  0.4430  0.2998
  146MOL0     C19625   5.264   7.409   2.041  0.2647 -0.5919 -0.8271
  146MOL0     N19626   5.456   7.106   1.603 -0.0004 -0.9872 -0.2536
  146MOL0     N19627   5.493   7.184   1.513  0.6834  0.2616  0.8037
  146MOL0     C19628   5.559   7.998   1.342  0.5273 -0.2166  0.3267
  146MOL0     C19629   5.679   8.063   1.319  0.4868  0.8075 -0.8374
  146MOL0     C19630   5.896   8.453   1.128  0.0235  0.3200 -0.4038
  146MOL0     C19631   5.885   8.592   1.122 -0.0618 -0.1485  0.1586
  146MOL0     C19632   5.977   8.683   1.060  0.4858 -0.2421  0.0031
  146MOL0     C19633   6.084   8.628   0.994  0.2766 -0.8752 -0.3248
  146MOL0     O19634   6.179   8.713   0.948 -0.3015 -0.5828  0.0255
  146MOL0     C19635   6.299   8.714   1.024  0.3903  0.1150 -1.0186
  146MOL0     C19636   6.422   8.754   0.954 -1.1592  0.9190  1.1133
  146MOL0     C19637   6.511   8.657   0.873  0.8741 -0.1130  0.3546
  146MOL0     C19638   6.609   8.729   0.787 -0.2202  0.5308 -0.6133
  146MOL0     C19639   6.541   8.797   0.688 -0.6430  0.1272  0.1556
  146MOL0     C19640   6.471   8.856   0.597 -0.0900 -0.3158  1.0858
  146MOL0     C19641   6.105   8.490   0.994 -0.0908  1.0355 -0.0668
  146MOL0     C19642   6.006   8.399   1.055 -0.5628 -0.4911 -0.0665
  146MOL0     H19643   5.562   8.248   1.057  2.0901 -1.6728 -1.8579
  146MOL0     H19644   5.372   8.106   1.082  1.3781 -5.8403 -1.6626
  146MOL0     H19645   5.192   8.057   1.250 -2.3712 -1.1189  0.2759
  146MOL0     H19646   5.242   7.942   1.122 -1.7903  3.7685 -1.6931
  146MOL0     H19647   5.050   7.876   1.350  2.9444  1.9565  1.4710
  146MOL0     H19648   5.018   7.888   1.177 -0.4706 -0.1054  0.7161
  146MOL0     H19649   5.044   7.662   1.278 -0.6686  1.2360  1.1900
  146MOL0     H19650   5.082   7.695   1.115 -1.0618 -0.2923  0.0175
  146MOL0     H19651   5.329   7.717   1.202 -0.7755 -0.1371 -1.6960
  146MOL0     H19652   5.273   7.638   1.349  1.3300 -1.2774  0.0802
  146MOL0     H19653   5.153   7.467   1.199  0.1812 -0.9770  3.0952
  146MOL0     H19654   5.281   7.505   1.088  1.6359 -1.4253  0.8495
  146MOL0     H19655   5.442   7.451   1.282 -0.5407 -1.8605  0.2616
  146MOL0     H19656   5.313   7.386   1.369 -0.6353  1.2740  0.2340
  146MOL0     H19657   5.272   7.228   1.171  1.7418 -1.1316 -3.3764
  146MOL0     H19658   5.401   7.314   1.087  0.1792 -1.0418 -1.2848
  146MOL0     H19659   5.562   7.247   1.246  0.2680  0.9396 -4.4450
  146MOL0     H19660   5.484   7.101   1.190  1.2313 -1.0830  1.0183
  146MOL0     H19661   5.249   7.034   1.364 -0.6377  3.2579  0.2210
  146MOL0     H19662   5.161   6.971   1.601  0.2558  2.4316  0.9989
  146MOL0     H19663   5.289   6.844   1.571 -0.3092 -1.0421  1.0124
  146MOL0     H19664   5.377   6.894   1.803  1.2743 -1.4340 -2.1141
  146MOL0     H19665   5.216   6.819   1.796 -0.7171  1.0875  0.9794
  146MOL0     H19666   5.214   6.966   1.980  1.4592  0.4828 -0.3192
  146MOL0     H19667   5.088   6.973   1.866  0.2671 -1.1159  0.4191
  146MOL0     H19668   5.201   7.193   1.778 -1.9657  1.4740  0.3095
  146MOL0     H19669   5.325   7.171   1.899 -0.6518 -0.3971  5.3641
  146MOL0     H19670   4.939   7.383   1.962 -1.2830  0.7610  1.2336
  146MOL0     H19671   4.908   7.718   2.019 -1.1023 -1.1161  0.2192
  146MOL0     H19672   4.947   7.725   1.853 -0.5800  3.7008  2.4491
  146MOL0     H19673   4.840   7.592   1.918  1.0829 -0.7892 -1.8308
  146MOL0     H19674   5.450   7.943   1.820  0.7915  1.2730 -0.8346
  146MOL0     H19675   5.547   8.172   1.816 -2.4272  0.8617 -1.3191
  146MOL0     H19676   5.475   8.481   2.146  0.0042  0.1680 -0.5601
  146MOL0     H19677   5.561   8.363   2.239  1.5175  0.8037  1.3578
  146MOL0     H19678   5.762   8.411   2.095  0.8975 -0.2083  1.4312
  146MOL0     H19679   5.668   8.563   2.046  1.0526 -0.7435 -2.0831
  146MOL0     H19680   5.854   8.578   2.258 -0.0662 -0.2304 -2.3571
  146MOL0     H19681   5.744   8.469   2.333 -0.1356 -1.2277 -1.1544
  146MOL0     H19682   5.573   8.668   2.320  0.1137  0.0673 -0.1105
  146MOL0     H19683   5.721   8.694   2.419 -0.5970  0.4142  0.2447
  146MOL0     H19684   5.644   8.818   2.152 -0.9075  0.4808  1.4072
  146MOL0     H19685   5.810   8.794   2.205  0.9445 -2.5805  0.8439
  146MOL0     H19686   5.561   8.927   2.336 -0.5981  1.7506  0.0855
  146MOL0     H19687   5.711   8.912   2.433  1.9466  1.9675 -0.7808
  146MOL0     H19688   5.627   9.077   2.184 -0.2629 -3.7185 -2.1538
  146MOL0     H19689   5.804   9.019   2.202 -1.1552 -0.4815  0.4700
  146MOL0     H19690   5.836   9.145   2.390  0.3056  0.8570  0.2821
  146MOL0     H19691   5.676   9.208   2.400 -0.3745  0.8853 -2.8476
  146MOL0     H19692   5.405   8.210   2.243 -1.5821 -0.3589 -0.6655
  146MOL0     H19693   5.340   7.968   2.233 -0.3843 -0.3559 -1.1934
  146MOL0     H19694   5.358   7.584   2.108  1.2043 -2.8753  1.2481
  146MOL0     H19695   5.342   7.338   2.066  0.3473  0.1990  1.3314
  146MOL0     H19696   5.553   7.911   1.407  1.6678  0.4253  1.3152
  146MOL0     H19697   5.765   8.038   1.381  0.0152  0.7796 -0.1818
  146MOL0     H19698   5.802   8.631   1.180  1.7273  2.3534  1.2779
  146MOL0     H19699   5.943   8.786   1.049  0.0642 -0.4454 -0.6652
  146MOL0     H19700   6.291   8.791   1.102 -1.8483 -2.4651  1.5198
  146MOL0     H19701   6.318   8.616   1.069  2.4083  0.6515 -0.5837
  146MOL0     H19702   6.487   8.801   1.028 -3.3049  1.3612  2.8084
  146MOL0     H19703   6.390   8.835   0.888 -0.9984 -1.1507 -1.7169
  146MOL0     H19704   6.450   8.584   0.819  0.5798 -1.5014  2.4412
  146MOL0     H19705   6.570   8.603   0.948  3.3734  3.2937  1.1045
  146MOL0     H19706   6.670   8.652   0.738 -0.1454  1.3758 -1.9026
  146MOL0     H19707   6.676   8.789   0.848  0.8099 -2.0400  0.9157
  146MOL0     H19708   6.419   8.914   0.524 -0.3024  0.7201  2.0300
  146MOL0     H19709   6.204   8.453   0.968  0.1831  1.5178  0.2847
  146MOL0     H19710   6.029   8.293   1.054  1.3211 -0.1590 -2.4911
  147MOL0     O19711   9.031   2.093  10.135 -0.2734  0.1541 -0.1125
  147MOL0     C19712   9.146   2.100  10.089  0.1058 -1.2396 -0.1464
  147MOL0     O19713   9.253   2.164  10.155 -0.3647  0.0441  0.5215
  147MOL0     C19714   9.240   2.233  10.268 -0.0483  0.2185  0.1286
  147MOL0     C19715   9.346   2.233  10.357 -1.1174  0.0904  0.4686
  147MOL0     C19716   9.351   2.294  10.486 -0.8611  0.5973  0.5934
  147MOL0     C19717   9.243   2.368  10.521 -0.8126 -0.0346 -0.6718
  147MOL0     O19718   9.224   2.426  10.646  0.2643  0.0815  0.7940
  147MOL0     C19719   9.333   2.441  10.729 -0.4558 -0.4697 -0.2183
  147MOL0     C19720   9.305   2.524  10.853 -0.1310  0.4936  0.2662
  147MOL0     C19721   9.191   2.465  10.942 -0.3318 -0.4721 -0.1495
  147MOL0     C19722   9.178   2.541  11.081  0.3546  0.6243 -0.2014
  147MOL0     C19723   9.303   2.525  11.175  0.5548 -0.5151 -0.5286
  147MOL0     C19724   9.329   2.380  11.217 -0.4668  0.4078 -0.1814
  147MOL0     C19725   9.213   2.326  11.298 -0.0067  0.5536  0.3951
  147MOL0     C19726   9.256   2.184  11.354  0.5097  0.7024 -0.1022
  147MOL0     N19727   9.330   2.188  11.482 -0.3088  0.0779  0.4213
  147MOL0     C19728   9.272   2.231  11.599  0.2490 -0.3286 -0.1345
  147MOL0     C19729   9.373   2.255  11.693 -0.9958  1.1640 -0.1701
  147MOL0     C19730   9.354   2.309  11.830  0.4564 -0.3182  0.2004
  147MOL0     C19731   9.344   2.465  11.819  0.5508 -0.7729 -0.3336
  147MOL0     C19732   9.473   2.545  11.811  0.0799 -0.5205  0.6260
  147MOL0     C19733   9.442   2.698  11.822 -0.6143  0.5108  0.2581
  147MOL0     O19734   9.565   2.775  11.812  0.8840 -0.2025 -0.0121
  147MOL0     C19735   9.630   2.806  11.699 -0.4421  0.6643 -1.5985
  147MOL0     C19736   9.753   2.878  11.706  0.3978  1.1283 -0.6929
  147MOL0     C19737   9.835   2.903  11.591 -0.3337  0.3563  0.2965
  147MOL0     C19738   9.961   2.987  11.609 -0.0538  0.6359  0.4410
  147MOL0     C19739   9.788   2.857  11.471  0.2854  0.2010 -0.0271
  147MOL0     C19740   9.868   2.855  11.352 -0.1504 -0.5815  0.4662
  147MOL0     O19741   9.935   2.971  11.330 -0.1549 -0.3348 -0.0682
  147MOL0     C19742  10.026   2.983  11.237 -0.0629  0.1818  0.6694
  147MOL0     C19743  10.000   2.969  11.104  1.1129 -1.3144 -0.2552
  147MOL0     C19744  10.103   2.990  11.010  0.0292  0.1143  0.0827
  147MOL0     C19745  10.234   3.027  11.048  0.5069 -0.6846  0.1035
  147MOL0     O19746  10.338   3.066  10.962  0.0645 -0.8025  0.3130
  147MOL0     C19747  10.311   3.094  10.826 -0.5969  0.2273  0.3558
  147MOL0     C19748  10.446   3.125  10.746  0.6673  0.0540  0.2794
  147MOL0     C19749  10.520   2.994  10.754 -0.2834  0.2225  0.7961
  147MOL0     C19750  10.633   2.984  10.646 -0.6190  0.0703  0.7262
  147MOL0     C19751  10.743   2.880  10.680 -0.0128  0.4679  0.2667
  147MOL0     C19752  10.670   2.742  10.684  0.3549 -0.1481  0.6633
  147MOL0     C19753  10.770   2.629  10.714 -0.3543 -0.3991 -0.5453
  147MOL0     C19754  10.695   2.489  10.718 -0.4388 -0.8704 -0.3963
  147MOL0    Cl19755  10.613   2.467  10.880  0.2275 -0.3011 -0.1945
  147MOL0     C19756  10.257   3.038  11.183  0.4887  0.0874 -0.3151
  147MOL0     C19757  10.148   3.023  11.280 -1.3081  0.4684 -0.1791
  147MOL0     O19758   9.873   2.760  11.281 -0.4408  0.7632  0.1244
  147MOL0     C19759   9.663   2.793  11.458 -0.1459 -1.0811 -0.6403
  147MOL0     C19760   9.590   2.771  11.573 -0.3626  0.9392  0.3796
  147MOL0     N19761   9.492   2.212  11.629  0.4465  0.4953  0.2230
  147MOL0     N19762   9.462   2.174  11.510  0.0237  0.3299 -0.1337
  147MOL0     C19763   9.136   2.383  10.430 -0.0970  0.1339  0.2382
  147MOL0     C19764   9.131   2.314  10.309 -0.4387  0.1864  1.1687
  147MOL0     C19765   9.161   2.052   9.958  0.4561  0.1992  0.1523
  147MOL0     C19766   9.295   2.055   9.897 -0.8014 -0.3404  0.2871
  147MOL0     C19767   9.319   2.013   9.772 -0.5323  0.3846  0.5673
  147MOL0     C19768   9.212   1.977   9.687 -0.2275 -0.1977  0.7067
  147MOL0     O19769   9.251   1.937   9.562  0.4184 -0.1526  0.4695
  147MOL0     C19770   9.156   1.886   9.466 -0.9204 -1.2531 -0.0338
  147MOL0     C19771   9.125   1.990   9.362  0.2497 -0.9491  0.8974
  147MOL0     C19772   9.250   2.036   9.292 -0.1074  0.5909 -0.0728
  147MOL0     C19773   9.225   2.093   9.155 -0.1869 -0.9560 -0.4911
  147MOL0     C19774   9.199   2.238   9.168 -0.3951 -0.3449  0.1785
  147MOL0     C19775   9.177   2.357   9.190 -1.0570  0.1264 -0.7575
  147MOL0     C19776   9.086   1.962   9.748  0.3376  0.2069  0.2032
  147MOL0     C19777   9.060   2.004   9.881  0.2653  0.8171 -0.6313
  147MOL0     H19778   9.423   2.162  10.329 -3.1474 -2.3888  0.8104
  147MOL0     H19779   9.424   2.271  10.563  0.1943 -0.8336 -0.7715
  147MOL0     H19780   9.371   2.344  10.761  0.2331  0.2224  1.1223
  147MOL0     H19781   9.410   2.505  10.685  0.1580  0.0958  1.5937
  147MOL0     H19782   9.392   2.543  10.916  0.6329  2.4600 -1.2540
  147MOL0     H19783   9.282   2.625  10.819  1.9040  0.4044 -1.6123
  147MOL0     H19784   9.093   2.479  10.894 -2.0562  3.2937  3.7633
  147MOL0     H19785   9.207   2.357  10.954  2.9664  0.0722  1.2353
  147MOL0     H19786   9.157   2.646  11.057 -1.6955  0.0774 -1.0382
  147MOL0     H19787   9.089   2.512  11.138 -0.0352 -0.8183 -1.4833
  147MOL0     H19788   9.388   2.565  11.119 -0.5769  1.0174 -1.2044
  147MOL0     H19789   9.293   2.589  11.264  1.9757  3.9132 -3.2700
  147MOL0     H19790   9.346   2.313  11.132 -2.1258 -0.9721  0.5287
  147MOL0     H19791   9.409   2.369  11.290 -1.6014 -1.2005  0.8720
  147MOL0     H19792   9.191   2.391  11.384  1.6330 -0.4391  1.6160
  147MOL0     H19793   9.126   2.312  11.233  0.7487  0.2250 -0.5704
  147MOL0     H19794   9.314   2.133  11.277 -1.8070 -1.8561 -0.2938
  147MOL0     H19795   9.172   2.116  11.370  0.4490  0.6598 -0.5941
  147MOL0     H19796   9.170   2.258  11.623  1.3411  4.4719  0.2415
  147MOL0     H19797   9.265   2.260  11.870  1.9590 -2.6779  0.9290
  147MOL0     H19798   9.437   2.278  11.895  0.7574 -0.3358 -0.1916
  147MOL0     H19799   9.275   2.501  11.897  0.1335 -1.5772 -0.3205
  147MOL0     H19800   9.281   2.485  11.732 -0.7459  1.3901  0.9854
  147MOL0     H19801   9.531   2.519  11.722  1.4113 -1.3271  1.7000
  147MOL0     H19802   9.535   2.515  11.895 -0.1908 -0.2682  0.9190
  147MOL0     H19803   9.403   2.708  11.924 -3.7200  0.5807 -0.8450
  147MOL0     H19804   9.361   2.734  11.759 -0.2222  0.5877 -0.2056
  147MOL0     H19805   9.781   2.891  11.810 -2.2682  0.5408  0.1705
  147MOL0     H19806  10.059   2.954  11.572  0.8792 -1.3175  4.1901
  147MOL0     H19807   9.938   3.081  11.559 -0.6380  0.5718  0.5843
  147MOL0     H19808   9.971   3.001  11.717  0.3694  3.8514  0.0857
  147MOL0     H19809   9.896   2.951  11.080  0.4458  1.2476  0.3165
  147MOL0     H19810  10.075   2.988  10.905  1.2798  3.2344 -0.4299
  147MOL0     H19811  10.254   3.014  10.777  0.0421  2.4407 -4.6935
  147MOL0     H19812  10.242   3.177  10.805  1.0818  1.3693 -0.8924
  147MOL0     H19813  10.423   3.125  10.639  1.6686  0.5451  0.0571
  147MOL0     H19814  10.504   3.213  10.774  1.1822 -0.2685  0.2402
  147MOL0     H19815  10.451   2.911  10.741  0.4128 -0.1641 -0.6807
  147MOL0     H19816  10.567   2.977  10.852 -0.9910  1.7784  1.4483
  147MOL0     H19817  10.599   2.962  10.544  0.6772  1.5672 -0.0798
  147MOL0     H19818  10.687   3.079  10.638  2.5108 -1.6152 -0.3826
  147MOL0     H19819  10.800   2.907  10.770  1.2543  2.1237 -0.9647
  147MOL0     H19820  10.810   2.884  10.594 -2.6581  3.1341 -1.9024
  147MOL0     H19821  10.585   2.732  10.753 -0.7967  2.4108 -0.2612
  147MOL0     H19822  10.625   2.727  10.586  1.5133  2.1865 -0.2889
  147MOL0     H19823  10.818   2.641  10.811  2.7071 -0.1308 -1.9837
  147MOL0     H19824  10.845   2.626  10.634  3.1063 -2.0778  2.4918
  147MOL0     H19825  10.776   2.416  10.705  0.9274  0.5183 -0.0323
  147MOL0     H19826  10.626   2.478  10.634 -0.0064 -1.4451 -0.6890
  147MOL0     H19827  10.345   3.082  11.229 -1.9337  2.1973  2.7163
  147MOL0     H19828  10.191   3.024  11.380  1.1022 -3.7646 -0.9045
  147MOL0     H19829   9.625   2.774  11.358 -1.9260 -3.1909  0.3505
  147MOL0     H19830   9.493   2.722  11.567 -1.1879  2.4858  0.4873
  147MOL0     H19831   9.057   2.447  10.467 -2.1816 -1.1725 -1.6656
  147MOL0     H19832   9.041   2.307  10.248  1.6685  0.2529 -2.2066
  147MOL0     H19833   9.384   2.089   9.949 -1.9845 -0.8063  2.7492
  147MOL0     H19834   9.421   2.017   9.736  0.0471 -2.0397  1.7376
  147MOL0     H19835   9.209   1.804   9.417  2.1374  1.0322 -0.8325
  147MOL0     H19836   9.060   1.851   9.507 -1.3466  0.1867  0.2462
  147MOL0     H19837   9.080   2.072   9.419  1.3204  0.1272  0.2339
  147MOL0     H19838   9.045   1.971   9.290 -1.8040  3.8731  1.5016
  147MOL0     H19839   9.298   1.938   9.284  2.0158  1.6561 -1.2623
  147MOL0     H19840   9.308   2.105   9.354  1.0406  0.2614 -0.7497
  147MOL0     H19841   9.143   2.043   9.102 -0.3206 -1.3387  0.0708
  147MOL0     H19842   9.312   2.081   9.090 -0.1655  0.6257 -0.8053
  147MOL0     H19843   9.158   2.462   9.204  3.2172  1.0970 -0.6867
  147MOL0     H19844   8.998   1.932   9.691  0.3632  1.0663 -0.3106
  147MOL0     H19845   8.958   1.993   9.917  0.5401  2.6327  0.9072
  148MOL0     O19846   8.365   8.192   7.151 -0.2129 -0.3338 -0.1549
  148MOL0     C19847   8.348   8.278   7.062  0.0816  0.6511 -0.3284
  148MOL0     O19848   8.342   8.414   7.087 -0.1361 -0.7286  0.0869
  148MOL0     C19849   8.340   8.479   7.205 -0.5483  0.0244 -0.8738
  148MOL0     C19850   8.331   8.618   7.210 -0.0257 -0.3867  0.6814
  148MOL0     C19851   8.345   8.690   7.331  0.5681  0.2170 -0.1773
  148MOL0     C19852   8.376   8.625   7.446  0.2783  0.4513  0.0263
  148MOL0     O19853   8.388   8.688   7.563  0.3872 -0.4183 -0.4451
  148MOL0     C19854   8.477   8.807   7.551  1.0353 -0.3980 -0.3522
  148MOL0     C19855   8.493   8.867   7.693 -0.0404  0.2095 -0.3344
  148MOL0     C19856   8.550   8.762   7.790  0.6476 -0.7527 -0.9347
  148MOL0     C19857   8.692   8.727   7.751  0.1204 -0.3111 -0.3329
  148MOL0     C19858   8.760   8.658   7.874 -0.7672  0.5715  0.0601
  148MOL0     C19859   8.909   8.636   7.862  0.3230 -0.5738  0.1508
  148MOL0     C19860   8.950   8.535   7.761  0.7427 -0.1088 -0.1677
  148MOL0     C19861   8.902   8.396   7.804  0.1820 -0.2354  0.2818
  148MOL0     N19862   8.970   8.346   7.921  0.8294 -0.3738  0.4472
  148MOL0     C19863   8.906   8.327   8.043 -0.1500  0.4702 -0.3300
  148MOL0     C19864   9.006   8.320   8.133 -0.4128  0.1293  0.3869
  148MOL0     C19865   8.994   8.295   8.278  0.4048  0.7069 -0.1558
  148MOL0     C19866   8.981   8.147   8.305  0.0259  0.5724  0.1790
  148MOL0     C19867   8.976   8.117   8.459  0.6568 -0.1434  0.1122
  148MOL0     C19868   9.047   7.995   8.492  0.6065 -0.4623  0.0153
  148MOL0     O19869   9.051   7.959   8.627  1.0026  0.3080 -0.3249
  148MOL0     C19870   9.161   7.979   8.702 -0.9044 -0.4027  0.4037
  148MOL0     C19871   9.248   8.088   8.683  0.1938  0.6474  0.0759
  148MOL0     C19872   9.364   8.095   8.764 -0.9924 -0.4464  0.0402
  148MOL0     C19873   9.447   8.217   8.741 -0.2458  0.3194  0.3541
  148MOL0     C19874   9.397   7.989   8.860 -0.0638 -0.5624  0.0654
  148MOL0     C19875   9.528   7.978   8.928  0.3450  0.0702  0.0463
  148MOL0     O19876   9.577   7.846   8.924  0.0346 -0.2741  0.3526
  148MOL0     C19877   9.699   7.824   8.981 -0.0819  0.0771 -0.0306
  148MOL0     C19878   9.816   7.865   8.916  0.3269  0.5618  0.3082
  148MOL0     C19879   9.940   7.824   8.952 -0.8829  0.7421 -0.5720
  148MOL0     C19880   9.955   7.725   9.057  0.1609 -0.4247 -0.0965
  148MOL0     O19881  10.077   7.682   9.093 -0.9649  0.5424  1.4186
  148MOL0     C19882  10.087   7.565   9.166  0.6307  0.0592  0.1420
  148MOL0     C19883  10.239   7.556   9.172 -0.5908  1.0118  0.8008
  148MOL0     C19884  10.292   7.508   9.032  0.7264  0.9339 -0.1480
  148MOL0     C19885  10.449   7.505   9.024 -0.5248  0.2042  0.2162
  148MOL0     C19886  10.491   7.443   8.888  1.2925 -0.8543  0.2567
  148MOL0     C19887  10.642   7.443   8.849 -0.0772 -0.5195  0.3865
  148MOL0     C19888  10.714   7.355   8.943  0.3954 -0.3353 -0.3215
  148MOL0     C19889  10.854   7.315   8.901  0.7984 -0.7444  0.1148
  148MOL0    Cl19890  10.868   7.256   8.731  0.1712  0.6771 -0.6872
  148MOL0     C19891   9.831   7.683   9.122  0.2770  0.1030 -0.0197
  148MOL0     C19892   9.704   7.729   9.074 -1.1837 -0.6940 -0.8948
  148MOL0     O19893   9.576   8.071   8.992 -0.4200 -0.7412 -0.0682
  148MOL0     C19894   9.305   7.884   8.873 -0.9574  1.0785 -0.5277
  148MOL0     C19895   9.194   7.882   8.798  0.4871  0.2152  0.4756
  148MOL0     N19896   9.132   8.333   8.072  0.1716 -0.9663  0.0094
  148MOL0     N19897   9.101   8.342   7.941 -0.9413  0.4179 -1.7739
  148MOL0     C19898   8.383   8.483   7.450  0.9261 -0.0086 -0.5433
  148MOL0     C19899   8.354   8.409   7.332 -1.0525 -0.1408  0.1356
  148MOL0     C19900   8.340   8.243   6.922 -0.2477 -1.0913 -0.1205
  148MOL0     C19901   8.333   8.113   6.881 -0.6945  0.9723  0.6577
  148MOL0     C19902   8.343   8.075   6.744  0.0058  0.6474  0.1863
  148MOL0     C19903   8.350   8.179   6.648  0.6062 -0.1734  0.4622
  148MOL0     O19904   8.348   8.153   6.512  1.3861 -0.6677 -1.3838
  148MOL0     C19905   8.376   8.032   6.462 -0.2774 -0.2369 -0.0534
  148MOL0     C19906   8.364   8.062   6.306  0.0907 -0.3141  0.1806
  148MOL0     C19907   8.343   7.924   6.231  0.3381 -0.4011 -0.0122
  148MOL0     C19908   8.332   7.949   6.082 -0.2058  0.0661  0.4472
  148MOL0     C19909   8.329   7.822   6.003  0.1343 -0.2588 -0.4915
  148MOL0     C19910   8.329   7.712   5.956  0.2249  0.2324  0.9467
  148MOL0     C19911   8.344   8.314   6.694  0.2100 -0.8879 -0.8601
  148MOL0     C19912   8.343   8.340   6.831 -0.0085 -0.4962  0.8051
  148MOL0     H19913   8.304   8.675   7.122  3.3463 -0.7751 -0.7589
  148MOL0     H19914   8.327   8.797   7.332  0.0381  0.1271  0.0182
  148MOL0     H19915   8.568   8.766   7.504  1.8329  0.5960  0.2769
  148MOL0     H19916   8.436   8.890   7.492  0.7885 -1.4843 -1.7562
  148MOL0     H19917   8.554   8.958   7.693  0.6184 -0.0507 -4.2397
  148MOL0     H19918   8.398   8.891   7.741 -0.3270  2.3546 -1.8507
  148MOL0     H19919   8.543   8.816   7.885 -3.6761  0.5505 -1.7378
  148MOL0     H19920   8.476   8.682   7.800 -2.1928  1.5857 -1.6483
  148MOL0     H19921   8.686   8.660   7.664 -0.3671 -0.5951 -0.0854
  148MOL0     H19922   8.749   8.816   7.723  2.0051 -1.7268 -1.2886
  148MOL0     H19923   8.740   8.711   7.968 -3.1262  0.5355 -0.3710
  148MOL0     H19924   8.717   8.562   7.905 -0.6803  1.0512  1.8014
  148MOL0     H19925   8.953   8.733   7.835  3.7702 -1.0776  3.1935
  148MOL0     H19926   8.953   8.614   7.959  0.6926 -0.3067  0.0452
  148MOL0     H19927   8.900   8.553   7.665  1.7277 -1.5179 -0.9826
  148MOL0     H19928   9.058   8.553   7.755  0.5353  0.7700 -2.1767
  148MOL0     H19929   8.940   8.327   7.727  0.8101 -1.0062  1.2469
  148MOL0     H19930   8.795   8.372   7.805 -0.5751  2.3932 -2.4739
  148MOL0     H19931   8.801   8.323   8.070  0.2377 -0.4271  1.1427
  148MOL0     H19932   9.090   8.329   8.319  0.9733 -0.1722 -0.7202
  148MOL0     H19933   8.914   8.355   8.322  2.2345  1.5104  2.3184
  148MOL0     H19934   9.069   8.091   8.270 -0.4950  0.0549 -0.3316
  148MOL0     H19935   8.891   8.115   8.252 -0.5048 -0.4841  1.6456
  148MOL0     H19936   8.868   8.121   8.475  0.9128 -0.1635  2.2009
  148MOL0     H19937   9.012   8.201   8.518 -3.3744  0.7133  1.7160
  148MOL0     H19938   9.149   8.006   8.455  0.8562  0.0728  0.8403
  148MOL0     H19939   9.004   7.908   8.441  1.5733 -0.9326 -0.0135
  148MOL0     H19940   9.221   8.163   8.609  0.0125  1.4009  0.8883
  148MOL0     H19941   9.417   8.280   8.656 -0.1328  1.8704  1.4234
  148MOL0     H19942   9.450   8.279   8.831 -0.8486  2.2098 -0.8647
  148MOL0     H19943   9.542   8.177   8.706 -0.4299 -1.2285  1.5067
  148MOL0     H19944   9.821   7.936   8.834  1.2925 -0.7194 -0.7923
  148MOL0     H19945  10.028   7.867   8.906  1.9889  0.6131  4.1760
  148MOL0     H19946  10.065   7.577   9.273 -0.0489 -1.4559  0.2116
  148MOL0     H19947  10.024   7.482   9.132 -0.8148  0.3290  2.0015
  148MOL0     H19948  10.281   7.654   9.194  1.7070  0.9789 -2.6855
  148MOL0     H19949  10.265   7.478   9.245 -0.1114 -0.7345 -1.1478
  148MOL0     H19950  10.258   7.573   8.951 -0.9070 -2.6373 -2.5823
  148MOL0     H19951  10.250   7.407   9.021 -0.4660  1.1003  2.2216
  148MOL0     H19952  10.490   7.605   9.040  1.2531 -0.7397  2.0052
  148MOL0     H19953  10.486   7.444   9.107 -0.0949  2.2875  1.6359
  148MOL0     H19954  10.453   7.497   8.801  3.5130 -2.9461 -2.2163
  148MOL0     H19955  10.450   7.341   8.887 -1.2018  0.0710  1.2597
  148MOL0     H19956  10.649   7.417   8.743  0.2874  1.2825 -0.0678
  148MOL0     H19957  10.675   7.547   8.850 -2.8508  0.4856 -1.0261
  148MOL0     H19958  10.653   7.265   8.957  0.0881 -0.2200 -0.9258
  148MOL0     H19959  10.719   7.401   9.043  1.8827 -2.9876  0.9500
  148MOL0     H19960  10.887   7.223   8.950  3.1693 -1.0102 -1.8035
  148MOL0     H19961  10.925   7.393   8.929 -0.3938 -0.7218  3.5583
  148MOL0     H19962   9.833   7.616   9.208  0.1994  0.7328  0.4758
  148MOL0     H19963   9.613   7.675   9.096 -1.4304 -1.3334 -3.2404
  148MOL0     H19964   9.323   7.807   8.947  0.3563  3.1751  1.4927
  148MOL0     H19965   9.117   7.808   8.817 -0.9494  1.9207  1.5124
  148MOL0     H19966   8.407   8.423   7.538 -2.4848  1.7309  1.8368
  148MOL0     H19967   8.350   8.302   7.348 -3.0928 -0.1782 -0.3735
  148MOL0     H19968   8.337   8.039   6.960 -0.2456  0.0764 -0.1861
  148MOL0     H19969   8.357   7.969   6.724 -0.0811  0.8729 -1.1234
  148MOL0     H19970   8.479   8.012   6.491 -1.3521 -3.1962  2.2171
  148MOL0     H19971   8.309   7.951   6.492 -2.3124  1.7310  1.0024
  148MOL0     H19972   8.453   8.114   6.269  0.3012 -1.1058 -0.4793
  148MOL0     H19973   8.273   8.119   6.285  2.0159  3.8062  1.9940
  148MOL0     H19974   8.242   7.887   6.251  0.3865  0.7857  2.8507
  148MOL0     H19975   8.415   7.851   6.272  1.0416  0.2772 -0.0179
  148MOL0     H19976   8.412   8.018   6.052  0.4730 -0.5618  0.7796
  148MOL0     H19977   8.243   8.001   6.047 -0.1745 -1.8176 -2.8599
  148MOL0     H19978   8.324   7.619   5.902 -0.1018  0.0209  1.3377
  148MOL0     H19979   8.356   8.402   6.632 -1.5496  0.4514  0.5807
  148MOL0     H19980   8.346   8.443   6.865  0.5279 -1.1741  3.0150
  149MOL0     O19981   2.950   8.015   1.010  0.3084  1.0273  0.2980
  149MOL0     C19982   2.868   8.102   1.026  0.6624 -0.1555 -0.0867
  149MOL0     O19983   2.737   8.093   1.075 -0.7496  0.3685 -0.0791
  149MOL0     C19984   2.682   7.969   1.100  1.3364 -0.5568 -1.5947
  149MOL0     C19985   2.706   7.847   1.028 -0.2582 -0.9141  0.0548
  149MOL0     C19986   2.649   7.731   1.084  0.9478  0.4003 -0.6797
  149MOL0     C19987   2.559   7.730   1.188  0.4099 -1.0538 -0.2280
  149MOL0     O19988   2.504   7.614   1.242 -0.0364  0.2590  0.5852
  149MOL0     C19989   2.424   7.531   1.148  1.2518 -0.6347  0.6755
  149MOL0     C19990   2.303   7.597   1.062 -0.4115 -0.0102 -0.0013
  149MOL0     C19991   2.165   7.528   1.039 -1.0842 -1.0305 -0.8342
  149MOL0     C19992   2.067   7.556   1.152  0.5541 -0.5269  0.4503
  149MOL0     C19993   1.964   7.449   1.167 -0.1484  0.2975 -0.3265
  149MOL0     C19994   1.853   7.451   1.057  0.1791 -0.1492 -0.2493
  149MOL0     C19995   1.749   7.336   1.071  0.6258 -1.0388  0.3477
  149MOL0     C19996   1.615   7.373   1.004 -0.9936 -0.5023  0.5705
  149MOL0     N19997   1.541   7.492   1.048 -0.1130  0.9983  0.8365
  149MOL0     C19998   1.491   7.493   1.169  0.1420 -0.3943  0.0412
  149MOL0     C19999   1.434   7.618   1.183  0.1468  0.2513 -0.7260
  149MOL0     C20000   1.363   7.665   1.303 -0.3794  0.2279 -0.0564
  149MOL0     C20001   1.217   7.640   1.285 -0.0709  0.5224  0.3783
  149MOL0     C20002   1.141   7.680   1.411  0.1965  0.6216  0.0406
  149MOL0     C20003   1.144   7.592   1.544 -0.3956  0.2531  0.3682
  149MOL0     O20004   1.269   7.598   1.604 -0.0944 -0.4959  0.3051
  149MOL0     C20005   1.281   7.563   1.730 -0.5629 -0.5586 -0.1879
  149MOL0     C20006   1.389   7.609   1.798 -0.4329  1.1596  0.9365
  149MOL0     C20007   1.433   7.576   1.922  0.2767  0.2645  0.8076
  149MOL0     C20008   1.556   7.655   1.972  0.7232  0.4442  0.0429
  149MOL0     C20009   1.361   7.476   1.993 -0.3320  0.0949  0.0954
  149MOL0     C20010   1.400   7.427   2.123 -0.2694  0.0617 -0.0420
  149MOL0     O20011   1.457   7.519   2.204  0.1924  0.6624 -0.0230
  149MOL0     C20012   1.471   7.463   2.327 -0.1223  0.1147  0.1019
  149MOL0     C20013   1.574   7.377   2.356  0.5725 -1.2884 -0.0736
  149MOL0     C20014   1.594   7.339   2.485  0.9242 -0.5160 -0.3058
  149MOL0     C20015   1.505   7.367   2.592  0.3299  0.2029  0.1070
  149MOL0     O20016   1.531   7.320   2.712 -0.3541  0.1872  0.0445
  149MOL0     C20017   1.481   7.372   2.834 -0.0124  0.8376  0.0028
  149MOL0     C20018   1.567   7.328   2.948  0.2753  0.6413  0.0358
  149MOL0     C20019   1.484   7.358   3.075 -0.4339  0.4348 -0.5986
  149MOL0     C20020   1.569   7.282   3.182 -0.9073 -0.1813 -0.5312
  149MOL0     C20021   1.490   7.298   3.314  0.0417 -0.3231  0.2610
  149MOL0     C20022   1.562   7.266   3.444  0.3087  0.0190 -0.5523
  149MOL0     C20023   1.644   7.389   3.484 -0.6568  0.2181 -0.8037
  149MOL0     C20024   1.693   7.384   3.624 -0.1485 -0.4896  0.9350
  149MOL0    Cl20025   1.760   7.219   3.657  0.5879 -0.5223 -0.2232
  149MOL0     C20026   1.406   7.463   2.560 -1.0471 -0.4411 -0.3241
  149MOL0     C20027   1.387   7.516   2.434 -0.2204  0.3971 -0.1592
  149MOL0     O20028   1.378   7.305   2.144  0.0192  0.2192 -0.3762
  149MOL0     C20029   1.250   7.409   1.924 -0.1751 -0.8562  1.0562
  149MOL0     C20030   1.200   7.458   1.794 -0.2439 -0.7179 -0.1150
  149MOL0     N20031   1.461   7.689   1.069 -0.1440  0.4143  0.4238
  149MOL0     N20032   1.527   7.609   0.983  0.6199 -0.0352 -0.7054
  149MOL0     C20033   2.507   7.851   1.232 -0.4915 -0.3687 -0.6165
  149MOL0     C20034   2.573   7.966   1.197  0.0727  1.0476 -0.8393
  149MOL0     C20035   2.911   8.244   0.987  0.2446 -0.5892  0.2777
  149MOL0     C20036   2.818   8.346   0.980  1.2867  0.1017  0.9330
  149MOL0     C20037   2.854   8.469   0.927 -0.2206  0.2397  0.2181
  149MOL0     C20038   2.987   8.501   0.893 -0.4704 -0.0089  0.0874
  149MOL0     O20039   3.038   8.617   0.841 -0.5569 -0.4044 -0.1061
  149MOL0     C20040   2.996   8.739   0.892  0.2443 -0.2360  0.1671
  149MOL0     C20041   3.044   8.752   1.042 -0.3684 -0.3314 -0.1572
  149MOL0     C20042   3.054   8.888   1.101  0.5137 -0.2390 -0.7047
  149MOL0     C20043   3.162   8.982   1.049  0.9411 -0.2451  0.7906
  149MOL0     C20044   3.151   9.112   1.114  0.4225 -0.2577  0.2227
  149MOL0     C20045   3.150   9.199   1.191 -0.1892  0.4772  0.6924
  149MOL0     C20046   3.075   8.400   0.908  0.8988 -0.2857  0.2091
  149MOL0     C20047   3.043   8.273   0.947  0.5764  0.5034 -1.0693
  149MOL0     H20048   2.781   7.865   0.952  0.1352  1.4588  0.9057
  149MOL0     H20049   2.684   7.633   1.054 -0.9703 -1.0429  1.4501
  149MOL0     H20050   2.501   7.487   1.084  4.0428  4.4390 -0.0090
  149MOL0     H20051   2.380   7.459   1.218  1.0086  0.4354  1.6510
  149MOL0     H20052   2.281   7.700   1.094  1.3998  0.4240 -0.0340
  149MOL0     H20053   2.340   7.614   0.960 -1.8623 -0.2213 -0.5870
  149MOL0     H20054   2.118   7.563   0.946 -1.4011  0.9313  0.0144
  149MOL0     H20055   2.177   7.420   1.030  2.5572 -0.9216  1.0336
  149MOL0     H20056   2.118   7.564   1.248 -0.2459  0.4500  0.8050
  149MOL0     H20057   2.010   7.648   1.135 -2.2373 -2.1853  0.2848
  149MOL0     H20058   2.008   7.349   1.169  0.6318  0.6527  0.8104
  149MOL0     H20059   1.913   7.478   1.259  1.8567 -2.7729  1.9494
  149MOL0     H20060   1.801   7.547   1.051 -0.4457 -0.5852 -3.8298
  149MOL0     H20061   1.905   7.443   0.962  3.3645 -1.2053  1.4503
  149MOL0     H20062   1.799   7.252   1.022  3.0183  0.7118 -0.4314
  149MOL0     H20063   1.725   7.312   1.175  4.1230 -0.8306  1.3552
  149MOL0     H20064   1.541   7.292   1.001 -1.2925 -0.2894  1.8777
  149MOL0     H20065   1.637   7.402   0.901  0.6802 -2.0815  0.4365
  149MOL0     H20066   1.488   7.420   1.248 -3.2099  0.6104  0.9851
  149MOL0     H20067   1.397   7.606   1.389 -0.1513 -1.0985 -1.0286
  149MOL0     H20068   1.389   7.771   1.313 -1.4995  0.3378  2.6635
  149MOL0     H20069   1.202   7.532   1.277 -5.9118  1.0395  0.0828
  149MOL0     H20070   1.172   7.694   1.201 -1.3712 -1.3547 -0.1907
  149MOL0     H20071   1.034   7.674   1.389  0.4824  1.7184 -1.8873
  149MOL0     H20072   1.155   7.787   1.429  1.0956  0.5439 -0.1824
  149MOL0     H20073   1.119   7.487   1.523  4.4357 -0.8753 -0.8918
  149MOL0     H20074   1.070   7.633   1.613 -1.1136 -3.3682  1.9874
  149MOL0     H20075   1.455   7.674   1.740  0.5620  0.0487  0.7825
  149MOL0     H20076   1.534   7.684   2.075 -1.9987 -0.0636 -0.3205
  149MOL0     H20077   1.645   7.590   1.978  1.0101  0.9348  1.8750
  149MOL0     H20078   1.570   7.745   1.912 -1.3178  1.5209  1.0847
  149MOL0     H20079   1.637   7.337   2.276  0.0906 -1.4186 -0.3898
  149MOL0     H20080   1.673   7.267   2.504  0.4891 -0.4124  2.1853
  149MOL0     H20081   1.482   7.481   2.823 -1.6597  0.8752  0.0903
  149MOL0     H20082   1.380   7.332   2.847  0.8217 -0.5089  3.8204
  149MOL0     H20083   1.575   7.219   2.948  0.5047  0.6342 -1.4700
  149MOL0     H20084   1.658   7.388   2.935 -0.9086  1.8723 -4.0112
  149MOL0     H20085   1.386   7.313   3.088 -0.8165  1.6279  0.8908
  149MOL0     H20086   1.495   7.466   3.093 -1.3295  0.2418  1.2908
  149MOL0     H20087   1.582   7.176   3.158 -0.4383 -0.8754  2.4238
  149MOL0     H20088   1.663   7.335   3.200 -1.5865  1.2530 -1.0622
  149MOL0     H20089   1.404   7.231   3.317 -0.3901  0.2529  1.0308
  149MOL0     H20090   1.437   7.394   3.319  0.0035 -0.3411  0.2021
  149MOL0     H20091   1.490   7.261   3.527 -1.2088  4.2175 -1.3583
  149MOL0     H20092   1.620   7.174   3.432  0.3286  0.3247 -3.5619
  149MOL0     H20093   1.591   7.483   3.468 -0.6355  0.3946  0.1097
  149MOL0     H20094   1.737   7.392   3.427  2.0436  0.3655  3.1706
  149MOL0     H20095   1.612   7.404   3.696  0.0966 -1.0440  1.3683
  149MOL0     H20096   1.761   7.467   3.647 -2.4445  1.8167 -0.0882
  149MOL0     H20097   1.345   7.493   2.645  0.1407  2.0996 -0.2686
  149MOL0     H20098   1.310   7.587   2.407 -0.5860 -0.2001 -0.7379
  149MOL0     H20099   1.189   7.345   1.986 -1.2132  0.6723  1.6759
  149MOL0     H20100   1.117   7.416   1.738 -1.5673  0.8414  0.6073
  149MOL0     H20101   2.438   7.860   1.315  1.9704 -1.0766  1.6675
  149MOL0     H20102   2.539   8.059   1.241 -1.3461 -0.6304  1.9170
  149MOL0     H20103   2.720   8.333   1.025  1.1349  1.9254  1.1878
  149MOL0     H20104   2.775   8.544   0.933  1.3176  1.8180  2.8638
  149MOL0     H20105   3.035   8.829   0.843  2.1971 -0.0649  1.8887
  149MOL0     H20106   2.888   8.752   0.895  0.5680  4.3296  3.7433
  149MOL0     H20107   3.149   8.720   1.040  0.5763  2.5028 -0.7342
  149MOL0     H20108   2.991   8.678   1.103  1.0281 -2.5171 -1.4468
  149MOL0     H20109   3.085   8.872   1.205 -0.6097  3.5563  0.3860
  149MOL0     H20110   2.955   8.935   1.100  0.2768 -0.5061  1.8565
  149MOL0     H20111   3.138   9.000   0.944 -0.1751  4.5787  1.6319
  149MOL0     H20112   3.262   8.940   1.061  1.2682 -0.1784 -1.3771
  149MOL0     H20113   3.158   9.286   1.254  2.2178  0.2369  0.8021
  149MOL0     H20114   3.182   8.408   0.887  1.1397  2.7428  2.0284
  149MOL0     H20115   3.121   8.198   0.958 -0.8447 -1.4229 -3.2956
  150MOL0     O20116   4.183   5.630  10.827 -0.7667 -0.1292  0.1388
  150MOL0     C20117   4.296   5.584  10.805  0.3375  0.0730  0.3727
  150MOL0     O20118   4.397   5.585  10.885  0.1910 -0.4249  0.3571
  150MOL0     C20119   4.396   5.644  11.009 -0.4015  0.2325 -0.3291
  150MOL0     C20120   4.339   5.771  11.039 -0.0353  0.3529 -0.5406
  150MOL0     C20121   4.338   5.806  11.172  0.1626 -0.5041 -0.6480
  150MOL0     C20122   4.369   5.724  11.275  0.4164 -0.2665  0.1789
  150MOL0     O20123   4.361   5.755  11.407 -0.5430 -0.6923  0.2510
  150MOL0     C20124   4.351   5.896  11.445 -0.9008  0.2602 -0.3440
  150MOL0     C20125   4.301   5.890  11.588  0.9401  0.5847  0.2009
  150MOL0     C20126   4.399   5.824  11.689 -0.0898 -0.7422 -0.2595
  150MOL0     C20127   4.340   5.819  11.834 -0.3913  0.6659 -1.0470
  150MOL0     C20128   4.280   5.693  11.893  0.2263  0.6263 -0.8451
  150MOL0     C20129   4.385   5.583  11.926  0.0272 -1.1187  0.4877
  150MOL0     C20130   4.325   5.476  12.016 -0.5479 -0.3489  0.2571
  150MOL0     C20131   4.227   5.394  11.941  0.8414  0.5078  0.8305
  150MOL0     N20132   4.147   5.313  12.031 -0.0200  0.3781  0.6203
  150MOL0     C20133   4.197   5.221  12.122 -0.1350  0.7672  0.2664
  150MOL0     C20134   4.088   5.172  12.183  0.3804  0.1302  0.5511
  150MOL0     C20135   4.096   5.072  12.295  0.0752  0.3049 -0.1052
  150MOL0     C20136   4.028   5.106  12.433  0.2616  0.6781 -0.0545
  150MOL0     C20137   4.127   5.161  12.541  0.3799  0.4081  0.2293
  150MOL0     C20138   4.190   5.307  12.509  0.4464  1.0593  0.0083
  150MOL0     O20139   4.320   5.291  12.460  0.6106  0.7957  0.0582
  150MOL0     C20140   4.384   5.405  12.430 -0.6062 -1.4795 -0.6280
  150MOL0     C20141   4.502   5.396  12.362 -0.0932  0.5777  0.0952
  150MOL0     C20142   4.576   5.512  12.329  0.8628  0.2813 -1.4883
  150MOL0     C20143   4.708   5.486  12.265 -0.3342  0.4119  0.9139
  150MOL0     C20144   4.517   5.650  12.347  1.0723  0.4769 -0.0871
  150MOL0     C20145   4.589   5.777  12.311  2.2201  0.3723 -0.4855
  150MOL0     O20146   4.726   5.782  12.297 -0.0098 -0.1519  0.9519
  150MOL0     C20147   4.774   5.893  12.228 -0.3754 -0.3722  0.2655
  150MOL0     C20148   4.745   5.928  12.093  0.0666 -0.2019  0.3789
  150MOL0     C20149   4.791   6.052  12.035  0.8187 -0.2503 -0.6862
  150MOL0     C20150   4.852   6.156  12.116 -0.2068  0.1875  0.6564
  150MOL0     O20151   4.881   6.280  12.064 -0.6206 -0.4141  0.0456
  150MOL0     C20152   5.018   6.306  12.055 -0.6825  0.3227 -0.0667
  150MOL0     C20153   5.050   6.453  12.027 -0.1355  0.9110  0.6021
  150MOL0     C20154   5.010   6.543  12.133  0.2821 -0.1893 -0.3202
  150MOL0     C20155   5.078   6.522  12.274  0.5106 -0.4890  0.4385
  150MOL0     C20156   4.984   6.603  12.373 -0.1667  0.3258 -0.3492
  150MOL0     C20157   5.047   6.637  12.511 -0.8178 -0.7112 -0.2680
  150MOL0     C20158   4.945   6.680  12.611 -0.6879  0.3320 -0.2440
  150MOL0     C20159   4.999   6.735  12.741 -0.8356 -0.7104  0.3057
  150MOL0    Cl20160   5.089   6.902  12.713 -0.1817  0.0461  0.2568
  150MOL0     C20161   4.883   6.115  12.244  0.1951  0.0256 -0.3708
  150MOL0     C20162   4.841   5.997  12.298  0.8227 -0.8279  0.6765
  150MOL0     O20163   4.512   5.868  12.277 -0.7904  0.0927  0.1559
  150MOL0     C20164   4.413   5.647  12.441  0.6682 -1.1764  0.1477
  150MOL0     C20165   4.341   5.535  12.462  0.0590  0.3061  0.6174
  150MOL0     N20166   3.972   5.239  12.139  0.6899 -0.0808 -0.6623
  150MOL0     N20167   4.012   5.318  12.044  0.4899  0.5060 -0.4311
  150MOL0     C20168   4.411   5.595  11.239  0.3814 -0.3844 -0.7757
  150MOL0     C20169   4.441   5.558  11.111  0.1970 -0.6114 -0.2054
  150MOL0     C20170   4.313   5.549  10.657 -0.3866  0.8254  0.2282
  150MOL0     C20171   4.230   5.594  10.560 -0.0262  0.4876 -0.1387
  150MOL0     C20172   4.254   5.558  10.427  0.1288  0.3113  0.7888
  150MOL0     C20173   4.364   5.483  10.388  0.0831  0.2039  0.2006
  150MOL0     O20174   4.384   5.436  10.259  0.2283 -0.1627 -1.0264
  150MOL0     C20175   4.286   5.448  10.154 -0.2070 -0.2361 -0.6329
  150MOL0     C20176   4.363   5.407  10.019  0.0082 -1.1423  0.6729
  150MOL0     C20177   4.410   5.259  10.001 -0.0396  0.1040 -0.5101
  150MOL0     C20178   4.519   5.252   9.897 -0.3734  0.2291  0.6221
  150MOL0     C20179   4.474   5.277   9.762  0.6615 -0.0883  0.2915
  150MOL0     C20180   4.425   5.301   9.658 -0.3976  0.1438  0.2039
  150MOL0     C20181   4.453   5.455  10.486  0.5518  0.6656  0.6653
  150MOL0     C20182   4.433   5.496  10.619 -0.5766  0.1982  0.0561
  150MOL0     H20183   4.306   5.833  10.956 -1.9291  2.9671  1.9655
  150MOL0     H20184   4.321   5.911  11.196  1.9514 -0.3390  0.0625
  150MOL0     H20185   4.450   5.942  11.440  0.0367 -1.7609 -1.2174
  150MOL0     H20186   4.289   5.954  11.376  1.5402  0.8197 -2.1870
  150MOL0     H20187   4.284   5.993  11.622  0.4281  0.1780  1.2364
  150MOL0     H20188   4.206   5.836  11.590  1.1409  0.2282  0.3199
  150MOL0     H20189   4.433   5.730  11.645 -3.1687 -0.9130 -2.6855
  150MOL0     H20190   4.479   5.899  11.687 -1.3905  0.8057  1.6374
  150MOL0     H20191   4.419   5.864  11.896  0.2205  0.7021 -1.8312
  150MOL0     H20192   4.266   5.899  11.834  2.9149  4.0728 -2.8313
  150MOL0     H20193   4.232   5.716  11.988 -0.3885 -0.1095 -0.9694
  150MOL0     H20194   4.203   5.657  11.824 -0.3047 -0.2916  0.2049
  150MOL0     H20195   4.434   5.556  11.832  2.1253  2.6968  0.2728
  150MOL0     H20196   4.465   5.631  11.983  0.9991  0.0984 -1.7860
  150MOL0     H20197   4.398   5.405  12.057 -1.4487 -1.4906 -0.0547
  150MOL0     H20198   4.282   5.529  12.100  0.7772 -0.2939  0.9303
  150MOL0     H20199   4.278   5.339  11.861 -2.9152  0.3686 -1.7019
  150MOL0     H20200   4.155   5.458  11.890 -1.3825 -1.8872  0.7221
  150MOL0     H20201   4.302   5.198  12.134  0.2724  0.0446 -3.4980
  150MOL0     H20202   4.043   4.982  12.261 -1.8079  1.3267 -0.0231
  150MOL0     H20203   4.203   5.050  12.301  0.0791  0.7253  1.7525
  150MOL0     H20204   3.989   5.016  12.483  2.9913  0.1649  1.3518
  150MOL0     H20205   3.939   5.163  12.408 -1.5699 -2.2185 -0.6682
  150MOL0     H20206   4.204   5.087  12.566 -2.4475 -2.1579  2.1399
  150MOL0     H20207   4.053   5.174  12.620 -1.9816  1.7458 -2.0654
  150MOL0     H20208   4.200   5.357  12.606  0.5235 -1.5108  1.4206
  150MOL0     H20209   4.123   5.356  12.438 -0.2430 -0.9476 -0.8007
  150MOL0     H20210   4.552   5.302  12.343 -2.2577 -0.8081  0.9105
  150MOL0     H20211   4.779   5.515  12.344  1.2867  2.8564 -1.2360
  150MOL0     H20212   4.711   5.380  12.241 -1.1120  0.7685 -0.9490
  150MOL0     H20213   4.732   5.546  12.176 -0.1754  3.1921  2.7046
  150MOL0     H20214   4.685   5.854  12.041 -2.9653  2.4308 -0.1877
  150MOL0     H20215   4.759   6.087  11.937 -1.5436 -0.3251  0.0167
  150MOL0     H20216   5.067   6.271  12.146  0.8471  1.7352 -0.3043
  150MOL0     H20217   5.058   6.255  11.968 -0.1907  0.3751  0.1276
  150MOL0     H20218   5.149   6.487  11.995  0.0942 -1.0761 -1.0305
  150MOL0     H20219   4.993   6.491  11.942  2.4262  1.5017 -0.9571
  150MOL0     H20220   4.903   6.531  12.148  0.1701 -0.7847 -1.4663
  150MOL0     H20221   5.025   6.645  12.097  2.7545 -1.2446 -2.6411
  150MOL0     H20222   5.077   6.416  12.299  1.3171 -1.0385 -1.6445
  150MOL0     H20223   5.183   6.553  12.283 -0.1719  1.8843  1.1973
  150MOL0     H20224   4.892   6.545  12.386 -0.9166  1.0594 -2.1119
  150MOL0     H20225   4.962   6.695  12.319  2.9150  1.7265  0.5589
  150MOL0     H20226   5.094   6.550  12.558 -4.5124 -1.1341  3.2395
  150MOL0     H20227   5.117   6.720  12.496  0.0339 -1.3707 -0.0750
  150MOL0     H20228   4.888   6.591  12.635  0.1296  0.2855  1.7274
  150MOL0     H20229   4.886   6.759  12.562  2.1014  2.7319 -0.0513
  150MOL0     H20230   5.077   6.671  12.783 -1.1788  0.5219  3.0410
  150MOL0     H20231   4.925   6.754  12.820  0.9260  2.2728  1.4125
  150MOL0     H20232   4.932   6.178  12.318  1.4645 -2.2398  0.8206
  150MOL0     H20233   4.884   5.979  12.397  2.4747 -1.8303 -0.1635
  150MOL0     H20234   4.373   5.740  12.480  1.5247 -0.8252  0.2026
  150MOL0     H20235   4.239   5.533  12.501 -0.1928 -2.7344  0.0197
  150MOL0     H20236   4.444   5.531  11.320  0.9024  0.2245 -0.4891
  150MOL0     H20237   4.489   5.465  11.084 -0.7945 -1.4978  1.0220
  150MOL0     H20238   4.146   5.656  10.588  1.0661  1.8487  0.2294
  150MOL0     H20239   4.177   5.587  10.356 -1.3634 -1.8846  1.3947
  150MOL0     H20240   4.202   5.381  10.175  2.1972 -2.3543  3.4628
  150MOL0     H20241   4.257   5.553  10.142  1.0920  0.2476  0.2803
  150MOL0     H20242   4.454   5.466  10.033  0.9587 -1.6386 -2.5606
  150MOL0     H20243   4.298   5.434   9.935 -2.1950  2.5725  3.2744
  150MOL0     H20244   4.321   5.197   9.984  1.6133 -2.5364 -0.0743
  150MOL0     H20245   4.455   5.210  10.087 -2.7170 -2.5890 -0.4713
  150MOL0     H20246   4.545   5.146   9.904 -0.2951  0.2449  0.5599
  150MOL0     H20247   4.597   5.326   9.917 -4.0082  3.6419  4.1639
  150MOL0     H20248   4.385   5.334   9.565  1.9171  1.3966 -0.4189
  150MOL0     H20249   4.536   5.388  10.464 -1.6335 -2.7416  2.0034
  150MOL0     H20250   4.511   5.489  10.694 -2.3200  3.8297  2.5452
  151MOL0     O20251   0.542   8.266   2.607 -0.5563  0.2869  0.0304
  151MOL0     C20252   0.469   8.183   2.659 -0.1301  0.0950 -1.3414
  151MOL0     O20253   0.389   8.102   2.583 -0.0969  0.2333  0.3577
  151MOL0     C20254   0.343   8.145   2.457 -0.7665  0.0311  0.1361
  151MOL0     C20255   0.308   8.047   2.364  0.6965  0.1660 -0.2082
  151MOL0     C20256   0.272   8.076   2.231  0.6513 -0.1713 -0.0596
  151MOL0     C20257   0.280   8.211   2.192  0.2939 -0.7526  0.8448
  151MOL0     O20258   0.243   8.262   2.068 -0.0731  0.1797 -0.4181
  151MOL0     C20259   0.125   8.202   1.999  0.1660 -0.2393 -0.1726
  151MOL0     C20260  -0.008   8.202   2.074 -0.1757  0.0739  0.4322
  151MOL0     C20261  -0.065   8.352   2.079  0.5057  0.0404 -0.1669
  151MOL0     C20262  -0.189   8.376   2.163 -1.4177  0.0289 -0.8665
  151MOL0     C20263  -0.233   8.521   2.164 -0.5633 -0.1297  0.4768
  151MOL0     C20264  -0.342   8.561   2.259 -0.0393  0.1330 -0.5262
  151MOL0     C20265  -0.464   8.474   2.229 -0.9774  0.4237 -0.5229
  151MOL0     C20266  -0.582   8.521   2.315 -0.3547 -0.1735 -0.1398
  151MOL0     N20267  -0.653   8.641   2.266 -0.3511  0.7481  0.1482
  151MOL0     C20268  -0.655   8.744   2.349 -0.5420  0.2096 -0.7646
  151MOL0     C20269  -0.649   8.855   2.267 -0.4678  0.8767 -0.1850
  151MOL0     C20270  -0.660   8.992   2.308 -0.2678  1.4207  0.0548
  151MOL0     C20271  -0.782   9.030   2.393  0.6569  1.1969  0.7365
  151MOL0     C20272  -0.781   9.169   2.462  0.8815  0.3289  0.4878
  151MOL0     C20273  -0.927   9.225   2.474 -0.3107 -0.8604 -0.3070
  151MOL0     O20274  -0.918   9.368   2.507 -0.2226  0.1966  0.3494
  151MOL0     C20275  -0.863   9.386   2.633  0.1563  0.1833 -0.2054
  151MOL0     C20276  -0.871   9.292   2.739 -0.4171 -0.2382 -0.0717
  151MOL0     C20277  -0.796   9.305   2.859 -0.1027 -0.1803 -0.3947
  151MOL0     C20278  -0.803   9.194   2.964 -0.2900 -0.2455 -0.6675
  151MOL0     C20279  -0.724   9.421   2.882 -0.3236  0.1303  0.3809
  151MOL0     C20280  -0.641   9.446   3.002 -0.0782  0.8564  0.4254
  151MOL0     O20281  -0.636   9.578   3.055 -0.3827  1.0661 -0.1393
  151MOL0     C20282  -0.624   9.589   3.191 -0.0134  0.3622  0.0857
  151MOL0     C20283  -0.672   9.489   3.276  0.0078 -0.5750  0.4654
  151MOL0     C20284  -0.669   9.512   3.411  0.0603  0.2112  0.4970
  151MOL0     C20285  -0.622   9.630   3.466  0.0808  0.5155  0.0301
  151MOL0     O20286  -0.630   9.652   3.594 -0.2842  0.1559  0.1819
  151MOL0     C20287  -0.719   9.745   3.642 -0.6008 -0.8906 -0.2973
  151MOL0     C20288  -0.859   9.689   3.685  0.6681 -0.5213  0.5440
  151MOL0     C20289  -0.938   9.795   3.761 -0.5464  0.7589 -0.1267
  151MOL0     C20290  -1.057   9.736   3.843 -0.1200  0.3207  0.4595
  151MOL0     C20291  -1.082   9.821   3.970 -0.1556  0.4628  0.2906
  151MOL0     C20292  -1.221   9.871   3.995  0.3637 -0.2674  0.8206
  151MOL0     C20293  -1.217   9.936   4.137  0.9589 -0.4562 -0.1609
  151MOL0     C20294  -1.341  10.011   4.162 -0.6229 -0.2712 -0.7256
  151MOL0    Cl20295  -1.479   9.911   4.214  0.4171 -0.2605  0.4087
  151MOL0     C20296  -0.572   9.735   3.376  0.6323  0.6637 -1.0896
  151MOL0     C20297  -0.563   9.705   3.244  0.4735 -0.0884  0.0463
  151MOL0     O20298  -0.573   9.351   3.035 -0.1032  0.4608  0.0160
  151MOL0     C20299  -0.720   9.517   2.772  0.3675 -0.2344  0.2338
  151MOL0     C20300  -0.773   9.492   2.647  0.0073 -0.3415 -0.3043
  151MOL0     N20301  -0.680   8.801   2.145 -0.2323  0.4703  0.9654
  151MOL0     N20302  -0.668   8.676   2.134 -0.3840 -0.4790  0.2974
  151MOL0     C20303   0.312   8.311   2.280  0.0158  0.6552 -0.8531
  151MOL0     C20304   0.345   8.275   2.414 -0.3148 -1.0238  0.5166
  151MOL0     C20305   0.476   8.149   2.802 -0.4038  0.5570 -0.4374
  151MOL0     C20306   0.470   8.013   2.847  0.0872 -0.1104 -0.6324
  151MOL0     C20307   0.465   7.992   2.985 -0.1563 -0.0942  0.1595
  151MOL0     C20308   0.478   8.095   3.079  0.0282 -0.3209  0.1673
  151MOL0     O20309   0.470   8.058   3.213 -0.3349 -0.2718  0.1226
  151MOL0     C20310   0.579   8.114   3.291  0.2949 -0.5089 -0.0510
  151MOL0     C20311   0.607   8.029   3.409  0.1032 -0.0439 -0.4160
  151MOL0     C20312   0.721   8.105   3.484  0.2879 -0.7355  0.1980
  151MOL0     C20313   0.737   8.059   3.629  0.5251  0.4365  0.5910
  151MOL0     C20314   0.842   8.125   3.704 -0.0803 -0.0349  0.5924
  151MOL0     C20315   0.922   8.206   3.760  0.8318 -0.8420 -0.8626
  151MOL0     C20316   0.489   8.226   3.035  0.4903 -0.2564 -1.4488
  151MOL0     C20317   0.494   8.249   2.900  0.1480 -0.1075  0.6846
  151MOL0     H20318   0.300   7.949   2.410  0.8333 -0.0444 -0.6259
  151MOL0     H20319   0.239   7.998   2.163 -0.5416 -0.2826  0.6276
  151MOL0     H20320   0.120   8.255   1.904  2.6129  3.1911  1.3833
  151MOL0     H20321   0.146   8.095   1.987 -0.6226 -0.5817  1.2991
  151MOL0     H20322  -0.077   8.137   2.020  2.2989 -2.4720  0.1190
  151MOL0     H20323  -0.001   8.173   2.179 -2.2754 -0.0878  0.5662
  151MOL0     H20324   0.010   8.430   2.096  0.0536  0.7245 -1.2573
  151MOL0     H20325  -0.094   8.363   1.975 -1.1721  0.8715  0.3553
  151MOL0     H20326  -0.269   8.309   2.130 -1.5110  0.1625 -0.9137
  151MOL0     H20327  -0.154   8.351   2.264  0.1667  2.5312 -0.7256
  151MOL0     H20328  -0.143   8.575   2.192 -0.6273  0.1898  0.0596
  151MOL0     H20329  -0.272   8.535   2.063 -0.8114  1.1185  0.7331
  151MOL0     H20330  -0.289   8.553   2.355  1.2894 -2.1331 -1.3485
  151MOL0     H20331  -0.365   8.667   2.250 -0.2873  0.4122  2.3432
  151MOL0     H20332  -0.478   8.474   2.120  2.0265  0.1036 -0.9818
  151MOL0     H20333  -0.438   8.373   2.260  1.8789  0.4854 -2.3339
  151MOL0     H20334  -0.547   8.533   2.418 -1.6455 -0.5069  0.3604
  151MOL0     H20335  -0.648   8.434   2.326 -0.4638  0.2015  3.4055
  151MOL0     H20336  -0.655   8.739   2.458  2.2230 -2.6353 -0.7539
  151MOL0     H20337  -0.568   9.021   2.360  0.3562  1.9389 -1.2948
  151MOL0     H20338  -0.673   9.057   2.221 -2.9011  0.7797 -0.1075
  151MOL0     H20339  -0.782   8.961   2.478 -0.9695  1.4411  0.9777
  151MOL0     H20340  -0.871   9.012   2.332  0.7200  2.2828  0.2970
  151MOL0     H20341  -0.710   9.228   2.403  3.2799 -0.0840  2.7856
  151MOL0     H20342  -0.728   9.158   2.557 -0.8500 -2.9537  1.2433
  151MOL0     H20343  -0.993   9.182   2.550 -2.2455  2.4431  0.1132
  151MOL0     H20344  -0.967   9.212   2.373  1.1831  0.2297 -1.0819
  151MOL0     H20345  -0.946   9.214   2.734 -1.8742  1.1739 -1.5822
  151MOL0     H20346  -0.880   9.125   2.929  1.3394 -1.2226 -2.5365
  151MOL0     H20347  -0.710   9.138   2.956 -0.7431 -0.9898 -0.7348
  151MOL0     H20348  -0.827   9.223   3.067  0.8157 -2.2923  0.2099
  151MOL0     H20349  -0.702   9.393   3.235  0.3269  0.7130 -3.1193
  151MOL0     H20350  -0.726   9.438   3.465 -0.2002 -1.9461 -2.4977
  151MOL0     H20351  -0.677   9.789   3.733 -4.4282  0.8433  0.8594
  151MOL0     H20352  -0.738   9.819   3.564  0.4988 -1.9592 -1.6094
  151MOL0     H20353  -0.918   9.655   3.600  2.8184 -0.4560 -1.0569
  151MOL0     H20354  -0.846   9.601   3.749 -1.3366 -0.1072  1.6105
  151MOL0     H20355  -0.967   9.863   3.680 -0.9043  2.3183  1.2556
  151MOL0     H20356  -0.868   9.839   3.832  1.0523  0.6557 -1.5685
  151MOL0     H20357  -1.153   9.739   3.791 -1.0000  1.4707  2.0643
  151MOL0     H20358  -1.029   9.633   3.867 -1.8806  0.3596  3.0335
  151MOL0     H20359  -1.030   9.918   3.975 -0.9103  0.8204  2.1230
  151MOL0     H20360  -1.055   9.764   4.060  2.2525  0.5272 -0.3309
  151MOL0     H20361  -1.251   9.943   3.919 -2.4106 -1.6776  0.4487
  151MOL0     H20362  -1.292   9.789   3.979  1.9871 -1.1951 -2.2124
  151MOL0     H20363  -1.135  10.009   4.136  1.0570 -0.4590 -3.5440
  151MOL0     H20364  -1.184   9.866   4.214 -2.0738 -2.8465 -0.8368
  151MOL0     H20365  -1.373  10.061   4.070 -0.6016 -3.0150 -2.3427
  151MOL0     H20366  -1.319  10.073   4.248  3.2931 -0.9702 -1.0759
  151MOL0     H20367  -0.534   9.822   3.428  3.2434 -0.8573 -0.2110
  151MOL0     H20368  -0.520   9.779   3.177  0.9920 -1.4782 -1.2299
  151MOL0     H20369  -0.669   9.610   2.797  0.0430 -0.4029  1.6188
  151MOL0     H20370  -0.761   9.554   2.559  2.7378  0.0116  0.2245
  151MOL0     H20371   0.314   8.416   2.250 -0.9308  0.9972  0.1993
  151MOL0     H20372   0.359   8.369   2.467 -1.4990  0.9934 -2.4586
  151MOL0     H20373   0.467   7.925   2.784 -1.3964  0.8234 -1.9425
  151MOL0     H20374   0.472   7.889   3.019  0.8112 -1.4158 -3.5778
  151MOL0     H20375   0.667   8.125   3.226 -0.0331  5.1638 -0.0328
  151MOL0     H20376   0.565   8.217   3.324  3.6645 -0.7079  2.5942
  151MOL0     H20377   0.641   7.931   3.374  2.2474 -0.4321  2.3495
  151MOL0     H20378   0.527   8.024   3.484  1.5024 -0.2113  1.1313
  151MOL0     H20379   0.703   8.213   3.495  0.6897 -0.6985  0.5492
  151MOL0     H20380   0.814   8.085   3.430 -0.4218  1.5765 -2.0920
  151MOL0     H20381   0.751   7.950   3.634 -0.4666  0.3169  4.2792
  151MOL0     H20382   0.645   8.079   3.685  0.5076 -1.5688  1.3699
  151MOL0     H20383   0.997   8.270   3.803 -1.1799  1.2795 -0.3149
  151MOL0     H20384   0.509   8.313   3.098  0.6263 -1.7691  0.6759
  151MOL0     H20385   0.512   8.353   2.876 -3.1135  0.8534  1.9070
  152MOL0     O20386   8.155   8.686   2.839 -0.0738  0.3951  0.2627
  152MOL0     C20387   8.115   8.592   2.909  0.5483  0.0724  0.9981
  152MOL0     O20388   8.186   8.515   3.002 -0.0830  0.2958  0.2279
  152MOL0     C20389   8.312   8.558   3.042 -0.7021  0.9126  0.3057
  152MOL0     C20390   8.335   8.687   3.074  0.5331 -0.0798 -0.6349
  152MOL0     C20391   8.458   8.725   3.126 -0.4870 -0.3513 -0.7038
  152MOL0     C20392   8.570   8.632   3.133  0.0767  1.3170  0.4309
  152MOL0     O20393   8.695   8.654   3.170  0.1948 -0.0119 -0.8382
  152MOL0     C20394   8.733   8.792   3.144  0.0952 -0.2762 -0.7196
  152MOL0     C20395   8.882   8.774   3.128 -0.1522  0.3777 -0.5604
  152MOL0     C20396   8.955   8.685   3.234  0.8693 -0.6715 -0.8535
  152MOL0     C20397   8.908   8.713   3.384 -0.4805 -0.5411 -0.3432
  152MOL0     C20398   9.025   8.653   3.473  0.8149  0.7478 -0.2514
  152MOL0     C20399   8.957   8.606   3.607 -0.3498 -0.8064 -0.0915
  152MOL0     C20400   9.048   8.517   3.689  0.0825  0.7629 -0.6151
  152MOL0     C20401   9.189   8.577   3.711 -0.3889  0.3833  0.0482
  152MOL0     N20402   9.274   8.483   3.781 -0.0367  0.9528  0.1265
  152MOL0     C20403   9.340   8.378   3.711 -0.7998 -0.3956 -0.6965
  152MOL0     C20404   9.433   8.329   3.794 -0.3800  0.1314  0.5035
  152MOL0     C20405   9.551   8.238   3.760 -0.2580 -0.2162 -0.4016
  152MOL0     C20406   9.670   8.317   3.693 -0.0349 -1.2438  1.2395
  152MOL0     C20407   9.764   8.386   3.784 -0.3099  0.7649 -0.2919
  152MOL0     C20408   9.714   8.531   3.825 -0.8829  0.5482  0.4598
  152MOL0     O20409   9.793   8.629   3.751  0.3046  0.6720  0.2376
  152MOL0     C20410   9.726   8.680   3.644  0.1363  0.3552  0.1381
  152MOL0     C20411   9.783   8.681   3.519 -0.1219  0.0185 -0.1635
  152MOL0     C20412   9.719   8.713   3.400 -0.2473 -0.9973 -0.4191
  152MOL0     C20413   9.798   8.712   3.270  0.0358 -0.1041 -0.7328
  152MOL0     C20414   9.580   8.760   3.414 -0.4710 -0.8539 -0.4614
  152MOL0     C20415   9.504   8.828   3.295  0.4416 -1.1204 -0.4933
  152MOL0     O20416   9.563   8.839   3.181 -0.0732 -0.3845  0.2282
  152MOL0     C20417   9.509   8.916   3.080 -0.5487  1.7264  0.2123
  152MOL0     C20418   9.379   8.935   3.034  0.2646 -0.3018 -0.5710
  152MOL0     C20419   9.348   9.030   2.930 -0.2822 -0.2397 -1.3057
  152MOL0     C20420   9.449   9.103   2.875  0.3206 -0.0077 -0.1240
  152MOL0     O20421   9.422   9.200   2.787 -0.1951  0.1104  0.1987
  152MOL0     C20422   9.334   9.303   2.839  0.1061 -0.9628  0.1680
  152MOL0     C20423   9.340   9.419   2.749 -0.0458 -0.0826  0.3446
  152MOL0     C20424   9.235   9.523   2.783 -0.0663 -0.1220 -0.1516
  152MOL0     C20425   9.267   9.659   2.717 -0.0023  0.1447 -0.1558
  152MOL0     C20426   9.161   9.755   2.773  0.2606  0.2114 -0.1562
  152MOL0     C20427   9.178   9.897   2.736  0.0934 -0.4748  0.9292
  152MOL0     C20428   9.061   9.983   2.778 -0.4015  0.4386 -0.2283
  152MOL0     C20429   9.085  10.131   2.798 -0.9176 -1.1421  0.1670
  152MOL0    Cl20430   9.146  10.197   2.637 -0.1304 -0.0572  0.1711
  152MOL0     C20431   9.583   9.082   2.914 -0.6632 -0.1085  0.3298
  152MOL0     C20432   9.605   8.996   3.021 -0.5876  0.1857 -0.9203
  152MOL0     O20433   9.391   8.868   3.315 -0.4642 -0.8908 -0.3883
  152MOL0     C20434   9.528   8.771   3.546 -0.3265 -0.7357  0.0799
  152MOL0     C20435   9.593   8.717   3.652  0.7528 -0.0265  0.9112
  152MOL0     N20436   9.411   8.390   3.915 -0.4043 -0.1736  0.8386
  152MOL0     N20437   9.323   8.489   3.906 -0.4060  0.7527  0.7118
  152MOL0     C20438   8.546   8.502   3.097  1.1029 -1.0118 -0.5921
  152MOL0     C20439   8.414   8.466   3.044  0.1142 -0.9442  0.2543
  152MOL0     C20440   7.976   8.536   2.884  0.0596  0.0902  0.3291
  152MOL0     C20441   7.916   8.440   2.967 -0.3042  0.4198  0.0692
  152MOL0     C20442   7.788   8.395   2.945  1.1864  0.4953 -0.4271
  152MOL0     C20443   7.718   8.437   2.839  0.1617 -0.4781  0.7080
  152MOL0     O20444   7.592   8.393   2.798 -0.6151  0.3110  0.7113
  152MOL0     C20445   7.523   8.301   2.873  0.7858 -0.3343  0.6884
  152MOL0     C20446   7.476   8.373   3.006  0.4165  0.8024  0.3475
  152MOL0     C20447   7.406   8.510   2.981  1.0696  0.0222 -0.8659
  152MOL0     C20448   7.318   8.549   3.088  0.0719 -0.4093 -0.9038
  152MOL0     C20449   7.395   8.557   3.216 -0.6244  0.4560  0.8667
  152MOL0     C20450   7.475   8.549   3.311  0.4406 -0.2317 -1.1475
  152MOL0     C20451   7.772   8.536   2.754  0.1481  0.0299  0.6895
  152MOL0     C20452   7.904   8.580   2.775  0.5966 -0.2835 -0.4671
  152MOL0     H20453   8.253   8.758   3.075  0.0608 -0.5948 -1.6216
  152MOL0     H20454   8.474   8.828   3.156 -1.5177 -0.6603  1.1134
  152MOL0     H20455   8.686   8.829   3.053 -2.3093 -0.9199  0.1795
  152MOL0     H20456   8.701   8.846   3.233 -0.4864 -1.2720 -0.3014
  152MOL0     H20457   8.902   8.726   3.032 -2.8798  1.7737 -1.9663
  152MOL0     H20458   8.927   8.872   3.108  0.1572  0.7730  1.8542
  152MOL0     H20459   8.944   8.579   3.213  2.2725 -1.1587  0.6873
  152MOL0     H20460   9.062   8.707   3.223  1.2476  0.8875  3.5773
  152MOL0     H20461   8.893   8.820   3.401 -1.7897 -0.6512 -0.6690
  152MOL0     H20462   8.814   8.662   3.408  0.1448 -1.0367  1.1781
  152MOL0     H20463   9.062   8.563   3.423 -1.1143 -0.8707  1.0670
  152MOL0     H20464   9.105   8.726   3.487  4.6927 -2.7906 -1.7524
  152MOL0     H20465   8.937   8.701   3.658 -0.0983  0.2275 -1.8571
  152MOL0     H20466   8.860   8.561   3.582 -0.9671  1.0244 -1.1483
  152MOL0     H20467   9.011   8.493   3.789  0.9953 -1.2705 -0.7206
  152MOL0     H20468   9.063   8.424   3.633  0.2117  0.2662  0.2185
  152MOL0     H20469   9.169   8.670   3.766  2.5729  2.1660 -1.6143
  152MOL0     H20470   9.232   8.594   3.612 -0.3125 -0.4105 -0.0605
  152MOL0     H20471   9.326   8.357   3.606 -1.3392  4.0348 -1.7003
  152MOL0     H20472   9.592   8.204   3.856  0.1874  3.9250  1.0872
  152MOL0     H20473   9.514   8.154   3.701 -0.6995 -2.6945  3.0985
  152MOL0     H20474   9.626   8.393   3.627  3.2361  2.0209  2.4576
  152MOL0     H20475   9.733   8.246   3.638 -1.6673  0.1710 -2.8462
  152MOL0     H20476   9.865   8.395   3.744 -0.5786 -1.6105 -1.6714
  152MOL0     H20477   9.788   8.330   3.875  1.7601  2.3426  0.2111
  152MOL0     H20478   9.753   8.557   3.925 -0.0684 -0.0343  0.3038
  152MOL0     H20479   9.605   8.532   3.814 -0.6907 -2.4946 -3.5508
  152MOL0     H20480   9.887   8.650   3.520 -0.0516  0.1699  2.0810
  152MOL0     H20481   9.901   8.679   3.290 -0.3106  0.2244  1.9645
  152MOL0     H20482   9.753   8.646   3.195 -1.2971 -1.1493  0.9223
  152MOL0     H20483   9.812   8.814   3.232 -0.9987  0.0743 -0.6532
  152MOL0     H20484   9.296   8.877   3.074  0.3807 -0.4221 -0.5002
  152MOL0     H20485   9.251   9.068   2.900 -0.7421 -1.8395 -1.9662
  152MOL0     H20486   9.232   9.266   2.853 -0.1461 -0.7500 -1.0374
  152MOL0     H20487   9.363   9.338   2.939 -0.1767 -0.4578  0.0770
  152MOL0     H20488   9.436   9.465   2.772  2.1881 -4.5499  1.0552
  152MOL0     H20489   9.332   9.392   2.643 -2.1741 -1.8157  0.8648
  152MOL0     H20490   9.229   9.542   2.890  4.2329  3.3799 -0.2649
  152MOL0     H20491   9.141   9.487   2.741  1.4881  0.1652 -4.3887
  152MOL0     H20492   9.369   9.681   2.749 -0.2704  0.3930  0.5503
  152MOL0     H20493   9.261   9.644   2.609 -0.0130 -2.6171  0.1448
  152MOL0     H20494   9.159   9.749   2.882 -0.6056 -0.5772 -0.2066
  152MOL0     H20495   9.066   9.720   2.732 -0.8654  0.6163  1.9459
  152MOL0     H20496   9.276   9.929   2.773  1.2898 -1.1563 -1.4286
  152MOL0     H20497   9.182   9.905   2.627 -0.8192  1.6953  0.9895
  152MOL0     H20498   9.019   9.961   2.877  1.9462  3.2837  1.5526
  152MOL0     H20499   8.987   9.971   2.698  0.3055 -0.3344 -0.7874
  152MOL0     H20500   9.161  10.155   2.874  0.8175  1.6899 -2.2374
  152MOL0     H20501   8.990  10.179   2.825  0.3273  0.3960  2.2019
  152MOL0     H20502   9.654   9.152   2.871 -0.8923 -0.6724 -1.0204
  152MOL0     H20503   9.704   9.004   3.065 -0.4031  1.6012 -1.5591
  152MOL0     H20504   9.430   8.816   3.546  0.8185  2.4780 -4.5880
  152MOL0     H20505   9.543   8.719   3.748 -0.8334  3.3020  0.1611
  152MOL0     H20506   8.621   8.424   3.102  1.7030 -0.4861 -1.2897
  152MOL0     H20507   8.400   8.362   3.016 -0.2409 -1.6752  2.8494
  152MOL0     H20508   7.969   8.401   3.053 -2.3283  0.4696  1.3978
  152MOL0     H20509   7.752   8.314   3.008 -1.3215  0.6292 -1.5677
  152MOL0     H20510   7.435   8.275   2.815  2.0294  3.5901 -3.4496
  152MOL0     H20511   7.580   8.211   2.900 -0.2428 -0.0363  4.4461
  152MOL0     H20512   7.556   8.391   3.078 -1.9944  1.1824  3.1196
  152MOL0     H20513   7.401   8.315   3.061 -0.1751  2.3512  1.2507
  152MOL0     H20514   7.347   8.501   2.889 -1.2852 -1.4898  0.6868
  152MOL0     H20515   7.489   8.581   2.973  1.7863 -0.4994  1.3050
  152MOL0     H20516   7.243   8.472   3.110  2.2570 -1.9895  1.7368
  152MOL0     H20517   7.279   8.649   3.067  0.7863  0.4482  1.4951
  152MOL0     H20518   7.536   8.548   3.399  2.0153 -1.2152 -2.2187
  152MOL0     H20519   7.723   8.582   2.669  3.6438  2.5986 -0.1542
  152MOL0     H20520   7.957   8.647   2.708  2.1106  0.6724  1.5892
  153MOL0     O20521   2.187   9.139  11.470  0.3853 -0.3463 -0.8753
  153MOL0     C20522   2.096   9.148  11.551  0.5587 -0.0450 -0.9367
  153MOL0     O20523   2.041   9.269  11.602 -0.2764  0.1179 -0.2845
  153MOL0     C20524   2.095   9.382  11.566  0.9539  0.2259  1.1034
  153MOL0     C20525   2.217   9.421  11.606  0.7672 -0.2418 -0.7965
  153MOL0     C20526   2.256   9.550  11.598  0.6451 -0.4007  0.2921
  153MOL0     C20527   2.180   9.645  11.531 -0.5824 -0.6968  0.6058
  153MOL0     O20528   2.229   9.774  11.527  0.3655  0.2583  0.7659
  153MOL0     C20529   2.189   9.855  11.412 -1.2130  0.3515 -0.6790
  153MOL0     C20530   2.302   9.965  11.395 -0.1511 -0.0263 -0.1730
  153MOL0     C20531   2.248  10.080  11.310 -0.1494  0.2490  1.4845
  153MOL0     C20532   2.342  10.200  11.306  0.5094 -0.7136 -0.1135
  153MOL0     C20533   2.273  10.324  11.240 -1.0796  0.0720 -0.9475
  153MOL0     C20534   2.368  10.436  11.209 -0.6299 -0.4378  0.2848
  153MOL0     C20535   2.384  10.532  11.329  0.2996 -1.8304 -0.2810
  153MOL0     C20536   2.425  10.675  11.279 -0.1870  0.2543 -0.6578
  153MOL0     N20537   2.390  10.782  11.385  0.0873  0.5134 -0.3096
  153MOL0     C20538   2.500  10.824  11.464  0.4255  0.1513 -0.9877
  153MOL0     C20539   2.446  10.903  11.555  0.4177 -0.4350  0.0857
  153MOL0     C20540   2.514  10.984  11.656  0.3838  0.1580  0.3389
  153MOL0     C20541   2.552  10.895  11.768 -0.3711 -1.0532 -0.0059
  153MOL0     C20542   2.432  10.821  11.849 -0.3928 -0.1929  1.0139
  153MOL0     C20543   2.498  10.710  11.940 -0.3767  0.5818  0.8204
  153MOL0     O20544   2.568  10.773  12.049 -0.6379 -0.3444  0.6974
  153MOL0     C20545   2.622  10.672  12.130  1.0784  0.8754 -0.0329
  153MOL0     C20546   2.586  10.542  12.149  0.4873 -1.2037  0.5806
  153MOL0     C20547   2.630  10.458  12.248 -1.0277  0.0025 -0.1828
  153MOL0     C20548   2.566  10.327  12.264 -0.1468  0.4282  1.4579
  153MOL0     C20549   2.735  10.507  12.334 -0.4637 -0.7319 -0.0389
  153MOL0     C20550   2.828  10.415  12.418  1.3842 -0.1495  0.0630
  153MOL0     O20551   2.893  10.488  12.501 -0.2306  0.2215 -0.1359
  153MOL0     C20552   2.944  10.425  12.606 -0.8627 -0.4031  0.6849
  153MOL0     C20553   3.080  10.394  12.599  0.5065 -0.6526 -0.9624
  153MOL0     C20554   3.142  10.314  12.688 -0.3718  0.8251  0.3499
  153MOL0     C20555   3.068  10.252  12.787 -0.6766 -0.3193  0.0772
  153MOL0     O20556   3.119  10.168  12.884 -0.0688  0.6504  0.0901
  153MOL0     C20557   3.247  10.094  12.859  0.1364  0.7118 -0.4741
  153MOL0     C20558   3.218   9.951  12.903 -0.2392  1.0149 -1.0125
  153MOL0     C20559   3.345   9.860  12.918  0.2609 -0.7304  0.1892
  153MOL0     C20560   3.395   9.826  12.770  0.4115 -0.0069 -0.4401
  153MOL0     C20561   3.461   9.685  12.771 -0.8927  0.2571  0.2472
  153MOL0     C20562   3.542   9.664  12.647  0.1975  0.2035  1.1897
  153MOL0     C20563   3.612   9.528  12.640 -0.6662 -0.5857  0.7615
  153MOL0     C20564   3.731   9.522  12.540 -0.5693 -1.1075 -0.0368
  153MOL0    Cl20565   3.671   9.593  12.382 -0.4640 -0.3644 -0.5323
  153MOL0     C20566   2.934  10.293  12.806  0.7898  0.8514 -0.2945
  153MOL0     C20567   2.875  10.383  12.714  0.8905 -0.2738 -1.0927
  153MOL0     O20568   2.821  10.287  12.409  0.4308 -0.4843  0.6483
  153MOL0     C20569   2.777  10.642  12.314  0.8874 -0.3066  0.0743
  153MOL0     C20570   2.720  10.716  12.217 -0.2504 -0.9956 -0.5782
  153MOL0     N20571   2.308  10.901  11.527  0.8780  0.4693 -0.0081
  153MOL0     N20572   2.274  10.823  11.437  0.0800  0.1794  0.5348
  153MOL0     C20573   2.057   9.603  11.481 -0.3380 -0.4699 -0.3002
  153MOL0     C20574   2.013   9.472  11.506  0.3881  0.3445 -1.0645
  153MOL0     C20575   2.028   9.029  11.602  0.1832 -0.0528 -1.7471
  153MOL0     C20576   2.061   8.906  11.549  0.5993  0.7516  0.3265
  153MOL0     C20577   2.006   8.787  11.605 -0.6050 -0.4494  0.1030
  153MOL0     C20578   1.902   8.788  11.706  0.2458 -0.7402  0.5758
  153MOL0     O20579   1.841   8.684  11.762 -0.0444 -0.6359 -0.0940
  153MOL0     C20580   1.887   8.551  11.740 -0.0966 -0.5945 -0.8785
  153MOL0     C20581   1.815   8.492  11.619  0.2652  0.8981  0.3467
  153MOL0     C20582   1.662   8.476  11.630 -0.0043  0.0808 -0.1629
  153MOL0     C20583   1.586   8.435  11.494  0.3173  0.2019 -0.0405
  153MOL0     C20584   1.474   8.351  11.538 -0.7533  0.2609 -0.3886
  153MOL0     C20585   1.369   8.286  11.541  0.1194  0.2660 -0.3633
  153MOL0     C20586   1.872   8.917  11.749 -0.5939  0.6211  1.0571
  153MOL0     C20587   1.930   9.034  11.706  0.2524 -0.3995  0.2036
  153MOL0     H20588   2.283   9.349  11.654  2.8871  1.4521 -0.9807
  153MOL0     H20589   2.357   9.572  11.632 -0.4494  1.7983  2.4714
  153MOL0     H20590   2.180   9.801  11.317  0.7493 -1.0483 -0.1514
  153MOL0     H20591   2.095   9.910  11.423 -0.5514  2.4091 -3.8558
  153MOL0     H20592   2.324   9.999  11.496 -1.6680  0.9347 -0.1291
  153MOL0     H20593   2.382   9.912  11.342 -1.2734 -2.0174  0.0135
  153MOL0     H20594   2.208  10.050  11.213 -0.7552  0.7406  1.5741
  153MOL0     H20595   2.162  10.118  11.365 -0.5560 -0.6720  1.5002
  153MOL0     H20596   2.395  10.218  11.401  2.2904  0.9241 -1.3359
  153MOL0     H20597   2.427  10.176  11.242 -0.0933  0.0888 -1.2538
  153MOL0     H20598   2.206  10.302  11.156 -0.5885 -0.5700 -1.1854
  153MOL0     H20599   2.202  10.354  11.317 -2.8740  0.5180 -2.6905
  153MOL0     H20600   2.465  10.394  11.182 -1.1990 -0.7522 -1.3681
  153MOL0     H20601   2.340  10.494  11.120  1.7757  0.2960 -0.0694
  153MOL0     H20602   2.284  10.542  11.370  0.9890 -0.1291  1.1433
  153MOL0     H20603   2.452  10.489  11.403 -0.3563 -2.2735  0.0665
  153MOL0     H20604   2.351  10.691  11.200 -1.5022  1.3824  0.7201
  153MOL0     H20605   2.527  10.665  11.241 -0.9231  1.2714 -3.1501
  153MOL0     H20606   2.606  10.810  11.445 -0.4568 -2.4403 -5.5263
  153MOL0     H20607   2.606  11.017  11.608  0.5226  0.3933  0.7576
  153MOL0     H20608   2.457  11.071  11.691 -1.9421 -0.8923 -0.6637
  153MOL0     H20609   2.615  10.954  11.835 -1.6612  2.1673 -1.4085
  153MOL0     H20610   2.612  10.817  11.721 -0.4470 -2.0601  1.5205
  153MOL0     H20611   2.354  10.773  11.790 -0.8646  0.0265  1.4548
  153MOL0     H20612   2.381  10.889  11.919 -2.6231  0.1168 -0.7981
  153MOL0     H20613   2.563  10.641  11.885  0.0241 -0.6736  2.7719
  153MOL0     H20614   2.414  10.650  11.978  0.6602 -0.9665  0.7764
  153MOL0     H20615   2.497  10.503  12.099 -0.6989 -0.9305  2.3693
  153MOL0     H20616   2.470  10.314  12.212  0.6648  2.3475 -0.6753
  153MOL0     H20617   2.632  10.250  12.223 -2.3455 -1.3056  0.9445
  153MOL0     H20618   2.544  10.311  12.370 -0.4673  3.0186  1.8464
  153MOL0     H20619   3.139  10.437  12.518  2.9044 -2.1913 -0.1448
  153MOL0     H20620   3.239  10.277  12.657 -0.5995  0.6489 -0.1703
  153MOL0     H20621   3.293  10.085  12.760  2.2326  0.5246  0.4540
  153MOL0     H20622   3.315  10.146  12.928  2.5431 -0.2020 -2.0330
  153MOL0     H20623   3.174   9.953  13.003  2.5922  3.4937  0.3493
  153MOL0     H20624   3.152   9.893  12.837 -0.3115 -1.9668  1.4762
  153MOL0     H20625   3.321   9.767  12.969  0.5769 -0.4343  0.8887
  153MOL0     H20626   3.426   9.921  12.960 -0.7809  0.5169  0.4479
  153MOL0     H20627   3.313   9.818  12.697 -0.0619  2.3451 -0.2249
  153MOL0     H20628   3.454   9.912  12.738  1.6999  0.7851  3.4291
  153MOL0     H20629   3.390   9.603  12.784  1.8606 -2.2313  0.7068
  153MOL0     H20630   3.545   9.678  12.840 -1.0736  0.3674  0.4808
  153MOL0     H20631   3.484   9.688  12.557  0.1004  1.6639  1.6112
  153MOL0     H20632   3.613   9.746  12.630  1.6264 -1.1109  0.5338
  153MOL0     H20633   3.538   9.455  12.608  0.1784 -0.1113 -2.5910
  153MOL0     H20634   3.651   9.502  12.739  3.4875 -1.9640 -1.0233
  153MOL0     H20635   3.756   9.416  12.532  0.6828 -0.8869  0.6718
  153MOL0     H20636   3.807   9.582  12.591 -1.4787 -1.5560  1.9497
  153MOL0     H20637   2.877  10.251  12.888  0.4920 -0.0365 -0.9404
  153MOL0     H20638   2.767  10.395  12.715  0.7572 -0.9585  1.5658
  153MOL0     H20639   2.866  10.686  12.357  0.5916  2.1759 -1.6474
  153MOL0     H20640   2.744  10.822  12.217 -0.3236 -0.8933 -3.3938
  153MOL0     H20641   1.984   9.668  11.434  0.0100 -0.2791 -0.5837
  153MOL0     H20642   1.912   9.436  11.496  2.0925 -6.2097  0.6955
  153MOL0     H20643   2.132   8.899  11.467  0.7945  0.1697  0.5383
  153MOL0     H20644   2.048   8.693  11.571  3.9294  0.9238  1.1989
  153MOL0     H20645   1.995   8.565  11.723 -0.3199  0.0175 -1.9306
  153MOL0     H20646   1.860   8.487  11.824 -2.0247  1.0097 -0.1881
  153MOL0     H20647   1.862   8.397  11.593 -0.7395  0.0811  1.4466
  153MOL0     H20648   1.837   8.548  11.527  0.8149 -1.7964 -1.2691
  153MOL0     H20649   1.617   8.562  11.679  0.4881 -0.0264  0.4982
  153MOL0     H20650   1.657   8.399  11.707  1.4352 -0.2896 -0.4103
  153MOL0     H20651   1.664   8.390  11.433  1.5248  0.1596  1.4689
  153MOL0     H20652   1.535   8.524  11.456  0.7685 -0.1713 -1.5554
  153MOL0     H20653   1.281   8.225  11.552  1.3376 -1.8203 -1.6554
  153MOL0     H20654   1.800   8.937  11.828 -1.1047  0.4704  0.6348
  153MOL0     H20655   1.896   9.134  11.734  0.5280  0.2034 -1.4659
  154MOL0     O20656  10.873   8.410   6.047 -0.4230  0.3684  0.4966
  154MOL0     C20657  10.894   8.306   5.981  0.0132  0.5009 -0.2114
  154MOL0     O20658  10.904   8.179   6.038  0.4675  0.6471  1.0233
  154MOL0     C20659  10.905   8.143   6.171  0.3893 -0.2321  0.5996
  154MOL0     C20660  10.948   8.228   6.274 -0.0374 -0.8174 -0.0198
  154MOL0     C20661  10.954   8.177   6.407 -0.3286  0.2599  0.3117
  154MOL0     C20662  10.900   8.055   6.446  0.2508 -0.1351 -0.3842
  154MOL0     O20663  10.910   8.020   6.584 -0.3193 -0.5585  0.5964
  154MOL0     C20664  10.830   7.910   6.628  0.5104  0.1949  0.3699
  154MOL0     C20665  10.840   7.889   6.784  0.2536 -0.1602 -0.5003
  154MOL0     C20666  10.965   7.814   6.826 -0.3223  0.1394  0.9160
  154MOL0     C20667  10.927   7.731   6.949 -0.4669 -0.2056 -0.0871
  154MOL0     C20668  11.046   7.680   7.030  0.7426  0.7876  0.0562
  154MOL0     C20669  11.128   7.578   6.936 -1.0385 -0.2473  0.5497
  154MOL0     C20670  11.047   7.468   6.868  0.1866  0.2828 -0.4487
  154MOL0     C20671  11.138   7.372   6.793  0.1592 -0.7719 -0.4298
  154MOL0     N20672  11.212   7.441   6.683 -0.6037  0.2807  0.6564
  154MOL0     C20673  11.166   7.522   6.588  0.0959  0.2593 -0.2435
  154MOL0     C20674  11.279   7.568   6.532 -0.3311 -1.5261 -0.3961
  154MOL0     C20675  11.306   7.680   6.440  0.4648 -0.4509  0.2375
  154MOL0     C20676  11.277   7.812   6.514  0.4785  1.2372  0.1738
  154MOL0     C20677  11.313   7.939   6.440  0.1269  0.3429  0.0655
  154MOL0     C20678  11.298   8.063   6.528 -1.0083  0.2609 -0.4204
  154MOL0     O20679  11.338   8.170   6.446  0.8850 -0.1248 -0.7937
  154MOL0     C20680  11.319   8.303   6.490 -1.4431  0.2418  0.0381
  154MOL0     C20681  11.344   8.404   6.401  0.1839  0.4195  0.4480
  154MOL0     C20682  11.303   8.538   6.421  0.1644  0.3278  0.5396
  154MOL0     C20683  11.330   8.629   6.303  0.4148 -0.3497 -0.4449
  154MOL0     C20684  11.250   8.571   6.549  1.0672 -0.4824 -0.1897
  154MOL0     C20685  11.219   8.707   6.592  0.8352 -0.1514 -0.1905
  154MOL0     O20686  11.202   8.715   6.733  0.2486  0.0925 -0.6639
  154MOL0     C20687  11.176   8.830   6.804 -0.3701 -0.7468  0.0009
  154MOL0     C20688  11.144   8.806   6.936  0.7531  0.3672 -1.6427
  154MOL0     C20689  11.135   8.905   7.032  1.0540  0.4479 -0.0269
  154MOL0     C20690  11.147   9.034   6.985 -0.8868 -0.3121  0.3018
  154MOL0     O20691  11.136   9.136   7.081 -0.6797  0.4692  0.0043
  154MOL0     C20692  11.253   9.151   7.163 -0.2258  0.9765 -0.6763
  154MOL0     C20693  11.240   9.274   7.246 -0.7558 -0.6615 -0.2425
  154MOL0     C20694  11.258   9.412   7.182  0.4031  0.5928  0.5621
  154MOL0     C20695  11.412   9.443   7.156  0.5863  0.6349  0.3816
  154MOL0     C20696  11.510   9.432   7.272  0.5210 -1.0991 -0.4366
  154MOL0     C20697  11.569   9.569   7.317 -0.1133 -0.5620  0.0933
  154MOL0     C20698  11.493   9.632   7.441 -0.6578  0.6307 -0.7703
  154MOL0     C20699  11.549   9.772   7.464 -0.9605 -0.0047 -0.3382
  154MOL0    Cl20700  11.489   9.907   7.373 -0.1344 -0.2660 -0.4050
  154MOL0     C20701  11.160   9.062   6.856 -0.1034  0.5927  0.4152
  154MOL0     C20702  11.172   8.963   6.756  0.3817  0.1230 -0.9519
  154MOL0     O20703  11.201   8.797   6.509 -0.4783  0.4316 -0.0013
  154MOL0     C20704  11.248   8.468   6.646  0.8990  0.5441 -0.1103
  154MOL0     C20705  11.272   8.341   6.622  0.1299  1.3531 -0.1330
  154MOL0     N20706  11.389   7.498   6.578 -0.1563 -0.4424  0.0771
  154MOL0     N20707  11.344   7.437   6.680  0.5034  0.4336 -0.3504
  154MOL0     C20708  10.863   7.959   6.342 -1.3523  0.7375  0.1058
  154MOL0     C20709  10.869   8.013   6.206  0.2718 -0.3373  0.0336
  154MOL0     C20710  10.909   8.310   5.832 -0.5603  0.0230  0.0850
  154MOL0     C20711  10.914   8.434   5.772  0.0339  0.6216  0.0497
  154MOL0     C20712  10.914   8.451   5.639 -0.5545  0.1915  0.4677
  154MOL0     C20713  10.925   8.343   5.558 -1.6071  0.4626 -0.0569
  154MOL0     O20714  10.949   8.357   5.422  1.5459  0.6520 -0.3788
  154MOL0     C20715  10.829   8.334   5.341 -1.0313 -0.0870  0.4884
  154MOL0     C20716  10.747   8.453   5.313  1.0227 -0.2601 -0.6761
  154MOL0     C20717  10.823   8.582   5.281  0.5346 -0.1229  0.6335
  154MOL0     C20718  10.908   8.560   5.150  0.0878 -0.7823  0.1658
  154MOL0     C20719  10.944   8.681   5.074  0.0198  0.2220 -0.8206
  154MOL0     C20720  10.988   8.776   5.008  0.4213 -0.3527 -0.6691
  154MOL0     C20721  10.929   8.212   5.612  0.9463 -0.2345  0.1844
  154MOL0     C20722  10.920   8.197   5.753  0.8464 -0.3348 -1.1887
  154MOL0     H20723  10.978   8.328   6.246 -1.4101 -0.6636 -1.0248
  154MOL0     H20724  10.973   8.242   6.492 -2.8235 -1.0595  1.9834
  154MOL0     H20725  10.725   7.923   6.601  0.9827 -2.2579 -3.3333
  154MOL0     H20726  10.864   7.818   6.578  0.1222  0.3999 -0.2787
  154MOL0     H20727  10.841   7.983   6.840  1.1603 -1.4387  1.7593
  154MOL0     H20728  10.750   7.840   6.823  1.5977 -2.7386 -0.4285
  154MOL0     H20729  11.001   7.751   6.744 -0.5951 -1.2392  1.8235
  154MOL0     H20730  11.042   7.884   6.860 -0.5800  0.1795  1.4180
  154MOL0     H20731  10.873   7.800   7.015 -1.9529 -3.2172  2.0667
  154MOL0     H20732  10.860   7.651   6.918  0.9358  0.2739 -5.2924
  154MOL0     H20733  11.110   7.763   7.062 -0.3535  3.5671 -4.1720
  154MOL0     H20734  11.008   7.622   7.114  0.7298  0.3881 -0.2218
  154MOL0     H20735  11.199   7.617   6.863  1.1498 -3.4776  0.7592
  154MOL0     H20736  11.195   7.529   7.007 -2.2980  0.6158  2.4320
  154MOL0     H20737  10.973   7.427   6.937  0.8657  2.6209  1.8298
  154MOL0     H20738  10.986   7.510   6.787 -0.3651  0.4452  0.0395
  154MOL0     H20739  11.065   7.303   6.750 -1.6279  0.4344  0.5242
  154MOL0     H20740  11.204   7.316   6.860 -2.4121 -2.1017  1.1586
  154MOL0     H20741  11.065   7.556   6.572  0.1348  2.0186  2.6581
  154MOL0     H20742  11.412   7.676   6.413  0.8076  1.1750  1.1993
  154MOL0     H20743  11.242   7.682   6.351  2.3842  3.0434 -1.2774
  154MOL0     H20744  11.347   7.799   6.597  2.8379 -0.3157 -1.9269
  154MOL0     H20745  11.173   7.808   6.550  0.7011 -1.3843  0.6784
  154MOL0     H20746  11.252   7.947   6.349  0.8605  1.4159 -0.3563
  154MOL0     H20747  11.419   7.943   6.413  0.0564 -0.3285 -0.3305
  154MOL0     H20748  11.367   8.048   6.612  0.2165  2.1913 -1.0118
  154MOL0     H20749  11.193   8.075   6.553 -0.3741  1.7361  1.8114
  154MOL0     H20750  11.379   8.382   6.301  1.0974  0.8479  0.6586
  154MOL0     H20751  11.248   8.699   6.287  0.1242  0.3188  3.1112
  154MOL0     H20752  11.422   8.685   6.321 -1.3019  1.8477  2.5133
  154MOL0     H20753  11.346   8.569   6.213  0.8321  0.2466 -0.7756
  154MOL0     H20754  11.122   8.705   6.968 -2.8399  1.3573 -0.5462
  154MOL0     H20755  11.124   8.873   7.135  1.7608 -4.0178 -1.1390
  154MOL0     H20756  11.256   9.066   7.232  2.6881  1.8394  0.4033
  154MOL0     H20757  11.350   9.145   7.111  0.7682 -2.7528  1.2688
  154MOL0     H20758  11.137   9.274   7.285 -0.6712 -0.1040 -0.0001
  154MOL0     H20759  11.289   9.265   7.343 -4.1839 -1.5518  1.5568
  154MOL0     H20760  11.232   9.489   7.256  1.5049  2.4019 -0.8496
  154MOL0     H20761  11.184   9.420   7.102  1.6143  2.0056 -0.4790
  154MOL0     H20762  11.455   9.378   7.079 -0.7124  3.0212 -2.5707
  154MOL0     H20763  11.419   9.546   7.118 -0.1503  0.3429 -0.6119
  154MOL0     H20764  11.600   9.375   7.245  0.8525 -2.3527  2.8453
  154MOL0     H20765  11.481   9.378   7.362  4.0889 -0.9891  0.9624
  154MOL0     H20766  11.676   9.558   7.340 -0.1814  2.3186  2.3018
  154MOL0     H20767  11.567   9.642   7.235 -1.9415 -3.3530 -2.5814
  154MOL0     H20768  11.512   9.566   7.526 -2.5710  0.6442 -0.2869
  154MOL0     H20769  11.385   9.624   7.430 -0.4355 -3.9397 -1.8794
  154MOL0     H20770  11.657   9.781   7.449 -0.8371  0.9360  0.9594
  154MOL0     H20771  11.517   9.814   7.560 -1.1281  1.5791 -1.0625
  154MOL0     H20772  11.173   9.166   6.831 -0.4162  0.0870 -2.1247
  154MOL0     H20773  11.182   8.991   6.652 -0.8857 -3.7145 -2.2804
  154MOL0     H20774  11.213   8.484   6.748 -0.7516 -3.3191  0.0690
  154MOL0     H20775  11.241   8.271   6.699  0.1610 -0.6888 -1.8732
  154MOL0     H20776  10.829   7.858   6.358  0.2261 -0.4118 -2.8861
  154MOL0     H20777  10.849   7.939   6.129 -0.1310 -0.0156 -0.1784
  154MOL0     H20778  10.909   8.525   5.832 -0.7476  1.6555 -1.5239
  154MOL0     H20779  10.915   8.554   5.604  0.0240 -0.3901 -1.3421
  154MOL0     H20780  10.870   8.313   5.241  0.8040  0.2307  1.1456
  154MOL0     H20781  10.767   8.254   5.382 -0.9272 -1.4113 -1.7558
  154MOL0     H20782  10.680   8.471   5.398 -3.4250 -0.8227 -3.7152
  154MOL0     H20783  10.668   8.433   5.240  0.1289 -1.5011  0.5762
  154MOL0     H20784  10.884   8.614   5.366 -0.3682  0.7330  0.9856
  154MOL0     H20785  10.747   8.655   5.252  1.1219  0.1028 -0.4003
  154MOL0     H20786  10.854   8.486   5.091  0.3632 -1.1725  0.3886
  154MOL0     H20787  11.000   8.511   5.184 -0.7363 -2.2248  0.4222
  154MOL0     H20788  11.024   8.852   4.942  0.2237  2.2760  2.0483
  154MOL0     H20789  10.947   8.138   5.534  1.5711  1.8962 -1.8362
  154MOL0     H20790  10.925   8.096   5.792  0.1668  0.7771  2.0325
  155MOL0     O20791  11.156   7.993   2.885 -0.3381 -0.5337  0.4163
  155MOL0     C20792  11.070   7.910   2.890 -0.1916 -0.3559 -0.3629
  155MOL0     O20793  10.944   7.925   2.945  0.2703 -0.3276  0.2828
  155MOL0     C20794  10.928   8.037   3.027  0.6887 -0.4629  0.6221
  155MOL0     C20795  10.839   8.145   2.990 -0.0765  0.2542 -0.2848
  155MOL0     C20796  10.812   8.254   3.078  0.5812  0.8476  0.6868
  155MOL0     C20797  10.884   8.253   3.197  1.0802  0.4361 -0.6185
  155MOL0     O20798  10.865   8.359   3.276 -0.6553  0.4409 -0.3049
  155MOL0     C20799  10.973   8.446   3.297  0.8670 -0.4645 -0.7783
  155MOL0     C20800  11.022   8.418   3.443 -0.4382 -0.3186 -0.5500
  155MOL0     C20801  10.936   8.468   3.564  1.0803  0.5063  0.4653
  155MOL0     C20802  10.995   8.602   3.613 -0.0536 -0.2577  0.3283
  155MOL0     C20803  10.934   8.630   3.752  0.4797 -0.3435 -0.9523
  155MOL0     C20804  10.970   8.769   3.805  0.5354 -1.2388 -0.3135
  155MOL0     C20805  10.967   8.788   3.963 -0.2367 -0.1884 -0.3196
  155MOL0     C20806  10.841   8.730   4.050 -0.2808  0.2087 -0.9339
  155MOL0     N20807  10.842   8.781   4.188 -0.0999  0.3032 -0.1432
  155MOL0     C20808  10.938   8.731   4.276 -0.4717 -0.6841  1.2198
  155MOL0     C20809  10.914   8.798   4.387  0.3291  0.0114 -0.2628
  155MOL0     C20810  10.976   8.777   4.515  0.2545  0.7542 -0.5472
  155MOL0     C20811  10.941   8.634   4.569  0.4015  0.0228 -0.2419
  155MOL0     C20812  11.034   8.604   4.686  0.4385  0.0486 -0.3207
  155MOL0     C20813  11.000   8.468   4.756 -0.1041 -0.2867 -0.3205
  155MOL0     O20814  10.979   8.364   4.656  0.2968  0.7414 -0.0682
  155MOL0     C20815  10.975   8.232   4.699 -0.1716  0.9382  0.9096
  155MOL0     C20816  10.936   8.191   4.824 -0.4131 -0.2689 -0.6897
  155MOL0     C20817  10.941   8.059   4.860  0.5089 -0.2417 -0.5563
  155MOL0     C20818  10.899   8.015   4.999  0.0931  0.0432 -0.1497
  155MOL0     C20819  10.971   7.956   4.763 -0.2353  0.1159  0.6311
  155MOL0     C20820  10.960   7.810   4.796 -0.2689 -0.1455  1.1788
  155MOL0     O20821  10.843   7.748   4.830  0.5532  0.2287  0.8221
  155MOL0     C20822  10.828   7.617   4.878 -0.5385  0.0635 -0.0609
  155MOL0     C20823  10.699   7.587   4.888 -0.0277 -0.6599 -0.6959
  155MOL0     C20824  10.666   7.453   4.916 -0.4857  0.4867  1.8934
  155MOL0     C20825  10.758   7.355   4.943 -1.4346  0.5099 -0.3380
  155MOL0     O20826  10.739   7.229   4.979  0.1614  0.5173  0.4678
  155MOL0     C20827  10.610   7.188   5.024  0.3425  0.4090 -0.0642
  155MOL0     C20828  10.629   7.068   5.128  0.9217  0.0243  0.0695
  155MOL0     C20829  10.678   6.941   5.054  0.1446 -0.3862 -0.1322
  155MOL0     C20830  10.568   6.842   5.025  0.2945 -0.0084 -1.6519
  155MOL0     C20831  10.623   6.713   4.972  1.0895  0.1315 -0.1854
  155MOL0     C20832  10.515   6.600   4.960  0.3792  0.5165  0.4820
  155MOL0     C20833  10.436   6.550   5.090 -0.2991 -0.4511 -0.1135
  155MOL0     C20834  10.528   6.462   5.184  0.3397  0.0244  0.2879
  155MOL0    Cl20835  10.634   6.549   5.299  0.5251  0.4292 -0.5988
  155MOL0     C20836  10.894   7.393   4.933 -0.4010  0.5745 -0.4008
  155MOL0     C20837  10.927   7.521   4.898  0.4864 -0.3677  0.0778
  155MOL0     O20838  11.070   7.756   4.804 -0.6416  0.1021  0.0281
  155MOL0     C20839  11.014   7.993   4.635 -0.2384 -0.0393  0.4142
  155MOL0     C20840  11.016   8.130   4.605 -0.5558 -0.9744  0.0036
  155MOL0     N20841  10.796   8.876   4.364 -0.3734  0.2247 -0.4300
  155MOL0     N20842  10.770   8.884   4.234 -0.0119  0.6846 -0.8321
  155MOL0     C20843  10.970   8.147   3.237 -0.8192  0.5988  0.8549
  155MOL0     C20844  10.992   8.039   3.148 -0.9966 -0.5012  0.5192
  155MOL0     C20845  11.108   7.778   2.829 -0.5806  0.3431  0.0254
  155MOL0     C20846  11.017   7.676   2.816 -0.9377 -0.1030 -1.1218
  155MOL0     C20847  11.059   7.556   2.752  0.0160  1.1087 -0.4759
  155MOL0     C20848  11.191   7.524   2.723 -0.1195 -0.4880 -0.6843
  155MOL0     O20849  11.204   7.400   2.668 -0.9348  0.0558 -0.5404
  155MOL0     C20850  11.335   7.354   2.631  0.4908  0.6253  0.0794
  155MOL0     C20851  11.346   7.211   2.669 -0.1442  1.0009 -0.6079
  155MOL0     C20852  11.498   7.157   2.648  0.3678 -0.4888  0.9355
  155MOL0     C20853  11.538   7.155   2.507 -0.9387 -0.4368 -0.7994
  155MOL0     C20854  11.462   7.057   2.432  0.3770 -0.6053  0.4586
  155MOL0     C20855  11.379   6.983   2.384  0.1984  0.1404 -0.2502
  155MOL0     C20856  11.283   7.628   2.744  0.0106  0.6018 -0.0381
  155MOL0     C20857  11.244   7.749   2.800 -0.4724  0.0926 -0.4049
  155MOL0     H20858  10.776   8.123   2.904 -0.6348  0.2514  0.1203
  155MOL0     H20859  10.745   8.335   3.050 -0.8302  0.1961  2.0440
  155MOL0     H20860  11.037   8.454   3.209 -0.2088  2.1616 -1.4371
  155MOL0     H20861  10.927   8.545   3.287 -3.5105 -1.8710  2.2220
  155MOL0     H20862  11.049   8.314   3.463  1.8815  0.6419  2.0983
  155MOL0     H20863  11.127   8.450   3.452 -0.0439 -1.6684 -0.0507
  155MOL0     H20864  10.830   8.473   3.535  0.9589 -0.0608  0.7807
  155MOL0     H20865  10.958   8.397   3.644 -0.2500  0.9352  1.2484
  155MOL0     H20866  11.104   8.595   3.614  0.0857  1.4248  1.3586
  155MOL0     H20867  10.961   8.686   3.551  0.0418 -0.0863  0.5082
  155MOL0     H20868  10.825   8.628   3.751  0.0839  5.0562 -4.1647
  155MOL0     H20869  10.967   8.559   3.829 -1.1008 -0.7704 -0.6412
  155MOL0     H20870  11.069   8.800   3.772  0.3612  1.3413  1.3153
  155MOL0     H20871  10.904   8.842   3.757  2.5677  0.4702 -0.6144
  155MOL0     H20872  11.060   8.747   4.005  0.0604  1.3820  0.5961
  155MOL0     H20873  10.970   8.895   3.984  2.3386 -0.5449  1.7213
  155MOL0     H20874  10.845   8.620   4.054 -2.0595  0.1559  0.5025
  155MOL0     H20875  10.747   8.761   4.005 -2.2348 -0.7492  2.2066
  155MOL0     H20876  11.023   8.667   4.256 -1.5969 -1.3515 -2.1989
  155MOL0     H20877  11.085   8.781   4.502  0.4146  1.2801  0.7306
  155MOL0     H20878  10.950   8.860   4.582 -1.4091  0.2546 -0.5393
  155MOL0     H20879  10.947   8.549   4.500 -3.9416 -1.2226  0.5901
  155MOL0     H20880  10.839   8.644   4.607  0.5367 -2.1259  0.8812
  155MOL0     H20881  11.032   8.685   4.759  0.1194  0.1559 -0.4507
  155MOL0     H20882  11.139   8.604   4.653  1.0450 -0.5517  1.4815
  155MOL0     H20883  10.904   8.491   4.802  1.1128  0.7154  1.8869
  155MOL0     H20884  11.070   8.447   4.837  0.9394 -1.8410 -1.5704
  155MOL0     H20885  10.896   8.261   4.897 -2.6884 -0.0696 -2.0409
  155MOL0     H20886  10.968   7.940   5.035 -0.3403  0.2548  1.1753
  155MOL0     H20887  10.890   8.093   5.075  0.4589 -0.0344 -0.0270
  155MOL0     H20888  10.795   7.983   4.987 -1.1939  3.4374  0.7516
  155MOL0     H20889  10.623   7.663   4.875 -0.5764 -0.3376  3.1011
  155MOL0     H20890  10.561   7.426   4.916 -0.4077 -0.3120 -1.4977
  155MOL0     H20891  10.544   7.264   5.066 -2.4573 -2.7769  1.7663
  155MOL0     H20892  10.562   7.153   4.933  3.5236  4.6841 -3.8764
  155MOL0     H20893  10.701   7.106   5.200 -1.6579  3.6449  1.0492
  155MOL0     H20894  10.529   7.050   5.168  1.2695  0.5850  1.2315
  155MOL0     H20895  10.759   6.890   5.107 -1.2583 -0.6368  1.8916
  155MOL0     H20896  10.722   6.959   4.956 -0.9342  4.7979  0.0417
  155MOL0     H20897  10.503   6.833   5.112 -0.1784 -0.9665 -2.0889
  155MOL0     H20898  10.497   6.871   4.946 -0.3590  1.0283 -0.7046
  155MOL0     H20899  10.716   6.674   5.016  1.6530 -0.7726 -2.0789
  155MOL0     H20900  10.645   6.734   4.867 -0.8438  1.9028 -0.2893
  155MOL0     H20901  10.437   6.646   4.899 -0.1896  0.7032  1.3253
  155MOL0     H20902  10.560   6.516   4.907  0.9113  2.1215 -1.7243
  155MOL0     H20903  10.359   6.478   5.063 -1.6342  1.0560 -0.4758
  155MOL0     H20904  10.388   6.642   5.124  0.5878  0.3499 -0.9414
  155MOL0     H20905  10.600   6.412   5.118 -1.5953 -1.7466 -0.5783
  155MOL0     H20906  10.464   6.392   5.237 -0.8180  2.7433  2.7651
  155MOL0     H20907  10.960   7.307   4.937 -2.8972 -1.4284  1.1011
  155MOL0     H20908  11.027   7.549   4.868 -0.4598  0.9909 -2.0576
  155MOL0     H20909  11.045   7.930   4.552 -2.6254 -2.7613  1.4191
  155MOL0     H20910  11.065   8.152   4.511  0.5988 -3.4918 -0.0541
  155MOL0     H20911  11.021   8.139   3.332 -0.2075 -1.5906  0.4020
  155MOL0     H20912  11.065   7.960   3.164 -0.0903  0.1887 -0.1281
  155MOL0     H20913  10.912   7.692   2.839 -0.7772 -1.4470  0.6993
  155MOL0     H20914  10.989   7.474   2.758 -3.4388  3.8870  2.4274
  155MOL0     H20915  11.364   7.360   2.526  1.4013  2.3722  0.3916
  155MOL0     H20916  11.409   7.405   2.693 -0.4149  1.5301  0.4481
  155MOL0     H20917  11.272   7.150   2.617 -1.5693 -0.1191  2.4704
  155MOL0     H20918  11.319   7.191   2.774  0.3625 -1.5523 -0.8925
  155MOL0     H20919  11.513   7.057   2.690  0.1721 -0.2325  1.6354
  155MOL0     H20920  11.559   7.223   2.711 -1.5326  0.4718  1.8509
  155MOL0     H20921  11.646   7.138   2.497 -0.3774 -0.1228  3.3503
  155MOL0     H20922  11.518   7.256   2.472 -3.1948  1.4392  4.8253
  155MOL0     H20923  11.308   6.918   2.337  0.5752 -0.9665  0.6765
  155MOL0     H20924  11.388   7.609   2.720 -0.2946 -2.7612  0.7832
  155MOL0     H20925  11.316   7.824   2.829 -3.9679  3.6873 -0.1779
  156MOL0     O20926   3.826  10.689   9.027  0.7508 -0.3790  0.8148
  156MOL0     C20927   3.846  10.772   8.938 -0.7690 -0.5995 -0.4192
  156MOL0     O20928   3.831  10.752   8.801  0.0414 -0.4166 -0.8705
  156MOL0     C20929   3.728  10.669   8.764 -0.0792 -1.0180  0.1491
  156MOL0     C20930   3.627  10.722   8.683  0.3740 -1.1620  0.2815
  156MOL0     C20931   3.523  10.632   8.645  1.0530  0.5546 -0.0453
  156MOL0     C20932   3.511  10.495   8.686  0.7363 -0.6735 -0.6150
  156MOL0     O20933   3.394  10.428   8.653  0.2023  0.1070  0.2245
  156MOL0     C20934   3.347  10.309   8.725 -0.4073 -0.3454  0.9792
  156MOL0     C20935   3.208  10.292   8.698  0.0868 -0.2195 -0.2526
  156MOL0     C20936   3.176  10.263   8.547 -0.2997  0.9581 -0.3641
  156MOL0     C20937   3.030  10.304   8.505 -0.1135  0.4656 -0.4728
  156MOL0     C20938   2.992  10.278   8.361 -0.0570 -0.6480 -0.5183
  156MOL0     C20939   3.020  10.135   8.318 -0.0290  0.5634 -0.6785
  156MOL0     C20940   2.971  10.093   8.178  0.6178 -0.1337  0.4949
  156MOL0     C20941   2.812  10.094   8.168 -0.7425  0.0328 -0.9352
  156MOL0     N20942   2.746  10.001   8.258  0.0008  0.3835 -0.3745
  156MOL0     C20943   2.695   9.888   8.209  0.7494 -0.0177 -0.1414
  156MOL0     C20944   2.651   9.822   8.313 -0.1044  0.0856 -0.4952
  156MOL0     C20945   2.600   9.675   8.303  0.1991 -0.3778 -0.0580
  156MOL0     C20946   2.717   9.584   8.270  0.2239 -0.0712  0.1526
  156MOL0     C20947   2.777   9.589   8.124  0.1538  0.6676  0.3493
  156MOL0     C20948   2.877   9.479   8.099  0.3975 -0.1439 -0.4400
  156MOL0     O20949   3.001   9.519   8.155 -0.5189 -0.3629  0.5748
  156MOL0     C20950   3.106   9.472   8.083  0.3668 -0.9854 -0.1700
  156MOL0     C20951   3.202   9.562   8.053 -0.2392  1.2307 -0.3131
  156MOL0     C20952   3.322   9.532   7.988  0.3026  0.1684 -0.8260
  156MOL0     C20953   3.420   9.646   7.969 -0.0024  0.1677 -1.0169
  156MOL0     C20954   3.339   9.399   7.946  0.4059 -0.1931  0.3019
  156MOL0     C20955   3.462   9.345   7.893 -0.2998  0.3238 -0.2234
  156MOL0     O20956   3.453   9.228   7.822 -0.0336 -0.1568  0.2038
  156MOL0     C20957   3.562   9.170   7.762  0.6740 -0.0582 -0.1999
  156MOL0     C20958   3.576   9.176   7.618  0.4738  0.3999  0.5876
  156MOL0     C20959   3.701   9.130   7.572  0.3009  0.8467  0.8847
  156MOL0     C20960   3.805   9.080   7.646 -0.1716 -1.2902  0.0771
  156MOL0     O20961   3.926   9.039   7.607  0.2764 -0.0606 -0.2744
  156MOL0     C20962   3.966   9.078   7.472  0.2269  0.2251 -0.0980
  156MOL0     C20963   4.118   9.064   7.431  0.2327 -0.4580 -0.3581
  156MOL0     C20964   4.135   9.050   7.292 -0.4131 -0.2647 -0.6271
  156MOL0     C20965   4.283   9.030   7.256 -1.1409 -0.9494  0.4579
  156MOL0     C20966   4.299   8.875   7.234 -0.0999 -0.1251 -0.3036
  156MOL0     C20967   4.448   8.846   7.230  0.0733 -0.4461 -0.2499
  156MOL0     C20968   4.467   8.698   7.246  0.3052 -0.5966 -0.0763
  156MOL0     C20969   4.618   8.666   7.262  0.7088  0.0595 -0.8496
  156MOL0    Cl20970   4.659   8.483   7.279 -0.8325 -0.0619  0.1284
  156MOL0     C20971   3.782   9.083   7.780  0.8251 -0.7392 -0.0220
  156MOL0     C20972   3.663   9.122   7.843  1.0285 -0.3297 -0.4284
  156MOL0     O20973   3.569   9.414   7.916  0.1895  0.1784 -0.0594
  156MOL0     C20974   3.241   9.305   7.982  0.4170  0.2944  0.9282
  156MOL0     C20975   3.126   9.348   8.046  0.0343  0.7062  0.2980
  156MOL0     N20976   2.677   9.895   8.427 -0.7787  0.0306 -0.1524
  156MOL0     N20977   2.730  10.007   8.396  0.3096 -1.3655 -0.0667
  156MOL0     C20978   3.611  10.448   8.775 -0.3332  0.1421  0.0797
  156MOL0     C20979   3.720  10.533   8.806  0.2973  0.3649  0.0055
  156MOL0     C20980   3.912  10.897   8.977  0.4508 -0.0316 -1.1450
  156MOL0     C20981   3.920  11.000   8.889  0.4842 -0.4132  0.7563
  156MOL0     C20982   3.972  11.126   8.917 -0.0941 -0.1849 -0.6486
  156MOL0     C20983   4.019  11.161   9.049  0.3153 -0.5479  0.5502
  156MOL0     O20984   4.073  11.286   9.067  0.0542  0.4331  0.0064
  156MOL0     C20985   4.026  11.359   9.189 -0.1940  1.1186 -0.1143
  156MOL0     C20986   4.001  11.502   9.144  0.6766 -1.2275 -0.5329
  156MOL0     C20987   3.952  11.584   9.264 -0.5235  0.5185 -0.3159
  156MOL0     C20988   3.944  11.736   9.235  0.3674  0.9991 -0.2069
  156MOL0     C20989   3.829  11.797   9.292  0.1650 -0.2573  0.6051
  156MOL0     C20990   3.736  11.848   9.354 -0.7983  0.5895  0.5875
  156MOL0     C20991   4.009  11.064   9.141 -0.5629 -0.0716  0.4006
  156MOL0     C20992   3.954  10.937   9.110  0.6883 -0.1887 -0.5032
  156MOL0     H20993   3.627  10.827   8.657 -3.2367 -0.3992  2.5583
  156MOL0     H20994   3.445  10.675   8.583  0.6375  0.3695  0.3418
  156MOL0     H20995   3.405  10.230   8.678  0.9380  0.2369  1.6002
  156MOL0     H20996   3.353  10.319   8.834  0.6112  2.9736  0.7327
  156MOL0     H20997   3.183  10.202   8.754  1.7166 -0.9768 -0.6754
  156MOL0     H20998   3.147  10.376   8.731 -0.0569  0.3910 -1.9619
  156MOL0     H20999   3.246  10.315   8.482  2.6805 -3.2769 -0.9521
  156MOL0     H21000   3.175  10.154   8.544 -1.1784  0.8573  1.7880
  156MOL0     H21001   2.968  10.245   8.572  0.6854  1.4942  1.2484
  156MOL0     H21002   3.013  10.406   8.539 -3.1121  0.6572 -2.2406
  156MOL0     H21003   2.885  10.295   8.350 -0.6539 -4.5351 -2.3548
  156MOL0     H21004   3.053  10.347   8.302 -0.8707 -1.5919 -2.5558
  156MOL0     H21005   3.124  10.102   8.332 -1.0815 -2.3505  1.1668
  156MOL0     H21006   2.978  10.065   8.391  1.4665 -0.2693 -0.5609
  156MOL0     H21007   3.011  10.161   8.101  2.0899  0.4906  1.7655
  156MOL0     H21008   2.999   9.990   8.154  2.2131 -0.0692  1.9149
  156MOL0     H21009   2.796  10.076   8.061 -1.3601 -0.8471 -0.7099
  156MOL0     H21010   2.767  10.192   8.181  0.0022 -0.0717  4.3875
  156MOL0     H21011   2.700   9.861   8.104  0.3425  2.4753 -0.8691
  156MOL0     H21012   2.554   9.651   8.399 -2.8946  0.4555 -1.2019
  156MOL0     H21013   2.515   9.655   8.236  0.8016 -0.4677 -0.8118
  156MOL0     H21014   2.665   9.487   8.273 -0.5550  0.2606 -1.6451
  156MOL0     H21015   2.791   9.599   8.350  3.6660 -2.7442 -2.1983
  156MOL0     H21016   2.822   9.685   8.095  2.8165 -0.9894 -1.3854
  156MOL0     H21017   2.702   9.571   8.046  1.0295  0.3320 -0.4418
  156MOL0     H21018   2.872   9.449   7.993 -1.9040  1.5881 -0.8946
  156MOL0     H21019   2.844   9.388   8.149  2.0937 -0.4955  0.0976
  156MOL0     H21020   3.179   9.659   8.094 -0.5542  0.6436  0.9457
  156MOL0     H21021   3.463   9.632   7.870 -2.7609  1.2982 -2.5185
  156MOL0     H21022   3.367   9.742   7.977 -0.2436  0.1228 -1.8997
  156MOL0     H21023   3.495   9.651   8.048  0.0135  2.0035 -1.0933
  156MOL0     H21024   3.508   9.225   7.549  2.7522 -0.8576 -2.8036
  156MOL0     H21025   3.702   9.127   7.464 -2.6789  0.2935  0.7712
  156MOL0     H21026   3.906   9.009   7.413 -2.1706 -0.1979  2.6257
  156MOL0     H21027   3.929   9.174   7.435  1.6057  0.5352 -0.7348
  156MOL0     H21028   4.178   9.148   7.467 -0.9692  0.0810  0.4619
  156MOL0     H21029   4.147   8.965   7.470 -4.5158 -1.6309  0.9044
  156MOL0     H21030   4.096   9.148   7.264 -1.0766 -0.4843 -0.4802
  156MOL0     H21031   4.070   8.975   7.246 -1.5544 -1.4881  2.7013
  156MOL0     H21032   4.301   9.090   7.166 -2.0923  0.3589  1.1039
  156MOL0     H21033   4.349   9.062   7.338  2.2001  0.8845 -2.6238
  156MOL0     H21034   4.256   8.852   7.136 -1.0973  1.5491 -0.2865
  156MOL0     H21035   4.248   8.817   7.312 -3.7520  0.5756 -2.0049
  156MOL0     H21036   4.493   8.869   7.133 -2.4140  1.6643 -1.0202
  156MOL0     H21037   4.497   8.901   7.312  0.5417  0.5003 -1.1425
  156MOL0     H21038   4.431   8.663   7.148  0.0236  4.6071 -2.1430
  156MOL0     H21039   4.405   8.662   7.329  1.3741 -1.9205  0.1868
  156MOL0     H21040   4.652   8.720   7.350 -0.6728  1.3332 -1.0680
  156MOL0     H21041   4.669   8.715   7.179 -0.0792  0.8534 -0.8768
  156MOL0     H21042   3.861   9.051   7.847  1.2786  0.1565 -0.1159
  156MOL0     H21043   3.642   9.116   7.949  2.4381  3.9183  0.2817
  156MOL0     H21044   3.254   9.199   7.965  2.0316  0.0524  3.2062
  156MOL0     H21045   3.046   9.278   8.067  0.6630 -1.7436 -4.3267
  156MOL0     H21046   3.609  10.344   8.807  1.2204 -0.1117 -0.5312
  156MOL0     H21047   3.807  10.485   8.850 -1.1594 -1.5731  0.9632
  156MOL0     H21048   3.889  10.988   8.786  0.8016  1.5246  0.3916
  156MOL0     H21049   3.989  11.199   8.838 -0.7528  1.2355  0.4754
  156MOL0     H21050   3.938  11.325   9.245  1.8680  1.0888  3.3519
  156MOL0     H21051   4.109  11.369   9.259 -1.3463  3.2713  1.0245
  156MOL0     H21052   3.925  11.503   9.065 -0.2330  1.2246  0.2724
  156MOL0     H21053   4.095  11.547   9.112  0.6751  0.6350  1.8467
  156MOL0     H21054   4.034  11.565   9.334 -1.0155 -1.9296 -0.2938
  156MOL0     H21055   3.858  11.557   9.315  0.2578 -0.2667  0.7490
  156MOL0     H21056   3.934  11.738   9.127 -1.7668 -0.7390 -0.1108
  156MOL0     H21057   4.041  11.776   9.265  0.0237  1.4217  0.3671
  156MOL0     H21058   3.654  11.897   9.403 -1.2281  0.5466 -0.0804
  156MOL0     H21059   4.053  11.092   9.236  1.9593 -0.9770 -0.4144
  156MOL0     H21060   3.955  10.858   9.185 -1.1271  0.3666  0.1717
  157MOL0     O21061  11.435   6.750   7.367 -0.0283  0.4983 -0.1287
  157MOL0     C21062  11.343   6.772   7.297 -0.4257 -0.0901 -0.6848
  157MOL0     O21063  11.272   6.670   7.245  0.7398 -0.3942  0.6329
  157MOL0     C21064  11.336   6.555   7.225 -0.6300 -0.7931  0.3022
  157MOL0     C21065  11.437   6.528   7.125 -0.1910 -0.0321  0.0342
  157MOL0     C21066  11.487   6.392   7.108 -0.5103  0.4454  0.6653
  157MOL0     C21067  11.439   6.278   7.187  0.1696 -1.6783  0.1070
  157MOL0     O21068  11.484   6.147   7.190 -0.0852  0.2055 -0.0591
  157MOL0     C21069  11.614   6.128   7.131 -0.0452 -0.1066 -0.0752
  157MOL0     C21070  11.652   5.981   7.142  0.2360  0.1379  0.1316
  157MOL0     C21071  11.710   5.929   7.274  0.7373 -1.4360  1.3188
  157MOL0     C21072  11.747   5.779   7.257  0.0748  0.0019 -0.2381
  157MOL0     C21073  11.777   5.689   7.382 -0.3996  0.0606 -0.5979
  157MOL0     C21074  11.781   5.542   7.335  0.1760 -0.0077 -0.6788
  157MOL0     C21075  11.661   5.462   7.295  1.5590  0.8443 -0.1594
  157MOL0     C21076  11.608   5.387   7.420  1.0693  0.3888  0.4545
  157MOL0     N21077  11.698   5.294   7.481  0.2995 -0.0363 -0.4483
  157MOL0     C21078  11.752   5.173   7.421 -0.1129 -0.0294  0.0861
  157MOL0     C21079  11.819   5.113   7.519  0.6521 -0.7460  0.3783
  157MOL0     C21080  11.904   4.989   7.501  0.5556 -0.0287  0.6168
  157MOL0     C21081  11.955   4.950   7.632  0.1391  0.0534  0.0541
  157MOL0     C21082  12.049   4.827   7.619 -0.0060  0.2386 -0.6560
  157MOL0     C21083  12.112   4.800   7.752  0.0648  0.3077  0.7427
  157MOL0     O21084  12.010   4.758   7.844  0.7337 -0.0495  0.5043
  157MOL0     C21085  11.971   4.623   7.851 -0.8876  0.0898 -0.2156
  157MOL0     C21086  11.837   4.587   7.849 -0.0355  0.2071  0.3479
  157MOL0     C21087  11.790   4.456   7.825 -0.2699  0.8044 -0.0350
  157MOL0     C21088  11.642   4.411   7.841 -0.9922 -0.5254 -0.2162
  157MOL0     C21089  11.882   4.351   7.807 -0.3326 -0.3902  0.5321
  157MOL0     C21090  11.862   4.212   7.790 -0.0989 -0.1505 -0.4006
  157MOL0     O21091  11.964   4.131   7.748  0.0939  0.3496  0.5034
  157MOL0     C21092  11.974   4.004   7.796 -0.6412 -0.7277 -0.6880
  157MOL0     C21093  11.873   3.912   7.766 -0.7070 -0.5048  0.5174
  157MOL0     C21094  11.876   3.779   7.803 -0.2798  0.6117  0.0191
  157MOL0     C21095  11.987   3.727   7.881 -0.8408 -1.0775  0.0315
  157MOL0     O21096  12.001   3.600   7.933  0.2318 -0.1510 -0.5558
  157MOL0     C21097  11.909   3.503   7.885  0.2235  0.0604 -0.7147
  157MOL0     C21098  11.927   3.361   7.942  0.1387 -0.6174 -1.0305
  157MOL0     C21099  11.826   3.255   7.900 -0.2605  0.3853 -0.4258
  157MOL0     C21100  11.853   3.114   7.951 -1.0245  0.0183  0.6969
  157MOL0     C21101  11.982   3.039   7.899  0.7209  0.0036  0.6213
  157MOL0     C21102  11.993   2.905   7.954  0.6129  0.1937 -0.4098
  157MOL0     C21103  12.122   2.831   7.915  0.1137  0.1714 -1.1924
  157MOL0     C21104  12.121   2.705   8.000 -0.1633 -0.6546 -0.3097
  157MOL0    Cl21105  12.170   2.750   8.173 -0.0118  0.0362  0.4763
  157MOL0     C21106  12.093   3.821   7.909 -0.5284 -0.1776 -0.4016
  157MOL0     C21107  12.086   3.951   7.870  0.3241  0.4612  0.6163
  157MOL0     O21108  11.749   4.172   7.804  0.4184  0.5282 -0.0818
  157MOL0     C21109  12.022   4.389   7.802  1.2172 -0.4821 -0.5366
  157MOL0     C21110  12.071   4.524   7.834  0.2282  0.2691  0.5989
  157MOL0     N21111  11.825   5.201   7.625  0.3766 -0.1685  0.7316
  157MOL0     N21112  11.749   5.306   7.606 -0.2778  0.0424  0.2076
  157MOL0     C21113  11.346   6.321   7.284  0.5030 -0.4841 -0.5062
  157MOL0     C21114  11.302   6.452   7.309  0.0758  0.6107  0.2984
  157MOL0     C21115  11.302   6.913   7.272 -0.2267  0.0999  0.0198
  157MOL0     C21116  11.322   7.015   7.371 -0.6211  0.0531 -0.4192
  157MOL0     C21117  11.262   7.142   7.346  0.3976  0.3544 -0.1401
  157MOL0     C21118  11.210   7.175   7.219 -0.6884 -0.2060 -0.6281
  157MOL0     O21119  11.172   7.297   7.189  0.5418 -0.3233  0.3087
  157MOL0     C21120  11.188   7.412   7.282 -0.6665 -0.2291  0.0575
  157MOL0     C21121  11.340   7.436   7.294 -0.1334 -0.5953  1.0403
  157MOL0     C21122  11.380   7.575   7.354 -0.4778  0.0917  0.3020
  157MOL0     C21123  11.330   7.693   7.275  0.8970  0.2998 -0.1074
  157MOL0     C21124  11.206   7.751   7.336 -0.2021  0.3193  0.4026
  157MOL0     C21125  11.112   7.821   7.364  0.1307  0.2422  0.3018
  157MOL0     C21126  11.195   7.071   7.124  0.3500 -0.1561 -0.1715
  157MOL0     C21127  11.238   6.941   7.152 -0.0274  0.9719 -0.6204
  157MOL0     H21128  11.469   6.611   7.061  0.0125  0.0062  0.1870
  157MOL0     H21129  11.550   6.382   7.020 -1.2358  0.0633  0.1709
  157MOL0     H21130  11.604   6.144   7.023  2.9842 -2.3568 -0.8516
  157MOL0     H21131  11.688   6.190   7.182  1.0831 -1.5729  0.1573
  157MOL0     H21132  11.563   5.919   7.130  1.0055 -1.0001  0.1461
  157MOL0     H21133  11.732   5.954   7.072  0.9511  0.5663  0.7644
  157MOL0     H21134  11.804   5.981   7.296  0.3008  0.1397 -0.3339
  157MOL0     H21135  11.639   5.945   7.356 -1.8886  0.8842 -1.2011
  157MOL0     H21136  11.657   5.739   7.210 -0.3413 -3.0377  2.7733
  157MOL0     H21137  11.817   5.759   7.176  2.2103 -0.1263  1.5592
  157MOL0     H21138  11.871   5.710   7.434 -1.4873  0.2538  1.3540
  157MOL0     H21139  11.704   5.696   7.463  0.7729 -0.8654  0.5685
  157MOL0     H21140  11.852   5.535   7.252  0.9364 -0.7184  0.0149
  157MOL0     H21141  11.834   5.483   7.411 -1.4366 -1.3168 -0.5269
  157MOL0     H21142  11.582   5.522   7.248 -1.1985 -3.3767 -1.4901
  157MOL0     H21143  11.696   5.389   7.220 -1.7794  0.6544 -1.6977
  157MOL0     H21144  11.530   5.321   7.380  1.9391  0.3140 -1.2409
  157MOL0     H21145  11.577   5.463   7.491 -3.2381  1.1927 -1.9615
  157MOL0     H21146  11.727   5.136   7.322  0.8794 -0.8114  0.1114
  157MOL0     H21147  11.861   4.914   7.434 -0.0137  0.6967  0.1550
  157MOL0     H21148  11.995   5.025   7.452  1.0710  0.8181  2.1339
  157MOL0     H21149  11.875   4.931   7.705  0.1618  1.0507  0.3475
  157MOL0     H21150  12.008   5.037   7.671 -1.0573  1.6301 -1.6968
  157MOL0     H21151  12.119   4.842   7.536  0.7011 -0.9259 -0.2961
  157MOL0     H21152  11.986   4.745   7.582 -0.1807  0.5257 -0.9967
  157MOL0     H21153  12.166   4.892   7.779 -2.3844  1.6827  1.3111
  157MOL0     H21154  12.186   4.720   7.740 -0.9423 -0.2624 -2.9365
  157MOL0     H21155  11.750   4.652   7.843 -2.1019 -2.0894  2.8176
  157MOL0     H21156  11.591   4.508   7.850  1.4087  1.3019 -3.9336
  157MOL0     H21157  11.600   4.366   7.751 -3.5821 -0.6427  0.9677
  157MOL0     H21158  11.622   4.355   7.932 -1.6983 -0.0146 -0.0472
  157MOL0     H21159  11.794   3.953   7.704 -0.5922  0.8793  1.2606
  157MOL0     H21160  11.787   3.724   7.776 -1.3850  1.0511  2.4389
  157MOL0     H21161  11.807   3.539   7.902  0.6102  1.0709 -0.4704
  157MOL0     H21162  11.936   3.493   7.780  3.0977  0.1898 -0.0729
  157MOL0     H21163  12.028   3.323   7.925  0.1792 -0.5905 -0.8527
  157MOL0     H21164  11.908   3.365   8.050 -2.2469 -1.1080 -1.3608
  157MOL0     H21165  11.819   3.266   7.791 -3.3681 -0.0966 -0.3647
  157MOL0     H21166  11.732   3.295   7.938  1.4309  5.3122 -0.6634
  157MOL0     H21167  11.863   3.110   8.059  1.5662 -1.3016  0.4831
  157MOL0     H21168  11.762   3.063   7.917 -0.3528 -1.3510  0.9126
  157MOL0     H21169  12.066   3.097   7.936  1.9282 -1.0339 -0.4282
  157MOL0     H21170  11.973   3.032   7.790  1.3043 -1.4625  0.6431
  157MOL0     H21171  11.993   2.919   8.062 -4.0755 -0.7675 -0.0628
  157MOL0     H21172  11.901   2.849   7.931 -1.0545  2.9335 -0.7903
  157MOL0     H21173  12.208   2.897   7.929 -1.2563  1.7723  0.0851
  157MOL0     H21174  12.123   2.821   7.806 -2.6020  1.1844 -1.4026
  157MOL0     H21175  12.196   2.634   7.964 -2.4656 -3.3486 -0.0983
  157MOL0     H21176  12.024   2.655   7.999 -1.2926  1.2052 -4.0237
  157MOL0     H21177  12.177   3.780   7.965 -0.5697 -0.8790 -0.8408
  157MOL0     H21178  12.177   4.007   7.889  1.0264 -1.4043  3.3273
  157MOL0     H21179  12.086   4.311   7.762 -3.3336 -4.0851 -1.7811
  157MOL0     H21180  12.178   4.540   7.833  0.8077 -2.8454  0.2447
  157MOL0     H21181  11.304   6.241   7.344 -0.0745 -0.7310 -1.2379
  157MOL0     H21182  11.222   6.462   7.381 -0.8351  2.5169 -0.9099
  157MOL0     H21183  11.379   6.990   7.460  1.4514  0.5804 -1.5396
  157MOL0     H21184  11.257   7.201   7.437 -1.4102 -3.2029  2.2932
  157MOL0     H21185  11.144   7.502   7.238 -0.6378 -1.0781 -1.8197
  157MOL0     H21186  11.149   7.395   7.383 -1.4774  0.3710 -0.1476
  157MOL0     H21187  11.387   7.427   7.196  2.1228 -2.3056  2.1986
  157MOL0     H21188  11.386   7.370   7.368  0.6732  1.6146  2.6435
  157MOL0     H21189  11.489   7.573   7.349 -0.5087 -3.1556 -2.4012
  157MOL0     H21190  11.355   7.564   7.460  1.3030 -6.4942  0.4386
  157MOL0     H21191  11.317   7.655   7.174 -2.1555  0.0443  0.2667
  157MOL0     H21192  11.402   7.775   7.282  1.8972 -0.6810  2.1356
  157MOL0     H21193  11.036   7.892   7.387 -0.3536 -0.5541  1.2342
  157MOL0     H21194  11.148   7.085   7.027  1.5960  2.1222 -0.4985
  157MOL0     H21195  11.225   6.861   7.080  1.1867 -1.8424  2.0212
  158MOL0     O21196   3.858  10.118   8.290 -0.1238 -0.1500  0.3653
  158MOL0     C21197   3.777  10.051   8.226  0.4552 -0.3215  0.2003
  158MOL0     O21198   3.782  10.031   8.083 -0.5070  0.0090 -0.6234
  158MOL0     C21199   3.882  10.116   8.024 -0.2109  0.1375 -0.4313
  158MOL0     C21200   4.011  10.060   8.000 -0.4143 -1.1282  0.1269
  158MOL0     C21201   4.116  10.142   7.943 -0.1623  0.4010 -0.3054
  158MOL0     C21202   4.081  10.268   7.893  0.7069  0.4900  0.5710
  158MOL0     O21203   4.178  10.348   7.829 -0.0462  0.8590  0.4505
  158MOL0     C21204   4.151  10.411   7.707  0.1588  0.3747  0.5664
  158MOL0     C21205   4.109  10.307   7.605  0.0214  0.5650  0.6860
  158MOL0     C21206   4.096  10.358   7.461 -0.8797  0.9279 -0.4032
  158MOL0     C21207   4.196  10.303   7.365  0.3557  0.2326  0.8794
  158MOL0     C21208   4.202  10.400   7.247 -0.0033 -0.0413 -0.4203
  158MOL0     C21209   4.287  10.360   7.134 -0.2934  0.6381  0.5609
  158MOL0     C21210   4.296  10.219   7.091 -0.4893 -0.1285 -0.0650
  158MOL0     C21211   4.391  10.203   6.969  0.3403  0.7536 -0.0785
  158MOL0     N21212   4.358  10.072   6.929 -0.2434 -0.0207 -0.1133
  158MOL0     C21213   4.276  10.046   6.825  1.2334 -0.0555 -0.4242
  158MOL0     C21214   4.238   9.915   6.835 -0.1348 -0.0269  0.0401
  158MOL0     C21215   4.130   9.857   6.752  0.0621 -0.3101 -0.2083
  158MOL0     C21216   4.160   9.709   6.705  0.3915 -0.2547  0.2620
  158MOL0     C21217   4.234   9.701   6.576  0.8994 -0.7053 -0.5124
  158MOL0     C21218   4.277   9.547   6.562  0.1264 -0.0801 -0.3095
  158MOL0     O21219   4.158   9.469   6.533  0.2589  0.4135 -1.4130
  158MOL0     C21220   4.136   9.339   6.576 -0.0678 -0.2236 -0.8023
  158MOL0     C21221   4.179   9.293   6.701  0.8769  0.7827 -0.3931
  158MOL0     C21222   4.150   9.154   6.731 -0.3511 -0.5130 -1.1643
  158MOL0     C21223   4.215   9.114   6.860  0.3466 -0.2313  0.2190
  158MOL0     C21224   4.063   9.076   6.659  1.0138 -0.6745  0.7935
  158MOL0     C21225   4.009   8.945   6.693 -0.4588 -0.2356 -0.1896
  158MOL0     O21226   4.077   8.876   6.788  0.7262 -0.3766  0.3205
  158MOL0     C21227   4.044   8.745   6.807  0.3128 -0.3028 -0.1415
  158MOL0     C21228   4.096   8.647   6.721  0.4056 -0.2458  0.6661
  158MOL0     C21229   4.065   8.517   6.749 -0.5042 -0.4050 -0.0237
  158MOL0     C21230   3.995   8.478   6.862  0.3697 -0.4182  0.1769
  158MOL0     O21231   3.939   8.350   6.870 -0.2290 -0.3729  0.0352
  158MOL0     C21232   3.835   8.317   6.967 -0.8117  0.3849 -0.6579
  158MOL0     C21233   3.795   8.166   6.957  0.0692 -0.1477  0.2341
  158MOL0     C21234   3.917   8.066   6.986  0.7020 -0.9075  0.7619
  158MOL0     C21235   3.857   7.921   6.959 -0.5614 -0.8839  0.6287
  158MOL0     C21236   3.952   7.804   6.982  0.1945  0.2275 -0.8221
  158MOL0     C21237   3.913   7.674   6.915 -0.6254 -0.0496 -1.4583
  158MOL0     C21238   3.774   7.632   6.964  0.2964  0.6122 -0.0354
  158MOL0     C21239   3.726   7.499   6.915 -0.8921 -0.4116 -0.3661
  158MOL0    Cl21240   3.730   7.513   6.736 -0.0232  0.2635 -0.0204
  158MOL0     C21241   3.951   8.576   6.947  0.2869  0.8614 -0.0900
  158MOL0     C21242   3.974   8.708   6.924  0.0245 -0.1604 -0.1766
  158MOL0     O21243   3.907   8.906   6.639 -0.1795 -0.2763 -0.1223
  158MOL0     C21244   4.026   9.124   6.526 -0.3392  0.1829 -0.3369
  158MOL0     C21245   4.065   9.256   6.487  0.4754  0.1417  0.6310
  158MOL0     N21246   4.317   9.851   6.938  0.9426  0.2034  0.3212
  158MOL0     N21247   4.388   9.954   6.988  1.6860  0.3925  0.3324
  158MOL0     C21248   3.954  10.319   7.915 -0.1478 -0.1260 -0.1363
  158MOL0     C21249   3.851  10.246   7.980 -0.5943 -0.7041  0.1893
  158MOL0     C21250   3.664   9.983   8.303 -0.6894 -0.1634 -0.2001
  158MOL0     C21251   3.575   9.913   8.224  0.4818 -0.7404  0.0936
  158MOL0     C21252   3.471   9.846   8.286 -0.2259 -0.3255  0.6443
  158MOL0     C21253   3.458   9.839   8.423 -0.3203 -1.1029 -1.2378
  158MOL0     O21254   3.357   9.780   8.496  0.0490 -0.2859  0.3509
  158MOL0     C21255   3.234   9.741   8.430  0.1787 -0.4631 -1.1206
  158MOL0     C21256   3.123   9.701   8.525  0.4813 -0.1853 -0.6778
  158MOL0     C21257   3.072   9.814   8.615  0.2895 -0.4866 -1.0651
  158MOL0     C21258   3.153   9.832   8.743 -0.6359  1.4296  0.6153
  158MOL0     C21259   3.082   9.911   8.847  0.0095  0.1519  0.6026
  158MOL0     C21260   3.037   9.971   8.937  0.2494 -0.5094  0.0030
  158MOL0     C21261   3.552   9.907   8.507  0.0076  0.9129  1.0542
  158MOL0     C21262   3.653   9.975   8.444  1.1735 -0.8048 -0.5030
  158MOL0     H21263   4.023   9.965   8.051 -0.8037 -0.7342  0.9752
  158MOL0     H21264   4.213  10.093   7.944 -0.4778 -0.2296  0.0264
  158MOL0     H21265   4.074  10.488   7.723 -1.5522 -0.7344 -1.7390
  158MOL0     H21266   4.235  10.468   7.668 -0.7135  1.1957 -0.1780
  158MOL0     H21267   4.179  10.223   7.597  2.3511  2.3003  1.6909
  158MOL0     H21268   4.017  10.254   7.634  1.8005 -4.2450 -1.4081
  158MOL0     H21269   3.995  10.337   7.427 -0.5711 -1.4215  0.0133
  158MOL0     H21270   4.111  10.466   7.471  0.0597  0.7996 -0.2808
  158MOL0     H21271   4.292  10.289   7.415 -0.7830  0.8768  3.3915
  158MOL0     H21272   4.152  10.211   7.325 -0.9665  0.5475  1.5450
  158MOL0     H21273   4.098  10.411   7.214 -0.1694  0.3221  0.2185
  158MOL0     H21274   4.242  10.493   7.288  0.7376 -0.9983  1.1094
  158MOL0     H21275   4.267  10.421   7.046  0.3389 -0.9220 -0.7274
  158MOL0     H21276   4.387  10.387   7.169  0.6553  1.1642 -2.2801
  158MOL0     H21277   4.340  10.163   7.174 -3.2096 -0.1537  1.4801
  158MOL0     H21278   4.190  10.198   7.081 -0.6146  0.1318  0.6393
  158MOL0     H21279   4.495  10.218   6.998 -0.3210  2.8589  1.4163
  158MOL0     H21280   4.376  10.272   6.886  1.7319  1.6235  0.3601
  158MOL0     H21281   4.236  10.118   6.755 -0.1138 -2.1677 -1.9494
  158MOL0     H21282   4.039   9.868   6.811  1.1617 -0.6929  1.6239
  158MOL0     H21283   4.124   9.928   6.669  2.5197  0.6020  0.2864
  158MOL0     H21284   4.067   9.657   6.684 -0.6658  2.2176 -1.7880
  158MOL0     H21285   4.208   9.664   6.792 -2.9859  1.0370  3.0182
  158MOL0     H21286   4.328   9.757   6.586  0.7648 -0.8334  2.2140
  158MOL0     H21287   4.191   9.752   6.489  2.0261  1.0938 -0.0775
  158MOL0     H21288   4.325   9.511   6.653  4.1553  0.8332 -1.8201
  158MOL0     H21289   4.364   9.521   6.500  0.8295  1.1368  0.1202
  158MOL0     H21290   4.241   9.347   6.772  2.9333 -1.3379 -0.4280
  158MOL0     H21291   4.281   9.190   6.904  1.7302 -1.4773  0.3706
  158MOL0     H21292   4.154   9.075   6.942 -0.4150  0.7017  0.1167
  158MOL0     H21293   4.283   9.031   6.840 -2.5738 -3.0083  0.9733
  158MOL0     H21294   4.161   8.666   6.636 -1.2332  0.2056 -0.5418
  158MOL0     H21295   4.092   8.440   6.677 -0.9836 -0.9721  0.3947
  158MOL0     H21296   3.860   8.335   7.072  2.2310 -1.7066 -0.8927
  158MOL0     H21297   3.751   8.380   6.935  0.7022  1.7515 -2.1672
  158MOL0     H21298   3.716   8.135   7.027  3.1112 -0.8668  3.6768
  158MOL0     H21299   3.763   8.143   6.855 -2.4510 -4.7425  1.7684
  158MOL0     H21300   3.945   8.078   7.091 -2.2430  1.3311  1.4210
  158MOL0     H21301   4.005   8.086   6.924  1.8457 -0.3577  2.4764
  158MOL0     H21302   3.769   7.909   7.022 -0.9734  1.9357  0.7111
  158MOL0     H21303   3.828   7.914   6.854  2.6126 -0.9617 -0.3581
  158MOL0     H21304   3.955   7.788   7.090  0.5169 -1.2820 -1.0236
  158MOL0     H21305   4.051   7.827   6.942  1.6601 -1.2488  1.7043
  158MOL0     H21306   3.896   7.702   6.811 -2.2340  2.0871 -0.6834
  158MOL0     H21307   3.982   7.589   6.927  0.1142  0.4739 -1.9739
  158MOL0     H21308   3.699   7.710   6.946 -0.2842  0.4379  1.4654
  158MOL0     H21309   3.777   7.619   7.072  0.2792  1.4225  0.0677
  158MOL0     H21310   3.625   7.484   6.954  0.8127 -3.3853  3.6271
  158MOL0     H21311   3.798   7.430   6.961  0.0754  1.6345  1.4016
  158MOL0     H21312   3.893   8.547   7.034 -0.5542 -1.6623 -1.4041
  158MOL0     H21313   3.945   8.789   6.991 -1.6875  2.6937 -3.9919
  158MOL0     H21314   3.970   9.056   6.462 -0.3454 -0.7670  0.6417
  158MOL0     H21315   4.035   9.284   6.386  1.3764  2.0955  0.8598
  158MOL0     H21316   3.933  10.425   7.899  0.7219  0.2495  1.0367
  158MOL0     H21317   3.748  10.275   7.998 -1.3721  0.5540 -4.6859
  158MOL0     H21318   3.584   9.907   8.116  0.0656 -3.7735  0.1160
  158MOL0     H21319   3.395   9.811   8.217 -2.0535  2.7060  0.9637
  158MOL0     H21320   3.198   9.821   8.364  2.6316  0.5483 -1.3294
  158MOL0     H21321   3.249   9.660   8.357 -1.7589  1.0579 -3.3849
  158MOL0     H21322   3.164   9.623   8.590 -3.4545 -1.8970  0.0155
  158MOL0     H21323   3.040   9.675   8.459  1.8493  1.0600 -3.0145
  158MOL0     H21324   2.973   9.776   8.643  0.6302 -1.9941 -1.7804
  158MOL0     H21325   3.056   9.899   8.549  3.2677 -1.8570 -3.8416
  158MOL0     H21326   3.253   9.873   8.725  0.0465 -0.1256  0.7009
  158MOL0     H21327   3.170   9.730   8.778 -0.6216  0.2649 -2.5230
  158MOL0     H21328   3.006  10.017   9.029  0.6791 -0.5530  0.1716
  158MOL0     H21329   3.544   9.894   8.614 -1.7147 -2.6372  0.6686
  158MOL0     H21330   3.724  10.034   8.499  2.7711 -0.4332 -2.8034
  159MOL0     O21331   0.363   9.610   6.394 -0.0347 -0.4778  0.0913
  159MOL0     C21332   0.368   9.587   6.520 -0.0050  0.0150  0.9950
  159MOL0     O21333   0.380   9.458   6.563 -0.0298  0.3447 -0.2152
  159MOL0     C21334   0.426   9.362   6.481 -0.8294  0.6963 -0.4705
  159MOL0     C21335   0.386   9.227   6.510 -0.2449 -0.5991  0.5548
  159MOL0     C21336   0.438   9.119   6.437  0.6299 -0.6607  0.1838
  159MOL0     C21337   0.545   9.137   6.350  0.7584 -0.8915  0.3117
  159MOL0     O21338   0.609   9.030   6.292 -0.4669 -0.1653  0.4011
  159MOL0     C21339   0.659   8.924   6.376 -0.2334 -0.3414  0.8040
  159MOL0     C21340   0.657   8.799   6.289 -0.1429 -0.1740 -0.0447
  159MOL0     C21341   0.514   8.758   6.245  0.2346 -0.7799 -0.9604
  159MOL0     C21342   0.518   8.614   6.181  0.1444 -0.1377  0.0503
  159MOL0     C21343   0.381   8.560   6.141 -0.5135 -0.9498 -0.2933
  159MOL0     C21344   0.381   8.414   6.092  0.3116  0.4316  0.3934
  159MOL0     C21345   0.232   8.380   6.062  0.1067  0.0923 -0.3060
  159MOL0     C21346   0.213   8.226   6.045 -0.3489  0.3056 -0.3497
  159MOL0     N21347   0.261   8.181   5.907 -0.1719  0.2936  0.0192
  159MOL0     C21348   0.391   8.149   5.876  0.0767 -0.1355  1.3571
  159MOL0     C21349   0.396   8.148   5.736  0.2217  0.7712 -0.5964
  159MOL0     C21350   0.518   8.118   5.648  0.4040  0.0997  0.2908
  159MOL0     C21351   0.650   8.115   5.743  0.4708  0.1994  0.3738
  159MOL0     C21352   0.763   8.041   5.669  0.1071 -0.7390 -0.3652
  159MOL0     C21353   0.859   7.960   5.764  0.3611 -1.5958 -0.9243
  159MOL0     O21354   0.905   8.058   5.855 -0.1771  0.8271 -0.3435
  159MOL0     C21355   0.970   8.030   5.973  0.6709 -0.0601  0.4876
  159MOL0     C21356   0.960   8.113   6.088 -0.0526  0.3522  0.6484
  159MOL0     C21357   1.023   8.084   6.206 -0.1626 -0.2850  0.3329
  159MOL0     C21358   1.024   8.187   6.308  0.1213 -0.1341 -0.5460
  159MOL0     C21359   1.094   7.957   6.216 -0.3196 -0.2285 -0.5842
  159MOL0     C21360   1.149   7.908   6.345 -0.3735  0.1666 -0.8571
  159MOL0     O21361   1.038   7.880   6.419 -0.3842 -0.6155 -0.1254
  159MOL0     C21362   1.053   7.830   6.545  0.4062 -0.8696 -1.4145
  159MOL0     C21363   1.120   7.720   6.574 -0.7254  0.0596  0.3965
  159MOL0     C21364   1.122   7.667   6.707  0.7250  0.4236  0.7595
  159MOL0     C21365   1.042   7.725   6.805  0.5953 -1.1965  1.0285
  159MOL0     O21366   1.033   7.684   6.942  0.3907  0.1709  0.1381
  159MOL0     C21367   1.064   7.546   6.956 -1.0826 -0.0863  0.3385
  159MOL0     C21368   0.998   7.468   7.079 -0.0303 -0.5052 -0.0099
  159MOL0     C21369   0.845   7.507   7.093 -0.5066 -0.0037  0.3868
  159MOL0     C21370   0.807   7.563   7.230  0.0181  0.1336  0.0383
  159MOL0     C21371   0.655   7.559   7.265  0.3066  0.2406 -0.3904
  159MOL0     C21372   0.628   7.620   7.395 -0.0891 -0.4664 -0.1111
  159MOL0     C21373   0.473   7.628   7.429  0.2314  0.0943  0.0057
  159MOL0     C21374   0.383   7.720   7.347  0.6664  0.2443 -0.4823
  159MOL0    Cl21375   0.214   7.699   7.396 -0.4099 -0.3680  0.2758
  159MOL0     C21376   0.956   7.841   6.776 -0.7944  0.6498 -0.6015
  159MOL0     C21377   0.960   7.883   6.644 -0.1456 -0.0250  0.8692
  159MOL0     O21378   1.258   7.855   6.362 -0.9177 -0.6138  0.5131
  159MOL0     C21379   1.108   7.885   6.099  0.8768  0.8917 -0.0124
  159MOL0     C21380   1.055   7.926   5.976  0.2078 -0.0352  0.6066
  159MOL0     N21381   0.263   8.156   5.688 -0.1531  0.5238 -0.7232
  159MOL0     N21382   0.188   8.181   5.791  0.7938  0.4093  0.1424
  159MOL0     C21383   0.577   9.262   6.317 -0.4153 -0.7897 -0.0803
  159MOL0     C21384   0.533   9.373   6.387  0.3582 -0.5050  0.7528
  159MOL0     C21385   0.355   9.702   6.601 -0.3910  0.2676 -0.6568
  159MOL0     C21386   0.338   9.833   6.546 -0.4577  1.5630  0.5996
  159MOL0     C21387   0.320   9.945   6.630  0.7090  0.3005  0.3886
  159MOL0     C21388   0.319   9.933   6.765 -0.1262  0.7158 -0.0652
  159MOL0     O21389   0.291  10.041   6.850 -0.4486 -0.0620 -0.3077
  159MOL0     C21390   0.316  10.031   6.992  0.6449  0.5583  0.3833
  159MOL0     C21391   0.210   9.957   7.076  0.2404 -0.3318 -1.3555
  159MOL0     C21392   0.273   9.899   7.199  0.3910  0.4146 -0.8271
  159MOL0     C21393   0.323   9.757   7.190  1.1895 -0.4698  0.7253
  159MOL0     C21394   0.370   9.716   7.318  0.0342 -0.1612 -0.8283
  159MOL0     C21395   0.409   9.665   7.425  1.3149 -0.5248  0.0724
  159MOL0     C21396   0.338   9.798   6.817  0.1739  0.3784  0.0310
  159MOL0     C21397   0.345   9.688   6.733  0.1425 -0.8493 -0.0952
  159MOL0     H21398   0.316   9.204   6.588 -4.2736  1.1542 -2.2038
  159MOL0     H21399   0.411   9.017   6.462  1.9987 -1.2687 -0.6736
  159MOL0     H21400   0.757   8.949   6.419 -1.7864  2.2981  3.1850
  159MOL0     H21401   0.589   8.901   6.457 -2.4158  0.0989 -0.8647
  159MOL0     H21402   0.718   8.793   6.198 -2.6033 -1.0434 -1.7270
  159MOL0     H21403   0.701   8.719   6.350 -0.0995 -0.0734  0.0572
  159MOL0     H21404   0.442   8.749   6.326 -0.6392 -0.6065 -1.7000
  159MOL0     H21405   0.474   8.834   6.177  0.4176 -0.2425 -0.4758
  159MOL0     H21406   0.576   8.614   6.089  0.4066 -4.8816 -0.0464
  159MOL0     H21407   0.548   8.535   6.251 -1.8550 -1.5918 -0.6346
  159MOL0     H21408   0.310   8.557   6.224 -1.7475  0.6364 -1.2363
  159MOL0     H21409   0.339   8.617   6.058  3.1447  1.5310 -0.6631
  159MOL0     H21410   0.441   8.397   6.002 -2.5240 -1.3964 -1.3330
  159MOL0     H21411   0.422   8.356   6.175  2.4386  1.1052 -0.1247
  159MOL0     H21412   0.175   8.407   6.151  1.0896 -1.0686  0.7141
  159MOL0     H21413   0.179   8.430   5.981 -1.3791 -0.7351  0.1265
  159MOL0     H21414   0.106   8.203   6.053  0.0565 -1.8526 -0.5335
  159MOL0     H21415   0.257   8.175   6.131 -1.2168  1.4260  0.8099
  159MOL0     H21416   0.480   8.137   5.938  0.6662  0.1880  0.5864
  159MOL0     H21417   0.509   8.020   5.599 -1.2537 -0.2606  1.2111
  159MOL0     H21418   0.525   8.198   5.574 -2.2019 -1.4812 -1.8692
  159MOL0     H21419   0.649   8.056   5.835 -0.9566  0.4278  0.5323
  159MOL0     H21420   0.682   8.216   5.772 -2.4257  1.1971  0.4349
  159MOL0     H21421   0.820   8.108   5.603  1.0826  0.0413  1.1891
  159MOL0     H21422   0.711   7.961   5.616  2.7261 -3.6058  1.0640
  159MOL0     H21423   0.947   7.918   5.714  0.8329 -2.5806  0.6206
  159MOL0     H21424   0.805   7.879   5.815  1.5841 -2.9467 -1.6809
  159MOL0     H21425   0.895   8.199   6.072  0.9425  0.8306 -1.1785
  159MOL0     H21426   1.115   8.177   6.368 -1.1392 -1.9156  1.2021
  159MOL0     H21427   1.014   8.292   6.278 -1.9317  0.0147  0.4662
  159MOL0     H21428   0.953   8.163   6.388  0.5923  1.6064  0.4542
  159MOL0     H21429   1.182   7.670   6.500  1.0775  3.3410 -0.4911
  159MOL0     H21430   1.176   7.579   6.740  0.1231  0.1988  1.1639
  159MOL0     H21431   1.030   7.492   6.867 -0.1058 -0.5757  0.2501
  159MOL0     H21432   1.173   7.540   6.961 -0.8497  0.5206 -2.5151
  159MOL0     H21433   1.016   7.360   7.072  2.2576 -0.2454  0.9219
  159MOL0     H21434   1.056   7.510   7.162  2.9628  2.7186 -3.3702
  159MOL0     H21435   0.790   7.419   7.057 -0.6881  2.0211 -5.0366
  159MOL0     H21436   0.807   7.572   7.015 -0.1242 -2.1303 -1.6777
  159MOL0     H21437   0.872   7.521   7.307  0.2349 -1.8825 -1.1539
  159MOL0     H21438   0.841   7.667   7.233  0.5986 -0.0593  0.1780
  159MOL0     H21439   0.625   7.455   7.278 -0.7573  0.3769 -1.5667
  159MOL0     H21440   0.597   7.598   7.181  1.3426 -0.3933 -1.4523
  159MOL0     H21441   0.673   7.565   7.478 -0.4723  1.8204  1.7062
  159MOL0     H21442   0.666   7.723   7.400  0.8286 -0.8520  3.3128
  159MOL0     H21443   0.457   7.657   7.533 -3.3416 -0.6231 -0.2312
  159MOL0     H21444   0.436   7.526   7.417  3.1204 -1.0379 -0.0255
  159MOL0     H21445   0.382   7.699   7.239  0.0465 -2.0218 -0.0825
  159MOL0     H21446   0.403   7.825   7.370  3.8608 -0.9738  3.3156
  159MOL0     H21447   0.898   7.885   6.856 -0.7459 -0.0233 -0.1926
  159MOL0     H21448   0.888   7.961   6.621  0.4142  0.2251 -0.1019
  159MOL0     H21449   1.163   7.791   6.103  0.2544  0.4297 -1.7336
  159MOL0     H21450   1.068   7.874   5.882 -0.0821  1.1340 -0.1023
  159MOL0     H21451   0.647   9.274   6.235 -0.4341  0.9898  0.1282
  159MOL0     H21452   0.565   9.475   6.366  0.3298 -0.1916  2.1296
  159MOL0     H21453   0.345   9.847   6.439 -2.1129  1.6552  0.4793
  159MOL0     H21454   0.319  10.043   6.582 -0.4908  0.1080 -0.0284
  159MOL0     H21455   0.416   9.988   6.994  1.3444  2.1218  2.6051
  159MOL0     H21456   0.342  10.131   7.029 -0.4184  0.0959  2.5001
  159MOL0     H21457   0.147   9.880   7.031  0.8720 -2.8053  1.6559
  159MOL0     H21458   0.142  10.040   7.099  2.3002  0.7009  1.8074
  159MOL0     H21459   0.203   9.918   7.281 -1.6471  1.5735 -2.7372
  159MOL0     H21460   0.365   9.955   7.216 -0.8007  1.9369  0.9477
  159MOL0     H21461   0.390   9.731   7.108 -0.0750 -1.3805 -0.0674
  159MOL0     H21462   0.229   9.702   7.179  1.6836 -1.8280  2.7590
  159MOL0     H21463   0.456   9.615   7.507  3.4149  1.0557 -0.0907
  159MOL0     H21464   0.359   9.780   6.922 -2.2086  2.0777  0.8970
  159MOL0     H21465   0.369   9.589   6.770 -1.0917 -0.8941  0.6406
  160MOL0     O21466  10.896   1.525   8.794 -0.1652 -0.6691 -0.4212
  160MOL0     C21467  10.896   1.399   8.782  0.0233  1.1370  0.2290
  160MOL0     O21468  10.942   1.323   8.674  1.0709 -0.7073  1.0548
  160MOL0     C21469  10.977   1.384   8.555  0.3533  0.4735  0.7407
  160MOL0     C21470  11.038   1.306   8.463 -0.2014  0.4291 -0.4054
  160MOL0     C21471  11.070   1.360   8.337  0.8501  0.4791  0.5295
  160MOL0     C21472  11.038   1.494   8.297  0.0129  1.0229 -0.1066
  160MOL0     O21473  11.052   1.529   8.165 -1.0852  0.1927 -0.4698
  160MOL0     C21474  11.184   1.524   8.114 -0.5064 -0.7637 -0.2565
  160MOL0     C21475  11.218   1.669   8.086 -0.1437 -1.0952 -1.0937
  160MOL0     C21476  11.219   1.717   7.939 -0.1055  0.0876  0.4626
  160MOL0     C21477  11.226   1.873   7.911 -0.2228 -0.0762  0.4387
  160MOL0     C21478  11.207   1.900   7.765 -0.0467 -0.2407 -0.3566
  160MOL0     C21479  11.080   1.849   7.689 -0.4429  0.3216  0.3489
  160MOL0     C21480  11.100   1.861   7.537  0.3202  0.1256 -0.6525
  160MOL0     C21481  11.113   2.005   7.463 -0.4897  0.9786 -0.3715
  160MOL0     N21482  10.984   2.076   7.447 -0.4079  1.1420 -0.1227
  160MOL0     C21483  10.888   2.103   7.547 -0.4489  1.0697  0.2112
  160MOL0     C21484  10.779   2.149   7.485 -0.8527  0.4843 -0.0643
  160MOL0     C21485  10.646   2.205   7.541 -0.0052  0.6210 -1.0309
  160MOL0     C21486  10.552   2.247   7.429  1.3983 -0.5042  0.4162
  160MOL0     C21487  10.416   2.286   7.493  0.1479  0.6171 -0.7753
  160MOL0     C21488  10.328   2.359   7.394  1.4343  0.4969 -0.2264
  160MOL0     O21489  10.193   2.345   7.441 -0.5181  0.0066  0.1138
  160MOL0     C21490  10.094   2.434   7.438  0.3822 -0.1895  0.3368
  160MOL0     C21491   9.966   2.400   7.477  0.1279  0.5265 -0.2521
  160MOL0     C21492   9.867   2.491   7.495 -0.2730 -0.7622 -0.2674
  160MOL0     C21493   9.724   2.443   7.534 -0.4623  0.3147 -0.3880
  160MOL0     C21494   9.895   2.626   7.477 -0.1446  0.5476  0.7302
  160MOL0     C21495   9.801   2.731   7.512  0.9035 -0.9669 -1.0940
  160MOL0     O21496   9.736   2.713   7.635  1.2811  0.0995 -0.3387
  160MOL0     C21497   9.678   2.816   7.695  0.4409 -0.2330  0.6225
  160MOL0     C21498   9.541   2.845   7.685 -0.0108 -1.1671  0.4978
  160MOL0     C21499   9.497   2.967   7.749 -0.1090 -0.6766 -0.7811
  160MOL0     C21500   9.591   3.063   7.800 -0.9879  0.1693 -0.0552
  160MOL0     O21501   9.568   3.195   7.838  0.0073  0.8323 -0.0066
  160MOL0     C21502   9.440   3.240   7.864 -0.5996 -0.5243 -0.3792
  160MOL0     C21503   9.438   3.373   7.933 -0.2827 -0.2411  0.3433
  160MOL0     C21504   9.309   3.448   7.951 -0.7739 -0.1092  0.4402
  160MOL0     C21505   9.207   3.359   8.015 -0.6515 -0.6680 -1.0657
  160MOL0     C21506   9.090   3.439   8.085 -0.1629  0.1738 -0.0219
  160MOL0     C21507   8.984   3.338   8.131  0.4479  0.8276 -0.0097
  160MOL0     C21508   8.865   3.407   8.200 -0.0210 -0.6341  0.5245
  160MOL0     C21509   8.733   3.344   8.204  0.3474  1.0001 -1.0150
  160MOL0    Cl21510   8.649   3.360   8.052  0.8061  0.0878 -0.0569
  160MOL0     C21511   9.714   3.019   7.824  0.2313  0.4638  0.1252
  160MOL0     C21512   9.759   2.895   7.776 -0.1088 -0.2902  0.2839
  160MOL0     O21513   9.825   2.844   7.469  0.8689  0.2260  0.2130
  160MOL0     C21514  10.026   2.665   7.440 -0.2915 -0.3332  0.3967
  160MOL0     C21515  10.132   2.565   7.422 -0.4558  0.3714 -0.3495
  160MOL0     N21516  10.810   2.154   7.348 -0.2257 -0.7304 -0.2856
  160MOL0     N21517  10.935   2.120   7.331 -0.5054  0.6193  0.1283
  160MOL0     C21518  10.973   1.569   8.388  0.1522 -0.2635 -0.3054
  160MOL0     C21519  10.938   1.510   8.511 -0.3450  1.0520  0.0646
  160MOL0     C21520  10.883   1.332   8.908  0.9847 -1.1519  0.3526
  160MOL0     C21521  10.926   1.204   8.905 -0.4862  0.9511  0.0900
  160MOL0     C21522  10.925   1.135   9.020 -0.8533  0.3095  1.5934
  160MOL0     C21523  10.887   1.187   9.141 -0.4778  0.0785  0.6749
  160MOL0     O21524  10.904   1.127   9.268  1.2014 -0.6143 -0.1287
  160MOL0     C21525  10.859   0.988   9.278 -0.2930  0.2182  0.9438
  160MOL0     C21526  10.953   0.915   9.375  0.1210 -0.0896 -0.1656
  160MOL0     C21527  10.909   0.906   9.521 -0.3708 -0.2938 -0.3503
  160MOL0     C21528  10.814   0.795   9.550 -1.1007 -0.7081  0.5759
  160MOL0     C21529  10.798   0.777   9.702  0.6477  0.5267  0.0199
  160MOL0     C21530  10.778   0.764   9.819 -1.3313 -0.6887 -0.2317
  160MOL0     C21531  10.836   1.323   9.145 -0.1377  0.5820 -0.6212
  160MOL0     C21532  10.835   1.394   9.028 -0.6453 -0.1695 -0.8302
  160MOL0     H21533  11.056   1.199   8.473  2.4224  0.9021  0.7652
  160MOL0     H21534  11.120   1.290   8.270  0.5540  2.1328 -1.5217
  160MOL0     H21535  11.256   1.476   8.180 -1.4906 -0.4610  1.0892
  160MOL0     H21536  11.204   1.473   8.020  0.4239 -1.4939  0.3198
  160MOL0     H21537  11.143   1.732   8.134 -0.1352 -0.0982 -2.3517
  160MOL0     H21538  11.308   1.700   8.139 -1.7982 -0.5250  1.6313
  160MOL0     H21539  11.302   1.676   7.881 -1.9977 -0.1219 -2.2947
  160MOL0     H21540  11.121   1.683   7.905  0.5196 -3.4810  1.7656
  160MOL0     H21541  11.140   1.928   7.951  1.2014  2.1691  0.6358
  160MOL0     H21542  11.314   1.929   7.946 -2.0993  3.2410  0.2479
  160MOL0     H21543  11.201   2.008   7.752 -3.9449 -0.2539  0.2108
  160MOL0     H21544  11.298   1.868   7.713  1.1572  1.1253  0.8231
  160MOL0     H21545  11.060   1.744   7.709  0.4316 -0.4882 -2.4776
  160MOL0     H21546  10.992   1.895   7.736 -0.2716 -1.8393  3.0165
  160MOL0     H21547  11.180   1.789   7.517  0.2192  0.7179 -3.5039
  160MOL0     H21548  11.014   1.817   7.488  0.0614  0.3791 -0.4307
  160MOL0     H21549  11.145   1.989   7.360 -0.1798 -2.3276  0.1121
  160MOL0     H21550  11.188   2.069   7.511  1.5148 -1.1731 -0.4435
  160MOL0     H21551  10.899   2.094   7.655 -0.6489  0.5691  0.1969
  160MOL0     H21552  10.598   2.129   7.604  0.4800 -0.4961 -1.9721
  160MOL0     H21553  10.667   2.285   7.614 -0.5437  1.8533 -2.1942
  160MOL0     H21554  10.528   2.166   7.358  2.6602 -0.6071  0.0925
  160MOL0     H21555  10.590   2.333   7.374 -0.3580  1.2037  1.7662
  160MOL0     H21556  10.428   2.363   7.570 -0.1426 -0.1812  0.0947
  160MOL0     H21557  10.367   2.197   7.533 -0.5146  0.3564 -2.0964
  160MOL0     H21558  10.336   2.343   7.286  0.6189  0.2633 -0.2547
  160MOL0     H21559  10.366   2.461   7.407 -0.8040  1.0720  3.0319
  160MOL0     H21560   9.945   2.295   7.492 -1.9735  1.1232  1.4941
  160MOL0     H21561   9.725   2.415   7.639  2.8190  0.9915 -0.1334
  160MOL0     H21562   9.655   2.523   7.508  0.1301  0.8166 -0.4511
  160MOL0     H21563   9.701   2.353   7.476  2.0296 -1.6756  1.5094
  160MOL0     H21564   9.463   2.780   7.647  0.0878 -1.7604  1.2844
  160MOL0     H21565   9.390   2.981   7.756 -0.2054 -2.1362  4.6319
  160MOL0     H21566   9.384   3.249   7.771 -1.3951 -2.9565 -0.1890
  160MOL0     H21567   9.389   3.170   7.930 -1.2669  0.3340  0.0443
  160MOL0     H21568   9.467   3.357   8.037  0.6956  3.4425  0.7690
  160MOL0     H21569   9.519   3.438   7.898  1.1986 -1.1560  1.8781
  160MOL0     H21570   9.275   3.482   7.853 -0.8080 -1.7972 -0.1747
  160MOL0     H21571   9.314   3.538   8.012 -0.0622  2.2565 -2.8456
  160MOL0     H21572   9.175   3.282   7.945 -3.3021 -2.5560  1.9179
  160MOL0     H21573   9.257   3.311   8.100  0.3485  1.2960 -0.4630
  160MOL0     H21574   9.045   3.521   8.028 -1.2680  1.0420  2.0013
  160MOL0     H21575   9.123   3.496   8.172 -1.2147  1.6358 -0.5479
  160MOL0     H21576   8.952   3.272   8.050 -1.0696  0.8259  0.5607
  160MOL0     H21577   9.027   3.288   8.219 -0.8374  0.5606  0.4875
  160MOL0     H21578   8.859   3.499   8.141 -0.2097 -1.6475 -1.1000
  160MOL0     H21579   8.900   3.428   8.302  0.3236  2.3507 -0.1288
  160MOL0     H21580   8.672   3.372   8.290  0.5246 -3.8023  1.0071
  160MOL0     H21581   8.739   3.236   8.219 -1.5445  1.0252  0.2079
  160MOL0     H21582   9.778   3.090   7.877 -1.6566  2.2900  0.0843
  160MOL0     H21583   9.863   2.865   7.788  0.4725  1.7716  0.8787
  160MOL0     H21584  10.036   2.772   7.430  2.6060 -0.6499 -1.1846
  160MOL0     H21585  10.225   2.612   7.392  0.2352  0.8518  2.2601
  160MOL0     H21586  10.925   1.665   8.375  0.3204  0.7661  4.5594
  160MOL0     H21587  10.887   1.583   8.572 -0.4071  1.1588 -0.1147
  160MOL0     H21588  10.952   1.149   8.815  2.4700  4.4376 -1.4623
  160MOL0     H21589  10.960   1.033   9.031 -1.0577  0.1231  0.6464
  160MOL0     H21590  10.755   0.980   9.313 -0.9521 -1.6109 -1.1976
  160MOL0     H21591  10.853   0.933   9.183 -4.0784  1.2941  0.3716
  160MOL0     H21592  11.055   0.954   9.367 -0.0440  0.5074  0.5698
  160MOL0     H21593  10.959   0.810   9.344 -2.7134  0.5662 -3.5840
  160MOL0     H21594  10.863   1.003   9.544  1.4728  1.5287 -3.5551
  160MOL0     H21595  10.998   0.898   9.584 -1.5310 -0.9059  1.2720
  160MOL0     H21596  10.853   0.705   9.500 -0.8759  0.2487 -1.0514
  160MOL0     H21597  10.720   0.819   9.499 -0.3076 -3.3609 -2.4661
  160MOL0     H21598  10.766   0.769   9.925 -0.1361 -0.2585 -0.1049
  160MOL0     H21599  10.800   1.366   9.238 -0.4069 -1.4154  0.2759
  160MOL0     H21600  10.799   1.495   9.015 -2.0199 -0.7765 -1.9892
  161MOL0     O21601   5.373  10.048   9.417 -0.1562 -0.2708 -0.8422
  161MOL0     C21602   5.353   9.970   9.327 -0.4049 -0.2114 -0.8817
  161MOL0     O21603   5.307   9.845   9.352  0.7209 -0.7605  0.5570
  161MOL0     C21604   5.294   9.792   9.481 -0.5532  1.1172 -0.3142
  161MOL0     C21605   5.408   9.769   9.560  0.4517  0.3154 -0.1540
  161MOL0     C21606   5.393   9.730   9.692  0.1170 -0.8322  0.6936
  161MOL0     C21607   5.272   9.693   9.743  0.5234  0.3641  0.1009
  161MOL0     O21608   5.238   9.646   9.871  0.2331  0.3939  0.3250
  161MOL0     C21609   5.341   9.601   9.967  1.4806  0.3520 -0.6210
  161MOL0     C21610   5.330   9.711  10.080 -0.6277  0.3086  0.0076
  161MOL0     C21611   5.225   9.672  10.189  0.1368  0.4149  0.0925
  161MOL0     C21612   5.189   9.780  10.299 -0.3796  0.6987  0.3495
  161MOL0     C21613   5.082   9.731  10.404 -0.9368  0.9407  0.4942
  161MOL0     C21614   5.126   9.605  10.471  1.3681  0.0717 -1.5512
  161MOL0     C21615   5.033   9.589  10.599  0.0450 -0.1631  1.2339
  161MOL0     C21616   5.038   9.441  10.658  0.4717 -0.3629 -0.1001
  161MOL0     N21617   4.972   9.422  10.784  0.4750 -1.7954  0.5907
  161MOL0     C21618   4.915   9.311  10.840 -0.4468 -0.4057  0.1883
  161MOL0     C21619   4.857   9.351  10.953 -1.3119  1.0086  0.0102
  161MOL0     C21620   4.796   9.266  11.058 -0.1978  0.7095 -0.6834
  161MOL0     C21621   4.638   9.258  11.033  0.1587 -0.1363 -0.6460
  161MOL0     C21622   4.564   9.391  11.034  0.4227  0.4479  0.6601
  161MOL0     C21623   4.584   9.456  11.165  0.6970  0.4944 -0.0599
  161MOL0     O21624   4.508   9.393  11.266  0.8583 -0.3360 -0.3693
  161MOL0     C21625   4.522   9.447  11.395  0.7318 -0.1986  0.3147
  161MOL0     C21626   4.453   9.385  11.500  0.4402  0.4753  0.7841
  161MOL0     C21627   4.457   9.416  11.635  1.0808  0.4915  0.0976
  161MOL0     C21628   4.344   9.349  11.714 -0.4485 -0.6038 -0.1254
  161MOL0     C21629   4.528   9.535  11.674 -1.2128 -0.6268  0.7180
  161MOL0     C21630   4.534   9.591  11.811  0.5709  1.0086  0.0482
  161MOL0     O21631   4.614   9.701  11.836  0.3420  0.2509  0.7012
  161MOL0     C21632   4.621   9.752  11.962 -0.2710 -0.2092  0.3740
  161MOL0     C21633   4.743   9.757  12.022  0.2314  0.3691 -0.0124
  161MOL0     C21634   4.751   9.764  12.161  0.5374 -0.0005  0.8374
  161MOL0     C21635   4.651   9.812  12.231 -0.4911  0.3677 -0.1175
  161MOL0     O21636   4.659   9.834  12.363  0.6128  0.2446  0.0700
  161MOL0     C21637   4.785   9.902  12.405 -0.1572  0.4887 -0.4227
  161MOL0     C21638   4.764   9.968  12.541  1.4319  1.2349 -0.3216
  161MOL0     C21639   4.655  10.078  12.519 -0.8325  0.8888 -0.8001
  161MOL0     C21640   4.651  10.155  12.646  0.3578  0.5717  0.5953
  161MOL0     C21641   4.513  10.159  12.702 -0.0347 -0.4949  0.2686
  161MOL0     C21642   4.523  10.197  12.855 -0.7731 -0.0613  0.2845
  161MOL0     C21643   4.378  10.231  12.901 -0.8694  1.3863 -0.0173
  161MOL0     C21644   4.396  10.282  13.046 -0.1729  0.4683  0.7479
  161MOL0    Cl21645   4.488  10.174  13.156  0.5064 -0.0827 -0.1416
  161MOL0     C21646   4.520   9.829  12.169 -0.3374 -0.2954  0.1255
  161MOL0     C21647   4.508   9.795  12.037 -1.3290  0.5647  0.0176
  161MOL0     O21648   4.465   9.534  11.895 -0.1578  0.2407 -0.2032
  161MOL0     C21649   4.591   9.598  11.566  1.0521  0.8137 -0.0967
  161MOL0     C21650   4.581   9.563  11.434  0.0570 -0.2778 -0.6322
  161MOL0     N21651   4.888   9.482  10.970  0.7486  1.1936 -0.0349
  161MOL0     N21652   4.957   9.524  10.875  0.6808 -0.4376  0.3690
  161MOL0     C21653   5.164   9.686   9.653  0.3889 -0.7920  0.3079
  161MOL0     C21654   5.171   9.739   9.526 -0.2043 -0.6201  0.1142
  161MOL0     C21655   5.378  10.007   9.185  0.7101 -0.3970 -0.5380
  161MOL0     C21656   5.382   9.908   9.092 -0.0026  0.5204 -0.2193
  161MOL0     C21657   5.366   9.930   8.960  0.4158 -0.6077 -0.5576
  161MOL0     C21658   5.374  10.061   8.914 -0.4918 -0.1097 -0.7278
  161MOL0     O21659   5.373  10.066   8.777 -0.0293  0.2427 -0.1437
  161MOL0     C21660   5.394  10.201   8.722 -1.0726  0.1249  0.1926
  161MOL0     C21661   5.395  10.204   8.570  0.3719 -0.4144  0.0569
  161MOL0     C21662   5.429  10.337   8.519  0.6231 -0.0278  0.1427
  161MOL0     C21663   5.514  10.344   8.388 -0.4322 -1.1329 -0.1794
  161MOL0     C21664   5.429  10.297   8.279 -0.6038 -0.2423 -0.3844
  161MOL0     C21665   5.374  10.245   8.188 -0.2380  0.7384 -0.6060
  161MOL0     C21666   5.374  10.160   9.014  0.1670 -0.5880  0.6240
  161MOL0     C21667   5.380  10.137   9.150 -0.8935  0.4874 -0.2227
  161MOL0     H21668   5.498   9.810   9.514  0.2601 -0.9138 -1.6964
  161MOL0     H21669   5.481   9.729   9.756 -0.5447 -0.3323  1.6433
  161MOL0     H21670   5.310   9.505  10.009  1.9603  1.4452  2.5321
  161MOL0     H21671   5.438   9.593   9.916  0.6267 -1.1906 -2.0924
  161MOL0     H21672   5.425   9.726  10.132  0.2897  1.1320 -1.8183
  161MOL0     H21673   5.300   9.810  10.045 -0.8172  0.7290  1.2935
  161MOL0     H21674   5.136   9.657  10.128  1.1442 -1.0389 -1.0823
  161MOL0     H21675   5.254   9.575  10.232 -1.4569  0.6220  1.7580
  161MOL0     H21676   5.279   9.798  10.360  0.3288 -0.5300 -0.2970
  161MOL0     H21677   5.168   9.879  10.258 -0.4341  0.5971  0.1308
  161MOL0     H21678   5.079   9.803  10.486 -2.2542 -1.2467  2.4857
  161MOL0     H21679   4.985   9.717  10.356 -0.9703  1.9782  0.2288
  161MOL0     H21680   5.116   9.516  10.408  0.6312 -1.9836  1.2969
  161MOL0     H21681   5.229   9.612  10.507  1.3962  1.5477 -1.8568
  161MOL0     H21682   5.068   9.661  10.674  0.7257  1.1177 -0.2722
  161MOL0     H21683   4.931   9.622  10.583  0.9047  1.0337 -2.6462
  161MOL0     H21684   5.139   9.399  10.656  0.0153 -1.4925 -0.0625
  161MOL0     H21685   4.996   9.373  10.583  0.1981  3.0287 -3.3114
  161MOL0     H21686   4.913   9.212  10.795 -4.2157  0.9479 -3.3111
  161MOL0     H21687   4.838   9.164  11.058  0.7584  1.0822 -1.5672
  161MOL0     H21688   4.825   9.303  11.156  1.9983 -0.2213 -0.9180
  161MOL0     H21689   4.605   9.184  11.107  2.3490  1.0002  1.6506
  161MOL0     H21690   4.611   9.209  10.940 -0.6348 -0.7142 -0.1184
  161MOL0     H21691   4.459   9.373  11.010  0.9054 -0.6081 -0.8026
  161MOL0     H21692   4.592   9.451  10.948  0.9739  1.6714  1.6635
  161MOL0     H21693   4.557   9.562  11.163  2.4535  0.9565 -1.1223
  161MOL0     H21694   4.687   9.456  11.203  1.3861  0.7319 -1.8619
  161MOL0     H21695   4.388   9.308  11.458 -0.2749  1.4882 -0.0184
  161MOL0     H21696   4.376   9.301  11.807 -1.5248 -1.0895  0.0099
  161MOL0     H21697   4.267   9.424  11.733 -1.5105 -1.2590 -1.5830
  161MOL0     H21698   4.287   9.274  11.658 -1.1624  0.3995 -0.7828
  161MOL0     H21699   4.835   9.742  11.967 -1.2812  1.8101 -3.2065
  161MOL0     H21700   4.842   9.731  12.211 -0.3855  0.6348  3.0792
  161MOL0     H21701   4.861   9.826  12.423 -0.7899 -0.2770 -0.8638
  161MOL0     H21702   4.815   9.984  12.339 -2.9251  3.4717  1.6922
  161MOL0     H21703   4.724   9.899  12.616 -0.8419  2.3558 -0.4374
  161MOL0     H21704   4.861  10.006  12.575  0.9880  1.2539  0.9814
  161MOL0     H21705   4.560  10.037  12.483 -0.4019 -0.7880 -0.1368
  161MOL0     H21706   4.685  10.143  12.437 -0.9124 -1.7445 -3.0644
  161MOL0     H21707   4.704  10.096  12.721 -2.3511 -0.6381  1.6667
  161MOL0     H21708   4.701  10.253  12.649 -1.6532  1.6703  0.1348
  161MOL0     H21709   4.458  10.064  12.700 -1.7676  0.4820 -0.4725
  161MOL0     H21710   4.463  10.235  12.642 -0.8050  0.4411  2.0508
  161MOL0     H21711   4.570  10.120  12.917 -0.4998  2.0155  2.8029
  161MOL0     H21712   4.584  10.286  12.874 -2.6634  1.3806 -0.0957
  161MOL0     H21713   4.314  10.143  12.911  0.1124  0.5665 -0.7561
  161MOL0     H21714   4.327  10.296  12.829  2.9092  3.1500 -1.3515
  161MOL0     H21715   4.303  10.292  13.101  1.2486  2.6314  2.9702
  161MOL0     H21716   4.437  10.383  13.043  0.8455  0.1079 -3.1040
  161MOL0     H21717   4.451   9.883  12.233 -0.2640 -1.2308  1.0124
  161MOL0     H21718   4.411   9.790  11.989 -2.2996 -1.2552  2.0134
  161MOL0     H21719   4.650   9.685  11.594  0.9335  0.3954  1.5250
  161MOL0     H21720   4.627   9.641  11.374 -1.1136 -0.3642 -1.6740
  161MOL0     H21721   5.068   9.653   9.692 -1.1767 -1.2235 -3.4580
  161MOL0     H21722   5.076   9.751   9.473 -0.1834  1.6541  0.4674
  161MOL0     H21723   5.393   9.802   9.109 -1.1136  0.1315 -1.7017
  161MOL0     H21724   5.386   9.853   8.886 -3.3232 -0.4379 -1.9786
  161MOL0     H21725   5.316  10.261   8.770 -0.9982 -0.0765  0.5719
  161MOL0     H21726   5.491  10.245   8.745 -0.2652  0.7191 -3.6202
  161MOL0     H21727   5.301  10.175   8.521  0.5007  1.0450 -1.1153
  161MOL0     H21728   5.472  10.137   8.532  2.3260  1.6395  0.2270
  161MOL0     H21729   5.489  10.391   8.592 -0.9154 -0.6546  1.9680
  161MOL0     H21730   5.340  10.394   8.489 -1.0805 -4.3493 -4.3461
  161MOL0     H21731   5.600  10.276   8.387  0.9601  0.5349  0.6208
  161MOL0     H21732   5.543  10.448   8.374 -1.3148 -0.0736  4.2437
  161MOL0     H21733   5.325  10.194   8.107 -1.2038  1.1189 -0.2792
  161MOL0     H21734   5.377  10.263   8.979  3.1856 -1.4557 -2.2074
  161MOL0     H21735   5.368  10.214   9.226  2.6685  2.5379 -1.5167
  162MOL0     O21736   6.543   0.089   2.492 -0.1046 -0.2852 -0.7622
  162MOL0     C21737   6.610   0.005   2.566  0.1966  0.0691 -0.7365
  162MOL0     O21738   6.661   0.021   2.697  0.7494  0.3278  0.1253
  162MOL0     C21739   6.644   0.148   2.762 -0.4714  1.3263  1.2608
  162MOL0     C21740   6.624   0.275   2.699 -0.0831 -0.2195 -0.3719
  162MOL0     C21741   6.608   0.390   2.773  0.0924 -0.7181 -0.4966
  162MOL0     C21742   6.634   0.388   2.915 -0.3481 -0.1023  0.0799
  162MOL0     O21743   6.630   0.508   2.978  0.2829 -0.2361  0.5020
  162MOL0     C21744   6.626   0.528   3.119 -0.1186  1.0935  0.8390
  162MOL0     C21745   6.643   0.669   3.161 -0.2089 -0.2333  1.0654
  162MOL0     C21746   6.596   0.695   3.305  0.0743  0.4609 -1.7621
  162MOL0     C21747   6.440   0.679   3.316 -0.3309 -0.6742  0.2869
  162MOL0     C21748   6.386   0.684   3.451  0.1661 -0.3459  1.0144
  162MOL0     C21749   6.407   0.817   3.524  0.1032  0.4607 -0.0835
  162MOL0     C21750   6.363   0.826   3.668  0.1563 -0.3552 -0.4525
  162MOL0     C21751   6.476   0.802   3.774 -0.7095 -0.8641  0.2740
  162MOL0     N21752   6.559   0.932   3.785  0.3769 -0.2034 -0.3229
  162MOL0     C21753   6.567   1.027   3.888 -0.1962  0.0738  0.0246
  162MOL0     C21754   6.687   1.086   3.870 -0.6903  0.4549 -0.0721
  162MOL0     C21755   6.741   1.188   3.964  0.1866 -0.4040 -1.4776
  162MOL0     C21756   6.624   1.267   4.030  0.5180 -0.8725  0.0380
  162MOL0     C21757   6.672   1.400   4.106 -0.1200 -0.0499  0.5942
  162MOL0     C21758   6.760   1.367   4.225  0.7313 -1.1091  0.4976
  162MOL0     O21759   6.816   1.489   4.288 -0.1017 -0.3570  0.4491
  162MOL0     C21760   6.741   1.597   4.325 -0.5303  0.0111 -1.2584
  162MOL0     C21761   6.605   1.585   4.355 -0.5940  0.0537  0.4835
  162MOL0     C21762   6.529   1.698   4.381  0.0990  0.0923 -0.6620
  162MOL0     C21763   6.392   1.681   4.421  0.2406  0.5594  0.2341
  162MOL0     C21764   6.581   1.830   4.380 -0.4095 -0.6189 -0.3622
  162MOL0     C21765   6.500   1.955   4.420 -0.5191 -0.1931 -0.0654
  162MOL0     O21766   6.501   2.043   4.320 -0.8364  0.5885 -0.0227
  162MOL0     C21767   6.407   2.139   4.324  0.9731  0.5374  0.4015
  162MOL0     C21768   6.421   2.234   4.421  0.2769  0.5303 -0.5484
  162MOL0     C21769   6.323   2.329   4.441 -1.2236 -0.1181  0.8139
  162MOL0     C21770   6.217   2.337   4.357  0.9512  0.2294  0.1127
  162MOL0     O21771   6.123   2.438   4.369  0.1518 -0.9046  0.2344
  162MOL0     C21772   6.027   2.399   4.474 -0.1273  0.2104 -0.0283
  162MOL0     C21773   5.879   2.423   4.437 -0.5975  0.9175  0.3213
  162MOL0     C21774   5.791   2.392   4.547 -0.3624 -0.0469  0.1975
  162MOL0     C21775   5.763   2.256   4.594  0.6613  0.3581  0.2630
  162MOL0     C21776   5.685   2.247   4.729  0.2415 -0.5601 -0.7550
  162MOL0     C21777   5.691   2.104   4.791  0.6749 -0.4027  0.7891
  162MOL0     C21778   5.609   2.003   4.713 -0.5809 -0.1736 -0.6607
  162MOL0     C21779   5.581   1.869   4.781 -0.1313 -0.3111 -1.1699
  162MOL0    Cl21780   5.563   1.725   4.662 -0.0758  0.0986  0.6785
  162MOL0     C21781   6.198   2.243   4.249 -0.3165 -0.1527 -0.1768
  162MOL0     C21782   6.300   2.149   4.230  0.0099  0.2431 -0.5492
  162MOL0     O21783   6.445   1.961   4.534  0.3366  0.5592  0.2196
  162MOL0     C21784   6.720   1.838   4.358 -0.6079  0.0981 -0.4335
  162MOL0     C21785   6.805   1.719   4.345 -0.1900 -0.4718 -0.2453
  162MOL0     N21786   6.752   1.039   3.760  0.6900 -0.3545 -0.2425
  162MOL0     N21787   6.671   0.956   3.702 -0.4418  0.3608 -0.4980
  162MOL0     C21788   6.662   0.263   2.974  0.1228 -0.0638  0.0552
  162MOL0     C21789   6.659   0.145   2.897 -0.6022  0.0858 -0.5710
  162MOL0     C21790   6.620  -0.139   2.517  1.1773  0.4075 -0.0410
  162MOL0     C21791   6.687  -0.242   2.579  0.2946  0.3857 -0.1659
  162MOL0     C21792   6.683  -0.379   2.520  0.2575 -0.3748 -0.0092
  162MOL0     C21793   6.576  -0.401   2.416 -0.0290  0.0656 -0.6562
  162MOL0     O21794   6.560  -0.525   2.367 -0.9671  0.4870  0.1544
  162MOL0     C21795   6.527  -0.618   2.471 -0.0033 -0.0820 -0.9348
  162MOL0     C21796   6.650  -0.710   2.504  1.5150 -0.5670  0.3695
  162MOL0     C21797   6.614  -0.786   2.634 -1.1847  0.9039 -0.9123
  162MOL0     C21798   6.726  -0.899   2.650  0.8169 -0.5429  0.5922
  162MOL0     C21799   6.699  -0.989   2.754 -0.0328  0.6396 -1.1036
  162MOL0     C21800   6.676  -1.070   2.848 -0.8793 -1.2719  0.6287
  162MOL0     C21801   6.515  -0.300   2.361 -0.6074 -0.8100 -0.1052
  162MOL0     C21802   6.533  -0.169   2.403 -0.4878  0.1457  0.8527
  162MOL0     H21803   6.634   0.284   2.591  4.1045  1.7625 -0.0391
  162MOL0     H21804   6.595   0.492   2.740 -2.0350 -0.9650 -0.5747
  162MOL0     H21805   6.524   0.492   3.137  0.2079 -0.6155 -0.4604
  162MOL0     H21806   6.707   0.469   3.162 -1.2078  0.3692  1.9342
  162MOL0     H21807   6.751   0.683   3.156 -0.1088 -1.1211  0.5162
  162MOL0     H21808   6.593   0.733   3.088 -0.5286  0.6857  2.0624
  162MOL0     H21809   6.648   0.634   3.379  0.2537  3.5303  0.8820
  162MOL0     H21810   6.621   0.799   3.331  1.8315 -1.2465  5.4618
  162MOL0     H21811   6.400   0.765   3.260 -1.4785 -0.1363  1.8572
  162MOL0     H21812   6.407   0.583   3.275 -0.1683 -1.0277  0.9691
  162MOL0     H21813   6.277   0.683   3.443  0.2021 -2.2129  0.4282
  162MOL0     H21814   6.417   0.598   3.510  0.0009 -1.4978 -0.5199
  162MOL0     H21815   6.513   0.845   3.521  0.3745 -0.6052 -1.4723
  162MOL0     H21816   6.347   0.898   3.482  1.4006  1.8199  0.5514
  162MOL0     H21817   6.332   0.931   3.675 -3.1531 -0.7922 -4.2641
  162MOL0     H21818   6.283   0.752   3.677  0.7209 -1.0534 -1.0308
  162MOL0     H21819   6.549   0.724   3.753  5.2573  4.3625 -1.3172
  162MOL0     H21820   6.430   0.783   3.871 -0.3586  0.3149  0.6866
  162MOL0     H21821   6.486   1.048   3.957 -4.0017  2.4654 -4.6430
  162MOL0     H21822   6.815   1.152   4.037 -0.3658 -0.1870 -0.8049
  162MOL0     H21823   6.795   1.251   3.893 -0.4634  0.3102 -1.3431
  162MOL0     H21824   6.570   1.209   4.105 -0.5758 -0.1590 -0.1626
  162MOL0     H21825   6.555   1.295   3.949  2.1801 -1.3633 -1.6170
  162MOL0     H21826   6.587   1.465   4.131  1.9842  5.1971 -3.8120
  162MOL0     H21827   6.739   1.457   4.041 -0.4235 -0.2258  0.1283
  162MOL0     H21828   6.836   1.296   4.192  0.3166 -2.1323  1.6699
  162MOL0     H21829   6.709   1.314   4.307  0.1240  0.1083  0.9292
  162MOL0     H21830   6.579   1.480   4.368  3.9934 -1.2122  1.1775
  162MOL0     H21831   6.328   1.728   4.345  3.6659  1.4716 -2.3262
  162MOL0     H21832   6.365   1.575   4.425 -2.3992  0.9209 -3.1623
  162MOL0     H21833   6.368   1.731   4.515 -0.7426  0.2129  0.1884
  162MOL0     H21834   6.504   2.238   4.491 -2.8025  0.9337  3.4139
  162MOL0     H21835   6.337   2.403   4.519  4.1686 -2.9404  3.1146
  162MOL0     H21836   6.031   2.289   4.478  3.6945  0.1852 -0.6086
  162MOL0     H21837   6.051   2.445   4.571  0.2700 -4.2959  2.2868
  162MOL0     H21838   5.877   2.531   4.422 -0.2490  0.8259 -0.4429
  162MOL0     H21839   5.837   2.368   4.353  0.3107  0.3676  0.2089
  162MOL0     H21840   5.695   2.436   4.520  1.7783  2.8103 -3.8714
  162MOL0     H21841   5.821   2.449   4.635 -2.2944  1.4857 -0.0753
  162MOL0     H21842   5.706   2.197   4.521  0.1000  0.6404  0.4727
  162MOL0     H21843   5.860   2.207   4.608 -0.9541 -2.4522  3.0124
  162MOL0     H21844   5.590   2.300   4.739  0.4195 -0.6720  2.4821
  162MOL0     H21845   5.756   2.292   4.798 -0.9731 -0.3374  0.3712
  162MOL0     H21846   5.797   2.075   4.788  0.5949 -0.6125 -0.5833
  162MOL0     H21847   5.651   2.102   4.893 -1.7122 -1.8331 -0.0923
  162MOL0     H21848   5.669   1.984   4.623  2.0899  0.6453  0.8425
  162MOL0     H21849   5.511   2.042   4.683  0.0192  0.1196 -2.3557
  162MOL0     H21850   5.496   1.890   4.848  1.6462 -1.2435  1.5554
  162MOL0     H21851   5.671   1.847   4.839 -0.1661 -1.6852 -1.6159
  162MOL0     H21852   6.105   2.259   4.196 -2.1364  1.1943  3.1369
  162MOL0     H21853   6.280   2.070   4.158 -2.5578  4.3065 -4.8331
  162MOL0     H21854   6.774   1.932   4.359  2.3569 -1.4990 -0.7913
  162MOL0     H21855   6.908   1.739   4.320 -0.1579 -1.8817 -1.4126
  162MOL0     H21856   6.689   0.259   3.079  1.6002 -1.1024 -0.3207
  162MOL0     H21857   6.660   0.050   2.949 -1.1878  1.3130  1.8197
  162MOL0     H21858   6.753  -0.210   2.659  1.3282  1.3307 -1.3533
  162MOL0     H21859   6.755  -0.445   2.567  0.5216 -0.9597 -1.1928
  162MOL0     H21860   6.492  -0.573   2.564 -1.0335 -0.6457 -1.0365
  162MOL0     H21861   6.438  -0.681   2.458 -1.9129  1.8696  1.7118
  162MOL0     H21862   6.733  -0.640   2.520  0.6272  0.2221  1.8268
  162MOL0     H21863   6.677  -0.777   2.422 -0.5511 -0.9070 -0.0730
  162MOL0     H21864   6.520  -0.841   2.628 -0.9401  0.3820 -0.1794
  162MOL0     H21865   6.615  -0.721   2.722  1.1640  1.0670 -0.9744
  162MOL0     H21866   6.821  -0.850   2.673 -1.4744  2.8485  4.2289
  162MOL0     H21867   6.735  -0.963   2.562  2.7464 -0.1254  0.4518
  162MOL0     H21868   6.648  -1.138   2.926 -1.1249  0.1711  1.8461
  162MOL0     H21869   6.437  -0.325   2.291 -1.1251 -0.7139  0.4228
  162MOL0     H21870   6.470  -0.095   2.355 -2.5702 -3.9395 -3.4768
  163MOL0     O21871   4.209   8.170  10.304 -0.5856  0.1569  0.2553
  163MOL0     C21872   4.240   8.048  10.289 -0.1904 -0.3564  0.0454
  163MOL0     O21873   4.306   7.984  10.187  0.3326  0.0819 -0.2026
  163MOL0     C21874   4.323   8.059  10.076  1.0630  1.4857 -0.3289
  163MOL0     C21875   4.441   8.127  10.048 -0.2980  0.7850 -0.1641
  163MOL0     C21876   4.451   8.215   9.931 -0.4700 -0.4326  0.0251
  163MOL0     C21877   4.351   8.212   9.837  0.1056 -0.0329  1.0852
  163MOL0     O21878   4.373   8.285   9.715 -0.4084  0.0565  0.3756
  163MOL0     C21879   4.293   8.239   9.601 -0.2478 -0.9827 -0.1249
  163MOL0     C21880   4.332   8.318   9.483  0.9536 -0.2674  0.2392
  163MOL0     C21881   4.465   8.278   9.426 -0.0975  0.3408 -0.1852
  163MOL0     C21882   4.513   8.369   9.322  0.6605 -0.1943  0.2772
  163MOL0     C21883   4.659   8.333   9.300 -0.2524  0.7431  0.1535
  163MOL0     C21884   4.723   8.363   9.163 -0.5190 -0.4603  0.7551
  163MOL0     C21885   4.863   8.293   9.162  0.4316  0.1353  0.3259
  163MOL0     C21886   4.897   8.219   9.031 -0.3799  0.1925 -0.6195
  163MOL0     N21887   4.818   8.099   8.993  1.0124  0.8124  0.1774
  163MOL0     C21888   4.784   7.988   9.072  0.1512 -0.2563 -0.4723
  163MOL0     C21889   4.725   7.899   8.983 -0.9796 -0.1206 -0.3197
  163MOL0     C21890   4.669   7.763   9.016 -0.1121 -0.4482 -0.5988
  163MOL0     C21891   4.520   7.773   9.036  0.5842  0.7421  0.0356
  163MOL0     C21892   4.451   7.816   8.905 -1.4544 -0.2848 -0.1162
  163MOL0     C21893   4.296   7.842   8.923  0.1604  0.2441  0.7075
  163MOL0     O21894   4.287   7.969   8.990 -0.5913 -0.2233 -0.4401
  163MOL0     C21895   4.178   8.045   8.992  1.8770 -0.0097  0.0361
  163MOL0     C21896   4.052   7.983   8.960  0.3356 -0.8776  0.5710
  163MOL0     C21897   3.930   8.052   8.968  0.8772 -0.6068 -0.0013
  163MOL0     C21898   3.800   7.962   8.964 -0.5259 -0.3714 -0.0493
  163MOL0     C21899   3.929   8.189   9.007  0.0353  0.1168  0.6012
  163MOL0     C21900   3.802   8.276   9.034  0.0210  0.6977  0.6024
  163MOL0     O21901   3.802   8.404   8.969 -0.2193  0.1283 -0.0097
  163MOL0     C21902   3.773   8.399   8.835 -0.5678  0.5215  0.0369
  163MOL0     C21903   3.885   8.404   8.748  0.7724 -0.0476  0.5016
  163MOL0     C21904   3.865   8.420   8.606  0.1383 -0.6456  0.2174
  163MOL0     C21905   3.745   8.450   8.553  0.2084 -0.7362 -0.0618
  163MOL0     O21906   3.731   8.454   8.426 -0.1577  0.4089  0.9437
  163MOL0     C21907   3.610   8.392   8.371 -0.7602 -0.9824 -0.2231
  163MOL0     C21908   3.656   8.400   8.225 -0.8796 -0.5964  0.2334
  163MOL0     C21909   3.754   8.293   8.188 -0.1450  0.0680 -0.0994
  163MOL0     C21910   3.691   8.150   8.159 -0.7977 -0.0217 -0.1848
  163MOL0     C21911   3.607   8.134   8.034  0.5485  0.3681  0.6631
  163MOL0     C21912   3.553   7.997   7.997  1.0117  0.3328  0.1565
  163MOL0     C21913   3.441   7.945   8.102  0.0390 -0.7964 -0.1758
  163MOL0     C21914   3.430   7.797   8.097 -0.1092  0.0962  1.1718
  163MOL0    Cl21915   3.274   7.756   8.194 -0.2411  0.3015 -0.4606
  163MOL0     C21916   3.636   8.442   8.642 -1.0906 -0.2492  0.2089
  163MOL0     C21917   3.650   8.421   8.784 -0.5264 -0.1994 -1.1455
  163MOL0     O21918   3.709   8.228   9.092  0.1965  0.5353 -0.2741
  163MOL0     C21919   4.057   8.244   9.042 -0.9922 -0.5274 -0.8339
  163MOL0     C21920   4.174   8.176   9.035 -0.9265  0.0095 -0.6588
  163MOL0     N21921   4.726   7.961   8.858 -0.0025 -0.6987  0.4733
  163MOL0     N21922   4.780   8.077   8.860 -0.2086 -0.2640 -0.0502
  163MOL0     C21923   4.232   8.135   9.861 -0.3935  0.4648 -0.1657
  163MOL0     C21924   4.222   8.059   9.978 -0.8902 -0.4297 -0.8394
  163MOL0     C21925   4.203   7.959  10.397  0.3473  0.1565  0.1202
  163MOL0     C21926   4.135   8.011  10.511  1.0595 -0.6737  0.3370
  163MOL0     C21927   4.110   7.936  10.634 -0.5752 -0.6873  1.2176
  163MOL0     C21928   4.164   7.807  10.644 -1.2599  0.0717 -0.6513
  163MOL0     O21929   4.153   7.735  10.759 -0.6985 -0.0842 -0.0135
  163MOL0     C21930   4.066   7.778  10.876 -0.7976  0.1386 -0.6985
  163MOL0     C21931   3.960   7.665  10.912 -0.1560 -0.2288  0.1254
  163MOL0     C21932   3.853   7.640  10.801  1.5681  0.3889 -0.9967
  163MOL0     C21933   3.790   7.498  10.799  0.6174  0.0088  0.1005
  163MOL0     C21934   3.897   7.392  10.786  1.0678 -0.0054  0.6118
  163MOL0     C21935   3.971   7.299  10.791 -0.2991  0.3938 -0.2625
  163MOL0     C21936   4.239   7.756  10.534 -0.0467 -0.3706  0.3544
  163MOL0     C21937   4.239   7.823  10.407  0.0057 -0.0003 -0.7924
  163MOL0     H21938   4.516   8.136  10.126 -0.3325 -0.8265  0.0978
  163MOL0     H21939   4.531   8.286   9.918 -0.0468 -0.5729  1.5980
  163MOL0     H21940   4.311   8.132   9.583  0.4556 -0.9773  0.5211
  163MOL0     H21941   4.191   8.264   9.631  0.1107 -0.7682  0.9361
  163MOL0     H21942   4.265   8.288   9.402  2.0978 -0.8504 -0.5299
  163MOL0     H21943   4.308   8.422   9.505 -1.6551 -0.2179 -2.2806
  163MOL0     H21944   4.531   8.292   9.512  1.9956  0.0684 -1.6713
  163MOL0     H21945   4.456   8.174   9.394 -1.2924  0.8258 -1.5308
  163MOL0     H21946   4.456   8.344   9.232  1.3922  1.3141 -0.6573
  163MOL0     H21947   4.488   8.472   9.349 -0.3941 -0.0041 -1.2902
  163MOL0     H21948   4.725   8.366   9.381  1.3349  2.3480 -1.6736
  163MOL0     H21949   4.671   8.225   9.312 -0.8035  0.6719  0.0730
  163MOL0     H21950   4.648   8.332   9.089  1.4039  1.7785 -2.3627
  163MOL0     H21951   4.735   8.472   9.160  2.7728 -0.7528 -0.5029
  163MOL0     H21952   4.936   8.373   9.178 -0.9875  2.4353 -3.4586
  163MOL0     H21953   4.880   8.229   9.250  2.7921 -2.0215 -1.5344
  163MOL0     H21954   5.000   8.186   9.050  0.2554  2.1347 -0.5010
  163MOL0     H21955   4.900   8.298   8.956  1.6468  3.4429  2.5556
  163MOL0     H21956   4.800   7.984   9.180  2.8642  2.1551 -0.6565
  163MOL0     H21957   4.688   7.676   8.952  0.6836 -0.9088  0.2357
  163MOL0     H21958   4.720   7.714   9.099  0.5314 -0.5113 -1.0287
  163MOL0     H21959   4.508   7.848   9.114  1.9003  3.3591 -2.1096
  163MOL0     H21960   4.483   7.676   9.071  0.2948  1.6383  2.3589
  163MOL0     H21961   4.473   7.737   8.832  2.3807  0.0305  0.4746
  163MOL0     H21962   4.492   7.913   8.876  2.6145 -1.7001  0.2369
  163MOL0     H21963   4.258   7.758   8.982 -1.4472  1.0005  0.8043
  163MOL0     H21964   4.240   7.845   8.829  1.3908  1.1329 -0.0278
  163MOL0     H21965   4.041   7.881   8.925 -0.4406  0.5769 -4.0960
  163MOL0     H21966   3.705   8.015   8.962 -0.8013 -0.8695 -1.1547
  163MOL0     H21967   3.801   7.899   8.874  2.5204 -1.0672  0.3689
  163MOL0     H21968   3.805   7.893   9.049 -0.0022 -0.0478  0.1873
  163MOL0     H21969   3.986   8.404   8.785 -0.0241 -1.7972  2.9610
  163MOL0     H21970   3.952   8.410   8.541  0.6785 -0.2608  0.8764
  163MOL0     H21971   3.587   8.296   8.417  0.2147 -1.0808  0.0903
  163MOL0     H21972   3.522   8.455   8.384 -1.8538 -2.2521 -1.1640
  163MOL0     H21973   3.567   8.390   8.161  0.7230 -0.7008 -2.1147
  163MOL0     H21974   3.708   8.496   8.218  1.1674 -1.4833  2.2513
  163MOL0     H21975   3.842   8.294   8.252  0.0394 -0.9866 -0.3144
  163MOL0     H21976   3.801   8.324   8.094  2.1484  3.6447  1.9915
  163MOL0     H21977   3.776   8.085   8.137 -0.1135  0.7546  0.1215
  163MOL0     H21978   3.639   8.114   8.248 -2.9029  1.1925 -0.8451
  163MOL0     H21979   3.660   8.180   7.950  0.9957 -4.0125 -1.8086
  163MOL0     H21980   3.518   8.191   8.061  0.1884  0.7008 -1.1104
  163MOL0     H21981   3.504   7.990   7.900 -1.2836 -2.3252  1.3685
  163MOL0     H21982   3.634   7.925   7.980  0.9021  0.7904 -2.7313
  163MOL0     H21983   3.350   8.002   8.081 -0.4910 -1.6334 -0.1891
  163MOL0     H21984   3.462   7.985   8.202  1.1649  0.0242 -0.7025
  163MOL0     H21985   3.513   7.754   8.154  1.1658 -0.8706 -1.2922
  163MOL0     H21986   3.429   7.758   7.995 -1.5473  1.5192  0.6020
  163MOL0     H21987   3.534   8.474   8.619 -1.2769 -0.5686  0.5711
  163MOL0     H21988   3.569   8.455   8.848 -1.6501  1.7296 -3.4293
  163MOL0     H21989   4.045   8.344   9.082 -2.2008  1.4231 -5.3653
  163MOL0     H21990   4.273   8.212   9.060 -0.4852 -1.5240 -0.0271
  163MOL0     H21991   4.146   8.125   9.796 -0.0802 -1.3865 -0.3585
  163MOL0     H21992   4.135   7.997   9.992 -1.1441  0.0379 -0.2634
  163MOL0     H21993   4.102   8.114  10.515  0.0563 -0.9534 -0.3950
  163MOL0     H21994   4.056   7.989  10.711  0.6984  2.9529 -0.1704
  163MOL0     H21995   4.120   7.795  10.969 -2.3375  1.3163  0.0358
  163MOL0     H21996   4.012   7.873  10.863 -2.4163 -0.4581  1.1421
  163MOL0     H21997   3.910   7.714  10.997  1.3191  3.9450 -1.1905
  163MOL0     H21998   4.016   7.577  10.945  1.2600  0.8570  0.7132
  163MOL0     H21999   3.892   7.663  10.702 -0.8628  2.3887 -1.6085
  163MOL0     H22000   3.775   7.717  10.812 -2.0749 -2.8634 -1.8875
  163MOL0     H22001   3.727   7.484  10.711  1.0986  1.1282 -0.4382
  163MOL0     H22002   3.730   7.458  10.881  0.7936 -0.0763  0.1882
  163MOL0     H22003   4.050   7.230  10.813  0.3666  0.8555 -1.1261
  163MOL0     H22004   4.293   7.662  10.544 -0.3662 -0.4313  1.6767
  163MOL0     H22005   4.290   7.773  10.325  0.8835 -2.2778  1.0431
  164MOL0     O22006   2.893   4.452   8.403  0.8828  0.6043 -0.5735
  164MOL0     C22007   2.983   4.443   8.490 -0.3462  0.5184 -1.3548
  164MOL0     O22008   3.120   4.416   8.465 -0.6039  0.7158 -0.7278
  164MOL0     C22009   3.163   4.405   8.334  0.5987  0.4699 -0.7636
  164MOL0     C22010   3.260   4.303   8.315  0.1426  0.2373 -0.3627
  164MOL0     C22011   3.300   4.267   8.185 -0.1202 -0.1666  0.6039
  164MOL0     C22012   3.248   4.329   8.067  0.6976 -0.3702 -1.0538
  164MOL0     O22013   3.283   4.286   7.946 -0.1912  0.0524 -0.1198
  164MOL0     C22014   3.269   4.369   7.827  0.5489 -0.0743  0.0089
  164MOL0     C22015   3.335   4.301   7.699 -0.5532  0.1484 -0.3465
  164MOL0     C22016   3.487   4.283   7.734 -0.2094 -0.3834 -0.9321
  164MOL0     C22017   3.582   4.403   7.685 -0.1109 -0.4830  0.2763
  164MOL0     C22018   3.730   4.383   7.714 -0.1932  0.2319  0.1367
  164MOL0     C22019   3.817   4.486   7.649 -0.3154 -0.2459  0.9892
  164MOL0     C22020   3.960   4.474   7.688 -0.5901  0.0190  0.7740
  164MOL0     C22021   4.068   4.564   7.625  0.2421 -0.8147 -0.5286
  164MOL0     N22022   4.070   4.563   7.481 -0.9142  0.8930 -0.0853
  164MOL0     C22023   4.141   4.476   7.402 -0.4587  0.3832  0.5018
  164MOL0     C22024   4.132   4.513   7.273  0.7608  0.5340  0.2280
  164MOL0     C22025   4.220   4.458   7.177 -0.3808 -0.5467  0.6439
  164MOL0     C22026   4.328   4.549   7.139 -0.2281 -0.5304  0.2958
  164MOL0     C22027   4.395   4.508   7.003 -0.7086  0.2523 -0.2852
  164MOL0     C22028   4.512   4.594   6.962 -0.6174  0.5161 -0.1354
  164MOL0     O22029   4.591   4.550   6.853  1.0604  0.2756  0.5654
  164MOL0     C22030   4.721   4.550   6.869 -1.0617 -0.3200 -0.7948
  164MOL0     C22031   4.794   4.496   6.973 -0.4629 -0.7283 -0.4136
  164MOL0     C22032   4.938   4.483   6.973  0.1883  0.8128  0.3103
  164MOL0     C22033   5.012   4.395   7.068 -0.0248 -0.3163  0.1069
  164MOL0     C22034   5.017   4.539   6.866 -0.3665  0.0092  0.3517
  164MOL0     C22035   5.160   4.503   6.849 -0.0613 -0.7449 -1.2664
  164MOL0     O22036   5.194   4.479   6.722 -0.0821  0.1559  0.2446
  164MOL0     C22037   5.316   4.431   6.685  0.0447 -0.6714  0.0401
  164MOL0     C22038   5.351   4.297   6.701  0.0470 -0.3057  0.6094
  164MOL0     C22039   5.469   4.241   6.647 -0.5661 -1.0042  0.2597
  164MOL0     C22040   5.561   4.321   6.574 -0.4543  0.1581 -0.3612
  164MOL0     O22041   5.674   4.269   6.523  0.2834  0.4896  0.3474
  164MOL0     C22042   5.800   4.308   6.573 -0.6012 -0.7995 -0.5994
  164MOL0     C22043   5.880   4.318   6.444 -0.5551  0.6890 -0.8016
  164MOL0     C22044   5.993   4.421   6.450 -0.6657 -0.6626  0.5592
  164MOL0     C22045   6.099   4.410   6.336  0.1670 -0.1943  0.3765
  164MOL0     C22046   6.214   4.516   6.343  0.7607  0.3291  0.6375
  164MOL0     C22047   6.310   4.520   6.228  0.3328  0.4351 -0.1465
  164MOL0     C22048   6.248   4.549   6.097  0.5436  0.8297  0.3821
  164MOL0     C22049   6.362   4.581   5.992  0.0049  0.7023 -0.8026
  164MOL0    Cl22050   6.470   4.435   5.982 -0.1696  0.0932  0.0477
  164MOL0     C22051   5.530   4.463   6.572 -1.3201  0.5869  0.1603
  164MOL0     C22052   5.416   4.520   6.629  0.3717 -0.7229 -0.1129
  164MOL0     O22053   5.247   4.522   6.935  0.3228 -0.5525 -0.2240
  164MOL0     C22054   4.947   4.602   6.762 -0.3105  0.5055  0.6423
  164MOL0     C22055   4.805   4.622   6.771  0.5588  0.6802 -0.7415
  164MOL0     N22056   4.058   4.633   7.271  0.1457 -0.9605 -0.4635
  164MOL0     N22057   4.026   4.659   7.398  0.0390  0.2357  0.2826
  164MOL0     C22058   3.150   4.428   8.093 -0.2584 -0.3255  0.1448
  164MOL0     C22059   3.107   4.470   8.221  0.4347  0.0898  0.0609
  164MOL0     C22060   2.938   4.446   8.627 -0.2978 -0.2914 -0.3205
  164MOL0     C22061   2.804   4.466   8.665 -0.5008 -0.0173  0.0959
  164MOL0     C22062   2.771   4.485   8.799 -0.4211  0.1639 -0.4283
  164MOL0     C22063   2.869   4.482   8.900  0.5107 -0.4221 -0.2646
  164MOL0     O22064   2.812   4.499   9.025  0.2117 -0.4380 -0.8162
  164MOL0     C22065   2.900   4.525   9.128 -0.1124 -0.3109 -0.5934
  164MOL0     C22066   2.831   4.526   9.265  0.2835  0.2752  0.9368
  164MOL0     C22067   2.780   4.382   9.296 -0.1116 -0.1824  0.5940
  164MOL0     C22068   2.726   4.365   9.440  0.1817  0.1865 -0.0422
  164MOL0     C22069   2.838   4.357   9.534  0.2097 -0.3399 -0.2512
  164MOL0     C22070   2.931   4.348   9.615  0.9190  0.0561 -0.7251
  164MOL0     C22071   3.000   4.460   8.870  0.4289  0.3512  0.0054
  164MOL0     C22072   3.034   4.434   8.733  0.0643  0.2352  0.3773
  164MOL0     H22073   3.313   4.257   8.398  2.3985 -1.1045 -2.4021
  164MOL0     H22074   3.369   4.189   8.153  1.1734  0.6944  1.2543
  164MOL0     H22075   3.169   4.407   7.804  0.0396 -0.8594  0.8677
  164MOL0     H22076   3.327   4.461   7.844 -2.0058  1.5337  0.4727
  164MOL0     H22077   3.292   4.204   7.671 -1.9084  0.9658 -1.2272
  164MOL0     H22078   3.321   4.357   7.606 -0.4756  3.5305  1.5265
  164MOL0     H22079   3.495   4.266   7.842  0.3616  3.5381 -0.1939
  164MOL0     H22080   3.515   4.188   7.687 -1.6428 -1.0403 -0.5138
  164MOL0     H22081   3.570   4.417   7.578  0.0090 -3.2683 -0.1620
  164MOL0     H22082   3.556   4.489   7.748  0.0021 -1.2186  1.3675
  164MOL0     H22083   3.743   4.373   7.823 -0.1598  0.8516  0.1894
  164MOL0     H22084   3.753   4.287   7.666  0.8993  0.4456  0.2074
  164MOL0     H22085   3.802   4.475   7.542  1.9180 -0.5267  0.6548
  164MOL0     H22086   3.781   4.585   7.677  0.9797 -0.2733  3.0018
  164MOL0     H22087   3.971   4.464   7.797  1.2825  0.0524  0.6154
  164MOL0     H22088   3.987   4.371   7.666 -0.7682  0.4470 -1.7006
  164MOL0     H22089   4.167   4.546   7.668  0.1908 -1.3532 -0.6298
  164MOL0     H22090   4.043   4.667   7.652  0.1381 -1.2535  1.1567
  164MOL0     H22091   4.197   4.387   7.428  1.7350  1.7771  0.8300
  164MOL0     H22092   4.263   4.363   7.210 -0.2489 -1.5298 -2.1580
  164MOL0     H22093   4.169   4.427   7.086 -0.4357  0.2436  0.3958
  164MOL0     H22094   4.390   4.551   7.228 -1.4706  3.5636  1.2864
  164MOL0     H22095   4.293   4.652   7.123  0.3881 -0.3863 -0.1498
  164MOL0     H22096   4.323   4.510   6.921 -0.9948  3.1299 -0.0687
  164MOL0     H22097   4.426   4.403   7.009 -2.9764 -0.3706  2.7772
  164MOL0     H22098   4.567   4.620   7.053  0.7894  0.5243 -0.9532
  164MOL0     H22099   4.464   4.682   6.920  1.7165  0.4416 -3.3560
  164MOL0     H22100   4.729   4.451   7.048 -1.5567 -3.2040 -2.6875
  164MOL0     H22101   5.080   4.458   7.126  1.1529 -1.3260 -0.1431
  164MOL0     H22102   4.939   4.345   7.133 -0.9338 -3.2671 -2.9499
  164MOL0     H22103   5.058   4.314   7.012  0.5611  1.0260 -1.4178
  164MOL0     H22104   5.265   4.240   6.734 -2.4656  2.1256 -1.3326
  164MOL0     H22105   5.490   4.135   6.657  2.7256 -0.4035  1.0617
  164MOL0     H22106   5.786   4.408   6.615 -3.3395 -1.0093 -0.8497
  164MOL0     H22107   5.843   4.243   6.649 -1.1903 -0.2132  0.2432
  164MOL0     H22108   5.940   4.228   6.431 -3.2747 -1.3483 -0.1840
  164MOL0     H22109   5.819   4.312   6.353 -3.2386 -0.3540  0.9130
  164MOL0     H22110   6.044   4.417   6.546  4.3153  2.4270 -1.5804
  164MOL0     H22111   5.949   4.521   6.448 -2.3967 -1.3958  0.2574
  164MOL0     H22112   6.150   4.314   6.331  1.9737  0.6640  1.2230
  164MOL0     H22113   6.057   4.430   6.237 -0.6954 -0.2127  0.7281
  164MOL0     H22114   6.260   4.515   6.442  2.0714  1.0511  0.0681
  164MOL0     H22115   6.169   4.615   6.344 -0.2589 -0.1331  1.0986
  164MOL0     H22116   6.391   4.589   6.251 -0.1576  1.6191 -1.8238
  164MOL0     H22117   6.355   4.420   6.220 -1.4872 -0.3177 -1.8350
  164MOL0     H22118   6.167   4.621   6.081 -2.2197 -2.2054 -0.5814
  164MOL0     H22119   6.195   4.458   6.065 -1.2307  1.6795  0.7862
  164MOL0     H22120   6.417   4.666   6.033  0.9713  0.0879 -0.8023
  164MOL0     H22121   6.318   4.603   5.894 -1.8026 -0.5427 -0.3215
  164MOL0     H22122   5.615   4.523   6.540  0.3636 -1.6562  0.1979
  164MOL0     H22123   5.402   4.625   6.650 -0.5361 -1.1403  1.5878
  164MOL0     H22124   5.002   4.634   6.675  0.5113 -4.0738 -0.7781
  164MOL0     H22125   4.747   4.673   6.695 -0.8275  1.2423  0.6536
  164MOL0     H22126   3.129   4.496   8.011 -0.4953  0.1643  0.6050
  164MOL0     H22127   3.032   4.548   8.227 -0.8019 -0.9684 -0.9780
  164MOL0     H22128   2.727   4.473   8.588  1.7306  0.8567 -2.1947
  164MOL0     H22129   2.670   4.507   8.830  0.0503 -0.9012  2.0741
  164MOL0     H22130   2.976   4.447   9.124  0.7278  0.4669 -0.3071
  164MOL0     H22131   2.940   4.626   9.114 -0.6238  0.1821  1.1922
  164MOL0     H22132   2.746   4.592   9.246  1.9512  1.6164 -2.8106
  164MOL0     H22133   2.904   4.557   9.340 -2.5796  1.3302  3.4898
  164MOL0     H22134   2.850   4.305   9.263  0.2813 -0.0901  1.1927
  164MOL0     H22135   2.697   4.383   9.225  0.4732 -1.1558 -0.1282
  164MOL0     H22136   2.673   4.270   9.431  2.3027 -0.8947 -2.2228
  164MOL0     H22137   2.666   4.447   9.482 -1.4091 -1.5119  1.1229
  164MOL0     H22138   3.006   4.340   9.691 -0.9095 -1.7593  1.0271
  164MOL0     H22139   3.082   4.449   8.940 -0.9593 -0.4682  1.5885
  164MOL0     H22140   3.136   4.430   8.696  0.1868  2.1593  0.3956
  165MOL0     O22141   4.092   9.189   4.148  0.3074 -0.0820  0.0168
  165MOL0     C22142   4.171   9.096   4.118  0.2674  0.0705  0.1995
  165MOL0     O22143   4.261   9.099   4.014  0.4829  0.2043 -0.3258
  165MOL0     C22144   4.266   9.222   3.932  0.0066  0.5788 -0.7169
  165MOL0     C22145   4.283   9.336   4.002 -0.2719 -0.3081 -0.0100
  165MOL0     C22146   4.316   9.454   3.935  0.3090  0.0730  0.5623
  165MOL0     C22147   4.329   9.462   3.798 -0.2956  1.3638  0.9305
  165MOL0     O22148   4.362   9.576   3.722 -0.5232 -0.1377  0.1724
  165MOL0     C22149   4.454   9.671   3.777 -0.0765 -0.2065 -0.3862
  165MOL0     C22150   4.481   9.784   3.667 -0.0071 -0.0843  0.9415
  165MOL0     C22151   4.601   9.873   3.704  0.5255 -0.1324 -0.1843
  165MOL0     C22152   4.627   9.986   3.604 -0.5443  0.2168  0.4251
  165MOL0     C22153   4.744  10.066   3.659 -0.3035  0.8818  0.1440
  165MOL0     C22154   4.888   9.988   3.678  0.1612  0.7798 -0.2113
  165MOL0     C22155   5.003  10.098   3.666  1.0367 -0.1746  0.3996
  165MOL0     C22156   5.134  10.021   3.658  0.4277  0.0982 -0.4722
  165MOL0     N22157   5.242  10.115   3.663  0.6410 -0.1103 -0.4929
  165MOL0     C22158   5.322  10.116   3.778  0.3399 -0.5553 -0.6052
  165MOL0     C22159   5.430  10.188   3.737 -0.2561  0.7307  0.0245
  165MOL0     C22160   5.527  10.245   3.843 -0.0443  0.5877 -0.3774
  165MOL0     C22161   5.533  10.177   3.982  1.0832  0.0149 -0.0211
  165MOL0     C22162   5.582  10.029   3.971  0.8017  0.3856 -0.0845
  165MOL0     C22163   5.573   9.974   4.113 -0.0246  0.0534  0.2035
  165MOL0     O22164   5.672   9.879   4.117 -0.6950  0.0003 -0.0539
  165MOL0     C22165   5.683   9.807   4.233  0.3141  0.6789 -0.0671
  165MOL0     C22166   5.787   9.715   4.232  0.4579  0.3515  0.1192
  165MOL0     C22167   5.822   9.636   4.340 -0.6639  0.2722 -0.8771
  165MOL0     C22168   5.960   9.574   4.322  1.3603 -0.9027 -0.1206
  165MOL0     C22169   5.744   9.638   4.462  0.3197 -0.4545  0.1760
  165MOL0     C22170   5.781   9.562   4.583  0.0971  0.6938 -0.1560
  165MOL0     O22171   5.717   9.615   4.691 -0.1180 -0.7564 -0.3159
  165MOL0     C22172   5.758   9.585   4.819 -0.1164 -0.1899 -0.4584
  165MOL0     C22173   5.798   9.460   4.865  0.0460  0.0053 -0.7286
  165MOL0     C22174   5.822   9.439   5.003  0.1659 -0.4655  0.6137
  165MOL0     C22175   5.805   9.544   5.092  0.5229  0.0589 -0.1838
  165MOL0     O22176   5.822   9.532   5.229 -0.2483  0.0371 -0.9938
  165MOL0     C22177   5.924   9.443   5.283 -0.0408 -0.5500  0.2053
  165MOL0     C22178   6.058   9.517   5.278 -0.2481 -0.4519 -0.3728
  165MOL0     C22179   6.180   9.431   5.328 -0.3018 -0.6783  0.2956
  165MOL0     C22180   6.190   9.307   5.244 -0.7055  0.4530  1.1038
  165MOL0     C22181   6.320   9.231   5.287 -0.1322  0.0152  0.3560
  165MOL0     C22182   6.362   9.112   5.198  0.0838  0.4292  0.4384
  165MOL0     C22183   6.451   9.015   5.280  0.4988  0.2970 -0.2933
  165MOL0     C22184   6.384   8.915   5.375  0.1313 -0.3745  0.2553
  165MOL0    Cl22185   6.506   8.793   5.426  0.1242  0.3254  0.6942
  165MOL0     C22186   5.751   9.663   5.044  1.1359 -0.4376 -0.2429
  165MOL0     C22187   5.731   9.689   4.905  0.1444 -0.1071 -1.1754
  165MOL0     O22188   5.855   9.456   4.582  0.0029 -0.3811 -0.4310
  165MOL0     C22189   5.632   9.732   4.471 -0.7654 -0.1408  0.6918
  165MOL0     C22190   5.603   9.813   4.351  0.2633  0.4104  0.2500
  165MOL0     N22191   5.411  10.230   3.604 -0.4252 -0.5409  0.4173
  165MOL0     N22192   5.298  10.181   3.564  0.4174 -0.4315  0.0527
  165MOL0     C22193   4.319   9.336   3.729 -0.3618 -0.1888  0.5322
  165MOL0     C22194   4.288   9.216   3.794 -0.2938 -0.3547 -0.4429
  165MOL0     C22195   4.158   8.956   4.199  0.0596 -0.4455  1.2832
  165MOL0     C22196   4.204   8.836   4.149 -1.4188  0.2859 -0.5559
  165MOL0     C22197   4.176   8.720   4.221 -0.4869  0.1406  0.5881
  165MOL0     C22198   4.100   8.709   4.341  0.5476 -0.1492  0.3468
  165MOL0     O22199   4.078   8.579   4.378 -0.6999 -0.1042 -0.7718
  165MOL0     C22200   3.991   8.573   4.498  0.4087  0.7080 -0.3430
  165MOL0     C22201   3.852   8.612   4.479  0.8259 -1.0044  0.5214
  165MOL0     C22202   3.751   8.593   4.613  0.2090  0.2783 -0.3057
  165MOL0     C22203   3.799   8.680   4.732 -0.6412 -0.4719 -0.0412
  165MOL0     C22204   3.825   8.825   4.686  0.1899 -0.4373 -0.7529
  165MOL0     C22205   3.846   8.934   4.653 -0.2995 -0.4675 -0.1483
  165MOL0     C22206   4.059   8.832   4.399 -0.3840 -0.0361  0.3261
  165MOL0     C22207   4.094   8.948   4.331  0.1559 -0.4032  0.0583
  165MOL0     H22208   4.271   9.344   4.110 -2.0887 -0.2655 -0.1750
  165MOL0     H22209   4.330   9.542   3.996 -1.0424 -0.7896  2.2129
  165MOL0     H22210   4.405   9.717   3.862 -1.3236 -1.3309 -0.4648
  165MOL0     H22211   4.542   9.613   3.807 -1.1395 -1.9277 -0.4569
  165MOL0     H22212   4.508   9.739   3.571 -0.5133 -1.1425  1.2751
  165MOL0     H22213   4.385   9.834   3.654 -0.4668 -1.0441  0.5508
  165MOL0     H22214   4.579   9.910   3.804  0.1599  1.2489 -0.7520
  165MOL0     H22215   4.689   9.809   3.710  0.0689 -1.1028 -2.5783
  165MOL0     H22216   4.634   9.946   3.503 -2.2895  1.3879 -0.2237
  165MOL0     H22217   4.535  10.044   3.591 -0.1738  0.1736 -3.3508
  165MOL0     H22218   4.759  10.149   3.589 -1.6861  0.3688 -0.8031
  165MOL0     H22219   4.710  10.103   3.756 -0.1269  2.6743 -0.4223
  165MOL0     H22220   4.890   9.935   3.774 -1.1581 -1.8932 -1.5464
  165MOL0     H22221   4.903   9.909   3.604 -1.7246  0.5067 -0.3576
  165MOL0     H22222   5.003  10.159   3.576  0.3751 -1.1637 -0.2824
  165MOL0     H22223   4.993  10.166   3.752 -2.0503  2.6618 -1.9431
  165MOL0     H22224   5.140   9.965   3.564  1.5125  0.4870 -0.6464
  165MOL0     H22225   5.143   9.941   3.732  0.1482 -0.5578 -1.1395
  165MOL0     H22226   5.291  10.089   3.879 -1.2480 -1.0300 -1.1843
  165MOL0     H22227   5.630  10.251   3.804 -0.0906  3.1145 -0.2759
  165MOL0     H22228   5.499  10.349   3.863  2.4575  1.4239 -0.7370
  165MOL0     H22229   5.428  10.174   4.012  1.5464  0.2997  1.7277
  165MOL0     H22230   5.584  10.229   4.064 -1.0803  0.5763  1.0195
  165MOL0     H22231   5.685  10.017   3.935  0.4944 -1.6610 -0.4000
  165MOL0     H22232   5.510   9.974   3.910 -2.4031  4.7490 -0.7460
  165MOL0     H22233   5.474   9.930   4.126 -0.7818  2.1580  1.9234
  165MOL0     H22234   5.579  10.052   4.188 -0.7042 -1.6271  2.0953
  165MOL0     H22235   5.844   9.701   4.140  1.2004  2.0270  0.2732
  165MOL0     H22236   6.021   9.644   4.264  0.4250  0.4494  0.4816
  165MOL0     H22237   6.016   9.566   4.416 -0.5003 -1.1075  1.0085
  165MOL0     H22238   5.938   9.475   4.281 -0.2235 -1.4426  1.8844
  165MOL0     H22239   5.818   9.378   4.796  2.2684 -1.5374  1.5429
  165MOL0     H22240   5.847   9.336   5.025 -2.6454 -1.5827 -0.8700
  165MOL0     H22241   5.900   9.419   5.387 -1.4640  0.8365  0.2279
  165MOL0     H22242   5.925   9.348   5.227  2.5921 -1.4892  1.6597
  165MOL0     H22243   6.077   9.543   5.173  1.6176 -0.0790  0.0282
  165MOL0     H22244   6.043   9.610   5.333 -1.2953 -1.3194  0.8784
  165MOL0     H22245   6.148   9.413   5.431 -1.5445 -4.3031 -0.5739
  165MOL0     H22246   6.271   9.489   5.311  0.5573 -2.2294 -0.5437
  165MOL0     H22247   6.115   9.228   5.255  1.6799 -2.2241 -0.4394
  165MOL0     H22248   6.191   9.331   5.137  1.2717 -3.8411 -0.0504
  165MOL0     H22249   6.302   9.216   5.394  1.2746 -0.0669  0.5975
  165MOL0     H22250   6.408   9.296   5.293  0.4390 -0.8028  1.1753
  165MOL0     H22251   6.264   9.066   5.185 -0.1357  0.5143  1.6093
  165MOL0     H22252   6.404   9.134   5.100  0.7701  1.4976  0.9439
  165MOL0     H22253   6.538   9.063   5.327  0.5815 -0.1474  0.0144
  165MOL0     H22254   6.508   8.950   5.212  2.3693  0.0025  1.4431
  165MOL0     H22255   6.303   8.864   5.322 -0.4990  0.8416  0.0079
  165MOL0     H22256   6.344   8.972   5.459 -2.5987  3.6300 -3.3758
  165MOL0     H22257   5.759   9.738   5.121 -0.7099 -2.2484  1.8713
  165MOL0     H22258   5.711   9.791   4.874  1.5408  1.3355  2.2090
  165MOL0     H22259   5.568   9.746   4.557 -1.3988  1.5994 -0.0025
  165MOL0     H22260   5.520   9.883   4.351  2.1490  2.8072 -0.2265
  165MOL0     H22261   4.352   9.328   3.626 -2.0441 -0.3488 -0.0352
  165MOL0     H22262   4.298   9.118   3.748 -1.6026 -0.0022 -1.5730
  165MOL0     H22263   4.265   8.848   4.060  1.0363  0.2163  1.0410
  165MOL0     H22264   4.211   8.629   4.173 -3.0150 -0.2132 -0.7357
  165MOL0     H22265   3.997   8.468   4.525  0.8275  1.1367  1.3343
  165MOL0     H22266   4.038   8.631   4.578  3.8604  0.5276 -2.0490
  165MOL0     H22267   3.819   8.563   4.387  2.1081  1.8143 -1.6249
  165MOL0     H22268   3.848   8.716   4.445  1.2784 -1.0325  0.3785
  165MOL0     H22269   3.752   8.488   4.644 -0.9575  0.9295  2.2333
  165MOL0     H22270   3.647   8.612   4.585 -1.0003  2.4942  4.6691
  165MOL0     H22271   3.884   8.639   4.787  2.1851  1.4429 -2.6043
  165MOL0     H22272   3.709   8.686   4.793 -0.8510 -3.6158  0.1170
  165MOL0     H22273   3.869   9.038   4.643  1.1412 -0.6803  0.7142
  165MOL0     H22274   4.011   8.856   4.494 -0.6679  2.4214 -0.3560
  165MOL0     H22275   4.070   9.046   4.370  0.1148 -0.5306  0.3553
  166MOL0     O22276   2.744   9.699   3.179  0.9709  0.3133  0.0756
  166MOL0     C22277   2.781   9.627   3.274  0.5341 -0.5033  0.6175
  166MOL0     O22278   2.733   9.640   3.400 -0.3987 -0.4112 -0.6741
  166MOL0     C22279   2.689   9.765   3.429 -0.1325 -0.4350 -0.2035
  166MOL0     C22280   2.555   9.789   3.464  0.8275 -0.6642 -0.2118
  166MOL0     C22281   2.510   9.924   3.483  0.2264  0.0104  0.0530
  166MOL0     C22282   2.602  10.032   3.475  0.1515  0.2986  0.9367
  166MOL0     O22283   2.573  10.168   3.492  0.4033  0.0792 -0.2560
  166MOL0     C22284   2.475  10.220   3.580 -0.2249 -0.2184 -0.2414
  166MOL0     C22285   2.465  10.373   3.589 -0.2857 -0.1828  0.4973
  166MOL0     C22286   2.351  10.400   3.687  0.3577  0.0779 -0.6085
  166MOL0     C22287   2.320  10.549   3.691 -0.0988  0.1059 -0.4999
  166MOL0     C22288   2.191  10.574   3.763  1.1280  0.4699 -0.8737
  166MOL0     C22289   2.067  10.576   3.676 -1.3522 -0.2810  0.2773
  166MOL0     C22290   1.936  10.616   3.751 -1.1665 -0.3697 -0.1068
  166MOL0     C22291   1.895  10.520   3.860  0.9450  0.1056 -0.0350
  166MOL0     N22292   1.836  10.403   3.803  1.0099 -0.4689  0.7127
  166MOL0     C22293   1.737  10.405   3.703 -0.1263  0.1753  0.7086
  166MOL0     C22294   1.743  10.280   3.655 -0.2315 -0.6586 -0.0833
  166MOL0     C22295   1.658  10.251   3.539 -0.4139  0.3384  0.4697
  166MOL0     C22296   1.505  10.298   3.533  0.6539  0.7924 -0.5517
  166MOL0     C22297   1.447  10.260   3.403  0.3514 -0.6078  0.7157
  166MOL0     C22298   1.305  10.317   3.409  0.1524  0.3521  1.2334
  166MOL0     O22299   1.249  10.303   3.276  0.5062 -0.4121  0.4843
  166MOL0     C22300   1.140  10.223   3.269  0.2432  0.2246  0.4435
  166MOL0     C22301   1.016  10.266   3.222 -0.0008 -0.9246  0.0087
  166MOL0     C22302   0.900  10.185   3.203 -1.5332 -1.2504  0.7817
  166MOL0     C22303   0.779  10.249   3.160 -0.1101  0.0270  0.4618
  166MOL0     C22304   0.898  10.054   3.253 -0.3177  0.5073  0.0117
  166MOL0     C22305   0.786   9.946   3.233 -0.4056  0.1464 -0.1892
  166MOL0     O22306   0.778   9.850   3.328 -0.1668 -0.0106 -0.9844
  166MOL0     C22307   0.702   9.744   3.293 -0.1633 -0.1049 -0.3261
  166MOL0     C22308   0.572   9.737   3.226 -0.7318 -0.3135  0.4637
  166MOL0     C22309   0.525   9.616   3.182  0.0235  0.4313  0.2380
  166MOL0     C22310   0.593   9.496   3.205 -0.2431  0.0131 -1.0466
  166MOL0     O22311   0.543   9.375   3.160 -1.0076  0.6723 -0.1497
  166MOL0     C22312   0.633   9.256   3.156  0.6693  0.0724  0.2043
  166MOL0     C22313   0.592   9.149   3.038 -0.7724  0.3560  0.3296
  166MOL0     C22314   0.453   9.083   3.025 -0.4821  0.1485 -0.1457
  166MOL0     C22315   0.409   9.011   3.153 -1.2370  0.7517 -0.0934
  166MOL0     C22316   0.492   8.881   3.198 -0.6727 -1.0128 -0.1913
  166MOL0     C22317   0.399   8.795   3.291  0.5818 -0.7977 -1.1576
  166MOL0     C22318   0.366   8.662   3.239 -0.6078  0.2890 -0.6473
  166MOL0     C22319   0.483   8.560   3.235  0.5129 -0.1021  0.1736
  166MOL0    Cl22320   0.565   8.525   3.393 -0.2997  0.6618 -0.2013
  166MOL0     C22321   0.704   9.504   3.291 -0.3200 -0.4215 -0.2785
  166MOL0     C22322   0.758   9.625   3.328 -0.2252  0.3517 -1.0087
  166MOL0     O22323   0.708   9.970   3.143  0.7004  0.2523  0.2081
  166MOL0     C22324   1.027  10.003   3.302 -0.7529 -0.1169  0.5034
  166MOL0     C22325   1.145  10.087   3.304 -0.4527 -0.7046  0.8173
  166MOL0     N22326   1.846  10.203   3.710  0.4957 -0.6603  0.4676
  166MOL0     N22327   1.891  10.282   3.809  0.7851  0.2031 -0.2389
  166MOL0     C22328   2.737  10.007   3.442  0.9946 -0.7374  0.5826
  166MOL0     C22329   2.780   9.876   3.420  0.1610  0.2583  0.4785
  166MOL0     C22330   2.886   9.519   3.248  0.0434  0.1590 -0.3499
  166MOL0     C22331   2.960   9.452   3.349 -0.1257  0.0917  0.4793
  166MOL0     C22332   3.065   9.353   3.321  0.5877 -0.4194 -0.2587
  166MOL0     C22333   3.096   9.336   3.187  0.1909  1.0753  0.3313
  166MOL0     O22334   3.205   9.274   3.130  0.0309  0.3538  0.1088
  166MOL0     C22335   3.306   9.363   3.094  0.8591 -0.3378 -0.1476
  166MOL0     C22336   3.429   9.311   3.028 -0.8408 -0.2822  1.1122
  166MOL0     C22337   3.408   9.236   2.893 -0.2918  0.2351  0.2012
  166MOL0     C22338   3.307   9.306   2.792 -0.0391 -0.0090 -1.5256
  166MOL0     C22339   3.345   9.447   2.763 -0.3799  0.4998  0.7402
  166MOL0     C22340   3.386   9.568   2.756  0.9498 -0.6400  0.6571
  166MOL0     C22341   3.012   9.386   3.085 -0.9598  1.0613 -1.5808
  166MOL0     C22342   2.917   9.482   3.114 -0.0740 -1.1032  0.4195
  166MOL0     H22343   2.487   9.705   3.478 -1.5494  0.9130 -1.5461
  166MOL0     H22344   2.408   9.932   3.519  0.4737 -3.0167  1.7847
  166MOL0     H22345   2.382  10.182   3.537 -1.1290  0.0026  1.4313
  166MOL0     H22346   2.492  10.174   3.677  0.5227 -1.4818 -0.9401
  166MOL0     H22347   2.566  10.407   3.613 -0.9356  3.0487 -0.8120
  166MOL0     H22348   2.441  10.413   3.490 -2.4386 -4.3529 -0.8948
  166MOL0     H22349   2.265  10.337   3.663  0.6120  0.1448 -1.7214
  166MOL0     H22350   2.380  10.372   3.789  0.6662  0.6118 -0.5459
  166MOL0     H22351   2.406  10.596   3.739 -1.9520  0.5839  2.6587
  166MOL0     H22352   2.304  10.596   3.593 -0.9635  3.2012  0.9967
  166MOL0     H22353   2.170  10.500   3.840  1.7054  2.0766  0.9096
  166MOL0     H22354   2.189  10.669   3.818  1.5068  0.4175 -0.7683
  166MOL0     H22355   2.083  10.651   3.599  3.7135  0.1096  1.3866
  166MOL0     H22356   2.053  10.483   3.619 -2.0973 -0.0786  0.1128
  166MOL0     H22357   1.954  10.716   3.790  0.1791  0.9540 -3.6398
  166MOL0     H22358   1.855  10.622   3.678 -2.6020 -0.1932  1.4621
  166MOL0     H22359   1.806  10.563   3.906 -0.9743 -3.4163 -0.1215
  166MOL0     H22360   1.985  10.497   3.918  3.3361 -2.4279 -4.2567
  166MOL0     H22361   1.670  10.484   3.671  0.6195  1.5730  2.4619
  166MOL0     H22362   1.704  10.310   3.460  1.2736 -0.4847  0.7942
  166MOL0     H22363   1.663  10.145   3.515 -0.2466  0.8510 -2.0224
  166MOL0     H22364   1.502  10.405   3.557 -1.0895 -0.0413  3.8381
  166MOL0     H22365   1.457  10.249   3.618  1.3591  0.3501 -0.3968
  166MOL0     H22366   1.461  10.153   3.391  1.1300 -0.5881  1.3563
  166MOL0     H22367   1.497  10.322   3.328  1.4564 -1.5101  0.6828
  166MOL0     H22368   1.307  10.422   3.438 -2.0735 -0.0215  3.0481
  166MOL0     H22369   1.254  10.264   3.490  0.0676  1.5286  1.9761
  166MOL0     H22370   1.011  10.373   3.200  0.9039 -0.4286  1.9999
  166MOL0     H22371   0.784  10.357   3.175  1.0049  0.9718 -4.7093
  166MOL0     H22372   0.768  10.219   3.055  2.2987  0.1494  0.1269
  166MOL0     H22373   0.689  10.209   3.209  0.3195  1.3128  2.3949
  166MOL0     H22374   0.514   9.828   3.212 -2.4592 -1.2968  1.0154
  166MOL0     H22375   0.434   9.598   3.126 -0.9735  2.3431  1.1605
  166MOL0     H22376   0.733   9.296   3.136  0.8287 -0.1267  0.5810
  166MOL0     H22377   0.635   9.197   3.248  1.2633  0.3138  0.3495
  166MOL0     H22378   0.595   9.217   2.952  3.6129 -1.4780 -1.2566
  166MOL0     H22379   0.669   9.073   3.029 -3.0002 -2.0735  0.4609
  166MOL0     H22380   0.447   9.021   2.935  1.3137  0.3893 -0.4698
  166MOL0     H22381   0.380   9.164   3.020  0.4166  1.0094  0.5043
  166MOL0     H22382   0.419   9.082   3.236  0.7236  0.9543 -0.4476
  166MOL0     H22383   0.303   8.984   3.145 -0.7866 -1.2908  0.2334
  166MOL0     H22384   0.583   8.904   3.253 -1.9027 -0.7847  1.8533
  166MOL0     H22385   0.524   8.832   3.106 -0.9680  1.2421 -1.5795
  166MOL0     H22386   0.447   8.771   3.387 -0.7491 -1.0571 -0.5398
  166MOL0     H22387   0.307   8.850   3.311 -0.8535 -2.9305 -1.4823
  166MOL0     H22388   0.322   8.671   3.139 -0.9806 -0.8435 -0.5995
  166MOL0     H22389   0.286   8.626   3.305 -1.0635 -0.1107 -1.4106
  166MOL0     H22390   0.557   8.605   3.168  0.2204 -2.8481 -2.1786
  166MOL0     H22391   0.440   8.474   3.183  0.7935  0.2387 -0.6453
  166MOL0     H22392   0.733   9.406   3.329  2.2557  0.5947  0.5764
  166MOL0     H22393   0.842   9.636   3.396 -1.9191 -4.9740  2.6122
  166MOL0     H22394   1.031   9.898   3.330 -0.4932 -0.0737  0.6264
  166MOL0     H22395   1.245  10.057   3.334 -0.4854  1.7348  3.9165
  166MOL0     H22396   2.801  10.095   3.443 -0.7900  0.6339 -0.3626
  166MOL0     H22397   2.883   9.854   3.395 -0.1802  1.4062 -2.3450
  166MOL0     H22398   2.941   9.482   3.451 -0.7001 -0.7210  0.6189
  166MOL0     H22399   3.111   9.314   3.412 -0.1297  4.6693  2.7008
  166MOL0     H22400   3.255   9.428   3.024 -3.0128 -3.1323 -0.2537
  166MOL0     H22401   3.344   9.422   3.178  2.4236 -0.1334 -0.9566
  166MOL0     H22402   3.477   9.234   3.090  0.6290  0.6473  1.1922
  166MOL0     H22403   3.498   9.395   3.014 -0.0946 -1.0612 -0.0771
  166MOL0     H22404   3.363   9.138   2.907 -1.4446  0.8212  0.6606
  166MOL0     H22405   3.506   9.220   2.846 -0.7033 -4.6154  0.4964
  166MOL0     H22406   3.204   9.308   2.828  1.0105 -2.2469  2.0929
  166MOL0     H22407   3.325   9.240   2.706  0.7219 -0.1252 -1.2843
  166MOL0     H22408   3.411   9.671   2.743  0.2899 -0.6079 -0.4863
  166MOL0     H22409   3.058   9.356   2.991 -0.1669  5.2670 -2.7296
  166MOL0     H22410   2.861   9.539   3.040 -2.4293 -4.0297 -0.2720
  167MOL0     O22411   9.385  10.517   1.548 -0.2984 -0.3791  0.5578
  167MOL0     C22412   9.333  10.624   1.543  0.1342  0.1691  0.7192
  167MOL0     O22413   9.199  10.652   1.547 -0.4513  0.5632  0.4773
  167MOL0     C22414   9.106  10.567   1.583 -0.2088 -0.2784 -0.4849
  167MOL0     C22415   9.124  10.442   1.641 -0.1247  0.1222  0.4865
  167MOL0     C22416   9.010  10.369   1.677 -0.1026 -0.3788  0.4146
  167MOL0     C22417   8.881  10.418   1.675  0.2561  0.2322  0.1729
  167MOL0     O22418   8.768  10.355   1.715 -0.5112 -0.1845  0.4009
  167MOL0     C22419   8.779  10.277   1.835  0.1446  0.4285 -0.9949
  167MOL0     C22420   8.797  10.362   1.958  0.2894 -0.3997  0.0489
  167MOL0     C22421   8.678  10.457   1.990  0.1936 -0.7317 -0.5450
  167MOL0     C22422   8.707  10.549   2.113 -0.3002 -0.2575  0.3900
  167MOL0     C22423   8.827  10.654   2.107  0.1195 -0.4755  0.0863
  167MOL0     C22424   8.834  10.728   1.981 -0.0943  1.0971  0.6233
  167MOL0     C22425   8.732  10.840   1.974  0.2810 -0.0009 -0.4331
  167MOL0     C22426   8.764  10.957   2.063  0.0086  0.1317  0.0136
  167MOL0     N22427   8.651  11.050   2.072  0.0538 -0.2657  0.6546
  167MOL0     C22428   8.627  11.144   1.967 -0.5053  0.7208 -0.5422
  167MOL0     C22429   8.516  11.215   2.011 -0.1826 -0.0209  0.2080
  167MOL0     C22430   8.471  11.335   1.936 -0.4445 -0.0127 -0.0704
  167MOL0     C22431   8.382  11.323   1.811  0.5746  0.7677  0.4914
  167MOL0     C22432   8.259  11.221   1.809 -0.1156 -0.2820  0.8682
  167MOL0     C22433   8.164  11.232   1.930  0.2929  0.5770  0.4359
  167MOL0     O22434   8.196  11.133   2.024 -0.2156 -0.0459  0.8840
  167MOL0     C22435   8.164  11.000   2.013  0.5383  0.4301 -0.0560
  167MOL0     C22436   8.253  10.916   2.085  1.4509 -0.4445 -0.5902
  167MOL0     C22437   8.258  10.773   2.076  1.0660 -0.7750 -0.0652
  167MOL0     C22438   8.337  10.698   2.170 -0.8021 -0.3781  0.1515
  167MOL0     C22439   8.155  10.712   1.981 -0.2220 -0.4100 -0.0008
  167MOL0     C22440   8.138  10.569   1.973 -1.7055  0.3842  0.4588
  167MOL0     O22441   8.024  10.531   1.908 -0.2982 -0.4039 -0.1433
  167MOL0     C22442   8.014  10.404   1.864 -0.5122  0.1926 -0.2430
  167MOL0     C22443   7.949  10.310   1.936 -1.0072  0.4009  0.3967
  167MOL0     C22444   7.939  10.185   1.889 -0.5605  0.4593 -0.4220
  167MOL0     C22445   7.987  10.143   1.764 -0.7748  0.0889 -0.0449
  167MOL0     O22446   7.951  10.029   1.701 -0.0323 -0.0742 -0.0543
  167MOL0     C22447   7.901   9.915   1.774 -0.2187 -0.2727 -0.5994
  167MOL0     C22448   7.914   9.799   1.675 -0.1075 -0.4015 -0.6196
  167MOL0     C22449   7.811   9.698   1.702  0.4523 -0.8342  1.1646
  167MOL0     C22450   7.851   9.618   1.821 -0.0063 -0.5999  0.2896
  167MOL0     C22451   7.763   9.490   1.835 -0.2088 -0.2175 -0.8063
  167MOL0     C22452   7.785   9.437   1.978 -1.0884 -0.1251  0.6354
  167MOL0     C22453   7.920   9.370   1.983 -0.5878 -0.1640 -0.8295
  167MOL0     C22454   7.993   9.405   2.111  0.6563  0.4808  0.1729
  167MOL0    Cl22455   7.910   9.374   2.269 -0.4927  0.4323  0.1292
  167MOL0     C22456   8.041  10.246   1.684  0.0981  0.3525 -0.4648
  167MOL0     C22457   8.056  10.379   1.736  0.4759  0.3501  0.0028
  167MOL0     O22458   8.225  10.496   2.020  0.0777  0.5423 -0.8205
  167MOL0     C22459   8.070  10.802   1.901 -1.1913 -0.0679  0.0074
  167MOL0     C22460   8.084  10.942   1.917 -0.1488  0.1707 -1.3909
  167MOL0     N22461   8.487  11.168   2.137  0.1222  0.0975 -0.1895
  167MOL0     N22462   8.564  11.067   2.169 -1.0097  0.1481 -0.3639
  167MOL0     C22463   8.862  10.542   1.618  1.2532  0.4191 -0.2078
  167MOL0     C22464   8.976  10.609   1.568  0.2555  0.6084 -0.6842
  167MOL0     C22465   9.424  10.728   1.519  0.2363  0.1328  0.5040
  167MOL0     C22466   9.567  10.722   1.552  0.5459  0.0768 -0.5835
  167MOL0     C22467   9.648  10.835   1.520 -0.5702 -0.1979 -0.3171
  167MOL0     C22468   9.589  10.951   1.470  0.1621 -0.0352 -0.1251
  167MOL0     O22469   9.667  11.062   1.457  0.7397  0.1102 -0.3896
  167MOL0     C22470   9.699  11.099   1.328  0.2794 -0.7817 -0.1498
  167MOL0     C22471   9.740  11.257   1.315 -0.0866  0.3189 -0.3375
  167MOL0     C22472   9.843  11.303   1.420  0.6091  0.1720 -0.4510
  167MOL0     C22473   9.844  11.457   1.423  0.4579  0.8294  0.3047
  167MOL0     C22474   9.748  11.511   1.518  0.6970 -0.5733  1.0358
  167MOL0     C22475   9.682  11.554   1.607 -0.6249  0.4041  0.6121
  167MOL0     C22476   9.452  10.956   1.442  0.8316 -0.0209 -0.8084
  167MOL0     C22477   9.364  10.846   1.469  0.0274 -0.2439  0.5808
  167MOL0     H22478   9.221  10.396   1.658 -0.4496 -1.1574 -0.9554
  167MOL0     H22479   9.027  10.274   1.727 -2.0521 -1.6735 -1.1936
  167MOL0     H22480   8.689  10.218   1.857  2.9616 -2.7665  3.6831
  167MOL0     H22481   8.866  10.211   1.828 -0.3008 -0.3492  0.4094
  167MOL0     H22482   8.821  10.306   2.048 -0.9166 -0.1140  0.5585
  167MOL0     H22483   8.885  10.426   1.944  0.3925 -0.0564  1.9917
  167MOL0     H22484   8.656  10.520   1.903 -1.5325 -3.2562 -2.0694
  167MOL0     H22485   8.583  10.414   2.021 -1.4511  0.9203 -2.9082
  167MOL0     H22486   8.612  10.597   2.138 -1.9832 -3.9717  1.9229
  167MOL0     H22487   8.725  10.491   2.204 -1.6632  1.3781  1.7816
  167MOL0     H22488   8.815  10.713   2.198 -0.1545  0.7182 -0.7060
  167MOL0     H22489   8.921  10.598   2.111  1.3186  1.4735  0.1054
  167MOL0     H22490   8.931  10.772   1.956  0.5249  0.3567  1.6316
  167MOL0     H22491   8.835  10.654   1.901  1.2333  1.2458  0.4862
  167MOL0     H22492   8.734  10.878   1.871 -0.5854  1.4747  0.0670
  167MOL0     H22493   8.629  10.811   1.999  0.3271 -0.2393 -0.5136
  167MOL0     H22494   8.852  11.014   2.032 -0.2211 -0.3166 -1.5059
  167MOL0     H22495   8.787  10.921   2.164 -0.0914  3.9647  1.5961
  167MOL0     H22496   8.679  11.156   1.872 -0.1420  0.3563 -0.3918
  167MOL0     H22497   8.406  11.403   1.993 -1.7927  2.3373 -3.9989
  167MOL0     H22498   8.566  11.386   1.915  0.0406  0.3249  2.5089
  167MOL0     H22499   8.439  11.291   1.723  0.2433  0.5268  0.3609
  167MOL0     H22500   8.355  11.425   1.782  1.3261  0.5673 -0.9998
  167MOL0     H22501   8.307  11.123   1.808  3.1815  1.1917  0.9140
  167MOL0     H22502   8.209  11.243   1.714  2.5584  0.7472 -0.4135
  167MOL0     H22503   8.060  11.215   1.900  0.6099 -3.5413  1.1532
  167MOL0     H22504   8.175  11.328   1.982 -0.0459  0.4798  0.6861
  167MOL0     H22505   8.323  10.963   2.154  0.9566  0.5961 -0.7864
  167MOL0     H22506   8.279  10.651   2.250 -0.2391  0.1170  0.8607
  167MOL0     H22507   8.403  10.632   2.112  2.9806  4.1230 -1.2757
  167MOL0     H22508   8.405  10.767   2.221 -0.3291 -0.4839 -0.3244
  167MOL0     H22509   7.915  10.341   2.035 -0.6295  2.2082 -0.0067
  167MOL0     H22510   7.900  10.111   1.959 -0.3327 -1.9128 -2.6642
  167MOL0     H22511   7.952   9.897   1.869 -0.6333  0.6478 -0.1953
  167MOL0     H22512   7.801   9.932   1.814 -0.0195  0.5803 -0.4412
  167MOL0     H22513   7.904   9.836   1.572  2.2777  0.5846 -0.5689
  167MOL0     H22514   8.014   9.755   1.674 -1.0038 -2.5741 -1.0772
  167MOL0     H22515   7.805   9.629   1.617 -1.2691 -2.6481  2.6553
  167MOL0     H22516   7.717   9.751   1.720  1.9430  2.4874 -0.0036
  167MOL0     H22517   7.957   9.593   1.831 -0.1134 -1.3292 -0.2765
  167MOL0     H22518   7.824   9.686   1.902  1.5859 -0.1089  0.4452
  167MOL0     H22519   7.786   9.430   1.747  2.1244 -0.7218  0.0615
  167MOL0     H22520   7.656   9.510   1.833  0.1021  1.6081 -2.3429
  167MOL0     H22521   7.786   9.522   2.047 -1.7471  0.5645 -0.1871
  167MOL0     H22522   7.707   9.363   1.993 -2.0957  0.9963  1.0968
  167MOL0     H22523   7.984   9.387   1.896 -0.4837 -1.1673 -0.9635
  167MOL0     H22524   7.901   9.262   1.980 -0.2102 -0.2341 -0.7949
  167MOL0     H22525   8.025   9.509   2.096  3.4633 -0.4898 -1.3062
  167MOL0     H22526   8.090   9.356   2.123 -0.7148 -2.5745 -0.4439
  167MOL0     H22527   8.072  10.226   1.582 -3.5089 -2.5389 -1.1977
  167MOL0     H22528   8.109  10.455   1.679  0.1441  0.0053 -0.7868
  167MOL0     H22529   7.998  10.775   1.824 -0.1654  2.0343 -1.8322
  167MOL0     H22530   8.026  11.004   1.850  2.8612  1.7994 -2.7006
  167MOL0     H22531   8.758  10.571   1.604  0.2370 -2.2465  1.0172
  167MOL0     H22532   8.961  10.706   1.523  1.7748  0.9964 -0.4255
  167MOL0     H22533   9.607  10.630   1.594  0.0675 -0.0923 -0.4912
  167MOL0     H22534   9.753  10.834   1.549  0.1547 -2.5513 -2.6045
  167MOL0     H22535   9.793  11.047   1.308  1.1641  0.9014 -0.5897
  167MOL0     H22536   9.626  11.068   1.254  0.0717 -0.1755 -0.2076
  167MOL0     H22537   9.644  11.309   1.325 -0.8994 -1.4901  2.3802
  167MOL0     H22538   9.774  11.273   1.212 -2.4710 -0.6959 -1.3537
  167MOL0     H22539   9.940  11.273   1.380  0.5164  1.8137 -2.0000
  167MOL0     H22540   9.820  11.275   1.523 -3.1369  1.9900 -0.6225
  167MOL0     H22541   9.825  11.505   1.326  2.3388  3.1389  0.9786
  167MOL0     H22542   9.951  11.470   1.444  1.1183 -5.6593  3.4324
  167MOL0     H22543   9.618  11.589   1.686 -2.1028  2.2263 -1.2295
  167MOL0     H22544   9.409  11.045   1.398  1.2861  0.8960  0.5432
  167MOL0     H22545   9.261  10.878   1.457 -0.5188 -2.0454  0.2103
  168MOL0     O22546   9.410   3.406   4.522 -1.1398 -0.0544  0.0084
  168MOL0     C22547   9.387   3.486   4.620 -0.3012 -0.9799  0.7081
  168MOL0     O22548   9.435   3.482   4.753  1.1644  0.3089  0.3817
  168MOL0     C22549   9.528   3.387   4.773 -0.5948 -1.0026 -0.4167
  168MOL0     C22550   9.649   3.388   4.704  1.3056 -0.3522 -0.5228
  168MOL0     C22551   9.735   3.282   4.711 -0.6247  0.2476 -1.6430
  168MOL0     C22552   9.710   3.168   4.795  0.5691  0.0873 -0.1707
  168MOL0     O22553   9.799   3.062   4.801 -0.5101 -0.0771  0.1962
  168MOL0     C22554   9.742   2.941   4.875 -1.0645 -0.2924  0.2277
  168MOL0     C22555   9.848   2.825   4.862  0.8097 -0.2996 -0.4412
  168MOL0     C22556   9.817   2.719   4.963 -1.1073 -0.3555 -0.8974
  168MOL0     C22557   9.673   2.674   4.976  0.3787 -0.1883 -0.4349
  168MOL0     C22558   9.656   2.560   5.079  0.2310  0.2348  0.8281
  168MOL0     C22559   9.534   2.564   5.161 -0.1810  0.4035 -0.1729
  168MOL0     C22560   9.552   2.473   5.283 -0.0348 -0.3003  0.1422
  168MOL0     C22561   9.425   2.387   5.310 -0.1666  0.5252 -0.6322
  168MOL0     N22562   9.390   2.280   5.217 -0.4524 -0.0228  0.3566
  168MOL0     C22563   9.480   2.216   5.129 -0.2234  0.3576  0.4791
  168MOL0     C22564   9.433   2.090   5.114  0.5437  0.1895  0.4109
  168MOL0     C22565   9.509   1.986   5.029  0.2856 -0.8032 -0.5822
  168MOL0     C22566   9.508   1.847   5.102  1.2025 -0.1522 -0.1838
  168MOL0     C22567   9.569   1.854   5.244 -1.0563  0.2251  0.2611
  168MOL0     C22568   9.720   1.880   5.244 -0.0487  0.0590 -0.1684
  168MOL0     O22569   9.786   1.767   5.169  0.1719 -0.2401  0.1116
  168MOL0     C22570   9.924   1.737   5.202 -0.0329 -0.6919 -0.1425
  168MOL0     C22571   9.987   1.638   5.124 -0.2021  0.1000 -0.7876
  168MOL0     C22572  10.124   1.606   5.150  0.2344  0.3263  1.5505
  168MOL0     C22573  10.191   1.508   5.053 -0.3288 -0.3041  0.7133
  168MOL0     C22574  10.194   1.672   5.243  0.9403 -0.0082  0.4250
  168MOL0     C22575  10.342   1.671   5.242  0.5363  0.1527 -0.7213
  168MOL0     O22576  10.413   1.608   5.338  0.4444 -0.9046  0.1048
  168MOL0     C22577  10.542   1.596   5.317 -0.1117  0.4004  1.0354
  168MOL0     C22578  10.630   1.626   5.429  0.1468  0.7411  0.9890
  168MOL0     C22579  10.769   1.629   5.419  0.8386 -0.4477  0.4602
  168MOL0     C22580  10.833   1.591   5.293  0.1690  0.0363 -0.6906
  168MOL0     O22581  10.968   1.580   5.284 -0.3584 -0.3830  0.5918
  168MOL0     C22582  11.053   1.642   5.384 -0.4173 -0.0498 -0.5409
  168MOL0     C22583  11.199   1.593   5.376  0.1747  2.1583  0.0863
  168MOL0     C22584  11.300   1.690   5.409  0.5924 -0.6134  0.4048
  168MOL0     C22585  11.323   1.789   5.291  0.0696 -0.2465 -0.7477
  168MOL0     C22586  11.346   1.735   5.148 -0.7964  0.2287 -0.4156
  168MOL0     C22587  11.438   1.614   5.142 -0.3803  0.1838 -0.0202
  168MOL0     C22588  11.534   1.597   5.021 -0.9122  0.6570 -0.5445
  168MOL0     C22589  11.552   1.459   4.974 -0.2712  0.9862 -0.6686
  168MOL0    Cl22590  11.405   1.380   4.930 -0.3912  0.2036  0.2638
  168MOL0     C22591  10.753   1.561   5.189  1.5333  0.4160  0.2179
  168MOL0     C22592  10.613   1.557   5.198 -0.4038  0.9542 -0.0500
  168MOL0     O22593  10.389   1.719   5.143 -0.4840 -0.4439 -0.3848
  168MOL0     C22594  10.136   1.766   5.323 -0.1959  0.2723  0.3758
  168MOL0     C22595  10.006   1.801   5.300 -0.0998 -0.8701 -0.5972
  168MOL0     N22596   9.322   2.074   5.198  0.5773 -0.2709  0.0871
  168MOL0     N22597   9.291   2.190   5.243  0.1344 -0.1999 -0.5276
  168MOL0     C22598   9.586   3.169   4.859 -0.0256 -0.6530 -0.7863
  168MOL0     C22599   9.496   3.278   4.854 -0.1779  0.1786  0.1077
  168MOL0     C22600   9.303   3.599   4.572  0.4907  0.4899 -0.8441
  168MOL0     C22601   9.261   3.620   4.435 -0.9979 -0.2994 -0.1923
  168MOL0     C22602   9.176   3.723   4.401 -0.5589 -0.2436  0.8727
  168MOL0     C22603   9.115   3.802   4.500 -0.2244 -1.1606 -1.0346
  168MOL0     O22604   9.027   3.905   4.484  0.7837  1.0948  0.2414
  168MOL0     C22605   9.023   3.977   4.364 -0.2672 -0.0127  0.9434
  168MOL0     C22606   8.946   4.103   4.395 -0.5061 -0.0377 -0.4166
  168MOL0     C22607   8.949   4.198   4.282  0.2994 -1.4234  0.6098
  168MOL0     C22608   8.868   4.325   4.311 -0.0184  0.5215 -0.9500
  168MOL0     C22609   8.728   4.290   4.323 -1.0628  0.4211  1.1566
  168MOL0     C22610   8.614   4.267   4.307 -0.2881  0.6729 -0.1356
  168MOL0     C22611   9.156   3.783   4.625  0.4705  0.1634 -0.3169
  168MOL0     C22612   9.250   3.689   4.669 -1.5097  0.6755  0.6799
  168MOL0     H22613   9.654   3.457   4.621  2.2457  1.1208  0.7121
  168MOL0     H22614   9.821   3.285   4.645  1.4009  1.5918  0.8681
  168MOL0     H22615   9.726   2.956   4.982  1.0750  2.4194  0.2957
  168MOL0     H22616   9.648   2.911   4.829 -1.5243  0.0861  0.9043
  168MOL0     H22617   9.846   2.791   4.758 -0.7291  1.1469 -0.9300
  168MOL0     H22618   9.950   2.861   4.877  1.1121  1.1881 -4.7117
  168MOL0     H22619   9.867   2.629   4.926  2.7915  0.9098  0.7879
  168MOL0     H22620   9.863   2.747   5.058  2.4950 -2.5400 -1.7916
  168MOL0     H22621   9.607   2.758   4.999  0.7745 -0.2374  1.0341
  168MOL0     H22622   9.640   2.638   4.878  2.4924 -2.4959 -0.3926
  168MOL0     H22623   9.659   2.463   5.028  3.5437  1.1251 -0.9158
  168MOL0     H22624   9.742   2.564   5.146  0.7320  0.9743  0.1590
  168MOL0     H22625   9.519   2.666   5.198 -1.2597 -0.1951  1.1567
  168MOL0     H22626   9.454   2.521   5.099 -0.5308 -2.9776  2.3337
  168MOL0     H22627   9.636   2.402   5.277  0.1688 -0.2984  2.2204
  168MOL0     H22628   9.552   2.537   5.371 -2.3661  0.0629 -0.0755
  168MOL0     H22629   9.333   2.446   5.317 -0.3850  0.2273 -0.9935
  168MOL0     H22630   9.421   2.349   5.413  0.5145  1.5719 -0.1994
  168MOL0     H22631   9.578   2.250   5.097  1.0232 -1.6906  1.9058
  168MOL0     H22632   9.455   1.973   4.934  0.8982  2.2579 -1.4794
  168MOL0     H22633   9.614   2.009   5.005  0.9906 -2.5111  0.6690
  168MOL0     H22634   9.567   1.777   5.042 -0.5726  0.2585 -2.5663
  168MOL0     H22635   9.402   1.822   5.116  0.5390  1.0674 -2.4488
  168MOL0     H22636   9.548   1.758   5.292  0.6610 -1.6008 -2.3261
  168MOL0     H22637   9.518   1.931   5.303  1.9163 -0.5707  4.3114
  168MOL0     H22638   9.745   1.884   5.351  0.6142  2.2119 -0.3586
  168MOL0     H22639   9.742   1.970   5.186 -0.6143 -0.9136 -1.9603
  168MOL0     H22640   9.933   1.591   5.043  1.0294 -0.4980 -1.2736
  168MOL0     H22641  10.291   1.543   5.028  0.8918 -1.3002  3.6870
  168MOL0     H22642  10.181   1.404   5.089 -2.1643 -0.1525  0.7682
  168MOL0     H22643  10.126   1.516   4.965 -1.1531  0.1152  1.3437
  168MOL0     H22644  10.589   1.647   5.527 -4.3915  2.5392 -1.0238
  168MOL0     H22645  10.819   1.677   5.503  1.8031  0.7557 -0.7530
  168MOL0     H22646  11.070   1.746   5.355  0.5468 -0.9575 -3.6445
  168MOL0     H22647  11.021   1.632   5.488  1.9909  0.3679  0.3104
  168MOL0     H22648  11.207   1.514   5.451 -3.2071  1.7317  0.1216
  168MOL0     H22649  11.224   1.540   5.284 -2.5772  0.7852  0.0402
  168MOL0     H22650  11.392   1.641   5.440  0.7343 -0.0944  0.8149
  168MOL0     H22651  11.273   1.741   5.501  3.8928 -1.1854  1.8321
  168MOL0     H22652  11.241   1.861   5.281 -1.3938 -2.0613 -3.1138
  168MOL0     H22653  11.416   1.836   5.322 -0.0902 -0.5830  0.2698
  168MOL0     H22654  11.401   1.813   5.095 -3.5590  2.4185 -0.2886
  168MOL0     H22655  11.246   1.721   5.105 -1.4261  2.3578  0.2409
  168MOL0     H22656  11.503   1.613   5.230 -1.4245  0.2603  0.7708
  168MOL0     H22657  11.373   1.526   5.149 -2.0776  1.2840 -1.1165
  168MOL0     H22658  11.625   1.647   5.053 -2.5793  4.6268 -1.3921
  168MOL0     H22659  11.489   1.655   4.939 -2.5866 -0.8512 -0.7723
  168MOL0     H22660  11.590   1.396   5.055 -2.2510 -0.4443 -0.7817
  168MOL0     H22661  11.613   1.452   4.883 -1.9374 -0.1291 -1.7522
  168MOL0     H22662  10.800   1.539   5.094  0.0999  0.2271 -0.4827
  168MOL0     H22663  10.554   1.527   5.112 -0.9353 -1.1445  0.9623
  168MOL0     H22664  10.192   1.829   5.391  2.0433  0.6040 -1.6333
  168MOL0     H22665   9.982   1.879   5.371  2.5152 -0.4674 -0.0657
  168MOL0     H22666   9.547   3.077   4.902  4.0514 -0.1807  5.2212
  168MOL0     H22667   9.402   3.265   4.908 -1.4663 -2.0492 -2.4307
  168MOL0     H22668   9.273   3.543   4.359 -1.0893 -1.1152  0.6095
  168MOL0     H22669   9.133   3.720   4.301 -1.2440  1.0660  1.1064
  168MOL0     H22670   9.127   3.995   4.337 -0.4787  1.8774  1.2841
  168MOL0     H22671   8.968   3.916   4.292  1.4958  0.9681 -1.3562
  168MOL0     H22672   8.991   4.144   4.486 -5.3639 -1.2914  2.9622
  168MOL0     H22673   8.847   4.073   4.430 -0.0253 -2.3455 -0.9196
  168MOL0     H22674   8.918   4.148   4.190 -0.4018  0.2366 -0.0884
  168MOL0     H22675   9.046   4.247   4.275 -0.8770  0.7722 -3.2382
  168MOL0     H22676   8.891   4.403   4.238  0.8209  3.0840  1.8940
  168MOL0     H22677   8.903   4.359   4.409  0.1120  2.2761 -1.5686
  168MOL0     H22678   8.510   4.243   4.299 -0.2448  0.8413 -1.4644
  168MOL0     H22679   9.120   3.844   4.707  0.3171 -0.4363  0.0668
  168MOL0     H22680   9.268   3.684   4.775  0.3004  0.3146  0.3820
  169MOL0     O22681   6.688   9.801   1.578  0.6512  0.5125  0.1077
  169MOL0     C22682   6.632   9.718   1.508 -0.3876  0.2971  0.3810
  169MOL0     O22683   6.695   9.618   1.443  0.0885 -0.8791  0.2339
  169MOL0     C22684   6.829   9.595   1.476 -0.5375 -0.9921 -0.2890
  169MOL0     C22685   6.920   9.629   1.375 -0.1048  0.4824 -0.5238
  169MOL0     C22686   7.057   9.619   1.387 -0.7598  0.0894 -0.8692
  169MOL0     C22687   7.121   9.588   1.508  0.1451 -0.2667  0.4731
  169MOL0     O22688   7.257   9.607   1.519  0.2493  0.2389  0.1941
  169MOL0     C22689   7.307   9.638   1.643 -0.1173 -0.4466 -0.1324
  169MOL0     C22690   7.448   9.710   1.634 -1.0609 -0.8388 -0.3575
  169MOL0     C22691   7.454   9.863   1.624  0.1780  0.3929  0.0533
  169MOL0     C22692   7.445   9.910   1.481 -0.0948 -0.3000  0.5027
  169MOL0     C22693   7.441  10.065   1.476  0.8257  0.4944  0.6151
  169MOL0     C22694   7.405  10.126   1.340 -0.3009  0.1607  0.4849
  169MOL0     C22695   7.530  10.127   1.252 -0.2191 -0.3083 -0.7945
  169MOL0     C22696   7.516  10.212   1.116  0.7326  0.1704 -0.0641
  169MOL0     N22697   7.494  10.367   1.145 -0.3546  0.8249 -0.3091
  169MOL0     C22698   7.378  10.445   1.165  0.1109  0.5968 -0.9582
  169MOL0     C22699   7.427  10.570   1.208 -0.1537  0.9630 -0.5206
  169MOL0     C22700   7.353  10.695   1.253 -0.4765  0.3646  0.0711
  169MOL0     C22701   7.452  10.821   1.249 -0.4384  0.6325 -0.0795
  169MOL0     C22702   7.369  10.961   1.262 -0.4199  0.3293  0.7769
  169MOL0     C22703   7.468  11.075   1.238  0.1262  0.4448 -0.6597
  169MOL0     O22704   7.571  11.079   1.333  0.3035  0.8603  0.9311
  169MOL0     C22705   7.671  11.166   1.319 -0.8718  0.0361  0.4215
  169MOL0     C22706   7.744  11.185   1.436  0.1406  0.9854  0.3098
  169MOL0     C22707   7.864  11.256   1.438 -0.8876  0.3319 -0.0267
  169MOL0     C22708   7.932  11.254   1.563 -0.1148  0.8135  0.4851
  169MOL0     C22709   7.909  11.319   1.319  0.0866  0.5581 -0.2465
  169MOL0     C22710   8.032  11.394   1.305 -0.0411 -0.4284  0.6777
  169MOL0     O22711   8.136  11.373   1.381  0.9390 -0.2661  0.6605
  169MOL0     C22712   8.244  11.453   1.350 -1.5617  1.1587 -0.0368
  169MOL0     C22713   8.332  11.408   1.245 -0.2336 -0.0417 -0.3744
  169MOL0     C22714   8.442  11.485   1.214 -1.3716 -0.0458  0.0688
  169MOL0     C22715   8.476  11.607   1.282  0.7836 -0.1337  0.3924
  169MOL0     O22716   8.596  11.676   1.249  0.3327  0.1280 -0.0409
  169MOL0     C22717   8.560  11.804   1.191  0.1945 -0.4109  0.0960
  169MOL0     C22718   8.584  11.913   1.301 -0.2783 -0.3340 -0.1645
  169MOL0     C22719   8.582  12.048   1.229  0.2143  0.1368 -0.7599
  169MOL0     C22720   8.634  12.165   1.313 -0.9019 -0.0374 -0.3740
  169MOL0     C22721   8.783  12.161   1.346  0.5122  0.8392  0.5135
  169MOL0     C22722   8.858  12.216   1.223  0.4991 -0.0247  0.2440
  169MOL0     C22723   9.009  12.221   1.265 -0.9278  0.2816 -0.7226
  169MOL0     C22724   9.119  12.267   1.167 -1.3749 -0.6213 -0.1360
  169MOL0    Cl22725   9.275  12.252   1.265 -0.0737  0.2253  0.3164
  169MOL0     C22726   8.393  11.643   1.395 -0.4522 -0.3153  0.1648
  169MOL0     C22727   8.268  11.574   1.427  0.2293  0.5958  1.0579
  169MOL0     O22728   8.021  11.489   1.228 -0.2346  0.0023  0.3587
  169MOL0     C22729   7.831  11.303   1.203  0.5675 -0.8560  0.5092
  169MOL0     C22730   7.716  11.228   1.204  0.6301  0.1187 -0.0298
  169MOL0     N22731   7.567  10.564   1.191  0.0643  0.5192 -0.3139
  169MOL0     N22732   7.604  10.446   1.160 -0.5327  0.0261 -0.0139
  169MOL0     C22733   7.024   9.560   1.613 -0.0672  0.4811 -0.4600
  169MOL0     C22734   6.893   9.566   1.598  0.4439  0.1952  0.0094
  169MOL0     C22735   6.485   9.725   1.508 -0.8620 -0.7471  1.2157
  169MOL0     C22736   6.419   9.636   1.419 -0.2976  0.4498 -0.1736
  169MOL0     C22737   6.285   9.613   1.418 -0.2161  0.0864  0.5170
  169MOL0     C22738   6.211   9.675   1.514 -0.7407 -0.0759 -0.5602
  169MOL0     O22739   6.076   9.673   1.540  0.6296  0.2240  0.1467
  169MOL0     C22740   5.994   9.590   1.462 -1.0533  0.6858  0.1814
  169MOL0     C22741   5.844   9.590   1.489  0.0804  0.4673 -0.2030
  169MOL0     C22742   5.762   9.564   1.353  0.3516 -0.0843 -0.2360
  169MOL0     C22743   5.754   9.423   1.318  1.0676 -0.2503 -0.7131
  169MOL0     C22744   5.720   9.332   1.431  0.5978 -0.6021  0.0863
  169MOL0     C22745   5.679   9.274   1.527 -0.3745 -0.0709  0.6073
  169MOL0     C22746   6.267   9.773   1.603 -0.4809  0.4065 -0.8939
  169MOL0     C22747   6.410   9.794   1.601  1.3237 -0.5738  0.0840
  169MOL0     H22748   6.872   9.656   1.281 -2.4771  0.2699  0.5618
  169MOL0     H22749   7.116   9.647   1.300  2.3395 -1.7677  0.4521
  169MOL0     H22750   7.239   9.706   1.696  1.1117  0.9132 -0.2298
  169MOL0     H22751   7.325   9.550   1.705  2.3651  1.4537  2.0759
  169MOL0     H22752   7.508   9.680   1.721 -1.7814  1.5186  1.0488
  169MOL0     H22753   7.509   9.664   1.556 -0.8320 -0.6207 -0.3095
  169MOL0     H22754   7.366   9.902   1.676  0.9949  0.8270  1.1339
  169MOL0     H22755   7.545   9.908   1.664 -0.3045  2.9067 -1.4217
  169MOL0     H22756   7.538   9.895   1.425 -0.2373 -0.4670  0.3082
  169MOL0     H22757   7.353   9.874   1.434 -0.6901  1.1959  0.4467
  169MOL0     H22758   7.358  10.101   1.537  0.0887  3.1653 -1.7709
  169MOL0     H22759   7.536  10.102   1.516  2.6253 -2.5334 -0.4971
  169MOL0     H22760   7.315  10.082   1.297 -1.1149  0.1234  2.1415
  169MOL0     H22761   7.370  10.227   1.361 -1.6581 -0.5112  1.6575
  169MOL0     H22762   7.615  10.173   1.304 -1.6303  2.7259 -0.9575
  169MOL0     H22763   7.558  10.023   1.234  3.6401  1.0283 -4.2753
  169MOL0     H22764   7.437  10.180   1.048  0.4874  2.8704 -1.1947
  169MOL0     H22765   7.617  10.198   1.076  0.7262 -2.0504  0.5613
  169MOL0     H22766   7.273  10.419   1.179  0.5875  0.0738  2.4057
  169MOL0     H22767   7.262  10.706   1.193 -1.1547 -0.0771  0.9776
  169MOL0     H22768   7.317  10.685   1.356 -1.7926 -1.7486 -0.5327
  169MOL0     H22769   7.505  10.819   1.154  0.1270 -2.1034  0.2136
  169MOL0     H22770   7.524  10.813   1.332 -1.2077 -0.0608  0.5402
  169MOL0     H22771   7.323  10.970   1.361 -1.8674  1.4039  0.0385
  169MOL0     H22772   7.287  10.948   1.190  1.8144 -1.1110 -1.6787
  169MOL0     H22773   7.416  11.169   1.218  0.1571  0.6090  0.0042
  169MOL0     H22774   7.512  11.049   1.141 -0.7466  1.8332 -1.4540
  169MOL0     H22775   7.710  11.124   1.518 -4.1907  0.3438 -1.6941
  169MOL0     H22776   7.891  11.328   1.633 -3.7672 -0.4844 -0.0601
  169MOL0     H22777   7.909  11.160   1.614 -0.6040  2.2229  3.0525
  169MOL0     H22778   8.041  11.246   1.557 -0.2740 -0.7993 -0.9532
  169MOL0     H22779   8.302  11.317   1.194 -0.9587  0.3265 -0.6022
  169MOL0     H22780   8.509  11.440   1.142  0.6950 -3.6745  3.8233
  169MOL0     H22781   8.628  11.821   1.107  0.2729  0.3620  0.3088
  169MOL0     H22782   8.458  11.808   1.152 -0.7138  0.9721  2.3987
  169MOL0     H22783   8.510  11.909   1.381  2.3908  3.7027  2.9415
  169MOL0     H22784   8.680  11.887   1.347 -0.1143 -0.3431 -0.5045
  169MOL0     H22785   8.478  12.064   1.199 -0.2814  2.2475  1.7686
  169MOL0     H22786   8.654  12.050   1.146  2.7796  0.8024  1.3373
  169MOL0     H22787   8.605  12.253   1.255  1.4857  0.8425 -0.3350
  169MOL0     H22788   8.574  12.184   1.403 -2.8927  1.5078 -1.9147
  169MOL0     H22789   8.822  12.065   1.381 -0.2743 -0.0346 -0.8986
  169MOL0     H22790   8.792  12.229   1.431  3.2527  2.2485 -0.7738
  169MOL0     H22791   8.836  12.139   1.149 -0.5145  2.1726 -1.9234
  169MOL0     H22792   8.820  12.314   1.192 -0.7633  0.2936  2.5889
  169MOL0     H22793   9.039  12.118   1.290  0.6226  0.2145 -2.6317
  169MOL0     H22794   9.023  12.273   1.360  0.8946  0.1790 -0.8847
  169MOL0     H22795   9.095  12.360   1.115 -1.4275 -1.0521 -0.8985
  169MOL0     H22796   9.126  12.192   1.088  2.9905 -2.0569  1.2808
  169MOL0     H22797   8.427  11.726   1.457 -0.2074  0.8949 -1.5247
  169MOL0     H22798   8.210  11.602   1.514 -2.1324 -1.6079  0.3276
  169MOL0     H22799   7.857  11.361   1.116  2.8450 -2.6654 -0.1416
  169MOL0     H22800   7.668  11.226   1.107 -1.3055 -1.3548  0.9061
  169MOL0     H22801   7.060   9.527   1.710  2.5993 -0.1100 -1.5473
  169MOL0     H22802   6.829   9.563   1.685  0.4164  0.2140 -0.0100
  169MOL0     H22803   6.474   9.578   1.345 -1.8986  0.7458 -1.6376
  169MOL0     H22804   6.247   9.539   1.348 -5.0933  0.6032  2.2592
  169MOL0     H22805   6.006   9.620   1.358 -1.6187  2.4095  0.5909
  169MOL0     H22806   6.043   9.492   1.471  1.9031  2.0484  0.1222
  169MOL0     H22807   5.807   9.682   1.534  0.7023  0.2701  0.7382
  169MOL0     H22808   5.832   9.508   1.561  0.0742 -3.1367 -3.9230
  169MOL0     H22809   5.809   9.626   1.276 -0.9403  0.9880 -0.2083
  169MOL0     H22810   5.663   9.609   1.367  0.4576 -0.3365  1.5637
  169MOL0     H22811   5.850   9.392   1.276 -0.0046 -1.0244 -2.7117
  169MOL0     H22812   5.672   9.410   1.247  1.0548  0.5786 -0.8604
  169MOL0     H22813   5.642   9.208   1.603 -1.2209  0.2966  0.5280
  169MOL0     H22814   6.195   9.819   1.671 -0.7485 -1.5084  0.1989
  169MOL0     H22815   6.455   9.864   1.671 -2.3874  1.5273  0.6553
  170MOL0     O22816   8.827   3.129   2.400  0.0830  0.1832  0.7222
  170MOL0     C22817   8.934   3.110   2.458 -0.7134  0.2729 -0.4509
  170MOL0     O22818   8.949   3.077   2.592  0.2724 -0.4702  0.4900
  170MOL0     C22819   8.835   3.072   2.673 -1.4603  0.3432  0.6234
  170MOL0     C22820   8.712   3.015   2.639 -0.5821  0.7958 -0.7006
  170MOL0     C22821   8.601   3.020   2.727  0.4673  0.4229  0.0219
  170MOL0     C22822   8.619   3.076   2.861  0.3104  0.5441  0.0619
  170MOL0     O22823   8.515   3.072   2.950 -0.3533 -0.9609 -0.3915
  170MOL0     C22824   8.533   3.154   3.069  1.0518 -0.5857 -0.0657
  170MOL0     C22825   8.410   3.128   3.148  0.5236 -0.3565 -0.4626
  170MOL0     C22826   8.415   3.165   3.296  0.0979 -0.5102  0.4962
  170MOL0     C22827   8.282   3.171   3.369  0.2894  0.1887 -0.2802
  170MOL0     C22828   8.297   3.231   3.506  0.7379 -1.2666 -0.6350
  170MOL0     C22829   8.401   3.150   3.593 -0.3695  0.8463  0.5039
  170MOL0     C22830   8.392   3.178   3.752  0.5732  0.0572 -0.1975
  170MOL0     C22831   8.420   3.318   3.790 -0.2461  0.1882 -0.7618
  170MOL0     N22832   8.423   3.322   3.931 -0.3411  0.1038 -0.3290
  170MOL0     C22833   8.353   3.418   4.010  0.3255 -0.3143 -0.4938
  170MOL0     C22834   8.398   3.388   4.136  0.4518  0.8641 -0.9290
  170MOL0     C22835   8.361   3.449   4.264  0.6456 -0.7793  0.1169
  170MOL0     C22836   8.314   3.355   4.372 -0.7700  0.4015  0.3709
  170MOL0     C22837   8.225   3.445   4.463 -0.0362  0.0341  0.0590
  170MOL0     C22838   8.167   3.368   4.592  0.0571 -0.9689  0.2789
  170MOL0     O22839   8.285   3.315   4.664 -0.1647  0.0380 -1.1624
  170MOL0     C22840   8.336   3.402   4.758  0.1519 -0.0465 -0.4177
  170MOL0     C22841   8.371   3.344   4.887 -0.2257 -0.4019 -0.0828
  170MOL0     C22842   8.397   3.418   5.000  0.2799  0.2666  0.7887
  170MOL0     C22843   8.393   3.346   5.131 -0.4752  0.0775  0.8503
  170MOL0     C22844   8.408   3.555   4.985  0.0959 -0.3293  0.0789
  170MOL0     C22845   8.456   3.650   5.098 -0.6852  1.2446 -0.0127
  170MOL0     O22846   8.429   3.782   5.080  0.1545 -0.0419 -0.1392
  170MOL0     C22847   8.461   3.886   5.172  1.0152  0.5799 -0.5775
  170MOL0     C22848   8.515   3.876   5.300 -0.0088  0.3165 -0.5657
  170MOL0     C22849   8.565   3.984   5.379  0.0879 -1.2116  0.0121
  170MOL0     C22850   8.549   4.111   5.319  0.1709  0.0637  0.6792
  170MOL0     O22851   8.605   4.224   5.372 -0.1784  0.5918  0.8575
  170MOL0     C22852   8.713   4.208   5.460 -0.8555 -0.2237  0.0461
  170MOL0     C22853   8.798   4.331   5.452  0.1853  0.4936 -0.6168
  170MOL0     C22854   8.742   4.459   5.530  0.5033 -0.2682 -1.3091
  170MOL0     C22855   8.728   4.437   5.687  0.9757 -0.4114  0.0061
  170MOL0     C22856   8.712   4.570   5.765  0.0026  0.6110 -0.3756
  170MOL0     C22857   8.611   4.562   5.887  1.0104  0.5248  0.5764
  170MOL0     C22858   8.461   4.587   5.857 -0.4723 -1.2948  0.0132
  170MOL0     C22859   8.357   4.495   5.918  0.3904  0.0403 -0.2258
  170MOL0    Cl22860   8.388   4.478   6.093 -0.2321  0.0434 -0.4026
  170MOL0     C22861   8.488   4.122   5.201 -0.0813 -0.1370  1.1727
  170MOL0     C22862   8.446   4.014   5.123 -0.2133  0.3391  0.3346
  170MOL0     O22863   8.543   3.609   5.179 -0.1572 -0.2533  0.6018
  170MOL0     C22864   8.390   3.618   4.858  0.4708  0.6047 -0.1166
  170MOL0     C22865   8.340   3.538   4.749 -1.2835 -0.2334 -0.9545
  170MOL0     N22866   8.497   3.298   4.121 -0.0899 -0.1798 -0.1073
  170MOL0     N22867   8.519   3.262   3.999  0.2314 -0.7427 -0.2435
  170MOL0     C22868   8.743   3.123   2.895 -0.2122 -0.9120  0.1796
  170MOL0     C22869   8.852   3.129   2.801  0.1448  0.5152 -0.4988
  170MOL0     C22870   9.052   3.088   2.377 -0.7423  0.8542  0.0675
  170MOL0     C22871   9.042   3.090   2.237  0.4309  0.0318 -0.3406
  170MOL0     C22872   9.144   3.058   2.154 -0.3292 -0.1935 -0.5851
  170MOL0     C22873   9.269   3.034   2.203  0.1551  1.4668 -0.0079
  170MOL0     O22874   9.369   3.012   2.110 -0.5935 -0.7578 -0.7000
  170MOL0     C22875   9.389   3.128   2.021  0.8344  0.1267 -0.3756
  170MOL0     C22876   9.543   3.138   2.003 -0.4000 -0.8247 -0.9752
  170MOL0     C22877   9.607   3.013   1.945  0.1023 -0.2339 -0.9712
  170MOL0     C22878   9.757   3.021   1.883  0.5305  0.3093 -0.1249
  170MOL0     C22879   9.862   3.017   1.981  0.5421  0.0597 -0.3208
  170MOL0     C22880   9.953   3.012   2.060 -0.1256 -0.2476 -0.7696
  170MOL0     C22881   9.292   3.018   2.343  0.7587  0.8074  0.6724
  170MOL0     C22882   9.179   3.048   2.429 -0.9859  0.7620  0.4627
  170MOL0     H22883   8.697   2.971   2.541 -0.9330  2.8132 -1.6014
  170MOL0     H22884   8.504   2.982   2.696  0.7276  1.6324 -2.5193
  170MOL0     H22885   8.620   3.121   3.126  1.1788 -0.7922 -0.3758
  170MOL0     H22886   8.529   3.262   3.052 -0.2345 -0.1289  2.5803
  170MOL0     H22887   8.325   3.182   3.106  1.8775  0.9517 -1.5983
  170MOL0     H22888   8.388   3.020   3.143  2.5051 -0.8420  0.4150
  170MOL0     H22889   8.475   3.093   3.352  1.3636 -0.1540 -0.3576
  170MOL0     H22890   8.471   3.257   3.313 -1.7135  0.4667  1.4285
  170MOL0     H22891   8.210   3.211   3.298  0.4419 -2.1808 -1.8856
  170MOL0     H22892   8.245   3.070   3.389  1.0485 -0.1867 -0.7148
  170MOL0     H22893   8.318   3.339   3.501 -0.0520 -1.0424  0.5969
  170MOL0     H22894   8.205   3.225   3.565  0.3013 -0.1663 -1.1722
  170MOL0     H22895   8.372   3.045   3.584  0.4721  0.6673 -0.2739
  170MOL0     H22896   8.503   3.167   3.557 -0.2164 -1.6160 -0.3783
  170MOL0     H22897   8.291   3.147   3.780  1.4901  0.4648  4.3578
  170MOL0     H22898   8.470   3.113   3.793  2.0440  0.9198 -1.5246
  170MOL0     H22899   8.348   3.390   3.751  3.8395  4.8719 -0.7198
  170MOL0     H22900   8.520   3.352   3.760 -0.6055  2.5468  0.5288
  170MOL0     H22901   8.280   3.488   3.970 -0.0327 -0.5203 -0.2204
  170MOL0     H22902   8.438   3.521   4.291 -1.4058  1.3503  0.6142
  170MOL0     H22903   8.270   3.506   4.240  0.3552 -0.8170  1.1166
  170MOL0     H22904   8.401   3.307   4.417 -2.1029 -0.3850  2.2096
  170MOL0     H22905   8.255   3.269   4.340  0.5915 -0.3850 -0.0885
  170MOL0     H22906   8.148   3.491   4.401 -0.3118 -1.3878 -0.6903
  170MOL0     H22907   8.292   3.526   4.495  0.2476 -0.6581  1.2625
  170MOL0     H22908   8.102   3.288   4.558 -1.4962  0.3336  0.0797
  170MOL0     H22909   8.105   3.425   4.661  0.2456  0.0330 -0.3553
  170MOL0     H22910   8.364   3.238   4.909  0.0827 -0.4339 -0.1394
  170MOL0     H22911   8.491   3.298   5.137  0.1182  1.2532  0.7931
  170MOL0     H22912   8.386   3.412   5.218  1.6660 -1.2190  2.0962
  170MOL0     H22913   8.314   3.272   5.145 -0.7740  0.4355  1.1209
  170MOL0     H22914   8.518   3.776   5.342 -2.8006  0.3071 -0.2308
  170MOL0     H22915   8.618   3.970   5.472  1.2774  1.9351 -0.0722
  170MOL0     H22916   8.681   4.188   5.563  0.4887 -0.5393  0.4290
  170MOL0     H22917   8.780   4.125   5.433  0.2272  0.2323  1.1915
  170MOL0     H22918   8.903   4.320   5.478 -0.6278  0.0424  3.0620
  170MOL0     H22919   8.793   4.359   5.346 -1.9911 -2.5007 -1.4461
  170MOL0     H22920   8.650   4.500   5.487 -1.7381 -2.9555  0.6160
  170MOL0     H22921   8.831   4.524   5.521 -0.1959  0.8102 -0.6670
  170MOL0     H22922   8.635   4.387   5.714 -1.3396  2.2479 -2.3301
  170MOL0     H22923   8.812   4.371   5.707  1.7950 -0.2312 -2.5023
  170MOL0     H22924   8.674   4.642   5.692 -0.2333 -0.7009 -1.5928
  170MOL0     H22925   8.804   4.613   5.805 -0.6911  1.5917  0.2089
  170MOL0     H22926   8.614   4.460   5.926  0.5391 -0.5613 -1.9842
  170MOL0     H22927   8.635   4.632   5.967 -1.8525  3.5059 -0.9579
  170MOL0     H22928   8.454   4.603   5.749  0.9753 -1.0469 -0.0556
  170MOL0     H22929   8.444   4.684   5.904  0.7203 -1.8070  1.5915
  170MOL0     H22930   8.351   4.390   5.888 -0.1140  0.4766 -1.7059
  170MOL0     H22931   8.257   4.539   5.908  1.1350  2.4619  1.9421
  170MOL0     H22932   8.465   4.220   5.160 -0.1976  0.6351  3.0019
  170MOL0     H22933   8.409   4.035   5.023 -2.3100  0.6544  1.1425
  170MOL0     H22934   8.390   3.726   4.859 -1.0395  0.7170  3.6472
  170MOL0     H22935   8.302   3.597   4.667  1.2674  1.6720 -0.9209
  170MOL0     H22936   8.768   3.162   2.993  0.3681 -3.3293  1.0468
  170MOL0     H22937   8.947   3.178   2.821 -0.8488  2.2945  0.0082
  170MOL0     H22938   8.957   3.128   2.181  0.5633  0.2304 -0.4083
  170MOL0     H22939   9.128   3.076   2.048 -0.4373 -0.1109 -0.5554
  170MOL0     H22940   9.351   3.105   1.922  1.7646 -2.3649 -0.2393
  170MOL0     H22941   9.353   3.225   2.058 -1.4203 -0.6126 -0.5240
  170MOL0     H22942   9.573   3.160   2.106 -0.7281  0.6169 -1.1688
  170MOL0     H22943   9.574   3.209   1.926  2.6797 -3.5959 -2.5378
  170MOL0     H22944   9.542   2.995   1.858 -0.1882 -0.3960 -0.7243
  170MOL0     H22945   9.604   2.934   2.021 -1.6837  0.6006 -0.0880
  170MOL0     H22946   9.763   3.110   1.820 -0.8366 -1.2702 -2.6537
  170MOL0     H22947   9.769   2.937   1.815  2.5618 -0.3248  0.9429
  170MOL0     H22948  10.034   2.992   2.126  0.3955 -0.1945 -1.3899
  170MOL0     H22949   9.389   3.003   2.390  0.2960 -2.0310  0.8835
  170MOL0     H22950   9.195   3.018   2.532 -1.2930 -1.1312 -0.0138
  171MOL0     O22951   6.029   8.878   7.204 -0.0096 -0.2444  0.3703
  171MOL0     C22952   5.958   8.979   7.223 -0.0210  0.6678  0.5304
  171MOL0     O22953   5.995   9.102   7.266 -0.9140 -0.3278  0.2302
  171MOL0     C22954   6.133   9.113   7.297  0.1992 -0.0444  0.6663
  171MOL0     C22955   6.207   9.016   7.370 -0.2435 -0.0597  0.2105
  171MOL0     C22956   6.345   9.046   7.395  0.1912 -0.1850 -0.7324
  171MOL0     C22957   6.400   9.165   7.355  1.7841  0.0354 -0.0378
  171MOL0     O22958   6.520   9.192   7.406 -0.1317 -0.6097  0.2240
  171MOL0     C22959   6.621   9.204   7.307 -0.1672  0.4361 -0.3406
  171MOL0     C22960   6.738   9.279   7.359 -0.2546  0.3477 -0.4740
  171MOL0     C22961   6.715   9.396   7.453  0.1582 -0.5298  0.5675
  171MOL0     C22962   6.847   9.466   7.497  0.3977 -0.3271 -0.3542
  171MOL0     C22963   6.915   9.542   7.379  0.2740 -0.1058  0.7211
  171MOL0     C22964   6.980   9.673   7.441  1.0788  0.0721  0.4395
  171MOL0     C22965   7.059   9.739   7.334 -0.8765 -0.0561  0.0318
  171MOL0     C22966   7.195   9.679   7.326  0.1266 -0.9227 -0.4631
  171MOL0     N22967   7.264   9.737   7.211  0.1072 -0.4299  0.5373
  171MOL0     C22968   7.323   9.856   7.209 -0.1406  0.4319 -0.9199
  171MOL0     C22969   7.335   9.897   7.080 -0.1865 -0.7500 -0.8931
  171MOL0     C22970   7.415   9.998   7.011 -0.2553  0.1115  0.7469
  171MOL0     C22971   7.322  10.097   6.928  0.6173  0.2676  0.2133
  171MOL0     C22972   7.356  10.247   6.939  0.6897  1.0925 -0.0176
  171MOL0     C22973   7.243  10.323   6.872 -0.6596 -0.1941 -0.5155
  171MOL0     O22974   7.287  10.457   6.877  0.1140  0.2435  0.1396
  171MOL0     C22975   7.201  10.563   6.863  0.8223 -0.2034  0.6077
  171MOL0     C22976   7.243  10.673   6.917 -0.1825  0.2281 -1.1101
  171MOL0     C22977   7.178  10.797   6.910  0.3325  0.6775 -0.3282
  171MOL0     C22978   7.249  10.925   6.954 -0.1467  0.2475  0.6296
  171MOL0     C22979   7.050  10.802   6.841  0.0436  0.9061 -0.0283
  171MOL0     C22980   6.970  10.920   6.799 -0.4648 -0.8502  0.3201
  171MOL0     O22981   6.858  10.905   6.720 -0.3950 -0.0330  0.6995
  171MOL0     C22982   6.761  11.000   6.700  0.8505  0.3866  0.5800
  171MOL0     C22983   6.627  10.953   6.711 -0.1374  0.3606  0.2772
  171MOL0     C22984   6.520  11.034   6.663  0.5562 -0.5173  0.5788
  171MOL0     C22985   6.545  11.161   6.606 -0.1609 -0.1929 -0.1023
  171MOL0     O22986   6.459  11.255   6.551  0.6816  0.0712  0.3613
  171MOL0     C22987   6.326  11.213   6.551  0.7382 -0.4485 -0.0352
  171MOL0     C22988   6.259  11.318   6.465  0.9992  0.4042  0.0117
  171MOL0     C22989   6.308  11.313   6.329  0.1423  0.0456  0.8941
  171MOL0     C22990   6.254  11.438   6.251 -0.5211 -0.1724 -0.5052
  171MOL0     C22991   6.335  11.572   6.285 -0.5869 -0.6807 -0.3680
  171MOL0     C22992   6.301  11.677   6.194  1.0138 -0.7114  0.4081
  171MOL0     C22993   6.373  11.813   6.225 -0.8835 -0.1219 -0.2107
  171MOL0     C22994   6.275  11.926   6.204  0.1529  0.5752 -0.0454
  171MOL0    Cl22995   6.143  11.932   6.330 -0.6362  0.4522 -0.0749
  171MOL0     C22996   6.683  11.197   6.582  0.3510 -0.7525  0.0117
  171MOL0     C22997   6.787  11.124   6.639  0.7528  0.8168  0.8590
  171MOL0     O22998   7.017  11.029   6.837 -0.0226 -0.1398 -0.4765
  171MOL0     C22999   6.995  10.673   6.812  0.8262  0.9034  0.3066
  171MOL0     C23000   7.070  10.558   6.812 -0.3056 -0.3044  0.5985
  171MOL0     N23001   7.275   9.802   7.006  0.3153  0.8749 -0.5744
  171MOL0     N23002   7.231   9.706   7.085 -0.6432 -0.3130 -0.0494
  171MOL0     C23003   6.332   9.258   7.279  1.0376  0.0326 -0.4643
  171MOL0     C23004   6.196   9.230   7.250 -1.0244  0.1031 -0.0833
  171MOL0     C23005   5.812   8.960   7.186  0.0688  0.2930  0.4998
  171MOL0     C23006   5.774   8.842   7.123 -0.2805 -0.1583  0.0680
  171MOL0     C23007   5.649   8.835   7.066 -0.0109 -0.5025  0.0747
  171MOL0     C23008   5.566   8.945   7.050  0.4642 -0.0229 -0.3037
  171MOL0     O23009   5.446   8.952   6.985  0.3238  0.2248  0.1229
  171MOL0     C23010   5.439   8.916   6.841 -0.6244 -0.4708 -0.1583
  171MOL0     C23011   5.543   8.992   6.765  0.7246 -0.1525  0.3595
  171MOL0     C23012   5.569   8.936   6.628 -0.6114 -0.1449 -0.8793
  171MOL0     C23013   5.595   8.785   6.607  0.5515 -0.1855 -1.0581
  171MOL0     C23014   5.720   8.750   6.683 -0.3108 -0.3576 -0.5218
  171MOL0     C23015   5.831   8.744   6.737 -0.0265  0.4713 -0.3135
  171MOL0     C23016   5.603   9.062   7.122  0.5384 -0.7293  0.0792
  171MOL0     C23017   5.719   9.065   7.202  0.0521  0.2770  0.5323
  171MOL0     H23018   6.163   8.920   7.395 -0.4220  0.0844  0.4585
  171MOL0     H23019   6.410   8.985   7.456 -0.4597  0.3792  0.5834
  171MOL0     H23020   6.646   9.097   7.306  0.2234  0.3802  3.2945
  171MOL0     H23021   6.585   9.233   7.207  0.7369  1.7449 -0.3058
  171MOL0     H23022   6.809   9.216   7.413 -0.5952  0.1280 -0.2842
  171MOL0     H23023   6.802   9.313   7.276  0.7581  0.6208  0.3984
  171MOL0     H23024   6.641   9.460   7.404  0.6991  0.0421  0.4839
  171MOL0     H23025   6.676   9.353   7.546 -0.0089 -1.1445  0.2172
  171MOL0     H23026   6.819   9.533   7.579  0.3887 -3.2820  2.2711
  171MOL0     H23027   6.926   9.402   7.537  0.3261  0.2728  0.8054
  171MOL0     H23028   6.999   9.484   7.339  0.9337  0.7744  0.8104
  171MOL0     H23029   6.848   9.566   7.296  1.2247 -0.0926 -0.0600
  171MOL0     H23030   6.899   9.740   7.470  0.6030 -0.8118  1.2063
  171MOL0     H23031   7.043   9.654   7.528  2.1468  0.0229 -0.3214
  171MOL0     H23032   7.013   9.736   7.235  0.6866  3.3869 -0.9434
  171MOL0     H23033   7.067   9.844   7.362 -1.6254 -0.2793  1.1441
  171MOL0     H23034   7.181   9.573   7.305  0.2847 -0.3837 -3.8262
  171MOL0     H23035   7.243   9.708   7.420  0.4152  1.4633 -1.2756
  171MOL0     H23036   7.361   9.906   7.298 -1.9147  3.7513 -1.8669
  171MOL0     H23037   7.456  10.056   7.094  0.2149  0.7291  0.0945
  171MOL0     H23038   7.497   9.957   6.952  1.5700  1.5110  2.2132
  171MOL0     H23039   7.219  10.084   6.964  0.9298 -0.6277  0.8242
  171MOL0     H23040   7.321  10.058   6.826 -1.7391 -1.7094  0.8855
  171MOL0     H23041   7.451  10.275   6.892  0.6977  0.4100 -0.4205
  171MOL0     H23042   7.349  10.276   7.044 -2.7161  0.4720  0.0648
  171MOL0     H23043   7.153  10.332   6.935  0.7818  1.2841  1.4624
  171MOL0     H23044   7.209  10.286   6.775 -2.6305  0.9749 -0.3290
  171MOL0     H23045   7.345  10.677   6.954  0.1085  1.0276 -1.9570
  171MOL0     H23046   7.245  10.992   6.868 -2.4131  4.2371  3.4951
  171MOL0     H23047   7.200  10.981   7.035 -1.9248 -1.8553  1.1049
  171MOL0     H23048   7.350  10.900   6.990  0.0602  2.4701  1.7490
  171MOL0     H23049   6.600  10.852   6.740 -0.4285  0.3564  0.0114
  171MOL0     H23050   6.416  11.006   6.662 -0.2179  2.0883  1.0512
  171MOL0     H23051   6.316  11.119   6.496  5.3954  0.0360 -2.1914
  171MOL0     H23052   6.276  11.212   6.648  1.0121 -0.7198  0.1049
  171MOL0     H23053   6.151  11.302   6.451  0.9489  0.4923  0.2817
  171MOL0     H23054   6.279  11.420   6.498  1.1216  0.8017 -1.2645
  171MOL0     H23055   6.273  11.222   6.281  2.0793 -0.0511 -0.4748
  171MOL0     H23056   6.417  11.309   6.318  0.0276  2.2945 -3.3364
  171MOL0     H23057   6.283  11.412   6.149 -0.2016 -0.6524 -0.2950
  171MOL0     H23058   6.146  11.446   6.269 -0.7102 -0.8006 -1.3301
  171MOL0     H23059   6.442  11.557   6.268 -0.6554  0.5103 -2.1230
  171MOL0     H23060   6.321  11.597   6.391 -0.6477 -2.0978 -0.0206
  171MOL0     H23061   6.316  11.637   6.093 -0.3951 -3.9448  1.3437
  171MOL0     H23062   6.192  11.687   6.195  0.4595 -4.8337  1.0817
  171MOL0     H23063   6.457  11.843   6.162 -1.6209  3.3386  0.2950
  171MOL0     H23064   6.420  11.820   6.324  3.4416  1.3349 -2.1430
  171MOL0     H23065   6.225  11.921   6.107 -2.3078 -1.4524  1.1967
  171MOL0     H23066   6.326  12.022   6.212 -0.3218  0.7695  0.7948
  171MOL0     H23067   6.709  11.280   6.518  0.4188 -0.6231  0.2073
  171MOL0     H23068   6.889  11.151   6.615  0.0461  3.1819  0.1993
  171MOL0     H23069   6.901  10.678   6.759  0.8798 -0.0318  0.0975
  171MOL0     H23070   7.018  10.472   6.771 -1.8888 -0.6497  3.0913
  171MOL0     H23071   6.368   9.355   7.246  2.1814 -1.4817 -4.1649
  171MOL0     H23072   6.148   9.309   7.193  1.2589  0.4004 -1.6867
  171MOL0     H23073   5.842   8.757   7.120  0.4686  0.4310 -2.8249
  171MOL0     H23074   5.608   8.747   7.017  0.3845  0.7376 -2.6725
  171MOL0     H23075   5.441   8.807   6.836  0.6130 -0.4083 -2.2358
  171MOL0     H23076   5.343   8.945   6.796 -0.1616  1.2215 -0.1180
  171MOL0     H23077   5.636   9.000   6.821  0.4750 -0.5670  0.8408
  171MOL0     H23078   5.503   9.093   6.753  0.6944 -0.1508  0.4738
  171MOL0     H23079   5.649   8.995   6.583 -1.2391  1.7207  0.3509
  171MOL0     H23080   5.480   8.957   6.568  0.0091  0.4738 -1.5958
  171MOL0     H23081   5.603   8.771   6.499  1.1234 -1.6551 -0.8532
  171MOL0     H23082   5.503   8.731   6.628  0.2216 -0.9359 -3.9784
  171MOL0     H23083   5.929   8.746   6.781 -0.6015  2.1096  1.0012
  171MOL0     H23084   5.532   9.144   7.121 -0.1922 -1.3434  0.3889
  171MOL0     H23085   5.756   9.153   7.254 -3.3834  0.3030  3.2919
  172MOL0     O23086   7.925   9.178   9.308 -0.9045  0.4057 -0.6314
  172MOL0     C23087   7.824   9.208   9.373  0.5086 -0.5062 -1.2698
  172MOL0     O23088   7.696   9.194   9.338  0.4843  0.9109  0.3632
  172MOL0     C23089   7.668   9.158   9.207 -0.1002  0.0048 -0.2216
  172MOL0     C23090   7.576   9.244   9.142 -0.5198 -0.2024 -0.3467
  172MOL0     C23091   7.523   9.206   9.021  0.9477 -0.6681  0.0189
  172MOL0     C23092   7.552   9.081   8.966 -0.3931 -0.1005  0.3285
  172MOL0     O23093   7.485   9.042   8.848 -0.1559  0.0521 -0.6473
  172MOL0     C23094   7.567   8.995   8.736  0.4496 -0.2252 -0.6469
  172MOL0     C23095   7.605   9.122   8.668 -0.5592 -0.0427 -0.1761
  172MOL0     C23096   7.498   9.183   8.579  0.2037 -0.8463 -0.2475
  172MOL0     C23097   7.552   9.288   8.484  0.9105 -0.3708 -0.0211
  172MOL0     C23098   7.441   9.377   8.394  0.1453  1.0724 -0.6806
  172MOL0     C23099   7.382   9.488   8.483 -1.0476  0.2118 -0.4360
  172MOL0     C23100   7.488   9.593   8.507  0.0994 -0.8861 -0.3749
  172MOL0     C23101   7.422   9.715   8.572 -0.1593  0.3404  0.1331
  172MOL0     N23102   7.438   9.723   8.716 -0.6859  0.1042 -1.4002
  172MOL0     C23103   7.543   9.691   8.788 -0.1911  0.0828 -0.8497
  172MOL0     C23104   7.511   9.727   8.919  1.1161 -0.1723 -0.1035
  172MOL0     C23105   7.584   9.723   9.051 -0.9029 -0.1549 -0.9753
  172MOL0     C23106   7.568   9.847   9.130 -0.0375 -0.2363 -0.3378
  172MOL0     C23107   7.614   9.974   9.048  0.2857 -0.8798 -0.0285
  172MOL0     C23108   7.634  10.103   9.128 -0.5943 -0.2206 -0.5104
  172MOL0     O23109   7.741  10.088   9.223  0.0445 -1.1054 -0.1221
  172MOL0     C23110   7.863  10.136   9.197 -0.3029 -0.3654 -0.4952
  172MOL0     C23111   7.951  10.157   9.306  0.5967  0.0633  0.5928
  172MOL0     C23112   8.082  10.195   9.297  0.3062  0.0851 -0.1951
  172MOL0     C23113   8.164  10.193   9.430 -0.1769 -0.1047 -0.6500
  172MOL0     C23114   8.140  10.240   9.174  0.8481 -0.5928 -0.2134
  172MOL0     C23115   8.278  10.293   9.167  0.2061 -0.6578 -0.5846
  172MOL0     O23116   8.348  10.267   9.054  0.4283  0.0287 -0.0300
  172MOL0     C23117   8.479  10.303   9.046 -0.3599 -1.0245 -0.5064
  172MOL0     C23118   8.566  10.251   9.146 -0.1347 -0.1270  0.2874
  172MOL0     C23119   8.696  10.299   9.149 -0.7945 -0.4236  0.1763
  172MOL0     C23120   8.738  10.405   9.059 -0.1556 -1.1591  0.1211
  172MOL0     O23121   8.868  10.454   9.072 -0.3827  0.2338  0.1233
  172MOL0     C23122   8.895  10.593   9.047  0.0212  0.8664 -0.7024
  172MOL0     C23123   9.031  10.632   9.091  0.0324  1.1519 -0.1406
  172MOL0     C23124   9.059  10.783   9.081 -0.5405 -0.5436 -0.6793
  172MOL0     C23125   9.042  10.831   8.944  0.0429 -0.1056  0.2454
  172MOL0     C23126   9.077  10.980   8.919  0.6541  0.8606 -0.1527
  172MOL0     C23127   9.229  11.012   8.922 -0.0940  0.0615  0.1554
  172MOL0     C23128   9.267  11.161   8.903 -0.4442 -0.5541 -0.4986
  172MOL0     C23129   9.413  11.200   8.937 -0.5567 -0.5693  0.6992
  172MOL0    Cl23130   9.509  11.129   8.809 -0.3562  0.4725 -0.0765
  172MOL0     C23131   8.648  10.453   8.957 -0.6316  0.7007 -0.3724
  172MOL0     C23132   8.521  10.404   8.952 -0.5275  0.0319 -0.2291
  172MOL0     O23133   8.324  10.356   9.271 -0.0440 -0.7301  0.0698
  172MOL0     C23134   8.052  10.229   9.061  0.8045  0.5286  0.1450
  172MOL0     C23135   7.921  10.179   9.076  0.8866 -0.6141  0.3625
  172MOL0     N23136   7.386   9.784   8.912  0.4088 -0.3887 -0.6208
  172MOL0     N23137   7.338   9.774   8.792  0.1313 -0.1070  0.1145
  172MOL0     C23138   7.634   8.992   9.039  0.5638  0.5232  0.3204
  172MOL0     C23139   7.682   9.030   9.161  0.5552 -0.1677 -0.5387
  172MOL0     C23140   7.860   9.270   9.505 -0.7666  1.0265  0.1788
  172MOL0     C23141   7.766   9.306   9.600  0.9636 -0.8513  0.3949
  172MOL0     C23142   7.804   9.356   9.721 -0.8245 -0.4099 -0.4285
  172MOL0     C23143   7.932   9.365   9.765  0.0307  0.5434 -0.4118
  172MOL0     O23144   7.944   9.411   9.885 -0.4299  0.3898 -0.0006
  172MOL0     C23145   8.064   9.399   9.958  0.9965 -0.9663  0.3964
  172MOL0     C23146   8.046   9.311  10.075 -0.4976 -0.2059  0.7805
  172MOL0     C23147   8.179   9.313  10.169  0.4917  0.1290 -0.0983
  172MOL0     C23148   8.149   9.296  10.322 -0.9420  0.0140  1.7291
  172MOL0     C23149   8.103   9.162  10.337  0.0194 -0.2396 -0.1024
  172MOL0     C23150   8.066   9.047  10.329  0.3302 -0.1139 -0.0173
  172MOL0     C23151   8.029   9.321   9.674 -0.9296 -0.9865 -0.1665
  172MOL0     C23152   7.996   9.284   9.543  0.1023  0.5115  0.2807
  172MOL0     H23153   7.564   9.344   9.181  0.1302 -0.0692 -0.4676
  172MOL0     H23154   7.453   9.265   8.963  0.6403 -1.9910 -1.0058
  172MOL0     H23155   7.657   8.937   8.755  0.5040  0.5656  1.7539
  172MOL0     H23156   7.499   8.927   8.683 -1.5920 -0.5442  2.1817
  172MOL0     H23157   7.650   9.181   8.748  0.4810 -0.4837 -0.4245
  172MOL0     H23158   7.691   9.106   8.603 -0.1032  1.2875  0.0593
  172MOL0     H23159   7.438   9.108   8.526  2.0061 -2.8521  0.4053
  172MOL0     H23160   7.433   9.239   8.647  1.7417 -0.8594  1.3220
  172MOL0     H23161   7.609   9.360   8.543 -3.5082  5.0180 -1.5353
  172MOL0     H23162   7.627   9.238   8.421 -0.1562 -0.1455 -1.5354
  172MOL0     H23163   7.487   9.414   8.302  2.8765  0.2511  0.2582
  172MOL0     H23164   7.367   9.297   8.383 -0.5650  0.6499  4.5123
  172MOL0     H23165   7.296   9.526   8.428 -0.3414  1.3985 -0.7475
  172MOL0     H23166   7.346   9.450   8.579  1.0673 -0.2887  0.2245
  172MOL0     H23167   7.575   9.567   8.567  1.0173  2.2727 -0.1199
  172MOL0     H23168   7.521   9.635   8.411 -0.1065 -1.2454 -0.6036
  172MOL0     H23169   7.314   9.713   8.561 -0.0420 -0.2761 -1.0480
  172MOL0     H23170   7.459   9.805   8.523 -3.9855  1.0765 -1.7837
  172MOL0     H23171   7.636   9.649   8.751  0.6867  0.6961  0.5826
  172MOL0     H23172   7.546   9.635   9.102 -0.6501 -1.0743 -2.3102
  172MOL0     H23173   7.690   9.706   9.028 -1.1239 -2.3825 -0.5809
  172MOL0     H23174   7.635   9.840   9.215  3.8267  2.8872 -2.7556
  172MOL0     H23175   7.465   9.870   9.159  1.4307  2.8477  3.2830
  172MOL0     H23176   7.538   9.993   8.971 -0.1085 -2.1553  0.0390
  172MOL0     H23177   7.717   9.953   9.018  1.0139  0.0819  1.6440
  172MOL0     H23178   7.538  10.126   9.177  0.1609  0.4411  0.7141
  172MOL0     H23179   7.670  10.184   9.064  4.6418 -1.6836  0.1549
  172MOL0     H23180   7.912  10.127   9.402 -0.6337 -0.4890 -0.0465
  172MOL0     H23181   8.119  10.123   9.502 -2.2950  3.7183  2.1230
  172MOL0     H23182   8.267  10.167   9.408  0.1345  1.2115 -0.8357
  172MOL0     H23183   8.162  10.287   9.485  0.9576  0.9902 -2.3902
  172MOL0     H23184   8.523  10.182   9.218 -2.4125 -0.4429 -1.2999
  172MOL0     H23185   8.778  10.274   9.216  1.5955  2.0128 -1.5960
  172MOL0     H23186   8.891  10.617   8.940  3.6786 -0.2319 -1.2284
  172MOL0     H23187   8.826  10.653   9.107  1.6228 -1.2773  3.7420
  172MOL0     H23188   9.049  10.599   9.194 -0.8657 -0.1208 -0.3692
  172MOL0     H23189   9.101  10.580   9.025 -2.4522 -1.7848 -0.6876
  172MOL0     H23190   9.162  10.797   9.115  0.6368 -0.6066 -3.8509
  172MOL0     H23191   9.004  10.835   9.160  1.8497 -0.0617  0.7772
  172MOL0     H23192   9.114  10.787   8.875  0.4051  3.7970 -2.1986
  172MOL0     H23193   8.936  10.812   8.927 -1.7231  3.4953  4.9851
  172MOL0     H23194   9.024  11.037   8.995  0.1399 -0.2368  0.3255
  172MOL0     H23195   9.035  10.994   8.819 -0.7587  1.1223  0.4561
  172MOL0     H23196   9.261  10.984   9.023 -4.3969  4.2089  3.1203
  172MOL0     H23197   9.275  10.948   8.847 -0.1660  0.4024 -0.1823
  172MOL0     H23198   9.203  11.229   8.961 -0.1540  1.1941 -2.1546
  172MOL0     H23199   9.240  11.178   8.799 -0.6849 -2.5043 -0.7858
  172MOL0     H23200   9.429  11.151   9.034 -1.5778 -2.7537 -0.1639
  172MOL0     H23201   9.418  11.309   8.946 -0.5307 -0.5802  0.8253
  172MOL0     H23202   8.673  10.527   8.881 -0.7496 -0.6453 -1.7662
  172MOL0     H23203   8.453  10.443   8.876  1.2075 -0.4200 -2.1068
  172MOL0     H23204   8.083  10.267   8.964 -1.7778  0.7313 -0.7039
  172MOL0     H23205   7.870  10.169   8.981 -0.7384  1.2568  0.9733
  172MOL0     H23206   7.653   8.894   8.995 -0.9847  0.1907  0.3545
  172MOL0     H23207   7.736   8.959   9.223  1.5518  2.2310  1.5200
  172MOL0     H23208   7.659   9.293   9.592  0.3130  1.4253  3.5857
  172MOL0     H23209   7.730   9.381   9.796 -2.7990  0.1555 -2.4346
  172MOL0     H23210   8.141   9.353   9.896 -0.1112 -1.2941 -0.7789
  172MOL0     H23211   8.112   9.494   9.981  1.3686 -0.6907 -1.3676
  172MOL0     H23212   8.018   9.210  10.044 -0.8942  0.1902 -0.1968
  172MOL0     H23213   7.960   9.344  10.135 -1.6598 -1.1320 -0.3083
  172MOL0     H23214   8.217   9.415  10.166 -2.4454  1.3334 -0.3860
  172MOL0     H23215   8.256   9.239  10.144 -0.0459 -1.7562  3.2424
  172MOL0     H23216   8.075   9.376  10.335 -0.0215  0.7163  2.8042
  172MOL0     H23217   8.236   9.321  10.384  0.2524  0.7443 -0.1364
  172MOL0     H23218   8.062   8.940  10.316  0.1157 -0.0793 -0.2272
  172MOL0     H23219   8.135   9.313   9.698 -0.8117 -0.0466 -0.3082
  172MOL0     H23220   8.070   9.258   9.468 -1.5871  0.6209 -1.4857
  173MOL0     O23221  10.370   6.472   6.952  0.5203  0.1108  0.1759
  173MOL0     C23222  10.490   6.490   6.916 -0.3577  0.1983 -0.0803
  173MOL0     O23223  10.574   6.602   6.920  0.4780  0.1521  0.4446
  173MOL0     C23224  10.530   6.721   6.974 -0.2319  0.2758 -0.2429
  173MOL0     C23225  10.405   6.766   6.991 -1.1596 -0.0446 -0.3333
  173MOL0     C23226  10.378   6.901   7.027 -0.5548  0.1324  0.9275
  173MOL0     C23227  10.486   6.991   7.058  0.1357  1.0605 -0.7426
  173MOL0     O23228  10.444   7.112   7.109  0.3782  1.0273  0.1320
  173MOL0     C23229  10.532   7.191   7.189 -0.5600 -0.0471 -0.0145
  173MOL0     C23230  10.620   7.283   7.101 -0.3841  0.6540  0.7469
  173MOL0     C23231  10.542   7.339   6.971  0.4566 -0.8278  0.1873
  173MOL0     C23232  10.644   7.396   6.875 -0.1205 -0.2716  0.0856
  173MOL0     C23233  10.593   7.512   6.784 -0.2840  0.2865 -1.2038
  173MOL0     C23234  10.643   7.498   6.645  0.1543 -0.6284 -0.2043
  173MOL0     C23235  10.589   7.601   6.553 -0.3292  0.3490  0.4150
  173MOL0     C23236  10.586   7.573   6.401 -0.5945  0.3669  0.8475
  173MOL0     N23237  10.711   7.543   6.346  0.3197 -0.1921  0.8238
  173MOL0     C23238  10.728   7.471   6.234 -1.2525  0.1122  0.4800
  173MOL0     C23239  10.855   7.507   6.210  0.0505  0.0375  0.3913
  173MOL0     C23240  10.943   7.477   6.095  0.2583 -0.1837  0.7445
  173MOL0     C23241  10.987   7.602   6.033  0.3090 -0.0172  0.1899
  173MOL0     C23242  10.872   7.673   5.955 -0.4207 -0.3204 -0.3134
  173MOL0     C23243  10.920   7.783   5.859 -0.1607 -0.4066  0.3884
  173MOL0     O23244  10.980   7.891   5.928 -0.3199 -0.0998  0.0402
  173MOL0     C23245  11.113   7.899   5.917  0.2754 -0.1747 -0.0475
  173MOL0     C23246  11.187   7.903   5.801 -0.2266 -0.2336 -0.3343
  173MOL0     C23247  11.326   7.901   5.804 -0.3360  0.4233 -0.4755
  173MOL0     C23248  11.401   7.926   5.675  0.0336  0.2879 -0.1798
  173MOL0     C23249  11.397   7.873   5.928  0.1625  0.0960  0.3995
  173MOL0     C23250  11.541   7.864   5.939  0.4947 -0.0729 -0.1295
  173MOL0     O23251  11.610   7.819   5.835 -0.2282 -0.6051 -0.1734
  173MOL0     C23252  11.731   7.762   5.860  0.0995  0.3062  0.7373
  173MOL0     C23253  11.852   7.797   5.800  1.1638 -0.2606 -0.3371
  173MOL0     C23254  11.971   7.738   5.847  0.4391 -0.5952 -0.0562
  173MOL0     C23255  11.968   7.611   5.914  0.0272 -1.2113 -0.3516
  173MOL0     O23256  12.072   7.529   5.938  0.4893  0.0312 -0.6523
  173MOL0     C23257  12.202   7.599   5.975  0.0862 -0.5395  0.2423
  173MOL0     C23258  12.184   7.691   6.102  0.0080 -1.1936  0.3215
  173MOL0     C23259  12.315   7.765   6.143 -1.0777  0.4963  0.0420
  173MOL0     C23260  12.293   7.851   6.267 -1.4012 -0.3365 -0.4272
  173MOL0     C23261  12.220   7.979   6.244  0.0018  0.4642  0.6629
  173MOL0     C23262  12.201   8.068   6.365  0.4121  1.0593 -0.0186
  173MOL0     C23263  12.117   8.191   6.344 -0.4701  0.0315 -0.3511
  173MOL0     C23264  12.091   8.283   6.469 -0.7326  0.8548 -0.7670
  173MOL0    Cl23265  12.252   8.369   6.489  0.0565  0.1941 -0.1873
  173MOL0     C23266  11.839   7.562   5.960  0.6186  0.3371  0.7008
  173MOL0     C23267  11.725   7.648   5.941  0.2789  0.4110 -0.0759
  173MOL0     O23268  11.588   7.908   6.041 -0.4586 -0.4849 -0.1556
  173MOL0     C23269  11.311   7.878   6.043  0.3548 -0.1775  0.4885
  173MOL0     C23270  11.174   7.896   6.044  0.2537 -0.3594  0.4626
  173MOL0     N23271  10.909   7.582   6.319 -0.0779  0.2660  0.0660
  173MOL0     N23272  10.815   7.602   6.396 -0.4819 -0.2431 -0.2784
  173MOL0     C23273  10.621   6.949   7.025 -0.7435  0.0135 -0.8110
  173MOL0     C23274  10.640   6.812   7.000 -0.2709 -0.3966 -0.4420
  173MOL0     C23275  10.558   6.360   6.858 -0.1223 -0.3169  0.4773
  173MOL0     C23276  10.512   6.231   6.865  0.7241 -0.2594  0.3777
  173MOL0     C23277  10.573   6.128   6.802 -0.3107  0.9366 -0.1413
  173MOL0     C23278  10.677   6.159   6.712  0.5038  0.3710 -0.1392
  173MOL0     O23279  10.722   6.046   6.639 -0.0851  0.2662  0.0952
  173MOL0     C23280  10.758   6.070   6.500  0.0277 -0.4850 -0.6803
  173MOL0     C23281  10.636   6.040   6.409 -0.1966 -0.0100  0.0966
  173MOL0     C23282  10.671   6.062   6.262 -0.4390 -0.1093 -0.2999
  173MOL0     C23283  10.556   6.027   6.162  0.4091 -0.6479  0.0712
  173MOL0     C23284  10.582   6.065   6.021  0.3929 -0.3086  0.6434
  173MOL0     C23285  10.591   6.103   5.906 -0.2932  0.1394 -0.6948
  173MOL0     C23286  10.729   6.288   6.707  0.4806 -0.3972  0.3892
  173MOL0     C23287  10.674   6.388   6.782  0.3344  0.6076 -0.0391
  173MOL0     H23288  10.322   6.700   6.968 -3.3630  2.8033 -1.0329
  173MOL0     H23289  10.276   6.933   7.042 -1.1433 -0.6430 -1.1663
  173MOL0     H23290  10.465   7.261   7.240 -0.2447  0.9526 -0.9429
  173MOL0     H23291  10.596   7.139   7.261 -0.0647  1.8214  0.9718
  173MOL0     H23292  10.677   7.360   7.155  0.9196 -0.8902  1.6529
  173MOL0     H23293  10.698   7.216   7.066 -0.9129  0.4229 -0.0096
  173MOL0     H23294  10.477   7.266   6.922 -3.6317  2.6253 -0.0643
  173MOL0     H23295  10.467   7.412   7.002 -1.5683 -2.6373 -0.1884
  173MOL0     H23296  10.710   7.454   6.941 -0.6014  1.6269 -1.0182
  173MOL0     H23297  10.697   7.312   6.829  0.3678 -0.3160  0.7026
  173MOL0     H23298  10.487   7.537   6.795  0.2872  2.9228 -1.1433
  173MOL0     H23299  10.643   7.603   6.817  2.1376 -0.4654 -2.5315
  173MOL0     H23300  10.752   7.514   6.644  0.0449  0.1484 -0.9830
  173MOL0     H23301  10.623   7.395   6.612 -2.7849  0.0206 -0.7255
  173MOL0     H23302  10.483   7.610   6.578 -1.9428 -3.1109 -3.7199
  173MOL0     H23303  10.640   7.695   6.574 -1.5445  0.9761  0.6479
  173MOL0     H23304  10.545   7.661   6.350 -2.5384 -1.0106 -0.0552
  173MOL0     H23305  10.520   7.490   6.379  1.7918 -0.8732 -2.4852
  173MOL0     H23306  10.656   7.404   6.187 -2.2528 -0.6370  2.9298
  173MOL0     H23307  11.027   7.419   6.135  1.9103  1.1260 -0.6451
  173MOL0     H23308  10.882   7.428   6.019  2.9427  1.5467 -2.8540
  173MOL0     H23309  11.067   7.588   5.959  1.3710  0.8869  1.1370
  173MOL0     H23310  11.016   7.676   6.108 -1.1456 -0.2284  1.0093
  173MOL0     H23311  10.804   7.712   6.031 -0.6818  1.5735 -1.4657
  173MOL0     H23312  10.814   7.608   5.888 -0.8441 -0.9880  0.6664
  173MOL0     H23313  10.839   7.823   5.797 -0.0627  0.0148  0.5262
  173MOL0     H23314  10.984   7.734   5.786  1.4933 -1.4907  2.4612
  173MOL0     H23315  11.133   7.917   5.708  0.2572  1.4997 -0.3923
  173MOL0     H23316  11.469   8.010   5.691 -1.2969  0.9043  2.8798
  173MOL0     H23317  11.458   7.838   5.644 -1.7071 -0.9967  0.1317
  173MOL0     H23318  11.335   7.956   5.593  0.7176  1.5743 -0.2832
  173MOL0     H23319  11.857   7.887   5.739  1.0161  1.3289  1.8918
  173MOL0     H23320  12.064   7.780   5.809 -0.1638  0.4716 -0.3838
  173MOL0     H23321  12.276   7.524   6.005  1.4380  2.0618  4.3670
  173MOL0     H23322  12.249   7.654   5.892  1.1575 -1.7404  0.0133
  173MOL0     H23323  12.110   7.762   6.063  1.9310  0.3897 -0.6363
  173MOL0     H23324  12.144   7.643   6.192  1.3818  1.3735  2.4243
  173MOL0     H23325  12.339   7.840   6.067  0.0106  0.0283 -0.0963
  173MOL0     H23326  12.396   7.692   6.145 -0.8680  0.7118  2.3406
  173MOL0     H23327  12.239   7.795   6.344  2.3481 -0.7598  2.1924
  173MOL0     H23328  12.387   7.876   6.318 -1.7258  3.3178 -1.3505
  173MOL0     H23329  12.122   7.945   6.208 -0.4181  2.1904  0.0906
  173MOL0     H23330  12.264   8.035   6.161  2.7701 -2.9997 -0.4920
  173MOL0     H23331  12.145   8.008   6.437  4.7920  0.9218  3.7120
  173MOL0     H23332  12.295   8.090   6.416  0.0239 -0.9575  1.6883
  173MOL0     H23333  12.015   8.172   6.310 -0.7050  1.1561 -0.2973
  173MOL0     H23334  12.157   8.254   6.265 -2.3500 -0.3094 -1.6445
  173MOL0     H23335  12.064   8.234   6.562 -1.5884  0.8734 -1.0000
  173MOL0     H23336  12.018   8.362   6.451  2.6450  4.1197 -1.3616
  173MOL0     H23337  11.814   7.471   6.014 -1.7762  0.7882  0.4920
  173MOL0     H23338  11.629   7.616   5.982 -0.4790  1.8342 -0.6809
  173MOL0     H23339  11.362   7.867   6.138  1.7237  0.9884 -0.0622
  173MOL0     H23340  11.108   7.894   6.130 -0.3173 -0.9668  0.0176
  173MOL0     H23341  10.710   7.011   7.030  0.9132 -2.3061  0.5460
  173MOL0     H23342  10.732   6.758   6.983 -1.8094 -2.8659 -1.4865
  173MOL0     H23343  10.415   6.210   6.909  0.2542  1.5197  0.2924
  173MOL0     H23344  10.531   6.028   6.811 -1.2751  1.0669 -2.4008
  173MOL0     H23345  10.786   6.174   6.486  3.4918 -1.3131 -0.8331
  173MOL0     H23346  10.838   6.000   6.472  1.2982  1.1136 -1.1769
  173MOL0     H23347  10.564   6.114   6.445 -0.0489  0.3597 -0.3546
  173MOL0     H23348  10.608   5.934   6.410 -0.2946  0.0052  2.0530
  173MOL0     H23349  10.744   5.987   6.230 -3.2183 -2.6041 -1.2648
  173MOL0     H23350  10.708   6.163   6.242 -1.1062  0.1735 -0.1514
  173MOL0     H23351  10.458   6.067   6.189  0.9235  1.2632 -0.7292
  173MOL0     H23352  10.545   5.918   6.162  3.3987 -1.0574  1.8943
  173MOL0     H23353  10.584   6.137   5.805 -0.0970  0.8207 -0.4868
  173MOL0     H23354  10.817   6.307   6.647 -0.2017 -2.1064 -1.2520
  173MOL0     H23355  10.702   6.490   6.759 -4.8557  1.7970 -2.7039
  174MOL0     O23356   9.397  10.157   1.967  0.1394 -0.0047  0.2504
  174MOL0     C23357   9.273  10.138   1.950  0.1054  0.3922 -1.2164
  174MOL0     O23358   9.175  10.210   2.022  0.6500  0.1893  0.3774
  174MOL0     C23359   9.199  10.294   2.125  0.3055  0.6573  0.9221
  174MOL0     C23360   9.271  10.258   2.235 -0.2601  0.2779  0.6106
  174MOL0     C23361   9.288  10.353   2.342 -0.4847 -0.3959 -0.4387
  174MOL0     C23362   9.234  10.478   2.337  0.8285  0.0852  0.4784
  174MOL0     O23363   9.240  10.564   2.440  0.5529 -0.0579 -1.0241
  174MOL0     C23364   9.352  10.646   2.461 -0.6017 -0.2659 -0.1939
  174MOL0     C23365   9.302  10.782   2.481  0.1557 -0.2396 -1.1880
  174MOL0     C23366   9.397  10.908   2.480 -0.4971  0.1429  0.0258
  174MOL0     C23367   9.529  10.872   2.557  0.2167  0.5161  0.2287
  174MOL0     C23368   9.631  10.996   2.570  0.5745  0.4231  0.0071
  174MOL0     C23369   9.638  11.074   2.439 -1.1555  0.8716  0.6519
  174MOL0     C23370   9.732  11.191   2.429  1.0928 -0.0730 -0.2149
  174MOL0     C23371   9.702  11.307   2.534 -0.0509 -0.4085  0.8555
  174MOL0     N23372   9.589  11.384   2.510 -1.2359  0.2620  0.9480
  174MOL0     C23373   9.456  11.360   2.541  0.3088 -0.4001 -0.2712
  174MOL0     C23374   9.390  11.454   2.476 -0.8149  0.1300  0.2709
  174MOL0     C23375   9.240  11.459   2.486 -1.1431  0.1699 -0.1988
  174MOL0     C23376   9.171  11.600   2.470 -0.6209  0.7885  0.0424
  174MOL0     C23377   9.249  11.706   2.548  0.1017 -0.2087 -0.0157
  174MOL0     C23378   9.242  11.667   2.694 -0.3586 -0.4297  0.6634
  174MOL0     O23379   9.267  11.780   2.777  0.2354 -0.5239  0.4584
  174MOL0     C23380   9.389  11.850   2.760  1.0859 -0.0449 -0.2368
  174MOL0     C23381   9.512  11.789   2.729  0.8444  0.5606  0.5258
  174MOL0     C23382   9.624  11.865   2.699  0.3455 -0.0242 -0.2684
  174MOL0     C23383   9.732  11.803   2.618 -0.7037 -0.2382 -0.9272
  174MOL0     C23384   9.638  12.003   2.730 -0.4766 -0.4979 -0.5715
  174MOL0     C23385   9.766  12.085   2.745  0.3937 -0.0235  0.7391
  174MOL0     O23386   9.878  12.018   2.791  0.0694  0.6626  0.9184
  174MOL0     C23387   9.997  12.083   2.770 -1.1774 -0.1400 -0.3398
  174MOL0     C23388  10.060  12.109   2.651 -0.1969 -0.4080  0.2570
  174MOL0     C23389  10.167  12.192   2.636 -0.5689  0.8936  0.0825
  174MOL0     C23390  10.207  12.276   2.740 -0.2797  0.5302 -0.2057
  174MOL0     O23391  10.304  12.374   2.728 -1.0614  0.2640  0.4154
  174MOL0     C23392  10.377  12.387   2.608 -0.3876  0.1576  0.3908
  174MOL0     C23393  10.471  12.502   2.612  0.1626  0.0177 -1.1070
  174MOL0     C23394  10.557  12.529   2.492  0.5278 -0.0389  0.3403
  174MOL0     C23395  10.598  12.675   2.486  0.2000  0.6713  0.5398
  174MOL0     C23396  10.744  12.679   2.439  0.5727  0.1612 -0.5004
  174MOL0     C23397  10.764  12.829   2.436  0.2491  0.2554  0.3524
  174MOL0     C23398  10.906  12.860   2.395 -0.0481  0.4152 -0.0329
  174MOL0     C23399  10.932  13.000   2.370  0.3105 -0.6067 -0.3389
  174MOL0    Cl23400  11.111  13.035   2.339 -0.0855 -0.3305  0.3062
  174MOL0     C23401  10.149  12.252   2.870 -0.2594 -0.6781 -0.8192
  174MOL0     C23402  10.041  12.162   2.876  0.1504  0.8870 -0.5526
  174MOL0     O23403   9.755  12.206   2.717  0.3429  0.3263 -0.9950
  174MOL0     C23404   9.512  12.063   2.774  0.1184 -0.7006  0.4965
  174MOL0     C23405   9.401  11.989   2.797  0.5796  0.1868 -0.6908
  174MOL0     N23406   9.475  11.535   2.409 -0.5703  0.3505  0.0666
  174MOL0     N23407   9.598  11.493   2.436  0.5110 -0.2304  0.0110
  174MOL0     C23408   9.170  10.515   2.215  0.4328  0.3359  0.0238
  174MOL0     C23409   9.140  10.420   2.108 -0.0840 -1.1128 -0.3391
  174MOL0     C23410   9.228  10.049   1.849 -0.2682  0.5333 -0.0561
  174MOL0     C23411   9.299  10.035   1.726  0.3183  0.3977 -0.3013
  174MOL0     C23412   9.243   9.948   1.629 -0.3080  0.5136 -0.1080
  174MOL0     C23413   9.141   9.867   1.661 -0.4399 -0.2822  0.8858
  174MOL0     O23414   9.094   9.763   1.582  0.2357  0.3124  0.0278
  174MOL0     C23415   9.150   9.741   1.461  0.9080 -0.6683  0.4089
  174MOL0     C23416   9.095   9.605   1.421 -1.0269  0.1380 -0.0811
  174MOL0     C23417   9.087   9.576   1.274  0.0834  0.9979 -0.3658
  174MOL0     C23418   9.066   9.433   1.236  0.7443  0.1589  0.5545
  174MOL0     C23419   8.951   9.369   1.308 -1.1259 -0.3435 -0.5258
  174MOL0     C23420   8.877   9.305   1.378 -0.2067 -0.5458 -0.4991
  174MOL0     C23421   9.061   9.896   1.776  0.4232 -0.2440  0.4388
  174MOL0     C23422   9.106   9.989   1.871 -0.4672  0.3713 -0.0390
  174MOL0     H23423   9.310  10.158   2.248 -0.0850  0.2409 -0.1716
  174MOL0     H23424   9.345  10.322   2.429  2.2572  2.2800 -1.1240
  174MOL0     H23425   9.402  10.596   2.544 -1.3701  0.5886  0.8049
  174MOL0     H23426   9.413  10.658   2.371 -2.4162  0.5258 -1.3803
  174MOL0     H23427   9.219  10.801   2.413  0.9110  1.0598 -1.7820
  174MOL0     H23428   9.259  10.789   2.581 -0.7046  2.0294 -1.6572
  174MOL0     H23429   9.425  10.941   2.380  0.9175  2.4708  1.1090
  174MOL0     H23430   9.348  10.994   2.527 -1.5906  0.4208 -1.5382
  174MOL0     H23431   9.512  10.822   2.653 -2.1323  2.4116  0.9060
  174MOL0     H23432   9.575  10.794   2.496 -4.5303 -1.1433 -1.7643
  174MOL0     H23433   9.616  11.060   2.658  1.8575 -0.9623  1.2990
  174MOL0     H23434   9.721  10.941   2.598  0.1132 -0.5992 -0.4760
  174MOL0     H23435   9.665  10.996   2.367 -0.2349  1.6415  0.1253
  174MOL0     H23436   9.538  11.115   2.421 -0.4776  4.1785  3.4667
  174MOL0     H23437   9.834  11.159   2.452  1.1670  1.0527  1.1146
  174MOL0     H23438   9.739  11.238   2.330 -0.6998  1.2063  0.2153
  174MOL0     H23439   9.786  11.375   2.546  1.0573 -1.6089  0.2471
  174MOL0     H23440   9.677  11.274   2.635 -5.0180 -0.1461 -0.0417
  174MOL0     H23441   9.403  11.287   2.602 -1.8207  1.1689 -0.0989
  174MOL0     H23442   9.192  11.392   2.414 -0.9501 -1.4090  1.0886
  174MOL0     H23443   9.207  11.431   2.586 -2.7709 -1.5916 -1.1483
  174MOL0     H23444   9.072  11.595   2.517 -0.4036 -2.0403  0.3336
  174MOL0     H23445   9.164  11.624   2.363  0.5100 -2.2851 -0.8212
  174MOL0     H23446   9.191  11.798   2.537 -1.7445 -1.5634 -2.5295
  174MOL0     H23447   9.349  11.716   2.504  0.7498  0.5890  1.5762
  174MOL0     H23448   9.315  11.585   2.703  1.4058  0.4783 -3.1782
  174MOL0     H23449   9.147  11.624   2.727 -0.7616  0.9002  1.2629
  174MOL0     H23450   9.515  11.681   2.712  1.7356  0.8266 -1.2489
  174MOL0     H23451   9.804  11.755   2.685  3.7725  3.6988 -2.3542
  174MOL0     H23452   9.695  11.736   2.540 -1.6214  1.4133 -1.9745
  174MOL0     H23453   9.779  11.876   2.552 -1.8410  1.0122 -0.4025
  174MOL0     H23454  10.033  12.048   2.565  0.6567  1.6834 -1.6110
  174MOL0     H23455  10.208  12.198   2.536 -0.7756  3.0850  0.0737
  174MOL0     H23456  10.436  12.295   2.598  0.4359  0.8784 -2.1788
  174MOL0     H23457  10.310  12.401   2.523  0.8725 -0.4434 -0.7508
  174MOL0     H23458  10.403  12.587   2.618 -4.1481 -3.0937 -1.0450
  174MOL0     H23459  10.529  12.503   2.704 -0.3963  0.2416 -0.7533
  174MOL0     H23460  10.496  12.501   2.405  1.1920 -0.1922 -0.0865
  174MOL0     H23461  10.634  12.452   2.499 -1.6429 -2.3354  0.6202
  174MOL0     H23462  10.549  12.729   2.405  0.3678 -0.0072 -0.0265
  174MOL0     H23463  10.585  12.727   2.582 -2.3947  1.9644 -0.4277
  174MOL0     H23464  10.749  12.642   2.336  2.9414 -1.6410  0.1573
  174MOL0     H23465  10.803  12.611   2.502 -1.4333 -1.3244 -0.1185
  174MOL0     H23466  10.690  12.870   2.367  1.0020 -1.6363 -1.6722
  174MOL0     H23467  10.733  12.870   2.533  0.1793  0.1294  0.3842
  174MOL0     H23468  10.928  12.791   2.314  1.6676 -1.3113  1.8035
  174MOL0     H23469  10.973  12.827   2.475  1.7272 -2.1344 -2.3753
  174MOL0     H23470  10.895  13.069   2.446 -1.1205 -1.0647 -0.5815
  174MOL0     H23471  10.875  13.018   2.278  0.8892  0.4795 -0.4993
  174MOL0     H23472  10.184  12.310   2.955 -1.3278 -1.7202  0.3748
  174MOL0     H23473  10.001  12.160   2.977  3.6646  0.2854  0.9773
  174MOL0     H23474   9.508  12.169   2.797 -1.2460 -0.9437  1.5261
  174MOL0     H23475   9.322  12.020   2.865  1.4260  4.8142 -1.5256
  174MOL0     H23476   9.141  10.619   2.209 -3.3739 -0.6469 -3.1649
  174MOL0     H23477   9.080  10.442   2.021 -2.4692 -3.3668  0.5719
  174MOL0     H23478   9.394  10.084   1.706  1.1715 -2.1023 -3.1804
  174MOL0     H23479   9.278   9.956   1.527  1.1433  1.5823  0.4360
  174MOL0     H23480   9.111   9.810   1.386 -0.1083 -0.2313  1.3228
  174MOL0     H23481   9.258   9.759   1.458  0.6138  1.2605 -1.0850
  174MOL0     H23482   9.004   9.577   1.474  0.4802 -3.4952  0.8250
  174MOL0     H23483   9.170   9.532   1.451 -0.0984 -0.2465 -3.0392
  174MOL0     H23484   9.178   9.611   1.223  0.9043  0.3474  0.5982
  174MOL0     H23485   9.000   9.630   1.237 -0.0774 -0.3393 -2.0577
  174MOL0     H23486   9.158   9.380   1.263 -0.1231 -1.9163 -0.3659
  174MOL0     H23487   9.054   9.427   1.127  2.5069 -0.3852  0.3663
  174MOL0     H23488   8.812   9.254   1.446 -0.4050  0.5711  0.1770
  174MOL0     H23489   8.967   9.841   1.780  0.3776 -0.5948 -2.8528
  174MOL0     H23490   9.040  10.018   1.952 -1.8226 -0.4189 -0.8250
  175MOL0     O23491   7.216   8.175   2.618  0.5656  0.5180  0.0104
  175MOL0     C23492   7.172   8.184   2.508  0.5099  0.4874 -0.2633
  175MOL0     O23493   7.061   8.256   2.481 -0.2190 -0.2305  0.5204
  175MOL0     C23494   7.022   8.349   2.579  0.1823  0.3868 -0.1041
  175MOL0     C23495   7.104   8.455   2.622 -1.0638  0.0440 -0.3481
  175MOL0     C23496   7.057   8.535   2.731  0.7619  0.5681 -0.2502
  175MOL0     C23497   6.927   8.516   2.788  0.7536 -0.8196  0.0608
  175MOL0     O23498   6.878   8.616   2.879  0.3038  0.1645 -0.0393
  175MOL0     C23499   6.820   8.558   3.001 -0.4465 -0.1474 -0.2432
  175MOL0     C23500   6.850   8.657   3.116 -0.0120  0.0527 -0.1176
  175MOL0     C23501   6.994   8.684   3.151 -0.4691  0.7431  0.3716
  175MOL0     C23502   7.014   8.757   3.282  0.2314 -0.6455  0.0107
  175MOL0     C23503   7.160   8.809   3.315  1.1804  0.8573 -0.2207
  175MOL0     C23504   7.216   8.916   3.216 -0.9972  0.3591 -0.2424
  175MOL0     C23505   7.348   8.983   3.262 -0.1064  0.0391 -1.0249
  175MOL0     C23506   7.314   9.070   3.384  0.5114  0.1670  0.2221
  175MOL0     N23507   7.235   9.203   3.358  0.4051 -0.0172 -0.7697
  175MOL0     C23508   7.286   9.329   3.324 -0.4197 -0.2643 -0.3610
  175MOL0     C23509   7.182   9.418   3.337 -0.0717  0.1734 -0.3564
  175MOL0     C23510   7.211   9.567   3.343  0.1931  0.6350  0.0049
  175MOL0     C23511   7.165   9.625   3.480  1.1533  0.0003  0.1747
  175MOL0     C23512   7.013   9.620   3.513 -0.0863  0.2104 -0.7661
  175MOL0     C23513   6.990   9.660   3.659  0.2593 -0.2352 -0.1584
  175MOL0     O23514   6.847   9.687   3.672 -0.1032  0.4358  0.2949
  175MOL0     C23515   6.808   9.764   3.780  0.4902  0.1047  0.2489
  175MOL0     C23516   6.886   9.785   3.894 -0.0599  0.8424  0.4093
  175MOL0     C23517   6.852   9.874   4.001 -0.7727 -0.6148 -0.5453
  175MOL0     C23518   6.945   9.883   4.126 -0.4576 -0.0761  0.3388
  175MOL0     C23519   6.728   9.941   3.983 -0.3544 -0.4600 -0.5234
  175MOL0     C23520   6.663  10.041   4.077 -0.5046 -0.6698 -0.4831
  175MOL0     O23521   6.728  10.074   4.191 -0.2870 -0.1794  0.4634
  175MOL0     C23522   6.666  10.171   4.265 -0.9762  0.9402  0.2233
  175MOL0     C23523   6.591  10.142   4.383  0.4696 -0.5609 -0.6072
  175MOL0     C23524   6.526  10.250   4.452 -0.9161 -0.2266  0.4450
  175MOL0     C23525   6.545  10.379   4.410  0.4537  0.3427 -0.0790
  175MOL0     O23526   6.475  10.476   4.487  0.0803 -0.4931  0.0113
  175MOL0     C23527   6.392  10.569   4.409  0.4747 -0.1133  0.4451
  175MOL0     C23528   6.287  10.637   4.487 -0.1847  0.3311 -0.0243
  175MOL0     C23529   6.184  10.539   4.536  0.3593 -0.3392 -0.3410
  175MOL0     C23530   6.096  10.475   4.427  0.5661  1.5012  0.0002
  175MOL0     C23531   6.030  10.586   4.348 -0.2883 -0.5239  0.2347
  175MOL0     C23532   5.911  10.519   4.266  0.2047  0.3794  0.3288
  175MOL0     C23533   5.824  10.622   4.193 -0.0636 -0.4402  0.3880
  175MOL0     C23534   5.719  10.570   4.090 -0.4205 -0.5248  0.6695
  175MOL0    Cl23535   5.776  10.555   3.928  0.0795  0.3146 -0.0549
  175MOL0     C23536   6.624  10.410   4.301 -0.2865 -0.7597  0.9260
  175MOL0     C23537   6.685  10.308   4.234  0.1841  1.2988 -0.7357
  175MOL0     O23538   6.561  10.098   4.044 -0.1700 -0.2117  0.0197
  175MOL0     C23539   6.640   9.904   3.881 -0.5447  0.5182 -0.3059
  175MOL0     C23540   6.681   9.819   3.775  0.2085 -0.0390 -0.0237
  175MOL0     N23541   7.072   9.339   3.379 -0.2318 -0.6919  0.6256
  175MOL0     N23542   7.105   9.216   3.394 -0.6686  0.3343 -0.1764
  175MOL0     C23543   6.843   8.414   2.737  0.4373 -0.0751  0.8798
  175MOL0     C23544   6.887   8.336   2.626  0.3944  0.6125  0.0618
  175MOL0     C23545   7.240   8.117   2.396  0.4875 -0.0161  0.2098
  175MOL0     C23546   7.352   8.031   2.420 -0.0031  0.0214 -0.3266
  175MOL0     C23547   7.406   7.961   2.318  0.6555 -0.4364 -0.0390
  175MOL0     C23548   7.366   7.984   2.186 -0.0814  0.4662 -0.4052
  175MOL0     O23549   7.406   7.910   2.076  0.1516  0.3212 -0.0421
  175MOL0     C23550   7.322   7.795   2.063  0.5895  0.5054  0.8056
  175MOL0     C23551   7.392   7.704   1.968 -0.6551 -1.1376 -0.7865
  175MOL0     C23552   7.307   7.585   1.925 -0.6497  0.0818 -0.9903
  175MOL0     C23553   7.377   7.471   1.845  0.0234  0.2355  0.3720
  175MOL0     C23554   7.440   7.511   1.725  0.7912  0.4186 -0.2457
  175MOL0     C23555   7.509   7.547   1.639  0.5538 -0.1435 -0.3369
  175MOL0     C23556   7.257   8.071   2.155 -0.1640  0.7623  0.4364
  175MOL0     C23557   7.200   8.142   2.263 -0.1910  0.8467  0.6028
  175MOL0     H23558   7.206   8.475   2.591 -0.4207  3.9859  3.2381
  175MOL0     H23559   7.108   8.626   2.764 -0.3434  1.6453 -1.3751
  175MOL0     H23560   6.715   8.528   3.000 -0.8851  1.3257 -0.7494
  175MOL0     H23561   6.877   8.472   3.036 -1.8889 -1.0379 -0.0153
  175MOL0     H23562   6.808   8.751   3.079  1.6056  2.0026  2.6505
  175MOL0     H23563   6.782   8.639   3.201  0.4426  3.6837  1.1883
  175MOL0     H23564   7.051   8.592   3.163 -2.2804 -0.0995  3.8333
  175MOL0     H23565   7.034   8.754   3.077  0.9547  1.8984  2.1468
  175MOL0     H23566   6.951   8.847   3.283 -3.2326 -2.6767 -3.9209
  175MOL0     H23567   6.976   8.702   3.368  2.5336  0.0314  1.5628
  175MOL0     H23568   7.142   8.862   3.409 -0.8035 -2.3703  1.3878
  175MOL0     H23569   7.223   8.721   3.332  0.3603  0.6151  1.8197
  175MOL0     H23570   7.236   8.869   3.119 -0.8104 -0.7544  0.3107
  175MOL0     H23571   7.138   8.990   3.203 -1.7595 -0.6171 -1.4512
  175MOL0     H23572   7.432   8.916   3.279  0.2603  0.6663 -0.2737
  175MOL0     H23573   7.387   9.053   3.187 -1.7482  1.7171 -0.3832
  175MOL0     H23574   7.409   9.114   3.417  0.0621 -0.6508  2.8789
  175MOL0     H23575   7.279   9.016   3.472 -0.3159 -1.1912 -0.8910
  175MOL0     H23576   7.391   9.355   3.314 -0.4973  1.6962  2.7028
  175MOL0     H23577   7.316   9.594   3.330  0.1149  1.0253  0.1547
  175MOL0     H23578   7.165   9.608   3.252  0.2622 -1.0608 -0.8265
  175MOL0     H23579   7.203   9.727   3.493  0.1461  0.5523 -1.0694
  175MOL0     H23580   7.211   9.556   3.551  1.4380 -1.5053 -1.4223
  175MOL0     H23581   6.981   9.515   3.515  2.3730 -0.6107  1.7323
  175MOL0     H23582   6.961   9.688   3.445  2.9778  0.4295 -3.1020
  175MOL0     H23583   7.054   9.744   3.689  2.0687 -1.3275 -0.7942
  175MOL0     H23584   7.019   9.576   3.723  0.4905  0.1160  0.2050
  175MOL0     H23585   6.978   9.729   3.910 -0.6788  0.1669  1.7519
  175MOL0     H23586   7.039   9.830   4.109 -1.3133 -0.7884 -2.8225
  175MOL0     H23587   6.979   9.987   4.127 -0.7401  0.1763 -3.2897
  175MOL0     H23588   6.891   9.854   4.216 -1.0491 -1.6091 -0.4763
  175MOL0     H23589   6.566  10.039   4.407 -2.5509 -0.1031 -1.3590
  175MOL0     H23590   6.478  10.216   4.543  0.7086 -4.2498  0.0058
  175MOL0     H23591   6.456  10.650   4.373  0.5677 -1.2374 -2.1809
  175MOL0     H23592   6.347  10.520   4.322  0.6726  1.3509 -0.5232
  175MOL0     H23593   6.328  10.686   4.575 -0.6094  0.3335  0.1762
  175MOL0     H23594   6.248  10.711   4.417 -1.2460 -0.5592 -0.4096
  175MOL0     H23595   6.130  10.595   4.613  2.4488 -1.4517  2.0886
  175MOL0     H23596   6.231  10.463   4.600 -1.0090  0.1067  1.2673
  175MOL0     H23597   6.148  10.403   4.364 -1.9624 -1.9446  1.5481
  175MOL0     H23598   6.018  10.417   4.478 -0.0873  1.3164 -1.1749
  175MOL0     H23599   6.095  10.639   4.278 -3.1110  0.1240 -2.1358
  175MOL0     H23600   5.983  10.668   4.403 -0.4693 -0.0467 -0.5978
  175MOL0     H23601   5.952  10.450   4.192 -1.7204  1.7282 -2.1460
  175MOL0     H23602   5.833  10.465   4.321  0.2702 -1.3560 -1.1821
  175MOL0     H23603   5.875  10.703   4.139 -1.4271 -1.6243 -2.9174
  175MOL0     H23604   5.767  10.675   4.271 -2.5715 -0.5966 -1.2461
  175MOL0     H23605   5.632  10.637   4.091 -0.5076 -0.5942 -0.4592
  175MOL0     H23606   5.661  10.481   4.115  0.1572 -2.1116 -2.9215
  175MOL0     H23607   6.634  10.513   4.271 -0.1828 -1.0330 -0.0088
  175MOL0     H23608   6.741  10.334   4.145  2.4645  0.0875  0.2716
  175MOL0     H23609   6.537   9.938   3.872 -0.6297  0.0245 -1.4865
  175MOL0     H23610   6.607   9.781   3.705 -2.1696  0.8214  1.8547
  175MOL0     H23611   6.741   8.397   2.768  0.3081 -4.4548 -1.1389
  175MOL0     H23612   6.821   8.274   2.566  2.0201  1.1548 -2.4161
  175MOL0     H23613   7.397   8.004   2.515  2.0812  2.5916 -0.4520
  175MOL0     H23614   7.479   7.882   2.334  1.3798 -0.4992 -3.1048
  175MOL0     H23615   7.305   7.746   2.159 -0.4591  0.5778  0.6657
  175MOL0     H23616   7.228   7.836   2.024  0.8243 -0.0185 -0.3347
  175MOL0     H23617   7.482   7.661   2.012 -1.8110 -2.1785  0.6361
  175MOL0     H23618   7.424   7.758   1.878  2.0915 -4.1178 -1.7868
  175MOL0     H23619   7.222   7.622   1.866 -0.0405 -1.2461 -2.8254
  175MOL0     H23620   7.271   7.543   2.018  1.9015  3.7476  1.9684
  175MOL0     H23621   7.303   7.391   1.836 -1.1744  0.9356  2.8886
  175MOL0     H23622   7.452   7.426   1.910  0.9451  0.1817 -0.6929
  175MOL0     H23623   7.580   7.576   1.564  0.3829  1.6169  0.1419
  175MOL0     H23624   7.229   8.083   2.051  0.9766 -3.6047 -0.6113
  175MOL0     H23625   7.124   8.216   2.242 -0.4876  0.1081 -1.1301
  176MOL0     O23626   5.315   2.795   9.594 -0.4200 -0.7165 -0.2995
  176MOL0     C23627   5.212   2.849   9.633 -0.3542  0.1703  0.7277
  176MOL0     O23628   5.135   2.933   9.562 -0.5354  0.2544 -0.1933
  176MOL0     C23629   5.174   2.970   9.433  0.2452 -0.3651 -0.8206
  176MOL0     C23630   5.142   3.098   9.405  0.8273 -0.4376 -0.4515
  176MOL0     C23631   5.171   3.157   9.281 -0.0668 -1.2040  0.7769
  176MOL0     C23632   5.246   3.091   9.195  0.0224  0.2858 -0.4809
  176MOL0     O23633   5.301   3.154   9.087  0.2029  1.1017 -0.9132
  176MOL0     C23634   5.314   3.079   8.963  0.1630 -0.2601 -0.2127
  176MOL0     C23635   5.321   3.190   8.851  0.1819 -0.3239  0.0746
  176MOL0     C23636   5.205   3.291   8.837 -0.5711  0.0012  0.1585
  176MOL0     C23637   5.208   3.355   8.694  0.0355 -0.3942  0.9495
  176MOL0     C23638   5.090   3.458   8.668  0.9087 -0.1898  0.4596
  176MOL0     C23639   4.952   3.386   8.649  0.3040  0.5422  0.5842
  176MOL0     C23640   4.835   3.482   8.620 -0.3947  0.3172 -0.2660
  176MOL0     C23641   4.811   3.602   8.726  0.5281  0.0041 -0.3300
  176MOL0     N23642   4.800   3.551   8.861  0.0616 -0.2756  0.3440
  176MOL0     C23643   4.701   3.470   8.914  0.0250  0.2090 -1.3867
  176MOL0     C23644   4.754   3.426   9.033 -0.1993 -0.0856 -0.0421
  176MOL0     C23645   4.693   3.315   9.116 -0.2313 -0.1253 -0.5952
  176MOL0     C23646   4.738   3.169   9.092  0.0601  0.6311  0.2573
  176MOL0     C23647   4.875   3.162   9.018  0.2395 -0.0862 -0.0090
  176MOL0     C23648   4.929   3.019   8.979 -0.0694 -0.5188  0.7782
  176MOL0     O23649   4.847   2.908   8.942 -0.6518 -0.4525  0.3784
  176MOL0     C23650   4.757   2.920   8.836 -0.4361 -0.7045  0.1150
  176MOL0     C23651   4.766   3.009   8.739  1.6868 -0.3068 -0.1539
  176MOL0     C23652   4.668   3.019   8.632 -0.7900  0.3959 -0.3365
  176MOL0     C23653   4.685   3.122   8.524  0.5457 -0.2377 -0.7739
  176MOL0     C23654   4.563   2.914   8.625 -0.1274  0.1672 -0.2860
  176MOL0     C23655   4.462   2.897   8.530  0.0390  0.1660  0.4409
  176MOL0     O23656   4.428   2.764   8.509  0.1685 -0.5395 -0.9533
  176MOL0     C23657   4.314   2.737   8.439 -0.6516 -0.8681  0.0827
  176MOL0     C23658   4.304   2.785   8.302 -0.0044  0.0295 -0.5166
  176MOL0     C23659   4.194   2.755   8.230 -0.8593  0.5337  0.4337
  176MOL0     C23660   4.084   2.682   8.281 -0.3668 -0.5037 -1.0770
  176MOL0     O23661   3.971   2.649   8.220  0.1705 -0.4493  0.2625
  176MOL0     C23662   3.908   2.762   8.157 -0.2405 -0.2708 -0.8615
  176MOL0     C23663   3.908   2.726   8.010  0.6316  0.9693  0.0494
  176MOL0     C23664   3.779   2.654   7.960 -0.5182  0.0451  0.3420
  176MOL0     C23665   3.807   2.570   7.836  0.3890 -0.6685  0.0903
  176MOL0     C23666   3.875   2.655   7.725  0.1222  0.0297  0.0426
  176MOL0     C23667   3.779   2.767   7.657 -0.4603  0.3896 -0.8996
  176MOL0     C23668   3.844   2.819   7.531 -0.8249 -0.1566 -0.6259
  176MOL0     C23669   3.763   2.936   7.472 -0.7926  0.2762 -0.1409
  176MOL0    Cl23670   3.805   3.083   7.568 -0.0801  0.0002 -0.0643
  176MOL0     C23671   4.095   2.634   8.421 -0.4504  0.2426 -0.5515
  176MOL0     C23672   4.209   2.657   8.494 -0.8602 -0.0019 -0.4821
  176MOL0     O23673   4.402   2.984   8.475  0.3004 -1.0028 -0.2713
  176MOL0     C23674   4.577   2.817   8.727  0.4405 -0.1626 -0.0688
  176MOL0     C23675   4.671   2.821   8.832 -0.3068 -0.1455  0.3715
  176MOL0     N23676   4.884   3.476   9.050  0.0893 -0.8175  0.5240
  176MOL0     N23677   4.912   3.566   8.952  0.0798 -0.4932  0.8271
  176MOL0     C23678   5.269   2.953   9.214  0.4691  0.1143  0.3529
  176MOL0     C23679   5.224   2.890   9.329 -0.8675 -0.3572  1.0577
  176MOL0     C23680   5.167   2.818   9.767  1.1219  1.0244 -0.4953
  176MOL0     C23681   5.216   2.706   9.837 -0.1511 -0.0743 -0.8017
  176MOL0     C23682   5.162   2.671   9.960  0.3047 -0.0619  0.2541
  176MOL0     C23683   5.063   2.751  10.024  0.0823 -0.6450 -0.4913
  176MOL0     O23684   5.007   2.722  10.149 -0.4635 -0.3314 -0.1274
  176MOL0     C23685   5.012   2.590  10.215  0.1503 -0.3143  0.8182
  176MOL0     C23686   4.916   2.582  10.335 -0.0333 -0.1362 -0.2946
  176MOL0     C23687   4.762   2.568  10.282 -0.5820  1.1808 -0.5882
  176MOL0     C23688   4.668   2.607  10.385  0.2742  0.7159 -1.0459
  176MOL0     C23689   4.650   2.518  10.502  0.0227 -0.6645  0.7680
  176MOL0     C23690   4.621   2.447  10.589 -0.0840  0.4907 -0.6346
  176MOL0     C23691   5.033   2.871   9.961 -0.1936 -0.1608 -0.2374
  176MOL0     C23692   5.068   2.900   9.839 -0.2060 -1.3623  0.6382
  176MOL0     H23693   5.092   3.164   9.475  1.6492  0.5591 -0.7788
  176MOL0     H23694   5.140   3.260   9.269  2.0951 -0.1043  3.4458
  176MOL0     H23695   5.394   3.004   8.958 -0.0754 -0.4162 -2.5230
  176MOL0     H23696   5.225   3.017   8.947 -1.0537  1.1081  0.9715
  176MOL0     H23697   5.420   3.235   8.851 -0.2460  0.6377 -0.6883
  176MOL0     H23698   5.319   3.123   8.764  1.8280 -1.7806  1.0787
  176MOL0     H23699   5.110   3.238   8.848 -1.8670  1.7637 -1.8873
  176MOL0     H23700   5.200   3.365   8.918  0.0348  0.6862 -0.4141
  176MOL0     H23701   5.296   3.419   8.684  0.0926 -0.8113 -2.0390
  176MOL0     H23702   5.220   3.271   8.625 -0.0526  1.6142 -1.6710
  176MOL0     H23703   5.090   3.531   8.749  1.3091  2.2014 -1.5719
  176MOL0     H23704   5.111   3.520   8.581 -0.2310  0.6224  0.7409
  176MOL0     H23705   4.973   3.324   8.562 -3.8801 -1.3004  0.6624
  176MOL0     H23706   4.932   3.324   8.737  0.7834  0.9472  0.9875
  176MOL0     H23707   4.851   3.534   8.525 -5.0256  2.2658 -0.2445
  176MOL0     H23708   4.740   3.432   8.603 -1.1846  0.6798  2.5748
  176MOL0     H23709   4.722   3.659   8.700  0.0555  0.2864  1.6949
  176MOL0     H23710   4.901   3.664   8.727  2.1159 -2.1622 -1.0905
  176MOL0     H23711   4.608   3.440   8.867  0.0334  0.2030 -1.3991
  176MOL0     H23712   4.717   3.328   9.222  2.8125 -3.1740 -0.7181
  176MOL0     H23713   4.584   3.325   9.117 -0.3350 -0.6519  2.3894
  176MOL0     H23714   4.662   3.127   9.025  0.6535  2.6359 -1.8153
  176MOL0     H23715   4.752   3.114   9.185 -4.3664 -1.3441  0.0183
  176MOL0     H23716   4.952   3.218   9.073 -2.4614  2.0431  1.8827
  176MOL0     H23717   4.853   3.210   8.922 -3.7655 -0.6830  0.4470
  176MOL0     H23718   4.987   2.990   9.067  2.9887 -0.7366 -1.1554
  176MOL0     H23719   4.999   3.040   8.897 -2.3176 -1.8909 -1.6240
  176MOL0     H23720   4.837   3.091   8.742  2.1100 -0.6219 -1.2062
  176MOL0     H23721   4.618   3.099   8.441  2.2647 -2.0015 -1.7526
  176MOL0     H23722   4.672   3.220   8.572 -1.5825 -1.0292  0.4104
  176MOL0     H23723   4.789   3.139   8.493  0.5735  0.6254 -0.2457
  176MOL0     H23724   4.387   2.837   8.255  1.4788 -0.3110  1.5763
  176MOL0     H23725   4.201   2.778   8.124 -0.6147 -3.2097 -0.4889
  176MOL0     H23726   3.816   2.798   8.204  1.2332 -0.1885  2.2289
  176MOL0     H23727   3.961   2.857   8.168 -3.3844  1.4464  0.9982
  176MOL0     H23728   3.916   2.814   7.946  0.2691 -2.1448 -4.7856
  176MOL0     H23729   3.999   2.672   7.984  1.5664  2.8895 -0.8284
  176MOL0     H23730   3.712   2.740   7.949  0.8098  1.0588 -0.0783
  176MOL0     H23731   3.751   2.582   8.038 -0.8227  0.5343  0.6879
  176MOL0     H23732   3.865   2.484   7.870 -1.1775 -0.6251  3.2369
  176MOL0     H23733   3.706   2.530   7.819 -0.9012  1.0909  2.8350
  176MOL0     H23734   3.903   2.597   7.637  3.6297  1.7625 -0.1635
  176MOL0     H23735   3.970   2.701   7.753 -0.6472  1.5780  0.2340
  176MOL0     H23736   3.678   2.742   7.623 -1.1939  1.0189  0.6898
  176MOL0     H23737   3.761   2.851   7.725 -1.4169  2.2441 -3.3279
  176MOL0     H23738   3.861   2.741   7.455  1.3401 -0.7218  0.3430
  176MOL0     H23739   3.940   2.864   7.558 -1.2049  0.1434  0.2519
  176MOL0     H23740   3.656   2.916   7.480 -0.2443 -3.0573  0.4177
  176MOL0     H23741   3.779   2.943   7.364 -0.2874 -1.4162 -0.2177
  176MOL0     H23742   4.021   2.573   8.471  1.4296 -0.2119  1.8893
  176MOL0     H23743   4.221   2.608   8.590  0.3136  0.4765 -0.3749
  176MOL0     H23744   4.515   2.728   8.726  0.1327  0.0530 -0.8606
  176MOL0     H23745   4.662   2.750   8.913  1.6847 -0.4135  0.4080
  176MOL0     H23746   5.336   2.897   9.149  0.8358  0.6119  0.2965
  176MOL0     H23747   5.237   2.783   9.328  3.2323 -0.0027  0.8729
  176MOL0     H23748   5.303   2.651   9.803  1.8463  4.1066 -3.2422
  176MOL0     H23749   5.184   2.581  10.017 -1.6880  0.1399  1.4434
  176MOL0     H23750   4.984   2.510  10.147  0.6492  0.7395 -0.6878
  176MOL0     H23751   5.110   2.563  10.256  0.3993 -1.8786 -0.7170
  176MOL0     H23752   4.920   2.681  10.381  0.3314  0.0611 -0.7470
  176MOL0     H23753   4.951   2.504  10.403  1.0329  0.4048 -0.2058
  176MOL0     H23754   4.749   2.464  10.250  2.8688  0.3337  0.3503
  176MOL0     H23755   4.727   2.609  10.187 -1.5332 -1.9233 -1.7149
  176MOL0     H23756   4.571   2.624  10.336 -0.6961  0.6206  0.7731
  176MOL0     H23757   4.696   2.705  10.424 -2.0075  1.7795 -1.9109
  176MOL0     H23758   4.583   2.397  10.677  0.3482  1.5849  0.1959
  176MOL0     H23759   4.967   2.943  10.009 -1.7510 -2.5263  1.3927
  176MOL0     H23760   5.015   2.985   9.798 -0.0454 -1.4215  0.3080
  177MOL0     O23761   9.123   2.574   4.603  0.3448  0.1361 -0.2164
  177MOL0     C23762   9.179   2.544   4.714  0.3925 -0.0060  0.0972
  177MOL0     O23763   9.207   2.420   4.746  0.3427 -0.3135  0.1210
  177MOL0     C23764   9.208   2.312   4.645  0.4194 -0.0406 -0.6708
  177MOL0     C23765   9.192   2.185   4.693 -0.5938  0.2855  0.6568
  177MOL0     C23766   9.194   2.077   4.603 -0.5213 -1.0591  0.0391
  177MOL0     C23767   9.203   2.092   4.462 -0.1981  0.8122 -0.1211
  177MOL0     O23768   9.192   1.999   4.367 -0.4558 -0.2467  0.6501
  177MOL0     C23769   9.130   1.877   4.405  0.8202 -0.4541 -0.3548
  177MOL0     C23770   9.107   1.787   4.288  0.0599 -0.1542  0.5814
  177MOL0     C23771   9.015   1.855   4.179  0.1157  0.2761 -0.5208
  177MOL0     C23772   9.089   1.874   4.041  0.3237  0.0029  0.1577
  177MOL0     C23773   9.046   1.986   3.950 -0.6158 -0.0062 -1.0047
  177MOL0     C23774   8.896   1.980   3.912  0.3488  0.6181 -0.6021
  177MOL0     C23775   8.862   2.039   3.780 -0.5778 -0.0285  0.7367
  177MOL0     C23776   8.715   2.086   3.784 -0.6547 -0.0322 -0.8093
  177MOL0     N23777   8.660   2.088   3.643  0.7379 -0.2408 -0.6387
  177MOL0     C23778   8.667   2.191   3.554 -1.0150  0.4503 -0.7242
  177MOL0     C23779   8.609   2.134   3.438  0.8748 -0.2896  0.5819
  177MOL0     C23780   8.645   2.206   3.309 -0.7340 -0.3656  0.3693
  177MOL0     C23781   8.740   2.119   3.228  0.3983 -0.3043 -0.2597
  177MOL0     C23782   8.685   2.015   3.139  0.7486  0.0784 -0.5343
  177MOL0     C23783   8.802   1.925   3.090 -0.0155  0.2893 -0.1025
  177MOL0     O23784   8.753   1.847   2.981 -0.0905  0.0852  0.9063
  177MOL0     C23785   8.841   1.777   2.896 -0.8131 -0.5157 -0.2089
  177MOL0     C23786   8.793   1.752   2.774  0.0853  1.0469  0.4030
  177MOL0     C23787   8.874   1.689   2.672  1.6670  0.3916  0.0591
  177MOL0     C23788   8.815   1.680   2.531 -0.0417 -0.8893 -0.7950
  177MOL0     C23789   9.010   1.640   2.705  0.4366 -0.1817 -0.4194
  177MOL0     C23790   9.101   1.576   2.604 -0.8094  0.9180 -0.6166
  177MOL0     O23791   9.222   1.533   2.656 -0.3587 -0.1675 -0.3755
  177MOL0     C23792   9.318   1.487   2.572 -0.3742 -0.3779 -0.1245
  177MOL0     C23793   9.312   1.357   2.516  0.6203  0.1357  0.0261
  177MOL0     C23794   9.400   1.324   2.414  1.2925  0.0809 -0.4096
  177MOL0     C23795   9.509   1.401   2.387 -0.3310 -0.4370 -0.1796
  177MOL0     O23796   9.614   1.358   2.300  0.4298  0.2644 -0.6528
  177MOL0     C23797   9.574   1.329   2.163  0.4122 -1.3824  1.2356
  177MOL0     C23798   9.653   1.215   2.109 -0.8361  0.2430  0.0322
  177MOL0     C23799   9.802   1.222   2.123 -0.6452  1.4666  0.0708
  177MOL0     C23800   9.864   1.350   2.063  0.4954  0.0561  0.7905
  177MOL0     C23801  10.021   1.355   2.063  0.1934  0.3677  0.5161
  177MOL0     C23802  10.070   1.473   1.982  0.0591 -0.3542 -0.8538
  177MOL0     C23803  10.217   1.463   1.929 -0.6155  0.0549  0.1174
  177MOL0     C23804  10.231   1.361   1.821 -0.7197  0.3131  0.0204
  177MOL0    Cl23805  10.402   1.349   1.768 -0.5590 -0.6208  0.1877
  177MOL0     C23806   9.527   1.523   2.451  0.3538  1.1285  0.1587
  177MOL0     C23807   9.432   1.570   2.537  0.1491 -0.1132  0.0902
  177MOL0     O23808   9.068   1.552   2.492  0.2539 -0.0605  1.3520
  177MOL0     C23809   9.034   1.646   2.843 -0.0185 -0.2586 -0.3431
  177MOL0     C23810   8.956   1.713   2.941 -0.6307  1.4186  0.8899
  177MOL0     N23811   8.561   2.005   3.471  1.2420 -0.3715 -0.3497
  177MOL0     N23812   8.576   1.992   3.593 -0.3915  0.0067  0.0288
  177MOL0     C23813   9.220   2.224   4.424  0.1181  0.3046 -0.4785
  177MOL0     C23814   9.231   2.334   4.507  1.2407  0.9425  0.3102
  177MOL0     C23815   9.198   2.652   4.812  0.5054 -0.6207  0.9273
  177MOL0     C23816   9.233   2.629   4.939 -0.2648 -1.0026  0.2064
  177MOL0     C23817   9.251   2.733   5.031  0.3936 -0.6278 -0.4206
  177MOL0     C23818   9.225   2.868   4.997  0.3721  0.2279 -0.1406
  177MOL0     O23819   9.236   2.976   5.085 -0.6622  0.3369  0.2020
  177MOL0     C23820   9.269   2.969   5.219 -0.0140 -0.3337 -0.4177
  177MOL0     C23821   9.343   3.094   5.256 -1.2090  0.7084 -1.1512
  177MOL0     C23822   9.481   3.095   5.192  0.8715  0.1101  0.7260
  177MOL0     C23823   9.577   3.199   5.241  0.1923 -0.0998 -1.0159
  177MOL0     C23824   9.706   3.206   5.178 -0.3452  0.1967 -0.0621
  177MOL0     C23825   9.825   3.222   5.155  0.0036 -0.3302 -0.4145
  177MOL0     C23826   9.182   2.897   4.872 -0.2898 -0.3377  0.4509
  177MOL0     C23827   9.158   2.787   4.784 -0.2298  0.0115  0.5200
  177MOL0     H23828   9.168   2.185   4.799  0.7384  2.3314  0.9998
  177MOL0     H23829   9.181   1.981   4.653  0.8399 -1.3763 -0.1824
  177MOL0     H23830   9.200   1.830   4.475 -1.0414 -2.2388  0.3853
  177MOL0     H23831   9.028   1.893   4.442  0.1912 -0.6129 -1.9329
  177MOL0     H23832   9.206   1.761   4.250  0.8379  0.7246  1.9260
  177MOL0     H23833   9.063   1.689   4.312 -2.1081  0.7767  0.7123
  177MOL0     H23834   8.943   1.777   4.157  1.0046 -0.4837 -0.8059
  177MOL0     H23835   8.982   1.953   4.216  3.2163  2.3682 -2.7062
  177MOL0     H23836   9.196   1.890   4.060 -0.0755  1.8016  1.0902
  177MOL0     H23837   9.080   1.778   3.988  1.6932 -0.0596  0.0013
  177MOL0     H23838   9.075   2.077   4.003 -3.7972  1.4480 -1.5181
  177MOL0     H23839   9.107   1.976   3.860 -2.4343  4.6637 -3.0772
  177MOL0     H23840   8.877   1.872   3.908  0.1048  0.6753 -1.0848
  177MOL0     H23841   8.842   2.027   3.995 -0.1194  1.0893 -1.1615
  177MOL0     H23842   8.927   2.120   3.748 -1.4680 -0.6825 -3.3348
  177MOL0     H23843   8.872   1.957   3.707  0.4111  0.8030 -0.0979
  177MOL0     H23844   8.722   2.185   3.830  0.0729 -0.9328  1.1386
  177MOL0     H23845   8.655   2.022   3.849 -1.4223  0.7825 -0.7099
  177MOL0     H23846   8.728   2.280   3.564 -2.5131  1.4104  0.2958
  177MOL0     H23847   8.555   2.244   3.261 -0.3479  0.4278  0.2486
  177MOL0     H23848   8.700   2.298   3.329  2.5910 -2.1825  0.3285
  177MOL0     H23849   8.802   2.069   3.303 -1.0017 -0.6597  0.6965
  177MOL0     H23850   8.786   2.197   3.167 -1.9606  0.3189 -1.3623
  177MOL0     H23851   8.626   2.059   3.057 -0.3953  1.9570  1.2077
  177MOL0     H23852   8.605   1.957   3.187  0.8836  2.2915  2.5962
  177MOL0     H23853   8.824   1.857   3.172  1.2766  2.1847  1.2197
  177MOL0     H23854   8.892   1.976   3.055  1.2015 -1.1548  0.8345
  177MOL0     H23855   8.695   1.786   2.741  0.1628 -0.1956 -1.2897
  177MOL0     H23856   8.894   1.723   2.469  2.1107 -2.1001  0.9628
  177MOL0     H23857   8.805   1.571   2.524  1.3208 -1.0842 -0.0134
  177MOL0     H23858   8.721   1.732   2.511 -0.5846 -1.3718  0.4078
  177MOL0     H23859   9.228   1.290   2.533  1.8809 -1.1919  1.1832
  177MOL0     H23860   9.393   1.227   2.367  1.7991 -2.2352  3.8096
  177MOL0     H23861   9.468   1.304   2.163 -0.9555  2.9076 -2.9250
  177MOL0     H23862   9.579   1.413   2.093 -2.1565 -0.7982  1.6501
  177MOL0     H23863   9.626   1.124   2.163  0.7271 -0.4936 -0.3699
  177MOL0     H23864   9.642   1.203   2.001  2.4760  3.8478 -0.9335
  177MOL0     H23865   9.827   1.143   2.051  3.1726  1.8718  0.7361
  177MOL0     H23866   9.831   1.206   2.227 -0.3411 -0.6458 -0.2946
  177MOL0     H23867   9.829   1.355   1.959 -0.3781  2.7153  1.1321
  177MOL0     H23868   9.824   1.436   2.119  0.5680  1.2784 -0.9649
  177MOL0     H23869  10.054   1.262   2.015 -2.0418 -1.0000  1.4421
  177MOL0     H23870  10.053   1.361   2.168  1.7384  0.0685  0.0913
  177MOL0     H23871  10.012   1.491   1.892 -0.8245  3.3682  0.2951
  177MOL0     H23872  10.051   1.562   2.042 -0.5411  0.8866 -2.8097
  177MOL0     H23873  10.288   1.445   2.011  1.9530  0.4964 -1.8723
  177MOL0     H23874  10.247   1.562   1.894 -0.6311  0.2306  0.5851
  177MOL0     H23875  10.164   1.378   1.736  1.2528  2.2406 -1.2568
  177MOL0     H23876  10.196   1.261   1.847 -1.1814  0.2744 -0.7294
  177MOL0     H23877   9.612   1.578   2.414  0.0519 -0.1509 -2.6952
  177MOL0     H23878   9.428   1.669   2.583 -0.9740 -0.2558  0.3393
  177MOL0     H23879   9.129   1.608   2.880 -2.1520 -3.4279  2.4485
  177MOL0     H23880   8.992   1.705   3.043 -1.8643 -3.8546  1.2054
  177MOL0     H23881   9.211   2.249   4.319 -0.7005  2.4458  0.0388
  177MOL0     H23882   9.242   2.436   4.473  1.3806  1.5100  1.9577
  177MOL0     H23883   9.261   2.530   4.974 -3.2851 -2.2450 -0.6425
  177MOL0     H23884   9.271   2.701   5.133  0.6846 -0.4240 -0.4130
  177MOL0     H23885   9.185   2.954   5.288 -0.7085  1.5004 -0.8140
  177MOL0     H23886   9.328   2.878   5.236 -0.1320 -0.2355  0.6024
  177MOL0     H23887   9.384   3.086   5.357  0.6954  3.0622 -1.6510
  177MOL0     H23888   9.284   3.185   5.246 -2.7848 -0.3925 -2.4255
  177MOL0     H23889   9.459   3.096   5.085  0.7850 -3.0829  0.6179
  177MOL0     H23890   9.533   3.003   5.218  1.1148  0.3442  1.0796
  177MOL0     H23891   9.594   3.184   5.348  1.3081 -0.7009 -1.2596
  177MOL0     H23892   9.529   3.297   5.234 -0.8400 -0.5187 -0.1456
  177MOL0     H23893   9.920   3.267   5.137  0.2813 -0.1147  1.3974
  177MOL0     H23894   9.166   3.002   4.853 -0.2856 -0.6952 -1.7955
  177MOL0     H23895   9.115   2.817   4.689 -1.9622  0.3306  1.3653
  178MOL0     O23896   0.309   1.836   8.896  0.1028 -0.6362 -0.4205
  178MOL0     C23897   0.352   1.852   8.782 -0.4718  0.6883 -0.2409
  178MOL0     O23898   0.329   1.753   8.683 -0.6238 -0.3890 -0.2558
  178MOL0     C23899   0.265   1.638   8.722 -0.3991 -0.7746 -0.1186
  178MOL0     C23900   0.342   1.525   8.754 -0.4195  1.0455 -0.0470
  178MOL0     C23901   0.276   1.406   8.804 -0.2757  0.1050  0.0961
  178MOL0     C23902   0.136   1.401   8.815  0.2631  0.0658  0.6533
  178MOL0     O23903   0.097   1.280   8.871  0.2827 -0.1554 -0.1304
  178MOL0     C23904  -0.042   1.234   8.876  0.7129 -1.3368  0.5207
  178MOL0     C23905  -0.052   1.106   8.964  0.2061  0.2282 -0.7654
  178MOL0     C23906  -0.077   1.142   9.121  0.6123  0.1718  0.7363
  178MOL0     C23907   0.040   1.211   9.185 -0.1256  0.4890  0.5653
  178MOL0     C23908   0.022   1.189   9.340 -0.0129  0.4044 -0.6642
  178MOL0     C23909   0.116   1.273   9.428 -0.2264  0.2232  0.3168
  178MOL0     C23910   0.085   1.217   9.575 -0.4691 -0.1728  0.9687
  178MOL0     C23911   0.173   1.277   9.680  0.4060 -0.6206  0.4638
  178MOL0     N23912   0.171   1.195   9.798  0.5061 -0.2775  0.0262
  178MOL0     C23913   0.274   1.101   9.823  0.6157  0.4725 -1.1471
  178MOL0     C23914   0.227   1.030   9.932 -0.2800  0.0818 -0.2022
  178MOL0     C23915   0.296   0.925  10.017  0.6729  0.5276  0.7512
  178MOL0     C23916   0.372   0.992  10.131 -0.0176  0.6028 -0.5496
  178MOL0     C23917   0.444   1.122  10.104  0.1404 -0.8540 -0.1868
  178MOL0     C23918   0.540   1.168  10.224 -0.8531  0.5667  1.0183
  178MOL0     O23919   0.453   1.212  10.323  0.4481  0.8270 -0.7028
  178MOL0     C23920   0.498   1.272  10.436 -0.6955  0.1852 -1.2575
  178MOL0     C23921   0.411   1.283  10.541 -0.3420  0.0817 -1.3261
  178MOL0     C23922   0.450   1.315  10.670  0.6312 -0.5154 -0.7266
  178MOL0     C23923   0.333   1.313  10.770 -0.3039  0.4923 -1.4347
  178MOL0     C23924   0.582   1.341  10.694  0.6070  0.9217 -0.2944
  178MOL0     C23925   0.651   1.352  10.827  0.0816  0.4647  0.4764
  178MOL0     O23926   0.782   1.390  10.833  0.1253  0.3355  0.5748
  178MOL0     C23927   0.864   1.371  10.951  0.4526  0.8295 -0.8151
  178MOL0     C23928   0.962   1.264  10.969 -1.1997  0.6769 -0.8388
  178MOL0     C23929   1.053   1.259  11.081  0.0698 -0.1015 -0.8237
  178MOL0     C23930   1.031   1.345  11.186 -0.8757  0.4036  1.8431
  178MOL0     O23931   1.120   1.337  11.294 -1.0404  0.1147 -0.0091
  178MOL0     C23932   1.091   1.396  11.419 -1.1552 -0.5008  0.4593
  178MOL0     C23933   0.977   1.328  11.493 -0.5920  0.7819  0.4131
  178MOL0     C23934   0.846   1.309  11.418  0.4198  0.6403 -0.1509
  178MOL0     C23935   0.717   1.263  11.486 -0.4333 -0.4011 -0.4844
  178MOL0     C23936   0.584   1.286  11.411  0.0231 -0.5227  0.3615
  178MOL0     C23937   0.542   1.426  11.431 -0.5088  0.2834 -0.0108
  178MOL0     C23938   0.438   1.466  11.325  0.0391  0.2307 -1.1061
  178MOL0     C23939   0.363   1.598  11.367 -0.2088 -0.5156 -0.1422
  178MOL0    Cl23940   0.257   1.552  11.509  0.5482  0.0517  0.2067
  178MOL0     C23941   0.945   1.456  11.166 -0.7358  0.3178 -0.1667
  178MOL0     C23942   0.867   1.469  11.044 -0.0610 -0.1702 -0.4280
  178MOL0     O23943   0.592   1.306  10.929 -0.1881 -0.0440 -1.0415
  178MOL0     C23944   0.667   1.350  10.587  0.0817 -0.3234 -0.3375
  178MOL0     C23945   0.631   1.315  10.456  0.1869 -0.5237  0.0104
  178MOL0     N23946   0.106   1.089   9.970  0.3819  0.3264 -0.1608
  178MOL0     N23947   0.076   1.189   9.898  0.6959 -1.4226  0.0350
  178MOL0     C23948   0.065   1.524   8.779 -0.1398  0.3808 -0.7560
  178MOL0     C23949   0.129   1.637   8.729 -0.1749 -0.0134 -0.5851
  178MOL0     C23950   0.411   1.972   8.744  0.1615  0.5090  0.0116
  178MOL0     C23951   0.496   1.986   8.635  0.2986 -0.3568 -0.5090
  178MOL0     C23952   0.536   2.116   8.592  0.2296 -0.2017 -0.3311
  178MOL0     C23953   0.496   2.232   8.663  0.0629 -0.0084  0.4741
  178MOL0     O23954   0.532   2.361   8.638 -0.0137 -0.1596  0.2606
  178MOL0     C23955   0.623   2.388   8.535 -0.2012 -0.8831  0.2158
  178MOL0     C23956   0.627   2.543   8.519  0.3100  0.2165 -0.4520
  178MOL0     C23957   0.708   2.598   8.634 -0.6245  0.2137 -0.1735
  178MOL0     C23958   0.728   2.745   8.646  0.3680 -0.0567  0.4550
  178MOL0     C23959   0.801   2.768   8.761  0.1485 -0.5084  0.5384
  178MOL0     C23960   0.859   2.797   8.861 -0.3482 -0.0917  0.2861
  178MOL0     C23961   0.411   2.215   8.767 -0.7305  0.0868 -0.3394
  178MOL0     C23962   0.370   2.084   8.812  0.4453 -0.3891 -0.5748
  178MOL0     H23963   0.449   1.540   8.743  0.2658 -2.2054  1.0909
  178MOL0     H23964   0.340   1.319   8.819  0.2831  0.6160  0.7059
  178MOL0     H23965  -0.104   1.319   8.907 -0.9637 -2.1029 -0.5522
  178MOL0     H23966  -0.069   1.209   8.773 -1.5727  1.2361  0.3825
  178MOL0     H23967  -0.142   1.045   8.951 -0.0492 -1.1135  4.6909
  178MOL0     H23968   0.039   1.045   8.954  0.1280 -0.5590  2.1421
  178MOL0     H23969  -0.171   1.199   9.124 -1.5960 -2.1459 -5.9568
  178MOL0     H23970  -0.108   1.052   9.175  0.3984 -2.0713 -2.7697
  178MOL0     H23971   0.137   1.169   9.156  1.0101  1.4745  2.6983
  178MOL0     H23972   0.048   1.319   9.176  1.8387  0.2906 -0.7947
  178MOL0     H23973  -0.077   1.218   9.376  1.3031  5.9565 -0.6116
  178MOL0     H23974   0.047   1.084   9.357  0.2421  0.5104 -0.3590
  178MOL0     H23975   0.218   1.244   9.399 -1.3287 -3.0772 -0.6425
  178MOL0     H23976   0.111   1.382   9.417 -0.2503  0.7020  3.9187
  178MOL0     H23977  -0.015   1.253   9.605 -0.9039  0.3612 -0.9726
  178MOL0     H23978   0.097   1.109   9.577  2.0474  0.0079 -0.3023
  178MOL0     H23979   0.148   1.378   9.713 -1.9456 -0.8009 -0.5914
  178MOL0     H23980   0.271   1.284   9.633  0.1935  0.1389  0.1298
  178MOL0     H23981   0.355   1.072   9.757  1.9982  2.0106 -0.2157
  178MOL0     H23982   0.222   0.846  10.035  1.5855 -0.4566  0.2817
  178MOL0     H23983   0.367   0.874   9.951  0.2668  1.1319 -0.1726
  178MOL0     H23984   0.442   0.918  10.172 -1.0999  1.3876  3.1294
  178MOL0     H23985   0.305   1.011  10.216  0.1832  2.0600 -0.7064
  178MOL0     H23986   0.369   1.201  10.093  0.7858 -0.2965 -0.6769
  178MOL0     H23987   0.507   1.109  10.015  1.3463  0.1930  0.4877
  178MOL0     H23988   0.615   1.242  10.196 -0.7366 -0.2932 -1.2153
  178MOL0     H23989   0.599   1.088  10.270  0.8256 -0.1928 -2.1093
  178MOL0     H23990   0.305   1.264  10.526 -1.5527  1.1959  3.9205
  178MOL0     H23991   0.333   1.403  10.832 -1.1635 -1.0880  1.0206
  178MOL0     H23992   0.235   1.300  10.724 -0.1436  0.1071 -1.6684
  178MOL0     H23993   0.354   1.228  10.836  4.4648  1.0849 -1.8110
  178MOL0     H23994   0.982   1.194  10.889 -0.0074 -0.3345  0.3056
  178MOL0     H23995   1.118   1.175  11.103 -1.2259 -0.3579  2.4996
  178MOL0     H23996   1.186   1.386  11.472 -1.4962  0.3786  1.2691
  178MOL0     H23997   1.075   1.504  11.413 -1.3978 -0.6061 -2.2782
  178MOL0     H23998   1.004   1.228  11.528  0.7666  1.8581  2.6653
  178MOL0     H23999   0.955   1.385  11.584 -1.4242  1.9500 -0.4882
  178MOL0     H24000   0.867   1.242  11.334  3.6149 -1.2850  1.9897
  178MOL0     H24001   0.818   1.404  11.369  3.2984  0.6298 -2.0447
  178MOL0     H24002   0.736   1.157  11.509 -0.4097  0.1623  2.5509
  178MOL0     H24003   0.712   1.302  11.589  0.3120 -2.0958  0.2396
  178MOL0     H24004   0.518   1.209  11.453 -0.3876 -1.6640 -2.1971
  178MOL0     H24005   0.598   1.255  11.307 -2.1024 -1.6709  0.3501
  178MOL0     H24006   0.508   1.432  11.534  0.6451  0.0062  0.4108
  178MOL0     H24007   0.625   1.493  11.404 -0.7020 -1.1829 -5.5556
  178MOL0     H24008   0.355   1.394  11.324  1.0761 -1.0068 -0.8927
  178MOL0     H24009   0.478   1.470  11.223  0.3142 -1.2350 -1.0835
  178MOL0     H24010   0.298   1.634  11.287  1.0069 -1.2479 -1.5106
  178MOL0     H24011   0.439   1.675  11.384 -1.2928  0.8392 -1.2014
  178MOL0     H24012   0.951   1.540  11.234 -0.7755  1.0910 -1.0874
  178MOL0     H24013   0.805   1.557  11.029 -1.9902 -0.8136  2.8237
  178MOL0     H24014   0.773   1.370  10.602 -0.5197  2.5722  0.7030
  178MOL0     H24015   0.704   1.310  10.375  0.7362  3.3599  0.0863
  178MOL0     H24016  -0.043   1.527   8.788 -0.1630 -2.3643  0.7951
  178MOL0     H24017   0.061   1.722   8.721 -1.4586 -0.9779 -0.1957
  178MOL0     H24018   0.519   1.893   8.584 -2.3747 -2.1179  1.2515
  178MOL0     H24019   0.612   2.124   8.515  0.5889 -0.0616  0.0324
  178MOL0     H24020   0.726   2.356   8.551  0.1015  0.0337  0.1614
  178MOL0     H24021   0.584   2.357   8.437  0.1428 -1.6196  0.3004
  178MOL0     H24022   0.521   2.567   8.513  0.1762 -0.4966 -1.0199
  178MOL0     H24023   0.671   2.561   8.420  0.0041  0.9973 -0.4548
  178MOL0     H24024   0.811   2.562   8.622  0.7600  3.1380  1.7593
  178MOL0     H24025   0.665   2.579   8.733 -1.2981  4.4670  0.5352
  178MOL0     H24026   0.631   2.794   8.655  1.2523  2.1277 -1.0709
  178MOL0     H24027   0.781   2.794   8.563  2.3443  1.2910  2.3961
  178MOL0     H24028   0.917   2.820   8.947  0.5445 -1.1848  0.0008
  178MOL0     H24029   0.376   2.307   8.813 -0.7509 -1.2426  2.5162
  178MOL0     H24030   0.306   2.075   8.899  2.6218  0.5751  1.2339
  179MOL0     O24031   8.066   6.704   1.508 -0.4443  0.5903 -0.0381
  179MOL0     C24032   7.952   6.742   1.515  0.6154 -0.5112 -0.2541
  179MOL0     O24033   7.888   6.833   1.424  0.5600 -0.0238  0.4075
  179MOL0     C24034   7.977   6.882   1.329 -0.6144 -1.0258  0.2746
  179MOL0     C24035   8.000   7.021   1.329 -1.3373  0.4917  0.0708
  179MOL0     C24036   8.091   7.079   1.232  0.7861  0.2908 -0.1729
  179MOL0     C24037   8.152   6.995   1.135 -0.4007  0.5268 -0.6216
  179MOL0     O24038   8.249   7.049   1.052 -0.2865 -0.1824 -0.5659
  179MOL0     C24039   8.302   7.179   1.082 -1.0782 -0.2819 -0.8201
  179MOL0     C24040   8.443   7.182   1.034 -0.3267  0.5928 -0.4193
  179MOL0     C24041   8.534   7.097   1.127  0.1621 -0.1862  0.3559
  179MOL0     C24042   8.678   7.119   1.089 -0.7743  0.6015  0.3478
  179MOL0     C24043   8.773   7.043   1.184  0.0610  0.1384  0.7001
  179MOL0     C24044   8.789   6.886   1.153 -0.4061 -0.2543 -0.5628
  179MOL0     C24045   8.908   6.813   1.213  0.3125 -0.8131  0.0232
  179MOL0     C24046   8.885   6.813   1.359 -0.4620  0.2159  0.8433
  179MOL0     N24047   9.001   6.786   1.440 -0.7102  0.7650  0.1051
  179MOL0     C24048   9.114   6.868   1.437 -0.1143 -0.1455 -0.3245
  179MOL0     C24049   9.185   6.829   1.548 -0.2456 -0.9630 -0.4124
  179MOL0     C24050   9.330   6.875   1.588 -0.6950  0.6841 -0.1790
  179MOL0     C24051   9.417   6.941   1.471  0.7553  0.2281  0.3240
  179MOL0     C24052   9.547   7.005   1.518  0.1173 -0.4657 -0.2026
  179MOL0     C24053   9.593   7.098   1.408  0.0035  0.2083 -0.0053
  179MOL0     O24054   9.627   7.026   1.290  0.2701  0.1533 -0.6413
  179MOL0     C24055   9.647   7.098   1.174  0.3729 -0.4412 -0.0858
  179MOL0     C24056   9.641   7.029   1.056  0.5164 -0.6791  0.7030
  179MOL0     C24057   9.670   7.097   0.929  0.1708 -1.8546  0.2105
  179MOL0     C24058   9.684   7.011   0.803 -0.4660 -0.0704  0.1080
  179MOL0     C24059   9.690   7.240   0.924 -0.4468  0.2142  0.3190
  179MOL0     C24060   9.715   7.327   0.807  0.8955 -0.2742 -0.1678
  179MOL0     O24061   9.725   7.459   0.832  0.3061  1.5749  0.0519
  179MOL0     C24062   9.731   7.542   0.732 -0.0245 -0.4919  0.7092
  179MOL0     C24063   9.855   7.615   0.700  0.0655  0.5057  0.3794
  179MOL0     C24064   9.861   7.701   0.592  0.7580 -0.3366  0.2505
  179MOL0     C24065   9.753   7.713   0.510  0.2116 -0.4171  0.4467
  179MOL0     O24066   9.762   7.801   0.403 -0.4503  0.5451 -0.3813
  179MOL0     C24067   9.643   7.843   0.342  0.3709  0.4141  0.7222
  179MOL0     C24068   9.680   7.958   0.241  0.3199 -0.0286  0.1198
  179MOL0     C24069   9.727   7.893   0.114  0.6028  0.5365  0.1251
  179MOL0     C24070   9.757   7.996   0.014 -0.6213 -0.2986  0.3813
  179MOL0     C24071   9.779   7.944  -0.131 -0.2376 -0.3703 -1.0921
  179MOL0     C24072   9.826   8.042  -0.240  0.2765  1.6063 -0.2071
  179MOL0     C24073   9.723   8.165  -0.259 -0.5968  0.0222  1.2953
  179MOL0     C24074   9.581   8.148  -0.316  0.7827  0.3449  0.5133
  179MOL0    Cl24075   9.482   8.285  -0.279 -0.3094  0.2667  0.0303
  179MOL0     C24076   9.644   7.636   0.522 -0.7931 -0.7395 -0.4331
  179MOL0     C24077   9.631   7.550   0.639  0.0549 -0.7562  0.5518
  179MOL0     O24078   9.725   7.281   0.695  1.1107  0.8231 -0.1354
  179MOL0     C24079   9.705   7.295   1.050 -0.0418 -0.9433 -0.2219
  179MOL0     C24080   9.671   7.234   1.172  0.1064 -0.0351 -0.2569
  179MOL0     N24081   9.119   6.716   1.605 -0.1792 -0.0977  0.2857
  179MOL0     N24082   9.007   6.699   1.542 -0.1128 -0.6137 -0.2116
  179MOL0     C24083   8.118   6.856   1.139 -0.1175 -0.0815 -0.3544
  179MOL0     C24084   8.028   6.807   1.230 -0.2840  0.3096 -0.7746
  179MOL0     C24085   7.880   6.681   1.630 -0.9292  0.1258  0.0413
  179MOL0     C24086   7.742   6.705   1.637 -0.7113 -0.1009  0.4073
  179MOL0     C24087   7.670   6.652   1.742  0.2587 -1.1285  0.9234
  179MOL0     C24088   7.725   6.562   1.836  1.2063 -0.2639  0.3065
  179MOL0     O24089   7.663   6.524   1.955  0.7340  0.8112  0.4328
  179MOL0     C24090   7.577   6.622   2.019 -0.2330  0.0976 -1.0666
  179MOL0     C24091   7.658   6.740   2.061 -0.3389  0.9998 -0.1819
  179MOL0     C24092   7.763   6.707   2.179  0.0730 -0.4511 -0.3166
  179MOL0     C24093   7.854   6.818   2.212 -0.6293 -0.3040 -0.1071
  179MOL0     C24094   7.948   6.832   2.107 -0.5097  0.1887  0.4931
  179MOL0     C24095   8.024   6.821   2.010 -0.0823 -1.5186  0.8481
  179MOL0     C24096   7.863   6.540   1.835  0.2595 -0.6712  0.8939
  179MOL0     C24097   7.936   6.607   1.737 -1.1838 -0.4654  0.2339
  179MOL0     H24098   7.953   7.081   1.407  4.0891  0.2411  4.0867
  179MOL0     H24099   8.117   7.184   1.242  1.4502  0.2208 -1.0490
  179MOL0     H24100   8.249   7.257   1.026 -1.0798  3.3025  3.6203
  179MOL0     H24101   8.307   7.213   1.186  1.8147  3.3215 -1.9260
  179MOL0     H24102   8.445   7.145   0.931  1.6792  0.1288 -0.2521
  179MOL0     H24103   8.472   7.288   1.032  2.4502  0.1148 -6.1354
  179MOL0     H24104   8.529   7.126   1.232 -1.9593 -1.6658  0.7271
  179MOL0     H24105   8.526   6.988   1.122  1.4961 -0.2746 -0.1106
  179MOL0     H24106   8.701   7.095   0.984  0.6140 -0.1996  0.8028
  179MOL0     H24107   8.708   7.224   1.098  0.0659  0.2089  3.1737
  179MOL0     H24108   8.872   7.087   1.181 -0.4028  1.1672 -1.6235
  179MOL0     H24109   8.738   7.052   1.288 -1.7904  1.0658  0.0489
  179MOL0     H24110   8.701   6.827   1.181 -0.2843  0.4038  1.3102
  179MOL0     H24111   8.816   6.884   1.047  1.8104  1.8215 -0.1141
  179MOL0     H24112   8.914   6.711   1.172  0.2508 -0.4327 -0.9629
  179MOL0     H24113   9.006   6.850   1.182  0.5026 -1.2883  0.0372
  179MOL0     H24114   8.804   6.742   1.382 -2.1864  1.5634 -0.8160
  179MOL0     H24115   8.855   6.911   1.398  0.7833  1.1836 -0.5377
  179MOL0     H24116   9.137   6.951   1.371 -4.8133  0.9174 -0.9402
  179MOL0     H24117   9.309   6.957   1.657  1.7981 -1.5447  3.5587
  179MOL0     H24118   9.379   6.787   1.631 -0.6450  0.5291 -0.5442
  179MOL0     H24119   9.359   7.026   1.435  2.0607  2.0778  2.3561
  179MOL0     H24120   9.438   6.864   1.395  1.3057  0.0599  0.6393
  179MOL0     H24121   9.622   6.930   1.545 -0.2873 -0.5138  0.8223
  179MOL0     H24122   9.524   7.077   1.597 -1.5613  0.5286 -1.5052
  179MOL0     H24123   9.676   7.160   1.447 -2.7019  4.3317 -0.1457
  179MOL0     H24124   9.512   7.165   1.378 -1.4057 -1.6920 -0.6119
  179MOL0     H24125   9.631   6.922   1.047  1.5401 -0.7742  0.4915
  179MOL0     H24126   9.601   7.035   0.736  1.6593 -1.5532 -3.2954
  179MOL0     H24127   9.779   7.032   0.753 -0.3691 -0.7091  0.0185
  179MOL0     H24128   9.693   6.909   0.841 -2.5819 -0.1347  0.5644
  179MOL0     H24129   9.949   7.590   0.748  0.6153 -3.6019 -2.2621
  179MOL0     H24130   9.958   7.745   0.575  0.4078  0.2000 -0.3886
  179MOL0     H24131   9.588   7.765   0.289 -0.6806  1.9809 -0.6186
  179MOL0     H24132   9.579   7.885   0.421 -0.3027  2.6296 -0.8940
  179MOL0     H24133   9.594   8.023   0.222  0.0208  0.2060  2.1019
  179MOL0     H24134   9.754   8.030   0.276 -0.6262  3.1022 -3.5881
  179MOL0     H24135   9.649   7.839   0.058  1.9841 -0.9792 -0.4245
  179MOL0     H24136   9.818   7.833   0.116 -1.1132 -2.2311 -0.0377
  179MOL0     H24137   9.674   8.067   0.007  0.1658  0.4939 -1.6142
  179MOL0     H24138   9.849   8.046   0.048 -0.0859  0.8635 -2.4781
  179MOL0     H24139   9.682   7.902  -0.160 -1.4185  2.8001 -2.0733
  179MOL0     H24140   9.846   7.860  -0.112 -3.4087 -2.5060  1.9808
  179MOL0     H24141   9.927   8.079  -0.217  0.8947 -0.2735  0.2770
  179MOL0     H24142   9.819   7.974  -0.325 -1.0649 -3.6632  3.6402
  179MOL0     H24143   9.771   8.228  -0.335  0.1383 -2.3482 -0.3495
  179MOL0     H24144   9.709   8.228  -0.172  2.7335 -0.9109  2.6563
  179MOL0     H24145   9.539   8.056  -0.273  0.0342 -1.4648 -3.5421
  179MOL0     H24146   9.589   8.139  -0.425  1.6503 -1.0742  0.6753
  179MOL0     H24147   9.561   7.658   0.456 -1.1904  3.1067  1.0385
  179MOL0     H24148   9.540   7.490   0.643 -0.8221  0.5782  1.0813
  179MOL0     H24149   9.709   7.403   1.053  0.6195 -0.9801  1.9629
  179MOL0     H24150   9.666   7.298   1.260  2.0277 -0.2783  0.0821
  179MOL0     H24151   8.168   6.793   1.066  3.1104  0.9245  0.8121
  179MOL0     H24152   8.002   6.701   1.225  0.9764 -0.1857  1.6827
  179MOL0     H24153   7.703   6.774   1.563 -0.8015 -0.5770 -0.0030
  179MOL0     H24154   7.570   6.692   1.755  0.3176  1.0453 -3.2498
  179MOL0     H24155   7.504   6.663   1.949  1.3761  2.8219 -1.3167
  179MOL0     H24156   7.535   6.581   2.112  1.1952 -2.1673 -1.3443
  179MOL0     H24157   7.593   6.825   2.085 -0.1174  1.2220 -0.3703
  179MOL0     H24158   7.712   6.772   1.972  0.1530  2.0242  0.4639
  179MOL0     H24159   7.822   6.620   2.147 -0.5834 -1.8545  2.0000
  179MOL0     H24160   7.708   6.680   2.270 -3.4291 -0.1144 -2.1681
  179MOL0     H24161   7.896   6.782   2.306  2.6063  0.5010 -1.1084
  179MOL0     H24162   7.805   6.912   2.240  2.8280  1.2943  1.2064
  179MOL0     H24163   8.078   6.821   1.918 -0.8149  2.4136  0.2467
  179MOL0     H24164   7.911   6.470   1.904  2.5708 -2.1424 -2.0108
  179MOL0     H24165   8.044   6.597   1.734 -0.9340  1.6893  0.4808
  180MOL0     O24166   0.306   5.362   1.763  0.6052 -0.7961  0.5811
  180MOL0     C24167   0.293   5.458   1.838  0.1733 -0.5459 -0.6076
  180MOL0     O24168   0.221   5.573   1.822 -0.8797 -0.3333  0.0524
  180MOL0     C24169   0.126   5.585   1.723 -0.3312  0.7696 -0.7347
  180MOL0     C24170   0.139   5.565   1.581  0.6179 -0.7522  0.0811
  180MOL0     C24171   0.038   5.589   1.499  1.1951 -0.1912  0.6278
  180MOL0     C24172  -0.101   5.604   1.540 -0.8243  0.0336  0.1148
  180MOL0     O24173  -0.196   5.593   1.448  0.0754  0.7330  0.5243
  180MOL0     C24174  -0.336   5.586   1.485  0.5787  0.2617 -0.3839
  180MOL0     C24175  -0.414   5.585   1.363 -0.3919  0.0810  0.3579
  180MOL0     C24176  -0.565   5.558   1.389 -0.2049 -0.7554 -0.4983
  180MOL0     C24177  -0.643   5.518   1.265  0.1990  0.0505  0.1442
  180MOL0     C24178  -0.675   5.642   1.181  0.1788 -0.1440 -0.5200
  180MOL0     C24179  -0.739   5.607   1.043 -0.5028  0.9148 -0.1799
  180MOL0     C24180  -0.876   5.530   1.048  0.6179 -0.1472  0.8402
  180MOL0     C24181  -0.944   5.520   0.906 -1.2606  0.2034  0.2624
  180MOL0     N24182  -0.883   5.439   0.791 -0.0864  0.6731 -0.0978
  180MOL0     C24183  -0.954   5.406   0.671  0.3050 -0.3258  0.1021
  180MOL0     C24184  -0.878   5.313   0.614 -0.0140  0.1710  0.6514
  180MOL0     C24185  -0.933   5.243   0.499 -0.3153  0.0024  0.8358
  180MOL0     C24186  -0.838   5.178   0.399 -0.2508  0.1303 -0.3108
  180MOL0     C24187  -0.711   5.254   0.361 -0.6919 -0.7053 -1.0927
  180MOL0     C24188  -0.647   5.176   0.255 -0.3921  0.4962 -0.6721
  180MOL0     O24189  -0.715   5.188   0.125 -0.1900  0.0786  0.4387
  180MOL0     C24190  -0.668   5.116   0.027  0.0046 -0.4536  0.9680
  180MOL0     C24191  -0.550   5.043   0.035  0.0077  0.0714  0.4325
  180MOL0     C24192  -0.511   4.976  -0.085  0.0652 -0.7030  0.4070
  180MOL0     C24193  -0.376   4.913  -0.070  0.1780  0.4635 -0.0236
  180MOL0     C24194  -0.590   4.972  -0.200  0.6285 -0.2415 -0.0667
  180MOL0     C24195  -0.545   4.910  -0.323 -0.0265  0.0730  0.3366
  180MOL0     O24196  -0.429   4.839  -0.324 -0.8085 -0.1753 -0.5965
  180MOL0     C24197  -0.397   4.773  -0.435  0.2174 -0.1200  0.7555
  180MOL0     C24198  -0.309   4.824  -0.527  0.3353  0.7244  0.4788
  180MOL0     C24199  -0.291   4.761  -0.645  0.2296  0.5024  0.1771
  180MOL0     C24200  -0.353   4.636  -0.674  0.5214 -1.2820 -0.2736
  180MOL0     O24201  -0.321   4.591  -0.808  0.7691  0.5397  0.0330
  180MOL0     C24202  -0.428   4.551  -0.887  0.0493 -0.3473  0.3976
  180MOL0     C24203  -0.412   4.599  -1.041  0.1120 -0.4412 -0.3322
  180MOL0     C24204  -0.546   4.588  -1.120  0.5399 -0.5475 -0.4241
  180MOL0     C24205  -0.598   4.739  -1.166 -0.7813  0.6220 -0.0598
  180MOL0     C24206  -0.721   4.745  -1.250 -1.1935 -0.5130  0.2897
  180MOL0     C24207  -0.836   4.665  -1.187 -0.2345 -0.9899 -0.2977
  180MOL0     C24208  -0.974   4.720  -1.229 -0.3485  0.7594 -0.1651
  180MOL0     C24209  -1.021   4.676  -1.365 -0.4742 -0.0861 -0.2964
  180MOL0    Cl24210  -1.016   4.497  -1.381 -0.0691 -0.4300  0.5422
  180MOL0     C24211  -0.438   4.578  -0.578  0.1452  1.6514 -0.7503
  180MOL0     C24212  -0.456   4.647  -0.459  1.0648 -0.6053  0.1395
  180MOL0     O24213  -0.618   4.926  -0.420  0.2989  0.4393 -0.1731
  180MOL0     C24214  -0.712   5.047  -0.196 -0.5938 -0.1367 -0.5677
  180MOL0     C24215  -0.752   5.110  -0.085 -0.3749  1.4626  0.8013
  180MOL0     N24216  -0.773   5.269   0.701  0.0361  0.6820  0.4704
  180MOL0     N24217  -0.778   5.352   0.800 -0.1061  0.5402  0.1950
  180MOL0     C24218  -0.120   5.611   1.676 -0.6807  0.6658  0.9870
  180MOL0     C24219  -0.006   5.609   1.765 -0.1302 -0.0589 -1.1228
  180MOL0     C24220   0.345   5.442   1.975 -0.3943 -0.0714  0.1143
  180MOL0     C24221   0.438   5.337   1.996 -0.2774  0.9343 -0.6141
  180MOL0     C24222   0.485   5.299   2.123 -0.2976 -0.8345  0.3563
  180MOL0     C24223   0.418   5.359   2.231  0.3200  0.1506  0.1355
  180MOL0     O24224   0.460   5.315   2.352 -0.6475 -0.1358 -0.1919
  180MOL0     C24225   0.396   5.364   2.467  0.8404 -0.4851  0.0790
  180MOL0     C24226   0.420   5.282   2.593  0.0276  0.5573  0.3979
  180MOL0     C24227   0.357   5.142   2.588  0.2961 -0.5164  0.1263
  180MOL0     C24228   0.450   5.036   2.516  0.7260  0.0958  0.6304
  180MOL0     C24229   0.534   4.979   2.624 -0.5178 -0.6860  0.6673
  180MOL0     C24230   0.604   4.916   2.697 -0.0761 -0.0897  0.8766
  180MOL0     C24231   0.333   5.471   2.214 -0.1612 -0.7659  0.0741
  180MOL0     C24232   0.292   5.508   2.093  0.4399 -0.7943  0.1568
  180MOL0     H24233   0.236   5.557   1.534 -0.0303  0.0751 -1.4957
  180MOL0     H24234   0.061   5.598   1.393 -1.1145 -2.7656 -0.2240
  180MOL0     H24235  -0.370   5.497   1.540 -4.4071  1.6381 -0.7361
  180MOL0     H24236  -0.342   5.671   1.552  0.8117  0.6594 -0.8626
  180MOL0     H24237  -0.388   5.673   1.303 -0.9022 -0.1366 -0.1956
  180MOL0     H24238  -0.379   5.495   1.313 -3.3800 -1.5649  0.9960
  180MOL0     H24239  -0.561   5.479   1.465  0.5217  1.0180  1.4105
  180MOL0     H24240  -0.604   5.636   1.457  0.3662 -0.8569 -0.0470
  180MOL0     H24241  -0.578   5.447   1.214 -0.7935 -1.1809  0.5526
  180MOL0     H24242  -0.734   5.470   1.304 -0.1300  0.2239 -0.4048
  180MOL0     H24243  -0.746   5.699   1.241  0.5279 -1.4285  1.1949
  180MOL0     H24244  -0.588   5.707   1.170 -0.0687  1.2980  4.0250
  180MOL0     H24245  -0.754   5.703   0.993 -0.2791  1.1675  0.2298
  180MOL0     H24246  -0.664   5.554   0.984 -0.8294  0.0984  0.1214
  180MOL0     H24247  -0.870   5.430   1.092 -2.0924  0.0395  1.8424
  180MOL0     H24248  -0.945   5.588   1.110  1.6277  0.7818  1.1176
  180MOL0     H24249  -0.959   5.623   0.873 -1.1563  0.1979  0.1936
  180MOL0     H24250  -1.049   5.494   0.919 -1.9270  3.0267  1.3073
  180MOL0     H24251  -1.048   5.450   0.639  1.0007  2.1127  1.1374
  180MOL0     H24252  -0.996   5.164   0.540 -0.0396 -0.6955 -0.0477
  180MOL0     H24253  -0.996   5.307   0.437 -0.3583  1.2782  2.1548
  180MOL0     H24254  -0.906   5.165   0.314 -0.8600 -0.6922  0.2760
  180MOL0     H24255  -0.818   5.080   0.445  3.1253 -0.8110 -3.3061
  180MOL0     H24256  -0.660   5.263   0.457 -0.4702  0.8959 -1.3325
  180MOL0     H24257  -0.738   5.350   0.315  2.1289 -0.1051 -1.6704
  180MOL0     H24258  -0.623   5.072   0.278  1.4244  1.0425  0.0538
  180MOL0     H24259  -0.553   5.230   0.241 -0.4579  0.8809  0.2907
  180MOL0     H24260  -0.483   5.058   0.120  0.5308  0.9984 -0.1258
  180MOL0     H24261  -0.330   4.933   0.027 -0.3869 -2.7190  0.9994
  180MOL0     H24262  -0.392   4.805  -0.075 -1.8475  0.7104  0.2974
  180MOL0     H24263  -0.295   4.930  -0.142  1.2021 -2.1362  0.4006
  180MOL0     H24264  -0.258   4.919  -0.520 -0.6838  1.4613 -1.4791
  180MOL0     H24265  -0.231   4.818  -0.715 -2.6636  0.3748 -2.6249
  180MOL0     H24266  -0.432   4.442  -0.900 -5.4270 -0.1707 -3.0441
  180MOL0     H24267  -0.521   4.593  -0.847 -0.5022 -1.0034 -0.1594
  180MOL0     H24268  -0.387   4.705  -1.037 -1.5446 -0.0481  0.5191
  180MOL0     H24269  -0.330   4.545  -1.089  1.6036 -0.3472  1.9760
  180MOL0     H24270  -0.631   4.537  -1.073  0.2340  0.2772 -0.0599
  180MOL0     H24271  -0.523   4.530  -1.209  3.6921  2.7025 -1.9722
  180MOL0     H24272  -0.593   4.805  -1.079  1.2196  1.4693 -0.7511
  180MOL0     H24273  -0.515   4.759  -1.235 -0.3105 -0.7098  0.0841
  180MOL0     H24274  -0.686   4.695  -1.340  1.1716 -0.4847  1.1242
  180MOL0     H24275  -0.750   4.847  -1.277  0.0097  0.1149  1.2406
  180MOL0     H24276  -0.841   4.560  -1.217 -2.2735 -0.5445 -1.7042
  180MOL0     H24277  -0.819   4.664  -1.079  1.1290 -6.0849 -0.2836
  180MOL0     H24278  -0.967   4.830  -1.226 -0.0403  0.9100 -3.4320
  180MOL0     H24279  -1.048   4.695  -1.152  1.7404  0.5106  1.8868
  180MOL0     H24280  -0.959   4.713  -1.447  1.0483 -0.4788  0.6321
  180MOL0     H24281  -1.118   4.726  -1.369 -0.3847  0.2837  1.4533
  180MOL0     H24282  -0.486   4.481  -0.592  0.7148  0.5972  3.1497
  180MOL0     H24283  -0.529   4.609  -0.388  2.8692 -0.6012  2.1271
  180MOL0     H24284  -0.778   5.042  -0.282  0.0434  0.4987 -1.1070
  180MOL0     H24285  -0.845   5.166  -0.074  1.4716  4.8322  0.8236
  180MOL0     H24286  -0.220   5.604   1.718 -1.1640 -0.3210 -0.2885
  180MOL0     H24287  -0.029   5.599   1.871  0.1475 -3.1736 -1.2594
  180MOL0     H24288   0.482   5.282   1.913  1.5283  0.8712  0.3494
  180MOL0     H24289   0.565   5.226   2.126  1.1350  0.6289 -0.7653
  180MOL0     H24290   0.434   5.464   2.492 -2.5434  0.8006  0.6502
  180MOL0     H24291   0.289   5.376   2.452  0.5594 -2.6386  0.0615
  180MOL0     H24292   0.382   5.329   2.685 -2.6738 -2.4667  1.0244
  180MOL0     H24293   0.526   5.271   2.619 -0.6077  2.0964  4.4470
  180MOL0     H24294   0.252   5.151   2.560  0.1535  1.2738  1.0729
  180MOL0     H24295   0.347   5.099   2.688  0.5955 -2.3850 -0.6008
  180MOL0     H24296   0.513   5.089   2.443 -0.4287  1.0646  0.3073
  180MOL0     H24297   0.390   4.957   2.470 -2.5841  2.7881 -0.0718
  180MOL0     H24298   0.671   4.863   2.762  2.6773  2.1458  0.0251
  180MOL0     H24299   0.312   5.533   2.300 -2.7680 -3.2445  1.4033
  180MOL0     H24300   0.213   5.582   2.092  2.4895  1.5232  0.2700
  181MOL0     O24301   3.714   4.382   0.163  0.3537  0.6330 -0.2200
  181MOL0     C24302   3.615   4.307   0.149 -0.0898 -0.8521 -0.7068
  181MOL0     O24303   3.623   4.190   0.078  0.6016 -0.2310 -0.8926
  181MOL0     C24304   3.728   4.169  -0.007 -0.5243  0.2246  1.1387
  181MOL0     C24305   3.709   4.158  -0.148  0.6108  0.7155 -0.3409
  181MOL0     C24306   3.815   4.161  -0.239 -0.3893  0.3124  0.0201
  181MOL0     C24307   3.947   4.148  -0.191  0.4875 -0.4524  0.2391
  181MOL0     O24308   4.038   4.138  -0.293  0.2098  0.0806 -0.7769
  181MOL0     C24309   4.162   4.078  -0.251 -0.1108 -0.2800 -1.0743
  181MOL0     C24310   4.271   4.072  -0.356 -0.2564  0.1873 -0.2955
  181MOL0     C24311   4.402   4.038  -0.284  0.1243 -0.9468  0.7190
  181MOL0     C24312   4.518   4.071  -0.362 -0.2959 -0.1034  0.5507
  181MOL0     C24313   4.657   4.037  -0.285  0.8668 -0.4401  0.3605
  181MOL0     C24314   4.779   4.128  -0.331  0.1194 -0.2176  0.3020
  181MOL0     C24315   4.840   4.101  -0.474  0.3217 -0.0904 -0.4287
  181MOL0     C24316   4.944   4.193  -0.519  0.4037  0.1813 -0.1895
  181MOL0     N24317   5.016   4.137  -0.627  0.5109 -0.7575 -0.0789
  181MOL0     C24318   4.968   4.074  -0.741 -1.0206 -0.9444 -0.1911
  181MOL0     C24319   5.073   4.092  -0.833 -0.4919 -0.4523 -0.4593
  181MOL0     C24320   5.089   4.026  -0.968 -0.8205 -1.3222 -0.3568
  181MOL0     C24321   5.071   4.121  -1.085 -0.4230  0.0740 -0.7286
  181MOL0     C24322   5.187   4.211  -1.110  1.3635  0.3557  0.0024
  181MOL0     C24323   5.151   4.333  -1.182  0.2732 -0.6469  0.6009
  181MOL0     O24324   5.099   4.422  -1.075 -0.5445  0.4768  0.3012
  181MOL0     C24325   5.102   4.553  -1.098  0.1004  0.0561  0.2151
  181MOL0     C24326   5.126   4.602  -1.222 -0.7139 -0.6764  1.0527
  181MOL0     C24327   5.130   4.743  -1.248 -0.1075 -0.0060  0.4779
  181MOL0     C24328   5.160   4.794  -1.391  1.2212  0.0207 -0.5069
  181MOL0     C24329   5.126   4.825  -1.144 -0.0277  0.4295 -0.7550
  181MOL0     C24330   5.169   4.964  -1.151 -0.0060 -0.1499 -0.1281
  181MOL0     O24331   5.281   4.990  -1.229 -0.3562 -0.6151 -0.0864
  181MOL0     C24332   5.341   5.115  -1.219  0.3456 -0.1617 -1.6286
  181MOL0     C24333   5.380   5.177  -1.332 -0.0043  0.1322  0.2554
  181MOL0     C24334   5.430   5.303  -1.322 -0.9300 -0.2189 -1.2345
  181MOL0     C24335   5.461   5.364  -1.197  0.0766  0.3510  0.3282
  181MOL0     O24336   5.519   5.483  -1.190 -0.8598  0.1872  0.5658
  181MOL0     C24337   5.595   5.526  -1.310  0.5114  0.1456 -0.5327
  181MOL0     C24338   5.662   5.655  -1.279 -0.2741  0.2462  0.7828
  181MOL0     C24339   5.766   5.631  -1.164  0.2158  0.9780 -0.1949
  181MOL0     C24340   5.880   5.734  -1.176 -0.3438  1.1130  0.1795
  181MOL0     C24341   5.896   5.820  -1.058  0.1509  0.9709  0.4215
  181MOL0     C24342   5.789   5.928  -1.051  1.1215  0.1113  0.2582
  181MOL0     C24343   5.785   5.976  -0.899 -0.3999 -0.8876 -0.9693
  181MOL0     C24344   5.725   6.115  -0.889  0.6018 -0.7496 -0.0379
  181MOL0    Cl24345   5.752   6.196  -0.734 -0.4859  0.2572  0.2546
  181MOL0     C24346   5.445   5.294  -1.072  0.4460 -0.3255  0.4620
  181MOL0     C24347   5.370   5.175  -1.089  0.1380 -0.5495  1.2540
  181MOL0     O24348   5.107   5.054  -1.089 -0.8428  0.3588  0.0721
  181MOL0     C24349   5.098   4.776  -1.014  0.0370  0.2526 -0.1519
  181MOL0     C24350   5.086   4.637  -0.988  0.0847  1.0507  0.4465
  181MOL0     N24351   5.171   4.176  -0.779 -1.1001  0.4796  0.5206
  181MOL0     N24352   5.135   4.191  -0.660 -0.4702  0.7542  0.0729
  181MOL0     C24353   3.972   4.143  -0.049 -0.4396  0.0579 -1.4949
  181MOL0     C24354   3.864   4.158   0.033  0.2036 -0.6870 -0.0852
  181MOL0     C24355   3.492   4.343   0.225  0.4734  0.3505 -0.0329
  181MOL0     C24356   3.489   4.451   0.320  0.6486 -0.8227 -0.8472
  181MOL0     C24357   3.367   4.467   0.397 -0.3279  0.3170 -0.9687
  181MOL0     C24358   3.253   4.383   0.374 -0.4777 -0.2184 -0.6133
  181MOL0     O24359   3.132   4.388   0.445  0.6670  0.1644  0.3006
  181MOL0     C24360   3.129   4.455   0.575 -0.0280 -0.2664  0.3258
  181MOL0     C24361   3.103   4.605   0.569  1.0430 -0.0501 -0.0534
  181MOL0     C24362   3.005   4.655   0.447 -0.0500 -0.3831  0.3280
  181MOL0     C24363   2.896   4.756   0.478  0.2995  0.2584  0.8523
  181MOL0     C24364   2.809   4.719   0.586  0.5986  0.3211 -0.3509
  181MOL0     C24365   2.763   4.687   0.692 -0.3179 -0.2346 -0.2771
  181MOL0     C24366   3.256   4.285   0.273 -0.7188  0.7846  0.2387
  181MOL0     C24367   3.377   4.266   0.202 -0.1423  0.3075  0.0572
  181MOL0     H24368   3.606   4.182  -0.175  0.9277  2.3550 -0.1539
  181MOL0     H24369   3.788   4.172  -0.344  3.0747  2.5513 -0.7986
  181MOL0     H24370   4.204   4.145  -0.175  1.9986  0.8816 -3.1421
  181MOL0     H24371   4.143   3.980  -0.207  0.3234  0.8329  1.8446
  181MOL0     H24372   4.252   3.982  -0.416  1.9897 -1.7891  1.7742
  181MOL0     H24373   4.281   4.168  -0.408  2.4670  1.0457  1.6233
  181MOL0     H24374   4.418   4.087  -0.188  2.7811 -0.9937  0.3753
  181MOL0     H24375   4.393   3.930  -0.267 -1.4856 -0.7703  1.1240
  181MOL0     H24376   4.504   4.015  -0.455 -0.9840  0.8727  0.0481
  181MOL0     H24377   4.519   4.179  -0.382 -1.2419 -0.4257 -1.4759
  181MOL0     H24378   4.647   4.062  -0.179  0.5055  1.7582 -0.1474
  181MOL0     H24379   4.675   3.930  -0.303 -2.7980 -0.7355 -3.1592
  181MOL0     H24380   4.743   4.230  -0.318  0.1513 -0.2817  0.8959
  181MOL0     H24381   4.864   4.110  -0.264  1.9010  0.6503 -1.6061
  181MOL0     H24382   4.878   3.998  -0.472  2.5994  0.6488 -1.9776
  181MOL0     H24383   4.761   4.105  -0.550  0.8418 -2.4518 -1.1976
  181MOL0     H24384   5.017   4.216  -0.441  0.9840  1.5819 -1.0915
  181MOL0     H24385   4.900   4.289  -0.548 -2.0109 -0.6156  0.5348
  181MOL0     H24386   4.870   4.027  -0.735 -2.5509  2.1731  2.6778
  181MOL0     H24387   5.192   3.990  -0.962 -0.4310 -0.0479  3.8395
  181MOL0     H24388   5.030   3.934  -0.972  1.8402 -3.1624  0.3084
  181MOL0     H24389   4.985   4.189  -1.076  2.0830  3.5288 -0.8122
  181MOL0     H24390   5.073   4.056  -1.173  0.9080  0.3060 -0.8832
  181MOL0     H24391   5.264   4.162  -1.171  2.5035  2.7466 -0.5980
  181MOL0     H24392   5.219   4.234  -1.008 -4.1802  2.5000  1.6326
  181MOL0     H24393   5.080   4.329  -1.265  2.8312  0.3578 -1.8227
  181MOL0     H24394   5.241   4.371  -1.232 -0.5556  0.9882  0.2839
  181MOL0     H24395   5.122   4.544  -1.314  1.2297  1.6988 -0.6718
  181MOL0     H24396   5.121   4.725  -1.467 -1.0204 -1.7668  2.0431
  181MOL0     H24397   5.111   4.891  -1.401  2.2183  0.7294  1.1200
  181MOL0     H24398   5.265   4.821  -1.399  1.7614 -2.1655 -1.5867
  181MOL0     H24399   5.351   5.132  -1.427 -3.1808  4.7233 -1.2906
  181MOL0     H24400   5.428   5.359  -1.414 -1.9724 -0.4299 -1.3560
  181MOL0     H24401   5.658   5.439  -1.330  0.6781  0.3892 -1.0777
  181MOL0     H24402   5.518   5.537  -1.387 -1.0247 -2.2464  0.5258
  181MOL0     H24403   5.702   5.707  -1.367  1.3248  0.1134  1.4038
  181MOL0     H24404   5.597   5.736  -1.243 -0.0090  0.1473  1.5083
  181MOL0     H24405   5.808   5.533  -1.185 -0.5608  1.4726 -5.2232
  181MOL0     H24406   5.713   5.650  -1.070 -0.8555 -0.0692 -0.5760
  181MOL0     H24407   5.974   5.686  -1.205 -2.3877 -1.2154 -3.5188
  181MOL0     H24408   5.868   5.794  -1.267 -0.8576  1.1819  0.2914
  181MOL0     H24409   5.985   5.882  -1.045 -0.0673  1.2547  0.5768
  181MOL0     H24410   5.896   5.758  -0.967  0.2455  1.7360  0.9545
  181MOL0     H24411   5.809   6.001  -1.130 -1.5667  1.0942  0.3973
  181MOL0     H24412   5.688   5.895  -1.076  1.2810  0.5398 -1.0426
  181MOL0     H24413   5.886   5.980  -0.857 -0.9898  0.5691  0.3977
  181MOL0     H24414   5.728   5.908  -0.836  2.0746 -2.9312 -0.7505
  181MOL0     H24415   5.618   6.099  -0.905  0.3411  2.0388 -1.7011
  181MOL0     H24416   5.753   6.181  -0.971  1.7691 -1.2863 -0.0881
  181MOL0     H24417   5.473   5.344  -0.980  1.9460 -1.9008  0.9223
  181MOL0     H24418   5.342   5.113  -1.005  2.2799 -0.9053  1.7682
  181MOL0     H24419   5.099   4.852  -0.937 -1.8066 -0.5804  0.7433
  181MOL0     H24420   5.064   4.592  -0.891  0.5955 -0.1645  0.0172
  181MOL0     H24421   4.073   4.148  -0.010 -2.1224  2.2368  3.4210
  181MOL0     H24422   3.887   4.180   0.137 -0.5884 -2.9401  0.6275
  181MOL0     H24423   3.583   4.497   0.349 -0.5047  1.2904 -0.2982
  181MOL0     H24424   3.373   4.533   0.483 -1.5368 -1.4932  0.5761
  181MOL0     H24425   3.035   4.416   0.616 -1.7139  1.7409 -1.3666
  181MOL0     H24426   3.215   4.433   0.638 -0.5261 -0.9415  0.7882
  181MOL0     H24427   3.196   4.660   0.574  0.8853  0.1828  4.2051
  181MOL0     H24428   3.062   4.625   0.668  2.9007 -0.9506  0.9475
  181MOL0     H24429   2.946   4.573   0.406 -2.1338  0.3011  1.7878
  181MOL0     H24430   3.068   4.693   0.367 -1.5608  0.9871 -0.2641
  181MOL0     H24431   2.841   4.780   0.387  1.5687  0.3738  0.0982
  181MOL0     H24432   2.943   4.855   0.485  0.0872  0.3545  0.9373
  181MOL0     H24433   2.711   4.659   0.782  0.6087 -1.3514 -0.0603
  181MOL0     H24434   3.169   4.222   0.253  0.9659 -0.9248 -2.2839
  181MOL0     H24435   3.367   4.190   0.125 -1.8262 -1.5150  1.9332
  182MOL0     O24436   4.716   9.949   6.543 -0.2770  1.0463  0.0073
  182MOL0     C24437   4.718   9.835   6.502  0.0710 -0.2746  0.3204
  182MOL0     O24438   4.756   9.728   6.570 -0.4914  0.6401 -0.6121
  182MOL0     C24439   4.771   9.741   6.705 -0.3520 -0.1913 -1.0089
  182MOL0     C24440   4.675   9.768   6.807 -0.1564 -0.4265  0.9126
  182MOL0     C24441   4.708   9.756   6.948  0.4426 -1.0038 -0.7049
  182MOL0     C24442   4.839   9.746   6.991  0.2034  0.1520  0.5926
  182MOL0     O24443   4.884   9.739   7.118 -0.6825  0.3074 -0.5537
  182MOL0     C24444   4.824   9.838   7.207 -0.8155 -0.0705  0.3618
  182MOL0     C24445   4.800   9.774   7.337 -0.1795 -0.0073  0.8499
  182MOL0     C24446   4.796   9.866   7.462 -0.1140  0.3071  0.7832
  182MOL0     C24447   4.713   9.800   7.572  0.1594 -0.0813  0.0248
  182MOL0     C24448   4.668   9.909   7.671 -0.8041 -0.8045  0.3876
  182MOL0     C24449   4.796   9.968   7.736  1.0985 -0.1757 -0.4380
  182MOL0     C24450   4.758  10.060   7.851 -0.4544  0.5127 -0.1310
  182MOL0     C24451   4.750   9.976   7.978 -1.0123  0.0710 -0.3907
  182MOL0     N24452   4.761  10.074   8.091 -0.1634 -1.3843 -0.3542
  182MOL0     C24453   4.876  10.121   8.142 -0.3058 -0.2663  0.2788
  182MOL0     C24454   4.841  10.177   8.258  0.4795 -0.1651 -0.5116
  182MOL0     C24455   4.933  10.252   8.346 -0.8062 -0.0318 -0.1816
  182MOL0     C24456   4.986  10.172   8.464  0.1407  0.3831 -0.1518
  182MOL0     C24457   4.878  10.111   8.556 -0.1250 -0.0210  0.0347
  182MOL0     C24458   4.939  10.063   8.697  0.2214 -0.1369 -0.0687
  182MOL0     O24459   4.825  10.005   8.769 -0.0238 -0.0006  0.3770
  182MOL0     C24460   4.828   9.985   8.906  0.2604 -0.0799  0.0442
  182MOL0     C24461   4.948   9.954   8.966  0.5780 -0.2546  0.3648
  182MOL0     C24462   4.937   9.901   9.100  0.4845 -0.0428  0.2149
  182MOL0     C24463   5.065   9.843   9.158  0.4010  0.5924 -0.9802
  182MOL0     C24464   4.812   9.895   9.169 -0.1166 -0.4247  1.0246
  182MOL0     C24465   4.795   9.862   9.312 -0.5937 -0.5013 -0.1075
  182MOL0     O24466   4.680   9.795   9.345 -0.2558  0.1686  0.1265
  182MOL0     C24467   4.678   9.737   9.472  0.4189  0.2325 -0.2275
  182MOL0     C24468   4.561   9.758   9.547  0.4928  0.2278 -0.1565
  182MOL0     C24469   4.543   9.693   9.671 -0.4933  0.7346 -0.4703
  182MOL0     C24470   4.636   9.598   9.716 -0.2029 -0.5761  0.8344
  182MOL0     O24471   4.615   9.554   9.840  0.0918  0.7053  1.0303
  182MOL0     C24472   4.714   9.480   9.918 -1.0484  0.2607  0.1644
  182MOL0     C24473   4.643   9.441  10.054 -0.9457 -0.0219 -0.7664
  182MOL0     C24474   4.490   9.406  10.042 -0.5290 -1.0384 -0.2220
  182MOL0     C24475   4.396   9.530  10.057  0.4426  0.3491 -0.8597
  182MOL0     C24476   4.257   9.472  10.050  0.8792  0.5869  0.8338
  182MOL0     C24477   4.140   9.571  10.093  0.0687  0.0126 -0.1855
  182MOL0     C24478   4.006   9.511  10.045 -0.6313  0.6804  0.2898
  182MOL0     C24479   3.895   9.596  10.103 -0.4532 -0.0314  1.1163
  182MOL0    Cl24480   3.749   9.519  10.035  0.0518 -0.4358  0.2206
  182MOL0     C24481   4.752   9.569   9.644  0.1621  0.7251 -0.2477
  182MOL0     C24482   4.771   9.643   9.520 -0.1778  0.3019 -0.8465
  182MOL0     O24483   4.880   9.893   9.402  0.0948 -0.2418 -0.0342
  182MOL0     C24484   4.697   9.950   9.101 -0.4924 -0.5724 -0.8038
  182MOL0     C24485   4.703   9.988   8.970 -0.9655  1.2157  0.5491
  182MOL0     N24486   4.705  10.153   8.278 -0.1240  0.3267  0.0833
  182MOL0     N24487   4.661  10.079   8.184 -1.7493 -1.0963 -0.1886
  182MOL0     C24488   4.930   9.723   6.893  0.2202  0.3385  0.3438
  182MOL0     C24489   4.898   9.710   6.757 -0.1532  0.5534  0.3273
  182MOL0     C24490   4.674   9.812   6.361 -0.2173 -0.4558 -0.3985
  182MOL0     C24491   4.668   9.680   6.303  0.1887 -0.0051 -0.9139
  182MOL0     C24492   4.627   9.660   6.162  0.1928 -0.0402 -0.0992
  182MOL0     C24493   4.583   9.774   6.082 -0.2590 -0.7666  0.2345
  182MOL0     O24494   4.532   9.765   5.947  0.3863 -0.7235 -0.6722
  182MOL0     C24495   4.465   9.639   5.927  0.1024  0.8740  1.2742
  182MOL0     C24496   4.348   9.660   5.837  0.1880 -0.4010  0.3727
  182MOL0     C24497   4.393   9.670   5.690 -0.4467 -0.4656 -1.0111
  182MOL0     C24498   4.447   9.804   5.650  0.3232 -0.3014 -0.1980
  182MOL0     C24499   4.439   9.836   5.509  0.4533 -0.6947 -0.6474
  182MOL0     C24500   4.459   9.878   5.395  0.3284 -0.5898  0.1080
  182MOL0     C24501   4.600   9.901   6.142 -0.4978  0.3397 -0.9160
  182MOL0     C24502   4.652   9.921   6.274  0.4589 -0.1313 -0.5071
  182MOL0     H24503   4.575   9.794   6.776 -0.1417 -1.2497  0.1379
  182MOL0     H24504   4.633   9.774   7.025  2.3157 -2.4333  1.5648
  182MOL0     H24505   4.901   9.912   7.233  2.0908 -1.7509 -2.6983
  182MOL0     H24506   4.731   9.874   7.163  0.1270 -0.8732 -2.5448
  182MOL0     H24507   4.702   9.726   7.345  1.1492 -2.7247  2.7576
  182MOL0     H24508   4.876   9.700   7.365 -1.3345 -1.7184 -0.3321
  182MOL0     H24509   4.897   9.881   7.500  0.5999 -1.7755 -0.0987
  182MOL0     H24510   4.752   9.955   7.416  1.9306  0.5423 -0.8548
  182MOL0     H24511   4.622   9.752   7.533 -1.4828 -0.0184  3.3690
  182MOL0     H24512   4.763   9.716   7.621  4.0926 -0.0719 -3.4563
  182MOL0     H24513   4.599   9.986   7.635 -2.1150 -1.2553  1.8399
  182MOL0     H24514   4.613   9.864   7.754 -3.0095  2.5047  0.8987
  182MOL0     H24515   4.857   9.881   7.761  1.5781  0.2494 -0.1214
  182MOL0     H24516   4.837  10.030   7.656  0.6654 -0.3983 -0.8339
  182MOL0     H24517   4.843  10.129   7.852  0.7662 -0.8652 -1.9301
  182MOL0     H24518   4.663  10.108   7.827 -0.8656  0.0113  0.4633
  182MOL0     H24519   4.836   9.910   7.994 -0.5218  0.3281 -1.8197
  182MOL0     H24520   4.657   9.919   7.974 -0.4788 -0.8711 -4.7794
  182MOL0     H24521   4.972  10.127   8.090  0.5493  1.6526  1.9580
  182MOL0     H24522   5.022  10.297   8.302  0.0892 -0.3091  1.2653
  182MOL0     H24523   4.869  10.337   8.369  2.1070  1.8632  1.6625
  182MOL0     H24524   5.041  10.252   8.515 -1.3198  2.1757 -1.2298
  182MOL0     H24525   5.056  10.101   8.419 -2.1939 -0.5823 -2.4818
  182MOL0     H24526   4.838  10.020   8.509  4.1253 -2.6191  0.7944
  182MOL0     H24527   4.794  10.178   8.573 -0.3703 -0.7191  1.7983
  182MOL0     H24528   5.000  10.131   8.757  0.2828 -1.0844  0.9740
  182MOL0     H24529   4.999   9.978   8.666  0.8181  0.7660 -1.4802
  182MOL0     H24530   5.046   9.950   8.920  0.5099  0.0925  0.1886
  182MOL0     H24531   5.050   9.776   9.243  0.4635  0.9197 -0.7074
  182MOL0     H24532   5.124   9.805   9.074 -1.5529 -4.4037 -0.4120
  182MOL0     H24533   5.129   9.925   9.194  0.7981 -0.0864 -0.0828
  182MOL0     H24534   4.488   9.825   9.503  0.3600 -1.4326 -2.6444
  182MOL0     H24535   4.459   9.716   9.737 -0.2880  1.7231 -0.5473
  182MOL0     H24536   4.724   9.384   9.868  1.2646 -0.1000  1.2061
  182MOL0     H24537   4.807   9.535   9.936  0.3716 -2.2982  1.2341
  182MOL0     H24538   4.690   9.355  10.103  2.4966  1.6776 -0.7744
  182MOL0     H24539   4.662   9.524  10.123 -1.1038 -1.6913  1.4019
  182MOL0     H24540   4.470   9.333  10.122 -3.0718 -0.8701 -0.6115
  182MOL0     H24541   4.468   9.357   9.947 -6.4237 -2.0645  1.2634
  182MOL0     H24542   4.404   9.583  10.152  0.0940 -0.6184 -0.2811
  182MOL0     H24543   4.415   9.609   9.983  1.2923  1.1944  0.2427
  182MOL0     H24544   4.255   9.380  10.110 -1.8443 -1.1306 -1.6115
  182MOL0     H24545   4.239   9.438   9.948  1.5158  0.0860  0.8737
  182MOL0     H24546   4.137   9.603  10.198  1.1004 -1.0384  0.1919
  182MOL0     H24547   4.152   9.662  10.034 -0.8191 -1.4610 -2.8323
  182MOL0     H24548   3.994   9.407  10.078 -0.6823  0.0398 -1.6105
  182MOL0     H24549   4.000   9.506   9.936 -0.8739  0.1968  0.3213
  182MOL0     H24550   3.888   9.692  10.051 -1.0624 -1.9044 -2.5744
  182MOL0     H24551   3.889   9.595  10.212  2.2506 -0.8746  1.3410
  182MOL0     H24552   4.829   9.503   9.684 -1.2506  0.3359  2.0678
  182MOL0     H24553   4.867   9.632   9.472  2.0830  3.3402  2.4448
  182MOL0     H24554   4.600   9.956   9.149 -1.0225 -1.4442 -1.7359
  182MOL0     H24555   4.622  10.013   8.902 -0.9717 -0.2067  0.0109
  182MOL0     H24556   5.028   9.693   6.927 -0.8229 -3.1760  0.6702
  182MOL0     H24557   4.979   9.669   6.698  0.3986 -0.9059  2.0083
  182MOL0     H24558   4.681   9.602   6.377  2.5940  0.6400 -0.5776
  182MOL0     H24559   4.627   9.561   6.120 -0.9326  0.5229 -1.5042
  182MOL0     H24560   4.548   9.587   5.877  1.2257  0.1693  3.6909
  182MOL0     H24561   4.429   9.591   6.019 -0.4897  1.3106  1.2776
  182MOL0     H24562   4.286   9.744   5.870 -0.4782 -1.1458  1.0627
  182MOL0     H24563   4.288   9.569   5.840  0.4091 -0.6992 -2.1785
  182MOL0     H24564   4.303   9.644   5.633 -1.8105 -1.3912  1.4134
  182MOL0     H24565   4.464   9.589   5.672 -0.0823 -1.4263  3.6066
  182MOL0     H24566   4.553   9.810   5.680  0.2383 -4.4276  1.4922
  182MOL0     H24567   4.400   9.883   5.709 -0.2580 -1.8744  1.5297
  182MOL0     H24568   4.496   9.904   5.298  0.9280 -0.6245  0.3229
  182MOL0     H24569   4.574   9.980   6.072 -2.5332 -1.6576 -2.5846
  182MOL0     H24570   4.663  10.027   6.299  0.1954  0.2043 -1.7290
  183MOL0     O24571   6.617   1.071   0.178 -0.1705 -0.4672  0.2124
  183MOL0     C24572   6.575   1.112   0.282  0.5619 -0.5789 -0.5238
  183MOL0     O24573   6.451   1.065   0.342 -0.0588 -0.1257 -0.3341
  183MOL0     C24574   6.392   0.956   0.281  0.4543 -0.2548  0.1209
  183MOL0     C24575   6.459   0.831   0.250 -0.7113  0.6564 -0.3525
  183MOL0     C24576   6.384   0.721   0.207 -0.0735 -0.5445 -0.3050
  183MOL0     C24577   6.241   0.730   0.201  0.7398 -0.9421  0.1452
  183MOL0     O24578   6.168   0.620   0.165 -0.0313 -0.1204 -0.3841
  183MOL0     C24579   6.039   0.657   0.103 -0.9287  0.0183  0.3633
  183MOL0     C24580   5.973   0.535   0.040 -0.6110 -1.0172 -0.8600
  183MOL0     C24581   6.044   0.478  -0.078 -0.2757 -0.0789  0.1671
  183MOL0     C24582   5.983   0.351  -0.136 -0.6702  0.3258  0.1701
  183MOL0     C24583   5.832   0.362  -0.164  0.4668 -0.8820 -0.6077
  183MOL0     C24584   5.776   0.234  -0.234 -0.2099 -0.6974 -0.5975
  183MOL0     C24585   5.628   0.242  -0.274  0.6049  0.5796 -0.0117
  183MOL0     C24586   5.597   0.151  -0.388  0.0500  0.3117  0.2216
  183MOL0     N24587   5.453   0.113  -0.387 -0.0259  0.5201 -0.0427
  183MOL0     C24588   5.336   0.178  -0.348 -0.0841  0.7742  0.3042
  183MOL0     C24589   5.235   0.086  -0.361 -0.3979 -0.4961  0.4608
  183MOL0     C24590   5.096   0.120  -0.315  0.4170  0.8296  0.8986
  183MOL0     C24591   4.995   0.044  -0.409  0.1164  0.4836  1.0480
  183MOL0     C24592   4.846   0.063  -0.364 -0.5375 -0.3147  0.5952
  183MOL0     C24593   4.762  -0.049  -0.429  0.0920  0.3977 -1.3025
  183MOL0     O24594   4.749  -0.004  -0.563 -0.2330  0.1806  0.6447
  183MOL0     C24595   4.831  -0.051  -0.662 -0.9507  0.3199  0.2427
  183MOL0     C24596   4.805   0.012  -0.791 -0.8734 -0.6479 -0.4146
  183MOL0     C24597   4.875  -0.014  -0.906  0.4634  0.7290  0.1772
  183MOL0     C24598   4.856   0.063  -1.035  0.9642  0.5024  0.5021
  183MOL0     C24599   4.978  -0.112  -0.898  0.2425 -0.1709 -0.3398
  183MOL0     C24600   5.068  -0.145  -1.004  0.8923 -0.3280  0.3504
  183MOL0     O24601   5.203  -0.131  -0.993 -0.3312 -0.2102 -0.5992
  183MOL0     C24602   5.281  -0.188  -1.090 -0.2056 -0.0551  0.3172
  183MOL0     C24603   5.353  -0.112  -1.183 -1.0189 -1.5939  0.1949
  183MOL0     C24604   5.405  -0.168  -1.299  0.0762 -1.2940 -0.7534
  183MOL0     C24605   5.406  -0.308  -1.312 -0.5159  0.2110  0.5393
  183MOL0     O24606   5.476  -0.381  -1.404 -0.5169  0.6124  0.1282
  183MOL0     C24607   5.507  -0.321  -1.534 -0.3754 -0.0583 -0.3857
  183MOL0     C24608   5.386  -0.302  -1.623 -0.6781 -1.0401 -0.5163
  183MOL0     C24609   5.419  -0.212  -1.750 -0.0865 -0.5507 -0.6844
  183MOL0     C24610   5.459  -0.066  -1.721 -0.2065 -0.7341 -0.3792
  183MOL0     C24611   5.447   0.035  -1.842 -0.4473  0.0475 -0.5332
  183MOL0     C24612   5.520  -0.008  -1.965  0.0687  0.0584 -0.0934
  183MOL0     C24613   5.668  -0.045  -1.961 -1.1921 -0.2579 -0.3454
  183MOL0     C24614   5.713  -0.063  -2.101 -0.1409 -0.1314  0.5570
  183MOL0    Cl24615   5.885  -0.112  -2.081  0.1922  0.1505  0.2013
  183MOL0     C24616   5.346  -0.384  -1.212  1.3474 -0.3524 -0.4866
  183MOL0     C24617   5.283  -0.331  -1.097  0.3149  0.0997 -0.0426
  183MOL0     O24618   5.015  -0.201  -1.105  0.0768  0.0930  0.3879
  183MOL0     C24619   4.995  -0.177  -0.771  0.0117  0.8545  0.6130
  183MOL0     C24620   4.925  -0.153  -0.658 -1.5934  0.3072 -0.1062
  183MOL0     N24621   5.285  -0.027  -0.416 -0.2314 -0.4899  0.8502
  183MOL0     N24622   5.417  -0.013  -0.425  0.0672  0.7641  0.1783
  183MOL0     C24623   6.177   0.858   0.212  0.2045  0.9290 -1.3012
  183MOL0     C24624   6.252   0.956   0.272  0.3284 -0.9782 -0.1879
  183MOL0     C24625   6.651   1.219   0.354 -0.3737 -0.3992 -0.6034
  183MOL0     C24626   6.757   1.294   0.299 -1.0950  0.4724  0.6212
  183MOL0     C24627   6.826   1.384   0.381 -1.5341 -0.9273  0.1228
  183MOL0     C24628   6.795   1.407   0.513  0.8114  0.8459  0.8517
  183MOL0     O24629   6.877   1.492   0.578  0.1914  0.3395  0.5519
  183MOL0     C24630   6.897   1.465   0.722  1.2318  0.1021  0.0298
  183MOL0     C24631   7.046   1.423   0.741  0.6595  0.0374 -0.3011
  183MOL0     C24632   7.147   1.536   0.695  0.5673 -1.2040 -0.0401
  183MOL0     C24633   7.292   1.488   0.700 -0.3284 -1.0101  0.1692
  183MOL0     C24634   7.319   1.378   0.607  1.5867  0.2114 -0.0422
  183MOL0     C24635   7.325   1.295   0.524 -0.7086 -0.0952 -0.5643
  183MOL0     C24636   6.678   1.344   0.561 -0.4152  0.1459 -0.0506
  183MOL0     C24637   6.610   1.256   0.484  0.0959  0.4735 -0.9553
  183MOL0     H24638   6.562   0.805   0.268 -0.3771  1.4247 -1.1255
  183MOL0     H24639   6.423   0.620   0.211 -2.2688 -1.4256  1.0007
  183MOL0     H24640   5.961   0.686   0.174 -2.9760 -0.9625 -1.3644
  183MOL0     H24641   6.065   0.736   0.032  1.7916 -1.0903 -0.0003
  183MOL0     H24642   5.969   0.465   0.124  0.6027  2.6439  2.6031
  183MOL0     H24643   5.873   0.566   0.008  1.1278  5.7734 -1.2152
  183MOL0     H24644   6.040   0.555  -0.155  0.7574  0.1413  0.3202
  183MOL0     H24645   6.151   0.470  -0.055 -0.6214  0.3332  2.0549
  183MOL0     H24646   6.034   0.330  -0.231  1.3625 -2.8980  1.7887
  183MOL0     H24647   5.997   0.265  -0.070  2.3355  0.2349 -0.4192
  183MOL0     H24648   5.778   0.372  -0.070  0.5531 -1.9216 -0.4426
  183MOL0     H24649   5.818   0.455  -0.221  1.4613  0.3370  1.0300
  183MOL0     H24650   5.842   0.223  -0.320 -0.2049 -2.1668 -0.4344
  183MOL0     H24651   5.788   0.143  -0.173 -2.1350 -1.1159 -0.7659
  183MOL0     H24652   5.568   0.215  -0.187  2.1105  0.7663  1.1291
  183MOL0     H24653   5.609   0.348  -0.295 -2.1550  0.3197  0.8233
  183MOL0     H24654   5.654   0.058  -0.379  0.2737 -0.4139 -5.1842
  183MOL0     H24655   5.624   0.197  -0.484  0.9692  2.9436  1.6282
  183MOL0     H24656   5.329   0.275  -0.299  0.0568 -0.2144  2.3589
  183MOL0     H24657   5.068   0.080  -0.217 -3.6373 -0.6458 -0.6417
  183MOL0     H24658   5.076   0.227  -0.321  1.6469  1.0149 -1.0203
  183MOL0     H24659   5.024  -0.062  -0.411 -0.0659  0.4431  0.2519
  183MOL0     H24660   5.006   0.084  -0.510 -0.2177 -3.1655 -0.5937
  183MOL0     H24661   4.808   0.160  -0.399  1.5150  0.6754  0.9502
  183MOL0     H24662   4.833   0.073  -0.256 -1.7305 -0.4126  0.4682
  183MOL0     H24663   4.665  -0.060  -0.379 -1.2413  2.2360 -3.2964
  183MOL0     H24664   4.807  -0.147  -0.408 -0.2337  1.0039  3.3488
  183MOL0     H24665   4.732   0.092  -0.780  1.8717  1.8705  1.1284
  183MOL0     H24666   4.866   0.006  -1.127  2.3745  1.6314 -0.0791
  183MOL0     H24667   4.756   0.106  -1.041  1.0524  0.5479 -1.0765
  183MOL0     H24668   4.925   0.147  -1.034  1.6594  0.1127 -2.8356
  183MOL0     H24669   5.359  -0.004  -1.170 -1.5714 -1.4553 -0.6285
  183MOL0     H24670   5.454  -0.101  -1.369 -0.2312 -3.3197 -3.0189
  183MOL0     H24671   5.560  -0.227  -1.516  1.0922 -1.1747  1.5038
  183MOL0     H24672   5.575  -0.388  -1.586  2.6642  3.5087 -1.4431
  183MOL0     H24673   5.333  -0.395  -1.647 -2.7967 -0.5342  1.8180
  183MOL0     H24674   5.316  -0.249  -1.558  3.4220  2.5350  1.4758
  183MOL0     H24675   5.327  -0.217  -1.809 -1.0658  2.3202  0.4138
  183MOL0     H24676   5.489  -0.251  -1.824  0.9623  0.4644 -0.2700
  183MOL0     H24677   5.399  -0.022  -1.641  1.6167 -1.3187  1.3980
  183MOL0     H24678   5.559  -0.064  -1.676 -0.7407 -0.6500  0.8577
  183MOL0     H24679   5.476   0.137  -1.816 -2.5914  0.9442 -1.4224
  183MOL0     H24680   5.342   0.033  -1.873 -0.9979 -1.1964  1.2294
  183MOL0     H24681   5.479  -0.105  -1.993 -0.1786 -0.7665  2.7782
  183MOL0     H24682   5.499   0.076  -2.031 -1.7073  2.3762  3.1667
  183MOL0     H24683   5.695  -0.135  -1.905  1.1737  1.4774  1.4846
  183MOL0     H24684   5.725   0.037  -1.916 -1.6467 -1.7337  3.3207
  183MOL0     H24685   5.719   0.032  -2.155  0.9616 -1.6964 -2.3313
  183MOL0     H24686   5.659  -0.140  -2.158  2.4469 -0.4871 -1.6563
  183MOL0     H24687   5.347  -0.493  -1.214  0.2623 -0.3731 -0.3693
  183MOL0     H24688   5.238  -0.387  -1.016  4.6700  0.1898  2.7796
  183MOL0     H24689   5.064  -0.260  -0.787 -0.4638  0.9435 -2.5665
  183MOL0     H24690   4.936  -0.213  -0.569  0.4738  1.3295  0.3911
  183MOL0     H24691   6.073   0.877   0.191 -0.1382 -1.9209 -2.7277
  183MOL0     H24692   6.200   1.039   0.317  2.3598 -0.6895  1.8455
  183MOL0     H24693   6.773   1.274   0.193 -1.7091  0.4728  0.5287
  183MOL0     H24694   6.917   1.424   0.337 -0.6739 -1.7842  1.0673
  183MOL0     H24695   6.872   1.552   0.783  0.1904 -0.1864  0.0350
  183MOL0     H24696   6.841   1.385   0.771  0.8471  0.8784  0.8841
  183MOL0     H24697   7.067   1.341   0.670 -2.8151 -0.1742 -1.2487
  183MOL0     H24698   7.068   1.385   0.841  0.9319 -0.4152 -0.5237
  183MOL0     H24699   7.119   1.624   0.754  0.9904  1.0664 -2.9729
  183MOL0     H24700   7.122   1.547   0.589  2.0880  0.3581 -0.2723
  183MOL0     H24701   7.317   1.455   0.801 -0.2016 -0.0441  0.4648
  183MOL0     H24702   7.355   1.575   0.682 -1.8185 -0.2144 -1.5501
  183MOL0     H24703   7.332   1.214   0.454 -5.6467 -1.9107  0.6338
  183MOL0     H24704   6.639   1.384   0.654 -1.0407 -0.8616  0.1405
  183MOL0     H24705   6.519   1.209   0.519  0.3825  0.3133 -0.4090
  184MOL0     O24706  10.653   6.349   8.747  1.2616 -0.0747 -0.1450
  184MOL0     C24707  10.573   6.322   8.836 -0.1726 -0.2076  0.6267
  184MOL0     O24708  10.531   6.409   8.929 -0.6701  0.2387  0.2655
  184MOL0     C24709  10.521   6.539   8.890  0.1251  0.0541  0.2958
  184MOL0     C24710  10.548   6.642   8.977 -0.4924 -1.2322 -0.4465
  184MOL0     C24711  10.499   6.774   8.960  0.2312  0.3583 -0.8413
  184MOL0     C24712  10.435   6.799   8.840  0.2058 -0.2385  0.3256
  184MOL0     O24713  10.406   6.926   8.800  0.5017 -0.7959  1.3440
  184MOL0     C24714  10.521   7.010   8.767 -0.7763 -0.1791  0.5120
  184MOL0     C24715  10.497   7.114   8.669 -0.4461  0.1081  0.6572
  184MOL0     C24716  10.470   7.082   8.524 -0.3563 -0.4000 -0.0420
  184MOL0     C24717  10.328   7.067   8.500 -0.3148  0.3103  0.8978
  184MOL0     C24718  10.289   7.059   8.350  0.1439 -0.4988  0.2717
  184MOL0     C24719  10.135   7.086   8.341 -0.1342 -0.2296  0.3744
  184MOL0     C24720  10.083   7.089   8.200 -0.0897  0.2921 -0.8969
  184MOL0     C24721  10.123   6.962   8.122 -0.4626  1.0547 -0.6344
  184MOL0     N24722  10.089   6.828   8.184  1.1476  0.1306 -0.3765
  184MOL0     C24723   9.969   6.802   8.259  0.4897  0.0445  0.8725
  184MOL0     C24724   9.995   6.677   8.310 -0.2762  0.8051  0.1429
  184MOL0     C24725   9.895   6.603   8.393 -0.8834  0.0799  0.4429
  184MOL0     C24726   9.975   6.549   8.519 -0.0015  0.3397  1.1700
  184MOL0     C24727  10.024   6.672   8.612  0.8426 -0.5502  0.1377
  184MOL0     C24728  10.099   6.638   8.739  0.0502  0.1608  0.5246
  184MOL0     O24729   9.986   6.594   8.815  0.2081 -0.3819 -0.1104
  184MOL0     C24730  10.028   6.510   8.915  0.0287  1.4365 -0.1922
  184MOL0     C24731  10.137   6.533   9.000  1.0208  0.0912  0.4891
  184MOL0     C24732  10.169   6.454   9.114  0.8277 -0.0486  0.6909
  184MOL0     C24733  10.292   6.503   9.203 -0.5822  0.6394  1.2795
  184MOL0     C24734  10.085   6.335   9.133  0.0932 -0.1043 -0.3444
  184MOL0     C24735  10.098   6.233   9.249 -0.6311 -0.9885  0.0126
  184MOL0     O24736  10.157   6.277   9.369  0.1187 -0.1547 -0.3938
  184MOL0     C24737  10.151   6.182   9.471  0.0780 -0.3607  0.5258
  184MOL0     C24738  10.111   6.225   9.601 -0.0259 -0.6551 -0.2986
  184MOL0     C24739  10.125   6.135   9.710  0.0623  0.3091 -0.1327
  184MOL0     C24740  10.171   6.003   9.692  0.4568  0.6391 -0.9652
  184MOL0     O24741  10.178   5.921   9.804  0.4886 -0.8502  0.3934
  184MOL0     C24742  10.151   5.784   9.778 -0.1770 -0.1612  0.7640
  184MOL0     C24743  10.071   5.740   9.903  0.2629 -0.1191 -0.0307
  184MOL0     C24744   9.928   5.800   9.914 -0.2018  0.7360 -0.6623
  184MOL0     C24745   9.862   5.731  10.037 -0.7047  0.4480  0.1461
  184MOL0     C24746   9.715   5.768  10.049  0.2576 -0.4010 -0.1059
  184MOL0     C24747   9.639   5.699  10.163  0.1448  0.5679  0.4371
  184MOL0     C24748   9.494   5.764  10.170  0.6195  1.0122 -0.0709
  184MOL0     C24749   9.408   5.677  10.256 -0.1392 -0.0736 -0.1787
  184MOL0    Cl24750   9.455   5.726  10.422 -0.0970 -0.4794 -0.0439
  184MOL0     C24751  10.200   5.961   9.559  0.7110  0.4085 -0.6630
  184MOL0     C24752  10.195   6.052   9.455  0.8089  0.2295  0.6691
  184MOL0     O24753  10.035   6.134   9.236  0.4959  0.5719 -0.9532
  184MOL0     C24754   9.985   6.301   9.044  0.7764 -0.5819  0.3502
  184MOL0     C24755   9.960   6.389   8.939  0.4374  0.2483 -0.4723
  184MOL0     N24756  10.126   6.638   8.264  0.2481 -0.7822 -0.3391
  184MOL0     N24757  10.177   6.725   8.189 -0.7366  0.1775 -0.3479
  184MOL0     C24758  10.412   6.703   8.748  0.0411 -0.1772  0.5497
  184MOL0     C24759  10.453   6.571   8.772  0.4460  1.1019  0.1106
  184MOL0     C24760  10.563   6.181   8.879 -0.4367  0.0664  0.2735
  184MOL0     C24761  10.524   6.140   9.003  0.3143  0.4854 -0.7294
  184MOL0     C24762  10.505   6.004   9.027 -0.6998  0.1283  0.0254
  184MOL0     C24763  10.545   5.907   8.937 -0.5749 -0.4323 -0.1234
  184MOL0     O24764  10.515   5.776   8.970 -0.5741  0.7561  0.8122
  184MOL0     C24765  10.549   5.662   8.888 -0.4069  0.1983 -0.3323
  184MOL0     C24766  10.495   5.528   8.916 -0.3111  0.1101  0.1446
  184MOL0     C24767  10.534   5.468   9.055 -0.1828  0.3288 -0.6810
  184MOL0     C24768  10.518   5.315   9.066 -0.8878  0.2763  0.4580
  184MOL0     C24769  10.390   5.249   9.040  0.5783 -0.5404  0.1066
  184MOL0     C24770  10.276   5.205   9.011 -0.0854  0.2016 -0.9142
  184MOL0     C24771  10.607   5.945   8.817  0.1714 -0.0618 -0.3514
  184MOL0     C24772  10.615   6.079   8.786 -0.1476 -0.2349  0.4095
  184MOL0     H24773  10.582   6.618   9.077  2.6730 -1.4355 -1.4535
  184MOL0     H24774  10.513   6.854   9.032 -0.6116 -1.6850  1.7578
  184MOL0     H24775  10.550   7.063   8.858 -1.5696 -1.3110  1.4491
  184MOL0     H24776  10.604   6.943   8.740 -1.7304 -1.0144 -0.4294
  184MOL0     H24777  10.423   7.186   8.708  1.9050  3.7405 -1.0708
  184MOL0     H24778  10.592   7.167   8.672  0.6473 -1.7216 -0.0650
  184MOL0     H24779  10.525   7.157   8.466 -1.5885 -1.6021 -2.9679
  184MOL0     H24780  10.510   6.986   8.490  4.3013  0.9981  0.7558
  184MOL0     H24781  10.285   6.980   8.552 -0.2051  1.2391  2.6271
  184MOL0     H24782  10.286   7.152   8.554  2.9288  1.0013  2.6068
  184MOL0     H24783  10.350   7.127   8.290  1.9741 -1.1051  1.3987
  184MOL0     H24784  10.315   6.963   8.304  1.3599  0.5065 -1.2538
  184MOL0     H24785  10.075   7.014   8.397 -0.8528  0.5999  0.6989
  184MOL0     H24786  10.104   7.185   8.377 -3.4904 -0.9844 -0.1293
  184MOL0     H24787   9.974   7.098   8.206  0.0629  1.2952  1.7729
  184MOL0     H24788  10.137   7.164   8.143  2.3048 -2.5881 -2.7356
  184MOL0     H24789  10.229   6.976   8.102  0.1425 -0.0442  1.5501
  184MOL0     H24790  10.053   6.968   8.037 -0.3741  1.4613 -0.6783
  184MOL0     H24791   9.889   6.874   8.271 -0.2035  0.3989 -3.9168
  184MOL0     H24792   9.810   6.669   8.410 -0.7895 -0.2457  2.3629
  184MOL0     H24793   9.864   6.517   8.333 -1.7693 -0.0958  1.1250
  184MOL0     H24794  10.069   6.501   8.490 -0.0485  0.8674  0.0747
  184MOL0     H24795   9.911   6.480   8.574 -0.2484 -2.3938 -2.2297
  184MOL0     H24796   9.944   6.745   8.628 -0.1417 -1.4863 -0.4199
  184MOL0     H24797  10.092   6.734   8.552  1.6654 -0.0576  1.5430
  184MOL0     H24798  10.155   6.719   8.786  2.4259  0.3175 -2.2641
  184MOL0     H24799  10.167   6.560   8.702  1.0131  2.2356 -2.4484
  184MOL0     H24800  10.191   6.627   8.989  1.1782 -0.1302 -0.8987
  184MOL0     H24801  10.263   6.512   9.309 -1.5750 -1.4017  1.2382
  184MOL0     H24802  10.368   6.424   9.204 -1.9189 -0.8442 -1.8627
  184MOL0     H24803  10.336   6.595   9.164  0.0023 -0.0320  0.3074
  184MOL0     H24804  10.089   6.326   9.633 -1.2271 -1.7698  2.8210
  184MOL0     H24805  10.106   6.190   9.801  1.5681  0.2379  0.2462
  184MOL0     H24806  10.076   5.767   9.701 -1.5171  1.7255  1.5713
  184MOL0     H24807  10.244   5.728   9.767 -0.1073 -0.2148  1.5602
  184MOL0     H24808  10.068   5.631   9.890  0.4604  0.0920 -2.0967
  184MOL0     H24809  10.124   5.766   9.995 -0.2580 -2.3455  0.9691
  184MOL0     H24810   9.868   5.771   9.827 -0.8047 -3.2061  0.8706
  184MOL0     H24811   9.935   5.909   9.920 -0.6930  0.7849 -0.9205
  184MOL0     H24812   9.869   5.622  10.032 -2.1632  0.3961 -2.3190
  184MOL0     H24813   9.914   5.759  10.129 -0.3201 -0.3943  0.1981
  184MOL0     H24814   9.667   5.723   9.961 -1.1604 -0.6628  0.7752
  184MOL0     H24815   9.710   5.876  10.059  1.6427 -0.3945  0.8948
  184MOL0     H24816   9.638   5.592  10.143  0.0772  0.8825 -1.4946
  184MOL0     H24817   9.697   5.715  10.254  1.8464 -0.5793 -0.3968
  184MOL0     H24818   9.459   5.765  10.067  3.3221  2.9268 -1.0749
  184MOL0     H24819   9.498   5.868  10.204 -2.2730  1.1750  0.0165
  184MOL0     H24820   9.427   5.571  10.239  0.6784 -0.0740  0.6013
  184MOL0     H24821   9.306   5.702  10.226 -0.2986  0.0251  0.4304
  184MOL0     H24822  10.229   5.861   9.528 -1.2721  0.0758 -1.5765
  184MOL0     H24823  10.244   6.020   9.363  2.8230 -1.0803  2.1326
  184MOL0     H24824   9.917   6.218   9.060 -1.9184  1.4368  0.2001
  184MOL0     H24825   9.871   6.368   8.880 -0.6860 -0.2461  1.3005
  184MOL0     H24826  10.368   6.741   8.656  0.7892  1.2752  0.7638
  184MOL0     H24827  10.420   6.501   8.696 -0.1102  2.5911 -1.0727
  184MOL0     H24828  10.501   6.214   9.079 -0.0360 -0.7157  0.3826
  184MOL0     H24829  10.474   5.958   9.120  1.8919  1.2633  1.5525
  184MOL0     H24830  10.529   5.678   8.782  0.0769 -1.4078 -0.6875
  184MOL0     H24831  10.657   5.660   8.902 -0.5689  0.1989  1.1022
  184MOL0     H24832  10.518   5.462   8.831 -5.3050  3.0389 -4.0817
  184MOL0     H24833  10.386   5.535   8.915 -0.3184  0.2150  1.1842
  184MOL0     H24834  10.467   5.519   9.124 -1.2684 -1.3419 -0.4303
  184MOL0     H24835  10.638   5.495   9.076  1.9117 -3.3860 -4.5914
  184MOL0     H24836  10.555   5.284   9.164 -1.3043  1.0736  0.8758
  184MOL0     H24837  10.575   5.275   8.982 -2.4460 -1.0564 -0.0105
  184MOL0     H24838  10.188   5.158   8.973  0.0065 -0.1255 -0.7286
  184MOL0     H24839  10.632   5.888   8.728 -1.2224  0.2357 -0.9554
  184MOL0     H24840  10.653   6.110   8.689  0.1173  2.0700  1.1884
  185MOL0     O24841  10.711   7.057   2.401  0.2020 -0.3328 -0.2252
  185MOL0     C24842  10.629   7.127   2.347  0.9194  0.3505 -0.4989
  185MOL0     O24843  10.517   7.084   2.277  0.7864  0.1597  0.2701
  185MOL0     C24844  10.460   6.961   2.312 -0.2707 -0.8625  0.2379
  185MOL0     C24845  10.371   6.919   2.217 -1.3005  0.8014 -0.6725
  185MOL0     C24846  10.305   6.794   2.233 -0.0230 -0.7745  0.1175
  185MOL0     C24847  10.316   6.727   2.348  0.3429 -0.1187  0.5706
  185MOL0     O24848  10.255   6.603   2.343  0.5642 -0.2416 -0.2441
  185MOL0     C24849  10.278   6.515   2.449 -0.8081 -0.3233 -0.8219
  185MOL0     C24850  10.221   6.378   2.407  0.2128 -0.8467 -0.0102
  185MOL0     C24851  10.071   6.380   2.395  1.3692  0.4589 -0.6437
  185MOL0     C24852   9.986   6.424   2.517  0.3671  0.1853  0.3718
  185MOL0     C24853   9.949   6.564   2.525  0.3673  0.1852 -0.6275
  185MOL0     C24854   9.887   6.581   2.660  0.2969  0.3486 -0.3002
  185MOL0     C24855   9.854   6.726   2.694  0.3240  0.1895 -0.6609
  185MOL0     C24856   9.957   6.846   2.682  0.5128  0.3653  0.1278
  185MOL0     N24857  10.048   6.837   2.789  0.0040  0.5485 -0.3195
  185MOL0     C24858  10.142   6.735   2.770  0.2470 -0.7030 -0.4799
  185MOL0     C24859  10.194   6.712   2.893  0.6143  0.3884 -0.0016
  185MOL0     C24860  10.291   6.600   2.901  0.8354 -0.8694  0.1442
  185MOL0     C24861  10.238   6.461   2.898  0.0029  0.2854  0.2804
  185MOL0     C24862  10.129   6.438   3.001  1.2898 -0.5743  0.3109
  185MOL0     C24863  10.074   6.294   3.014 -0.2984 -0.8930  0.0660
  185MOL0     O24864  10.049   6.246   2.885 -0.2248  1.1334  0.6886
  185MOL0     C24865  10.025   6.117   2.855 -0.1720  0.1892  0.1894
  185MOL0     C24866  10.060   6.014   2.948  0.2675 -0.2635  0.3532
  185MOL0     C24867  10.054   5.882   2.909  0.1231  0.4545 -0.3836
  185MOL0     C24868  10.100   5.777   3.001 -1.3486  1.4439 -0.5161
  185MOL0     C24869  10.016   5.850   2.775 -0.4184  1.0494 -0.3285
  185MOL0     C24870  10.029   5.712   2.721  0.4388 -0.4169  0.7353
  185MOL0     O24871  10.047   5.598   2.804 -0.1790 -0.5388 -0.1202
  185MOL0     C24872  10.081   5.468   2.762  0.0565 -1.6797 -0.8610
  185MOL0     C24873  10.081   5.378   2.868  0.2044 -0.6341  0.7744
  185MOL0     C24874  10.108   5.237   2.849 -1.4905 -0.4454 -0.2122
  185MOL0     C24875  10.148   5.199   2.719 -0.2172  1.0043 -0.9355
  185MOL0     O24876  10.208   5.072   2.703 -0.7122 -0.2017  0.1490
  185MOL0     C24877  10.342   5.075   2.649  0.4572  0.6239  0.2335
  185MOL0     C24878  10.462   5.122   2.743  0.5844 -0.2968 -0.4235
  185MOL0     C24879  10.596   5.114   2.676 -0.1161 -0.2558  0.3889
  185MOL0     C24880  10.705   5.213   2.712 -0.7548 -0.2630 -1.0580
  185MOL0     C24881  10.816   5.238   2.602 -0.5054 -0.9154  0.3089
  185MOL0     C24882  10.768   5.283   2.460  0.3039 -0.3389  1.3499
  185MOL0     C24883  10.884   5.329   2.378  0.4239 -0.2665 -0.5033
  185MOL0     C24884  10.830   5.406   2.252 -0.3897 -0.4423  0.3149
  185MOL0    Cl24885  10.953   5.504   2.145  0.0115  0.5920 -0.4508
  185MOL0     C24886  10.151   5.292   2.611  0.8890 -1.0579  0.4826
  185MOL0     C24887  10.108   5.429   2.628 -0.4779  0.0064 -0.5303
  185MOL0     O24888  10.030   5.710   2.597 -0.8436  0.0720  0.5979
  185MOL0     C24889   9.957   5.953   2.702 -0.2337 -0.4269  0.6054
  185MOL0     C24890   9.966   6.086   2.737  0.2839  0.1554  0.1184
  185MOL0     N24891  10.125   6.786   2.988 -0.8606 -0.2097 -0.4451
  185MOL0     N24892  10.034   6.847   2.921  0.0877 -0.9605  0.0244
  185MOL0     C24893  10.405   6.766   2.443 -0.2230  0.3539  0.0347
  185MOL0     C24894  10.478   6.889   2.428  0.8307  0.5973 -0.3944
  185MOL0     C24895  10.666   7.271   2.337 -0.1489  0.4835  1.0457
  185MOL0     C24896  10.615   7.351   2.230 -0.5915  0.5669 -0.3049
  185MOL0     C24897  10.660   7.482   2.214 -0.4509  0.3331  0.3431
  185MOL0     C24898  10.747   7.540   2.311  0.3735 -0.3410 -0.5663
  185MOL0     O24899  10.798   7.665   2.311  0.6353 -0.1757 -0.2909
  185MOL0     C24900  10.771   7.740   2.198 -0.3892 -0.3170  1.0547
  185MOL0     C24901  10.859   7.710   2.067 -0.6624 -0.0144 -0.1780
  185MOL0     C24902  11.012   7.728   2.095 -0.0149  0.8384 -0.5361
  185MOL0     C24903  11.086   7.840   2.021  0.3758  0.2782 -0.2913
  185MOL0     C24904  11.121   7.954   2.106  0.2987 -0.0059 -0.5879
  185MOL0     C24905  11.154   8.049   2.180  0.0388  0.6311 -0.3225
  185MOL0     C24906  10.799   7.452   2.415 -0.0610 -0.5522 -0.7135
  185MOL0     C24907  10.753   7.321   2.430  1.1475 -0.1177 -0.0256
  185MOL0     H24908  10.383   6.978   2.126 -0.0769  1.0813 -0.3440
  185MOL0     H24909  10.232   6.762   2.159 -1.9699  1.6522  0.8441
  185MOL0     H24910  10.385   6.499   2.465 -0.6629  0.8453 -0.5818
  185MOL0     H24911  10.232   6.550   2.542  0.8348  0.4032 -0.2352
  185MOL0     H24912  10.260   6.349   2.309  1.4710  3.1063 -0.8380
  185MOL0     H24913  10.250   6.307   2.485  1.5674 -1.2498 -0.8336
  185MOL0     H24914  10.040   6.443   2.311 -1.8160 -1.0093 -0.7243
  185MOL0     H24915  10.038   6.283   2.358 -1.0778  0.0341  2.2619
  185MOL0     H24916   9.892   6.368   2.523  0.9522 -0.7468  1.3455
  185MOL0     H24917  10.045   6.378   2.598  0.7524 -5.3391 -2.5111
  185MOL0     H24918  10.034   6.631   2.509  2.3772 -2.1954 -0.4995
  185MOL0     H24919   9.872   6.585   2.451 -0.7346 -1.0960  0.1292
  185MOL0     H24920   9.797   6.522   2.674 -0.2159  1.6499  3.0586
  185MOL0     H24921   9.950   6.536   2.738 -1.9284 -1.5721  0.4983
  185MOL0     H24922   9.772   6.757   2.629  1.1711  1.3678 -1.2002
  185MOL0     H24923   9.821   6.725   2.798  2.6001 -0.6718  0.1155
  185MOL0     H24924   9.904   6.942   2.693 -2.0559 -0.6918 -1.8959
  185MOL0     H24925   9.998   6.850   2.581  0.9581 -0.1529  0.2858
  185MOL0     H24926  10.173   6.689   2.676  0.4594  0.0258 -0.7718
  185MOL0     H24927  10.365   6.614   2.822  0.1991  2.1695 -0.0642
  185MOL0     H24928  10.350   6.618   2.992  3.6960  0.5943 -1.8410
  185MOL0     H24929  10.320   6.390   2.905  0.0244  0.2690 -0.1137
  185MOL0     H24930  10.184   6.442   2.805 -0.9363 -1.1587  1.0771
  185MOL0     H24931  10.041   6.493   2.967  1.6608 -0.6283 -0.7798
  185MOL0     H24932  10.160   6.486   3.094  3.0069  1.7475 -1.3730
  185MOL0     H24933   9.991   6.277   3.083  1.0606 -3.2063  1.2509
  185MOL0     H24934  10.150   6.226   3.054  0.4476  0.0685  0.3370
  185MOL0     H24935  10.101   6.027   3.048 -0.7751 -2.8037  1.1777
  185MOL0     H24936  10.022   5.702   3.016 -0.6466  1.0974  1.9842
  185MOL0     H24937  10.182   5.720   2.956 -1.5961 -0.4978  1.3368
  185MOL0     H24938  10.134   5.829   3.091 -1.2521  1.4564 -0.5587
  185MOL0     H24939  10.070   5.426   2.964 -0.6844  1.9420 -0.5340
  185MOL0     H24940  10.117   5.176   2.939  0.5154 -1.7949 -1.2350
  185MOL0     H24941  10.365   4.970   2.626  0.9802  0.7736  0.0445
  185MOL0     H24942  10.355   5.131   2.556  1.1991  1.4803  0.8395
  185MOL0     H24943  10.443   5.228   2.762 -1.8641 -0.8754  0.7133
  185MOL0     H24944  10.460   5.072   2.840 -3.4843 -2.3033 -1.3177
  185MOL0     H24945  10.576   5.131   2.570 -1.5886  0.7221  0.7887
  185MOL0     H24946  10.632   5.012   2.691 -2.6534 -1.8285 -2.9148
  185MOL0     H24947  10.653   5.308   2.731 -0.0515  0.2093 -1.4547
  185MOL0     H24948  10.757   5.196   2.807 -3.2018  1.7512  0.8116
  185MOL0     H24949  10.884   5.153   2.591  2.2437  1.3048 -1.2667
  185MOL0     H24950  10.879   5.319   2.640 -0.0903 -0.2983 -1.5972
  185MOL0     H24951  10.708   5.222   2.392  1.5397  2.8941 -3.0511
  185MOL0     H24952  10.708   5.375   2.454  1.5881  0.4360 -2.9681
  185MOL0     H24953  10.942   5.240   2.350  2.6431  1.7748 -2.8860
  185MOL0     H24954  10.950   5.391   2.439  2.4209 -2.8932  0.2283
  185MOL0     H24955  10.762   5.487   2.281  0.2155  0.2769 -0.2413
  185MOL0     H24956  10.779   5.333   2.188 -0.6421  0.3358 -0.3793
  185MOL0     H24957  10.173   5.249   2.514  0.5523  1.0928 -0.5986
  185MOL0     H24958  10.100   5.494   2.542 -0.8547  0.5144 -0.1196
  185MOL0     H24959   9.921   5.935   2.602 -0.1135  0.7300  0.3446
  185MOL0     H24960   9.942   6.157   2.659  1.2212 -0.2397 -0.5499
  185MOL0     H24961  10.439   6.705   2.526 -0.3372 -1.1740 -0.9887
  185MOL0     H24962  10.542   6.927   2.507  3.6632  1.3148 -2.8295
  185MOL0     H24963  10.543   7.309   2.161 -0.9316 -2.3840  1.6421
  185MOL0     H24964  10.632   7.539   2.126  2.4068  3.0987  1.0173
  185MOL0     H24965  10.667   7.723   2.168  0.2564 -1.5156 -0.6279
  185MOL0     H24966  10.788   7.842   2.235 -1.8658  0.0957  0.6725
  185MOL0     H24967  10.832   7.779   1.987 -0.2837  2.7836  1.9418
  185MOL0     H24968  10.847   7.602   2.051  0.3690 -0.5012  1.9925
  185MOL0     H24969  11.061   7.636   2.065  1.1170  1.8570 -1.9518
  185MOL0     H24970  11.035   7.726   2.202 -1.1236 -0.5327 -0.2967
  185MOL0     H24971  11.016   7.880   1.948  0.6396  1.1227 -0.0857
  185MOL0     H24972  11.167   7.813   1.952  0.6641 -0.5702  0.3582
  185MOL0     H24973  11.162   8.132   2.247 -1.0642  0.5997 -0.1317
  185MOL0     H24974  10.860   7.484   2.499 -3.0281 -1.2016  1.8945
  185MOL0     H24975  10.807   7.260   2.502  4.2096  0.6280 -1.5274
  186MOL0     O24976   3.258   9.833   1.991  0.3419  0.5294  0.6425
  186MOL0     C24977   3.342   9.917   1.994 -0.0715 -0.4876  0.4178
  186MOL0     O24978   3.480   9.906   1.964  1.1811 -0.0186 -0.2910
  186MOL0     C24979   3.508   9.781   1.909 -0.2544 -0.8531  0.0713
  186MOL0     C24980   3.452   9.747   1.786 -0.4674 -0.3445  0.4155
  186MOL0     C24981   3.490   9.631   1.709  0.7055  0.6673 -0.7286
  186MOL0     C24982   3.602   9.553   1.754 -0.1272  0.7120 -0.1041
  186MOL0     O24983   3.649   9.446   1.677  0.1901  0.3634 -0.2942
  186MOL0     C24984   3.551   9.349   1.634 -0.3947 -0.5330 -0.1260
  186MOL0     C24985   3.522   9.349   1.484  0.4999  0.4870  0.0792
  186MOL0     C24986   3.612   9.243   1.406 -0.1890  0.2722 -0.9459
  186MOL0     C24987   3.763   9.281   1.379  1.1271 -0.2767 -0.6742
  186MOL0     C24988   3.813   9.230   1.251 -0.0846  0.2719  0.2203
  186MOL0     C24989   3.960   9.267   1.227  0.0310 -0.3409 -0.2964
  186MOL0     C24990   4.021   9.208   1.102 -0.5894 -0.2346 -0.5388
  186MOL0     C24991   4.175   9.238   1.081  0.9171 -0.2432 -0.3794
  186MOL0     N24992   4.205   9.378   1.083  0.6883  0.1359  0.2033
  186MOL0     C24993   4.217   9.458   0.975  0.2698  0.6895 -0.1913
  186MOL0     C24994   4.239   9.584   1.022 -0.0238 -0.0006 -1.0071
  186MOL0     C24995   4.263   9.709   0.939  0.1066  1.0049 -0.9174
  186MOL0     C24996   4.124   9.761   0.894  0.1559  0.2938 -0.1699
  186MOL0     C24997   4.117   9.893   0.804 -1.2208 -0.1407 -0.3745
  186MOL0     C24998   4.012   9.882   0.697 -0.2065  0.8642  0.2792
  186MOL0     O24999   4.069   9.801   0.588 -0.5945  0.6488  0.3771
  186MOL0     C25000   4.059   9.664   0.585  0.0662  0.1913  1.2335
  186MOL0     C25001   3.939   9.599   0.592  0.3817  0.1168  0.6063
  186MOL0     C25002   3.939   9.458   0.586  0.0436 -0.1409  0.3129
  186MOL0     C25003   3.808   9.385   0.597  0.2073  0.2988  0.8412
  186MOL0     C25004   4.062   9.384   0.591  1.2493  0.6590  0.0345
  186MOL0     C25005   4.065   9.243   0.614  0.2747  0.4421 -0.6819
  186MOL0     O25006   4.037   9.155   0.515  0.1337 -0.4506  0.5042
  186MOL0     C25007   4.017   9.014   0.524  0.5576  0.0331 -0.4723
  186MOL0     C25008   3.990   8.945   0.653 -0.1438 -0.3016  0.0291
  186MOL0     C25009   3.984   8.799   0.670 -0.4836 -1.1931  0.5453
  186MOL0     C25010   3.998   8.730   0.554 -0.1264  0.6267  0.3027
  186MOL0     O25011   4.002   8.590   0.559 -0.5081  0.8724  0.2385
  186MOL0     C25012   3.899   8.525   0.624  0.0185  0.4255 -0.6255
  186MOL0     C25013   3.959   8.461   0.746 -0.2144  0.8610  0.3471
  186MOL0     C25014   3.852   8.386   0.837  0.2138  0.3660 -0.7149
  186MOL0     C25015   3.919   8.338   0.968  0.0685 -0.7765 -0.0802
  186MOL0     C25016   3.921   8.447   1.076  0.1005 -0.1476  0.0151
  186MOL0     C25017   3.983   8.387   1.198 -0.0481 -0.8283  0.4193
  186MOL0     C25018   3.985   8.475   1.325  0.1232 -0.0030  0.2087
  186MOL0     C25019   4.111   8.454   1.407 -0.0098  0.1316 -0.2073
  186MOL0    Cl25020   4.116   8.556   1.553 -0.2185 -0.3002 -0.2390
  186MOL0     C25021   4.017   8.785   0.424 -0.0701 -0.2424  0.4766
  186MOL0     C25022   4.023   8.928   0.413 -0.1655 -0.0529 -0.4661
  186MOL0     O25023   4.088   9.207   0.732 -0.7513  0.0342  0.4384
  186MOL0     C25024   4.180   9.455   0.583 -0.2531  0.7698  0.4098
  186MOL0     C25025   4.178   9.594   0.586  0.3063 -0.8146  0.2057
  186MOL0     N25026   4.239   9.587   1.161  0.3670 -0.0890  0.9940
  186MOL0     N25027   4.218   9.465   1.187 -0.7721 -0.0158 -0.8037
  186MOL0     C25028   3.661   9.598   1.872  0.7589  0.8030  0.1484
  186MOL0     C25029   3.618   9.706   1.944  0.4418  0.2333 -0.3903
  186MOL0     C25030   3.301  10.052   2.026 -0.3735  0.1232 -0.3009
  186MOL0     C25031   3.177  10.081   2.091 -0.5805  1.0874  1.4214
  186MOL0     C25032   3.144  10.210   2.134 -0.7901 -0.4006  0.8877
  186MOL0     C25033   3.225  10.320   2.106  0.1862  0.2776 -0.9301
  186MOL0     O25034   3.186  10.453   2.142 -1.0854  0.7107  0.1393
  186MOL0     C25035   3.050  10.474   2.173  0.0244  0.2532  0.1584
  186MOL0     C25036   2.991  10.611   2.132 -1.0017  0.0729  0.7862
  186MOL0     C25037   2.839  10.619   2.131  0.8013 -0.0651  0.6236
  186MOL0     C25038   2.786  10.762   2.096  0.0070 -0.5941  1.6233
  186MOL0     C25039   2.794  10.790   1.948  0.3877  0.8038 -0.6971
  186MOL0     C25040   2.797  10.833   1.837  0.1858  0.1724  0.0173
  186MOL0     C25041   3.346  10.290   2.054 -0.4351  0.7232  0.1997
  186MOL0     C25042   3.391  10.162   2.007 -0.2945  0.4060  0.3278
  186MOL0     H25043   3.370   9.806   1.747 -1.8768 -2.0772  0.6292
  186MOL0     H25044   3.438   9.607   1.617 -0.9282  0.3945  0.2251
  186MOL0     H25045   3.590   9.248   1.650  0.9757 -0.6223 -3.2441
  186MOL0     H25046   3.457   9.360   1.689  0.1569  0.8489  0.5847
  186MOL0     H25047   3.417   9.328   1.459  1.1716 -0.1752 -2.5294
  186MOL0     H25048   3.533   9.454   1.456  2.2084 -0.2083 -2.0787
  186MOL0     H25049   3.617   9.159   1.477  0.9533  0.7928 -0.3753
  186MOL0     H25050   3.568   9.222   1.308  2.0103 -1.7842 -1.6098
  186MOL0     H25051   3.773   9.390   1.374  3.7090 -0.4822 -1.3993
  186MOL0     H25052   3.827   9.256   1.464 -0.0254  0.4287  0.4339
  186MOL0     H25053   3.792   9.123   1.245 -0.3122  0.4088 -3.0065
  186MOL0     H25054   3.756   9.276   1.170 -1.5336  2.4096  2.3294
  186MOL0     H25055   3.970   9.375   1.214  0.2761 -0.6650 -3.3965
  186MOL0     H25056   4.016   9.246   1.319 -1.0491  0.2664  0.5347
  186MOL0     H25057   3.998   9.101   1.100 -0.2444 -0.3107 -0.5106
  186MOL0     H25058   3.960   9.259   1.026  0.9843  1.7191 -0.5739
  186MOL0     H25059   4.201   9.192   0.985  1.0167 -1.0264  0.0140
  186MOL0     H25060   4.238   9.192   1.159  4.8634  2.4558 -1.6509
  186MOL0     H25061   4.243   9.437   0.871 -1.2770 -0.4670 -0.3819
  186MOL0     H25062   4.310   9.773   1.013 -1.5601  0.6483  0.5063
  186MOL0     H25063   4.335   9.681   0.861  1.5308 -0.7528  0.9421
  186MOL0     H25064   4.052   9.769   0.977 -0.3397 -3.6409 -0.0353
  186MOL0     H25065   4.090   9.682   0.827  0.6781  0.1420 -0.2613
  186MOL0     H25066   4.210   9.904   0.748 -1.0961  2.8519  0.2368
  186MOL0     H25067   4.102   9.988   0.857  2.3620  0.1694  0.3845
  186MOL0     H25068   3.991   9.983   0.660  0.8990  0.4804 -1.4854
  186MOL0     H25069   3.915   9.841   0.729 -2.4431  3.9088 -1.9885
  186MOL0     H25070   3.839   9.639   0.601 -0.3025 -1.8502  2.4049
  186MOL0     H25071   3.817   9.293   0.538 -2.1093  0.5127  0.0588
  186MOL0     H25072   3.761   9.354   0.692 -1.5167  2.2419  0.6940
  186MOL0     H25073   3.726   9.450   0.566 -2.6700 -1.7603  3.4728
  186MOL0     H25074   3.957   9.012   0.731  3.4476  4.1030 -1.8018
  186MOL0     H25075   3.985   8.753   0.768 -0.4474 -0.7381  0.7625
  186MOL0     H25076   3.825   8.603   0.647  1.0015  1.5186 -1.0773
  186MOL0     H25077   3.874   8.444   0.555 -0.6911 -0.9761  1.1901
  186MOL0     H25078   4.017   8.376   0.707 -2.0331 -0.5578  0.6220
  186MOL0     H25079   4.021   8.519   0.815  2.4868 -2.9695  1.5168
  186MOL0     H25080   3.797   8.304   0.790  0.1509  0.1352 -0.2499
  186MOL0     H25081   3.766   8.453   0.852 -0.6362 -0.5250 -1.5314
  186MOL0     H25082   3.851   8.261   1.005 -2.9044  0.3045 -2.8030
  186MOL0     H25083   4.015   8.292   0.943 -1.0549 -2.0579 -2.4241
  186MOL0     H25084   3.817   8.480   1.093 -0.0080  0.5998 -1.8937
  186MOL0     H25085   3.978   8.538   1.056 -0.8506  1.5000  3.8491
  186MOL0     H25086   3.944   8.288   1.224 -4.0111  0.8635  1.7237
  186MOL0     H25087   4.082   8.360   1.160 -1.1190 -1.9501 -1.8228
  186MOL0     H25088   3.898   8.448   1.385  2.0484 -3.1267  1.9131
  186MOL0     H25089   3.983   8.579   1.292  1.9280 -0.4327 -1.4326
  186MOL0     H25090   4.203   8.460   1.347  2.7679  0.4386  3.6627
  186MOL0     H25091   4.121   8.350   1.437 -1.6308 -0.5944 -2.0283
  186MOL0     H25092   4.040   8.719   0.341 -2.6039  0.6370 -1.0070
  186MOL0     H25093   4.039   8.982   0.320 -0.1562 -2.8589 -2.2157
  186MOL0     H25094   4.272   9.398   0.588  1.8162  3.4090 -3.0550
  186MOL0     H25095   4.273   9.639   0.563  0.4604 -1.3838 -0.3094
  186MOL0     H25096   3.758   9.558   1.899  0.0588  0.7762  2.9831
  186MOL0     H25097   3.660   9.749   2.035 -0.6247 -0.7921  0.6239
  186MOL0     H25098   3.113   9.994   2.100  1.3904 -0.6490 -0.2511
  186MOL0     H25099   3.048  10.222   2.184 -1.2333 -2.4862  0.6305
  186MOL0     H25100   2.985  10.401   2.124  1.7463 -1.5520  0.4459
  186MOL0     H25101   3.031  10.467   2.280 -1.6260  0.7754 -0.0713
  186MOL0     H25102   3.036  10.628   2.034 -0.5545 -2.7007  0.4087
  186MOL0     H25103   3.029  10.677   2.210 -2.2350  1.0195  0.6108
  186MOL0     H25104   2.800  10.580   2.225 -3.6400  2.8738  0.3150
  186MOL0     H25105   2.801  10.557   2.049 -2.2853  2.8193 -0.4065
  186MOL0     H25106   2.858  10.828   2.145 -0.7756  0.2755  1.6375
  186MOL0     H25107   2.688  10.775   2.144 -0.4887  1.9729  0.0734
  186MOL0     H25108   2.787  10.874   1.739  0.8720  2.9597  1.0100
  186MOL0     H25109   3.405  10.381   2.048 -1.4076  1.3928  0.6044
  186MOL0     H25110   3.492  10.165   1.967  1.4662  2.6909  4.3436
  187MOL0     O25111   7.199  10.145   0.852 -0.6154 -0.7336 -0.0603
  187MOL0     C25112   7.187  10.130   0.726  0.6792 -0.5557 -0.1987
  187MOL0     O25113   7.296  10.088   0.645 -0.6530  0.2025 -0.6461
  187MOL0     C25114   7.426  10.101   0.692  0.5092 -0.0292 -0.0464
  187MOL0     C25115   7.486  10.226   0.712 -0.1200  0.2955  0.6192
  187MOL0     C25116   7.619  10.239   0.755 -0.5023  0.1735  0.5760
  187MOL0     C25117   7.684  10.119   0.780 -0.6450 -0.3944  1.1967
  187MOL0     O25118   7.805  10.123   0.829 -0.3856  0.4197 -0.3769
  187MOL0     C25119   7.915  10.060   0.762  0.9561 -0.0700 -0.5523
  187MOL0     C25120   8.019  10.170   0.745  0.3323 -0.6445  0.2293
  187MOL0     C25121   7.974  10.267   0.637  0.2715 -0.4361  0.2838
  187MOL0     C25122   8.083  10.318   0.553 -0.0954  0.2563 -0.0276
  187MOL0     C25123   8.183  10.417   0.620 -0.0482 -1.4237  0.3721
  187MOL0     C25124   8.310  10.350   0.686  0.4155  0.9907 -0.5935
  187MOL0     C25125   8.417  10.448   0.715  0.1290  0.2381 -0.9234
  187MOL0     C25126   8.392  10.534   0.837  0.3752  0.3849 -0.3277
  187MOL0     N25127   8.500  10.625   0.835  0.9003  0.0113  0.5453
  187MOL0     C25128   8.624  10.607   0.889 -0.3034  0.2668 -0.5911
  187MOL0     C25129   8.684  10.715   0.836  1.0193  0.8203  0.0812
  187MOL0     C25130   8.828  10.745   0.844 -0.0090  0.0232 -0.7908
  187MOL0     C25131   8.912  10.748   0.721  0.9757 -0.6170 -0.2257
  187MOL0     C25132   9.033  10.838   0.732 -0.4011  0.6696  0.1055
  187MOL0     C25133   9.003  10.982   0.749 -0.1387  0.0954  0.7364
  187MOL0     O25134   9.090  11.062   0.671 -0.5930 -0.8579  0.3552
  187MOL0     C25135   9.056  11.100   0.540 -0.4540  0.2553 -0.3271
  187MOL0     C25136   8.962  11.033   0.459  0.2538  0.6195 -0.7067
  187MOL0     C25137   8.937  11.083   0.327  0.6660  0.2589  0.5422
  187MOL0     C25138   8.841  11.000   0.240  0.3219  0.0166  1.0247
  187MOL0     C25139   8.992  11.208   0.285  0.1751  0.1208  1.1856
  187MOL0     C25140   8.972  11.263   0.153 -0.3170  0.3012  0.3623
  187MOL0     O25141   9.069  11.353   0.115  0.9449 -0.2741  0.8208
  187MOL0     C25142   9.030  11.438   0.013 -0.3355 -0.0444  0.3019
  187MOL0     C25143   8.995  11.388  -0.109 -0.0665  0.2184 -0.8832
  187MOL0     C25144   8.961  11.478  -0.215  0.6816 -0.2356  0.3659
  187MOL0     C25145   8.974  11.619  -0.198 -0.2867  0.1760 -1.2018
  187MOL0     O25146   8.944  11.700  -0.309  0.1770 -0.2246 -0.0269
  187MOL0     C25147   9.008  11.827  -0.332 -0.5288 -0.0035 -0.8068
  187MOL0     C25148   8.970  11.893  -0.473  0.8741  0.9819 -0.0350
  187MOL0     C25149   8.824  11.951  -0.456 -0.1184  0.2744  0.5037
  187MOL0     C25150   8.810  12.059  -0.559 -0.7474 -0.0719  0.0905
  187MOL0     C25151   8.689  12.145  -0.526  0.0092 -0.0281  0.5577
  187MOL0     C25152   8.672  12.269  -0.615  0.3796 -0.5357  0.0801
  187MOL0     C25153   8.553  12.362  -0.574 -0.1079  0.6272 -0.0886
  187MOL0     C25154   8.421  12.312  -0.625  1.2707  0.6407  0.3054
  187MOL0    Cl25155   8.355  12.193  -0.516  0.2978  0.3040  0.2124
  187MOL0     C25156   9.029  11.660  -0.077  0.1679 -0.6778  1.3962
  187MOL0     C25157   9.044  11.578   0.032  0.0977 -0.0216  0.9112
  187MOL0     O25158   8.876  11.222   0.085 -0.4920  0.2442 -0.0512
  187MOL0     C25159   9.085  11.268   0.369  0.5678  0.3860  0.3187
  187MOL0     C25160   9.122  11.219   0.490 -0.6956 -0.4761  0.5458
  187MOL0     N25161   8.589  10.808   0.779 -0.3939 -0.5143 -1.0631
  187MOL0     N25162   8.479  10.743   0.773 -0.4839  1.0782 -0.2056
  187MOL0     C25163   7.630   9.993   0.759 -0.3654  0.4648 -0.1962
  187MOL0     C25164   7.500   9.982   0.705 -0.6520 -0.8700 -0.5293
  187MOL0     C25165   7.053  10.127   0.651 -0.4157  0.0891  0.5524
  187MOL0     C25166   6.941  10.096   0.726  0.0037 -0.0240 -0.2032
  187MOL0     C25167   6.815  10.097   0.660 -0.0753 -1.1220  0.3775
  187MOL0     C25168   6.803  10.123   0.526  0.1173 -0.5337 -0.2359
  187MOL0     O25169   6.676  10.153   0.473 -0.0021  0.6575  0.3524
  187MOL0     C25170   6.629  10.070   0.359 -0.0903  0.7244  0.3926
  187MOL0     C25171   6.627   9.926   0.396  0.8739  0.0869  0.1602
  187MOL0     C25172   6.599   9.844   0.266 -0.2187 -0.6498  0.0234
  187MOL0     C25173   6.650   9.705   0.256 -0.1965  0.4651  0.4539
  187MOL0     C25174   6.614   9.637   0.379 -0.8559 -0.7670 -0.3143
  187MOL0     C25175   6.595   9.586   0.484 -0.0328  0.6368  0.1493
  187MOL0     C25176   6.920  10.154   0.450  0.2325  0.3874 -1.2752
  187MOL0     C25177   7.042  10.150   0.513  0.0214 -0.2133 -0.3350
  187MOL0     H25178   7.425  10.315   0.699  0.5074  0.9010  1.6472
  187MOL0     H25179   7.673  10.327   0.789  0.0176  0.7713 -1.6038
  187MOL0     H25180   7.952   9.977   0.823 -1.2758  0.6344  1.9815
  187MOL0     H25181   7.884  10.025   0.664  2.4914 -1.6447 -0.5217
  187MOL0     H25182   8.020  10.231   0.836 -1.6967  0.8615 -0.6784
  187MOL0     H25183   8.117  10.129   0.720  0.4389  1.1974 -2.8726
  187MOL0     H25184   7.908  10.215   0.567  1.9773 -2.3059 -0.0153
  187MOL0     H25185   7.904  10.342   0.673 -0.2782 -1.0195  0.4398
  187MOL0     H25186   8.138  10.236   0.506  0.7285  0.5938  0.3317
  187MOL0     H25187   8.032  10.364   0.468  2.1467  0.7705 -1.1695
  187MOL0     H25188   8.210  10.491   0.544  2.1121 -0.5866  1.8533
  187MOL0     H25189   8.134  10.478   0.697  2.9897  2.0877 -0.1552
  187MOL0     H25190   8.280  10.284   0.768  0.9003  1.9545  0.3809
  187MOL0     H25191   8.355  10.291   0.606 -2.3932  0.2384 -1.7512
  187MOL0     H25192   8.506  10.395   0.749  1.6731  2.6769 -0.9333
  187MOL0     H25193   8.440  10.504   0.624 -0.9875  1.1149 -0.6997
  187MOL0     H25194   8.384  10.473   0.927  0.1794 -0.5160 -0.9398
  187MOL0     H25195   8.294  10.582   0.828 -0.0774 -0.4959 -0.2236
  187MOL0     H25196   8.683  10.533   0.943  1.1461  1.3783 -0.5862
  187MOL0     H25197   8.824  10.850   0.875 -0.3171 -0.6067  1.5351
  187MOL0     H25198   8.873  10.685   0.924  1.6239 -1.5731 -2.7921
  187MOL0     H25199   8.844  10.783   0.643 -1.0717 -0.2049  1.6388
  187MOL0     H25200   8.951  10.646   0.719  0.7469 -0.7135 -2.3883
  187MOL0     H25201   9.073  10.827   0.630 -0.8214 -1.0920  0.0972
  187MOL0     H25202   9.105  10.808   0.809 -2.2109  1.6780  2.2817
  187MOL0     H25203   9.002  11.001   0.857 -1.4272  2.4659  0.3838
  187MOL0     H25204   8.900  10.995   0.715  0.8546  4.6612 -1.3690
  187MOL0     H25205   8.910  10.945   0.495 -1.5736  2.2658  0.9350
  187MOL0     H25206   8.744  11.046   0.222 -0.8863 -2.7618 -0.2725
  187MOL0     H25207   8.888  10.985   0.143  1.7433  0.3387  1.6389
  187MOL0     H25208   8.828  10.899   0.280  3.3087 -1.3436 -1.0093
  187MOL0     H25209   8.986  11.280  -0.106  4.8989 -0.3699  0.4495
  187MOL0     H25210   8.937  11.432  -0.310 -1.1276  1.7456 -0.1928
  187MOL0     H25211   8.990  11.897  -0.250  2.3183 -0.9255  0.7087
  187MOL0     H25212   9.116  11.810  -0.335 -0.3832  0.9768 -1.3842
  187MOL0     H25213   9.039  11.973  -0.502  2.8889 -0.7831 -0.2855
  187MOL0     H25214   8.969  11.810  -0.543  2.3014  1.8870 -1.1925
  187MOL0     H25215   8.805  11.986  -0.354  0.3610  0.0569  0.6720
  187MOL0     H25216   8.756  11.868  -0.476  1.3873 -0.8445 -0.2065
  187MOL0     H25217   8.900  12.122  -0.551 -0.3957 -0.7863  2.5091
  187MOL0     H25218   8.817  12.027  -0.664  1.5273  0.5692 -0.0278
  187MOL0     H25219   8.703  12.178  -0.423 -0.9627  1.8724  0.1424
  187MOL0     H25220   8.598  12.084  -0.532  0.0318  0.0144 -0.4249
  187MOL0     H25221   8.760  12.330  -0.594 -1.8040  1.8731  3.3803
  187MOL0     H25222   8.664  12.237  -0.719 -1.6104 -0.9706  0.3193
  187MOL0     H25223   8.567  12.459  -0.622 -0.7504  0.6595 -0.2190
  187MOL0     H25224   8.565  12.373  -0.466  2.8348 -0.3642 -0.2267
  187MOL0     H25225   8.429  12.265  -0.723  2.1904 -0.0706  0.7078
  187MOL0     H25226   8.357  12.400  -0.613 -0.1639  0.1198 -2.7309
  187MOL0     H25227   9.027  11.766  -0.056 -3.0986 -0.6049  1.1297
  187MOL0     H25228   9.078  11.611   0.129 -1.9710 -3.2561  2.9338
  187MOL0     H25229   9.132  11.365   0.353  3.9811 -1.1936  0.0457
  187MOL0     H25230   9.185  11.275   0.558 -0.0973  1.0797 -1.2005
  187MOL0     H25231   7.695   9.911   0.787 -0.0186  1.7565  3.3104
  187MOL0     H25232   7.466   9.879   0.694 -0.8737 -1.1746  2.2880
  187MOL0     H25233   6.941  10.077   0.833  0.7610  0.8866 -0.0258
  187MOL0     H25234   6.718  10.084   0.706  0.3384 -1.2266  1.2384
  187MOL0     H25235   6.527  10.103   0.336  0.0449  1.3532  0.6817
  187MOL0     H25236   6.697  10.074   0.273  2.0407 -0.2821  1.9618
  187MOL0     H25237   6.546   9.915   0.469 -1.1294  0.8291 -1.8145
  187MOL0     H25238   6.721   9.884   0.433  0.0371 -2.1161 -0.0367
  187MOL0     H25239   6.631   9.901   0.178 -0.3762 -3.3653 -1.9018
  187MOL0     H25240   6.491   9.843   0.256 -0.3065  0.8591  0.4379
  187MOL0     H25241   6.756   9.705   0.229  0.6585 -0.1370  3.3957
  187MOL0     H25242   6.596   9.654   0.176  2.8005 -3.3866  0.5859
  187MOL0     H25243   6.581   9.539   0.579 -1.3531 -0.3384 -0.5047
  187MOL0     H25244   6.926  10.169   0.343  2.9144 -1.5626 -1.4787
  187MOL0     H25245   7.117  10.185   0.442 -2.0907  1.4719 -1.8429
  188MOL0     O25246   1.238   8.627   8.970  0.3615 -0.0332 -0.5409
  188MOL0     C25247   1.212   8.556   9.072 -0.5815 -0.2822  0.0237
  188MOL0     O25248   1.272   8.443   9.114 -0.3848 -0.3472 -0.0764
  188MOL0     C25249   1.378   8.404   9.036 -0.3999  1.1113  0.5630
  188MOL0     C25250   1.351   8.341   8.915 -0.5586  0.5665  0.0553
  188MOL0     C25251   1.456   8.276   8.840  0.6424  0.4200  0.6078
  188MOL0     C25252   1.583   8.255   8.904 -0.0406 -0.0350  0.4615
  188MOL0     O25253   1.682   8.176   8.835  0.3189 -0.4580 -0.2334
  188MOL0     C25254   1.656   8.037   8.840  0.1156  0.7897  0.4962
  188MOL0     C25255   1.758   7.961   8.749  0.3259 -0.2196  0.6892
  188MOL0     C25256   1.877   7.934   8.824 -0.7610 -0.4848 -0.9001
  188MOL0     C25257   1.974   7.858   8.729  0.1952 -0.4564  0.7766
  188MOL0     C25258   1.939   7.709   8.717  0.5965 -0.8667  0.1438
  188MOL0     C25259   2.018   7.620   8.622  0.1485 -0.0188 -0.0362
  188MOL0     C25260   2.172   7.624   8.630 -0.3381  0.4889 -0.2592
  188MOL0     C25261   2.229   7.558   8.755  0.3150  0.4385 -0.5138
  188MOL0     N25262   2.181   7.591   8.893  0.0372 -0.1905  0.8870
  188MOL0     C25263   2.217   7.695   8.960 -1.1340  0.2317 -0.8803
  188MOL0     C25264   2.161   7.691   9.084 -0.0054  0.5476 -0.1559
  188MOL0     C25265   2.161   7.790   9.198 -0.4569  0.7652  0.0194
  188MOL0     C25266   2.050   7.888   9.183 -0.0510  0.5805 -0.2096
  188MOL0     C25267   2.028   7.980   9.302  0.1467 -0.5884  0.2283
  188MOL0     C25268   2.141   8.097   9.311  0.4225  0.0095  0.2817
  188MOL0     O25269   2.125   8.172   9.435 -0.4887 -0.1196  0.4906
  188MOL0     C25270   2.014   8.256   9.446 -0.5986  0.9592 -0.2903
  188MOL0     C25271   1.934   8.255   9.558 -0.3251  0.3334 -0.8671
  188MOL0     C25272   1.824   8.333   9.556 -0.4033 -0.3082 -0.7542
  188MOL0     C25273   1.739   8.327   9.679 -0.5760  0.6676 -1.3672
  188MOL0     C25274   1.795   8.427   9.452  0.4000 -0.2257 -0.5479
  188MOL0     C25275   1.678   8.516   9.441 -0.4269  0.2454  0.4484
  188MOL0     O25276   1.690   8.626   9.360 -0.7975 -0.3798  0.3246
  188MOL0     C25277   1.581   8.708   9.354 -0.1168  0.0516  0.0321
  188MOL0     C25278   1.558   8.792   9.463  0.8487  1.1482 -0.5600
  188MOL0     C25279   1.465   8.892   9.451  0.0462  0.1192  0.2383
  188MOL0     C25280   1.386   8.914   9.335 -0.0227 -0.0061 -0.2525
  188MOL0     O25281   1.300   9.019   9.354 -0.2170 -0.6743 -0.0484
  188MOL0     C25282   1.214   9.050   9.246 -0.1347 -0.7634  0.1544
  188MOL0     C25283   1.121   9.155   9.300  1.4753  0.6576  0.1684
  188MOL0     C25284   1.183   9.296   9.348 -0.1685  0.6686  0.0528
  188MOL0     C25285   1.074   9.396   9.410 -0.6947 -0.4053  0.8985
  188MOL0     C25286   1.136   9.505   9.496 -0.0143  0.3722 -0.9828
  188MOL0     C25287   1.049   9.629   9.490  0.5231 -0.2018 -0.1186
  188MOL0     C25288   1.086   9.735   9.594  0.3110 -0.0412  0.3019
  188MOL0     C25289   1.180   9.836   9.537  0.8560  0.7678  0.0104
  188MOL0    Cl25290   1.209   9.960   9.659  0.0189 -0.6086  0.0555
  188MOL0     C25291   1.406   8.825   9.227  0.1599 -0.0531  0.7705
  188MOL0     C25292   1.512   8.727   9.237 -0.2931 -0.4594  0.4049
  188MOL0     O25293   1.574   8.478   9.496  0.9211  0.3219 -0.0946
  188MOL0     C25294   1.890   8.436   9.352 -0.0705  0.8748 -1.0948
  188MOL0     C25295   1.994   8.346   9.334 -0.0588  0.5878 -0.1869
  188MOL0     N25296   2.104   7.564   9.086  0.3170 -0.1942  0.3611
  188MOL0     N25297   2.113   7.501   8.968 -0.6051  0.1006 -0.9914
  188MOL0     C25298   1.605   8.314   9.028 -0.0020 -0.0531  0.7163
  188MOL0     C25299   1.504   8.381   9.092  1.6573 -0.9023  0.0759
  188MOL0     C25300   1.122   8.617   9.173  0.7030 -0.4101 -0.1313
  188MOL0     C25301   1.038   8.720   9.138  1.1545 -0.8104  0.5987
  188MOL0     C25302   0.971   8.797   9.229  0.6125  0.1532 -0.0645
  188MOL0     C25303   0.972   8.760   9.360 -0.1767  0.8062 -1.1425
  188MOL0     O25304   0.894   8.822   9.454  0.2001 -0.1396  0.1418
  188MOL0     C25305   0.951   8.894   9.563  0.5225 -0.0384 -0.7482
  188MOL0     C25306   0.895   9.027   9.605  0.9851 -0.2299  0.1005
  188MOL0     C25307   0.748   8.992   9.659  0.7161  1.2621 -0.3925
  188MOL0     C25308   0.662   9.119   9.701  0.3060 -0.3352 -0.7375
  188MOL0     C25309   0.675   9.232   9.614  0.4687  0.3635  0.3625
  188MOL0     C25310   0.676   9.331   9.549  0.2493  1.4393  1.4056
  188MOL0     C25311   1.055   8.656   9.402  0.6547 -0.2521  0.1633
  188MOL0     C25312   1.122   8.579   9.306  0.9002 -0.5904  0.1068
  188MOL0     H25313   1.251   8.335   8.873 -0.0035 -0.0887 -1.2358
  188MOL0     H25314   1.448   8.242   8.737 -0.7462 -0.0004  0.8231
  188MOL0     H25315   1.664   7.993   8.940  1.8961  0.1424  0.1215
  188MOL0     H25316   1.549   8.025   8.825 -0.1707  2.8097  0.6365
  188MOL0     H25317   1.712   7.863   8.732  1.8836 -0.8101 -0.3900
  188MOL0     H25318   1.785   8.005   8.652 -0.9893 -4.0813 -1.6450
  188MOL0     H25319   1.923   8.024   8.865 -0.6570 -1.1575  0.5252
  188MOL0     H25320   1.858   7.873   8.913 -2.2960 -0.9950 -1.5510
  188MOL0     H25321   1.976   7.904   8.630  0.5045  0.4647  1.1948
  188MOL0     H25322   2.075   7.876   8.767  1.2151  0.3092 -2.0385
  188MOL0     H25323   1.932   7.660   8.815  0.9017 -0.1915  0.5078
  188MOL0     H25324   1.836   7.702   8.682  0.0791  0.2105  1.3732
  188MOL0     H25325   1.964   7.525   8.630 -3.2882  1.7814  0.0645
  188MOL0     H25326   1.993   7.668   8.527  0.9249 -0.1220 -0.3021
  188MOL0     H25327   2.218   7.574   8.544  3.0664  2.2583  0.3585
  188MOL0     H25328   2.210   7.724   8.610 -0.4694 -0.0020 -3.4477
  188MOL0     H25329   2.337   7.569   8.744  0.2208  0.5542 -1.4312
  188MOL0     H25330   2.205   7.451   8.744 -0.8917  0.6175  0.1460
  188MOL0     H25331   2.277   7.772   8.911 -0.3656 -0.3427 -0.8621
  188MOL0     H25332   2.155   7.736   9.293 -0.7040  0.6763 -0.0471
  188MOL0     H25333   2.255   7.844   9.187  1.5600 -2.7745 -1.8568
  188MOL0     H25334   1.959   7.831   9.161  0.2494 -0.1588  0.4013
  188MOL0     H25335   2.067   7.964   9.107  0.8892  2.7106  1.9872
  188MOL0     H25336   2.039   7.931   9.399  2.5253  0.2092  0.4350
  188MOL0     H25337   1.935   8.034   9.278  1.6054  1.3560 -1.4752
  188MOL0     H25338   2.119   8.163   9.226 -1.8610 -2.6224 -1.3454
  188MOL0     H25339   2.243   8.062   9.296  0.6269  1.1473 -1.1816
  188MOL0     H25340   1.970   8.188   9.636  3.0646  1.7978 -1.0228
  188MOL0     H25341   1.697   8.422   9.713 -2.9447 -1.2886  1.7433
  188MOL0     H25342   1.656   8.257   9.666  1.4140 -2.4529  1.0595
  188MOL0     H25343   1.795   8.293   9.767  0.8472  3.1870 -1.1864
  188MOL0     H25344   1.613   8.781   9.555 -1.8808  0.7865  1.1421
  188MOL0     H25345   1.451   8.959   9.534  1.8387  0.0234  0.6482
  188MOL0     H25346   1.269   9.095   9.162 -2.0168  1.0247 -0.1874
  188MOL0     H25347   1.170   8.957   9.209 -0.8402 -0.0497 -0.8771
  188MOL0     H25348   1.044   9.175   9.225  1.4736 -0.8819 -0.2680
  188MOL0     H25349   1.072   9.107   9.386  0.7410  0.5780 -0.2845
  188MOL0     H25350   1.235   9.326   9.257 -1.1587 -1.1102 -1.1637
  188MOL0     H25351   1.261   9.271   9.419 -0.1019 -3.6704 -1.2326
  188MOL0     H25352   1.019   9.444   9.328  2.6110 -0.5282 -1.6216
  188MOL0     H25353   0.997   9.343   9.467 -1.1520 -0.0230  0.6343
  188MOL0     H25354   1.229   9.530   9.444  0.3871  1.0332  0.0091
  188MOL0     H25355   1.154   9.463   9.595  1.3886 -1.1172 -1.8153
  188MOL0     H25356   1.045   9.671   9.389  2.8032 -0.6614 -0.4589
  188MOL0     H25357   0.952   9.588   9.520  2.3839 -4.0682  1.2952
  188MOL0     H25358   1.126   9.681   9.679  2.4785 -1.5536 -1.5496
  188MOL0     H25359   0.995   9.790   9.619 -0.2283 -0.2202 -1.1413
  188MOL0     H25360   1.122   9.882   9.456 -1.7631 -3.7327 -1.0456
  188MOL0     H25361   1.271   9.787   9.500  2.6329  0.5811  4.1351
  188MOL0     H25362   1.347   8.819   9.135  3.8028 -3.4985 -1.6985
  188MOL0     H25363   1.521   8.670   9.145  0.8154  1.0864 -0.5136
  188MOL0     H25364   1.884   8.517   9.280  2.6138  0.8770 -1.4283
  188MOL0     H25365   2.058   8.355   9.247 -1.4346  0.4369 -1.2606
  188MOL0     H25366   1.700   8.297   9.078 -0.3060 -0.8414  1.0459
  188MOL0     H25367   1.520   8.429   9.188  1.1565  0.6683 -0.5920
  188MOL0     H25368   1.034   8.752   9.034  4.3638 -3.6893 -0.5998
  188MOL0     H25369   0.928   8.889   9.191 -0.0202  0.6246  1.7246
  188MOL0     H25370   0.963   8.822   9.645 -1.1379 -0.8279 -1.1508
  188MOL0     H25371   1.054   8.912   9.530  1.5951 -0.3047  2.2253
  188MOL0     H25372   0.887   9.103   9.527  0.6533  0.3313  0.6686
  188MOL0     H25373   0.949   9.076   9.687  0.0731 -0.3437  0.7887
  188MOL0     H25374   0.752   8.926   9.745 -2.1637  0.5106 -0.7215
  188MOL0     H25375   0.689   8.942   9.581  0.4139  1.7009 -0.4520
  188MOL0     H25376   0.692   9.142   9.803  2.1095  0.8668 -1.4770
  188MOL0     H25377   0.556   9.093   9.693  1.2018 -4.1395 -2.5899
  188MOL0     H25378   0.677   9.426   9.501 -4.1832  1.9617  1.9409
  188MOL0     H25379   1.063   8.633   9.507  4.0104  2.4316  0.6621
  188MOL0     H25380   1.185   8.503   9.351 -2.9595 -3.0140  2.0572
  189MOL0     O25381   4.153   0.002   0.303  0.9581  0.4512 -0.3839
  189MOL0     C25382   4.136  -0.088   0.384  0.7443  0.6306  0.4107
  189MOL0     O25383   4.056  -0.074   0.493 -0.0374  0.2931 -0.2071
  189MOL0     C25384   3.963   0.030   0.535  0.1897  0.4169 -0.2188
  189MOL0     C25385   3.909   0.140   0.460 -0.4700 -1.2130  0.5054
  189MOL0     C25386   3.833   0.246   0.517 -0.2515  1.5262 -0.2631
  189MOL0     C25387   3.806   0.231   0.653 -0.7041  0.8894 -0.9690
  189MOL0     O25388   3.734   0.319   0.722  0.8713  0.2938 -0.5040
  189MOL0     C25389   3.703   0.449   0.676  0.0417 -0.5341  0.8292
  189MOL0     C25390   3.641   0.530   0.792  1.0567  0.2787 -0.4577
  189MOL0     C25391   3.489   0.501   0.828 -0.6933  0.0684  0.5860
  189MOL0     C25392   3.453   0.609   0.930 -0.4241  0.3333 -0.0164
  189MOL0     C25393   3.338   0.561   1.017  0.4710  0.7173 -0.7690
  189MOL0     C25394   3.315   0.666   1.130 -1.0865  0.0126  0.3841
  189MOL0     C25395   3.187   0.607   1.200  0.2704 -0.2969  0.3932
  189MOL0     C25396   3.145   0.692   1.316  0.5796 -0.3101 -0.8331
  189MOL0     N25397   3.123   0.621   1.444  0.7246 -0.1464 -0.6411
  189MOL0     C25398   3.003   0.564   1.498  0.5017  0.0337 -0.7019
  189MOL0     C25399   3.031   0.519   1.623 -0.6065  0.2880  0.4731
  189MOL0     C25400   2.935   0.446   1.725  1.3929  1.7772 -0.8040
  189MOL0     C25401   2.999   0.454   1.863  0.5805 -1.1061 -0.6400
  189MOL0     C25402   2.899   0.390   1.967 -0.5023  0.1354  0.4608
  189MOL0     C25403   2.963   0.385   2.103  0.9698 -0.3724 -0.2289
  189MOL0     O25404   2.990   0.517   2.161  0.2061  0.5321 -1.2238
  189MOL0     C25405   2.882   0.587   2.201  1.2742  0.7423  0.3819
  189MOL0     C25406   2.763   0.533   2.253  0.4017 -0.2296  0.3899
  189MOL0     C25407   2.665   0.612   2.297  1.1150 -0.7016  0.1050
  189MOL0     C25408   2.550   0.533   2.372 -0.2686  0.0430  0.5935
  189MOL0     C25409   2.676   0.752   2.302 -1.0334 -0.6573 -0.6879
  189MOL0     C25410   2.573   0.847   2.350 -0.1969 -0.0010  0.0299
  189MOL0     O25411   2.575   0.978   2.313  0.0683 -0.6579 -0.3166
  189MOL0     C25412   2.549   1.083   2.392  0.0210  0.3577 -0.0546
  189MOL0     C25413   2.479   1.177   2.319 -0.0644 -0.3260  0.6589
  189MOL0     C25414   2.434   1.295   2.383 -0.3960 -0.2787  0.5084
  189MOL0     C25415   2.447   1.312   2.530  0.2114 -0.3474 -0.1351
  189MOL0     O25416   2.403   1.411   2.609  0.2428 -0.3906 -0.0872
  189MOL0     C25417   2.382   1.540   2.542  0.5165  0.2341 -1.5030
  189MOL0     C25418   2.394   1.663   2.647  0.4589  0.2806  0.6800
  189MOL0     C25419   2.521   1.656   2.717  0.3631 -0.5909 -0.1765
  189MOL0     C25420   2.549   1.795   2.780  0.6876  0.3302 -0.4582
  189MOL0     C25421   2.694   1.804   2.828 -0.2462 -0.7826  0.2090
  189MOL0     C25422   2.714   1.952   2.868  0.5801 -0.3084 -0.1854
  189MOL0     C25423   2.858   2.001   2.907 -0.2566  0.4246  0.1775
  189MOL0     C25424   2.920   1.907   3.013 -0.6851  1.4184  0.2139
  189MOL0    Cl25425   3.062   1.999   3.073  0.0665  0.0136 -0.0139
  189MOL0     C25426   2.501   1.205   2.603  0.4644 -0.3217 -0.1672
  189MOL0     C25427   2.560   1.095   2.534  0.4253 -0.7583  0.2713
  189MOL0     O25428   2.504   0.803   2.442 -0.0717  0.4211  0.0891
  189MOL0     C25429   2.797   0.808   2.251  1.0001 -0.3413  1.2128
  189MOL0     C25430   2.890   0.722   2.202  0.1879  0.2442 -0.0203
  189MOL0     N25431   3.169   0.526   1.641  0.3480 -0.6290  0.5159
  189MOL0     N25432   3.216   0.584   1.536  0.0424  0.8091  0.2078
  189MOL0     C25433   3.851   0.127   0.722 -0.4012  0.8546  0.0287
  189MOL0     C25434   3.934   0.025   0.666  0.8952 -0.3426 -0.3374
  189MOL0     C25435   4.199  -0.226   0.369  0.0220 -0.6359  0.1294
  189MOL0     C25436   4.308  -0.233   0.286 -0.4530 -0.0683  0.9033
  189MOL0     C25437   4.375  -0.356   0.269 -0.8748 -0.4353 -0.1396
  189MOL0     C25438   4.323  -0.472   0.325  0.0110  0.0221  0.0419
  189MOL0     O25439   4.395  -0.589   0.299  0.3707 -0.1527  0.4326
  189MOL0     C25440   4.348  -0.711   0.338  0.1911  0.3008 -0.0007
  189MOL0     C25441   4.256  -0.761   0.225 -0.2293 -0.5117 -0.2336
  189MOL0     C25442   4.252  -0.909   0.228  0.1980  0.7870  1.1522
  189MOL0     C25443   4.118  -0.959   0.155  0.4650  0.3692 -0.0220
  189MOL0     C25444   4.100  -0.906   0.019  0.1233 -0.6569  0.7972
  189MOL0     C25445   4.104  -0.856  -0.092 -0.2059 -0.3934 -1.7549
  189MOL0     C25446   4.194  -0.467   0.389 -0.1062 -0.7876  0.1339
  189MOL0     C25447   4.140  -0.340   0.420  0.1859 -0.9197  0.7587
  189MOL0     H25448   3.934   0.141   0.354  0.9981  0.7604  0.8131
  189MOL0     H25449   3.782   0.318   0.453 -2.2737  2.2492  1.9864
  189MOL0     H25450   3.785   0.508   0.633 -0.5557 -1.2698 -1.4861
  189MOL0     H25451   3.637   0.442   0.589 -0.0848 -0.8602  0.9536
  189MOL0     H25452   3.698   0.512   0.884  0.8642  2.4529  0.1602
  189MOL0     H25453   3.651   0.637   0.771 -0.9205  0.5198 -0.3503
  189MOL0     H25454   3.441   0.518   0.731  2.0273 -2.0292 -1.2821
  189MOL0     H25455   3.472   0.396   0.854 -1.7541  0.4420  1.5309
  189MOL0     H25456   3.544   0.615   0.991  0.6754 -2.8638 -1.1514
  189MOL0     H25457   3.426   0.705   0.884  1.3523 -0.0294 -1.9871
  189MOL0     H25458   3.248   0.538   0.959 -0.6669  1.2785  0.7095
  189MOL0     H25459   3.373   0.475   1.074 -0.6292  0.7422 -0.0165
  189MOL0     H25460   3.400   0.688   1.195 -1.0698  3.0125 -0.5033
  189MOL0     H25461   3.288   0.762   1.085 -0.6813  0.0209  0.1604
  189MOL0     H25462   3.101   0.611   1.133 -1.2569  3.1659  2.2811
  189MOL0     H25463   3.210   0.508   1.239 -3.7847 -1.6994 -0.2609
  189MOL0     H25464   3.055   0.746   1.284  1.3077  0.5211 -1.5255
  189MOL0     H25465   3.219   0.771   1.329 -0.9675  0.9495  0.9268
  189MOL0     H25466   2.899   0.560   1.466 -0.4010  3.0242  1.3922
  189MOL0     H25467   2.839   0.499   1.721 -0.9492 -2.0484 -0.3728
  189MOL0     H25468   2.920   0.341   1.701  0.2295  2.2285 -2.2121
  189MOL0     H25469   3.011   0.560   1.885 -0.3469 -1.1953  0.4142
  189MOL0     H25470   3.095   0.402   1.878 -0.2688 -2.1495  1.6889
  189MOL0     H25471   2.881   0.286   1.936 -0.2577  0.4742 -0.8951
  189MOL0     H25472   2.804   0.445   1.966 -0.1440  0.8332 -1.9368
  189MOL0     H25473   3.060   0.336   2.089  1.6492  1.0282 -0.6865
  189MOL0     H25474   2.918   0.314   2.172  1.0949 -0.5095 -0.2877
  189MOL0     H25475   2.758   0.427   2.273  0.7775 -0.0853  1.2909
  189MOL0     H25476   2.576   0.427   2.383 -0.9214 -0.2416 -0.4320
  189MOL0     H25477   2.529   0.571   2.472 -1.6188  3.0349 -0.7163
  189MOL0     H25478   2.458   0.532   2.312 -1.0847 -3.8031  1.6372
  189MOL0     H25479   2.465   1.158   2.213 -0.4448  0.8930  0.4756
  189MOL0     H25480   2.388   1.370   2.320 -1.0507 -1.1325 -0.0435
  189MOL0     H25481   2.456   1.558   2.465  0.2318 -0.2898 -1.9092
  189MOL0     H25482   2.288   1.549   2.486  0.2577 -0.3770 -1.1873
  189MOL0     H25483   2.374   1.755   2.591 -2.9809 -0.4739  0.4877
  189MOL0     H25484   2.310   1.644   2.714 -1.0788  2.2838 -0.5629
  189MOL0     H25485   2.601   1.632   2.647 -1.1288 -0.0910 -2.1237
  189MOL0     H25486   2.516   1.585   2.800 -2.8389  0.2524  0.4941
  189MOL0     H25487   2.532   1.882   2.715 -1.2293 -0.1411 -0.6533
  189MOL0     H25488   2.492   1.820   2.870 -0.7980  0.8873 -1.5220
  189MOL0     H25489   2.771   1.779   2.755  1.9071  3.0047  0.9191
  189MOL0     H25490   2.708   1.743   2.917 -2.3897 -4.7951 -1.9017
  189MOL0     H25491   2.665   2.021   2.800 -1.2393 -0.2982  1.0569
  189MOL0     H25492   2.655   1.949   2.961 -1.1034  1.7351 -1.1103
  189MOL0     H25493   2.859   2.105   2.942  3.5833  1.3438 -2.1048
  189MOL0     H25494   2.920   1.999   2.817  2.4808  0.6803  1.9391
  189MOL0     H25495   2.950   1.812   2.967  3.5542  2.7018 -0.0883
  189MOL0     H25496   2.851   1.883   3.095  2.0004  2.0186  2.8255
  189MOL0     H25497   2.505   1.219   2.710 -2.2396 -0.7347  0.0561
  189MOL0     H25498   2.631   1.030   2.585 -1.3438 -2.6554  0.4605
  189MOL0     H25499   2.799   0.915   2.236 -0.7550 -0.6784 -2.5782
  189MOL0     H25500   2.983   0.765   2.164  0.2971 -0.7803 -0.9656
  189MOL0     H25501   3.832   0.118   0.829 -1.1776 -0.0563 -0.1804
  189MOL0     H25502   3.986  -0.054   0.719  1.3582  0.9329  1.1502
  189MOL0     H25503   4.346  -0.145   0.234 -3.3209 -0.6898 -2.6710
  189MOL0     H25504   4.460  -0.369   0.202  1.2878  1.6105  2.0138
  189MOL0     H25505   4.431  -0.782   0.344  2.8788  2.8525 -2.8885
  189MOL0     H25506   4.294  -0.724   0.432  1.2215  0.9020  0.7072
  189MOL0     H25507   4.301  -0.724   0.132  1.5076 -1.8279  0.0261
  189MOL0     H25508   4.160  -0.708   0.227  0.1398  0.2092 -0.8907
  189MOL0     H25509   4.258  -0.947   0.330  0.7798 -0.0269  0.8252
  189MOL0     H25510   4.330  -0.960   0.172 -0.8447 -1.8322  1.9278
  189MOL0     H25511   4.032  -0.935   0.219  0.6117 -0.7736  0.6340
  189MOL0     H25512   4.128  -1.068   0.158 -0.1429  0.3272  0.9816
  189MOL0     H25513   4.107  -0.819  -0.193 -0.2776  2.4168 -0.8331
  189MOL0     H25514   4.146  -0.543   0.450  0.5720 -0.0006  1.6846
  189MOL0     H25515   4.055  -0.327   0.487  0.6409 -0.9013  1.3438
  190MOL0     O25516   9.020   5.816   9.900 -0.0286 -0.7397  0.0773
  190MOL0     C25517   9.078   5.900   9.830  1.0205 -1.2285  0.5978
  190MOL0     O25518   9.021   6.016   9.784  0.0949  0.0717  0.3066
  190MOL0     C25519   8.889   6.046   9.802 -0.1574  0.6933 -0.1733
  190MOL0     C25520   8.780   5.944   9.808 -0.2640 -0.7786 -0.0345
  190MOL0     C25521   8.649   5.991   9.820  0.4265  0.6279  0.0389
  190MOL0     C25522   8.621   6.124   9.810 -0.1642  0.4566  0.2186
  190MOL0     O25523   8.483   6.151   9.811 -0.5439  0.0147  0.3080
  190MOL0     C25524   8.440   6.191   9.686 -0.2540  0.2410 -0.0607
  190MOL0     C25525   8.295   6.166   9.683  0.4711  0.2771  0.5671
  190MOL0     C25526   8.279   6.018   9.709 -0.4449  0.1005  0.5374
  190MOL0     C25527   8.134   5.979   9.704  0.2697  0.1461  0.0506
  190MOL0     C25528   8.101   5.827   9.727 -0.6490  0.5278  0.0064
  190MOL0     C25529   7.959   5.781   9.770 -0.4770 -0.1040 -0.3473
  190MOL0     C25530   7.884   5.841   9.889 -0.4634  0.1060  0.1193
  190MOL0     C25531   7.965   5.863  10.025 -0.4147 -0.4061  0.4956
  190MOL0     N25532   7.976   5.751  10.118 -0.0172  0.1507 -0.7647
  190MOL0     C25533   7.943   5.745  10.255  0.4695 -0.1215 -0.0857
  190MOL0     C25534   7.988   5.628  10.296 -0.1842 -0.3530 -0.2981
  190MOL0     C25535   7.963   5.589  10.452 -0.5888  0.1177  0.5650
  190MOL0     C25536   8.086   5.499  10.497 -0.6425  0.2548  0.3848
  190MOL0     C25537   8.062   5.449  10.638 -0.6164  0.6722 -0.3945
  190MOL0     C25538   8.104   5.545  10.751  0.2553  0.0223  0.6145
  190MOL0     O25539   7.999   5.640  10.760 -0.4480 -0.3319  1.4443
  190MOL0     C25540   8.019   5.772  10.793 -0.2288  0.3708 -0.3426
  190MOL0     C25541   7.967   5.823  10.911  1.0552  0.8341 -0.2802
  190MOL0     C25542   7.959   5.955  10.938 -0.6072 -1.5736  1.0280
  190MOL0     C25543   7.877   6.006  11.061  0.1073 -0.1629  0.6149
  190MOL0     C25544   8.031   6.044  10.856  0.1207 -0.4896  0.3133
  190MOL0     C25545   8.024   6.191  10.875  0.7315 -0.3377 -0.6669
  190MOL0     O25546   8.142   6.246  10.913 -0.1616 -0.4213 -0.9841
  190MOL0     C25547   8.164   6.380  10.876  1.4754  0.9523 -0.4294
  190MOL0     C25548   8.185   6.471  10.976 -0.1501  0.5163  0.0289
  190MOL0     C25549   8.192   6.610  10.943  0.1150 -0.6538 -0.0524
  190MOL0     C25550   8.192   6.650  10.808 -0.3491 -0.0740  0.0591
  190MOL0     O25551   8.221   6.773  10.769  1.0949  0.0723  0.5920
  190MOL0     C25552   8.138   6.872  10.824  0.5719 -0.0846 -0.1884
  190MOL0     C25553   8.166   6.990  10.730 -0.2909  0.2581 -0.3685
  190MOL0     C25554   8.078   7.120  10.751  0.4993 -0.4062 -0.0111
  190MOL0     C25555   7.923   7.104  10.762 -1.3430 -0.3417  0.6472
  190MOL0     C25556   7.852   7.064  10.633  0.1765  0.5142 -0.4707
  190MOL0     C25557   7.893   7.145  10.515  0.1383  0.1735  0.3237
  190MOL0     C25558   7.799   7.136  10.398  0.6481 -0.0989  0.2731
  190MOL0     C25559   7.853   7.193  10.275 -0.6199 -0.4055  0.0297
  190MOL0    Cl25560   7.975   7.079  10.226 -0.3743  0.0699  0.0830
  190MOL0     C25561   8.180   6.555  10.707  0.4376 -0.4878 -0.2606
  190MOL0     C25562   8.156   6.425  10.741 -0.2037  0.7137 -0.7150
  190MOL0     O25563   7.925   6.255  10.838  0.1759 -0.4365 -0.7910
  190MOL0     C25564   8.108   5.994  10.754 -0.2980 -0.1538  0.1058
  190MOL0     C25565   8.101   5.860  10.723 -0.6377  0.4482  0.5104
  190MOL0     N25566   8.032   5.557  10.179  0.9602 -0.1070  0.2974
  190MOL0     N25567   8.018   5.628  10.080  0.0892 -0.6298  1.2641
  190MOL0     C25568   8.726   6.219   9.799  0.6937  0.2206  0.9575
  190MOL0     C25569   8.861   6.181   9.801  0.6240  0.2692  0.1346
  190MOL0     C25570   9.223   5.886   9.822  0.4163  0.3810  0.4910
  190MOL0     C25571   9.305   5.997   9.792  0.7839  0.0471  0.3654
  190MOL0     C25572   9.440   5.975   9.757  0.1873  1.3098  0.3077
  190MOL0     C25573   9.497   5.849   9.774  0.0308  0.6511 -1.0075
  190MOL0     O25574   9.625   5.818   9.748  0.1268 -0.9843 -0.1003
  190MOL0     C25575   9.692   5.896   9.642 -0.1663 -0.5290  0.4342
  190MOL0     C25576   9.735   5.789   9.549  0.0974 -0.5007 -0.4464
  190MOL0     C25577   9.842   5.837   9.450 -0.3692 -0.6905  1.2842
  190MOL0     C25578   9.769   5.873   9.326  1.2719 -0.1467  0.3782
  190MOL0     C25579   9.678   5.985   9.325  1.5342  0.0512  0.4377
  190MOL0     C25580   9.596   6.075   9.341  0.2467 -0.7816 -0.6087
  190MOL0     C25581   9.420   5.736   9.810 -0.6575  0.0046 -1.0794
  190MOL0     C25582   9.283   5.753   9.823 -0.3777  0.0864 -0.0753
  190MOL0     H25583   8.807   5.839   9.809  0.6476 -0.5779 -1.4246
  190MOL0     H25584   8.566   5.924   9.842  0.8853 -0.6356 -1.8465
  190MOL0     H25585   8.470   6.296   9.675 -0.8112  0.1929 -3.0990
  190MOL0     H25586   8.493   6.129   9.613 -0.1959  0.9956 -0.6875
  190MOL0     H25587   8.254   6.233   9.759 -2.0567 -0.0495 -0.3992
  190MOL0     H25588   8.254   6.190   9.584  1.2406 -2.5681 -0.5323
  190MOL0     H25589   8.342   5.959   9.642 -2.2926 -3.2623  1.5417
  190MOL0     H25590   8.309   6.000   9.812  2.3439 -0.4154 -0.3004
  190MOL0     H25591   8.073   6.044   9.768 -1.3381  0.9632 -2.2106
  190MOL0     H25592   8.099   5.994   9.602 -0.7252  0.6847  0.4610
  190MOL0     H25593   8.112   5.786   9.626  2.0816 -0.5373  0.6331
  190MOL0     H25594   8.166   5.770   9.794  1.0689 -0.1887 -2.1485
  190MOL0     H25595   7.889   5.803   9.689  0.0625  1.8514 -0.3338
  190MOL0     H25596   7.957   5.673   9.788 -0.8190  0.3344  2.8934
  190MOL0     H25597   7.827   5.931   9.864 -1.9529 -1.2577 -1.5963
  190MOL0     H25598   7.811   5.761   9.898 -0.1598 -0.3047 -0.9994
  190MOL0     H25599   7.906   5.942  10.073 -3.0726 -0.7363 -1.9365
  190MOL0     H25600   8.063   5.908  10.004 -2.0283  2.4401 -1.6083
  190MOL0     H25601   7.902   5.821  10.321 -1.4901  0.8079 -2.2249
  190MOL0     H25602   7.954   5.679  10.514 -3.1122 -2.2982  4.1498
  190MOL0     H25603   7.862   5.550  10.467 -0.3607  0.0912  2.1991
  190MOL0     H25604   8.183   5.549  10.489 -0.1143 -0.6762  0.8713
  190MOL0     H25605   8.102   5.427  10.417  1.6912  1.3287 -0.2070
  190MOL0     H25606   8.124   5.360  10.651 -2.6192 -0.7450  0.0790
  190MOL0     H25607   7.959   5.414  10.652 -0.4065  0.4805  0.8257
  190MOL0     H25608   8.201   5.592  10.733  0.4119 -0.5980 -0.2054
  190MOL0     H25609   8.098   5.491  10.846 -0.1702 -0.3563  0.3803
  190MOL0     H25610   7.933   5.757  10.990  0.4654  1.9210  0.3941
  190MOL0     H25611   7.843   5.923  11.125 -0.0064 -2.3789 -2.1201
  190MOL0     H25612   7.936   6.058  11.136  2.3315 -1.3808 -0.1934
  190MOL0     H25613   7.788   6.055  11.021 -0.5556 -0.5237  1.6027
  190MOL0     H25614   8.218   6.451  11.078  0.2243 -0.3845 -0.2536
  190MOL0     H25615   8.202   6.681  11.025  1.2389 -0.9265  0.0627
  190MOL0     H25616   8.034   6.842  10.838 -0.2768  1.9834 -1.5996
  190MOL0     H25617   8.179   6.905  10.921 -0.4596 -1.2302  0.6600
  190MOL0     H25618   8.268   7.029  10.739  0.0743 -0.5438 -0.9714
  190MOL0     H25619   8.157   6.959  10.626  0.7917  0.0045 -0.3929
  190MOL0     H25620   8.095   7.190  10.669  1.2371 -1.4379 -0.7747
  190MOL0     H25621   8.123   7.167  10.838  1.3899  0.2172 -0.7862
  190MOL0     H25622   7.909   7.033  10.844  0.2182 -1.6486 -0.1832
  190MOL0     H25623   7.893   7.205  10.793 -2.6561 -1.0916  2.0047
  190MOL0     H25624   7.747   7.080  10.659  0.7314  0.6536  2.0073
  190MOL0     H25625   7.855   6.958  10.608  0.3348  0.5899 -0.7728
  190MOL0     H25626   7.897   7.248  10.552  0.7536  0.2839 -0.0424
  190MOL0     H25627   7.996   7.119  10.488  1.4057  3.1512  1.8096
  190MOL0     H25628   7.714   7.193  10.436  0.3791 -0.7099  0.6060
  190MOL0     H25629   7.773   7.034  10.369  1.2596 -1.2107  3.2692
  190MOL0     H25630   7.892   7.293  10.297 -3.7015  1.3682 -1.9478
  190MOL0     H25631   7.786   7.214  10.192 -0.9677  2.1980  0.8802
  190MOL0     H25632   8.175   6.588  10.604  1.8992 -0.1148 -0.2299
  190MOL0     H25633   8.142   6.353  10.661 -0.0737 -0.4962  0.3054
  190MOL0     H25634   8.162   6.057  10.683 -0.1490 -0.9332 -0.4941
  190MOL0     H25635   8.165   5.813  10.649 -2.1434 -3.0911  1.2762
  190MOL0     H25636   8.695   6.322   9.790 -1.4180 -0.2148  2.3802
  190MOL0     H25637   8.938   6.256   9.791 -0.3443  1.2652 -0.0581
  190MOL0     H25638   9.255   6.094   9.788  0.3349 -0.1544  0.9707
  190MOL0     H25639   9.490   6.070   9.739  0.6878  1.1306  0.7264
  190MOL0     H25640   9.625   5.974   9.603 -0.1767  0.6956  2.7048
  190MOL0     H25641   9.769   5.956   9.691 -0.1596 -1.4037  1.5196
  190MOL0     H25642   9.645   5.744   9.507 -0.5040 -0.4825  0.7668
  190MOL0     H25643   9.782   5.719   9.618 -0.8358  0.0551  0.8178
  190MOL0     H25644   9.897   5.746   9.425  3.0705  1.7010 -0.7432
  190MOL0     H25645   9.906   5.913   9.495 -2.2636  0.9860  1.3283
  190MOL0     H25646   9.713   5.784   9.296 -0.7652  0.8903  0.9384
  190MOL0     H25647   9.846   5.911   9.258  0.4513 -1.6836 -1.5326
  190MOL0     H25648   9.525   6.153   9.357 -0.7272 -2.0904  2.0455
  190MOL0     H25649   9.478   5.644   9.802  0.6610  0.8672 -1.7540
  190MOL0     H25650   9.223   5.663   9.819  0.1449 -0.2247 -2.5052
  191MOL0     O25651   6.523   3.516   5.490 -0.8621 -0.2118  0.3671
  191MOL0     C25652   6.610   3.593   5.456  1.6760 -0.4872 -0.6593
  191MOL0     O25653   6.580   3.709   5.394 -0.7120 -0.4388  1.4589
  191MOL0     C25654   6.449   3.749   5.407 -0.1702  0.1397 -1.0324
  191MOL0     C25655   6.412   3.783   5.535 -0.3678 -0.1530  0.8945
  191MOL0     C25656   6.284   3.823   5.562 -0.3430 -0.2986 -0.2687
  191MOL0     C25657   6.185   3.838   5.459  0.3341  0.3712  0.9664
  191MOL0     O25658   6.051   3.867   5.476 -0.2765  0.3567 -0.1853
  191MOL0     C25659   5.997   3.923   5.591 -1.1062  0.7825  0.0589
  191MOL0     C25660   5.843   3.940   5.572 -0.2368  0.2105  0.2321
  191MOL0     C25661   5.758   3.827   5.512 -0.4002 -0.3569  0.1907
  191MOL0     C25662   5.620   3.898   5.501  0.4069 -0.0430  0.5458
  191MOL0     C25663   5.552   3.864   5.372 -0.1828  0.6091  0.3436
  191MOL0     C25664   5.589   3.954   5.257 -0.0892 -0.2867 -0.2750
  191MOL0     C25665   5.483   3.949   5.144 -0.2253 -0.0020 -0.4292
  191MOL0     C25666   5.505   3.831   5.052 -0.3627  0.6606 -0.0421
  191MOL0     N25667   5.436   3.836   4.924  0.8280  0.8960  0.2596
  191MOL0     C25668   5.443   3.949   4.852 -0.0402  0.2408  0.8599
  191MOL0     C25669   5.341   3.942   4.768 -0.3549  0.0662 -0.1237
  191MOL0     C25670   5.307   4.051   4.678  0.1385 -0.5649 -0.0929
  191MOL0     C25671   5.251   4.177   4.745  0.1688 -0.3541 -0.1824
  191MOL0     C25672   5.199   4.278   4.645 -0.5194 -0.5055 -0.4121
  191MOL0     C25673   5.308   4.359   4.584 -0.4007  0.5810  0.1057
  191MOL0     O25674   5.255   4.447   4.476  0.0346 -0.2627  0.1276
  191MOL0     C25675   5.312   4.567   4.443  0.5247  0.5432  0.2823
  191MOL0     C25676   5.425   4.632   4.495 -0.9750 -0.3727  0.7508
  191MOL0     C25677   5.482   4.739   4.423 -1.1322 -0.8273  0.0051
  191MOL0     C25678   5.619   4.785   4.481  1.5006 -0.4098 -0.9243
  191MOL0     C25679   5.418   4.796   4.308 -0.3269 -0.3854 -0.4734
  191MOL0     C25680   5.465   4.913   4.232 -1.4087 -0.6244  0.1608
  191MOL0     O25681   5.370   4.995   4.175  0.1383 -0.0914 -0.1779
  191MOL0     C25682   5.380   5.012   4.041 -0.4771  0.2676 -0.6619
  191MOL0     C25683   5.448   4.937   3.935  0.0261  0.2889 -1.0329
  191MOL0     C25684   5.451   4.985   3.801 -0.1898 -0.2806 -0.5428
  191MOL0     C25685   5.380   5.102   3.774 -0.4708  0.9045 -0.1137
  191MOL0     O25686   5.369   5.152   3.649 -0.0498  0.0686 -0.0476
  191MOL0     C25687   5.453   5.119   3.533  0.3267  0.1118 -0.0137
  191MOL0     C25688   5.417   5.222   3.413 -0.1436 -0.6960  0.3972
  191MOL0     C25689   5.477   5.171   3.285 -0.3819 -0.2517  1.7212
  191MOL0     C25690   5.457   5.266   3.162  0.4258 -0.2275  0.5835
  191MOL0     C25691   5.534   5.220   3.037 -0.0814 -1.0850  0.9980
  191MOL0     C25692   5.453   5.103   2.962 -1.1065 -0.6655 -0.9445
  191MOL0     C25693   5.530   5.039   2.844 -0.6550 -0.0023 -0.1306
  191MOL0     C25694   5.555   5.130   2.720  0.0667 -0.1015 -0.0301
  191MOL0    Cl25695   5.670   5.265   2.747 -0.1199 -0.2277 -0.1706
  191MOL0     C25696   5.323   5.177   3.874  0.0689 -0.0547 -0.0884
  191MOL0     C25697   5.323   5.131   4.003 -0.1767 -0.0222 -0.3578
  191MOL0     O25698   5.591   4.928   4.219 -0.0204 -0.9954 -0.2830
  191MOL0     C25699   5.289   4.742   4.277 -0.3376 -0.2895  0.6166
  191MOL0     C25700   5.246   4.630   4.339  0.5428  1.1081  0.1851
  191MOL0     N25701   5.271   3.821   4.783 -0.0194  0.8824 -0.0095
  191MOL0     N25702   5.328   3.765   4.880 -0.3364  0.1179 -0.0701
  191MOL0     C25703   6.228   3.808   5.337 -0.5554 -0.5466  1.1990
  191MOL0     C25704   6.357   3.770   5.306  0.1490  0.3182  0.5043
  191MOL0     C25705   6.747   3.578   5.506 -0.5621 -0.4650  0.9464
  191MOL0     C25706   6.828   3.694   5.482 -1.1074 -0.1317  0.9411
  191MOL0     C25707   6.960   3.695   5.539  0.3559  0.1168  1.0568
  191MOL0     C25708   7.004   3.586   5.608  0.7072  0.7544  0.0328
  191MOL0     O25709   7.128   3.572   5.651  0.1412  1.0015 -0.1387
  191MOL0     C25710   7.229   3.662   5.598  1.1043 -0.0236 -0.0790
  191MOL0     C25711   7.362   3.608   5.630  0.0864  0.1055 -1.0911
  191MOL0     C25712   7.418   3.618   5.777  0.1526 -0.5442  0.7932
  191MOL0     C25713   7.561   3.564   5.788 -0.5948  0.7925 -0.5977
  191MOL0     C25714   7.607   3.557   5.928  0.0613 -0.4823 -0.6833
  191MOL0     C25715   7.663   3.538   6.037 -0.4866  0.1591  0.7017
  191MOL0     C25716   6.919   3.482   5.638  0.8304 -0.0504 -0.0073
  191MOL0     C25717   6.790   3.473   5.585 -0.2021 -0.3108 -0.5543
  191MOL0     H25718   6.503   3.773   5.594  0.6626  0.5116 -0.5049
  191MOL0     H25719   6.263   3.855   5.664 -0.3248  1.0787 -0.6774
  191MOL0     H25720   5.994   3.848   5.671  1.4321 -0.4243 -0.8651
  191MOL0     H25721   6.045   4.010   5.636  0.0264  0.3364 -0.2643
  191MOL0     H25722   5.799   3.964   5.670  2.3140 -0.6789  1.6913
  191MOL0     H25723   5.845   4.026   5.505  0.2061  1.2271  1.5115
  191MOL0     H25724   5.788   3.767   5.425 -0.0522 -2.8064  1.8803
  191MOL0     H25725   5.758   3.743   5.582 -0.2113 -0.7002 -0.2180
  191MOL0     H25726   5.557   3.855   5.580  2.0039  0.3686  2.1142
  191MOL0     H25727   5.624   4.005   5.521 -0.4371  0.0297  0.3736
  191MOL0     H25728   5.568   3.760   5.343 -0.0263  0.9105 -0.6968
  191MOL0     H25729   5.444   3.867   5.388 -0.5351 -2.7513 -0.6420
  191MOL0     H25730   5.595   4.058   5.291 -0.4801 -0.4244  0.2319
  191MOL0     H25731   5.695   3.942   5.231  0.6119  3.8309 -0.0270
  191MOL0     H25732   5.380   3.933   5.179 -0.2217  0.8202 -0.0133
  191MOL0     H25733   5.478   4.049   5.102 -3.0919  0.5596  1.0157
  191MOL0     H25734   5.478   3.744   5.113  1.1093  0.4558  0.3431
  191MOL0     H25735   5.614   3.831   5.041 -0.1404  2.9933  1.3088
  191MOL0     H25736   5.499   4.042   4.853 -3.1215  2.4175 -2.7616
  191MOL0     H25737   5.403   4.082   4.637  0.3762  0.7837  1.4209
  191MOL0     H25738   5.237   4.013   4.602 -1.3634 -0.7040  1.3023
  191MOL0     H25739   5.313   4.225   4.820  1.2208 -2.2222  0.2169
  191MOL0     H25740   5.162   4.133   4.791  0.5678  0.4207  1.3960
  191MOL0     H25741   5.126   4.346   4.691 -3.1584 -1.2033 -3.2066
  191MOL0     H25742   5.138   4.233   4.566 -2.2450  3.4395 -1.6215
  191MOL0     H25743   5.381   4.289   4.542  0.8579  3.0435 -2.1230
  191MOL0     H25744   5.363   4.406   4.666 -1.6055  1.6466  0.3357
  191MOL0     H25745   5.485   4.592   4.576  3.6531 -1.7747 -2.8907
  191MOL0     H25746   5.646   4.886   4.447  0.0764  0.3711  0.1433
  191MOL0     H25747   5.607   4.801   4.589 -1.3549  0.8624 -1.3582
  191MOL0     H25748   5.696   4.712   4.453  1.6085  0.1751 -2.2375
  191MOL0     H25749   5.511   4.854   3.965 -0.1303  0.8449  1.0385
  191MOL0     H25750   5.518   4.941   3.728 -0.0739 -2.1237  0.5998
  191MOL0     H25751   5.561   5.134   3.543  0.7770 -2.1356 -0.7508
  191MOL0     H25752   5.443   5.013   3.507  3.2036 -0.8481  2.1851
  191MOL0     H25753   5.311   5.250   3.417  0.2797  0.9425  0.5301
  191MOL0     H25754   5.476   5.309   3.441 -0.9776 -0.3237  1.0592
  191MOL0     H25755   5.427   5.078   3.257 -0.7493  0.6652 -0.9538
  191MOL0     H25756   5.580   5.135   3.293 -1.1318 -3.1282 -0.0641
  191MOL0     H25757   5.357   5.282   3.121  0.7325 -2.8276 -1.4932
  191MOL0     H25758   5.499   5.361   3.194  2.0582 -1.2751  1.7039
  191MOL0     H25759   5.632   5.177   3.063  0.5184 -1.5549 -1.6867
  191MOL0     H25760   5.553   5.305   2.970  0.8208  0.0377  2.6196
  191MOL0     H25761   5.458   5.022   3.035 -0.3498  0.7403  0.6277
  191MOL0     H25762   5.349   5.126   2.936 -0.3964  0.3172 -3.1820
  191MOL0     H25763   5.472   4.957   2.802  0.4198  0.1422 -1.9895
  191MOL0     H25764   5.624   4.998   2.880 -0.5095  0.8780  0.5373
  191MOL0     H25765   5.463   5.183   2.693  2.5392  3.9761 -1.3966
  191MOL0     H25766   5.589   5.071   2.633 -2.4040  0.0513 -1.1717
  191MOL0     H25767   5.279   5.276   3.868  0.7584  0.3044  0.5459
  191MOL0     H25768   5.281   5.190   4.084 -0.0027  0.1025 -0.3580
  191MOL0     H25769   5.221   4.778   4.200  0.7949  1.8030  0.5181
  191MOL0     H25770   5.143   4.600   4.320  0.9784  1.3011 -3.0657
  191MOL0     H25771   6.158   3.793   5.255 -0.1024 -1.9248  1.0372
  191MOL0     H25772   6.365   3.729   5.206  2.3953  2.5803 -0.3452
  191MOL0     H25773   6.794   3.782   5.429 -1.0867 -0.0488  1.0652
  191MOL0     H25774   7.016   3.787   5.523  4.0598 -1.8361  1.5050
  191MOL0     H25775   7.206   3.651   5.491 -1.4400  1.4015  0.2538
  191MOL0     H25776   7.214   3.767   5.622  0.5409  0.0702 -0.8110
  191MOL0     H25777   7.438   3.659   5.570  1.5769  2.1047  2.2467
  191MOL0     H25778   7.359   3.500   5.613 -3.1480 -0.3339  1.2827
  191MOL0     H25779   7.358   3.565   5.851  3.7160 -2.2967  2.6896
  191MOL0     H25780   7.414   3.726   5.797 -0.9685 -0.8951  2.7284
  191MOL0     H25781   7.630   3.633   5.738  2.1050 -2.2428 -1.4203
  191MOL0     H25782   7.575   3.464   5.746 -1.4374  0.3495  0.1331
  191MOL0     H25783   7.720   3.524   6.127 -0.4487 -0.0661  0.6422
  191MOL0     H25784   6.941   3.388   5.686  0.2651  0.0221  0.4136
  191MOL0     H25785   6.729   3.392   5.624  1.1025  0.0579  2.4862
  192MOL0     O25786  11.038  10.174   8.390  0.8331 -0.2294  1.1818
  192MOL0     C25787  11.078  10.282   8.436 -0.2946 -0.2989  0.6957
  192MOL0     O25788  11.184  10.353   8.378  0.5282  0.1599 -0.4019
  192MOL0     C25789  11.232  10.298   8.266 -1.0762 -0.2595 -0.1189
  192MOL0     C25790  11.182  10.322   8.136 -0.3525 -0.3309  0.2877
  192MOL0     C25791  11.237  10.272   8.021 -1.7486  0.4723 -0.0478
  192MOL0     C25792  11.365  10.211   8.039 -0.0709  0.2582  0.7333
  192MOL0     O25793  11.423  10.165   7.920  0.0575  0.3033 -1.1364
  192MOL0     C25794  11.556  10.224   7.909 -0.3831 -0.2375  0.3530
  192MOL0     C25795  11.618  10.206   7.771  0.1771 -0.3745  0.5582
  192MOL0     C25796  11.530  10.258   7.654 -0.4876 -1.1567 -0.1347
  192MOL0     C25797  11.587  10.239   7.513  0.2964  1.7522  0.4964
  192MOL0     C25798  11.506  10.319   7.416 -0.1004  0.6560 -0.5351
  192MOL0     C25799  11.555  10.313   7.274  1.4557 -0.4068  0.2917
  192MOL0     C25800  11.697  10.377   7.250  0.1046  0.0819 -0.4664
  192MOL0     C25801  11.746  10.482   7.344 -0.1092  0.4903  0.0712
  192MOL0     N25802  11.872  10.541   7.295 -0.4177 -0.1778 -0.2744
  192MOL0     C25803  11.999  10.488   7.331  0.8705 -0.1710 -1.2249
  192MOL0     C25804  12.089  10.557   7.266 -0.1697  0.1525  0.3165
  192MOL0     C25805  12.240  10.542   7.275  0.3490 -0.3088  0.1836
  192MOL0     C25806  12.309  10.439   7.188  0.3600  0.5350 -0.2874
  192MOL0     C25807  12.464  10.446   7.171  0.4303  0.6222  0.3724
  192MOL0     C25808  12.539  10.465   7.311  0.3926 -0.4264 -0.6789
  192MOL0     O25809  12.510  10.357   7.402  0.1342 -0.2419 -0.1672
  192MOL0     C25810  12.574  10.236   7.376  0.9538  0.0011 -0.2513
  192MOL0     C25811  12.707  10.216   7.345  0.7698  0.1751  0.0352
  192MOL0     C25812  12.767  10.092   7.332 -0.7655 -1.6527 -0.8570
  192MOL0     C25813  12.904  10.085   7.288  0.1186  1.2091  0.4154
  192MOL0     C25814  12.688   9.978   7.341 -0.9245  0.0475  0.3548
  192MOL0     C25815  12.732   9.836   7.319  0.3673  0.2728  0.0323
  192MOL0     O25816  12.834   9.815   7.228  0.9792 -0.0615  0.0262
  192MOL0     C25817  12.873   9.685   7.202 -0.3932 -0.3913  0.3624
  192MOL0     C25818  12.795   9.598   7.116 -0.3406 -1.3908  0.7153
  192MOL0     C25819  12.841   9.469   7.107  0.8955  0.4613  0.5289
  192MOL0     C25820  12.959   9.416   7.160  0.4067  0.4708  0.0344
  192MOL0     O25821  13.006   9.291   7.150 -0.6631 -0.6193  0.3462
  192MOL0     C25822  12.971   9.209   7.037 -0.5642 -0.3132  0.2239
  192MOL0     C25823  12.855   9.118   7.070  0.7768  0.1928  0.1575
  192MOL0     C25824  12.824   9.025   6.951  0.2321 -0.6489  0.4125
  192MOL0     C25825  12.699   8.946   6.989 -0.7161  0.5741 -0.5241
  192MOL0     C25826  12.661   8.834   6.880  0.0505  0.2190  0.1334
  192MOL0     C25827  12.542   8.741   6.931 -0.6158  0.6264 -0.3585
  192MOL0     C25828  12.402   8.806   6.931  0.3036  0.6355 -1.3469
  192MOL0     C25829  12.361   8.872   6.792 -0.2567 -0.3334 -0.5925
  192MOL0    Cl25830  12.401   8.775   6.651  0.4508 -0.1867 -0.0278
  192MOL0     C25831  13.029   9.504   7.234 -0.2305  0.4843 -1.1385
  192MOL0     C25832  12.988   9.638   7.259 -0.3745  1.1885 -0.2000
  192MOL0     O25833  12.672   9.749   7.383 -1.7198 -0.0942 -0.0873
  192MOL0     C25834  12.546   9.994   7.372 -0.7399 -0.4468  0.4560
  192MOL0     C25835  12.498  10.129   7.398  0.2195  1.3076 -0.5226
  192MOL0     N25836  12.024  10.641   7.179 -0.4937  0.3190 -0.5467
  192MOL0     N25837  11.897  10.632   7.190 -0.2160  1.0580 -0.3511
  192MOL0     C25838  11.424  10.207   8.167 -0.0799  0.0424  1.6154
  192MOL0     C25839  11.349  10.233   8.275 -0.0677  0.2150  0.1943
  192MOL0     C25840  11.006  10.346   8.552 -0.2110 -0.2128 -1.0662
  192MOL0     C25841  10.988  10.485   8.564 -0.7583  0.4903 -0.8194
  192MOL0     C25842  10.921  10.548   8.670 -0.1764  0.1092 -0.7105
  192MOL0     C25843  10.868  10.473   8.775 -0.1047  0.3127  0.7060
  192MOL0     O25844  10.802  10.519   8.883 -0.3879  0.1697  0.7656
  192MOL0     C25845  10.853  10.648   8.928  0.6768 -0.1335  0.4947
  192MOL0     C25846  10.766  10.677   9.052  0.1065  0.5457  0.3438
  192MOL0     C25847  10.615  10.695   9.006 -0.5305 -0.5248  0.2575
  192MOL0     C25848  10.507  10.753   9.097  0.3772  0.6445 -0.1052
  192MOL0     C25849  10.546  10.888   9.150 -1.0117  0.1059 -0.7493
  192MOL0     C25850  10.580  11.003   9.179  0.2547  0.5721  0.0564
  192MOL0     C25851  10.873  10.335   8.761  0.0994  0.8713  1.0801
  192MOL0     C25852  10.935  10.268   8.654  0.2098  0.5729  0.5751
  192MOL0     H25853  11.091  10.378   8.119  0.2736  1.1246  1.5336
  192MOL0     H25854  11.197  10.266   7.920 -2.1170  3.6834 -0.2008
  192MOL0     H25855  11.541  10.327   7.941  1.0019  1.4129 -3.6080
  192MOL0     H25856  11.622  10.169   7.977 -2.7606 -0.7504  2.3503
  192MOL0     H25857  11.719  10.247   7.759  0.1646 -0.6482 -0.5634
  192MOL0     H25858  11.626  10.101   7.742 -0.1033 -0.5553  1.1258
  192MOL0     H25859  11.440  10.199   7.672 -0.3868 -0.3990  3.8412
  192MOL0     H25860  11.495  10.361   7.670  1.8873 -0.0046 -1.7581
  192MOL0     H25861  11.694  10.262   7.506  0.9655 -1.2518 -0.8211
  192MOL0     H25862  11.579  10.134   7.484 -1.2126  2.1108 -0.4559
  192MOL0     H25863  11.402  10.295   7.440 -0.2818  2.5149  0.8443
  192MOL0     H25864  11.519  10.426   7.435 -2.1637  1.2112 -1.9731
  192MOL0     H25865  11.551  10.209   7.240 -1.2859 -0.7242  1.3863
  192MOL0     H25866  11.489  10.372   7.210 -0.8251  0.3128  3.1110
  192MOL0     H25867  11.767  10.294   7.241 -3.5535 -3.7187  1.8417
  192MOL0     H25868  11.691  10.425   7.152 -0.0905  0.4513 -0.2760
  192MOL0     H25869  11.774  10.449   7.445  0.7506  0.6856 -0.0968
  192MOL0     H25870  11.667  10.558   7.349 -2.3187 -1.7166  3.9980
  192MOL0     H25871  12.025  10.407   7.399 -3.0672  0.5759  1.5268
  192MOL0     H25872  12.279  10.642   7.250 -2.9385  0.9580 -0.3499
  192MOL0     H25873  12.256  10.517   7.380  0.5461  1.4938  0.6264
  192MOL0     H25874  12.264  10.441   7.089 -0.8079  2.5902  0.2223
  192MOL0     H25875  12.270  10.348   7.235 -1.0854  1.0673 -0.4023
  192MOL0     H25876  12.491  10.519   7.095  1.0823  0.2380  0.2251
  192MOL0     H25877  12.485  10.351   7.122  2.6031  0.5872  1.2561
  192MOL0     H25878  12.509  10.562   7.352 -0.8730 -0.1725 -2.0806
  192MOL0     H25879  12.644  10.480   7.286 -0.3224  1.5014 -2.9510
  192MOL0     H25880  12.771  10.301   7.324 -1.5639  1.6991 -1.2915
  192MOL0     H25881  12.959  10.005   7.338 -1.6082 -0.1427  0.2411
  192MOL0     H25882  12.911  10.084   7.179 -3.8403  2.0645 -0.0131
  192MOL0     H25883  12.958  10.177   7.310  0.7688  0.6636  1.1568
  192MOL0     H25884  12.707   9.644   7.072  1.3096  3.3939  1.7770
  192MOL0     H25885  12.782   9.405   7.042  2.9459 -0.1913 -0.7877
  192MOL0     H25886  12.955   9.258   6.941 -2.4383 -2.1987 -0.5282
  192MOL0     H25887  13.060   9.150   7.014 -0.2604  0.5383 -0.8106
  192MOL0     H25888  12.879   9.061   7.160  0.4877  1.2043  0.8975
  192MOL0     H25889  12.763   9.175   7.081  1.2100  0.8116  0.6128
  192MOL0     H25890  12.898   8.946   6.931 -0.7028 -0.9062 -2.5240
  192MOL0     H25891  12.797   9.074   6.858  1.6973 -1.3513 -0.4300
  192MOL0     H25892  12.713   8.890   7.083  3.1902  2.0764 -0.0099
  192MOL0     H25893  12.612   9.010   7.007 -0.7255  0.5412 -0.4511
  192MOL0     H25894  12.753   8.776   6.871  1.5634  1.9157  3.1018
  192MOL0     H25895  12.640   8.879   6.782  2.6018  0.1572 -0.5179
  192MOL0     H25896  12.539   8.660   6.857 -1.3648 -1.5965  1.9446
  192MOL0     H25897  12.565   8.698   7.029 -5.4985  3.9075  2.7127
  192MOL0     H25898  12.408   8.879   7.012 -0.7632 -1.9831  1.2807
  192MOL0     H25899  12.321   8.737   6.957  1.0664 -0.3194 -1.4490
  192MOL0     H25900  12.405   8.972   6.793 -3.6702  1.4308  2.7533
  192MOL0     H25901  12.254   8.894   6.801 -0.0041  1.0529 -0.7113
  192MOL0     H25902  13.116   9.455   7.277 -1.4592 -1.4478 -0.7215
  192MOL0     H25903  13.053   9.695   7.325  1.9863 -1.1301 -0.3705
  192MOL0     H25904  12.485   9.904   7.373 -0.4820 -0.6291  0.2389
  192MOL0     H25905  12.394  10.134   7.428  0.8261 -0.1659  2.2275
  192MOL0     H25906  11.526  10.171   8.176  0.4871  0.1614 -2.2568
  192MOL0     H25907  11.395  10.243   8.373 -3.9061  2.4029  1.9907
  192MOL0     H25908  11.035  10.552   8.493  5.0926  0.2886  2.2637
  192MOL0     H25909  10.914  10.656   8.676  1.7265  0.1747  1.6759
  192MOL0     H25910  10.959  10.648   8.954  0.6959 -2.4885  0.5546
  192MOL0     H25911  10.827  10.732   8.863  0.6173  0.2454  1.0035
  192MOL0     H25912  10.819  10.759   9.100  1.5636  0.4451 -1.0039
  192MOL0     H25913  10.775  10.593   9.121 -1.2603 -0.0028 -0.1022
  192MOL0     H25914  10.570  10.602   8.972  0.2715 -0.1933 -1.8376
  192MOL0     H25915  10.618  10.768   8.924 -3.7227 -0.2727  0.2306
  192MOL0     H25916  10.473  10.691   9.181 -0.9203  0.0988 -0.9933
  192MOL0     H25917  10.409  10.765   9.049 -0.7767 -0.3874  1.8474
  192MOL0     H25918  10.625  11.096   9.208  0.6149  1.2213 -2.3371
  192MOL0     H25919  10.823  10.271   8.834  0.8990 -2.5625 -1.1485
  192MOL0     H25920  10.930  10.160   8.647  0.6631  0.5459  0.6092
  193MOL0     O25921   7.285   0.214   5.150 -0.2711  0.7099  0.0267
  193MOL0     C25922   7.273   0.275   5.043  0.3374 -0.4801 -0.2693
  193MOL0     O25923   7.161   0.348   5.009  0.0421  0.3965 -0.0822
  193MOL0     C25924   7.045   0.327   5.069  0.0262  0.3919  0.2113
  193MOL0     C25925   6.948   0.429   5.088 -0.2474  0.1964 -0.9194
  193MOL0     C25926   6.817   0.399   5.138  0.0341 -0.9946 -0.5183
  193MOL0     C25927   6.790   0.274   5.169  0.6790  0.7458 -0.0776
  193MOL0     O25928   6.669   0.231   5.228  0.0139 -0.5821  0.6520
  193MOL0     C25929   6.559   0.315   5.217  0.4907 -0.9194  0.2830
  193MOL0     C25930   6.427   0.227   5.221 -0.5126  0.1086 -0.3280
  193MOL0     C25931   6.433   0.135   5.344  0.0902 -0.3369  0.4457
  193MOL0     C25932   6.303   0.069   5.372 -0.5429  0.0239  0.4898
  193MOL0     C25933   6.291   0.000   5.508  0.4891  0.3406 -0.7062
  193MOL0     C25934   6.148  -0.069   5.520  0.1613 -0.9573  0.3884
  193MOL0     C25935   6.123  -0.122   5.655  0.3848  0.6812  0.9650
  193MOL0     C25936   5.970  -0.134   5.680  0.3382  0.1359  0.0089
  193MOL0     N25937   5.939  -0.176   5.816 -0.3050 -0.2324 -0.2328
  193MOL0     C25938   5.882  -0.103   5.927 -0.4955 -0.8716  0.5405
  193MOL0     C25939   5.879  -0.187   6.035 -1.0195 -0.9863 -0.3715
  193MOL0     C25940   5.833  -0.170   6.174  1.2652 -1.0582  0.1537
  193MOL0     C25941   5.732  -0.276   6.230  0.3887 -0.4541  0.5680
  193MOL0     C25942   5.710  -0.251   6.372  0.4814  0.2296  0.0589
  193MOL0     C25943   5.617  -0.354   6.424 -0.7739 -0.1292 -0.3537
  193MOL0     O25944   5.594  -0.354   6.562 -0.3939 -1.0328 -0.6176
  193MOL0     C25945   5.508  -0.264   6.627 -0.1870 -0.1280  0.3902
  193MOL0     C25946   5.517  -0.277   6.767  1.2525  0.5298 -0.1754
  193MOL0     C25947   5.419  -0.212   6.848  0.3434  0.3526  0.0660
  193MOL0     C25948   5.426  -0.247   6.995 -0.2539  0.3619 -0.6948
  193MOL0     C25949   5.337  -0.106   6.786  0.5263  0.0524 -0.5100
  193MOL0     C25950   5.243  -0.028   6.870 -1.6998 -0.4902  0.3425
  193MOL0     O25951   5.171   0.076   6.807 -0.4385 -0.2309 -0.0974
  193MOL0     C25952   5.071   0.149   6.865  0.5802 -0.0462  0.4303
  193MOL0     C25953   5.076   0.288   6.891  0.2891 -0.1324  0.1786
  193MOL0     C25954   4.961   0.348   6.938 -1.1852 -0.3526  0.4353
  193MOL0     C25955   4.850   0.280   6.973  0.2769  0.5148 -0.4749
  193MOL0     O25956   4.743   0.350   7.020 -0.0322  0.3444 -0.3066
  193MOL0     C25957   4.764   0.484   7.069 -0.5638  0.0499 -0.2220
  193MOL0     C25958   4.619   0.507   7.119  0.6087  0.4832  0.0699
  193MOL0     C25959   4.591   0.652   7.160  0.1476 -0.5115 -0.3744
  193MOL0     C25960   4.436   0.658   7.197  0.9007 -0.2673 -0.5815
  193MOL0     C25961   4.376   0.795   7.219 -0.6163 -0.2021 -0.2212
  193MOL0     C25962   4.463   0.887   7.302  0.7384 -0.4162  0.9192
  193MOL0     C25963   4.499   0.835   7.440 -0.3189 -0.0243 -0.7227
  193MOL0     C25964   4.381   0.813   7.531 -0.0632 -0.1428  0.7659
  193MOL0    Cl25965   4.328   0.958   7.615 -0.1345 -0.1656 -0.4291
  193MOL0     C25966   4.841   0.139   6.951 -0.9885  0.0154 -0.5979
  193MOL0     C25967   4.957   0.080   6.897 -0.2448  0.1355  0.3764
  193MOL0     O25968   5.245  -0.049   6.995 -0.0978  0.1486  0.3868
  193MOL0     C25969   5.348  -0.082   6.647  0.5832  0.5496  0.7903
  193MOL0     C25970   5.424  -0.165   6.564 -0.1178  0.0134 -1.0112
  193MOL0     N25971   5.936  -0.310   5.998 -0.8310  0.0023  0.0345
  193MOL0     N25972   5.962  -0.303   5.871 -0.2292 -0.1922 -0.4368
  193MOL0     C25973   6.876   0.171   5.158 -0.0765 -0.0135 -0.3271
  193MOL0     C25974   7.005   0.197   5.099 -1.0353  0.0968 -0.0569
  193MOL0     C25975   7.393   0.268   4.951 -0.1602 -0.4762 -0.1337
  193MOL0     C25976   7.521   0.232   4.993 -0.2491  0.0264  0.5106
  193MOL0     C25977   7.628   0.239   4.910  0.2140  1.2119 -0.3166
  193MOL0     C25978   7.624   0.283   4.778  0.8499 -0.5791 -0.4533
  193MOL0     O25979   7.715   0.282   4.684 -0.8168 -0.6136  0.6627
  193MOL0     C25980   7.855   0.272   4.711 -0.3680 -0.0569 -0.7688
  193MOL0     C25981   7.933   0.407   4.708 -0.1904  0.3614 -0.2206
  193MOL0     C25982   7.902   0.508   4.813  0.3968 -0.4395  0.2639
  193MOL0     C25983   7.999   0.628   4.813  0.2306 -0.5236  0.6356
  193MOL0     C25984   8.112   0.615   4.892  0.0973  0.1465 -0.1643
  193MOL0     C25985   8.215   0.599   4.955 -0.5983 -0.1674 -0.6057
  193MOL0     C25986   7.495   0.318   4.734  0.7252  0.1359 -0.7655
  193MOL0     C25987   7.384   0.315   4.816 -0.7515  0.0320  0.3208
  193MOL0     H25988   6.979   0.526   5.050 -0.0404  0.6327  0.2925
  193MOL0     H25989   6.742   0.476   5.153  1.4209 -0.1319  2.7594
  193MOL0     H25990   6.571   0.390   5.296 -1.8711 -0.8646  0.6653
  193MOL0     H25991   6.560   0.361   5.118  1.6269 -1.2506  0.1306
  193MOL0     H25992   6.336   0.288   5.217 -0.9501 -0.2827  2.2108
  193MOL0     H25993   6.429   0.164   5.131  3.3162 -0.2872 -0.1559
  193MOL0     H25994   6.508   0.058   5.322  0.9440  0.6540 -0.2087
  193MOL0     H25995   6.465   0.185   5.435  0.8727  1.9369 -1.0019
  193MOL0     H25996   6.220   0.140   5.374 -0.0138  0.6366  0.9580
  193MOL0     H25997   6.280  -0.011   5.301 -4.1204  1.1989  0.1206
  193MOL0     H25998   6.359  -0.086   5.510  0.7561  0.5314  1.8319
  193MOL0     H25999   6.313   0.078   5.581 -0.6456 -0.9325  1.0746
  193MOL0     H26000   6.084   0.016   5.492  3.0348  0.5593 -2.3113
  193MOL0     H26001   6.139  -0.140   5.437 -0.3127 -0.5243  0.0570
  193MOL0     H26002   6.176  -0.217   5.666  1.1666  1.2041  1.9543
  193MOL0     H26003   6.164  -0.057   5.733 -2.9480  0.6810  2.9148
  193MOL0     H26004   5.923  -0.203   5.609  0.6388  0.9342 -0.9820
  193MOL0     H26005   5.914  -0.043   5.657  0.8226 -0.1554 -2.6346
  193MOL0     H26006   5.857   0.002   5.917  2.8729  0.0671  0.6486
  193MOL0     H26007   5.928  -0.165   6.228  1.2054  0.1919  0.1653
  193MOL0     H26008   5.781  -0.074   6.174 -1.2795 -2.3491  0.4967
  193MOL0     H26009   5.773  -0.377   6.229  4.6289  1.0401  2.1791
  193MOL0     H26010   5.650  -0.254   6.161  0.3683  0.8067  0.9710
  193MOL0     H26011   5.656  -0.155   6.374 -2.3923 -1.2887  0.3785
  193MOL0     H26012   5.796  -0.252   6.439 -0.5890 -1.8663  1.4808
  193MOL0     H26013   5.670  -0.448   6.409  0.2185  0.5085 -0.9660
  193MOL0     H26014   5.522  -0.379   6.376 -0.6697 -2.5670  0.5633
  193MOL0     H26015   5.599  -0.337   6.805 -0.9528 -1.8240  1.0819
  193MOL0     H26016   5.491  -0.334   7.010  1.4492  1.1431 -2.9428
  193MOL0     H26017   5.456  -0.165   7.061 -1.7810 -2.6052  4.2181
  193MOL0     H26018   5.332  -0.292   7.025 -0.4059 -0.5626 -2.4042
  193MOL0     H26019   5.169   0.344   6.880  0.6581 -0.7258  0.2746
  193MOL0     H26020   4.976   0.455   6.951 -2.6792 -0.3025  1.9722
  193MOL0     H26021   4.830   0.490   7.156 -0.6775 -0.7500 -0.0677
  193MOL0     H26022   4.765   0.561   6.992  2.2165 -0.1684 -0.4865
  193MOL0     H26023   4.559   0.480   7.032 -1.3387  1.6517  0.9804
  193MOL0     H26024   4.586   0.438   7.197 -3.0614  0.9381 -0.8989
  193MOL0     H26025   4.615   0.728   7.085  2.9541 -1.8411 -0.9398
  193MOL0     H26026   4.663   0.679   7.238 -0.6439  0.8262 -0.0700
  193MOL0     H26027   4.362   0.609   7.133 -1.3783 -0.0102  1.6689
  193MOL0     H26028   4.429   0.605   7.293  0.5475 -0.0184 -0.4654
  193MOL0     H26029   4.274   0.796   7.257 -0.9087  0.9944 -0.9542
  193MOL0     H26030   4.373   0.843   7.120  0.1343 -1.1719 -0.7315
  193MOL0     H26031   4.553   0.910   7.244 -1.5136 -1.3464 -3.3875
  193MOL0     H26032   4.410   0.983   7.309 -1.6109 -1.2550 -2.4323
  193MOL0     H26033   4.560   0.905   7.497 -2.0003  1.2236 -0.3720
  193MOL0     H26034   4.548   0.738   7.424 -1.7309 -0.6914 -1.1631
  193MOL0     H26035   4.419   0.736   7.600  0.4982  0.1742  0.8238
  193MOL0     H26036   4.302   0.770   7.470 -0.4497  2.8768 -1.0846
  193MOL0     H26037   4.749   0.084   6.967  0.0341 -2.1235 -1.5994
  193MOL0     H26038   4.965  -0.028   6.883  0.6785  0.2253  0.1388
  193MOL0     H26039   5.290  -0.007   6.594  3.4712  0.0413 -3.6119
  193MOL0     H26040   5.422  -0.142   6.458  0.7466 -1.0155 -1.2654
  193MOL0     H26041   6.845   0.074   5.193 -2.6901  0.3280 -1.4736
  193MOL0     H26042   7.069   0.115   5.069  0.4749  1.3308 -0.3469
  193MOL0     H26043   7.535   0.207   5.097 -1.4445 -0.2354  0.6156
  193MOL0     H26044   7.716   0.188   4.946 -1.8867 -1.0545  2.0860
  193MOL0     H26045   7.872   0.210   4.800 -3.6417 -2.4750 -1.6382
  193MOL0     H26046   7.896   0.208   4.633 -1.0633 -1.2269 -0.2088
  193MOL0     H26047   7.915   0.452   4.610 -1.4021 -1.7756 -1.0486
  193MOL0     H26048   8.037   0.378   4.697 -0.1544  1.2363 -3.5198
  193MOL0     H26049   7.895   0.473   4.916  0.4398  2.0128  1.1837
  193MOL0     H26050   7.801   0.546   4.795  0.8339  0.0335 -1.3839
  193MOL0     H26051   7.953   0.725   4.835  0.7167  0.0858 -0.9122
  193MOL0     H26052   8.035   0.634   4.710  2.1107 -0.9400  1.2384
  193MOL0     H26053   8.288   0.588   5.033  0.0253  1.0440 -0.9921
  193MOL0     H26054   7.473   0.351   4.633 -0.7280  1.4814 -0.0511
  193MOL0     H26055   7.289   0.348   4.776  0.4697  1.5985 -1.5299
  194MOL0     O26056   1.971   2.851   6.919  0.6031 -0.3276  0.0080
  194MOL0     C26057   2.037   2.859   6.808 -0.3183  0.3514 -0.7996
  194MOL0     O26058   2.087   2.971   6.746 -0.4102  0.0352 -0.2940
  194MOL0     C26059   2.097   3.077   6.828  0.0808  0.0660  0.0496
  194MOL0     C26060   2.212   3.108   6.899  0.2039  0.2196 -0.9686
  194MOL0     C26061   2.212   3.223   6.978  0.3426 -0.0863  0.2084
  194MOL0     C26062   2.107   3.310   6.996  0.3248 -0.0715  0.6377
  194MOL0     O26063   2.119   3.417   7.078 -0.1905  0.0062  0.2022
  194MOL0     C26064   2.049   3.536   7.042 -0.8953  1.3337  0.5514
  194MOL0     C26065   2.081   3.659   7.116  0.7366  0.7521 -0.3065
  194MOL0     C26066   2.229   3.698   7.118 -0.5955  0.2187 -0.9932
  194MOL0     C26067   2.273   3.747   6.981 -0.5289 -0.4044 -0.3485
  194MOL0     C26068   2.418   3.789   6.986  0.7298 -0.4384  0.3600
  194MOL0     C26069   2.471   3.830   6.843  0.3484  0.2457  0.6087
  194MOL0     C26070   2.605   3.906   6.859  0.4667  0.3765  0.7416
  194MOL0     C26071   2.715   3.802   6.882  0.2067 -0.0227  0.4908
  194MOL0     N26072   2.844   3.863   6.853 -0.1981 -0.6647 -0.9690
  194MOL0     C26073   2.893   3.901   6.728 -0.5582  0.1615  0.2635
  194MOL0     C26074   3.024   3.928   6.751 -0.6254 -0.5761  0.5549
  194MOL0     C26075   3.116   3.980   6.648  0.3608 -0.4412 -0.3091
  194MOL0     C26076   3.135   3.893   6.524  0.4770  0.1158 -0.5699
  194MOL0     C26077   3.257   3.946   6.440 -0.0149  0.2461  1.0880
  194MOL0     C26078   3.379   3.858   6.449 -1.1159  0.4045  0.1217
  194MOL0     O26079   3.450   3.868   6.578 -0.2905  0.4993 -0.2193
  194MOL0     C26080   3.538   3.979   6.587  0.8880  0.0287  0.4450
  194MOL0     C26081   3.647   3.998   6.508  0.6316 -0.0030 -0.0076
  194MOL0     C26082   3.723   4.110   6.524 -0.2122 -0.3880  0.1695
  194MOL0     C26083   3.854   4.112   6.451  0.0898 -0.2652 -0.8474
  194MOL0     C26084   3.683   4.201   6.626  0.1585 -1.6864  0.3753
  194MOL0     C26085   3.765   4.319   6.653 -0.3280  0.4587  0.1026
  194MOL0     O26086   3.697   4.439   6.654 -0.3895 -0.1776 -0.6557
  194MOL0     C26087   3.773   4.541   6.718  0.5593 -0.3799 -0.3483
  194MOL0     C26088   3.804   4.667   6.654  1.7721  0.8688 -0.3180
  194MOL0     C26089   3.857   4.773   6.732 -0.3965 -0.1468  0.1473
  194MOL0     C26090   3.904   4.747   6.863  0.5018 -1.1251 -0.3556
  194MOL0     O26091   3.971   4.852   6.913 -0.4929 -0.2928  0.1805
  194MOL0     C26092   4.103   4.816   6.962 -0.1405  1.1811  0.2018
  194MOL0     C26093   4.181   4.938   6.963  0.5985 -0.2125 -0.1212
  194MOL0     C26094   4.121   5.050   7.061  0.3441 -0.6498  0.4620
  194MOL0     C26095   4.174   5.033   7.195 -0.2750  0.2874 -0.8460
  194MOL0     C26096   4.119   5.145   7.282  0.3820 -0.6756 -0.0135
  194MOL0     C26097   4.141   5.130   7.438  0.0629  1.0543 -0.3333
  194MOL0     C26098   4.078   5.008   7.509 -0.0340 -0.9071  0.3833
  194MOL0     C26099   4.049   5.041   7.657  0.0551  0.1860  0.3033
  194MOL0    Cl26100   4.192   5.022   7.756  0.2126 -0.3409 -0.0235
  194MOL0     C26101   3.889   4.621   6.921 -1.7438  0.4099  0.2046
  194MOL0     C26102   3.823   4.523   6.849  0.3589  0.6308 -0.5106
  194MOL0     O26103   3.885   4.306   6.679  0.1568  0.1133  0.4655
  194MOL0     C26104   3.580   4.184   6.709  0.0536 -0.7112 -0.2033
  194MOL0     C26105   3.508   4.068   6.696 -0.6759 -0.0443  0.2651
  194MOL0     N26106   3.054   3.891   6.881 -0.3103  0.5682 -0.0283
  194MOL0     N26107   2.945   3.857   6.946  0.6589 -1.0134  0.2964
  194MOL0     C26108   1.992   3.280   6.922 -0.3594 -0.1748  0.3003
  194MOL0     C26109   1.990   3.166   6.835  0.7774  0.0676  0.8416
  194MOL0     C26110   2.049   2.738   6.722 -0.1547 -0.6065 -0.0474
  194MOL0     C26111   1.972   2.628   6.746  0.6078  1.0721 -0.7817
  194MOL0     C26112   1.977   2.510   6.671 -0.2310  0.4902 -0.3324
  194MOL0     C26113   2.075   2.497   6.575  0.2651  1.5356  0.9434
  194MOL0     O26114   2.084   2.376   6.499  0.2772  0.6621 -0.7871
  194MOL0     C26115   2.013   2.252   6.528  0.7032 -0.5001  0.1279
  194MOL0     C26116   2.080   2.171   6.643 -0.7832 -0.2661  0.3940
  194MOL0     C26117   2.220   2.105   6.601  0.4930 -0.9327  0.8248
  194MOL0     C26118   2.264   2.036   6.728  0.3653 -0.1656  0.8696
  194MOL0     C26119   2.382   1.958   6.701  0.4534  0.0499 -0.2976
  194MOL0     C26120   2.456   1.876   6.663 -0.3814 -0.1110 -0.5233
  194MOL0     C26121   2.153   2.605   6.545 -0.4763  1.0791  0.6146
  194MOL0     C26122   2.135   2.730   6.620 -0.0811  1.4958  0.9118
  194MOL0     H26123   2.296   3.040   6.911  2.8172  3.3377 -0.0310
  194MOL0     H26124   2.305   3.239   7.032  0.2426  3.4130 -0.4273
  194MOL0     H26125   2.049   3.551   6.933 -0.0519 -1.6331  0.0546
  194MOL0     H26126   1.943   3.519   7.063 -1.0385  1.6072  0.0798
  194MOL0     H26127   2.022   3.736   7.065  1.9230  3.3487  2.0079
  194MOL0     H26128   2.040   3.650   7.217 -0.4699  0.3631 -0.8106
  194MOL0     H26129   2.242   3.784   7.185  0.6444  2.4194 -3.8424
  194MOL0     H26130   2.285   3.608   7.145 -2.5837 -0.3800  1.5463
  194MOL0     H26131   2.252   3.666   6.911 -3.6560 -0.2558  0.2771
  194MOL0     H26132   2.219   3.836   6.948 -1.0342 -2.2053 -5.0041
  194MOL0     H26133   2.433   3.871   7.056 -0.3685  1.3431 -1.4045
  194MOL0     H26134   2.481   3.715   7.037  0.3055  0.4760  2.3034
  194MOL0     H26135   2.479   3.757   6.762 -2.3303  0.6661 -0.0912
  194MOL0     H26136   2.397   3.897   6.800  2.0412  5.5061  4.8062
  194MOL0     H26137   2.620   3.971   6.772  2.6513  1.2846  1.7222
  194MOL0     H26138   2.603   3.985   6.936 -1.7697  1.2951 -0.1514
  194MOL0     H26139   2.691   3.722   6.810 -0.1452 -1.2622  1.9331
  194MOL0     H26140   2.715   3.767   6.986 -0.1350  1.3253  0.9642
  194MOL0     H26141   2.840   3.915   6.634  1.2379  1.1659 -0.6758
  194MOL0     H26142   3.073   4.075   6.616 -1.1686 -0.5387  1.3196
  194MOL0     H26143   3.216   3.994   6.690  1.5385 -4.8232 -1.2012
  194MOL0     H26144   3.043   3.884   6.465  1.7237  0.4455 -2.6378
  194MOL0     H26145   3.152   3.788   6.550  0.5442  0.3244  0.2661
  194MOL0     H26146   3.289   4.047   6.465 -0.4536  0.5907  0.3004
  194MOL0     H26147   3.222   3.956   6.336  0.2699  1.0449  1.0620
  194MOL0     H26148   3.450   3.876   6.367 -1.5531 -1.2017 -0.6439
  194MOL0     H26149   3.358   3.752   6.431 -0.3994  0.5779 -2.1038
  194MOL0     H26150   3.669   3.916   6.440 -0.1214 -0.4825  0.3141
  194MOL0     H26151   3.927   4.092   6.530 -1.5566  0.3833  0.9191
  194MOL0     H26152   3.850   4.038   6.371  0.1039 -0.1552 -0.9492
  194MOL0     H26153   3.883   4.205   6.402 -0.2598  0.6292  0.5732
  194MOL0     H26154   3.763   4.668   6.553  0.7300  1.0689  0.0994
  194MOL0     H26155   3.876   4.869   6.686  1.6617 -0.4920  0.2097
  194MOL0     H26156   4.088   4.770   7.060 -0.8301  0.5144 -0.2096
  194MOL0     H26157   4.144   4.737   6.898 -0.3549 -0.2463  1.7639
  194MOL0     H26158   4.284   4.917   6.995  0.2048 -1.2286  0.5239
  194MOL0     H26159   4.168   4.989   6.868 -0.1359  1.7818  1.0010
  194MOL0     H26160   4.012   5.060   7.058  0.2536 -1.3352  1.1080
  194MOL0     H26161   4.158   5.147   7.027 -2.2035  0.7749  1.4676
  194MOL0     H26162   4.158   4.934   7.237 -2.3023  0.7662 -0.3902
  194MOL0     H26163   4.283   5.039   7.187 -0.2155  0.7199  0.1456
  194MOL0     H26164   4.010   5.159   7.289  0.6667  1.0682  1.9837
  194MOL0     H26165   4.149   5.245   7.252  0.1553 -0.0042  1.8317
  194MOL0     H26166   4.248   5.126   7.456  0.0707  2.0134 -0.1229
  194MOL0     H26167   4.113   5.224   7.487  0.0382  1.5643 -1.3088
  194MOL0     H26168   4.145   4.923   7.492  1.4438  0.5354 -1.5417
  194MOL0     H26169   3.981   4.992   7.461  0.3562 -1.1618 -0.3448
  194MOL0     H26170   3.974   4.971   7.694 -0.6035  2.5065  3.8021
  194MOL0     H26171   4.016   5.146   7.660 -0.3174  0.0480  1.1684
  194MOL0     H26172   3.936   4.609   7.018  3.0665  2.2766 -1.5963
  194MOL0     H26173   3.811   4.434   6.910 -0.4535  0.0762 -1.4467
  194MOL0     H26174   3.557   4.256   6.787  2.1182  2.9423 -2.6190
  194MOL0     H26175   3.422   4.054   6.761  0.0111 -1.5073  0.9022
  194MOL0     H26176   1.900   3.338   6.929  0.0015  0.6909 -1.5405
  194MOL0     H26177   1.900   3.147   6.778 -0.0058  2.4105  1.1816
  194MOL0     H26178   1.897   2.625   6.825  1.4982  2.7779  0.1667
  194MOL0     H26179   1.913   2.432   6.710  2.0005 -0.1276  2.3833
  194MOL0     H26180   1.913   2.280   6.561 -0.5692 -0.4533 -3.3121
  194MOL0     H26181   1.986   2.202   6.435 -1.0965 -3.1125  1.9262
  194MOL0     H26182   2.005   2.101   6.681 -2.2532  0.0366 -1.7512
  194MOL0     H26183   2.088   2.245   6.724  0.4846  0.7736 -0.6357
  194MOL0     H26184   2.287   2.186   6.573 -4.1818  2.5176 -1.7916
  194MOL0     H26185   2.194   2.039   6.518  0.6631 -0.0696  0.0789
  194MOL0     H26186   2.194   1.973   6.783 -0.3976 -1.4249 -1.3803
  194MOL0     H26187   2.299   2.116   6.793  1.2125  0.1213  0.0959
  194MOL0     H26188   2.514   1.789   6.640 -1.8243 -2.2204  3.0445
  194MOL0     H26189   2.228   2.595   6.468  2.3427  2.1039  3.0609
  194MOL0     H26190   2.202   2.814   6.602  0.7840  1.2068  2.5245
  195MOL0     O26191  10.715  10.535   9.511 -0.6536  0.7789 -0.0363
  195MOL0     C26192  10.616  10.455   9.515 -0.5221 -0.0025 -0.2565
  195MOL0     O26193  10.535  10.435   9.621 -0.0505  0.2448  0.0732
  195MOL0     C26194  10.550  10.484   9.740 -0.7707 -0.0720 -0.3598
  195MOL0     C26195  10.667  10.538   9.795 -0.3665 -0.0578 -0.2238
  195MOL0     C26196  10.669  10.590   9.923 -0.4245  0.4571 -0.4641
  195MOL0     C26197  10.547  10.591  10.008 -0.5663  1.0541  0.5802
  195MOL0     O26198  10.565  10.624  10.138  0.0300  0.5174 -0.6629
  195MOL0     C26199  10.473  10.706  10.214  0.0406 -0.6158  0.6186
  195MOL0     C26200  10.571  10.773  10.310  0.2161 -0.0237  0.3065
  195MOL0     C26201  10.525  10.846  10.436 -0.2970  0.2085 -0.6543
  195MOL0     C26202  10.513  10.736  10.549 -0.7698  0.7030  0.1255
  195MOL0     C26203  10.501  10.798  10.692  0.5028 -0.1757  0.4751
  195MOL0     C26204  10.365  10.845  10.738  1.6821 -0.2244  0.3597
  195MOL0     C26205  10.274  10.727  10.778 -0.5074  1.0123 -0.1203
  195MOL0     C26206  10.151  10.765  10.852  0.2000 -0.2125  0.6036
  195MOL0     N26207  10.066  10.877  10.804  0.3558 -0.4240 -0.9807
  195MOL0     C26208  10.056  10.994  10.881 -0.1385  0.0061  0.3399
  195MOL0     C26209   9.973  11.076  10.810  0.0898  0.5872 -1.5377
  195MOL0     C26210   9.930  11.219  10.847 -0.7115 -0.0286 -0.2418
  195MOL0     C26211   9.779  11.234  10.835 -0.0339 -0.5394  0.2589
  195MOL0     C26212   9.744  11.304  10.697 -0.0200 -0.0559  0.3757
  195MOL0     C26213   9.586  11.298  10.677  0.5498  0.5449 -1.1164
  195MOL0     O26214   9.523  11.332  10.799 -0.3369 -0.2611  0.4863
  195MOL0     C26215   9.476  11.462  10.812 -0.3547  0.0569  0.8212
  195MOL0     C26216   9.377  11.491  10.899 -0.3611 -0.0318  0.2104
  195MOL0     C26217   9.321  11.623  10.918 -0.2131  0.8502  0.4623
  195MOL0     C26218   9.215  11.635  11.023 -0.3985 -0.7195  0.0784
  195MOL0     C26219   9.354  11.724  10.828  0.0220  0.7066  1.1668
  195MOL0     C26220   9.281  11.859  10.812  1.4098 -0.0713 -0.1199
  195MOL0     O26221   9.358  11.958  10.759  0.3683 -1.0159  0.0234
  195MOL0     C26222   9.303  12.022  10.648 -0.3623 -0.1028 -0.4009
  195MOL0     C26223   9.306  11.955  10.523  0.1233  0.2585  0.3057
  195MOL0     C26224   9.240  12.015  10.414  0.7260  0.2297  0.4525
  195MOL0     C26225   9.180  12.142  10.421 -0.5868 -0.6785 -0.5339
  195MOL0     O26226   9.132  12.206  10.306 -0.6117  0.9724 -0.0991
  195MOL0     C26227   9.145  12.134  10.179  0.5023  0.6757  0.8869
  195MOL0     C26228   9.107  12.226  10.069 -0.0208 -0.2678 -1.2346
  195MOL0     C26229   8.955  12.238  10.053  0.5499  0.2009  0.3615
  195MOL0     C26230   8.897  12.386  10.032  0.7996  0.6506 -0.0108
  195MOL0     C26231   8.872  12.465  10.161 -0.1228 -0.8324 -0.0675
  195MOL0     C26232   8.818  12.605  10.138  0.4225 -0.6826  0.2548
  195MOL0     C26233   8.812  12.673  10.273 -0.4482  0.1973  0.4532
  195MOL0     C26234   8.789  12.824  10.262 -0.2655  0.1339 -0.4649
  195MOL0    Cl26235   8.922  12.915  10.176 -0.0371 -0.4921 -0.1490
  195MOL0     C26236   9.182  12.208  10.544  0.4200  0.2966  0.6298
  195MOL0     C26237   9.246  12.148  10.656  0.7909  0.0397 -1.6037
  195MOL0     O26238   9.161  11.870  10.839 -0.6071  0.5803 -0.1287
  195MOL0     C26239   9.452  11.697  10.740 -0.2293  0.3667  0.4727
  195MOL0     C26240   9.508  11.572  10.721  0.4115 -0.0917 -0.5828
  195MOL0     N26241   9.926  11.008  10.697 -0.5937 -0.0409  0.1296
  195MOL0     N26242   9.987  10.889  10.695 -0.0223 -0.8563  0.5693
  195MOL0     C26243  10.433  10.527   9.957  0.3064 -0.4389 -0.0385
  195MOL0     C26244  10.439  10.481   9.819  0.3285  0.8194  0.3644
  195MOL0     C26245  10.586  10.398   9.382  0.8041 -0.1445 -0.2758
  195MOL0     C26246  10.682  10.391   9.279  0.6538  0.1459  0.0356
  195MOL0     C26247  10.650  10.338   9.158  0.5831  0.1678  0.2792
  195MOL0     C26248  10.532  10.274   9.128  0.5638  0.1456  0.0908
  195MOL0     O26249  10.524  10.212   9.006 -0.3808  0.3336  1.0678
  195MOL0     C26250  10.402  10.163   8.955 -0.1561  0.4417 -0.2803
  195MOL0     C26251  10.417  10.103   8.814 -0.3750 -0.7685  0.0911
  195MOL0     C26252  10.519   9.980   8.791  0.5913 -0.3266 -0.3404
  195MOL0     C26253  10.579   9.971   8.656 -0.4234 -0.5347  0.0807
  195MOL0     C26254  10.687   9.880   8.658  0.7808 -0.7083 -0.0281
  195MOL0     C26255  10.775   9.803   8.672 -0.2534  0.3432 -0.3874
  195MOL0     C26256  10.433  10.276   9.223 -0.4077  0.2049 -0.4966
  195MOL0     C26257  10.457  10.345   9.350 -0.1124  0.3631 -0.2128
  195MOL0     H26258  10.760  10.549   9.740 -0.3420 -1.2160 -0.4291
  195MOL0     H26259  10.768  10.628   9.948  1.0732 -2.0740 -2.1676
  195MOL0     H26260  10.430  10.786  10.153  1.5193 -0.7086 -0.6085
  195MOL0     H26261  10.404  10.646  10.275  0.6473  0.3641  2.3314
  195MOL0     H26262  10.635  10.692  10.346 -1.2673 -1.3289  0.0789
  195MOL0     H26263  10.627  10.855  10.263 -1.9208  4.4145  4.5728
  195MOL0     H26264  10.594  10.926  10.461  1.7283 -1.6908  0.2221
  195MOL0     H26265  10.421  10.880  10.428  0.2639  1.4781 -5.1342
  195MOL0     H26266  10.426  10.676  10.521 -0.7800  1.8395 -2.4889
  195MOL0     H26267  10.597  10.667  10.557 -1.6234 -0.2668  1.0868
  195MOL0     H26268  10.544  10.723  10.758 -1.3588 -3.0455 -1.3075
  195MOL0     H26269  10.568  10.884  10.702  0.1456  0.0356  1.1168
  195MOL0     H26270  10.371  10.907  10.827 -1.6697  1.1617 -0.2573
  195MOL0     H26271  10.313  10.897  10.657  2.1408 -0.8102 -0.3313
  195MOL0     H26272  10.244  10.674  10.687 -2.4552  0.1195  0.9784
  195MOL0     H26273  10.341  10.663  10.837  1.9202  1.6803 -1.9737
  195MOL0     H26274  10.182  10.793  10.953  2.1243  0.3610 -0.1123
  195MOL0     H26275  10.081  10.683  10.872 -0.4733  0.1470 -0.1960
  195MOL0     H26276  10.122  11.006  10.966 -2.2262  0.2152  2.0245
  195MOL0     H26277   9.958  11.261  10.944 -3.8690  2.4431 -0.2361
  195MOL0     H26278   9.991  11.287  10.786  1.6208  0.0638  2.0305
  195MOL0     H26279   9.747  11.301  10.915  1.9171  3.1415 -1.7518
  195MOL0     H26280   9.724  11.139  10.845 -0.1015 -0.5160  0.1285
  195MOL0     H26281   9.794  11.259  10.611  0.1023 -0.1096  0.4745
  195MOL0     H26282   9.764  11.411  10.679 -0.2457 -0.2334 -1.0044
  195MOL0     H26283   9.561  11.195  10.649  2.4068  0.1424 -1.4881
  195MOL0     H26284   9.557  11.364  10.594 -2.1722  1.0413  0.1342
  195MOL0     H26285   9.346  11.413  10.969 -0.1667 -0.2706  0.0346
  195MOL0     H26286   9.120  11.627  10.971 -0.9773  0.2254  0.9576
  195MOL0     H26287   9.231  11.553  11.093  3.8882 -2.3163 -2.3341
  195MOL0     H26288   9.234  11.734  11.065  1.9227 -1.2446  0.3989
  195MOL0     H26289   9.354  11.861  10.502  1.9578  0.7260  2.1255
  195MOL0     H26290   9.239  11.960  10.321 -1.9954  1.9480 -0.6803
  195MOL0     H26291   9.249  12.103  10.162  0.4791  1.3539 -0.6451
  195MOL0     H26292   9.081  12.047  10.195  2.2409 -0.5680  1.3631
  195MOL0     H26293   9.148  12.321  10.104 -0.8669  0.8237 -3.0799
  195MOL0     H26294   9.154  12.208   9.972 -1.1693 -0.0887 -1.8430
  195MOL0     H26295   8.906  12.204  10.145 -2.5359  0.5307 -1.0209
  195MOL0     H26296   8.922  12.171   9.973 -1.0016  0.4560  0.7387
  195MOL0     H26297   8.960  12.438   9.960 -1.6315  1.0060 -2.0106
  195MOL0     H26298   8.805  12.373   9.975  2.7061  2.1462 -3.7324
  195MOL0     H26299   8.971  12.477  10.206 -0.9001  0.5030  1.3567
  195MOL0     H26300   8.797  12.413  10.222  0.4965 -1.1167  0.4590
  195MOL0     H26301   8.872  12.669  10.068 -1.3221  1.0840  0.4139
  195MOL0     H26302   8.718  12.597  10.093 -0.7574  0.4968  2.5043
  195MOL0     H26303   8.892  12.643  10.343  1.4884  0.0480 -1.6947
  195MOL0     H26304   8.721  12.630  10.316  0.5312  0.0161  2.4704
  195MOL0     H26305   8.786  12.858  10.366  2.2868 -1.8706  0.3648
  195MOL0     H26306   8.697  12.841  10.206 -0.3334 -2.3288 -1.2514
  195MOL0     H26307   9.147  12.310  10.550 -0.8878  0.1994 -3.1456
  195MOL0     H26308   9.254  12.194  10.754  3.4133  3.0521 -3.0300
  195MOL0     H26309   9.473  11.764  10.657 -3.4541 -1.7107 -2.3017
  195MOL0     H26310   9.570  11.564  10.632 -0.5368 -0.6395 -1.2087
  195MOL0     H26311  10.346  10.525  10.022 -0.1295  0.3265 -0.5858
  195MOL0     H26312  10.347  10.455   9.767  2.3918 -1.4626 -2.4560
  195MOL0     H26313  10.781  10.425   9.306 -0.5655  2.8825  1.4733
  195MOL0     H26314  10.729  10.330   9.084  0.5886 -1.0497  0.4119
  195MOL0     H26315  10.364  10.086   9.023 -0.2431  2.0116  1.5278
  195MOL0     H26316  10.334  10.245   8.932  0.2751  1.2941  1.3450
  195MOL0     H26317  10.449  10.184   8.747  0.0724 -1.8265 -1.0230
  195MOL0     H26318  10.318  10.086   8.769 -1.2927 -1.8817  2.3573
  195MOL0     H26319  10.469   9.886   8.813  0.0224  0.0406 -0.0529
  195MOL0     H26320  10.598   9.997   8.865 -1.8740  1.7722  2.0133
  195MOL0     H26321  10.618  10.068   8.623 -1.6678  0.2992  0.9892
  195MOL0     H26322  10.509   9.942   8.577 -0.3283 -2.1838  0.5723
  195MOL0     H26323  10.853   9.731   8.677 -1.2170 -0.6973 -0.0524
  195MOL0     H26324  10.344  10.214   9.214 -0.7038  0.8026 -1.9772
  195MOL0     H26325  10.372  10.348   9.417 -0.8151  2.4621 -1.1089
  196MOL0     O26326   6.080   7.680   0.476  0.2810  0.2843 -1.0137
  196MOL0     C26327   6.071   7.644   0.355 -0.3494 -0.1406 -0.2112
  196MOL0     O26328   6.155   7.691   0.258 -0.9084 -0.6018  0.0940
  196MOL0     C26329   6.260   7.777   0.285  0.3107  0.6951  0.9101
  196MOL0     C26330   6.227   7.895   0.347  0.0359  0.3918 -0.4554
  196MOL0     C26331   6.318   8.002   0.359 -0.2505 -0.7818  0.9636
  196MOL0     C26332   6.454   7.974   0.327 -1.1216 -0.6271  0.5322
  196MOL0     O26333   6.562   8.057   0.333 -0.1353 -0.0848  0.1260
  196MOL0     C26334   6.543   8.154   0.442 -0.8504  0.6331  0.3593
  196MOL0     C26335   6.691   8.193   0.472 -0.3100 -0.6063 -0.7294
  196MOL0     C26336   6.771   8.223   0.352 -0.5807  0.2735 -0.6533
  196MOL0     C26337   6.867   8.347   0.372  0.1909  0.9980 -0.7547
  196MOL0     C26338   6.919   8.387   0.236 -0.6308  0.4507 -0.8668
  196MOL0     C26339   7.039   8.482   0.250 -0.2135 -0.2025 -0.4117
  196MOL0     C26340   7.179   8.414   0.249  0.1952 -0.1293  1.2036
  196MOL0     C26341   7.289   8.505   0.303 -0.2278 -0.2476 -0.3562
  196MOL0     N26342   7.286   8.529   0.450 -0.5922  0.0819  0.5155
  196MOL0     C26343   7.293   8.434   0.547  0.5523  0.1858 -0.2211
  196MOL0     C26344   7.252   8.490   0.669 -0.1458 -0.7804 -0.3843
  196MOL0     C26345   7.240   8.428   0.800 -0.0927  0.2715 -0.2295
  196MOL0     C26346   7.100   8.399   0.856  0.1195 -0.1117  0.3218
  196MOL0     C26347   7.020   8.522   0.894 -0.4328 -0.7386  0.2206
  196MOL0     C26348   6.907   8.489   0.991 -1.4993  1.0608 -0.1882
  196MOL0     O26349   6.802   8.416   0.929  0.0552 -0.0166 -0.7534
  196MOL0     C26350   6.695   8.367   1.007  1.0306 -0.6205  0.4318
  196MOL0     C26351   6.591   8.307   0.941 -0.6280 -0.3400 -0.5476
  196MOL0     C26352   6.474   8.260   0.998  0.0907 -0.5828 -0.0197
  196MOL0     C26353   6.376   8.189   0.912 -0.9971 -0.5275 -0.2755
  196MOL0     C26354   6.458   8.272   1.142 -0.1676  0.5795 -0.4632
  196MOL0     C26355   6.343   8.232   1.223 -0.8286  0.2149 -0.1445
  196MOL0     O26356   6.340   8.250   1.363 -1.0329 -1.2212 -0.3305
  196MOL0     C26357   6.243   8.197   1.440  0.8050  0.1509 -0.1459
  196MOL0     C26358   6.102   8.224   1.424 -0.4138  0.3770 -0.2049
  196MOL0     C26359   6.014   8.145   1.506  0.3959 -0.4740  0.7434
  196MOL0     C26360   6.058   8.062   1.608 -1.1349 -0.0046 -0.0860
  196MOL0     O26361   5.965   8.027   1.707 -0.0054 -0.2418 -0.2882
  196MOL0     C26362   6.011   7.938   1.806  0.3389  0.2333  0.1640
  196MOL0     C26363   5.915   7.955   1.926  0.3858  0.4941 -0.8149
  196MOL0     C26364   5.781   7.893   1.889  0.2520  0.2755  0.8874
  196MOL0     C26365   5.800   7.753   1.826  0.5474  0.2509  0.2848
  196MOL0     C26366   5.667   7.666   1.835 -0.8455 -0.1282 -0.2634
  196MOL0     C26367   5.699   7.532   1.769 -0.7220 -1.0404  0.3142
  196MOL0     C26368   5.586   7.423   1.768 -0.4131 -1.0769  0.1244
  196MOL0     C26369   5.446   7.462   1.715  1.1540  0.0204  0.2978
  196MOL0    Cl26370   5.466   7.537   1.552 -0.3637  0.0772  0.0181
  196MOL0     C26371   6.196   8.032   1.611  0.9313  0.1509  0.6617
  196MOL0     C26372   6.283   8.102   1.533  0.2748  0.0529  0.0120
  196MOL0     O26373   6.251   8.172   1.163 -0.3339  0.1511  0.0656
  196MOL0     C26374   6.562   8.344   1.214 -0.8667  0.0135  0.3093
  196MOL0     C26375   6.679   8.378   1.149  0.1309  0.4921  0.3693
  196MOL0     N26376   7.221   8.624   0.647  0.7590  0.1316  0.0391
  196MOL0     N26377   7.244   8.646   0.519  0.6418 -0.0932  0.2684
  196MOL0     C26378   6.487   7.851   0.262  0.1624 -0.3247 -0.1210
  196MOL0     C26379   6.392   7.757   0.233 -0.5147  0.2940 -0.3153
  196MOL0     C26380   5.973   7.544   0.324  0.0218 -0.4532 -0.6131
  196MOL0     C26381   5.847   7.566   0.383 -0.5777  0.0553 -0.5848
  196MOL0     C26382   5.737   7.478   0.370 -0.4261 -0.5524  0.9814
  196MOL0     C26383   5.753   7.369   0.284  0.2363  0.0720 -0.2205
  196MOL0     O26384   5.643   7.289   0.288  0.0501 -0.7724  0.1049
  196MOL0     C26385   5.622   7.219   0.173 -0.1370 -0.5515  0.6512
  196MOL0     C26386   5.508   7.116   0.184 -0.1863  0.6283 -0.2106
  196MOL0     C26387   5.481   7.064   0.042  0.5274  0.3548 -0.6695
  196MOL0     C26388   5.528   6.913   0.023  0.9301 -0.8889 -0.3808
  196MOL0     C26389   5.676   6.897   0.033 -0.3173  0.1971  0.3230
  196MOL0     C26390   5.793   6.884   0.035  0.3033 -0.3184 -0.0730
  196MOL0     C26391   5.872   7.355   0.208 -0.0097  0.7722 -1.1501
  196MOL0     C26392   5.980   7.439   0.233  0.0581 -0.4329 -0.4326
  196MOL0     H26393   6.128   7.909   0.390  1.0243 -0.9228  2.5785
  196MOL0     H26394   6.287   8.097   0.402 -0.9859  0.4512 -2.0231
  196MOL0     H26395   6.490   8.247   0.419 -0.5008  0.3370 -1.9438
  196MOL0     H26396   6.483   8.114   0.524  2.1728  0.2695  2.5763
  196MOL0     H26397   6.694   8.279   0.539 -4.6397 -0.2126 -0.7694
  196MOL0     H26398   6.737   8.109   0.525  1.7637  0.4174 -0.7898
  196MOL0     H26399   6.837   8.137   0.337  0.1572  0.7575 -0.2107
  196MOL0     H26400   6.703   8.246   0.269  0.0596  1.1199 -0.9593
  196MOL0     H26401   6.815   8.430   0.420  1.9791  0.3773  2.6074
  196MOL0     H26402   6.954   8.322   0.434  0.7636  0.3275 -1.7998
  196MOL0     H26403   6.949   8.300   0.176  0.3221 -0.6401  1.1143
  196MOL0     H26404   6.834   8.439   0.190 -0.7039  0.8135 -0.3274
  196MOL0     H26405   7.034   8.558   0.171  0.0925 -0.0749 -0.3079
  196MOL0     H26406   7.038   8.530   0.348  1.6500  0.5840 -0.7297
  196MOL0     H26407   7.185   8.328   0.316 -1.1456 -0.6191  0.7323
  196MOL0     H26408   7.212   8.395   0.147 -3.2579  4.5303 -1.1523
  196MOL0     H26409   7.278   8.597   0.246  3.3768  1.2684  1.0816
  196MOL0     H26410   7.392   8.471   0.286 -0.2480 -3.6013  4.2910
  196MOL0     H26411   7.317   8.328   0.549 -1.8025 -0.5147  4.3409
  196MOL0     H26412   7.284   8.331   0.775  0.4199  0.9010 -1.9186
  196MOL0     H26413   7.298   8.485   0.873  1.3373  2.6923 -3.0627
  196MOL0     H26414   7.118   8.348   0.952 -1.7582  0.4075  0.9903
  196MOL0     H26415   7.047   8.322   0.800 -0.1499  0.3163 -0.0130
  196MOL0     H26416   6.977   8.564   0.803 -0.8853 -1.6314  0.0069
  196MOL0     H26417   7.087   8.596   0.938 -2.6334  0.2716  2.0088
  196MOL0     H26418   6.870   8.586   1.027 -0.2101  0.3999  3.2873
  196MOL0     H26419   6.950   8.435   1.076 -1.7897  0.9647 -0.0993
  196MOL0     H26420   6.582   8.312   0.833 -0.1173 -0.1059 -0.5826
  196MOL0     H26421   6.413   8.180   0.810  0.2405  2.1243 -0.1603
  196MOL0     H26422   6.336   8.097   0.955 -1.0732 -0.1683  0.4388
  196MOL0     H26423   6.292   8.258   0.906 -2.9164 -2.5951  1.2907
  196MOL0     H26424   6.059   8.302   1.362  0.5596  0.8062 -0.3465
  196MOL0     H26425   5.906   8.153   1.497 -0.0693 -3.6975  2.1428
  196MOL0     H26426   6.023   7.833   1.776 -1.3078 -0.3767  1.4605
  196MOL0     H26427   6.108   7.971   1.844  0.3354  0.4677 -0.0352
  196MOL0     H26428   5.956   7.896   2.009 -0.5930 -1.7712 -1.8377
  196MOL0     H26429   5.904   8.056   1.965 -2.3172 -0.2687  0.7004
  196MOL0     H26430   5.729   7.950   1.812  1.7579  1.0701  0.4283
  196MOL0     H26431   5.718   7.888   1.978  0.7720 -1.1491  1.1976
  196MOL0     H26432   5.824   7.764   1.720 -1.1918 -1.2970 -0.3322
  196MOL0     H26433   5.881   7.708   1.884  0.1951  2.0595  2.2982
  196MOL0     H26434   5.589   7.711   1.772  0.8311  0.0730 -2.2858
  196MOL0     H26435   5.645   7.644   1.940 -2.4366  1.3756 -0.2182
  196MOL0     H26436   5.725   7.556   1.665 -2.6190 -1.5395 -0.3261
  196MOL0     H26437   5.781   7.478   1.816 -0.0320 -0.1916  0.1105
  196MOL0     H26438   5.594   7.379   1.868  1.6636 -1.3035 -0.1017
  196MOL0     H26439   5.627   7.336   1.716  0.4757 -0.8627  0.4471
  196MOL0     H26440   5.399   7.533   1.783 -1.0906 -0.7643 -0.3256
  196MOL0     H26441   5.390   7.367   1.712  0.8724  0.1953 -0.1177
  196MOL0     H26442   6.240   7.962   1.681 -3.2111 -2.1550  1.3081
  196MOL0     H26443   6.388   8.077   1.520  0.3012  0.5972 -0.9990
  196MOL0     H26444   6.561   8.338   1.322  1.0268  1.7223  0.4829
  196MOL0     H26445   6.761   8.408   1.214 -0.2548  0.6484  0.7903
  196MOL0     H26446   6.590   7.835   0.231  0.0648  1.1373 -1.2916
  196MOL0     H26447   6.423   7.675   0.170  1.1941  2.2168 -2.1301
  196MOL0     H26448   5.844   7.649   0.454  1.4905  0.3212 -0.7396
  196MOL0     H26449   5.646   7.507   0.422  0.4325  0.7903  1.8087
  196MOL0     H26450   5.593   7.296   0.101  1.7444  1.6658  2.1158
  196MOL0     H26451   5.711   7.159   0.150  0.0574 -0.1383  0.3091
  196MOL0     H26452   5.426   7.168   0.235  1.7797  1.8550  1.9259
  196MOL0     H26453   5.535   7.039   0.257 -2.2109  4.4844  5.3335
  196MOL0     H26454   5.517   7.131  -0.037  2.5429 -0.1072 -0.1962
  196MOL0     H26455   5.374   7.065   0.019  1.0059 -2.0358 -3.6767
  196MOL0     H26456   5.502   6.894  -0.081 -1.7129  3.0388 -0.6460
  196MOL0     H26457   5.477   6.836   0.081  1.8029 -1.4974 -0.3916
  196MOL0     H26458   5.899   6.882   0.029  0.4319 -1.2175  1.8855
  196MOL0     H26459   5.887   7.267   0.145 -3.0898 -1.8368  1.4441
  196MOL0     H26460   6.060   7.424   0.162  2.0896 -0.1824  1.6741
  197MOL0     O26461   5.587   8.479   8.317  0.3786 -0.4609 -0.2856
  197MOL0     C26462   5.640   8.554   8.235  0.3732  0.3240 -0.1005
  197MOL0     O26463   5.635   8.683   8.237 -0.0923  1.0543 -0.5886
  197MOL0     C26464   5.529   8.740   8.302  0.0325 -0.2504  0.2591
  197MOL0     C26465   5.556   8.834   8.401 -0.9595 -0.4343  1.4934
  197MOL0     C26466   5.454   8.885   8.479  0.8486 -0.2411  0.3708
  197MOL0     C26467   5.316   8.848   8.462 -0.4585  0.3923 -0.2650
  197MOL0     O26468   5.206   8.906   8.529 -0.4684 -0.1252  0.8240
  197MOL0     C26469   5.229   9.035   8.595  0.8376 -0.0567 -0.0991
  197MOL0     C26470   5.119   9.057   8.694 -0.2926  0.3302  1.0107
  197MOL0     C26471   4.991   9.112   8.625  0.1372 -0.1350  0.3143
  197MOL0     C26472   4.857   9.091   8.704  0.1626 -0.2437  0.4707
  197MOL0     C26473   4.735   9.162   8.642 -0.4617 -0.5944 -0.6247
  197MOL0     C26474   4.619   9.166   8.733  0.3401 -0.1053  0.9341
  197MOL0     C26475   4.634   9.213   8.877  0.2380  0.0397  0.9123
  197MOL0     C26476   4.487   9.211   8.939 -0.0184 -0.0684  0.6636
  197MOL0     N26477   4.438   9.074   8.959  0.7546  0.7076  1.0909
  197MOL0     C26478   4.445   9.014   9.081  0.1203  1.3619 -0.5360
  197MOL0     C26479   4.344   8.919   9.082  0.6366 -0.6557  1.0899
  197MOL0     C26480   4.300   8.832   9.193 -0.2494 -0.6484 -0.9674
  197MOL0     C26481   4.344   8.894   9.324  0.1056 -0.6388  0.3328
  197MOL0     C26482   4.288   8.821   9.445 -0.1171  0.5752 -0.2051
  197MOL0     C26483   4.146   8.878   9.472 -0.4498  0.1384  0.2715
  197MOL0     O26484   4.116   8.874   9.621 -0.2020  0.6928  0.2816
  197MOL0     C26485   4.061   8.762   9.677  0.1124  0.0610 -0.2065
  197MOL0     C26486   3.948   8.786   9.759  0.2598 -0.3196 -0.1769
  197MOL0     C26487   3.878   8.675   9.819  1.1817  0.2171 -0.5239
  197MOL0     C26488   3.788   8.704   9.932  0.2140 -1.1200  0.0079
  197MOL0     C26489   3.904   8.541   9.786 -1.3833  0.5121  0.4304
  197MOL0     C26490   3.834   8.419   9.829  0.8436 -0.4868  0.0894
  197MOL0     O26491   3.700   8.434   9.883 -0.6794  0.8417  0.8090
  197MOL0     C26492   3.596   8.348   9.866 -0.0717 -0.4460 -1.4253
  197MOL0     C26493   3.603   8.214   9.835  1.0162  0.3319 -0.4850
  197MOL0     C26494   3.481   8.150   9.821 -0.0472  0.0469  0.2253
  197MOL0     C26495   3.359   8.198   9.827 -0.2474  0.2100  0.8726
  197MOL0     O26496   3.243   8.141   9.799 -0.3184  0.6132 -1.0902
  197MOL0     C26497   3.237   8.021   9.729  0.7394 -0.8782 -0.2941
  197MOL0     C26498   3.078   7.993   9.737  0.0989  0.6097  0.3798
  197MOL0     C26499   3.049   7.860   9.666  0.0455  1.1977  0.2142
  197MOL0     C26500   3.093   7.862   9.515 -0.6675  0.1185 -0.5432
  197MOL0     C26501   3.044   7.750   9.427 -1.1741 -0.2233  0.1588
  197MOL0     C26502   3.064   7.770   9.272 -0.5618  0.5045  0.5765
  197MOL0     C26503   2.970   7.673   9.196  1.5366 -0.6665 -0.4096
  197MOL0     C26504   2.996   7.680   9.054 -0.5513 -0.4773  0.5441
  197MOL0    Cl26505   3.006   7.836   8.962  0.8782 -0.0531 -0.6761
  197MOL0     C26506   3.351   8.333   9.859  1.3707 -0.3965  0.3198
  197MOL0     C26507   3.469   8.408   9.870  0.1090 -0.4402  0.4372
  197MOL0     O26508   3.889   8.319   9.809  0.5794  0.3879 -0.2109
  197MOL0     C26509   4.007   8.525   9.682  0.0933 -0.3014  0.5945
  197MOL0     C26510   4.090   8.628   9.645 -0.9739  0.4114  0.0090
  197MOL0     N26511   4.274   8.933   8.966  0.6785  0.4138 -0.2114
  197MOL0     N26512   4.330   9.028   8.891 -0.2062 -0.0501 -0.1240
  197MOL0     C26513   5.288   8.759   8.359 -0.6117  0.0586  0.1798
  197MOL0     C26514   5.392   8.706   8.281  0.5113 -0.4387 -0.6653
  197MOL0     C26515   5.696   8.474   8.125 -0.3601 -0.0121  0.2161
  197MOL0     C26516   5.683   8.334   8.112  0.9430  0.1305 -1.2536
  197MOL0     C26517   5.737   8.259   8.004 -0.1125 -0.3769 -0.3022
  197MOL0     C26518   5.806   8.329   7.902 -0.1472  1.2924  0.1686
  197MOL0     O26519   5.839   8.261   7.789  0.5428  0.2562  0.1447
  197MOL0     C26520   5.924   8.309   7.683  1.3881 -0.5286  0.2922
  197MOL0     C26521   6.001   8.190   7.626  0.6119 -0.6141 -0.7375
  197MOL0     C26522   6.150   8.174   7.669 -0.0962  0.1325 -0.9587
  197MOL0     C26523   6.213   8.038   7.636  0.1741  0.4988  0.3001
  197MOL0     C26524   6.341   8.026   7.699  0.4944  0.1022 -0.5858
  197MOL0     C26525   6.457   8.010   7.728  0.2974  0.3594  0.5433
  197MOL0     C26526   5.829   8.466   7.915 -0.7582 -0.4140 -0.2485
  197MOL0     C26527   5.770   8.537   8.021  0.7591 -0.4385 -0.5437
  197MOL0     H26528   5.663   8.848   8.414 -0.2507 -0.5298 -2.7698
  197MOL0     H26529   5.486   8.946   8.563 -0.6858  0.8813  0.1628
  197MOL0     H26530   5.323   9.037   8.651  0.4937  1.0530  0.4569
  197MOL0     H26531   5.236   9.118   8.524  0.8900 -0.7319 -0.9028
  197MOL0     H26532   5.111   8.957   8.737 -1.8740 -0.1265 -0.2477
  197MOL0     H26533   5.161   9.128   8.766  2.4110 -2.3845  2.3288
  197MOL0     H26534   4.987   9.221   8.620 -4.5272 -0.0280  1.1810
  197MOL0     H26535   4.973   9.068   8.526 -2.6938  2.3497 -0.4282
  197MOL0     H26536   4.834   8.985   8.709  1.4521 -0.4892  3.8679
  197MOL0     H26537   4.885   9.136   8.800 -0.3530  2.4513 -0.5526
  197MOL0     H26538   4.764   9.267   8.631  1.1487 -0.8386  0.8261
  197MOL0     H26539   4.714   9.109   8.548 -0.7689  1.0072 -1.4833
  197MOL0     H26540   4.540   9.226   8.687  0.8928 -0.8691 -1.1351
  197MOL0     H26541   4.586   9.061   8.734 -1.5089  0.4058 -0.4811
  197MOL0     H26542   4.704   9.144   8.926  0.2961  0.1391  0.9719
  197MOL0     H26543   4.678   9.313   8.872  2.4308 -0.8937  0.3062
  197MOL0     H26544   4.430   9.265   8.863  2.8416 -0.9393 -2.3625
  197MOL0     H26545   4.479   9.275   9.027 -1.0755  2.6625 -1.2843
  197MOL0     H26546   4.513   9.028   9.165  1.4355 -0.6455 -1.1883
  197MOL0     H26547   4.191   8.847   9.191 -0.0651  1.0437 -3.3950
  197MOL0     H26548   4.306   8.724   9.183  2.2014 -0.9422  2.2954
  197MOL0     H26549   4.326   9.001   9.321  1.2287 -0.4575 -0.5990
  197MOL0     H26550   4.451   8.875   9.340  0.2664  2.1221  3.8592
  197MOL0     H26551   4.354   8.846   9.528  0.7362 -4.1350  0.8099
  197MOL0     H26552   4.298   8.713   9.430 -0.4342  0.5154  0.0084
  197MOL0     H26553   4.074   8.814   9.419 -0.0627  0.3104 -0.4674
  197MOL0     H26554   4.142   8.980   9.433 -1.7894 -0.2388 -0.6588
  197MOL0     H26555   3.920   8.889   9.775  1.7642  0.3642 -1.6873
  197MOL0     H26556   3.699   8.763   9.906  2.0684  2.6452  1.3738
  197MOL0     H26557   3.755   8.619   9.992  0.8534 -1.2941  0.1169
  197MOL0     H26558   3.850   8.769   9.995  0.0655 -1.4582  0.5049
  197MOL0     H26559   3.694   8.154   9.833  0.8196  0.0389 -0.5417
  197MOL0     H26560   3.489   8.048   9.784  1.9472  0.3866 -0.4058
  197MOL0     H26561   3.274   8.043   9.628  1.7005 -0.4216  0.1450
  197MOL0     H26562   3.291   7.938   9.775  4.3104  0.3784 -1.8342
  197MOL0     H26563   3.054   7.993   9.844  1.9777  2.2687  0.8644
  197MOL0     H26564   3.015   8.072   9.695  1.7127  0.4575 -2.6378
  197MOL0     H26565   2.941   7.843   9.659  0.2727 -0.2678 -0.0294
  197MOL0     H26566   3.086   7.776   9.725 -0.7404  2.8441  3.2577
  197MOL0     H26567   3.072   7.959   9.468  0.6897 -0.4898 -2.4968
  197MOL0     H26568   3.199   7.841   9.525 -0.6753  1.0342  2.8168
  197MOL0     H26569   2.937   7.731   9.435 -0.8499 -1.9407  0.8939
  197MOL0     H26570   3.091   7.653   9.449 -2.2655 -0.5140  1.2751
  197MOL0     H26571   3.053   7.874   9.241 -0.2497  0.3247 -0.1448
  197MOL0     H26572   3.171   7.752   9.260 -0.9734 -4.1477  1.5735
  197MOL0     H26573   2.869   7.710   9.214  1.7112 -0.7780  0.9530
  197MOL0     H26574   2.982   7.567   9.221 -1.5334 -1.6591 -2.6684
  197MOL0     H26575   2.930   7.610   9.002 -2.3170  2.8183 -2.0827
  197MOL0     H26576   3.096   7.635   9.048 -1.5809 -2.9910  1.1243
  197MOL0     H26577   3.249   8.363   9.882  0.6276 -1.6980 -1.0846
  197MOL0     H26578   3.474   8.516   9.885  3.6077  0.0474 -2.6814
  197MOL0     H26579   4.022   8.435   9.623 -0.6963 -1.0528  1.5186
  197MOL0     H26580   4.167   8.601   9.573  2.0111 -0.4334  3.2036
  197MOL0     H26581   5.190   8.737   8.317  0.0109 -1.9113 -0.3661
  197MOL0     H26582   5.377   8.642   8.195  3.3697 -1.5538 -0.4266
  197MOL0     H26583   5.624   8.280   8.185  0.7281 -1.6550 -2.6734
  197MOL0     H26584   5.716   8.152   8.000  0.1857 -0.3953 -2.5679
  197MOL0     H26585   5.853   8.336   7.604  0.5390 -6.9300 -1.7882
  197MOL0     H26586   5.993   8.386   7.719  0.1095  0.8286 -0.0989
  197MOL0     H26587   6.002   8.216   7.520 -2.2585  4.0778  0.1070
  197MOL0     H26588   5.946   8.098   7.647 -0.6697  0.4973  1.0218
  197MOL0     H26589   6.170   8.214   7.769  1.1344  0.1454 -1.1916
  197MOL0     H26590   6.206   8.240   7.602  0.5917  0.8015  0.2397
  197MOL0     H26591   6.232   8.022   7.530 -0.5879 -1.3508  0.4031
  197MOL0     H26592   6.148   7.961   7.679 -0.5733  2.8627  3.8239
  197MOL0     H26593   6.556   8.019   7.769 -1.0935  2.3454  3.8583
  197MOL0     H26594   5.898   8.518   7.849  1.0885 -4.0526 -1.4585
  197MOL0     H26595   5.795   8.642   8.025  0.0005 -0.2430 -0.7535
  198MOL0     O26596   7.848   6.785   4.160  0.3070  0.2113 -0.9041
  198MOL0     C26597   7.846   6.766   4.281  0.2146  0.4344  0.1549
  198MOL0     O26598   7.944   6.734   4.368  0.0104 -1.1791  0.3335
  198MOL0     C26599   8.053   6.683   4.303 -0.4703 -0.5371 -0.6003
  198MOL0     C26600   8.180   6.720   4.349 -0.7926  0.5429  0.7085
  198MOL0     C26601   8.303   6.657   4.318 -0.3999 -0.3486 -0.1657
  198MOL0     C26602   8.290   6.551   4.234  0.3448  0.8205  0.1260
  198MOL0     O26603   8.401   6.516   4.174 -1.4192  1.2436 -0.0977
  198MOL0     C26604   8.443   6.382   4.202  0.2253  0.5356 -0.4195
  198MOL0     C26605   8.517   6.373   4.333 -0.2101 -0.4968 -0.0722
  198MOL0     C26606   8.556   6.226   4.356  0.8241 -0.0038 -0.5306
  198MOL0     C26607   8.438   6.127   4.378 -0.2044  0.4419  0.8542
  198MOL0     C26608   8.502   5.995   4.400 -0.7623  0.5682 -0.2149
  198MOL0     C26609   8.393   5.883   4.408 -0.0913 -0.7120  0.7909
  198MOL0     C26610   8.453   5.746   4.433  0.8489  0.5222  0.8744
  198MOL0     C26611   8.480   5.671   4.316  0.1797 -0.4582 -0.3554
  198MOL0     N26612   8.555   5.547   4.345  0.1851  0.6784 -0.3820
  198MOL0     C26613   8.694   5.536   4.369  0.3891  0.7878 -0.5656
  198MOL0     C26614   8.720   5.404   4.370  0.0287  1.0972  0.2539
  198MOL0     C26615   8.861   5.340   4.393  0.4737  0.1548  0.2402
  198MOL0     C26616   8.968   5.442   4.346 -0.9555 -0.1171  0.3853
  198MOL0     C26617   9.113   5.401   4.390 -0.4218 -0.5776  0.2992
  198MOL0     C26618   9.151   5.254   4.372 -0.0960  0.1438 -0.2280
  198MOL0     O26619   9.294   5.234   4.392 -0.7637 -0.8270 -0.4445
  198MOL0     C26620   9.342   5.261   4.516  0.7742  1.1021 -0.6287
  198MOL0     C26621   9.339   5.161   4.612 -0.1673 -0.5364 -1.8949
  198MOL0     C26622   9.410   5.185   4.735 -0.8417  0.2548  0.6605
  198MOL0     C26623   9.424   5.061   4.824 -0.8144 -0.3722  0.1405
  198MOL0     C26624   9.453   5.320   4.765 -0.2350  1.2975 -0.1824
  198MOL0     C26625   9.480   5.371   4.905 -0.0608 -0.6374  0.5224
  198MOL0     O26626   9.474   5.280   5.006  0.9087 -0.6060  0.1581
  198MOL0     C26627   9.453   5.324   5.135  0.0825 -0.7512  0.4845
  198MOL0     C26628   9.477   5.238   5.237  0.4174  0.1519 -0.5425
  198MOL0     C26629   9.458   5.271   5.371  0.3265  0.3638 -0.2397
  198MOL0     C26630   9.402   5.394   5.407  0.1048  1.0336 -0.5765
  198MOL0     O26631   9.401   5.427   5.544  0.1855 -0.2050  0.3242
  198MOL0     C26632   9.438   5.561   5.581 -0.6974 -0.1246  1.2506
  198MOL0     C26633   9.440   5.581   5.739  0.6110  0.8473  0.3528
  198MOL0     C26634   9.448   5.718   5.793 -0.6397 -1.3184 -0.0032
  198MOL0     C26635   9.362   5.729   5.921  0.9939  0.5045 -0.4320
  198MOL0     C26636   9.386   5.859   6.001 -0.4515 -0.7858 -0.1754
  198MOL0     C26637   9.485   5.858   6.122 -0.1460 -0.0819  0.1540
  198MOL0     C26638   9.447   5.745   6.228 -0.4407  0.2105  0.3729
  198MOL0     C26639   9.507   5.773   6.363 -0.0977  0.2670 -0.8110
  198MOL0    Cl26640   9.634   5.642   6.353  0.1126 -0.1517 -0.2560
  198MOL0     C26641   9.365   5.481   5.305  0.6890 -1.0248  0.1995
  198MOL0     C26642   9.384   5.438   5.169 -0.0987 -1.1899 -0.0258
  198MOL0     O26643   9.492   5.495   4.912 -0.1255  0.1670  0.7221
  198MOL0     C26644   9.473   5.407   4.658  0.2399 -0.5584 -0.3686
  198MOL0     C26645   9.419   5.379   4.535  0.6111  0.0620 -0.5152
  198MOL0     N26646   8.603   5.327   4.351 -1.1052  0.3092 -0.1118
  198MOL0     N26647   8.499   5.418   4.337 -0.6468  0.1127 -0.9163
  198MOL0     C26648   8.170   6.503   4.189  0.5604  0.5520 -0.0727
  198MOL0     C26649   8.050   6.573   4.222  0.6771 -0.0292 -0.6251
  198MOL0     C26650   7.721   6.792   4.355 -0.3971 -0.8578 -0.0652
  198MOL0     C26651   7.602   6.819   4.286  0.0956 -0.4324  0.6967
  198MOL0     C26652   7.480   6.836   4.350  0.1270  0.4936 -0.4345
  198MOL0     C26653   7.475   6.830   4.491  1.0372  0.3106 -0.5682
  198MOL0     O26654   7.352   6.842   4.562 -0.8284 -0.7076  0.0916
  198MOL0     C26655   7.318   6.980   4.571 -0.3417  1.0382  0.6467
  198MOL0     C26656   7.186   6.981   4.650 -0.7095  0.4218 -0.6595
  198MOL0     C26657   7.061   6.972   4.556  1.2178 -0.7532  0.2429
  198MOL0     C26658   6.945   7.028   4.637  0.7274  0.3048 -0.1555
  198MOL0     C26659   6.931   7.173   4.652 -0.5432 -0.5706 -0.0504
  198MOL0     C26660   6.928   7.289   4.667  0.3086 -0.2003 -0.2265
  198MOL0     C26661   7.595   6.822   4.568 -0.4065 -0.9863  1.3859
  198MOL0     C26662   7.718   6.808   4.493 -0.3025 -0.0485 -0.2101
  198MOL0     H26663   8.192   6.806   4.414 -0.4753  0.8609  0.2287
  198MOL0     H26664   8.395   6.700   4.357 -0.9161 -2.2871  3.7349
  198MOL0     H26665   8.353   6.320   4.211 -0.3210  1.4751  1.1615
  198MOL0     H26666   8.506   6.350   4.119  1.9500  0.4064  0.8648
  198MOL0     H26667   8.600   6.444   4.331  0.3462 -1.0920  1.0282
  198MOL0     H26668   8.456   6.410   4.416  0.2603  0.8419 -0.2901
  198MOL0     H26669   8.628   6.192   4.281  0.1585  0.2001 -1.2689
  198MOL0     H26670   8.598   6.229   4.457 -0.4599 -1.2294  0.0682
  198MOL0     H26671   8.375   6.154   4.464 -0.1935 -0.5830  1.1988
  198MOL0     H26672   8.372   6.122   4.291 -2.0677  2.7682  2.0190
  198MOL0     H26673   8.569   5.973   4.316  0.5585 -0.8021  1.1613
  198MOL0     H26674   8.560   5.991   4.492 -2.2296  2.0213  0.8435
  198MOL0     H26675   8.330   5.902   4.496 -0.8551  1.4586 -0.1517
  198MOL0     H26676   8.324   5.881   4.323  0.2323 -0.7076  0.5251
  198MOL0     H26677   8.541   5.771   4.493  0.9953  3.0278 -0.2311
  198MOL0     H26678   8.379   5.696   4.496 -4.3190  3.8476 -1.8269
  198MOL0     H26679   8.543   5.736   4.255  0.0452  0.3138  0.3017
  198MOL0     H26680   8.389   5.637   4.265 -1.0026  0.6904  0.8931
  198MOL0     H26681   8.764   5.618   4.384  1.2883 -0.4075  2.4127
  198MOL0     H26682   8.893   5.319   4.495  2.3846  0.8114 -0.1904
  198MOL0     H26683   8.872   5.244   4.341  1.2272 -0.3752  1.3588
  198MOL0     H26684   8.951   5.540   4.391 -2.0083  1.4951 -3.1885
  198MOL0     H26685   8.973   5.455   4.237 -2.7789 -0.6118  0.2210
  198MOL0     H26686   9.137   5.423   4.494  1.2713 -2.6093  0.4099
  198MOL0     H26687   9.185   5.463   4.337  0.2275 -2.0000 -0.5361
  198MOL0     H26688   9.115   5.214   4.277 -0.6588  0.0340  0.0302
  198MOL0     H26689   9.097   5.207   4.455 -2.9323  0.2221 -1.9159
  198MOL0     H26690   9.280   5.075   4.580 -0.0756 -0.7562 -1.4722
  198MOL0     H26691   9.517   5.013   4.793  0.6555  2.5828 -0.3341
  198MOL0     H26692   9.428   5.078   4.932 -1.1931  0.5736  0.0080
  198MOL0     H26693   9.346   4.986   4.807 -2.0164  1.1100 -1.0471
  198MOL0     H26694   9.534   5.152   5.204 -1.1029 -1.5037  0.9638
  198MOL0     H26695   9.498   5.209   5.451  2.2785  1.6466 -0.1336
  198MOL0     H26696   9.537   5.585   5.540 -0.9666 -0.1125  0.6070
  198MOL0     H26697   9.366   5.625   5.531 -0.4712 -2.5330 -2.5876
  198MOL0     H26698   9.349   5.530   5.770 -0.6946  2.4447 -0.7017
  198MOL0     H26699   9.527   5.524   5.774 -2.2764 -3.2062  1.7281
  198MOL0     H26700   9.417   5.796   5.723 -0.1243  2.0900  3.2816
  198MOL0     H26701   9.551   5.743   5.822 -0.6604  2.6529 -2.5923
  198MOL0     H26702   9.256   5.749   5.898  0.9372  5.8823  2.8726
  198MOL0     H26703   9.375   5.647   5.992  0.1838  1.5794  1.0166
  198MOL0     H26704   9.289   5.888   6.042 -2.7139 -2.6511 -3.7630
  198MOL0     H26705   9.421   5.928   5.924  1.9933 -0.4406  1.1392
  198MOL0     H26706   9.588   5.840   6.091 -0.2351 -2.0121  0.8341
  198MOL0     H26707   9.472   5.953   6.174 -0.5211  0.3600 -0.7254
  198MOL0     H26708   9.475   5.650   6.182  0.6565  1.3362 -1.4037
  198MOL0     H26709   9.338   5.748   6.220 -0.4090 -0.5610 -0.4563
  198MOL0     H26710   9.431   5.757   6.440  0.3268 -1.7514 -0.7636
  198MOL0     H26711   9.539   5.876   6.383 -2.3017  0.8375  0.0181
  198MOL0     H26712   9.313   5.574   5.328  0.5372 -1.1625  0.4102
  198MOL0     H26713   9.334   5.490   5.087  0.9858 -1.3846 -0.8298
  198MOL0     H26714   9.527   5.500   4.676 -0.2509 -0.7801  3.0482
  198MOL0     H26715   9.432   5.442   4.447 -2.2262 -2.2932 -2.8670
  198MOL0     H26716   8.168   6.421   4.119 -0.1295  1.5184 -1.2123
  198MOL0     H26717   7.951   6.542   4.189  1.3459 -3.0436 -0.1147
  198MOL0     H26718   7.592   6.817   4.177  1.0213 -0.3597  0.6053
  198MOL0     H26719   7.396   6.872   4.293  0.8391  0.3474 -1.5983
  198MOL0     H26720   7.395   7.034   4.628  0.6899  1.3387 -0.9789
  198MOL0     H26721   7.306   7.025   4.472 -1.6853  1.6510  1.0654
  198MOL0     H26722   7.185   7.067   4.717  3.4005 -0.9745  1.5274
  198MOL0     H26723   7.190   6.893   4.714  1.3104  1.7527  1.1563
  198MOL0     H26724   7.031   6.873   4.522 -0.0576  0.5762 -2.9120
  198MOL0     H26725   7.067   7.040   4.470 -1.3178 -0.3152  0.3414
  198MOL0     H26726   6.932   6.988   4.738 -1.2667  2.2101  0.4159
  198MOL0     H26727   6.854   7.013   4.578  0.1985  1.1276  0.4321
  198MOL0     H26728   6.916   7.395   4.678 -0.1547  0.0712 -2.7777
  198MOL0     H26729   7.603   6.795   4.673 -2.0740  0.2089  1.8587
  198MOL0     H26730   7.803   6.797   4.559  0.0015  0.3795 -0.5274
  199MOL0     O26731   3.632   7.992   6.687  0.1995  0.9926 -0.1586
  199MOL0     C26732   3.555   8.036   6.601  0.7901 -0.7377 -0.6522
  199MOL0     O26733   3.434   7.991   6.555  0.0892  0.5425  0.1183
  199MOL0     C26734   3.378   7.870   6.579 -0.2241 -1.1781 -0.4146
  199MOL0     C26735   3.249   7.857   6.526 -0.3170  0.0731 -0.2695
  199MOL0     C26736   3.184   7.730   6.527  0.1229  0.2951 -0.5379
  199MOL0     C26737   3.253   7.615   6.586  0.4780 -0.0665  0.7803
  199MOL0     O26738   3.193   7.494   6.563 -0.5220  0.3822 -0.2296
  199MOL0     C26739   3.246   7.371   6.611  0.3249  0.0527  0.2596
  199MOL0     C26740   3.188   7.346   6.749  0.6444 -0.0358  1.5274
  199MOL0     C26741   3.249   7.214   6.808  0.3196 -0.7003 -0.1957
  199MOL0     C26742   3.170   7.176   6.933  0.5632  1.2024 -0.9295
  199MOL0     C26743   3.232   7.064   7.020  0.2087 -0.3014  0.0920
  199MOL0     C26744   3.114   6.990   7.088 -0.5708 -0.7007 -0.3555
  199MOL0     C26745   3.188   6.892   7.181  0.7658 -0.1312 -0.1764
  199MOL0     C26746   3.234   6.964   7.315  0.4622 -0.5774 -0.5479
  199MOL0     N26747   3.250   6.861   7.417  0.0862 -0.0969 -0.1244
  199MOL0     C26748   3.284   6.895   7.542 -0.2232  0.1186  1.0662
  199MOL0     C26749   3.261   6.780   7.615 -0.1748  0.3421 -0.1401
  199MOL0     C26750   3.299   6.751   7.754  0.6788 -0.1871  1.2563
  199MOL0     C26751   3.411   6.834   7.807  0.7259 -0.0333 -0.2313
  199MOL0     C26752   3.432   6.780   7.953  0.9508 -0.4644  0.0581
  199MOL0     C26753   3.564   6.805   8.005 -0.9774 -0.0550 -0.2567
  199MOL0     O26754   3.605   6.946   7.999  0.0885 -0.4944  0.2969
  199MOL0     C26755   3.730   6.975   8.047  0.8085 -0.4446 -0.3380
  199MOL0     C26756   3.819   6.890   8.124  0.2645 -0.2374  0.2177
  199MOL0     C26757   3.927   6.938   8.193  0.0396  0.1752 -0.8739
  199MOL0     C26758   3.982   6.848   8.302 -0.3597  0.0540  1.1165
  199MOL0     C26759   3.980   7.062   8.154 -0.5519 -0.6313  0.2445
  199MOL0     C26760   4.105   7.108   8.199  0.9643  0.5610  0.4973
  199MOL0     O26761   4.109   7.236   8.239 -0.6047  0.4159  0.1103
  199MOL0     C26762   4.225   7.295   8.269 -0.4497  0.4670  1.1515
  199MOL0     C26763   4.211   7.438   8.277  0.5448  0.2124  0.2040
  199MOL0     C26764   4.324   7.527   8.279 -0.2736  0.1474  1.3152
  199MOL0     C26765   4.454   7.472   8.292 -0.2000  0.0775 -0.3407
  199MOL0     O26766   4.560   7.553   8.303 -0.1240 -0.0703  0.0100
  199MOL0     C26767   4.684   7.530   8.378  0.0949 -1.0826  0.6876
  199MOL0     C26768   4.813   7.586   8.318 -0.2789 -0.8993  0.3842
  199MOL0     C26769   4.864   7.548   8.179 -0.6735 -0.2060  0.0341
  199MOL0     C26770   4.767   7.586   8.066 -0.2227 -0.0831 -0.4205
  199MOL0     C26771   4.835   7.588   7.925  0.7097  0.0728 -0.0077
  199MOL0     C26772   4.732   7.606   7.818  0.5514  0.2310  0.0962
  199MOL0     C26773   4.771   7.626   7.671 -0.1107  1.1883  0.1717
  199MOL0     C26774   4.888   7.532   7.646  0.5724 -0.3497  0.3119
  199MOL0    Cl26775   4.955   7.575   7.490 -0.3413  0.1205 -0.1606
  199MOL0     C26776   4.471   7.339   8.288 -0.2162  0.2406  0.1526
  199MOL0     C26777   4.363   7.249   8.271  0.5258  0.9700  0.1210
  199MOL0     O26778   4.197   7.028   8.200  0.2147  0.2485 -0.1232
  199MOL0     C26779   3.907   7.136   8.056 -0.2059 -0.3420 -0.1838
  199MOL0     C26780   3.784   7.095   8.009  0.5856 -0.5555  1.2149
  199MOL0     N26781   3.216   6.678   7.535  0.0707 -0.4526  0.4794
  199MOL0     N26782   3.225   6.725   7.417 -0.5749  0.1509  0.2628
  199MOL0     C26783   3.362   7.644   6.666  0.5470 -0.3038  0.1055
  199MOL0     C26784   3.430   7.764   6.658 -0.3012  0.5380  0.7993
  199MOL0     C26785   3.579   8.178   6.551 -0.8767  0.1351  0.4005
  199MOL0     C26786   3.708   8.230   6.559  0.1447 -1.1382 -0.2953
  199MOL0     C26787   3.742   8.356   6.519  0.3295 -0.4881  0.3565
  199MOL0     C26788   3.651   8.437   6.444 -0.0338  0.3727 -0.0949
  199MOL0     O26789   3.669   8.564   6.393 -0.0547 -0.7704 -0.6450
  199MOL0     C26790   3.777   8.635   6.461 -0.5312 -0.4919  1.3428
  199MOL0     C26791   3.905   8.628   6.384 -0.6802  0.1960  0.9182
  199MOL0     C26792   3.869   8.642   6.238  0.6644 -0.6154 -0.1605
  199MOL0     C26793   3.983   8.657   6.141  0.4366  0.2910  0.0368
  199MOL0     C26794   4.024   8.796   6.154  0.4653  0.1878 -0.3235
  199MOL0     C26795   4.060   8.908   6.142  0.6619  0.3060 -0.7405
  199MOL0     C26796   3.527   8.379   6.430  0.4221 -0.5606  0.1043
  199MOL0     C26797   3.490   8.260   6.487  0.0190 -0.5724  0.3513
  199MOL0     H26798   3.206   7.946   6.482  0.1380  2.1255  3.0799
  199MOL0     H26799   3.087   7.711   6.482 -1.1568 -4.8481  3.3753
  199MOL0     H26800   3.196   7.304   6.541  0.1875 -0.8847  1.2317
  199MOL0     H26801   3.355   7.365   6.598  0.4073 -3.0920  1.3883
  199MOL0     H26802   3.191   7.426   6.824 -0.6681  0.9471  0.5909
  199MOL0     H26803   3.082   7.332   6.725  1.2928  0.0421 -1.8694
  199MOL0     H26804   3.243   7.141   6.727  0.9628  0.4015 -1.2698
  199MOL0     H26805   3.350   7.228   6.847 -0.0344  0.5978  0.3253
  199MOL0     H26806   3.155   7.266   6.993 -2.4695  0.2217  0.0113
  199MOL0     H26807   3.066   7.150   6.911  0.2868  2.2122 -0.8957
  199MOL0     H26808   3.285   6.989   6.961 -2.0390 -1.6310 -0.3480
  199MOL0     H26809   3.301   7.105   7.094  1.9266 -1.0687 -1.0289
  199MOL0     H26810   3.052   7.062   7.142 -3.6177 -1.0725 -3.0418
  199MOL0     H26811   3.051   6.930   7.022 -1.5771  0.1778 -0.2117
  199MOL0     H26812   3.112   6.818   7.209  2.5990 -1.5217  1.3678
  199MOL0     H26813   3.268   6.837   7.133  1.0276 -0.5438  0.7099
  199MOL0     H26814   3.165   7.040   7.354  0.6827 -1.5290  1.8513
  199MOL0     H26815   3.322   7.028   7.300 -0.4002  0.8213  0.1407
  199MOL0     H26816   3.335   6.986   7.571  3.0525 -0.6726 -1.6562
  199MOL0     H26817   3.211   6.787   7.808  0.7479 -0.1135  1.3205
  199MOL0     H26818   3.313   6.643   7.764  0.8279 -0.1629  1.3023
  199MOL0     H26819   3.386   6.940   7.815  1.4261 -0.0278  3.0015
  199MOL0     H26820   3.499   6.820   7.743 -0.4978  0.8349 -2.2245
  199MOL0     H26821   3.419   6.672   7.962  3.8597 -0.7717  1.8327
  199MOL0     H26822   3.364   6.828   8.024  3.8779  0.6926  2.2818
  199MOL0     H26823   3.644   6.743   7.963  1.4114 -0.4909  4.3687
  199MOL0     H26824   3.564   6.768   8.107 -0.7403 -4.4708 -1.6474
  199MOL0     H26825   3.781   6.793   8.153  0.6413  0.0102  1.6222
  199MOL0     H26826   3.982   6.749   8.255 -0.1567  0.6776 -0.2637
  199MOL0     H26827   4.082   6.872   8.339 -0.0585 -1.4544  1.3195
  199MOL0     H26828   3.915   6.835   8.387  1.4551 -1.7309  2.3583
  199MOL0     H26829   4.112   7.481   8.276  1.9292  3.6790  0.2850
  199MOL0     H26830   4.308   7.632   8.261 -1.1072 -0.1367  0.3116
  199MOL0     H26831   4.674   7.575   8.477 -1.9172  0.4091 -0.1140
  199MOL0     H26832   4.700   7.422   8.382  0.8674 -1.0938 -1.4139
  199MOL0     H26833   4.821   7.695   8.327 -0.6053 -0.9403  1.2655
  199MOL0     H26834   4.883   7.548   8.393 -0.2011 -2.6749 -0.5345
  199MOL0     H26835   4.869   7.439   8.182 -0.3890 -0.2215 -0.8591
  199MOL0     H26836   4.965   7.587   8.160 -1.3590  1.8247  0.3653
  199MOL0     H26837   4.673   7.532   8.078 -2.0754  3.0820  0.7744
  199MOL0     H26838   4.732   7.689   8.080  0.1358  0.1480 -1.1704
  199MOL0     H26839   4.889   7.493   7.929 -1.5775 -1.3011  4.3391
  199MOL0     H26840   4.909   7.668   7.927  2.4085 -1.4348  2.2099
  199MOL0     H26841   4.660   7.525   7.834  0.5987  0.0818 -0.4260
  199MOL0     H26842   4.684   7.700   7.846  1.7043  2.0249 -3.3344
  199MOL0     H26843   4.801   7.730   7.655  1.7173  1.2718  3.2814
  199MOL0     H26844   4.689   7.587   7.610 -0.1754 -1.4687  1.7834
  199MOL0     H26845   4.844   7.432   7.638 -1.4485  0.4100  1.2948
  199MOL0     H26846   4.971   7.540   7.717 -0.7910 -3.1266  2.4482
  199MOL0     H26847   4.568   7.295   8.302  0.1726  1.7874  3.1180
  199MOL0     H26848   4.394   7.145   8.272 -1.7611  0.2364  1.9232
  199MOL0     H26849   3.946   7.235   8.035  2.1924 -1.6818 -2.6374
  199MOL0     H26850   3.724   7.153   7.940  1.9131  1.2603  1.5190
  199MOL0     H26851   3.416   7.563   6.713  2.6150  1.4204  0.8597
  199MOL0     H26852   3.519   7.775   6.719 -0.2958  2.1354  0.5205
  199MOL0     H26853   3.772   8.175   6.627  1.4124 -1.3219 -1.5824
  199MOL0     H26854   3.844   8.388   6.538 -0.2438  0.8034  1.4431
  199MOL0     H26855   3.730   8.730   6.490 -2.6884 -1.8931  2.7911
  199MOL0     H26856   3.807   8.600   6.560 -1.1303 -0.7055  1.4519
  199MOL0     H26857   3.947   8.529   6.403  1.9103  1.6192  3.2719
  199MOL0     H26858   3.976   8.704   6.417 -1.6591  1.0511  1.1279
  199MOL0     H26859   3.796   8.718   6.210  0.2842 -0.3824  1.3645
  199MOL0     H26860   3.832   8.543   6.210  2.2267 -1.1729 -0.3354
  199MOL0     H26861   3.941   8.637   6.042 -0.6182  0.4306  0.4495
  199MOL0     H26862   4.062   8.585   6.162 -0.7626 -1.5400 -1.3666
  199MOL0     H26863   4.099   9.008   6.135  1.2318  0.2575  1.1001
  199MOL0     H26864   3.450   8.439   6.382 -0.8616 -0.6434  1.9751
  199MOL0     H26865   3.390   8.221   6.471 -0.0687  0.2195 -1.1866
  200MOL0     O26866   8.131   7.760   2.888 -0.1262  0.4134 -0.0898
  200MOL0     C26867   8.097   7.654   2.942  0.5370  0.3920  0.2185
  200MOL0     O26868   7.976   7.630   2.997 -0.6250  0.0618  0.2578
  200MOL0     C26869   7.869   7.721   2.999 -1.3341  0.0242  1.1814
  200MOL0     C26870   7.763   7.690   3.083  0.4981  0.7293 -0.3901
  200MOL0     C26871   7.653   7.772   3.113  0.6039 -0.3111 -0.5798
  200MOL0     C26872   7.660   7.906   3.050  0.1910 -0.1276 -0.2392
  200MOL0     O26873   7.587   8.016   3.087  0.1007 -0.2118 -0.0603
  200MOL0     C26874   7.544   8.025   3.228 -0.0516  0.5144  0.3253
  200MOL0     C26875   7.664   8.057   3.320  0.4773  0.2905 -0.6013
  200MOL0     C26876   7.616   8.088   3.464 -0.4438  0.4985  0.6144
  200MOL0     C26877   7.743   8.096   3.562 -0.1607 -0.1755 -0.4947
  200MOL0     C26878   7.719   8.192   3.677  0.0523  0.0632  1.0446
  200MOL0     C26879   7.835   8.188   3.777 -0.1000 -0.7573  0.5282
  200MOL0     C26880   7.850   8.059   3.852  0.3491  0.3810  0.2512
  200MOL0     C26881   7.865   8.079   3.999 -0.3023  0.5036  0.3829
  200MOL0     N26882   7.888   7.959   4.079 -0.1267  0.2667 -0.9244
  200MOL0     C26883   8.000   7.871   4.089 -0.0689  0.4500 -0.1195
  200MOL0     C26884   7.957   7.780   4.174 -0.4709 -0.4500  0.0678
  200MOL0     C26885   8.039   7.659   4.220 -0.7463  0.2918  0.6813
  200MOL0     C26886   8.141   7.681   4.338  0.1060 -0.5846  0.9461
  200MOL0     C26887   8.254   7.767   4.296 -0.1724 -0.6937 -0.6315
  200MOL0     C26888   8.350   7.693   4.189 -0.2319 -0.1195  0.3216
  200MOL0     O26889   8.484   7.748   4.171  0.0542  0.0763 -0.0085
  200MOL0     C26890   8.555   7.704   4.056 -0.2831 -0.2823 -0.1016
  200MOL0     C26891   8.503   7.621   3.950  0.5145  0.6412  0.9482
  200MOL0     C26892   8.579   7.587   3.833 -0.5366 -0.0404  0.5177
  200MOL0     C26893   8.514   7.496   3.725 -0.3334  0.1382 -0.0833
  200MOL0     C26894   8.709   7.625   3.830 -1.2800 -0.4870 -0.7556
  200MOL0     C26895   8.795   7.594   3.704  0.2642 -0.2001 -0.2237
  200MOL0     O26896   8.738   7.607   3.578 -0.4613 -0.0371  0.1631
  200MOL0     C26897   8.817   7.574   3.476  1.0679  0.2580 -0.6331
  200MOL0     C26898   8.937   7.646   3.455  0.0607  0.9057 -0.1326
  200MOL0     C26899   9.015   7.602   3.347  0.8784 -0.1065  1.2949
  200MOL0     C26900   8.977   7.502   3.254  0.1970  0.8852 -0.0812
  200MOL0     O26901   9.059   7.458   3.139  0.4510  0.2280 -0.7840
  200MOL0     C26902   9.186   7.531   3.106  0.3723  0.7454  0.3249
  200MOL0     C26903   9.308   7.461   3.159 -0.3989 -0.8694  0.3673
  200MOL0     C26904   9.343   7.319   3.108  0.1962  0.5383  0.4061
  200MOL0     C26905   9.262   7.202   3.167 -0.0464  0.2413 -0.5129
  200MOL0     C26906   9.273   7.079   3.077 -0.1040 -0.0229 -0.6529
  200MOL0     C26907   9.178   6.970   3.122  1.1664 -0.4408  0.4325
  200MOL0     C26908   9.186   6.840   3.036 -0.1199  0.1658 -0.1071
  200MOL0     C26909   9.170   6.716   3.129 -0.5393  0.1073 -0.7250
  200MOL0    Cl26910   9.163   6.560   3.026 -0.2896  0.2626  0.4399
  200MOL0     C26911   8.866   7.426   3.285 -1.0408 -0.2644 -0.3229
  200MOL0     C26912   8.785   7.464   3.387  0.7081 -1.4946 -1.1792
  200MOL0     O26913   8.912   7.580   3.725 -1.0200 -0.6514 -0.2579
  200MOL0     C26914   8.762   7.698   3.934 -0.0713  0.1608  0.5563
  200MOL0     C26915   8.692   7.741   4.040 -0.8500 -0.3007  0.3456
  200MOL0     N26916   7.843   7.832   4.231 -0.1060 -0.5050 -0.9896
  200MOL0     N26917   7.800   7.931   4.181 -0.0721 -0.4202  0.2555
  200MOL0     C26918   7.753   7.927   2.947 -0.1840  0.5971  0.2575
  200MOL0     C26919   7.852   7.832   2.926 -1.0087 -0.4817  0.1772
  200MOL0     C26920   8.183   7.540   2.935 -0.1044  0.0179 -0.0664
  200MOL0     C26921   8.307   7.547   2.865 -1.1915 -0.3901 -0.0520
  200MOL0     C26922   8.397   7.433   2.865 -0.2780 -0.8167 -0.0745
  200MOL0     C26923   8.359   7.320   2.932  0.2785 -0.7443  0.0785
  200MOL0     O26924   8.435   7.208   2.922  0.2678  0.5014 -0.0029
  200MOL0     C26925   8.442   7.123   3.040  0.9107  0.7930 -0.0083
  200MOL0     C26926   8.576   7.061   3.027  0.5887  0.3779 -0.4360
  200MOL0     C26927   8.576   6.961   2.911  0.9574  0.0108 -0.1255
  200MOL0     C26928   8.714   6.903   2.907  0.0036  0.4758 -0.1569
  200MOL0     C26929   8.824   6.988   2.874  0.2940 -0.2647  0.0139
  200MOL0     C26930   8.918   7.063   2.849 -0.5448  0.5705 -0.8149
  200MOL0     C26931   8.236   7.309   2.988 -0.3067  0.1868 -0.2010
  200MOL0     C26932   8.148   7.420   2.988  0.3759  0.5192 -0.9324
  200MOL0     H26933   7.751   7.589   3.122  0.9866  0.8560  0.1025
  200MOL0     H26934   7.580   7.742   3.187  2.8320 -0.0380  1.8934
  200MOL0     H26935   7.479   8.112   3.236  0.7067  1.2086 -0.6766
  200MOL0     H26936   7.481   7.949   3.274 -2.5112  3.3416  1.9809
  200MOL0     H26937   7.748   7.989   3.310 -0.4078 -0.9369  0.0460
  200MOL0     H26938   7.703   8.155   3.289  1.5741  0.5238  1.3576
  200MOL0     H26939   7.577   8.190   3.466  1.3920  1.2718 -0.1110
  200MOL0     H26940   7.546   8.016   3.506 -1.0836  0.3666 -0.6352
  200MOL0     H26941   7.764   7.992   3.586 -0.2748 -0.4749 -1.6104
  200MOL0     H26942   7.828   8.129   3.501  2.3975  1.1821  3.4596
  200MOL0     H26943   7.713   8.296   3.643  0.5391 -0.1968  0.1097
  200MOL0     H26944   7.634   8.163   3.739  0.1641 -0.3295  1.0143
  200MOL0     H26945   7.928   8.222   3.730  0.1287 -1.2744  0.6062
  200MOL0     H26946   7.807   8.270   3.844 -1.5437  0.3683 -1.3409
  200MOL0     H26947   7.766   7.990   3.840 -0.7871  1.7308  0.1525
  200MOL0     H26948   7.947   8.022   3.818  0.2019 -0.8461  1.1191
  200MOL0     H26949   7.762   8.101   4.029  0.2929 -1.0329  4.0220
  200MOL0     H26950   7.936   8.158   4.024 -0.3645  3.3804 -6.3628
  200MOL0     H26951   8.099   7.886   4.048  0.7322  3.1308  2.4143
  200MOL0     H26952   7.962   7.593   4.260 -1.5330 -0.3663 -1.7186
  200MOL0     H26953   8.079   7.607   4.132 -0.8796  1.7820 -0.3102
  200MOL0     H26954   8.176   7.589   4.387  3.1140 -0.5252 -0.8170
  200MOL0     H26955   8.084   7.735   4.414 -2.7963  0.8104 -2.0151
  200MOL0     H26956   8.315   7.784   4.385 -1.1636  2.3976 -0.4539
  200MOL0     H26957   8.213   7.860   4.257 -2.7452 -0.8973  1.3378
  200MOL0     H26958   8.300   7.704   4.092 -1.2552 -3.6693  0.2836
  200MOL0     H26959   8.348   7.587   4.215  2.1332 -0.4556 -0.6844
  200MOL0     H26960   8.399   7.592   3.946  1.0495 -2.4353  4.5015
  200MOL0     H26961   8.476   7.554   3.640 -1.0831 -2.6018 -1.7535
  200MOL0     H26962   8.579   7.422   3.678 -0.1649  0.9363 -1.1328
  200MOL0     H26963   8.438   7.435   3.776  0.1565 -1.5407 -1.2718
  200MOL0     H26964   8.962   7.720   3.530 -3.2897 -0.8241  2.9962
  200MOL0     H26965   9.111   7.649   3.328  1.1189 -1.2552 -0.4810
  200MOL0     H26966   9.195   7.525   2.997  2.3960 -1.6508  0.5338
  200MOL0     H26967   9.188   7.637   3.133 -0.5888  0.0111  3.6829
  200MOL0     H26968   9.397   7.524   3.148 -0.1173 -1.3035  0.1428
  200MOL0     H26969   9.299   7.451   3.267 -0.0580  1.6049  0.6922
  200MOL0     H26970   9.444   7.288   3.136  0.0650 -0.2478  0.0482
  200MOL0     H26971   9.334   7.310   2.999  2.0581 -2.8733  0.3989
  200MOL0     H26972   9.304   7.168   3.263  1.5279  0.0548 -1.2372
  200MOL0     H26973   9.157   7.230   3.178  0.0868  3.1675 -4.7114
  200MOL0     H26974   9.372   7.033   3.081 -0.6510 -1.1746  2.7093
  200MOL0     H26975   9.245   7.106   2.975 -0.7837  1.0750 -0.1921
  200MOL0     H26976   9.191   6.930   3.223 -0.2802 -1.5017  0.2321
  200MOL0     H26977   9.084   7.022   3.143  2.4621  0.9868  3.0734
  200MOL0     H26978   9.288   6.842   2.997 -0.8735  1.1624 -2.1618
  200MOL0     H26979   9.112   6.840   2.956 -0.6388  1.8109  0.3334
  200MOL0     H26980   9.074   6.720   3.181 -0.4901  3.8143 -0.6892
  200MOL0     H26981   9.243   6.724   3.210  0.9127 -2.4784 -1.6492
  200MOL0     H26982   8.858   7.337   3.224  2.2021 -0.8336 -0.0399
  200MOL0     H26983   8.690   7.415   3.404 -0.5526  0.5671 -1.9575
  200MOL0     H26984   8.870   7.706   3.931  0.7287 -5.4721 -3.4781
  200MOL0     H26985   8.744   7.813   4.102  1.1512 -1.7836  0.5135
  200MOL0     H26986   7.769   8.022   2.898 -1.3954  0.2511 -0.8512
  200MOL0     H26987   7.924   7.864   2.851 -0.1867  0.6374  1.3989
  200MOL0     H26988   8.339   7.642   2.824 -2.6056  1.1201  2.1957
  200MOL0     H26989   8.501   7.444   2.836  0.4347 -2.7123  1.5385
  200MOL0     H26990   8.446   7.185   3.130 -2.1979  0.2056  0.6627
  200MOL0     H26991   8.364   7.053   3.071 -0.0713  3.3125  4.0804
  200MOL0     H26992   8.592   7.008   3.121  0.8941 -2.0766 -1.7772
  200MOL0     H26993   8.659   7.132   3.021 -0.9426  2.4162  1.2799
  200MOL0     H26994   8.542   6.998   2.814 -2.8203 -4.3374 -0.7905
  200MOL0     H26995   8.489   6.899   2.935 -0.1288  2.3182  2.5248
  200MOL0     H26996   8.712   6.825   2.830  2.4585 -1.5937  1.6900
  200MOL0     H26997   8.727   6.854   3.005 -1.8613  0.7784  0.2801
  200MOL0     H26998   8.986   7.139   2.819  1.7778 -1.6886 -1.6947
  200MOL0     H26999   8.206   7.216   3.035  0.6976  0.4438  1.0092
  200MOL0     H27000   8.052   7.412   3.038 -0.3818 -0.6055 -2.4897
  201MOL0     O27001  10.760   3.330  10.076  0.8233  0.2469  0.8505
  201MOL0     C27002  10.804   3.222  10.040 -0.3182 -0.1951  0.7717
  201MOL0     O27003  10.914   3.215   9.954  0.1200 -0.0239 -0.2148
  201MOL0     C27004  10.965   3.328   9.896  0.3888  0.6426  0.1055
  201MOL0     C27005  10.892   3.406   9.805  0.2556  0.2873  0.0409
  201MOL0     C27006  10.955   3.506   9.722  0.3665 -0.7795 -1.3196
  201MOL0     C27007  11.088   3.536   9.744 -0.4435  0.7920  0.0640
  201MOL0     O27008  11.149   3.639   9.674  0.5294  0.6010  0.1499
  201MOL0     C27009  11.135   3.643   9.536 -0.3802 -0.9214  0.2032
  201MOL0     C27010  11.236   3.754   9.494  0.0706  0.8067 -0.6355
  201MOL0     C27011  11.183   3.835   9.378 -0.9008 -1.1265 -0.4485
  201MOL0     C27012  11.056   3.919   9.405 -0.4367 -0.0871  0.7250
  201MOL0     C27013  11.023   4.017   9.281  1.1873  0.2315 -0.5784
  201MOL0     C27014  10.880   4.071   9.295 -0.1761 -0.0283 -0.0860
  201MOL0     C27015  10.860   4.172   9.175  0.3080  0.6133 -0.0982
  201MOL0     C27016  10.720   4.248   9.180 -0.6582  0.3633 -0.1359
  201MOL0     N27017  10.704   4.336   9.071 -0.2408 -0.3495 -0.5664
  201MOL0     C27018  10.578   4.389   9.044  0.1585  0.0472  0.5108
  201MOL0     C27019  10.596   4.440   8.920  0.2231  0.6765  0.0958
  201MOL0     C27020  10.493   4.499   8.837 -0.0983 -1.0658  1.4009
  201MOL0     C27021  10.515   4.638   8.791 -0.1195  0.0189 -1.3919
  201MOL0     C27022  10.405   4.691   8.698  0.3637  0.2248 -0.6289
  201MOL0     C27023  10.456   4.831   8.650  1.6283 -0.2974  1.0724
  201MOL0     O27024  10.574   4.825   8.569  0.0021 -0.3068  0.0593
  201MOL0     C27025  10.610   4.944   8.522  0.4278 -0.4338  0.1994
  201MOL0     C27026  10.668   4.946   8.395 -0.5021  0.1155 -0.8117
  201MOL0     C27027  10.706   5.072   8.344  0.1287 -0.0322 -0.6548
  201MOL0     C27028  10.774   5.062   8.216 -0.2088  0.5752  1.4089
  201MOL0     C27029  10.686   5.200   8.423 -0.8239 -0.5452  0.1301
  201MOL0     C27030  10.754   5.328   8.387  0.6691  0.3689 -0.2472
  201MOL0     O27031  10.801   5.401   8.498 -0.0196 -0.3867 -0.2041
  201MOL0     C27032  10.864   5.526   8.478 -0.3241  1.0291 -0.2052
  201MOL0     C27033  10.865   5.620   8.584  0.1283  0.3020 -0.5436
  201MOL0     C27034  10.932   5.742   8.573  0.4089 -0.0526 -0.9012
  201MOL0     C27035  10.985   5.796   8.457 -0.4721 -0.2627 -0.0481
  201MOL0     O27036  11.050   5.921   8.427 -0.7726  0.2451  0.4632
  201MOL0     C27037  11.093   5.998   8.533  0.1257 -0.1100  0.5423
  201MOL0     C27038  11.212   6.082   8.511 -0.3799  0.1029 -0.9997
  201MOL0     C27039  11.362   6.026   8.514  0.3770  0.3242 -0.8099
  201MOL0     C27040  11.391   5.905   8.427  0.1693  0.2220  0.3439
  201MOL0     C27041  11.533   5.850   8.456 -0.8543 -0.1828 -0.6786
  201MOL0     C27042  11.591   5.732   8.371 -0.4519  0.1132 -0.6966
  201MOL0     C27043  11.597   5.769   8.228  0.1700 -0.4640 -0.4354
  201MOL0     C27044  11.670   5.900   8.191 -0.1458  0.1861 -0.0899
  201MOL0    Cl27045  11.677   5.911   8.013 -0.3964 -0.0500  0.1166
  201MOL0     C27046  10.987   5.704   8.350  0.7271  0.2696 -0.1684
  201MOL0     C27047  10.935   5.567   8.365  0.0400 -0.1700 -0.8911
  201MOL0     O27048  10.760   5.357   8.269 -0.5153 -1.3715  0.3024
  201MOL0     C27049  10.640   5.190   8.552  0.6354 -0.5064 -0.6637
  201MOL0     C27050  10.592   5.067   8.597 -0.2974 -0.0587 -0.3735
  201MOL0     N27051  10.732   4.411   8.878  0.9521 -0.1478 -0.1162
  201MOL0     N27052  10.787   4.348   8.970 -0.5639  0.2695 -0.2985
  201MOL0     C27053  11.158   3.468   9.844  0.1431  0.1243  0.0250
  201MOL0     C27054  11.096   3.366   9.919  0.1140 -0.0321 -0.3974
  201MOL0     C27055  10.741   3.098  10.078 -0.7295 -0.1507 -0.3249
  201MOL0     C27056  10.622   3.114  10.156 -0.6022 -0.0835 -0.4008
  201MOL0     C27057  10.548   3.003  10.181  0.2415 -1.0069 -0.7110
  201MOL0     C27058  10.596   2.872  10.148  0.3017  0.3900 -0.1654
  201MOL0     O27059  10.522   2.761  10.173  0.2722 -0.2030  0.1990
  201MOL0     C27060  10.505   2.740  10.320  0.5976 -0.2939  0.3445
  201MOL0     C27061  10.407   2.630  10.371  1.0822  0.1917  0.2065
  201MOL0     C27062  10.451   2.480  10.337 -1.2132 -0.1189  0.0636
  201MOL0     C27063  10.395   2.384  10.427 -0.7695 -0.5502 -1.0174
  201MOL0     C27064  10.250   2.398  10.438 -1.6214  0.3430 -0.1991
  201MOL0     C27065  10.132   2.396  10.445 -0.7330 -0.9108 -0.1279
  201MOL0     C27066  10.724   2.853  10.088 -1.0439 -0.2130 -1.1299
  201MOL0     C27067  10.805   2.967  10.050  0.8316  0.2332 -0.8141
  201MOL0     H27068  10.789   3.377   9.788  0.3480 -0.0898  0.1152
  201MOL0     H27069  10.908   3.545   9.633 -1.1528 -2.8517 -1.5149
  201MOL0     H27070  11.158   3.545   9.493  3.4274 -0.8390  1.6748
  201MOL0     H27071  11.032   3.673   9.516 -0.9136 -2.1474  0.9915
  201MOL0     H27072  11.254   3.822   9.578 -1.6737 -1.4222  1.7144
  201MOL0     H27073  11.330   3.716   9.452  2.0771  5.0572 -0.4868
  201MOL0     H27074  11.261   3.907   9.350  0.7512 -0.9573  3.8038
  201MOL0     H27075  11.171   3.764   9.296  3.1731  0.1061 -2.3671
  201MOL0     H27076  10.968   3.856   9.422  0.3464 -1.3239  0.3739
  201MOL0     H27077  11.076   3.982   9.492 -0.5676 -1.2738  1.6459
  201MOL0     H27078  11.095   4.100   9.281  0.4073  1.1039  3.3020
  201MOL0     H27079  11.044   3.965   9.187 -2.4835  0.0238 -1.4277
  201MOL0     H27080  10.808   3.990   9.283 -1.8527  1.5680 -1.4296
  201MOL0     H27081  10.848   4.118   9.388 -1.4378  2.2849 -1.5916
  201MOL0     H27082  10.944   4.241   9.168  3.2975 -2.6678  0.7000
  201MOL0     H27083  10.869   4.118   9.081  0.8854 -3.3802  2.0266
  201MOL0     H27084  10.709   4.299   9.276 -0.9872 -2.4233  1.4112
  201MOL0     H27085  10.640   4.174   9.172  0.4812 -0.7467 -5.8259
  201MOL0     H27086  10.490   4.385   9.107 -1.0713  0.4765 -1.1008
  201MOL0     H27087  10.481   4.438   8.747  2.1020  0.5502 -0.0737
  201MOL0     H27088  10.401   4.513   8.895 -0.4896  0.1232  0.5236
  201MOL0     H27089  10.610   4.635   8.736 -0.7016 -3.5533 -2.4001
  201MOL0     H27090  10.528   4.704   8.878  1.0139 -1.5451 -0.3241
  201MOL0     H27091  10.308   4.679   8.748  0.8019  2.3921  0.8975
  201MOL0     H27092  10.403   4.619   8.616 -0.4692 -0.1535 -0.2843
  201MOL0     H27093  10.482   4.889   8.739  1.5744 -1.7062  2.0281
  201MOL0     H27094  10.370   4.878   8.601  1.9966 -1.7705 -1.1164
  201MOL0     H27095  10.685   4.859   8.333  2.4130  1.1287 -1.6085
  201MOL0     H27096  10.882   5.073   8.227  0.0183 -0.1351  0.0961
  201MOL0     H27097  10.762   4.969   8.160 -0.5286  0.5922  1.4501
  201MOL0     H27098  10.735   5.135   8.145  2.4369  0.7579  0.0273
  201MOL0     H27099  10.811   5.606   8.677  3.3751  1.4243  1.6942
  201MOL0     H27100  10.914   5.807   8.658 -3.4311 -2.9025  0.7933
  201MOL0     H27101  11.005   6.054   8.565  1.1848  0.8067  1.9882
  201MOL0     H27102  11.133   5.934   8.613  0.9420 -2.0059 -1.2846
  201MOL0     H27103  11.197   6.135   8.416  0.4293  2.0248 -0.1093
  201MOL0     H27104  11.210   6.170   8.576  0.2757  1.3360 -2.5646
  201MOL0     H27105  11.370   5.999   8.620  1.4503 -1.1609 -1.2467
  201MOL0     H27106  11.431   6.110   8.498  1.6113 -0.3154  0.8999
  201MOL0     H27107  11.322   5.823   8.450 -0.4841  1.0392  1.4092
  201MOL0     H27108  11.377   5.930   8.321  1.3659 -0.1205  0.0935
  201MOL0     H27109  11.526   5.814   8.559 -0.5123  1.6744  0.0441
  201MOL0     H27110  11.613   5.925   8.454 -0.6958 -0.3419 -2.7223
  201MOL0     H27111  11.684   5.692   8.414 -0.9627 -0.1282  0.2266
  201MOL0     H27112  11.514   5.655   8.381 -2.9486  2.5073  0.0235
  201MOL0     H27113  11.491   5.779   8.202  0.3330  2.3021 -0.2630
  201MOL0     H27114  11.649   5.694   8.168 -0.6654 -1.7437  0.3618
  201MOL0     H27115  11.770   5.895   8.235 -0.2715 -2.6501  0.0733
  201MOL0     H27116  11.621   5.988   8.235  1.0942  0.2362  1.2953
  201MOL0     H27117  11.030   5.740   8.257  0.8750 -2.6388 -1.3477
  201MOL0     H27118  10.951   5.503   8.279  0.5277 -0.7554 -0.3733
  201MOL0     H27119  10.629   5.272   8.622  1.8466 -0.9700  0.0895
  201MOL0     H27120  10.562   5.068   8.701  1.6128 -2.7248  0.3105
  201MOL0     H27121  11.265   3.472   9.860 -0.0908  1.5446  1.4670
  201MOL0     H27122  11.151   3.325  10.003 -0.0994 -1.2272 -0.8302
  201MOL0     H27123  10.593   3.215  10.184 -1.2794 -0.4534  0.2631
  201MOL0     H27124  10.455   3.029  10.230  1.4109 -0.4508  1.3192
  201MOL0     H27125  10.606   2.720  10.357  0.7650  1.8943  1.2026
  201MOL0     H27126  10.480   2.836  10.367  0.7598  1.1987 -2.4569
  201MOL0     H27127  10.307   2.644  10.329 -0.4091  0.6866  3.5459
  201MOL0     H27128  10.392   2.639  10.479  1.8087 -1.2419  0.4495
  201MOL0     H27129  10.560   2.477  10.333 -1.2435 -1.5337 -3.6732
  201MOL0     H27130  10.431   2.464  10.231  0.8500  2.9063 -0.9175
  201MOL0     H27131  10.449   2.412  10.517  0.9991 -0.1924 -2.1564
  201MOL0     H27132  10.431   2.286  10.395  1.9238  0.8125 -2.4823
  201MOL0     H27133  10.026   2.409  10.437 -0.6640 -0.4699 -0.3701
  201MOL0     H27134  10.767   2.755  10.073 -0.3948 -0.4736  1.8751
  201MOL0     H27135  10.900   2.955   9.998  1.6162  2.4922 -0.0419
  202MOL0     O27136   8.210   1.414  11.021 -0.9522  0.7871  0.8075
  202MOL0     C27137   8.318   1.468  11.042 -0.4734 -0.8098  0.6373
  202MOL0     O27138   8.379   1.553  10.963  0.0540 -0.4219  0.2276
  202MOL0     C27139   8.318   1.584  10.851 -0.6844  0.4640  0.1108
  202MOL0     C27140   8.291   1.498  10.744  0.3001 -1.5466  0.8619
  202MOL0     C27141   8.243   1.546  10.626 -0.7224 -0.2764  0.6579
  202MOL0     C27142   8.225   1.685  10.604 -0.4886 -0.4573 -0.3742
  202MOL0     O27143   8.203   1.729  10.480  0.1001 -1.0891  1.2534
  202MOL0     C27144   8.191   1.643  10.363 -0.9301 -0.5297  0.1315
  202MOL0     C27145   8.181   1.712  10.233 -0.2712  0.7783 -0.0616
  202MOL0     C27146   8.294   1.812  10.202 -0.4610 -0.6786 -0.8618
  202MOL0     C27147   8.310   1.835  10.051 -0.0485  0.0519  0.2433
  202MOL0     C27148   8.417   1.938  10.019  0.8817  0.1122 -0.1752
  202MOL0     C27149   8.425   1.987   9.878 -0.0344  1.0394  0.0924
  202MOL0     C27150   8.482   1.873   9.782  0.4461 -0.4020 -0.2539
  202MOL0     C27151   8.518   1.928   9.645 -1.6244  0.6037  0.0215
  202MOL0     N27152   8.619   2.037   9.660  0.5057  0.3972 -0.2329
  202MOL0     C27153   8.623   2.151   9.584  0.4824 -0.1463 -0.4410
  202MOL0     C27154   8.731   2.211   9.631  0.3388  0.0864 -0.9671
  202MOL0     C27155   8.786   2.340   9.583 -0.4697 -0.6003  0.1308
  202MOL0     C27156   8.944   2.342   9.576 -0.0067 -0.1345 -0.5069
  202MOL0     C27157   9.002   2.426   9.689 -0.0827 -0.2005 -0.6592
  202MOL0     C27158   9.016   2.349   9.814 -0.4103 -0.3191  0.4887
  202MOL0     O27159   9.104   2.402   9.903 -0.5507 -0.6838 -0.6107
  202MOL0     C27160   9.053   2.496   9.988  0.6421 -0.5893 -0.8880
  202MOL0     C27161   9.142   2.547  10.083  0.1449 -0.5767  1.0085
  202MOL0     C27162   9.104   2.645  10.173 -0.0088 -0.1727  0.3179
  202MOL0     C27163   9.209   2.710  10.260  0.0121 -0.3528 -0.3808
  202MOL0     C27164   8.967   2.691  10.172 -0.4928 -1.6088  0.3506
  202MOL0     C27165   8.919   2.801  10.255 -0.6255  0.5311  0.0347
  202MOL0     O27166   8.857   2.899  10.173 -0.3177  0.0349 -0.0793
  202MOL0     C27167   8.828   3.022  10.236  0.1448  0.6436 -0.8056
  202MOL0     C27168   8.913   3.126  10.222  0.2418  0.4049 -0.6511
  202MOL0     C27169   8.894   3.242  10.295 -0.9104 -0.5679 -0.2465
  202MOL0     C27170   8.793   3.248  10.385  0.1355 -0.0759  0.0922
  202MOL0     O27171   8.756   3.356  10.465 -1.0391 -0.0663  0.2277
  202MOL0     C27172   8.811   3.486  10.429 -1.0356 -0.3395  0.0811
  202MOL0     C27173   8.714   3.537  10.321 -0.2133 -0.2090  1.1661
  202MOL0     C27174   8.742   3.668  10.253 -0.4823  0.5348 -0.8906
  202MOL0     C27175   8.885   3.699  10.210 -0.0531 -0.8942  0.1263
  202MOL0     C27176   8.880   3.847  10.149 -0.5542 -0.3468 -0.8803
  202MOL0     C27177   9.021   3.886  10.112  0.1399 -0.4960  0.1886
  202MOL0     C27178   9.017   4.030  10.071 -0.1729 -0.6175 -0.2560
  202MOL0     C27179   9.029   4.118  10.203  0.0374 -0.5066 -0.0740
  202MOL0    Cl27180   9.145   4.059  10.329 -0.2074  0.6060  0.1629
  202MOL0     C27181   8.701   3.144  10.402 -0.2407 -0.0552 -0.4846
  202MOL0     C27182   8.716   3.027  10.326  0.1160 -1.0164 -0.2128
  202MOL0     O27183   8.955   2.808  10.374 -0.0581  0.3787 -0.2018
  202MOL0     C27184   8.878   2.643  10.077 -0.5937  0.6028  0.7679
  202MOL0     C27185   8.917   2.534   9.992 -0.3749 -1.1893 -0.0689
  202MOL0     N27186   8.789   2.139   9.731  0.4505 -0.2092  0.7430
  202MOL0     N27187   8.731   2.032   9.747 -0.3048  0.3534 -0.1651
  202MOL0     C27188   8.248   1.771  10.713  0.2068  0.1300 -0.2911
  202MOL0     C27189   8.297   1.719  10.832  1.1267 -0.1425  0.3182
  202MOL0     C27190   8.381   1.450  11.174 -0.6640  0.7961 -0.4045
  202MOL0     C27191   8.486   1.527  11.218  0.2601  1.0195 -0.7617
  202MOL0     C27192   8.532   1.513  11.346 -0.4463 -0.1202 -0.9538
  202MOL0     C27193   8.490   1.406  11.431  0.0137 -0.7082 -0.1948
  202MOL0     O27194   8.557   1.378  11.549 -0.0563 -0.8019 -0.0745
  202MOL0     C27195   8.476   1.384  11.668 -0.1889  0.0586 -0.0373
  202MOL0     C27196   8.494   1.518  11.729  0.6471  0.2466 -0.2426
  202MOL0     C27197   8.635   1.568  11.758  0.4373  0.3216  0.2696
  202MOL0     C27198   8.715   1.489  11.864  0.1171  0.8720  1.4039
  202MOL0     C27199   8.646   1.495  11.999 -0.5710 -0.0266 -0.2863
  202MOL0     C27200   8.589   1.506  12.106 -0.3396  0.8774  0.3516
  202MOL0     C27201   8.406   1.314  11.374  1.8139  0.1876  0.8331
  202MOL0     C27202   8.337   1.343  11.262  0.9997 -0.1775  0.1858
  202MOL0     H27203   8.310   1.392  10.761 -1.9508 -1.6430  3.5816
  202MOL0     H27204   8.236   1.463  10.557  5.4745 -0.8109  0.0237
  202MOL0     H27205   8.277   1.575  10.354 -1.2809 -0.9486 -0.1019
  202MOL0     H27206   8.113   1.567  10.372  1.6287 -3.0263  4.2444
  202MOL0     H27207   8.194   1.633  10.158  0.7064 -0.5933  1.4865
  202MOL0     H27208   8.077   1.743  10.220 -0.6649 -1.1082 -1.9541
  202MOL0     H27209   8.268   1.908  10.249  3.2729 -0.4651  1.1530
  202MOL0     H27210   8.391   1.775  10.237  0.0971  2.3555  1.1886
  202MOL0     H27211   8.346   1.743  10.003  1.6592 -0.6961  2.7380
  202MOL0     H27212   8.214   1.866  10.008 -1.0323 -1.8760  0.9338
  202MOL0     H27213   8.396   2.028  10.077 -0.1445  1.9650 -3.2011
  202MOL0     H27214   8.512   1.892  10.050  0.5644 -3.1597 -3.2825
  202MOL0     H27215   8.327   2.016   9.839 -1.1331 -1.4386  0.8107
  202MOL0     H27216   8.486   2.077   9.871 -1.9036  2.2709 -1.2694
  202MOL0     H27217   8.569   1.825   9.828 -1.1938 -0.9238  2.5484
  202MOL0     H27218   8.408   1.794   9.770 -0.1257  0.3514 -1.9943
  202MOL0     H27219   8.422   1.962   9.605 -1.7581 -0.6575 -0.7773
  202MOL0     H27220   8.572   1.850   9.591 -2.5320  1.6075 -2.4693
  202MOL0     H27221   8.552   2.180   9.506  1.2843  0.0435 -1.1131
  202MOL0     H27222   8.733   2.362   9.490 -0.2293  0.1399  0.1625
  202MOL0     H27223   8.758   2.426   9.644 -0.8327  1.5665 -2.8564
  202MOL0     H27224   8.982   2.387   9.483  3.3728 -1.4994  0.0599
  202MOL0     H27225   8.991   2.243   9.581 -0.5016 -0.4600 -1.8866
  202MOL0     H27226   8.948   2.518   9.715 -3.0354 -1.4221 -2.0423
  202MOL0     H27227   9.104   2.452   9.659  0.1133  0.6357  0.6420
  202MOL0     H27228   9.047   2.245   9.799  0.1725 -0.7465  3.7682
  202MOL0     H27229   8.918   2.328   9.860  0.0726 -1.8685  0.8771
  202MOL0     H27230   9.243   2.509  10.080  0.4504  0.2578  0.3094
  202MOL0     H27231   9.227   2.816  10.242  3.3284 -0.5854  0.9034
  202MOL0     H27232   9.179   2.703  10.365  0.3882  0.1568 -0.2355
  202MOL0     H27233   9.306   2.659  10.257 -0.8292 -2.0651  0.1401
  202MOL0     H27234   8.987   3.120  10.142  2.0197  2.0230  0.7704
  202MOL0     H27235   8.970   3.317  10.275 -0.8362 -0.2860  1.0369
  202MOL0     H27236   8.830   3.544  10.520  3.5288 -0.2124 -0.7110
  202MOL0     H27237   8.913   3.478  10.391 -0.8298 -0.3284  0.6199
  202MOL0     H27238   8.730   3.464  10.242 -2.3042 -2.0156  2.3017
  202MOL0     H27239   8.613   3.528  10.361 -0.1058 -0.8102  1.3206
  202MOL0     H27240   8.692   3.743  10.315  1.1715  0.6467  0.3933
  202MOL0     H27241   8.681   3.661  10.163 -2.0268 -1.7778  0.2127
  202MOL0     H27242   8.940   3.711  10.303  1.4159  0.8353 -0.9033
  202MOL0     H27243   8.940   3.625  10.151 -2.0143 -0.8809 -1.8786
  202MOL0     H27244   8.818   3.904  10.219 -2.2332 -2.2462 -0.7459
  202MOL0     H27245   8.822   3.846  10.057 -1.6389  0.0472 -0.2219
  202MOL0     H27246   9.103   3.850  10.175  1.2038 -2.3233 -2.0750
  202MOL0     H27247   9.064   3.841  10.022  1.4998  2.2828 -0.6733
  202MOL0     H27248   8.924   4.056  10.019  0.9971  0.1760 -2.0272
  202MOL0     H27249   9.102   4.054  10.006  0.6807  0.7580  1.2951
  202MOL0     H27250   8.934   4.127  10.257  0.7354  0.7146  1.0381
  202MOL0     H27251   9.060   4.216  10.164  0.1709 -1.0151 -1.2922
  202MOL0     H27252   8.612   3.165  10.461 -0.0586 -1.4722  0.3518
  202MOL0     H27253   8.667   2.934  10.352  1.2934 -0.8215  3.3273
  202MOL0     H27254   8.773   2.667  10.090 -1.3112  0.7867 -3.6340
  202MOL0     H27255   8.838   2.496   9.928 -2.7142  2.4690  0.3718
  202MOL0     H27256   8.239   1.879  10.703 -1.3009 -0.0535 -1.1283
  202MOL0     H27257   8.315   1.794  10.909 -1.3579  2.8802 -1.7771
  202MOL0     H27258   8.526   1.597  11.145 -3.7107  3.0400 -1.3048
  202MOL0     H27259   8.622   1.569  11.368 -1.8034  0.4432  4.9785
  202MOL0     H27260   8.372   1.362  11.646  0.7329 -1.4789 -3.4429
  202MOL0     H27261   8.515   1.307  11.736  0.4831  2.7782  2.9156
  202MOL0     H27262   8.441   1.525  11.824 -1.7128  2.6359 -1.5731
  202MOL0     H27263   8.441   1.596  11.673 -1.3704 -1.5402 -0.9817
  202MOL0     H27264   8.616   1.671  11.788 -5.4583  0.1605 -1.5893
  202MOL0     H27265   8.695   1.579  11.667  2.2207  0.6858  1.4613
  202MOL0     H27266   8.815   1.533  11.861 -0.8305  3.0481 -1.1372
  202MOL0     H27267   8.715   1.386  11.826 -2.7488  1.4235 -0.4009
  202MOL0     H27268   8.541   1.512  12.201 -0.8257  0.8527  0.1109
  202MOL0     H27269   8.384   1.221  11.426 -0.0824  0.0282 -0.1948
  202MOL0     H27270   8.245   1.299  11.225  0.5940  0.6487  0.1793
  203MOL0     O27271   3.558   5.209   1.867  0.2285  0.1079 -0.9818
  203MOL0     C27272   3.535   5.219   1.986 -0.5306 -0.1632  0.4434
  203MOL0     O27273   3.436   5.154   2.046 -0.0097 -0.3768 -0.1648
  203MOL0     C27274   3.344   5.076   1.987  0.3256 -0.0952 -0.0495
  203MOL0     C27275   3.299   4.961   2.050  0.6566 -0.3220 -0.4627
  203MOL0     C27276   3.192   4.890   1.998 -0.2686  0.5055 -0.5920
  203MOL0     C27277   3.126   4.931   1.883 -0.2767 -0.0964 -0.6844
  203MOL0     O27278   3.006   4.871   1.858  0.5000  0.3114 -0.4345
  203MOL0     C27279   2.912   4.939   1.778 -0.8896  0.6210 -0.8340
  203MOL0     C27280   2.780   4.855   1.779  0.1773  0.3752  0.3328
  203MOL0     C27281   2.700   4.878   1.902  0.2057 -0.1033 -0.1087
  203MOL0     C27282   2.584   4.784   1.899  0.0357 -0.0818  0.3081
  203MOL0     C27283   2.468   4.831   1.823 -1.7850  1.0744 -0.7475
  203MOL0     C27284   2.375   4.919   1.912 -0.6489 -0.0527  0.2132
  203MOL0     C27285   2.246   4.926   1.822 -0.0750  0.2408  0.1587
  203MOL0     C27286   2.121   4.989   1.896  0.2115  0.0863 -0.8078
  203MOL0     N27287   1.987   4.948   1.850  0.1855  0.3388 -1.0880
  203MOL0     C27288   1.908   5.010   1.757 -0.6525  0.5383  0.1311
  203MOL0     C27289   1.800   4.937   1.730  0.1561  0.1733 -0.5669
  203MOL0     C27290   1.683   4.966   1.645 -0.3829  0.4887  0.2988
  203MOL0     C27291   1.582   5.046   1.724  0.7302 -0.3231 -0.3487
  203MOL0     C27292   1.451   5.065   1.647  0.1193 -0.6743  0.3909
  203MOL0     C27293   1.373   4.938   1.613 -0.6300 -0.2443  0.1296
  203MOL0     O27294   1.280   4.987   1.523  0.0624  0.3909  1.1117
  203MOL0     C27295   1.148   5.021   1.547 -0.7030 -0.9917  1.0352
  203MOL0     C27296   1.073   5.057   1.441 -0.5120  0.6887  0.5178
  203MOL0     C27297   0.945   5.094   1.461  0.0377 -0.3007  0.3926
  203MOL0     C27298   0.881   5.115   1.321 -0.3354  0.2795  0.1763
  203MOL0     C27299   0.883   5.098   1.586 -0.8861  0.5093  0.6834
  203MOL0     C27300   0.746   5.129   1.592  0.7904  0.7263  0.4015
  203MOL0     O27301   0.699   5.233   1.511 -1.1436 -0.3480 -0.1081
  203MOL0     C27302   0.561   5.229   1.476 -0.5523 -0.3066 -0.0745
  203MOL0     C27303   0.511   5.350   1.437  0.7785 -0.3237 -0.8968
  203MOL0     C27304   0.380   5.366   1.402  0.2212  0.3344  0.5093
  203MOL0     C27305   0.300   5.254   1.377 -0.5173  0.4676 -0.3125
  203MOL0     O27306   0.165   5.258   1.332 -0.3076  0.6501 -0.0570
  203MOL0     C27307   0.140   5.340   1.219  0.0232 -0.0908  0.5995
  203MOL0     C27308   0.077   5.263   1.095 -0.6380  0.2266  0.0319
  203MOL0     C27309  -0.058   5.198   1.122  0.0050  0.2453 -0.1676
  203MOL0     C27310  -0.171   5.301   1.137  0.8065 -0.7603 -0.5124
  203MOL0     C27311  -0.317   5.253   1.116 -0.2444 -0.0108  1.0782
  203MOL0     C27312  -0.335   5.194   0.970  0.1273  0.0565  0.3658
  203MOL0     C27313  -0.486   5.182   0.943 -0.9538 -0.5943  0.2834
  203MOL0     C27314  -0.512   5.098   0.813 -0.6256  0.4486 -0.7024
  203MOL0    Cl27315  -0.450   5.185   0.673 -0.2152  0.7746 -0.3295
  203MOL0     C27316   0.360   5.133   1.413  0.5541  0.2521 -0.3151
  203MOL0     C27317   0.482   5.121   1.469 -1.0282  1.2467  0.6106
  203MOL0     O27318   0.681   5.059   1.676  0.8955 -0.5041  0.4763
  203MOL0     C27319   0.964   5.059   1.698  0.4917 -0.7840  0.6639
  203MOL0     C27320   1.098   5.016   1.675  0.4545 -1.0382 -0.2791
  203MOL0     N27321   1.805   4.832   1.826 -0.7779 -0.1303  0.1811
  203MOL0     N27322   1.916   4.846   1.896  0.5897 -0.5143  0.5609
  203MOL0     C27323   3.183   5.044   1.818  0.2227  0.6606  0.1390
  203MOL0     C27324   3.287   5.107   1.867 -0.2058 -0.7878  0.3992
  203MOL0     C27325   3.643   5.280   2.066  0.2436 -0.1292  0.3806
  203MOL0     C27326   3.709   5.398   2.012  0.4916 -0.0718 -0.8549
  203MOL0     C27327   3.825   5.443   2.076 -0.0995 -0.3721 -0.0707
  203MOL0     C27328   3.854   5.389   2.205 -0.6517  0.6164  0.0101
  203MOL0     O27329   3.953   5.455   2.278 -0.4156 -0.1690  0.7450
  203MOL0     C27330   3.929   5.473   2.419 -0.0465 -0.5049  0.0253
  203MOL0     C27331   3.817   5.571   2.442 -0.3756  0.6186 -0.1434
  203MOL0     C27332   3.846   5.722   2.400  0.2899  0.4640 -0.3736
  203MOL0     C27333   3.887   5.745   2.255  1.1025 -0.1391  0.8788
  203MOL0     C27334   3.925   5.883   2.234 -0.2255 -0.9131  0.6350
  203MOL0     C27335   3.946   5.999   2.208 -0.5599 -0.7379  0.1634
  203MOL0     C27336   3.796   5.268   2.251  0.1575  0.3094 -0.2909
  203MOL0     C27337   3.692   5.211   2.178  0.2000  1.0501 -0.9960
  203MOL0     H27338   3.330   4.947   2.153  2.1347  0.8619 -0.7195
  203MOL0     H27339   3.162   4.801   2.052 -2.5405  0.1610 -2.2808
  203MOL0     H27340   2.899   5.035   1.829  1.9531 -0.6790  2.7158
  203MOL0     H27341   2.950   4.938   1.675 -2.2636  0.2882 -1.3623
  203MOL0     H27342   2.728   4.877   1.685 -0.7661 -1.4138  0.3894
  203MOL0     H27343   2.804   4.749   1.786 -0.3198  0.3376  1.9053
  203MOL0     H27344   2.753   4.860   1.996 -0.5043 -1.7200  0.0227
  203MOL0     H27345   2.659   4.979   1.894 -1.3046 -0.7620 -1.1563
  203MOL0     H27346   2.598   4.694   1.839  0.7407 -0.8859  1.6232
  203MOL0     H27347   2.555   4.747   1.998  0.9953 -2.1942 -0.1564
  203MOL0     H27348   2.504   4.893   1.741  0.4230 -1.3204 -1.7098
  203MOL0     H27349   2.410   4.747   1.783 -1.5067 -0.6930  2.2410
  203MOL0     H27350   2.349   4.866   2.005  1.0546 -0.6401  0.3926
  203MOL0     H27351   2.425   5.012   1.940  0.7320 -1.6107  3.5568
  203MOL0     H27352   2.271   4.989   1.737 -0.0061 -1.1474 -0.8974
  203MOL0     H27353   2.210   4.831   1.780 -0.7336 -0.0226  1.2611
  203MOL0     H27354   2.130   5.097   1.913  0.8532  0.1412 -1.4755
  203MOL0     H27355   2.118   4.954   2.000 -1.3339  0.2654 -0.7647
  203MOL0     H27356   1.925   5.109   1.717 -1.6305  1.6746  2.3905
  203MOL0     H27357   1.714   5.007   1.549 -1.5229  1.7869  0.4572
  203MOL0     H27358   1.634   4.871   1.624  0.5765 -0.3237  1.5136
  203MOL0     H27359   1.624   5.144   1.749 -0.9395  0.3778 -0.1905
  203MOL0     H27360   1.559   5.008   1.824  0.0369 -1.8968 -1.0660
  203MOL0     H27361   1.468   5.113   1.550  3.5809 -0.2629  1.0839
  203MOL0     H27362   1.382   5.133   1.697 -0.3096 -0.7186 -0.1312
  203MOL0     H27363   1.336   4.895   1.707  0.1027  0.6592  0.8532
  203MOL0     H27364   1.434   4.864   1.561  1.0030  1.2554 -0.1708
  203MOL0     H27365   1.123   5.074   1.347 -2.8040  0.8178 -0.7434
  203MOL0     H27366   0.931   5.069   1.236 -3.1466 -1.8900 -0.4241
  203MOL0     H27367   0.788   5.058   1.326  1.2345 -2.5027 -0.1769
  203MOL0     H27368   0.850   5.215   1.289  0.6228 -0.5257 -3.7915
  203MOL0     H27369   0.573   5.439   1.429  1.6950 -0.1814  4.4434
  203MOL0     H27370   0.345   5.459   1.357 -0.1926 -1.2349 -2.7177
  203MOL0     H27371   0.075   5.424   1.247  1.6414  1.5148 -0.2419
  203MOL0     H27372   0.231   5.386   1.180 -0.0817 -0.6225 -0.2964
  203MOL0     H27373   0.069   5.324   1.005  1.5177 -0.4384 -0.6741
  203MOL0     H27374   0.143   5.182   1.060 -0.7619  1.0954 -2.3930
  203MOL0     H27375  -0.052   5.130   1.208  1.5709  0.3184 -0.1995
  203MOL0     H27376  -0.079   5.133   1.036  1.1011  0.8934 -0.9467
  203MOL0     H27377  -0.160   5.334   1.240  1.9517  0.0244 -0.8557
  203MOL0     H27378  -0.156   5.388   1.071 -2.7245  0.4599  0.0915
  203MOL0     H27379  -0.391   5.334   1.119 -1.5120 -0.9897 -1.2170
  203MOL0     H27380  -0.343   5.177   1.191  0.8654 -2.3565 -0.7958
  203MOL0     H27381  -0.295   5.266   0.898  0.5925  0.5021  1.0511
  203MOL0     H27382  -0.298   5.093   0.953 -1.8796 -0.5099 -0.9436
  203MOL0     H27383  -0.536   5.278   0.930 -1.6993 -0.6758  2.2256
  203MOL0     H27384  -0.530   5.129   1.028 -1.1565 -2.1261 -0.7204
  203MOL0     H27385  -0.621   5.086   0.802 -0.3461 -2.6266 -1.0797
  203MOL0     H27386  -0.467   4.999   0.811  1.2761  1.2873 -2.0786
  203MOL0     H27387   0.313   5.046   1.368  0.0928  2.0152 -3.5600
  203MOL0     H27388   0.508   5.020   1.499 -1.2063  1.7930  2.7594
  203MOL0     H27389   0.915   5.042   1.794  1.9586 -2.0082  1.2406
  203MOL0     H27390   1.148   4.974   1.762 -2.1822  2.7161  3.4576
  203MOL0     H27391   3.133   5.074   1.726  0.7801 -0.1511 -0.4458
  203MOL0     H27392   3.320   5.189   1.805 -1.0687  0.3111  1.3417
  203MOL0     H27393   3.668   5.463   1.935  1.5667  0.8903 -0.6319
  203MOL0     H27394   3.884   5.529   2.044  0.5467 -0.9046 -0.3247
  203MOL0     H27395   3.905   5.377   2.465  1.8018  0.1254  2.5395
  203MOL0     H27396   4.020   5.513   2.465 -0.2219 -1.5626  1.3532
  203MOL0     H27397   3.785   5.564   2.546 -0.7928  0.1138 -0.3013
  203MOL0     H27398   3.733   5.543   2.378 -0.8624  1.1420  0.2555
  203MOL0     H27399   3.919   5.765   2.469  0.7978 -0.8375 -0.0748
  203MOL0     H27400   3.758   5.786   2.407  0.6504  0.7372  3.7764
  203MOL0     H27401   3.803   5.728   2.186 -2.2199 -0.3301  4.6020
  203MOL0     H27402   3.971   5.690   2.211  0.8055  0.0285  0.0744
  203MOL0     H27403   3.951   6.102   2.179  1.6584  0.0390  2.9231
  203MOL0     H27404   3.843   5.220   2.336  2.2012  1.2826 -0.8198
  203MOL0     H27405   3.654   5.125   2.233  0.7437  0.1797 -1.9538
  204MOL0     O27406   6.099   8.854   2.613  0.3771  0.0411 -0.1402
  204MOL0     C27407   6.107   8.936   2.700  0.2245 -0.6757  0.6946
  204MOL0     O27408   6.174   9.058   2.683  0.3739  0.1185  0.0907
  204MOL0     C27409   6.249   9.079   2.573 -0.2982  0.1682  0.1010
  204MOL0     C27410   6.225   9.162   2.463 -0.0265 -0.4871  0.5861
  204MOL0     C27411   6.315   9.182   2.350 -0.2524 -0.2040 -0.1395
  204MOL0     C27412   6.427   9.113   2.357  0.3302 -0.5488 -1.0049
  204MOL0     O27413   6.509   9.152   2.256 -0.3434 -0.4236  0.2558
  204MOL0     C27414   6.624   9.078   2.225 -1.0631 -0.3994  0.7424
  204MOL0     C27415   6.715   9.153   2.109  0.1445 -0.3175  0.0042
  204MOL0     C27416   6.841   9.074   2.092  0.9018  0.4575  0.1438
  204MOL0     C27417   6.940   9.129   1.994 -0.4203 -0.8791  0.5500
  204MOL0     C27418   7.049   9.032   1.975 -0.8009  0.1188  0.1224
  204MOL0     C27419   7.163   9.083   1.878  0.1806  0.7410  0.4158
  204MOL0     C27420   7.224   9.213   1.918 -0.1917 -0.1129  0.3806
  204MOL0     C27421   7.280   9.307   1.806 -0.2103  0.9773  0.1136
  204MOL0     N27422   7.395   9.253   1.736 -0.2531 -0.1647  0.6013
  204MOL0     C27423   7.389   9.153   1.646 -0.6115  0.3672 -0.1198
  204MOL0     C27424   7.518   9.127   1.621 -0.0409  0.7202  0.0212
  204MOL0     C27425   7.554   9.039   1.506  0.2874  0.6182  0.2072
  204MOL0     C27426   7.697   9.064   1.448 -1.2652  0.7212 -0.0518
  204MOL0     C27427   7.796   8.968   1.527  0.9678 -1.2329 -0.2184
  204MOL0     C27428   7.931   9.013   1.501 -0.3962  0.7610  0.8947
  204MOL0     O27429   7.975   9.035   1.366 -0.6492 -0.1682 -0.2399
  204MOL0     C27430   7.966   8.939   1.272 -0.1941 -0.4421  0.5111
  204MOL0     C27431   7.958   8.802   1.301 -0.5514  0.4702 -0.7144
  204MOL0     C27432   7.958   8.699   1.209  0.5477 -0.4101  0.1871
  204MOL0     C27433   7.952   8.547   1.253 -0.0086 -0.4310  0.2892
  204MOL0     C27434   7.985   8.736   1.078 -0.4683 -0.1731  0.0343
  204MOL0     C27435   8.014   8.625   0.975 -0.0568  0.4798  0.7689
  204MOL0     O27436   8.136   8.644   0.913 -1.1130 -0.2300 -0.7406
  204MOL0     C27437   8.169   8.570   0.797  0.1970  0.7562 -0.5798
  204MOL0     C27438   8.299   8.581   0.753  0.4711  0.8765  0.5484
  204MOL0     C27439   8.343   8.523   0.629 -0.5633 -0.0265  0.3422
  204MOL0     C27440   8.257   8.433   0.558  0.0504  0.0052  0.1602
  204MOL0     O27441   8.292   8.361   0.451 -0.2406  0.0772  0.2913
  204MOL0     C27442   8.270   8.431   0.325  0.0874  0.3757 -0.6714
  204MOL0     C27443   8.219   8.340   0.205 -0.2818 -0.1975 -0.2053
  204MOL0     C27444   8.159   8.204   0.260 -0.5190 -0.2615  0.4319
  204MOL0     C27445   8.136   8.107   0.142  0.5925  0.6002  0.0896
  204MOL0     C27446   8.077   7.970   0.188  0.4504 -0.2619  0.1627
  204MOL0     C27447   8.162   7.874   0.252 -0.4911  0.3027 -0.3873
  204MOL0     C27448   8.137   7.726   0.213 -0.4888 -0.4680 -0.5897
  204MOL0     C27449   8.205   7.644   0.327 -0.5836 -0.2935 -0.0920
  204MOL0    Cl27450   8.373   7.687   0.365 -0.0985  0.2612  0.5346
  204MOL0     C27451   8.126   8.424   0.604 -0.8338  0.1697 -1.1960
  204MOL0     C27452   8.087   8.493   0.722 -0.0219 -0.2269  0.0958
  204MOL0     O27453   7.932   8.529   0.961  0.4217 -0.7033  0.5298
  204MOL0     C27454   8.013   8.867   1.046  0.3702 -0.6734 -0.9547
  204MOL0     C27455   8.013   8.970   1.143 -0.0691 -0.2705 -1.3180
  204MOL0     N27456   7.605   9.214   1.680 -0.3511 -0.0827  0.1111
  204MOL0     N27457   7.529   9.283   1.761 -1.0332 -0.4939 -0.1858
  204MOL0     C27458   6.470   9.037   2.466 -0.6508  0.1178  0.4189
  204MOL0     C27459   6.374   9.013   2.568  1.0342 -0.7754  0.4745
  204MOL0     C27460   6.038   8.911   2.827  0.5024  0.2929 -0.7366
  204MOL0     C27461   6.060   8.988   2.940  0.3596  0.1588  0.2208
  204MOL0     C27462   5.975   8.964   3.051  0.3202 -0.4324 -0.5229
  204MOL0     C27463   5.903   8.843   3.070 -0.9379 -0.3616 -0.1115
  204MOL0     O27464   5.861   8.811   3.192  0.3120 -0.2610 -0.1171
  204MOL0     C27465   5.811   8.675   3.207  0.5421 -0.0533  0.0005
  204MOL0     C27466   5.813   8.622   3.347 -0.0555  0.1433  0.0093
  204MOL0     C27467   5.955   8.571   3.380  0.2309  0.2615 -1.1925
  204MOL0     C27468   5.989   8.594   3.530  0.4218 -0.5363 -0.3303
  204MOL0     C27469   6.061   8.719   3.535  0.5540 -0.2143 -0.6876
  204MOL0     C27470   6.129   8.818   3.512  0.2558  0.3270 -1.4671
  204MOL0     C27471   5.889   8.767   2.952 -0.5320  0.5584 -0.3835
  204MOL0     C27472   5.945   8.804   2.832 -0.4100  0.2105 -0.3574
  204MOL0     H27473   6.140   9.228   2.478 -1.2416 -1.8448 -0.1218
  204MOL0     H27474   6.300   9.247   2.264 -2.6838  3.4455  2.6612
  204MOL0     H27475   6.679   9.082   2.319 -0.2511 -1.2421  0.3291
  204MOL0     H27476   6.609   8.976   2.189  7.6380 -1.2396 -3.1811
  204MOL0     H27477   6.660   9.135   2.016  1.3666 -1.4017 -0.5455
  204MOL0     H27478   6.739   9.257   2.132  0.4205  0.0031 -1.6102
  204MOL0     H27479   6.899   9.071   2.185  1.9384  1.7702 -0.4227
  204MOL0     H27480   6.814   8.973   2.063  1.7811  0.0471  0.6961
  204MOL0     H27481   6.891   9.154   1.900 -2.8695 -1.0328  1.7133
  204MOL0     H27482   6.973   9.224   2.039 -1.3411 -0.1114 -0.3338
  204MOL0     H27483   7.096   9.009   2.071 -2.6853  0.4692  1.1817
  204MOL0     H27484   7.010   8.939   1.932 -2.1693  1.5688 -1.9376
  204MOL0     H27485   7.234   9.002   1.856  0.9681  1.1689  1.3120
  204MOL0     H27486   7.109   9.110   1.786  2.4636 -0.4950 -1.3859
  204MOL0     H27487   7.148   9.273   1.970  1.0260 -1.3222  3.8551
  204MOL0     H27488   7.303   9.199   1.992  1.7615 -0.9752 -1.7685
  204MOL0     H27489   7.315   9.399   1.853  0.2446  1.3157 -0.8695
  204MOL0     H27490   7.194   9.330   1.743 -1.6643  3.7688  2.7946
  204MOL0     H27491   7.298   9.122   1.595 -1.6398  0.7954  1.3976
  204MOL0     H27492   7.544   8.936   1.541  1.3972  0.4052 -0.0655
  204MOL0     H27493   7.481   9.049   1.426 -0.9404  0.4373  1.2619
  204MOL0     H27494   7.728   9.167   1.465 -0.4029  0.6286 -0.9817
  204MOL0     H27495   7.711   9.036   1.344  1.8174 -0.6794  0.6217
  204MOL0     H27496   7.781   8.862   1.504 -0.6139 -0.9217 -0.7940
  204MOL0     H27497   7.774   8.982   1.633 -1.3220  1.5558 -0.9355
  204MOL0     H27498   7.993   8.936   1.548 -2.4193 -1.0449  0.7985
  204MOL0     H27499   7.927   9.103   1.563 -0.0980  1.2576  0.2001
  204MOL0     H27500   7.956   8.770   1.405 -0.6553  2.0998 -0.1747
  204MOL0     H27501   7.851   8.525   1.289 -0.1964 -1.6092 -0.9163
  204MOL0     H27502   7.991   8.465   1.192 -0.6541  0.1552 -0.9436
  204MOL0     H27503   8.010   8.539   1.346  3.0579 -2.7552 -1.6603
  204MOL0     H27504   8.369   8.630   0.820  2.1076 -0.7372  0.1207
  204MOL0     H27505   8.446   8.518   0.595 -0.5776 -3.5420  0.4555
  204MOL0     H27506   8.203   8.516   0.336  0.9149  0.7365  3.2032
  204MOL0     H27507   8.359   8.482   0.288  0.5224 -0.1641 -0.3786
  204MOL0     H27508   8.145   8.398   0.149 -1.8654 -2.2799 -0.3830
  204MOL0     H27509   8.301   8.326   0.134  0.3355 -0.2422  0.5071
  204MOL0     H27510   8.064   8.236   0.305 -0.6019  1.1018 -0.6097
  204MOL0     H27511   8.217   8.141   0.327 -2.1292 -0.2276  1.9210
  204MOL0     H27512   8.070   8.157   0.071 -0.8276 -1.7124 -0.3342
  204MOL0     H27513   8.232   8.092   0.092 -0.4180 -0.2682 -1.6854
  204MOL0     H27514   8.033   7.913   0.107 -1.2992  1.9610 -0.5614
  204MOL0     H27515   7.998   8.009   0.253  0.9657 -0.6849  1.0643
  204MOL0     H27516   8.268   7.888   0.227  0.7530 -3.0565  2.1924
  204MOL0     H27517   8.147   7.888   0.359  2.1809  0.5358  0.0287
  204MOL0     H27518   8.202   7.691   0.133  0.5766  2.3554 -1.0822
  204MOL0     H27519   8.038   7.695   0.179 -1.7479  1.6426  0.8788
  204MOL0     H27520   8.199   7.536   0.310 -2.1448 -0.3304  0.5461
  204MOL0     H27521   8.150   7.667   0.419  0.7489 -4.2046  1.9104
  204MOL0     H27522   8.061   8.346   0.566  1.1879 -3.5832  2.2722
  204MOL0     H27523   7.986   8.474   0.758  0.3111 -0.7523  0.7594
  204MOL0     H27524   8.041   8.888   0.943 -0.1880  0.5862 -0.8572
  204MOL0     H27525   8.040   9.070   1.108  1.6446 -0.4097 -0.4917
  204MOL0     H27526   6.561   8.979   2.461 -0.1632  0.8387  0.6745
  204MOL0     H27527   6.411   8.959   2.655  0.8985 -0.5519  0.6707
  204MOL0     H27528   6.122   9.077   2.942  1.4017 -0.5134 -0.8510
  204MOL0     H27529   5.986   9.033   3.135  0.8204 -2.3362  1.0657
  204MOL0     H27530   5.707   8.664   3.174 -0.3014 -1.9180  2.9727
  204MOL0     H27531   5.871   8.606   3.145 -1.7765  0.3214 -2.9004
  204MOL0     H27532   5.748   8.534   3.349  1.9263 -1.4160 -0.9302
  204MOL0     H27533   5.770   8.691   3.421  0.2661  1.9371 -1.3995
  204MOL0     H27534   6.033   8.618   3.319  1.9263 -0.6707  0.1589
  204MOL0     H27535   5.959   8.464   3.358 -1.9333 -0.0534 -0.2744
  204MOL0     H27536   6.056   8.511   3.556 -1.2430 -1.4553  1.2454
  204MOL0     H27537   5.904   8.591   3.598 -0.8531  0.2966 -1.8209
  204MOL0     H27538   6.202   8.896   3.507 -0.2476  1.4306  3.3061
  204MOL0     H27539   5.819   8.684   2.949  2.3154 -2.2132  1.8156
  204MOL0     H27540   5.908   8.749   2.746 -0.2032 -0.6373  0.0847
  205MOL0     O27541   3.996   4.457   3.991  0.1766 -0.8430 -0.8149
  205MOL0     C27542   3.955   4.468   3.880 -0.1536 -0.8192  0.1473
  205MOL0     O27543   3.854   4.550   3.836  0.1047  0.8959 -0.2746
  205MOL0     C27544   3.802   4.639   3.924  0.4053 -0.3382 -0.2219
  205MOL0     C27545   3.848   4.770   3.939  0.7268 -0.6136  0.3775
  205MOL0     C27546   3.790   4.856   4.031  0.6351  0.0201 -0.0696
  205MOL0     C27547   3.673   4.818   4.105 -0.4866  0.1795 -0.5906
  205MOL0     O27548   3.600   4.902   4.184 -0.6120  0.0432  0.5525
  205MOL0     C27549   3.662   4.973   4.289  0.6412 -0.7624 -1.2643
  205MOL0     C27550   3.559   5.054   4.375  0.2134 -0.7769  0.3338
  205MOL0     C27551   3.472   4.956   4.469  0.2182  0.2763  0.1794
  205MOL0     C27552   3.334   5.034   4.492 -0.2025 -0.6112  0.6374
  205MOL0     C27553   3.280   4.988   4.628  0.1862 -0.0195 -0.6232
  205MOL0     C27554   3.142   5.056   4.672 -0.1475  0.2759  0.1485
  205MOL0     C27555   3.049   5.056   4.553 -0.4906 -0.4392  0.7943
  205MOL0     C27556   2.901   5.067   4.596  0.0487  0.1767  0.1997
  205MOL0     N27557   2.843   4.926   4.609 -0.4369 -1.0136  0.0583
  205MOL0     C27558   2.808   4.835   4.508  0.4185 -0.3071 -0.2315
  205MOL0     C27559   2.812   4.716   4.573  1.6466 -0.4039  0.7236
  205MOL0     C27560   2.826   4.579   4.514  0.3417  0.2591  0.4864
  205MOL0     C27561   2.938   4.497   4.579  0.0578 -0.5849  0.3439
  205MOL0     C27562   3.041   4.465   4.470  0.7492  0.7058  0.2449
  205MOL0     C27563   3.136   4.579   4.449  0.2449  0.6357 -0.6941
  205MOL0     O27564   3.243   4.544   4.362  0.0452 -0.9104  0.2647
  205MOL0     C27565   3.227   4.582   4.233  0.1836 -1.7826 -0.1519
  205MOL0     C27566   3.227   4.708   4.193  0.1529 -0.1295 -0.3923
  205MOL0     C27567   3.219   4.743   4.059 -0.4410 -0.1753 -0.2956
  205MOL0     C27568   3.255   4.889   4.042  0.7476 -0.5881  0.0252
  205MOL0     C27569   3.199   4.644   3.958  0.3004  0.2037 -0.4263
  205MOL0     C27570   3.170   4.676   3.815  0.0925  0.8122  0.3992
  205MOL0     O27571   3.163   4.568   3.739 -0.0603  0.1256  0.0123
  205MOL0     C27572   3.161   4.592   3.599 -0.8252 -0.3664 -1.2808
  205MOL0     C27573   3.277   4.561   3.526 -0.0435 -0.4517  0.0596
  205MOL0     C27574   3.279   4.584   3.387  0.3284  0.3136  1.0486
  205MOL0     C27575   3.174   4.638   3.310  0.0932 -0.5320 -0.4475
  205MOL0     O27576   3.195   4.650   3.175  0.6979  0.7897 -0.6988
  205MOL0     C27577   3.091   4.725   3.103 -0.4329 -0.2192 -0.6356
  205MOL0     C27578   3.114   4.741   2.952  0.2955 -0.3492 -0.1269
  205MOL0     C27579   3.128   4.599   2.889  1.3164  0.2924 -0.5359
  205MOL0     C27580   3.256   4.529   2.901 -1.8029 -0.2044 -0.4223
  205MOL0     C27581   3.274   4.424   2.805 -0.5511  0.9032 -1.2576
  205MOL0     C27582   3.422   4.356   2.818  0.7584  0.2414 -0.9721
  205MOL0     C27583   3.454   4.287   2.952 -0.5080  0.2075 -1.5078
  205MOL0     C27584   3.569   4.359   3.048  0.2226  0.0893 -0.4753
  205MOL0    Cl27585   3.747   4.299   2.988 -0.4342  0.6278  0.4765
  205MOL0     C27586   3.063   4.678   3.391 -0.2743 -0.1455  0.3432
  205MOL0     C27587   3.058   4.646   3.529  0.0823  0.1969 -0.5545
  205MOL0     O27588   3.169   4.793   3.778 -0.4947 -0.2182  0.3086
  205MOL0     C27589   3.201   4.514   4.004 -0.1534 -0.0500 -0.5738
  205MOL0     C27590   3.205   4.480   4.142  0.2138  0.2070  0.1082
  205MOL0     N27591   2.840   4.731   4.710 -0.5355 -0.0239  0.1107
  205MOL0     N27592   2.873   4.860   4.724  0.7612 -0.9805 -0.1544
  205MOL0     C27593   3.621   4.701   4.071 -0.1516  0.3801  0.5528
  205MOL0     C27594   3.682   4.608   3.990 -0.0873  0.1341  0.3815
  205MOL0     C27595   4.003   4.398   3.769  1.1233  0.0146 -0.3937
  205MOL0     C27596   4.148   4.364   3.768 -0.2739  0.0142  0.2508
  205MOL0     C27597   4.217   4.298   3.674 -0.1916  0.2474  0.0259
  205MOL0     C27598   4.140   4.253   3.557 -0.2267 -0.4325 -0.0844
  205MOL0     O27599   4.207   4.187   3.457  0.5272  0.0134 -0.5402
  205MOL0     C27600   4.154   4.177   3.322 -0.0832  0.3214  0.0117
  205MOL0     C27601   4.253   4.078   3.246 -0.1753  0.0067 -0.9245
  205MOL0     C27602   4.205   4.041   3.103  0.3259 -1.9739 -0.3327
  205MOL0     C27603   4.068   3.968   3.101  0.1729  0.7017  0.6279
  205MOL0     C27604   4.054   3.918   2.961 -0.3611 -0.1857  0.2848
  205MOL0     C27605   4.034   3.863   2.852  0.3787 -0.0240 -0.8232
  205MOL0     C27606   3.998   4.277   3.561  0.7710 -0.5184  0.1150
  205MOL0     C27607   3.930   4.350   3.660 -0.7687  0.0832  1.0235
  205MOL0     H27608   3.944   4.799   3.898 -0.3055 -0.7867 -2.3481
  205MOL0     H27609   3.841   4.949   4.054  1.1065 -0.7989  2.5748
  205MOL0     H27610   3.718   4.900   4.349 -0.7237  0.7494  2.0991
  205MOL0     H27611   3.735   5.040   4.243  1.0415 -0.3165 -0.0300
  205MOL0     H27612   3.612   5.115   4.449 -1.0369 -0.6111  1.1298
  205MOL0     H27613   3.492   5.107   4.308  1.2547 -0.1860 -0.2709
  205MOL0     H27614   3.463   4.864   4.411  0.4057 -0.3523  1.1487
  205MOL0     H27615   3.531   4.924   4.555  2.6956 -0.3872 -1.6391
  205MOL0     H27616   3.353   5.141   4.507  1.0672 -0.5524 -1.0577
  205MOL0     H27617   3.272   5.020   4.403  1.9192  1.4371 -1.3015
  205MOL0     H27618   3.263   4.880   4.635  1.3484 -0.2195 -0.6338
  205MOL0     H27619   3.360   5.002   4.702 -1.0052  1.4025  0.4535
  205MOL0     H27620   3.116   4.984   4.749 -2.3501 -0.5812 -1.2830
  205MOL0     H27621   3.158   5.158   4.709 -0.4236  0.3968 -0.0533
  205MOL0     H27622   3.081   5.135   4.485 -1.3267 -0.9416 -0.1932
  205MOL0     H27623   3.060   4.963   4.496  1.0256 -0.5483  1.2218
  205MOL0     H27624   2.840   5.121   4.523 -0.4829  1.1352  1.3348
  205MOL0     H27625   2.897   5.123   4.689  2.4969 -0.5328  0.8046
  205MOL0     H27626   2.796   4.865   4.404  1.5065  0.4153 -0.1661
  205MOL0     H27627   2.729   4.534   4.540  1.6486 -1.9577  1.9089
  205MOL0     H27628   2.836   4.588   4.405 -0.2520  0.7607  0.4653
  205MOL0     H27629   2.896   4.402   4.616  0.9059 -1.4901 -0.9312
  205MOL0     H27630   2.997   4.540   4.660  0.7693 -1.3486  0.2444
  205MOL0     H27631   2.988   4.438   4.379  4.6361 -5.8237 -0.6916
  205MOL0     H27632   3.110   4.389   4.508  0.8857 -0.7879 -2.7013
  205MOL0     H27633   3.189   4.618   4.536 -0.9388  2.2591 -0.6550
  205MOL0     H27634   3.084   4.667   4.409 -0.1396  1.4451  1.4531
  205MOL0     H27635   3.245   4.780   4.272  1.3558 -1.7816  0.9264
  205MOL0     H27636   3.226   4.950   4.128  2.2257 -1.9108  1.5600
  205MOL0     H27637   3.363   4.899   4.027  0.8923  0.8569  1.6397
  205MOL0     H27638   3.212   4.932   3.952 -2.8533 -2.6234  0.5857
  205MOL0     H27639   3.366   4.526   3.577  1.6169  2.4663 -0.6018
  205MOL0     H27640   3.363   4.542   3.332 -0.6362 -3.2954  2.0910
  205MOL0     H27641   2.993   4.677   3.112 -0.7179  0.3130 -0.8839
  205MOL0     H27642   3.090   4.824   3.150  1.3025 -0.6297  0.3862
  205MOL0     H27643   3.022   4.788   2.918  0.5420  1.3459  1.3869
  205MOL0     H27644   3.197   4.810   2.938 -0.6448  1.2925  1.8616
  205MOL0     H27645   3.108   4.621   2.784 -0.8613 -1.8583 -0.6665
  205MOL0     H27646   3.057   4.524   2.924  4.9403 -4.7282 -2.7184
  205MOL0     H27647   3.328   4.610   2.880 -2.0275 -0.1584 -1.0364
  205MOL0     H27648   3.268   4.487   3.001 -1.2748  1.8949  0.4463
  205MOL0     H27649   3.272   4.467   2.704  0.5393  0.7610 -1.3457
  205MOL0     H27650   3.195   4.348   2.805 -1.1341  1.4262 -3.7225
  205MOL0     H27651   3.427   4.287   2.732 -0.6952  1.4494 -2.0764
  205MOL0     H27652   3.489   4.438   2.790  0.4631  1.5195  1.8144
  205MOL0     H27653   3.500   4.189   2.938  3.2927  1.2889  1.5859
  205MOL0     H27654   3.363   4.265   3.010  0.4463 -1.9049 -0.6777
  205MOL0     H27655   3.552   4.327   3.151  0.8326 -0.9047 -0.6724
  205MOL0     H27656   3.562   4.468   3.047 -2.7664  0.0058 -2.5957
  205MOL0     H27657   2.982   4.736   3.349  0.1189 -0.4590 -0.8772
  205MOL0     H27658   2.974   4.674   3.591  1.4573  0.8500  1.1186
  205MOL0     H27659   3.199   4.439   3.926  3.1344 -2.1553  1.0980
  205MOL0     H27660   3.210   4.380   4.184  2.9604 -0.5393 -1.7218
  205MOL0     H27661   3.531   4.669   4.123  1.3103 -1.2346  2.2528
  205MOL0     H27662   3.636   4.513   3.960 -1.4481  1.3690 -1.7453
  205MOL0     H27663   4.205   4.395   3.855  1.4982 -1.7757 -0.2110
  205MOL0     H27664   4.324   4.288   3.686 -0.5900 -0.4029  5.9015
  205MOL0     H27665   4.066   4.113   3.332  0.5758 -0.4626  0.9296
  205MOL0     H27666   4.137   4.274   3.275  2.4871  0.4925 -0.7220
  205MOL0     H27667   4.248   3.987   3.306 -2.6484 -0.8140 -2.2149
  205MOL0     H27668   4.353   4.122   3.252 -0.0045 -0.5542  0.7933
  205MOL0     H27669   4.283   3.973   3.066 -0.4273 -2.7982 -0.4256
  205MOL0     H27670   4.215   4.131   3.041  3.2383 -0.8342  1.5454
  205MOL0     H27671   3.980   4.030   3.119 -0.9983 -0.3520 -1.1574
  205MOL0     H27672   4.062   3.889   3.175 -1.1256 -1.2485 -1.4275
  205MOL0     H27673   4.021   3.806   2.762  0.6527 -0.9218 -0.2986
  205MOL0     H27674   3.944   4.235   3.477  4.8206 -0.1260 -2.9867
  205MOL0     H27675   3.824   4.371   3.644 -0.0909  3.6732  0.3957
  206MOL0     O27676   4.219   7.372   7.198  0.1705  0.4234  0.3881
  206MOL0     C27677   4.339   7.390   7.229 -0.0993 -0.1197  0.8037
  206MOL0     O27678   4.404   7.506   7.190  1.3945 -0.5379 -0.5423
  206MOL0     C27679   4.352   7.631   7.214  0.1012 -0.1230 -0.5778
  206MOL0     C27680   4.286   7.669   7.330 -0.8076  0.0692  0.4861
  206MOL0     C27681   4.220   7.795   7.343  0.0657  0.0154  0.7276
  206MOL0     C27682   4.231   7.896   7.239  0.0292  0.0199 -0.2581
  206MOL0     O27683   4.173   8.019   7.255  0.1095 -0.2069 -0.0164
  206MOL0     C27684   4.219   8.127   7.173  0.3954  1.3605 -0.0192
  206MOL0     C27685   4.155   8.254   7.229 -0.0756 -0.1214 -0.0374
  206MOL0     C27686   4.211   8.381   7.159  1.0883 -0.0051  0.0669
  206MOL0     C27687   4.175   8.502   7.246  0.0844 -0.3044 -0.7708
  206MOL0     C27688   4.029   8.507   7.298  0.2351  0.5802 -0.2135
  206MOL0     C27689   4.004   8.649   7.353 -0.1029  0.9368 -1.0061
  206MOL0     C27690   3.850   8.690   7.356 -0.7093 -1.3472  0.7447
  206MOL0     C27691   3.758   8.611   7.446  0.7257 -0.0153  0.0306
  206MOL0     N27692   3.736   8.465   7.408 -0.5774  0.0148 -0.0106
  206MOL0     C27693   3.779   8.366   7.489  0.0225 -0.2078  1.0586
  206MOL0     C27694   3.735   8.262   7.424 -0.5533  0.6523 -1.3042
  206MOL0     C27695   3.774   8.120   7.461 -0.0532 -1.0857 -0.1138
  206MOL0     C27696   3.823   8.037   7.340  0.3656  0.5121 -0.3252
  206MOL0     C27697   3.868   7.897   7.381 -0.2457  0.0569 -0.7649
  206MOL0     C27698   3.760   7.801   7.418  0.7243  0.4173  1.5554
  206MOL0     O27699   3.802   7.678   7.474  0.0245  0.8180 -0.0928
  206MOL0     C27700   3.778   7.566   7.401 -0.0303  0.1388  0.5630
  206MOL0     C27701   3.654   7.517   7.375  0.3660  0.4759 -0.4841
  206MOL0     C27702   3.627   7.400   7.300  0.0767 -0.3629 -1.2315
  206MOL0     C27703   3.470   7.368   7.290 -0.1009 -0.2556 -0.6550
  206MOL0     C27704   3.746   7.334   7.243 -0.4145  0.2362  0.3801
  206MOL0     C27705   3.746   7.208   7.160  0.6031  0.3101  0.3928
  206MOL0     O27706   3.620   7.166   7.136  0.6558 -0.0652 -0.4381
  206MOL0     C27707   3.602   7.034   7.095 -0.9944 -0.0685  0.7540
  206MOL0     C27708   3.581   7.011   6.955 -0.4454  0.1400 -0.2162
  206MOL0     C27709   3.590   6.890   6.905  0.1010 -0.6477 -0.6004
  206MOL0     C27710   3.610   6.777   6.988 -0.3489 -1.1119 -1.0620
  206MOL0     O27711   3.623   6.662   6.916  0.7721  0.4036  0.4249
  206MOL0     C27712   3.633   6.531   6.974 -0.5784  0.3765  0.0537
  206MOL0     C27713   3.788   6.511   7.028  0.4140 -0.2658 -0.1521
  206MOL0     C27714   3.889   6.483   6.912 -0.3179  0.1395 -0.6196
  206MOL0     C27715   3.921   6.613   6.847  1.0902  0.3142  0.0276
  206MOL0     C27716   4.004   6.589   6.717  0.2090  0.1607  0.0801
  206MOL0     C27717   4.037   6.732   6.644 -0.1910  0.9744  0.7132
  206MOL0     C27718   4.138   6.706   6.525  0.3632  0.1016 -1.4181
  206MOL0     C27719   4.084   6.648   6.393  0.2324 -0.5609  0.5463
  206MOL0    Cl27720   3.991   6.772   6.308  0.7162 -0.0936  0.6415
  206MOL0     C27721   3.603   6.794   7.122 -0.0384  1.2699  1.0652
  206MOL0     C27722   3.607   6.923   7.178  0.1271 -0.3218 -0.4558
  206MOL0     O27723   3.850   7.153   7.102  0.2355 -0.2835 -0.4667
  206MOL0     C27724   3.874   7.384   7.276  0.3711 -0.1055  0.4122
  206MOL0     C27725   3.888   7.497   7.351  0.3080  0.3134 -0.2583
  206MOL0     N27726   3.656   8.290   7.323 -0.1609  0.4922 -0.6224
  206MOL0     N27727   3.664   8.416   7.302  0.2130 -0.0235  0.2412
  206MOL0     C27728   4.303   7.859   7.124  0.6342 -0.6093  0.0927
  206MOL0     C27729   4.360   7.730   7.113 -0.7016 -0.9164 -0.2399
  206MOL0     C27730   4.419   7.281   7.297  0.6543 -0.7078  0.0112
  206MOL0     C27731   4.350   7.170   7.361 -1.1682  0.3945 -0.0424
  206MOL0     C27732   4.421   7.075   7.439  0.5440 -0.2732 -0.4910
  206MOL0     C27733   4.566   7.086   7.445 -0.0957  0.0846  0.6220
  206MOL0     O27734   4.639   6.993   7.514 -0.0729  0.3521  0.2410
  206MOL0     C27735   4.607   6.944   7.644  1.3607 -0.6832 -0.5821
  206MOL0     C27736   4.586   7.041   7.760  0.0467  0.6623 -0.0811
  206MOL0     C27737   4.722   7.121   7.794 -0.1152 -0.4461 -0.9617
  206MOL0     C27738   4.715   7.205   7.926 -0.4207  0.5969  0.2039
  206MOL0     C27739   4.683   7.119   8.044 -0.5410  0.1491  0.3439
  206MOL0     C27740   4.661   7.048   8.132  1.2544  0.6448  0.0854
  206MOL0     C27741   4.628   7.192   7.381  0.3897 -0.0394 -0.3870
  206MOL0     C27742   4.556   7.297   7.316 -0.7085 -0.1294 -0.0328
  206MOL0     H27743   4.276   7.592   7.406  1.2275 -0.5095  0.2517
  206MOL0     H27744   4.154   7.826   7.424 -0.8351  3.8366 -1.1986
  206MOL0     H27745   4.327   8.141   7.180  1.2813 -2.5018 -2.6703
  206MOL0     H27746   4.193   8.111   7.068 -0.3671  0.9354  0.2267
  206MOL0     H27747   4.046   8.259   7.219 -0.2164 -1.2170  0.8021
  206MOL0     H27748   4.179   8.255   7.335  1.9164  0.5175 -0.4491
  206MOL0     H27749   4.320   8.376   7.160  1.1727  1.4336  1.6182
  206MOL0     H27750   4.158   8.406   7.066  1.8579  1.7049  0.0577
  206MOL0     H27751   4.243   8.490   7.331  0.9663 -0.8235 -1.5269
  206MOL0     H27752   4.209   8.599   7.207  1.0355  1.1315  3.1575
  206MOL0     H27753   3.959   8.484   7.217  0.3458 -2.2647  0.3853
  206MOL0     H27754   4.007   8.428   7.371 -3.3663 -0.2810 -2.0040
  206MOL0     H27755   4.034   8.670   7.456 -1.5882  0.1842 -0.3836
  206MOL0     H27756   4.056   8.728   7.299 -1.4789  1.3344 -1.7821
  206MOL0     H27757   3.852   8.793   7.391  0.0337 -0.9204 -0.4739
  206MOL0     H27758   3.811   8.695   7.254  0.1728 -1.6499  0.3846
  206MOL0     H27759   3.660   8.660   7.435  0.2805 -1.2919 -2.4384
  206MOL0     H27760   3.813   8.629   7.539  2.9911 -2.4798 -0.7134
  206MOL0     H27761   3.848   8.369   7.572 -0.7202  1.7652  1.6492
  206MOL0     H27762   3.859   8.140   7.527 -1.2100  2.9319  0.4093
  206MOL0     H27763   3.695   8.055   7.501 -0.2311 -2.6029 -2.7347
  206MOL0     H27764   3.914   8.080   7.296 -0.7839  3.5992  0.0279
  206MOL0     H27765   3.743   8.038   7.265 -0.9990  0.5986  1.0838
  206MOL0     H27766   3.930   7.906   7.471 -0.6754  2.2991 -0.6288
  206MOL0     H27767   3.913   7.851   7.293 -1.9990 -0.6787 -1.3276
  206MOL0     H27768   3.699   7.784   7.329 -0.0467 -0.2891  2.2063
  206MOL0     H27769   3.700   7.846   7.497  0.7380  2.3646  0.5090
  206MOL0     H27770   3.564   7.555   7.423 -0.5131 -2.7945  0.7445
  206MOL0     H27771   3.447   7.267   7.325 -3.2326  1.2028  1.9633
  206MOL0     H27772   3.402   7.431   7.347 -0.9302  2.0769 -3.9109
  206MOL0     H27773   3.437   7.371   7.186  0.3291 -0.9535 -0.8237
  206MOL0     H27774   3.573   7.102   6.897  0.0765  3.1980  4.0092
  206MOL0     H27775   3.578   6.890   6.797 -2.1153  0.4811 -0.4078
  206MOL0     H27776   3.557   6.505   7.047 -0.0432 -3.1031 -0.4470
  206MOL0     H27777   3.613   6.449   6.904  0.7629 -1.2653  1.4936
  206MOL0     H27778   3.820   6.592   7.094 -0.7096  0.9876 -1.0999
  206MOL0     H27779   3.787   6.419   7.088  5.2325 -0.6879 -0.3404
  206MOL0     H27780   3.845   6.415   6.838  4.6856 -1.5644 -2.4202
  206MOL0     H27781   3.977   6.431   6.952 -2.2423 -0.5444  3.1658
  206MOL0     H27782   3.828   6.654   6.807  2.2763  1.0281 -2.1821
  206MOL0     H27783   3.974   6.683   6.913 -2.8191  1.8531  1.8482
  206MOL0     H27784   3.945   6.522   6.654  2.9251 -3.4086  0.9961
  206MOL0     H27785   4.098   6.541   6.745  1.0873  1.7182 -0.0986
  206MOL0     H27786   3.938   6.767   6.613  0.1723 -0.0077 -1.7815
  206MOL0     H27787   4.079   6.788   6.728 -1.0070 -0.8116  2.3797
  206MOL0     H27788   4.205   6.632   6.570  1.3112  0.7086 -1.8235
  206MOL0     H27789   4.190   6.799   6.502  0.8192 -0.6775 -3.7525
  206MOL0     H27790   4.024   6.559   6.417 -0.7469  0.2274  1.0800
  206MOL0     H27791   4.161   6.612   6.323  0.4970  1.9582 -0.5453
  206MOL0     H27792   3.614   6.706   7.185  0.3478  0.8960  0.4877
  206MOL0     H27793   3.612   6.936   7.286 -0.4931  0.7943 -0.5458
  206MOL0     H27794   3.958   7.326   7.241  0.6816  1.1061 -0.9412
  206MOL0     H27795   3.987   7.541   7.361 -0.5218  2.2968 -0.2328
  206MOL0     H27796   4.321   7.929   7.044 -0.1838 -1.3299 -0.7396
  206MOL0     H27797   4.400   7.705   7.015  0.3321 -1.7830  0.3840
  206MOL0     H27798   4.246   7.143   7.352 -0.9852  0.0644 -1.4410
  206MOL0     H27799   4.367   6.987   7.474  1.0302  0.1048  1.3513
  206MOL0     H27800   4.508   6.899   7.637  0.8582  0.4663 -1.1074
  206MOL0     H27801   4.683   6.876   7.684  1.7492 -0.0422 -0.2235
  206MOL0     H27802   4.545   6.987   7.846  0.5944 -1.2315 -0.9602
  206MOL0     H27803   4.508   7.112   7.729 -1.2233 -0.6738 -0.0574
  206MOL0     H27804   4.745   7.194   7.716  2.6091  1.2313  1.2016
  206MOL0     H27805   4.812   7.059   7.801 -0.4035 -0.6818  2.1123
  206MOL0     H27806   4.633   7.277   7.913 -1.2043 -0.8028 -4.5189
  206MOL0     H27807   4.808   7.259   7.946 -0.8793  1.1952  0.7960
  206MOL0     H27808   4.628   7.003   8.224 -1.9670  0.7133 -0.8955
  206MOL0     H27809   4.736   7.195   7.384  0.4073 -0.6438  1.8155
  206MOL0     H27810   4.597   7.384   7.265  2.5562 -0.4686  1.7133
  207MOL0     O27811   1.952   9.761  11.150 -1.2055 -0.6608 -0.7247
  207MOL0     C27812   2.032   9.763  11.059 -0.1436 -0.2861  0.1906
  207MOL0     O27813   2.097   9.659  11.010  0.7639 -0.3638  0.2582
  207MOL0     C27814   2.047   9.542  11.047  0.0926 -0.2037 -0.0677
  207MOL0     C27815   1.932   9.488  10.985  0.3411 -0.1803 -0.6298
  207MOL0     C27816   1.884   9.364  11.034  0.2297 -0.5428  0.3474
  207MOL0     C27817   1.946   9.285  11.126 -0.7684 -0.0150 -0.1066
  207MOL0     O27818   1.889   9.165  11.151 -0.6180  0.3726 -0.2251
  207MOL0     C27819   1.922   9.114  11.277 -0.0260  0.1659  0.7290
  207MOL0     C27820   1.843   8.989  11.303  0.9522 -0.2475 -0.6519
  207MOL0     C27821   1.899   8.882  11.209 -0.1557  0.6071 -0.7371
  207MOL0     C27822   1.815   8.747  11.227  1.1136  0.4674  0.9978
  207MOL0     C27823   1.703   8.739  11.125 -1.0360  0.6849 -0.4008
  207MOL0     C27824   1.610   8.623  11.165  0.3772 -0.3378 -0.2614
  207MOL0     C27825   1.515   8.604  11.041 -0.3895  0.4514  0.1804
  207MOL0     C27826   1.380   8.554  11.098 -0.8035  0.9825 -0.3739
  207MOL0     N27827   1.278   8.584  10.997  0.3304  0.3757 -1.0993
  207MOL0     C27828   1.239   8.698  10.946  0.7281 -0.5719 -0.0780
  207MOL0     C27829   1.120   8.679  10.891  0.0756 -0.3052 -0.6183
  207MOL0     C27830   1.036   8.786  10.816 -0.6983 -0.4341  0.5997
  207MOL0     C27831   1.026   8.778  10.668 -0.6715  0.3854  0.6685
  207MOL0     C27832   1.160   8.801  10.598 -0.0369  0.3720  1.4575
  207MOL0     C27833   1.135   8.848  10.453  1.0007 -0.0049  0.4131
  207MOL0     O27834   1.119   8.990  10.462 -0.1397 -0.4936  0.5747
  207MOL0     C27835   1.026   9.053  10.384  0.1310 -1.0252  0.4188
  207MOL0     C27836   0.978   9.020  10.253  0.2297  0.0244 -0.8941
  207MOL0     C27837   0.903   9.113  10.176 -0.8612  0.6227  0.2975
  207MOL0     C27838   0.865   9.079  10.033  0.7877 -0.4534 -0.0904
  207MOL0     C27839   0.850   9.221  10.245 -0.6031  0.3701 -1.1877
  207MOL0     C27840   0.752   9.313  10.183 -0.1871 -0.8143 -0.6993
  207MOL0     O27841   0.788   9.362  10.067  0.3041  0.6154  0.4299
  207MOL0     C27842   0.699   9.438   9.997 -0.1549  0.5025 -0.0597
  207MOL0     C27843   0.570   9.411   9.962  0.5347  0.7901  1.2207
  207MOL0     C27844   0.490   9.509   9.901  0.2031 -0.1167  0.3757
  207MOL0     C27845   0.555   9.635   9.870  0.2643 -0.5102 -0.4515
  207MOL0     O27846   0.482   9.740   9.827  0.0683 -0.1954  0.4009
  207MOL0     C27847   0.523   9.764   9.688 -0.4991 -0.0750  0.3036
  207MOL0     C27848   0.403   9.792   9.601 -0.3951  0.9557  0.4463
  207MOL0     C27849   0.320   9.667   9.587 -0.4843 -0.4391 -0.6321
  207MOL0     C27850   0.351   9.580   9.474 -0.0779  0.3226  0.1985
  207MOL0     C27851   0.284   9.445   9.495  0.2732 -0.5768  0.2210
  207MOL0     C27852   0.133   9.469   9.507 -0.1895 -0.4304  0.7789
  207MOL0     C27853   0.058   9.359   9.441  0.7791  0.2041 -0.1726
  207MOL0     C27854  -0.092   9.384   9.446 -0.6279  0.7455 -0.0921
  207MOL0    Cl27855  -0.177   9.281   9.337  0.2156  0.6681 -0.1384
  207MOL0     C27856   0.692   9.650   9.896 -0.1207 -1.2017 -0.4702
  207MOL0     C27857   0.766   9.554   9.964 -0.2037 -0.2872  0.0706
  207MOL0     O27858   0.652   9.344  10.256 -1.1037  0.2401  0.2749
  207MOL0     C27859   0.874   9.243  10.381  0.3023  0.2230  0.9913
  207MOL0     C27860   0.971   9.166  10.446  0.9527  0.1351 -0.3180
  207MOL0     N27861   1.101   8.546  10.880 -0.6120  1.1400 -0.6127
  207MOL0     N27862   1.193   8.488  10.946  0.4867 -0.0603  0.2859
  207MOL0     C27863   2.074   9.338  11.174 -0.9803 -0.3922 -0.5566
  207MOL0     C27864   2.113   9.470  11.145  0.4166  0.8117 -0.0496
  207MOL0     C27865   2.057   9.890  10.988 -0.5732  0.7351 -0.4556
  207MOL0     C27866   1.968   9.997  10.995 -0.3086  0.2293  0.2391
  207MOL0     C27867   2.017  10.124  10.971  1.0613  0.4329 -0.4693
  207MOL0     C27868   2.144  10.144  10.928 -0.1998 -0.4209  0.7897
  207MOL0     O27869   2.185  10.278  10.918  0.2249 -0.6476 -0.3143
  207MOL0     C27870   2.321  10.301  10.886 -0.1101  0.3007  0.1779
  207MOL0     C27871   2.330  10.437  10.822  0.2951 -0.9468  0.1541
  207MOL0     C27872   2.473  10.474  10.777 -0.4739  0.1300 -0.2067
  207MOL0     C27873   2.547  10.539  10.895  0.0129 -0.2906 -0.0404
  207MOL0     C27874   2.490  10.672  10.913 -0.3982 -0.4495  0.0983
  207MOL0     C27875   2.439  10.773  10.939 -0.0478  0.2880 -0.1146
  207MOL0     C27876   2.242  10.035  10.915  0.9189 -0.4913  0.0128
  207MOL0     C27877   2.189   9.915  10.946  0.8076  0.3430 -0.7801
  207MOL0     H27878   1.887   9.528  10.895  0.9859 -0.0633 -0.9061
  207MOL0     H27879   1.801   9.325  10.974  0.6402  0.8274 -1.2005
  207MOL0     H27880   2.028   9.090  11.279  0.0631  0.3979 -0.7031
  207MOL0     H27881   1.912   9.187  11.358  1.6360 -0.8719  1.9477
  207MOL0     H27882   1.831   8.947  11.404 -1.3131 -1.6911 -1.4448
  207MOL0     H27883   1.739   9.013  11.279  0.8326  0.7821  0.7154
  207MOL0     H27884   1.894   8.922  11.108 -0.5416  0.1975 -0.8815
  207MOL0     H27885   2.004   8.854  11.223 -1.0140 -2.2548  0.7461
  207MOL0     H27886   1.870   8.657  11.200 -0.6083 -1.3553  3.1411
  207MOL0     H27887   1.773   8.726  11.326 -0.9002 -1.8220 -0.2204
  207MOL0     H27888   1.658   8.838  11.120  1.1689  1.7902  0.2915
  207MOL0     H27889   1.751   8.723  11.027 -1.7020 -0.6391 -0.5472
  207MOL0     H27890   1.664   8.531  11.188 -1.5889 -1.0496  1.9276
  207MOL0     H27891   1.558   8.666  11.251 -1.9249  1.2118 -2.2662
  207MOL0     H27892   1.505   8.696  10.983  1.1898  0.7857  0.3789
  207MOL0     H27893   1.557   8.531  10.971 -2.4036 -1.6604  1.0260
  207MOL0     H27894   1.363   8.598  11.196 -0.5043 -2.2632  1.2896
  207MOL0     H27895   1.397   8.447  11.113  0.1333  1.2039  0.2351
  207MOL0     H27896   1.280   8.799  10.945  1.1368 -0.7173 -1.9422
  207MOL0     H27897   0.937   8.785  10.862 -0.8866  2.4998  0.4389
  207MOL0     H27898   1.078   8.887  10.817 -0.5985 -0.4283 -1.2499
  207MOL0     H27899   0.953   8.852  10.632  0.0978  1.4131  1.1629
  207MOL0     H27900   0.981   8.684  10.634  2.0370 -0.3306 -1.2123
  207MOL0     H27901   1.223   8.712  10.588 -1.0416 -0.4267  2.0547
  207MOL0     H27902   1.228   8.875  10.642  2.7376  0.0855 -1.8778
  207MOL0     H27903   1.048   8.796  10.414  0.3712  0.0723  1.6514
  207MOL0     H27904   1.214   8.809  10.390 -2.4195 -1.1347 -3.5955
  207MOL0     H27905   1.010   8.937  10.191 -1.7540  1.1340 -3.5941
  207MOL0     H27906   0.756   9.080  10.029  0.6214  1.1336  2.6325
  207MOL0     H27907   0.912   9.140   9.956  1.3061 -0.5165  0.1672
  207MOL0     H27908   0.898   8.975  10.023 -1.2816 -1.0774 -0.9984
  207MOL0     H27909   0.539   9.307   9.967 -0.3297  0.9857  0.2024
  207MOL0     H27910   0.393   9.494   9.856 -0.0500  0.3565  0.7524
  207MOL0     H27911   0.597   9.844   9.697  1.6105 -2.1103  2.7983
  207MOL0     H27912   0.578   9.687   9.632  1.0566  1.7875 -0.8818
  207MOL0     H27913   0.347   9.878   9.640  1.8959  3.1175 -0.6763
  207MOL0     H27914   0.451   9.823   9.508 -0.6303 -1.9072 -0.7066
  207MOL0     H27915   0.216   9.699   9.588 -0.0443  1.1019 -1.1713
  207MOL0     H27916   0.327   9.610   9.680  0.7139  0.6093 -0.0295
  207MOL0     H27917   0.313   9.630   9.384  2.2349  2.4983  0.3400
  207MOL0     H27918   0.459   9.577   9.457 -0.0429 -1.3424  0.5592
  207MOL0     H27919   0.314   9.386   9.582 -0.2360 -2.3000 -0.7264
  207MOL0     H27920   0.296   9.385   9.404 -1.5189  0.5252 -0.7955
  207MOL0     H27921   0.118   9.472   9.615  0.2060 -0.5350  0.8401
  207MOL0     H27922   0.103   9.563   9.460 -1.3053 -1.1625 -0.0213
  207MOL0     H27923   0.080   9.262   9.487  2.1851 -0.2972 -1.8265
  207MOL0     H27924   0.083   9.357   9.335 -5.4544 -0.6143 -2.0153
  207MOL0     H27925  -0.111   9.481   9.399 -0.4474  0.2831 -1.1399
  207MOL0     H27926  -0.128   9.366   9.548 -1.1070  1.6988 -0.0857
  207MOL0     H27927   0.725   9.751   9.874 -0.6484 -1.4977 -3.0125
  207MOL0     H27928   0.865   9.578  10.002 -1.9668  3.0426  3.1560
  207MOL0     H27929   0.829   9.330  10.427 -0.0397  1.6950 -1.8973
  207MOL0     H27930   1.006   9.187  10.546 -1.7776 -2.6003  1.3851
  207MOL0     H27931   2.131   9.274  11.240 -0.0948  0.3088 -0.6277
  207MOL0     H27932   2.203   9.511  11.190  1.1975 -0.5160 -0.3406
  207MOL0     H27933   1.870   9.990  11.040 -0.0816  1.1599  0.9047
  207MOL0     H27934   1.955  10.211  10.993 -1.0226 -1.4351  1.5265
  207MOL0     H27935   2.383  10.310  10.976  1.4619  5.8702 -1.0587
  207MOL0     H27936   2.370  10.240  10.809  0.2824  2.3275 -1.2739
  207MOL0     H27937   2.288  10.515  10.885  0.9362 -0.0977 -0.4426
  207MOL0     H27938   2.271  10.439  10.730  0.4148  2.5523  0.0219
  207MOL0     H27939   2.470  10.542  10.691 -0.6416  0.7302  0.2692
  207MOL0     H27940   2.521  10.386  10.731 -0.2206 -1.2973  2.6037
  207MOL0     H27941   2.652  10.558  10.870 -0.7273  2.0876 -1.7017
  207MOL0     H27942   2.542  10.480  10.987  0.7037 -1.4255 -0.7089
  207MOL0     H27943   2.398  10.871  10.949  1.6533  0.8654  1.8284
  207MOL0     H27944   2.345  10.034  10.879  0.9023  0.9724 -0.1184
  207MOL0     H27945   2.260   9.834  10.933 -1.0434 -1.1379 -2.2838
  208MOL0     O27946   7.370   5.592  10.526  0.6320  0.0433 -0.4600
  208MOL0     C27947   7.486   5.593  10.564  0.6380 -0.6720  0.1004
  208MOL0     O27948   7.588   5.667  10.495  0.2777 -0.5470 -0.6842
  208MOL0     C27949   7.535   5.746  10.400  0.3619 -1.4183  0.0937
  208MOL0     C27950   7.599   5.758  10.273 -0.6557  0.7099  0.4038
  208MOL0     C27951   7.539   5.837  10.175 -0.6034 -0.1612  0.0361
  208MOL0     C27952   7.427   5.912  10.202  0.0141 -0.1949 -0.2433
  208MOL0     O27953   7.358   5.967  10.100 -0.5253  0.4987  0.4781
  208MOL0     C27954   7.264   5.888  10.038  1.1285 -0.6655  0.1770
  208MOL0     C27955   7.125   5.946  10.056 -0.1195  0.0691  0.9284
  208MOL0     C27956   7.098   6.082   9.976  0.1272  0.7706 -0.7516
  208MOL0     C27957   7.113   6.073   9.818 -0.1912  0.1311 -0.1583
  208MOL0     C27958   7.086   6.208   9.760  0.9935 -0.0718 -0.2359
  208MOL0     C27959   7.069   6.182   9.606 -0.1101  0.6027  0.1236
  208MOL0     C27960   7.013   6.305   9.539 -0.5360  0.8249 -0.6404
  208MOL0     C27961   7.100   6.367   9.431  0.3743 -0.4580  1.0176
  208MOL0     N27962   7.043   6.502   9.400  0.0900 -0.7451 -1.2098
  208MOL0     C27963   7.009   6.549   9.270 -0.3568 -1.0073  0.0300
  208MOL0     C27964   7.019   6.683   9.299  0.1493  0.6761 -0.2264
  208MOL0     C27965   6.977   6.781   9.195 -0.3433 -0.1092  0.1634
  208MOL0     C27966   6.845   6.844   9.233 -0.6484  0.8388  0.8103
  208MOL0     C27967   6.797   6.928   9.116 -0.9384  0.0091  0.0878
  208MOL0     C27968   6.694   7.038   9.157  0.6547  0.4330  0.4591
  208MOL0     O27969   6.695   7.144   9.053  0.1109 -0.2916  0.8078
  208MOL0     C27970   6.590   7.235   9.053  0.5341 -0.5350 -0.6742
  208MOL0     C27971   6.498   7.258   9.155 -0.5845  0.5025  0.2611
  208MOL0     C27972   6.396   7.351   9.156 -1.0863 -0.3217  0.0025
  208MOL0     C27973   6.291   7.347   9.262  0.7439  0.8623 -0.7783
  208MOL0     C27974   6.394   7.439   9.037  0.1598  0.8944  0.1608
  208MOL0     C27975   6.288   7.549   9.027 -0.3584  0.1374 -0.2734
  208MOL0     O27976   6.200   7.558   9.127  0.4260 -0.9121 -0.1460
  208MOL0     C27977   6.123   7.672   9.136  0.9176  0.6336 -0.5601
  208MOL0     C27978   6.142   7.799   9.085 -0.3738  0.0013 -0.1741
  208MOL0     C27979   6.057   7.903   9.107 -0.0860 -0.4502  0.0795
  208MOL0     C27980   5.938   7.879   9.169 -0.2547  0.2112 -1.8130
  208MOL0     O27981   5.852   7.981   9.205  0.6333 -0.9555 -0.1941
  208MOL0     C27982   5.914   8.098   9.275  0.8150  0.9024  0.2137
  208MOL0     C27983   5.819   8.219   9.269 -0.5629  0.1648  0.5542
  208MOL0     C27984   5.672   8.182   9.299 -0.4176  0.5695  0.7829
  208MOL0     C27985   5.609   8.307   9.344 -1.1358 -0.8156  0.5335
  208MOL0     C27986   5.456   8.296   9.354 -0.5612 -0.5259  0.6855
  208MOL0     C27987   5.406   8.419   9.421 -0.8764 -0.1020  0.5541
  208MOL0     C27988   5.262   8.402   9.475 -1.0664  0.4575  1.0985
  208MOL0     C27989   5.148   8.394   9.372  0.3130  0.6628 -0.3193
  208MOL0    Cl27990   5.153   8.544   9.263  0.0462 -0.3061 -0.2276
  208MOL0     C27991   5.906   7.753   9.223  0.7838 -0.3398 -0.2330
  208MOL0     C27992   5.999   7.650   9.199  0.4235 -0.1231 -0.5661
  208MOL0     O27993   6.297   7.625   8.928 -0.2723  0.0643 -0.2767
  208MOL0     C27994   6.496   7.428   8.940  0.4153 -1.2071 -0.7649
  208MOL0     C27995   6.589   7.319   8.943  0.4075 -0.2149  0.4910
  208MOL0     N27996   7.036   6.704   9.429  0.7584 -0.1086 -0.0277
  208MOL0     N27997   7.050   6.595   9.495  1.1484 -0.3138  0.6203
  208MOL0     C27998   7.387   5.924  10.332 -0.0977 -0.6563 -1.5542
  208MOL0     C27999   7.438   5.849  10.432  0.9525  0.6284 -0.6713
  208MOL0     C28000   7.526   5.514  10.689  0.8017  0.3804  0.6608
  208MOL0     C28001   7.433   5.417  10.736 -0.9382  0.0855 -0.6376
  208MOL0     C28002   7.486   5.331  10.841  0.0417  0.5584 -0.4205
  208MOL0     C28003   7.621   5.342  10.888  0.5329 -0.4087 -0.3072
  208MOL0     O28004   7.688   5.267  10.990  0.5836  0.6696 -0.3303
  208MOL0     C28005   7.597   5.185  11.070 -0.1560  0.0071 -0.1424
  208MOL0     C28006   7.681   5.102  11.165 -0.1599  0.8245 -0.4727
  208MOL0     C28007   7.597   4.989  11.226 -0.5788  0.7849  0.1816
  208MOL0     C28008   7.646   4.853  11.208 -0.1185  1.0561  0.2772
  208MOL0     C28009   7.567   4.751  11.285  0.1232  0.2222 -0.1963
  208MOL0     C28010   7.513   4.693  11.367 -0.7301  0.7166  0.3372
  208MOL0     C28011   7.688   5.451  10.847 -0.5370 -1.1126  0.0055
  208MOL0     C28012   7.644   5.543  10.750 -1.6221  0.4874  0.4747
  208MOL0     H28013   7.675   5.686  10.247 -1.0862  0.1667  0.6373
  208MOL0     H28014   7.579   5.817  10.076  0.0287 -1.3180  0.5014
  208MOL0     H28015   7.289   5.887   9.931 -1.5980 -0.8140 -0.5323
  208MOL0     H28016   7.258   5.784  10.068  1.2206 -0.5154  0.7260
  208MOL0     H28017   7.051   5.866  10.044  0.1487 -0.0737  0.1669
  208MOL0     H28018   7.119   5.968  10.163 -0.8108 -3.4273  1.7196
  208MOL0     H28019   6.996   6.115   9.998 -1.5399 -3.8784 -0.3699
  208MOL0     H28020   7.169   6.158  10.008 -2.7537  3.2704  0.1366
  208MOL0     H28021   7.211   6.036   9.789  0.4127  0.2097  1.6329
  208MOL0     H28022   7.034   6.002   9.790 -1.2926  1.6374 -1.0115
  208MOL0     H28023   6.988   6.241   9.797  1.9701  1.9775  0.7204
  208MOL0     H28024   7.171   6.274   9.781  1.8075 -0.7247 -1.3837
  208MOL0     H28025   7.164   6.158   9.557 -0.5816  3.7021 -2.6934
  208MOL0     H28026   7.008   6.092   9.597 -0.8701  0.7865  2.6997
  208MOL0     H28027   6.923   6.261   9.495 -1.1830  2.2324 -0.8119
  208MOL0     H28028   6.973   6.367   9.620 -0.8779 -2.7528  2.1339
  208MOL0     H28029   7.091   6.311   9.337  0.9916 -0.3203  0.8714
  208MOL0     H28030   7.205   6.370   9.460  1.1012 -1.1666 -1.2934
  208MOL0     H28031   6.985   6.496   9.179  1.6067  0.2160 -1.2615
  208MOL0     H28032   7.058   6.853   9.183 -1.2077  1.2372  1.9410
  208MOL0     H28033   6.977   6.714   9.108  3.0548 -0.7688  0.5360
  208MOL0     H28034   6.859   6.904   9.323  0.3541 -0.3506  1.4690
  208MOL0     H28035   6.772   6.765   9.253  1.4281 -1.7579 -1.1623
  208MOL0     H28036   6.752   6.853   9.049 -3.2432  0.6378  0.8238
  208MOL0     H28037   6.873   6.985   9.061 -0.9901  1.4071  1.3955
  208MOL0     H28038   6.732   7.072   9.254  1.8340  0.1084  0.1335
  208MOL0     H28039   6.596   6.990   9.165  1.2129 -0.7993  0.1852
  208MOL0     H28040   6.486   7.190   9.238  1.3555  0.1787  0.3272
  208MOL0     H28041   6.313   7.273   9.340  1.6382  2.5246  0.6113
  208MOL0     H28042   6.290   7.442   9.315 -4.4945 -0.7454  2.8171
  208MOL0     H28043   6.191   7.332   9.220 -0.5924  4.3958  0.7535
  208MOL0     H28044   6.229   7.823   9.025 -0.7442  0.3753 -0.5750
  208MOL0     H28045   6.094   7.998   9.069 -2.6121  0.2868 -0.7253
  208MOL0     H28046   5.928   8.079   9.382 -0.1974  2.9644  0.7761
  208MOL0     H28047   6.008   8.133   9.232  0.7010 -1.3732 -2.1088
  208MOL0     H28048   5.858   8.290   9.342  1.1094  0.2806 -0.3945
  208MOL0     H28049   5.835   8.267   9.172  0.4253 -0.0716  0.5914
  208MOL0     H28050   5.658   8.105   9.376 -2.0350  0.7173  0.6597
  208MOL0     H28051   5.624   8.160   9.204  3.0931 -0.0683 -1.0278
  208MOL0     H28052   5.635   8.349   9.442 -1.2942 -0.1379  0.2890
  208MOL0     H28053   5.628   8.382   9.267 -3.4906 -0.0705  0.5972
  208MOL0     H28054   5.431   8.212   9.420 -0.7511  0.1551  1.5071
  208MOL0     H28055   5.409   8.270   9.259 -2.6871 -1.1274  1.8299
  208MOL0     H28056   5.478   8.454   9.495 -0.5273  2.5161 -0.9261
  208MOL0     H28057   5.407   8.497   9.344  0.6822 -1.1806 -0.5779
  208MOL0     H28058   5.254   8.498   9.528  1.7447  1.9477 -0.9048
  208MOL0     H28059   5.260   8.322   9.550  0.2605 -1.6612 -1.0026
  208MOL0     H28060   5.054   8.396   9.429  0.0170 -4.3367 -0.2381
  208MOL0     H28061   5.145   8.301   9.316 -3.2385  0.9626 -0.8408
  208MOL0     H28062   5.806   7.739   9.262 -0.1135  3.4166 -0.7801
  208MOL0     H28063   5.966   7.552   9.234 -2.7392  0.8690 -0.4798
  208MOL0     H28064   6.510   7.505   8.864  1.0732 -0.1946  0.3425
  208MOL0     H28065   6.677   7.293   8.884  1.5812 -0.9343  2.4335
  208MOL0     H28066   7.301   5.985  10.358 -0.3798 -1.7068  0.0667
  208MOL0     H28067   7.393   5.869  10.529 -2.6971 -0.6958 -1.9039
  208MOL0     H28068   7.337   5.400  10.688 -2.1153  0.0171  1.6021
  208MOL0     H28069   7.419   5.258  10.886  0.1937  0.6017 -0.1205
  208MOL0     H28070   7.532   5.251  11.128 -0.5397 -1.2419  0.8934
  208MOL0     H28071   7.532   5.123  11.008 -0.8500  0.7515 -0.1724
  208MOL0     H28072   7.723   5.159  11.248  0.2110 -0.4366  0.2370
  208MOL0     H28073   7.761   5.054  11.106  0.6815  0.9750  0.5238
  208MOL0     H28074   7.492   4.985  11.195 -0.8077 -0.2202  1.0123
  208MOL0     H28075   7.602   4.987  11.335 -1.4039  0.3751  0.2207
  208MOL0     H28076   7.752   4.842  11.230  0.1390  0.9987 -0.9256
  208MOL0     H28077   7.633   4.820  11.104  1.8071  0.2104  0.2757
  208MOL0     H28078   7.461   4.640  11.445 -0.1854 -0.6842 -0.2114
  208MOL0     H28079   7.780   5.468  10.902 -1.3300 -1.0114  1.3480
  208MOL0     H28080   7.714   5.616  10.712  1.4174 -1.4630  1.9263
  209MOL0     O28081  10.051   5.332   9.334 -0.5897  0.0921  0.2797
  209MOL0     C28082  10.125   5.248   9.388 -0.7207 -0.1584  0.3137
  209MOL0     O28083  10.241   5.273   9.453 -0.3413 -0.7507 -0.4262
  209MOL0     C28084  10.285   5.404   9.437  0.8872  0.4466  0.1940
  209MOL0     C28085  10.341   5.461   9.561  0.4322  1.0537  1.0186
  209MOL0     C28086  10.398   5.577   9.562  0.0169  0.5612  1.1213
  209MOL0     C28087  10.401   5.664   9.449 -0.2868 -0.1123 -0.0309
  209MOL0     O28088  10.452   5.787   9.455  0.5588 -0.0545  0.5902
  209MOL0     C28089  10.501   5.842   9.575 -0.1859  0.2883 -0.4515
  209MOL0     C28090  10.566   5.970   9.532 -1.0553 -0.1715  0.1195
  209MOL0     C28091  10.612   6.075   9.637  0.0444  0.4306 -0.4022
  209MOL0     C28092  10.741   6.030   9.717 -0.3029 -0.0210  0.2342
  209MOL0     C28093  10.834   6.147   9.739  0.8164 -0.7326 -0.6065
  209MOL0     C28094  10.769   6.257   9.821 -0.1669  0.5797 -0.2672
  209MOL0     C28095  10.854   6.379   9.838  0.1208  0.1533 -0.5503
  209MOL0     C28096  10.771   6.478   9.915  0.3546  0.5422 -0.0249
  209MOL0     N28097  10.831   6.604   9.915  0.3270  0.1006  0.1230
  209MOL0     C28098  10.963   6.621   9.951  0.1235 -0.3277 -0.1180
  209MOL0     C28099  10.983   6.744   9.913 -0.0180 -1.1783 -0.4406
  209MOL0     C28100  11.107   6.838   9.927 -0.2464 -0.4618  0.7434
  209MOL0     C28101  11.137   6.868  10.071  0.0432  0.6522  0.0096
  209MOL0     C28102  11.273   6.934  10.073  0.4448 -0.2031 -0.7787
  209MOL0     C28103  11.382   6.829  10.092 -1.6529 -0.7013 -0.4844
  209MOL0     O28104  11.372   6.765  10.221  0.0660  0.0800  0.1962
  209MOL0     C28105  11.420   6.829  10.331  0.5212 -0.3269  0.1658
  209MOL0     C28106  11.337   6.892  10.431 -0.0733  0.8004  0.2476
  209MOL0     C28107  11.387   6.971  10.536  0.1243  0.8884  0.2516
  209MOL0     C28108  11.283   7.041  10.617 -1.0530  0.8071 -0.5609
  209MOL0     C28109  11.524   6.999  10.549  0.6411  0.6554 -0.3460
  209MOL0     C28110  11.575   7.096  10.642  0.0779 -0.2054  0.1371
  209MOL0     O28111  11.499   7.201  10.671  0.1751 -0.2605  0.0314
  209MOL0     C28112  11.554   7.329  10.689 -0.8146 -1.2931 -0.6484
  209MOL0     C28113  11.686   7.370  10.639  0.6850 -0.4113 -0.2285
  209MOL0     C28114  11.724   7.512  10.636  0.3651  0.1177  0.1414
  209MOL0     C28115  11.627   7.612  10.664 -1.0926  0.7139  0.0851
  209MOL0     O28116  11.641   7.747  10.664 -0.1510  0.6381 -0.0377
  209MOL0     C28117  11.763   7.797  10.600  0.2757  0.2318 -0.3568
  209MOL0     C28118  11.900   7.799  10.693  0.7150  0.0627  0.1258
  209MOL0     C28119  12.006   7.900  10.642  0.3432 -0.1568  0.1236
  209MOL0     C28120  12.137   7.907  10.716 -0.4104 -0.7744 -0.6151
  209MOL0     C28121  12.118   7.983  10.847  0.2275  1.4016 -0.5576
  209MOL0     C28122  12.247   8.043  10.909 -0.2700  0.3465 -0.1139
  209MOL0     C28123  12.356   7.941  10.935  0.4848  0.0894 -0.1491
  209MOL0     C28124  12.467   8.003  11.017  0.7232  0.7341 -0.3743
  209MOL0    Cl28125  12.568   8.123  10.930 -0.1191  0.6766  0.2175
  209MOL0     C28126  11.512   7.565  10.731  0.4068 -0.0681  0.0967
  209MOL0     C28127  11.472   7.429  10.734  0.0031  0.3151 -0.6377
  209MOL0     O28128  11.677   7.066  10.704  0.2957 -1.1627  0.0511
  209MOL0     C28129  11.604   6.938  10.452  0.4307  0.2828 -0.6422
  209MOL0     C28130  11.557   6.856  10.350 -0.1737  0.5434 -0.4883
  209MOL0     N28131  10.874   6.793   9.845  0.3733 -0.3935  0.6767
  209MOL0     N28132  10.776   6.707   9.851  0.1412 -1.1214 -0.3091
  209MOL0     C28133  10.339   5.612   9.334 -1.0264  0.1430 -0.3723
  209MOL0     C28134  10.287   5.480   9.322  0.6682  0.3978  0.2049
  209MOL0     C28135  10.075   5.109   9.387 -1.2433 -0.2441 -0.0443
  209MOL0     C28136   9.977   5.076   9.293 -0.8789  0.3383  0.3184
  209MOL0     C28137   9.926   4.945   9.290  0.2349 -0.3681  0.3715
  209MOL0     C28138   9.978   4.837   9.372 -1.1258 -0.7300 -0.7124
  209MOL0     O28139   9.910   4.716   9.370  0.0509 -0.1334 -0.3346
  209MOL0     C28140   9.960   4.600   9.446  0.2124  0.3907  0.0576
  209MOL0     C28141  10.080   4.555   9.362 -0.6515  0.1367  0.2232
  209MOL0     C28142  10.103   4.406   9.387 -0.6021  0.8113  0.0014
  209MOL0     C28143  10.228   4.358   9.309  0.0584  0.4494 -0.9983
  209MOL0     C28144  10.199   4.355   9.165  0.4565 -0.8491 -0.7094
  209MOL0     C28145  10.191   4.352   9.045 -0.2856  0.7210 -0.0636
  209MOL0     C28146  10.094   4.871   9.451 -0.7660  0.4199 -0.4977
  209MOL0     C28147  10.137   5.008   9.468  0.5113 -0.1764 -0.7220
  209MOL0     H28148  10.332   5.407   9.655  0.1245  1.9861  1.5461
  209MOL0     H28149  10.447   5.620   9.649  0.7033  0.5713  0.7416
  209MOL0     H28150  10.428   5.871   9.652 -0.3142  0.6925 -0.7200
  209MOL0     H28151  10.575   5.772   9.615  0.5315  2.4415  2.2954
  209MOL0     H28152  10.645   5.962   9.457  0.6724  1.7172  1.5839
  209MOL0     H28153  10.483   6.016   9.479  0.4409  3.3750  0.5779
  209MOL0     H28154  10.643   6.173   9.599 -0.0195 -0.1389 -1.9943
  209MOL0     H28155  10.525   6.096   9.699 -2.3207 -2.3890 -2.4925
  209MOL0     H28156  10.709   5.987   9.813  0.5893  0.9016  0.9690
  209MOL0     H28157  10.803   5.957   9.664  3.5770  4.2898 -1.8718
  209MOL0     H28158  10.927   6.112   9.785 -0.3439 -0.5719  2.0611
  209MOL0     H28159  10.853   6.189   9.640  2.0978  0.8747  0.2927
  209MOL0     H28160  10.674   6.291   9.777 -1.6770 -0.4016  2.0922
  209MOL0     H28161  10.745   6.210   9.916  1.1743 -1.7804 -1.0248
  209MOL0     H28162  10.945   6.345   9.888  1.7168 -0.6696 -3.7443
  209MOL0     H28163  10.895   6.421   9.746  0.4889  0.5834 -0.1952
  209MOL0     H28164  10.733   6.450  10.013  2.4156  1.4812  1.1060
  209MOL0     H28165  10.676   6.495   9.863  0.3373  1.3802  0.2604
  209MOL0     H28166  11.028   6.566  10.018 -0.0382 -0.2975  0.0658
  209MOL0     H28167  11.193   6.793   9.878  1.1157  0.8984  1.7895
  209MOL0     H28168  11.095   6.929   9.867  0.0805 -0.0486  1.2989
  209MOL0     H28169  11.138   6.772  10.125 -2.1388  0.1164 -0.7892
  209MOL0     H28170  11.047   6.917  10.110 -0.7361 -0.4567 -0.3164
  209MOL0     H28171  11.270   7.012  10.150  0.4344  0.1980 -1.1874
  209MOL0     H28172  11.283   6.999   9.986  0.1342  0.5849 -0.2435
  209MOL0     H28173  11.479   6.880  10.093 -1.2364 -1.4720 -1.0777
  209MOL0     H28174  11.381   6.764  10.004  0.4052 -2.4528  0.7054
  209MOL0     H28175  11.232   6.886  10.408 -0.0424  1.4231 -0.0724
  209MOL0     H28176  11.309   7.038  10.724  0.7385  0.7537 -0.9590
  209MOL0     H28177  11.259   7.136  10.570 -2.4714  0.2898 -0.9067
  209MOL0     H28178  11.197   6.974  10.619  0.2574 -1.1044  3.1909
  209MOL0     H28179  11.764   7.302  10.608 -0.7318 -3.4434  2.2199
  209MOL0     H28180  11.819   7.538  10.592  0.2995 -1.5895 -1.1321
  209MOL0     H28181  11.783   7.748  10.505 -1.2105 -1.9943  0.3846
  209MOL0     H28182  11.745   7.904  10.588 -0.4505  0.1126 -0.3800
  209MOL0     H28183  11.880   7.799  10.801 -0.9810  2.9941 -0.0846
  209MOL0     H28184  11.959   7.707  10.685  0.9359 -0.2813  3.7998
  209MOL0     H28185  11.962   7.998  10.624 -0.7072 -0.1576  2.3999
  209MOL0     H28186  12.017   7.868  10.538 -3.2532  0.2554 -0.5075
  209MOL0     H28187  12.181   7.809  10.736  1.2302  0.1218  0.3876
  209MOL0     H28188  12.219   7.951  10.658  2.9574 -0.4465  3.9176
  209MOL0     H28189  12.061   7.909  10.903  0.1539  1.4250 -0.6004
  209MOL0     H28190  12.050   8.067  10.829 -1.3104  1.0474  2.9073
  209MOL0     H28191  12.288   8.113  10.836 -0.3848  3.4482  2.5803
  209MOL0     H28192  12.217   8.094  11.001 -0.0920  2.9419 -1.4087
  209MOL0     H28193  12.391   7.896  10.841  1.0410 -2.9370  1.3923
  209MOL0     H28194  12.312   7.862  10.996 -2.4589  0.1064 -2.0401
  209MOL0     H28195  12.523   7.917  11.057 -0.7372  0.4108  1.0794
  209MOL0     H28196  12.424   8.046  11.108 -0.3034  0.6480 -0.8098
  209MOL0     H28197  11.456   7.649  10.772  0.9192  1.2034 -1.6795
  209MOL0     H28198  11.373   7.417  10.776  1.0111  2.9672  2.9729
  209MOL0     H28199  11.710   6.957  10.459  0.4296  1.0855 -2.3905
  209MOL0     H28200  11.627   6.812  10.279 -2.0586 -1.1165 -1.4383
  209MOL0     H28201  10.332   5.672   9.243 -1.5936 -0.2285 -0.5766
  209MOL0     H28202  10.254   5.444   9.226 -1.7569 -0.1207  1.1697
  209MOL0     H28203   9.935   5.155   9.232 -0.0942  2.0771  1.9530
  209MOL0     H28204   9.840   4.919   9.228 -1.5584  1.6275  1.8684
  209MOL0     H28205   9.984   4.616   9.551  0.4199 -1.9923  0.4181
  209MOL0     H28206   9.884   4.523   9.432  1.5793 -0.5243 -3.6588
  209MOL0     H28207  10.169   4.612   9.391 -0.1071 -0.7376  0.3152
  209MOL0     H28208  10.053   4.573   9.258 -1.6651  0.7362  0.5711
  209MOL0     H28209  10.024   4.338   9.354  0.1081  0.8724 -1.9019
  209MOL0     H28210  10.125   4.397   9.494  4.2196  0.0722 -0.8480
  209MOL0     H28211  10.240   4.255   9.342 -1.1435  0.6569  0.1813
  209MOL0     H28212  10.319   4.411   9.338 -0.8731  1.2304  0.6034
  209MOL0     H28213  10.203   4.348   8.939 -2.0894 -1.9184 -0.2723
  209MOL0     H28214  10.146   4.799   9.514 -5.1941  0.3777  3.7369
  209MOL0     H28215  10.227   5.029   9.525 -0.5093  0.2821  0.7843
  210MOL0     O28216   9.168   9.717   0.380 -0.4560 -0.7907  0.3960
  210MOL0     C28217   9.125   9.665   0.272  0.1944 -0.0331 -0.1518
  210MOL0     O28218   9.036   9.723   0.181 -0.3833  0.2313 -0.3840
  210MOL0     C28219   8.964   9.832   0.225 -0.1287 -0.3173  0.3615
  210MOL0     C28220   8.884   9.834   0.339  0.8007 -0.9556  0.9794
  210MOL0     C28221   8.797   9.938   0.367  0.7664 -0.9765 -0.6925
  210MOL0     C28222   8.799  10.055   0.294 -0.5202 -0.2220  0.2713
  210MOL0     O28223   8.725  10.173   0.312  0.6915  0.1607 -0.7467
  210MOL0     C28224   8.576  10.161   0.293 -0.0121  0.9300 -0.2409
  210MOL0     C28225   8.518  10.296   0.343  0.4266 -0.3661  0.1054
  210MOL0     C28226   8.520  10.403   0.235 -0.1687  1.0474  0.5931
  210MOL0     C28227   8.426  10.522   0.255  0.1315 -0.7067 -0.7622
  210MOL0     C28228   8.487  10.636   0.326 -0.1918 -0.1732  0.4600
  210MOL0     C28229   8.381  10.738   0.361 -0.1649 -0.1489  0.3631
  210MOL0     C28230   8.432  10.870   0.422 -0.9693 -1.3491  0.2685
  210MOL0     C28231   8.330  10.941   0.501 -0.2029 -0.2420 -0.2129
  210MOL0     N28232   8.359  11.078   0.551 -0.5229 -0.3286 -1.2106
  210MOL0     C28233   8.465  11.133   0.629 -0.0035 -0.2319 -0.3763
  210MOL0     C28234   8.429  11.257   0.660  0.8151 -0.9442  0.0717
  210MOL0     C28235   8.520  11.346   0.735 -0.5023 -0.7608 -0.3864
  210MOL0     C28236   8.429  11.440   0.826 -1.2089 -0.9154 -0.7494
  210MOL0     C28237   8.489  11.580   0.851 -0.2751 -0.1188  0.3424
  210MOL0     C28238   8.444  11.673   0.737 -0.2833  0.1664  0.1935
  210MOL0     O28239   8.455  11.805   0.782 -0.3404 -0.2934  0.8920
  210MOL0     C28240   8.575  11.880   0.770  0.2483 -0.0767  0.3832
  210MOL0     C28241   8.697  11.824   0.722  0.2101  0.5789  0.5738
  210MOL0     C28242   8.816  11.896   0.716  0.4665 -0.1365  1.0165
  210MOL0     C28243   8.934  11.825   0.658  2.0932 -0.0539 -0.1729
  210MOL0     C28244   8.817  12.034   0.757 -0.5851 -0.7540 -0.7315
  210MOL0     C28245   8.939  12.121   0.738  0.1133 -0.5615 -0.0400
  210MOL0     O28246   9.004  12.114   0.622  0.5133 -0.5792 -0.0679
  210MOL0     C28247   9.074  12.228   0.588 -0.0201  0.1195 -0.7054
  210MOL0     C28248   9.195  12.200   0.537  1.0455 -0.8798 -0.3905
  210MOL0     C28249   9.275  12.289   0.475  0.5899 -0.3372  0.1507
  210MOL0     C28250   9.237  12.426   0.472  0.3477  0.5160  0.2659
  210MOL0     O28251   9.319  12.513   0.392 -0.1674  0.3861 -0.7242
  210MOL0     C28252   9.448  12.531   0.446 -0.9499 -0.2005 -0.2970
  210MOL0     C28253   9.464  12.622   0.576  0.8693  0.0347 -0.4090
  210MOL0     C28254   9.421  12.761   0.530 -0.3341 -0.2395  0.0816
  210MOL0     C28255   9.542  12.855   0.516 -0.8745 -0.1297 -0.0356
  210MOL0     C28256   9.506  12.981   0.429  0.4055  0.4405 -0.3535
  210MOL0     C28257   9.628  13.071   0.400  0.1695  0.4314  0.1600
  210MOL0     C28258   9.570  13.187   0.306  0.2113 -0.1724 -0.0450
  210MOL0     C28259   9.471  13.284   0.379 -0.0348 -0.7035 -0.2085
  210MOL0    Cl28260   9.425  13.411   0.265 -0.4639  0.1639  0.0344
  210MOL0     C28261   9.116  12.456   0.529  0.1947  0.1781 -0.4657
  210MOL0     C28262   9.024  12.362   0.594 -0.3981 -1.5619  0.4764
  210MOL0     O28263   8.964  12.204   0.828 -0.0693  0.3910 -0.5702
  210MOL0     C28264   8.701  12.088   0.814 -0.1306  0.4659 -1.2585
  210MOL0     C28265   8.581  12.007   0.827  0.9733  0.3553 -0.2628
  210MOL0     N28266   8.309  11.287   0.584  0.2145 -1.4723 -1.3647
  210MOL0     N28267   8.269  11.180   0.523 -0.3501 -0.1679 -0.0672
  210MOL0     C28268   8.883  10.056   0.177  0.2602 -0.2053  0.2363
  210MOL0     C28269   8.959   9.946   0.145 -1.0267  0.1518  0.4027
  210MOL0     C28270   9.185   9.529   0.243  0.3474 -0.1547  0.0234
  210MOL0     C28271   9.258   9.457   0.333 -0.8448  0.3764  0.6326
  210MOL0     C28272   9.328   9.344   0.297 -0.5343  0.4355 -1.3269
  210MOL0     C28273   9.336   9.299   0.165 -0.4901 -0.3825 -0.5812
  210MOL0     O28274   9.433   9.202   0.148 -0.4966  0.5557 -0.2381
  210MOL0     C28275   9.419   9.113   0.036  0.0935 -0.7246  0.2578
  210MOL0     C28276   9.493   8.981   0.063  0.5892 -0.6675  0.3293
  210MOL0     C28277   9.486   8.893  -0.069 -0.4381  0.7857 -0.5273
  210MOL0     C28278   9.591   8.776  -0.052 -0.2312 -0.8650 -0.0082
  210MOL0     C28279   9.586   8.710   0.077 -0.1014  0.2645  0.4568
  210MOL0     C28280   9.591   8.643   0.178  0.1456  0.6211 -0.0025
  210MOL0     C28281   9.249   9.360   0.074 -0.3488 -0.0747  0.2359
  210MOL0     C28282   9.175   9.473   0.117 -0.4997 -0.1774 -0.6445
  210MOL0     H28283   8.866   9.742   0.393 -0.9033  0.1164  2.3739
  210MOL0     H28284   8.732   9.926   0.453 -1.9706  1.9251 -2.1545
  210MOL0     H28285   8.554  10.155   0.186  0.6774  3.3217 -0.5817
  210MOL0     H28286   8.542  10.072   0.346  1.1574  0.4962 -0.2081
  210MOL0     H28287   8.418  10.285   0.386  0.8910 -1.2067  1.0260
  210MOL0     H28288   8.571  10.330   0.433  0.4186 -0.9113  0.3197
  210MOL0     H28289   8.617  10.453   0.230 -0.5557  1.6992 -1.7360
  210MOL0     H28290   8.490  10.356   0.141 -0.1925  3.0281 -0.4415
  210MOL0     H28291   8.406  10.561   0.154  2.6537  0.5123 -0.8693
  210MOL0     H28292   8.330  10.493   0.298  1.0699  0.7197  2.6261
  210MOL0     H28293   8.537  10.618   0.422 -0.8115  1.2912  1.0881
  210MOL0     H28294   8.568  10.677   0.265  0.3574  2.0525  2.5189
  210MOL0     H28295   8.328  10.765   0.270  2.0499 -3.0125 -1.9775
  210MOL0     H28296   8.315  10.699   0.439  1.1099 -1.1918  0.9704
  210MOL0     H28297   8.507  10.842   0.496 -1.6580  0.2826  1.6505
  210MOL0     H28298   8.482  10.943   0.357 -2.9407  3.1296  3.3328
  210MOL0     H28299   8.315  10.877   0.589  1.9570 -0.9010 -0.2726
  210MOL0     H28300   8.237  10.934   0.443  0.6102 -2.4842 -1.3862
  210MOL0     H28301   8.557  11.084   0.661  2.5285  3.6313 -1.0606
  210MOL0     H28302   8.582  11.279   0.795 -0.9200 -1.4642 -0.7347
  210MOL0     H28303   8.593  11.400   0.674  0.3027 -0.5963  0.6942
  210MOL0     H28304   8.416  11.396   0.925 -0.9358  0.5581 -0.0199
  210MOL0     H28305   8.331  11.454   0.780 -1.5806  1.1073  0.5238
  210MOL0     H28306   8.596  11.568   0.871 -0.9410 -1.7011  3.6332
  210MOL0     H28307   8.434  11.626   0.934 -0.5070  0.6091 -0.2034
  210MOL0     H28308   8.337  11.652   0.722  0.3275 -2.6577 -0.7906
  210MOL0     H28309   8.499  11.647   0.645  0.9458  0.6617  0.7696
  210MOL0     H28310   8.705  11.721   0.687  1.7094  0.2353  1.7893
  210MOL0     H28311   8.938  11.730   0.713 -0.0401 -2.0277 -3.0841
  210MOL0     H28312   8.911  11.810   0.552  1.0646  0.7187 -0.0631
  210MOL0     H28313   9.026  11.884   0.669  1.9826 -0.1179  1.2650
  210MOL0     H28314   9.207  12.094   0.521 -1.0280 -0.9749 -1.6917
  210MOL0     H28315   9.366  12.256   0.426  1.9851  2.4754  0.6368
  210MOL0     H28316   9.486  12.430   0.464 -1.1884 -0.6732 -2.1817
  210MOL0     H28317   9.511  12.573   0.367 -1.7212 -1.6205 -1.7576
  210MOL0     H28318   9.398  12.586   0.656 -0.8395  2.4182 -0.6178
  210MOL0     H28319   9.567  12.626   0.610  1.5892  1.2157 -2.5379
  210MOL0     H28320   9.361  12.800   0.613 -0.8552 -2.4495  0.7962
  210MOL0     H28321   9.369  12.761   0.433  1.4802 -2.1617 -0.9704
  210MOL0     H28322   9.561  12.891   0.617 -1.9674  1.2247 -0.2792
  210MOL0     H28323   9.633  12.806   0.481 -0.0471  0.3083  1.4497
  210MOL0     H28324   9.426  13.021   0.493  0.8778 -1.2220  1.3998
  210MOL0     H28325   9.460  12.959   0.333  1.9194  0.7122 -1.1650
  210MOL0     H28326   9.663  13.125   0.489 -3.0362  3.5800 -0.2444
  210MOL0     H28327   9.694  13.010   0.339 -1.7875 -0.9605 -0.6710
  210MOL0     H28328   9.526  13.132   0.222  0.8118 -4.3383  2.1502
  210MOL0     H28329   9.657  13.250   0.284  0.7666 -1.2761 -1.1402
  210MOL0     H28330   9.511  13.330   0.469 -3.5786 -2.3477  2.4436
  210MOL0     H28331   9.382  13.231   0.415 -0.9321  1.3741  0.8148
  210MOL0     H28332   9.080  12.558   0.518 -0.0555 -0.1228 -3.2913
  210MOL0     H28333   8.924  12.387   0.629 -1.4942 -1.3279 -2.4997
  210MOL0     H28334   8.699  12.186   0.860  0.0111 -0.2919  0.4442
  210MOL0     H28335   8.496  12.055   0.875  0.1385  1.6068 -2.7905
  210MOL0     H28336   8.870  10.131   0.100 -2.8394 -2.5042 -1.7408
  210MOL0     H28337   9.012   9.954   0.050 -3.9180 -1.2510 -1.4910
  210MOL0     H28338   9.268   9.501   0.432  0.2223 -0.2361  0.8161
  210MOL0     H28339   9.402   9.305   0.366  1.9876  2.6621 -2.5721
  210MOL0     H28340   9.318   9.083   0.007  0.0078  1.7766 -2.5044
  210MOL0     H28341   9.469   9.167  -0.045  0.0432 -1.8508 -0.5387
  210MOL0     H28342   9.442   8.931   0.145 -1.8133 -1.5088 -1.5617
  210MOL0     H28343   9.593   9.015   0.090  0.6529  2.0303 -2.5844
  210MOL0     H28344   9.515   8.946  -0.160  2.9436 -0.2408 -0.1882
  210MOL0     H28345   9.391   8.841  -0.084  1.3255 -2.7861 -0.3988
  210MOL0     H28346   9.693   8.815  -0.059  0.7057 -3.1990 -0.5835
  210MOL0     H28347   9.578   8.706  -0.136  0.3615 -1.8580  0.7137
  210MOL0     H28348   9.600   8.596   0.274 -0.2572 -1.8327 -1.0944
  210MOL0     H28349   9.251   9.326  -0.029  1.8805 -0.5163  0.3619
  210MOL0     H28350   9.104   9.524   0.051 -2.1848  0.1739  1.3371
  211MOL0     O28351   3.416   5.283   6.254 -0.1739  0.7253 -0.2943
  211MOL0     C28352   3.393   5.289   6.130 -0.6213 -1.3613  0.5145
  211MOL0     O28353   3.394   5.186   6.048 -0.2739 -0.9497 -0.6474
  211MOL0     C28354   3.403   5.060   6.089  0.6659  0.6508 -0.3696
  211MOL0     C28355   3.283   4.996   6.112  0.3802  0.5487 -0.2545
  211MOL0     C28356   3.294   4.857   6.145 -0.1082  0.0512 -0.4253
  211MOL0     C28357   3.421   4.799   6.181  0.3378  0.3884  0.2015
  211MOL0     O28358   3.422   4.667   6.216 -0.6147  0.0630  0.3669
  211MOL0     C28359   3.538   4.600   6.279  0.4623 -0.3992 -0.2815
  211MOL0     C28360   3.539   4.447   6.295  0.6939  0.7258  0.2238
  211MOL0     C28361   3.534   4.371   6.159 -0.0901  1.1596 -0.1990
  211MOL0     C28362   3.501   4.230   6.187  0.2990 -0.1687 -0.2511
  211MOL0     C28363   3.449   4.162   6.057 -0.2403  0.2072  0.6779
  211MOL0     C28364   3.548   4.129   5.949  0.7036  1.1200  0.3514
  211MOL0     C28365   3.686   4.080   5.995  0.3720 -0.9156 -0.1270
  211MOL0     C28366   3.677   3.952   6.085  0.9664 -0.0235 -0.1288
  211MOL0     N28367   3.593   3.854   6.016 -0.6615  0.6315 -0.5932
  211MOL0     C28368   3.629   3.790   5.901 -0.1772 -0.1790  0.3203
  211MOL0     C28369   3.511   3.726   5.860  0.3322 -0.1548  0.1859
  211MOL0     C28370   3.488   3.649   5.734 -0.0689  0.5706  0.2123
  211MOL0     C28371   3.402   3.732   5.627  1.0715  0.2836 -0.7761
  211MOL0     C28372   3.408   3.651   5.491 -0.5808  0.4022 -1.0406
  211MOL0     C28373   3.267   3.657   5.413 -0.7181  0.2034 -0.0562
  211MOL0     O28374   3.168   3.595   5.489  0.3420  0.6320  0.0371
  211MOL0     C28375   3.162   3.449   5.475 -0.2706  0.2803 -0.1024
  211MOL0     C28376   3.077   3.382   5.380 -0.6408  0.7196 -0.2232
  211MOL0     C28377   3.059   3.242   5.382  0.3556  0.9542 -0.2956
  211MOL0     C28378   2.981   3.171   5.267 -0.1568 -0.4942  0.1647
  211MOL0     C28379   3.121   3.165   5.493  0.6950 -0.0183  0.2758
  211MOL0     C28380   3.116   3.019   5.505 -0.6799 -0.3603  0.9498
  211MOL0     O28381   3.154   2.967   5.621 -0.0975 -0.4433 -0.2004
  211MOL0     C28382   3.233   2.852   5.608  0.1379 -0.5600  0.2758
  211MOL0     C28383   3.183   2.723   5.571  0.1593  0.6438 -0.2979
  211MOL0     C28384   3.263   2.608   5.581  0.8080 -0.0724  0.2588
  211MOL0     C28385   3.394   2.617   5.616 -0.0066 -0.2767 -0.2340
  211MOL0     O28386   3.485   2.513   5.592  0.2693  0.8872 -0.2682
  211MOL0     C28387   3.433   2.380   5.575 -0.7042  0.3109  0.2339
  211MOL0     C28388   3.416   2.345   5.434  0.1595  0.0298  0.1410
  211MOL0     C28389   3.552   2.297   5.353 -0.3274  0.6768 -0.3780
  211MOL0     C28390   3.525   2.298   5.204  0.1164  0.1031  0.3816
  211MOL0     C28391   3.645   2.273   5.103 -0.2461 -0.5003  0.3977
  211MOL0     C28392   3.615   2.283   4.947  0.0036  0.0883  0.1723
  211MOL0     C28393   3.732   2.266   4.857  0.2011 -0.5103  0.1180
  211MOL0     C28394   3.676   2.300   4.717 -0.7360  0.0422  0.2822
  211MOL0    Cl28395   3.804   2.256   4.593  0.3441 -0.0518  0.1348
  211MOL0     C28396   3.443   2.745   5.651  0.1761  0.3306  0.5678
  211MOL0     C28397   3.364   2.861   5.638 -0.3561  0.7895 -0.3487
  211MOL0     O28398   3.077   2.959   5.410 -0.7449  0.4893  0.1974
  211MOL0     C28399   3.199   3.234   5.585  0.6514  0.0299 -0.3538
  211MOL0     C28400   3.220   3.371   5.575  0.5903  0.0222 -0.1520
  211MOL0     N28401   3.422   3.733   5.964  0.6409 -0.2788 -0.2896
  211MOL0     N28402   3.475   3.817   6.056  0.2895  0.4968 -0.1068
  211MOL0     C28403   3.534   4.885   6.192  0.4945 -0.5096 -0.2067
  211MOL0     C28404   3.524   5.006   6.143 -0.9970  0.1453  0.1145
  211MOL0     C28405   3.401   5.426   6.064 -0.0937  0.0777 -1.0746
  211MOL0     C28406   3.438   5.544   6.128  0.0961 -1.2266 -0.3314
  211MOL0     C28407   3.458   5.660   6.061  0.1593 -0.0624 -0.7021
  211MOL0     C28408   3.435   5.662   5.923 -0.2709 -0.6714  0.5181
  211MOL0     O28409   3.451   5.779   5.852 -0.4229  0.0972 -0.5415
  211MOL0     C28410   3.364   5.891   5.880  0.0411  0.7956 -0.7176
  211MOL0     C28411   3.376   5.996   5.759 -0.3784 -0.6180  0.2253
  211MOL0     C28412   3.325   5.965   5.617  0.4626  0.1712 -0.3668
  211MOL0     C28413   3.404   6.028   5.502 -0.3018 -0.9070 -0.2728
  211MOL0     C28414   3.355   5.994   5.377  0.4772 -0.3920  0.2120
  211MOL0     C28415   3.346   5.978   5.259  1.2224 -0.5429  1.3172
  211MOL0     C28416   3.386   5.549   5.859 -0.3459  0.0176  0.7539
  211MOL0     C28417   3.369   5.429   5.926  0.3763 -0.1142 -1.2090
  211MOL0     H28418   3.183   5.035   6.098  1.2447  3.3349  0.7038
  211MOL0     H28419   3.200   4.801   6.142 -0.2763  0.3814 -2.0420
  211MOL0     H28420   3.630   4.617   6.221 -0.1889 -1.4787 -1.7100
  211MOL0     H28421   3.548   4.639   6.380 -0.6689  2.9880 -1.3402
  211MOL0     H28422   3.633   4.417   6.343  1.3265 -0.2613 -1.5223
  211MOL0     H28423   3.455   4.425   6.361  2.3670  2.0980  2.9780
  211MOL0     H28424   3.450   4.421   6.109 -2.4826  1.4250  3.6062
  211MOL0     H28425   3.631   4.387   6.111 -1.2332  3.7030 -1.9387
  211MOL0     H28426   3.590   4.205   6.246 -0.2605  1.4539  1.3912
  211MOL0     H28427   3.423   4.221   6.263 -1.2734  0.2261 -1.7724
  211MOL0     H28428   3.398   4.073   6.096 -1.3421  2.2704  4.5134
  211MOL0     H28429   3.364   4.216   6.015 -0.8430 -0.4506  1.0087
  211MOL0     H28430   3.515   4.062   5.869 -0.5067  3.4645 -1.2276
  211MOL0     H28431   3.555   4.225   5.896 -1.1252 -0.0968 -2.3412
  211MOL0     H28432   3.755   4.054   5.914  1.8225 -3.0308  1.6616
  211MOL0     H28433   3.732   4.161   6.053  2.4352 -1.1251 -1.3943
  211MOL0     H28434   3.636   3.970   6.185  2.6246  0.5505  0.4829
  211MOL0     H28435   3.778   3.923   6.117 -0.1447 -2.1424  1.6687
  211MOL0     H28436   3.712   3.795   5.832 -0.2776 -0.9778  0.1263
  211MOL0     H28437   3.584   3.630   5.684 -1.6242  1.6701 -3.5344
  211MOL0     H28438   3.445   3.550   5.751  0.6173  0.5256  1.9206
  211MOL0     H28439   3.438   3.835   5.627  1.2373  0.2419 -2.0672
  211MOL0     H28440   3.298   3.746   5.657  0.2724 -2.4029 -1.9637
  211MOL0     H28441   3.432   3.547   5.514  0.5816  0.8112 -0.3228
  211MOL0     H28442   3.487   3.694   5.429  0.1123 -1.3301 -1.4219
  211MOL0     H28443   3.273   3.615   5.312 -2.0977  1.3242 -0.6368
  211MOL0     H28444   3.239   3.763   5.407 -0.4921  0.2949  0.4755
  211MOL0     H28445   3.037   3.418   5.285  1.2037 -0.7825 -1.6677
  211MOL0     H28446   2.903   3.104   5.303 -0.4383  0.0351  0.5456
  211MOL0     H28447   2.938   3.243   5.197  0.7717 -0.5456 -0.4819
  211MOL0     H28448   3.051   3.106   5.213 -0.5601 -1.1040  0.3632
  211MOL0     H28449   3.085   2.717   5.525  0.2575 -1.5942 -0.3038
  211MOL0     H28450   3.215   2.525   5.531  0.9194  0.1059 -0.1464
  211MOL0     H28451   3.499   2.300   5.609 -3.6309 -0.8239  3.9462
  211MOL0     H28452   3.347   2.359   5.639 -0.5280 -2.8473 -0.4257
  211MOL0     H28453   3.348   2.260   5.450 -2.2832  1.8462 -0.0281
  211MOL0     H28454   3.362   2.426   5.383  1.3966 -1.7655 -4.4913
  211MOL0     H28455   3.577   2.197   5.390  1.7739  1.2867  0.0416
  211MOL0     H28456   3.631   2.369   5.376 -2.4101  3.4762 -1.4844
  211MOL0     H28457   3.442   2.228   5.189 -0.4796  0.3774  2.1606
  211MOL0     H28458   3.479   2.394   5.181 -3.7261 -1.7251 -0.4684
  211MOL0     H28459   3.694   2.178   5.127 -0.5661 -0.6721  0.3711
  211MOL0     H28460   3.724   2.348   5.114  0.0508  0.3670 -4.8830
  211MOL0     H28461   3.541   2.209   4.915 -1.8230  1.0244  2.0158
  211MOL0     H28462   3.576   2.382   4.920  0.9799 -0.1606 -2.5031
  211MOL0     H28463   3.776   2.166   4.853 -0.0083 -0.5684 -1.1671
  211MOL0     H28464   3.810   2.335   4.892  4.1650 -4.5609  0.1214
  211MOL0     H28465   3.669   2.410   4.717  3.0947  0.4333  0.9310
  211MOL0     H28466   3.581   2.251   4.696 -1.0670  0.1011  1.5806
  211MOL0     H28467   3.548   2.771   5.664 -0.1301  2.2610 -0.5730
  211MOL0     H28468   3.412   2.957   5.656  2.7027 -0.6334 -0.3269
  211MOL0     H28469   3.269   3.185   5.653  1.4656  0.6515 -0.7175
  211MOL0     H28470   3.294   3.390   5.652 -0.3701 -2.2064  1.4296
  211MOL0     H28471   3.633   4.848   6.216  0.3319 -0.9626 -0.2095
  211MOL0     H28472   3.614   5.066   6.142 -0.5960 -0.4541 -0.2030
  211MOL0     H28473   3.463   5.534   6.233  1.9555 -3.4959 -0.9164
  211MOL0     H28474   3.485   5.751   6.114  2.2614 -0.5996 -0.7735
  211MOL0     H28475   3.260   5.860   5.888 -0.1546  1.3451 -1.1082
  211MOL0     H28476   3.391   5.922   5.982  0.9944 -2.5819  0.2060
  211MOL0     H28477   3.482   6.020   5.747 -0.5633  0.5865  0.8645
  211MOL0     H28478   3.323   6.087   5.788 -2.6679 -1.3488 -1.3772
  211MOL0     H28479   3.217   5.982   5.604  0.2097  0.4736  1.7059
  211MOL0     H28480   3.333   5.857   5.610  0.5442  0.0537  1.0813
  211MOL0     H28481   3.510   6.005   5.510  0.4591  2.3539  0.4404
  211MOL0     H28482   3.404   6.135   5.528 -1.4348 -1.3850  1.9374
  211MOL0     H28483   3.346   5.980   5.152  0.6062 -0.2493  1.3200
  211MOL0     H28484   3.367   5.545   5.752 -1.5077 -0.1342  0.9540
  211MOL0     H28485   3.341   5.336   5.877  0.6790 -0.5796 -0.5165
  212MOL0     O28486   6.041   8.437   2.410  0.5893  0.4522 -0.1393
  212MOL0     C28487   6.148   8.386   2.390  0.6229 -0.3326  0.3783
  212MOL0     O28488   6.175   8.253   2.380  0.3983  0.1060 -0.0542
  212MOL0     C28489   6.070   8.160   2.387 -0.0502 -0.2521  0.9288
  212MOL0     C28490   6.099   8.045   2.447 -0.4486  0.6347  0.1971
  212MOL0     C28491   5.995   7.947   2.458 -0.0024  0.5655  0.0116
  212MOL0     C28492   5.870   7.965   2.398  0.1657  0.9040  0.6286
  212MOL0     O28493   5.794   7.844   2.396 -0.3483 -0.6375 -0.6760
  212MOL0     C28494   5.655   7.849   2.347 -0.8036 -0.2084 -0.9611
  212MOL0     C28495   5.599   7.708   2.357 -0.0689  0.3278 -0.0585
  212MOL0     C28496   5.584   7.659   2.496  1.1470 -0.2445  0.7205
  212MOL0     C28497   5.706   7.584   2.549 -0.8389  0.0129  0.3876
  212MOL0     C28498   5.668   7.507   2.685 -0.3666 -0.5288 -0.0662
  212MOL0     C28499   5.616   7.598   2.807  0.3187 -0.1661  0.8721
  212MOL0     C28500   5.580   7.497   2.915 -0.1817  0.2133 -0.3155
  212MOL0     C28501   5.558   7.548   3.053  0.1944  0.0793 -0.0618
  212MOL0     N28502   5.614   7.685   3.074 -1.1823  0.2038  0.8164
  212MOL0     C28503   5.749   7.719   3.113  0.1609  0.1289 -0.1599
  212MOL0     C28504   5.752   7.858   3.119 -0.1639  0.2329  1.1715
  212MOL0     C28505   5.864   7.948   3.140 -0.1481  0.3962 -0.1920
  212MOL0     C28506   5.980   7.907   3.059 -1.0377 -1.0216 -0.2661
  212MOL0     C28507   6.080   8.015   3.064 -0.4213 -0.0549 -0.1533
  212MOL0     C28508   6.130   8.048   2.926  0.2494 -1.3564  0.1220
  212MOL0     O28509   6.217   7.947   2.876 -0.1853  0.1382 -0.2389
  212MOL0     C28510   6.292   7.977   2.764  0.8718 -0.5886 -0.4204
  212MOL0     C28511   6.373   7.876   2.716  0.0761 -0.0942  0.2065
  212MOL0     C28512   6.465   7.895   2.614  0.1829 -0.5263  0.1915
  212MOL0     C28513   6.544   7.777   2.563  0.7263 -0.3669  1.2721
  212MOL0     C28514   6.482   8.033   2.564  1.1887  0.2986  0.1041
  212MOL0     C28515   6.584   8.071   2.461  0.5092 -1.1154  1.0306
  212MOL0     O28516   6.642   7.974   2.387  0.3897 -0.8757  0.1458
  212MOL0     C28517   6.735   8.009   2.291  0.6959 -0.3001  0.5026
  212MOL0     C28518   6.830   7.908   2.264 -1.3277 -0.7501 -1.0491
  212MOL0     C28519   6.925   7.916   2.154 -0.2397  0.5458 -0.3109
  212MOL0     C28520   6.907   8.019   2.066  0.0126 -0.3109 -0.0885
  212MOL0     O28521   6.975   8.030   1.947  1.1400 -0.1128  0.4226
  212MOL0     C28522   6.977   7.911   1.877 -0.0885  0.8106  1.1241
  212MOL0     C28523   7.031   7.942   1.739 -0.4364 -0.0301  0.6219
  212MOL0     C28524   6.967   7.843   1.629 -0.6760  0.4097  0.2357
  212MOL0     C28525   7.024   7.867   1.489 -0.1002  0.7545  0.7648
  212MOL0     C28526   6.980   7.767   1.377  0.3061 -0.2479  0.0460
  212MOL0     C28527   7.014   7.816   1.234  0.2152 -0.2674 -0.2688
  212MOL0     C28528   7.010   7.713   1.119  0.3395 -0.6499  0.5057
  212MOL0     C28529   7.093   7.773   1.012 -0.6229 -0.6987 -0.1072
  212MOL0    Cl28530   7.044   7.935   0.938 -0.0554 -0.3235  0.2167
  212MOL0     C28531   6.814   8.113   2.096 -0.4254  0.9243  0.3963
  212MOL0     C28532   6.719   8.106   2.198  0.5651 -0.9577  0.9785
  212MOL0     O28533   6.618   8.190   2.457  1.1229 -0.3111  0.4741
  212MOL0     C28534   6.405   8.138   2.621 -0.5259  0.1863 -0.5787
  212MOL0     C28535   6.315   8.112   2.722  0.2819 -0.7161  0.0324
  212MOL0     N28536   5.627   7.899   3.089 -0.4689  0.1594  0.5356
  212MOL0     N28537   5.546   7.797   3.061  0.1317 -0.5171  0.1506
  212MOL0     C28538   5.839   8.091   2.339  0.2857  0.1831  0.1844
  212MOL0     C28539   5.941   8.185   2.333  0.5731 -0.2326  0.7610
  212MOL0     C28540   6.269   8.467   2.384  0.1838  0.1295 -0.1275
  212MOL0     C28541   6.262   8.613   2.410 -0.0597  0.4212  0.1486
  212MOL0     C28542   6.378   8.687   2.394 -0.3006 -0.1239  0.2542
  212MOL0     C28543   6.501   8.631   2.372  0.3630 -0.0119  0.0261
  212MOL0     O28544   6.607   8.717   2.377  0.6396 -0.1235 -0.4630
  212MOL0     C28545   6.735   8.654   2.363  0.0962  0.3327 -0.5812
  212MOL0     C28546   6.829   8.774   2.380 -0.7767  0.4912  0.0191
  212MOL0     C28547   6.978   8.722   2.370 -0.2669 -0.0692 -0.0034
  212MOL0     C28548   7.081   8.837   2.348  0.5329  0.6564  0.9857
  212MOL0     C28549   7.109   8.904   2.476  0.4200  0.3920  1.0129
  212MOL0     C28550   7.142   8.953   2.576 -0.1471 -0.0698 -0.1891
  212MOL0     C28551   6.509   8.497   2.346 -0.5741  0.0992 -0.4500
  212MOL0     C28552   6.394   8.411   2.349 -0.1069  0.1965  0.8445
  212MOL0     H28553   6.197   8.026   2.491  1.3820  1.8362 -3.0076
  212MOL0     H28554   6.011   7.848   2.499 -0.1697  0.9739  1.1077
  212MOL0     H28555   5.593   7.917   2.406 -1.5687  0.1510 -2.1342
  212MOL0     H28556   5.660   7.886   2.244  1.7870  1.1155 -0.4328
  212MOL0     H28557   5.501   7.709   2.309 -0.3988  0.6870  0.6073
  212MOL0     H28558   5.650   7.640   2.288 -2.2453  1.4804 -3.0218
  212MOL0     H28559   5.551   7.746   2.553  1.0738  1.1313 -1.3201
  212MOL0     H28560   5.499   7.591   2.490  1.1713 -0.3351  1.3720
  212MOL0     H28561   5.759   7.525   2.473  3.0844  0.2747  2.6662
  212MOL0     H28562   5.780   7.657   2.581  1.0019 -0.3917 -2.5523
  212MOL0     H28563   5.600   7.427   2.654  1.1559 -0.5860 -3.7956
  212MOL0     H28564   5.751   7.453   2.731 -1.0100 -0.7407  0.8774
  212MOL0     H28565   5.690   7.671   2.840 -1.3905  1.8683  0.4471
  212MOL0     H28566   5.524   7.650   2.778 -1.1678 -4.1439 -2.6201
  212MOL0     H28567   5.497   7.429   2.892  0.8659 -0.9162 -0.8741
  212MOL0     H28568   5.663   7.426   2.927 -0.2930 -0.0727 -1.1506
  212MOL0     H28569   5.598   7.482   3.131  3.2468 -0.3966 -1.8788
  212MOL0     H28570   5.449   7.547   3.063  0.1905  0.6136 -0.0082
  212MOL0     H28571   5.832   7.654   3.137  1.5676  1.6723 -0.6444
  212MOL0     H28572   5.833   8.048   3.111  2.5954  1.3387 -0.1194
  212MOL0     H28573   5.892   7.959   3.245 -3.0304 -1.1436  0.8629
  212MOL0     H28574   5.946   7.911   2.955  0.5673  2.7489 -0.8091
  212MOL0     H28575   6.025   7.807   3.069  1.0333  0.0472  2.1114
  212MOL0     H28576   6.170   7.983   3.117  1.5710 -1.6187 -4.0965
  212MOL0     H28577   6.044   8.106   3.115  0.9328  0.3922  0.0324
  212MOL0     H28578   6.188   8.140   2.934 -1.5549 -0.3316  3.5222
  212MOL0     H28579   6.053   8.057   2.849 -1.1148  1.5277  1.6474
  212MOL0     H28580   6.389   7.787   2.776  0.3515 -0.5125 -0.4833
  212MOL0     H28581   6.651   7.794   2.573  0.6627  0.7559  0.2692
  212MOL0     H28582   6.517   7.684   2.614 -2.9903 -0.6463 -0.8479
  212MOL0     H28583   6.522   7.757   2.458  1.7072 -2.1449  1.3586
  212MOL0     H28584   6.832   7.822   2.329 -2.2102 -0.3006 -0.3911
  212MOL0     H28585   7.000   7.840   2.135 -0.0505  0.7830 -0.5198
  212MOL0     H28586   7.035   7.824   1.906  2.3556  2.5908  1.8762
  212MOL0     H28587   6.875   7.873   1.864 -0.2547  0.8711  2.1461
  212MOL0     H28588   7.012   8.045   1.706 -3.7537 -0.6658  0.2584
  212MOL0     H28589   7.140   7.931   1.742 -0.4631 -0.1519  2.3545
  212MOL0     H28590   6.860   7.864   1.635 -0.6196  0.3097  2.8541
  212MOL0     H28591   6.978   7.738   1.661  0.6390 -0.8449 -3.7606
  212MOL0     H28592   6.990   7.969   1.465  1.6383  0.9751 -0.9768
  212MOL0     H28593   7.133   7.871   1.486  0.0095  0.2131  2.7014
  212MOL0     H28594   6.871   7.762   1.384  0.0693  1.8485 -1.2990
  212MOL0     H28595   7.019   7.668   1.400  3.2741  0.5766 -1.0401
  212MOL0     H28596   6.956   7.907   1.216 -0.8630 -0.6858  0.9629
  212MOL0     H28597   7.113   7.859   1.249 -2.1248  5.3154  1.8977
  212MOL0     H28598   6.914   7.697   1.070  1.0551 -1.9945 -0.5373
  212MOL0     H28599   7.058   7.623   1.161  0.4439 -0.7063  0.2669
  212MOL0     H28600   7.108   7.704   0.929  2.1224  1.8737 -1.9490
  212MOL0     H28601   7.193   7.790   1.052 -0.0412 -1.6560 -1.1494
  212MOL0     H28602   6.798   8.183   2.014  0.3967 -0.8247 -1.3249
  212MOL0     H28603   6.631   8.171   2.197  0.7120 -0.6128  3.6275
  212MOL0     H28604   6.433   8.241   2.599  0.7350 -0.6255 -3.1102
  212MOL0     H28605   6.270   8.202   2.761  1.0737  0.4017 -1.4931
  212MOL0     H28606   5.739   8.115   2.305 -0.6964 -0.6883  2.2767
  212MOL0     H28607   5.921   8.276   2.278  0.3095 -1.3849 -1.1646
  212MOL0     H28608   6.170   8.670   2.421 -1.5624 -1.3789 -2.0486
  212MOL0     H28609   6.366   8.794   2.403  2.2675  0.2173  0.4934
  212MOL0     H28610   6.757   8.581   2.441 -1.5861  1.0067  0.5645
  212MOL0     H28611   6.748   8.606   2.265 -0.6280 -2.4048  0.5703
  212MOL0     H28612   6.808   8.815   2.479 -0.6208  0.1532  0.1951
  212MOL0     H28613   6.789   8.854   2.316 -4.1789  0.3994  1.8077
  212MOL0     H28614   6.986   8.662   2.279 -0.0292  2.9774 -2.1575
  212MOL0     H28615   7.014   8.670   2.460 -0.4020  0.5930  0.4459
  212MOL0     H28616   7.070   8.908   2.265  1.7899 -2.2140 -1.8581
  212MOL0     H28617   7.177   8.795   2.315 -0.5966 -0.7368 -0.7090
  212MOL0     H28618   7.180   8.983   2.671  2.5723 -1.9388 -0.5744
  212MOL0     H28619   6.597   8.445   2.311  0.7300  2.0460 -0.2292
  212MOL0     H28620   6.403   8.306   2.324  1.1167  0.5177 -0.1616
  213MOL0     O28621   1.924  10.971   9.839 -0.5413 -0.0105  0.5710
  213MOL0     C28622   1.807  10.964   9.878 -0.5533 -0.0104  0.1638
  213MOL0     O28623   1.704  10.946   9.790  0.3629  0.2329  0.9737
  213MOL0     C28624   1.731  10.973   9.653  0.5374 -0.1555  0.3306
  213MOL0     C28625   1.738  10.868   9.568 -1.3429  0.4954 -0.1519
  213MOL0     C28626   1.771  10.890   9.435 -0.4028  0.3795 -0.3817
  213MOL0     C28627   1.804  11.008   9.386 -0.8846 -1.0870  0.3432
  213MOL0     O28628   1.838  10.998   9.258  0.1774  0.0887  0.9153
  213MOL0     C28629   1.927  11.092   9.201  0.1155  0.9437  0.1920
  213MOL0     C28630   1.941  11.035   9.058 -0.0584 -0.0667  0.7136
  213MOL0     C28631   2.066  11.078   8.980 -0.2491 -0.4178  0.2312
  213MOL0     C28632   2.059  11.028   8.831 -0.0885  0.4876  0.4758
  213MOL0     C28633   2.183  11.048   8.750 -0.0169  0.1649  0.4712
  213MOL0     C28634   2.192  10.982   8.619  0.0892  0.2529 -0.2539
  213MOL0     C28635   2.334  10.982   8.555  0.1496 -0.0540 -0.2407
  213MOL0     C28636   2.334  10.953   8.411  0.2379  1.1609 -0.1216
  213MOL0     N28637   2.324  11.060   8.314 -0.1903  0.6474 -0.9307
  213MOL0     C28638   2.232  11.161   8.321 -0.7991  0.6867  0.2796
  213MOL0     C28639   2.276  11.249   8.233 -0.6970  0.3244 -0.2302
  213MOL0     C28640   2.201  11.376   8.209  0.5948  1.0331 -0.2710
  213MOL0     C28641   2.263  11.493   8.287  0.0124  0.2006 -0.3230
  213MOL0     C28642   2.164  11.618   8.284 -0.5758  1.4364  0.7330
  213MOL0     C28643   2.216  11.744   8.362 -0.0720 -0.2891  0.1176
  213MOL0     O28644   2.238  11.698   8.499 -0.1305 -0.3757  0.0481
  213MOL0     C28645   2.217  11.784   8.601 -0.4590  0.4472  0.6084
  213MOL0     C28646   2.091  11.799   8.650  0.3777  0.5044  0.7854
  213MOL0     C28647   2.057  11.883   8.752 -0.0510 -0.2351  0.1714
  213MOL0     C28648   1.910  11.894   8.775 -0.5270 -0.2827 -0.3409
  213MOL0     C28649   2.155  11.964   8.813  0.7226  1.1797 -0.4999
  213MOL0     C28650   2.136  12.054   8.923 -0.1191  0.3773 -0.8584
  213MOL0     O28651   2.015  12.126   8.930  0.0474 -0.3943 -0.3826
  213MOL0     C28652   1.993  12.229   9.022 -0.4208  0.0028 -0.7331
  213MOL0     C28653   2.078  12.337   9.036 -0.0016 -0.3189 -0.5919
  213MOL0     C28654   2.038  12.442   9.128  0.0478  0.7212 -0.6729
  213MOL0     C28655   1.915  12.432   9.209  0.0139  0.4100  0.4946
  213MOL0     O28656   1.863  12.535   9.286 -0.1163  0.4981 -0.2578
  213MOL0     C28657   1.961  12.639   9.315 -1.0109 -1.0061 -0.5468
  213MOL0     C28658   1.919  12.728   9.427 -0.1056 -0.1334 -0.3353
  213MOL0     C28659   1.979  12.691   9.554  0.4201 -0.2903 -0.6778
  213MOL0     C28660   1.955  12.547   9.600 -0.2707 -0.0523  0.5820
  213MOL0     C28661   1.999  12.511   9.741  0.0464 -0.1609 -0.9402
  213MOL0     C28662   1.933  12.591   9.856  0.4110 -0.0965  0.7675
  213MOL0     C28663   1.961  12.562   9.999 -0.4679  1.6484  0.1632
  213MOL0     C28664   2.110  12.521  10.026  0.4800 -0.2619 -0.4896
  213MOL0    Cl28665   2.225  12.658  10.004 -0.0837  0.0183 -0.2766
  213MOL0     C28666   1.838  12.323   9.184 -0.2913  0.6132 -0.6119
  213MOL0     C28667   1.876  12.216   9.100 -0.2438 -0.4895  0.7662
  213MOL0     O28668   2.232  12.064   9.001 -0.4464 -1.0148  0.4988
  213MOL0     C28669   2.288  11.938   8.774  0.3641  0.3138  0.6924
  213MOL0     C28670   2.319  11.842   8.671  0.6752  0.2796  0.6382
  213MOL0     N28671   2.375  11.189   8.158 -0.5453  0.0831  0.6061
  213MOL0     N28672   2.421  11.082   8.222  0.1178 -0.0896  0.7583
  213MOL0     C28673   1.800  11.127   9.463 -0.0337  0.4754  1.2078
  213MOL0     C28674   1.756  11.106   9.599 -0.8706  0.5050  0.4457
  213MOL0     C28675   1.787  10.973  10.022  0.8090 -0.4460 -1.3612
  213MOL0     C28676   1.898  10.974  10.122  0.6945 -0.2913  0.0315
  213MOL0     C28677   1.872  10.953  10.257 -0.1316 -0.0746  0.6734
  213MOL0     C28678   1.746  10.968  10.308 -0.1516 -0.0869  0.2343
  213MOL0     O28679   1.709  10.974  10.441  0.3817 -0.2101  0.3700
  213MOL0     C28680   1.814  10.992  10.539  0.3075 -0.0914 -1.1135
  213MOL0     C28681   1.757  11.031  10.679  0.1933 -0.1994 -0.0647
  213MOL0     C28682   1.860  11.048  10.792  0.3316  0.5451 -0.9837
  213MOL0     C28683   1.804  11.114  10.917  0.9330 -0.1438  0.0013
  213MOL0     C28684   1.723  11.028  10.999 -0.1289  0.4030  0.3482
  213MOL0     C28685   1.653  10.950  11.067 -0.2004  0.2609 -0.3826
  213MOL0     C28686   1.637  10.964  10.219 -0.0755 -0.3913  0.9431
  213MOL0     C28687   1.657  10.964  10.077 -0.5203 -0.1551 -0.5527
  213MOL0     H28688   1.710  10.772   9.609 -2.5271  1.0034  0.2621
  213MOL0     H28689   1.773  10.802   9.372 -1.1514 -0.3242  0.5569
  213MOL0     H28690   1.889  11.194   9.192  1.4186  1.3876 -0.6125
  213MOL0     H28691   2.010  11.092   9.273 -2.6494 -2.7659  3.8524
  213MOL0     H28692   1.930  10.926   9.054  0.6707 -0.1378 -2.0525
  213MOL0     H28693   1.849  11.073   9.012  0.3456  2.5173  1.8562
  213MOL0     H28694   2.068  11.188   8.981 -2.6126 -0.3291 -0.4938
  213MOL0     H28695   2.157  11.043   9.030 -0.2708 -2.9878 -1.3893
  213MOL0     H28696   2.036  10.921   8.838 -0.4532  0.5839  0.8046
  213MOL0     H28697   1.976  11.079   8.781  3.3703  3.5798 -2.6243
  213MOL0     H28698   2.198  11.156   8.744  3.4134 -0.2006  0.8776
  213MOL0     H28699   2.268  11.024   8.814 -0.2342  1.5788  1.3443
  213MOL0     H28700   2.170  10.877   8.639  0.5836 -0.0339 -1.1640
  213MOL0     H28701   2.106  11.008   8.557 -2.7350  0.3239  3.3318
  213MOL0     H28702   2.388  11.075   8.577  0.9561 -0.3610 -0.8710
  213MOL0     H28703   2.396  10.904   8.599 -1.6849 -1.1000  0.6035
  213MOL0     H28704   2.251  10.888   8.381  0.6991  0.4162  0.1977
  213MOL0     H28705   2.421  10.888   8.396  0.9440  2.3969 -1.8280
  213MOL0     H28706   2.141  11.173   8.379 -0.2632  0.9661  1.0722
  213MOL0     H28707   2.210  11.405   8.104 -1.9106 -0.3652 -0.9642
  213MOL0     H28708   2.103  11.365   8.256  1.9386  0.2341  2.6103
  213MOL0     H28709   2.360  11.530   8.253  0.6199 -0.3088  0.8311
  213MOL0     H28710   2.266  11.451   8.388  0.1731 -0.1458 -0.4720
  213MOL0     H28711   2.069  11.604   8.335 -0.6015  1.0744  0.5924
  213MOL0     H28712   2.142  11.635   8.178  2.2868 -2.1028 -0.6754
  213MOL0     H28713   2.131  11.813   8.358  0.9060  0.9826  0.7251
  213MOL0     H28714   2.300  11.796   8.314 -3.1899  3.8661 -1.5135
  213MOL0     H28715   2.021  11.741   8.592  2.4150 -0.9612 -0.3488
  213MOL0     H28716   1.888  11.926   8.877  0.8284 -1.9111  0.5127
  213MOL0     H28717   1.867  11.954   8.694  2.4740  2.6093  0.0043
  213MOL0     H28718   1.869  11.793   8.789  0.5094 -0.7135 -0.3315
  213MOL0     H28719   2.153  12.348   8.959  0.5710  0.1399  0.0265
  213MOL0     H28720   2.115  12.518   9.131 -0.2261  1.1218 -2.4675
  213MOL0     H28721   2.064  12.607   9.335 -0.3840  0.8222 -0.6434
  213MOL0     H28722   1.960  12.702   9.225 -1.3315  0.0064  0.1494
  213MOL0     H28723   1.954  12.825   9.390 -2.6154  0.8888 -0.2778
  213MOL0     H28724   1.811  12.740   9.444  0.0561  0.1408  0.5058
  213MOL0     H28725   1.948  12.763   9.631  2.9268  2.6781 -2.1626
  213MOL0     H28726   2.086  12.709   9.537 -0.0158 -0.5997 -4.6099
  213MOL0     H28727   1.848  12.527   9.600 -0.3554  0.3033 -0.6143
  213MOL0     H28728   1.990  12.473   9.527  3.2209  1.2635  0.7089
  213MOL0     H28729   2.108  12.520   9.736  0.0952 -0.2603 -0.1376
  213MOL0     H28730   1.969  12.407   9.755 -0.0181  0.0991  1.1775
  213MOL0     H28731   1.967  12.694   9.846 -0.0894  0.0638  0.6825
  213MOL0     H28732   1.824  12.593   9.849  0.0065 -3.2638  3.5396
  213MOL0     H28733   1.902  12.474  10.026  0.4883  0.9203 -0.1097
  213MOL0     H28734   1.925  12.643  10.065 -2.0025  1.3369 -0.2526
  213MOL0     H28735   2.147  12.444   9.957  2.1618  0.4446 -0.4335
  213MOL0     H28736   2.127  12.483  10.127  0.1523  1.9660  0.4628
  213MOL0     H28737   1.739  12.316   9.227 -0.9221  1.6086 -1.8211
  213MOL0     H28738   1.830  12.118   9.090  2.6822 -1.9054 -0.1689
  213MOL0     H28739   2.372  12.000   8.806  1.6176 -0.4832 -0.8936
  213MOL0     H28740   2.419  11.830   8.630  1.2777 -3.6307  2.7772
  213MOL0     H28741   1.847  11.222   9.437 -2.2053  2.0438  2.6663
  213MOL0     H28742   1.744  11.181   9.677  0.4406  0.2904  0.8845
  213MOL0     H28743   2.001  10.980  10.087  0.9434 -2.0203  0.3687
  213MOL0     H28744   1.961  10.930  10.316  1.4049  1.7075 -0.8361
  213MOL0     H28745   1.872  10.900  10.548 -0.5263 -0.4245  5.6280
  213MOL0     H28746   1.873  11.082  10.518  3.1101 -1.4846  0.3087
  213MOL0     H28747   1.679  10.959  10.706 -0.8983 -0.1093 -2.6517
  213MOL0     H28748   1.697  11.123  10.671  0.7320  0.2030  0.3981
  213MOL0     H28749   1.945  11.112  10.764  2.4600 -1.1469  1.1253
  213MOL0     H28750   1.896  10.947  10.815  1.0113  1.4289  2.4136
  213MOL0     H28751   1.745  11.201  10.887  1.0219 -1.0239 -3.0615
  213MOL0     H28752   1.890  11.158  10.968 -1.9589  2.7739  2.8788
  213MOL0     H28753   1.583  10.898  11.129 -1.3649  0.0185 -1.8372
  213MOL0     H28754   1.535  10.957  10.256 -0.3866  1.9201  0.6737
  213MOL0     H28755   1.571  10.969  10.011 -1.3839  1.0202  0.6153
  214MOL0     O28756   6.392   7.043   5.281 -0.0954  0.0585 -0.1321
  214MOL0     C28757   6.394   7.024   5.399  0.8126  0.3968 -0.1109
  214MOL0     O28758   6.342   7.114   5.486 -0.2833  0.0729 -0.0657
  214MOL0     C28759   6.309   7.241   5.439 -0.4799  0.2874  0.5372
  214MOL0     C28760   6.405   7.330   5.451 -0.1480  0.0957  1.4715
  214MOL0     C28761   6.396   7.458   5.378 -0.1754 -0.1599  0.5021
  214MOL0     C28762   6.276   7.492   5.316  0.4249  0.0902 -0.3536
  214MOL0     O28763   6.246   7.594   5.240 -0.2184 -0.2606  0.8214
  214MOL0     C28764   6.365   7.660   5.170  0.1109  0.8286  0.1322
  214MOL0     C28765   6.312   7.756   5.063 -0.0354  0.8700  0.1112
  214MOL0     C28766   6.262   7.886   5.132  0.4195 -0.2873  0.1692
  214MOL0     C28767   6.198   7.972   5.019 -0.2829 -0.0481  0.5609
  214MOL0     C28768   6.200   8.125   5.051  0.5961  0.5033 -0.3048
  214MOL0     C28769   6.107   8.197   4.953  0.5895 -0.6083 -0.4009
  214MOL0     C28770   6.048   8.328   5.014 -0.1835 -0.3922 -0.4045
  214MOL0     C28771   5.922   8.391   4.939 -0.1466  0.2854 -0.2131
  214MOL0     N28772   5.942   8.420   4.793 -0.0892 -0.1824 -0.1999
  214MOL0     C28773   5.837   8.442   4.711  0.5424  0.4390 -0.2184
  214MOL0     C28774   5.893   8.473   4.593  0.4814 -0.2115 -0.0598
  214MOL0     C28775   5.819   8.507   4.471 -0.4854 -0.2710  0.7626
  214MOL0     C28776   5.876   8.621   4.386 -1.0873  0.2297 -0.5163
  214MOL0     C28777   5.988   8.577   4.287  1.3090  0.3620 -0.1776
  214MOL0     C28778   6.086   8.689   4.249  0.0109  0.6450 -0.2219
  214MOL0     O28779   6.169   8.628   4.151 -0.6228  0.3292 -0.3475
  214MOL0     C28780   6.256   8.713   4.081  0.0968  0.1306  0.3563
  214MOL0     C28781   6.308   8.826   4.145 -0.4464  0.8736 -0.1278
  214MOL0     C28782   6.411   8.898   4.091 -0.0539  0.0954  0.6319
  214MOL0     C28783   6.467   9.010   4.180  0.2808 -0.4530  0.4636
  214MOL0     C28784   6.469   8.862   3.966  1.3915 -0.8910  0.3706
  214MOL0     C28785   6.570   8.941   3.893  0.2083 -0.4132  0.2848
  214MOL0     O28786   6.602   9.069   3.940  0.3773 -0.1587  0.9297
  214MOL0     C28787   6.726   9.103   3.901 -0.0678 -0.3218 -0.5205
  214MOL0     C28788   6.751   9.173   3.783 -0.2685  0.0283 -0.3260
  214MOL0     C28789   6.882   9.216   3.751  0.4039  0.5680  0.2208
  214MOL0     C28790   6.991   9.181   3.828  0.1590  0.4892 -0.0729
  214MOL0     O28791   7.119   9.221   3.805 -0.5981  0.3297  0.4003
  214MOL0     C28792   7.156   9.335   3.725 -0.6342  0.6562  0.1552
  214MOL0     C28793   7.305   9.305   3.687  0.3628  0.5109 -0.2607
  214MOL0     C28794   7.408   9.308   3.806 -0.1412 -0.7264  0.1990
  214MOL0     C28795   7.546   9.292   3.763  0.3480  0.3000 -0.9112
  214MOL0     C28796   7.662   9.274   3.865 -1.9722 -0.9994 -0.1340
  214MOL0     C28797   7.626   9.233   4.014 -0.4505 -0.1057  0.9390
  214MOL0     C28798   7.755   9.252   4.088  0.1166  0.7311 -0.2785
  214MOL0     C28799   7.738   9.223   4.239  0.1966  0.3828 -0.2426
  214MOL0    Cl28800   7.650   9.343   4.325  0.2044 -0.1457 -0.1200
  214MOL0     C28801   6.966   9.088   3.937  0.0951  0.1631  0.6986
  214MOL0     C28802   6.840   9.063   3.977  0.4339  0.4283  0.8736
  214MOL0     O28803   6.616   8.888   3.790  0.1214 -0.3358  0.3313
  214MOL0     C28804   6.409   8.749   3.899  0.0508  0.7889 -1.1648
  214MOL0     C28805   6.305   8.676   3.959 -0.3445 -0.5101  1.0726
  214MOL0     N28806   6.023   8.448   4.600 -0.2090  0.4543 -0.0533
  214MOL0     N28807   6.057   8.426   4.719 -0.3272  0.1943  1.4146
  214MOL0     C28808   6.177   7.401   5.320 -0.6418 -0.1928 -0.9705
  214MOL0     C28809   6.189   7.274   5.369  0.7736 -0.7229 -0.2194
  214MOL0     C28810   6.459   6.894   5.442 -0.2820  0.1279 -1.1256
  214MOL0     C28811   6.516   6.901   5.570 -0.1476  0.5601  0.4539
  214MOL0     C28812   6.585   6.790   5.626  0.9321  0.5275  0.2811
  214MOL0     C28813   6.600   6.677   5.546  0.0810 -0.0224  0.2984
  214MOL0     O28814   6.668   6.580   5.610  0.2495  0.5890  0.1864
  214MOL0     C28815   6.770   6.501   5.550  0.3386  0.0485  0.3073
  214MOL0     C28816   6.899   6.581   5.568 -0.1697 -1.3480  0.1269
  214MOL0     C28817   7.010   6.534   5.476 -0.3406 -0.5442 -0.0186
  214MOL0     C28818   7.142   6.591   5.519  0.1553 -0.4433  0.9749
  214MOL0     C28819   7.252   6.556   5.424 -0.5455 -0.5427 -0.3125
  214MOL0     C28820   7.331   6.525   5.336 -0.2197 -0.4466 -0.5597
  214MOL0     C28821   6.532   6.665   5.418 -0.9631 -0.1810 -0.2414
  214MOL0     C28822   6.472   6.779   5.355  0.0084  0.4934 -0.4643
  214MOL0     H28823   6.490   7.299   5.511 -0.2769 -1.4652  0.9034
  214MOL0     H28824   6.483   7.523   5.374  0.0575 -0.4939  0.0598
  214MOL0     H28825   6.425   7.728   5.232  2.2467 -1.3583  0.6157
  214MOL0     H28826   6.435   7.586   5.131 -2.2472 -2.5030  1.7692
  214MOL0     H28827   6.387   7.792   4.992 -1.8514 -1.0021 -2.9299
  214MOL0     H28828   6.242   7.701   5.000  3.5277 -2.4952 -1.3250
  214MOL0     H28829   6.188   7.854   5.206 -0.1788 -1.2526 -0.8145
  214MOL0     H28830   6.339   7.936   5.192  1.3795 -3.5139  1.8235
  214MOL0     H28831   6.261   7.961   4.930 -0.9927  0.7992 -0.0639
  214MOL0     H28832   6.099   7.931   4.997  0.2292 -2.4378  2.2980
  214MOL0     H28833   6.172   8.139   5.156 -1.0786 -0.8002 -0.5428
  214MOL0     H28834   6.299   8.162   5.022  1.2817 -1.6475 -0.8181
  214MOL0     H28835   6.163   8.210   4.860  1.7725  0.2223  0.4052
  214MOL0     H28836   6.021   8.133   4.930  0.6784 -0.7436 -0.3581
  214MOL0     H28837   6.009   8.305   5.114 -0.0542 -0.5191 -0.3817
  214MOL0     H28838   6.126   8.404   5.025  2.5043 -2.7433 -1.8380
  214MOL0     H28839   5.902   8.484   4.993 -0.9817 -1.0146  1.8249
  214MOL0     H28840   5.832   8.330   4.946 -2.3343  3.4089  0.7698
  214MOL0     H28841   5.729   8.439   4.725  0.6926 -1.5208  0.8915
  214MOL0     H28842   5.813   8.415   4.412  1.7796  0.2394 -0.3839
  214MOL0     H28843   5.719   8.542   4.498 -1.4699 -2.8623  0.7871
  214MOL0     H28844   5.921   8.703   4.443  4.1102 -2.6368  0.1759
  214MOL0     H28845   5.790   8.668   4.338 -1.7548  0.4699  0.8886
  214MOL0     H28846   5.933   8.553   4.195  2.4542 -0.7163 -0.6187
  214MOL0     H28847   6.033   8.483   4.320 -0.0152 -0.1709  0.1805
  214MOL0     H28848   6.153   8.707   4.333  2.0189  0.6796 -1.7383
  214MOL0     H28849   6.029   8.775   4.211 -0.5565 -1.2030 -4.1246
  214MOL0     H28850   6.276   8.852   4.245  0.3016 -1.0199  0.6566
  214MOL0     H28851   6.564   8.972   4.212  1.9116 -0.4736 -3.7978
  214MOL0     H28852   6.475   9.112   4.144 -0.1209  0.0598  1.7772
  214MOL0     H28853   6.405   9.030   4.268 -1.4116  2.3554 -1.2042
  214MOL0     H28854   6.673   9.193   3.711 -0.1316 -0.9553 -0.7598
  214MOL0     H28855   6.900   9.272   3.660 -4.2825  0.3010 -1.1394
  214MOL0     H28856   7.093   9.344   3.637 -0.1196 -0.4626 -0.3507
  214MOL0     H28857   7.146   9.422   3.789 -1.6480 -1.3033  2.8623
  214MOL0     H28858   7.307   9.210   3.633  2.1186 -1.1935  2.5830
  214MOL0     H28859   7.328   9.382   3.613 -1.8020  0.4813 -1.0431
  214MOL0     H28860   7.372   9.223   3.865  0.4348 -2.6777 -2.0985
  214MOL0     H28861   7.399   9.401   3.863 -1.3867 -1.6276  1.5308
  214MOL0     H28862   7.545   9.200   3.704  1.6729  2.6850 -5.0099
  214MOL0     H28863   7.562   9.370   3.688 -1.4752  2.8192  1.1072
  214MOL0     H28864   7.731   9.357   3.853 -2.1113 -1.1473 -2.2665
  214MOL0     H28865   7.721   9.190   3.826 -1.2733  0.8876 -3.4596
  214MOL0     H28866   7.557   9.302   4.064  0.4893  1.6031 -0.0184
  214MOL0     H28867   7.588   9.131   4.025 -1.1034  0.1355  1.0079
  214MOL0     H28868   7.794   9.354   4.076 -1.3217  1.2841 -0.5057
  214MOL0     H28869   7.833   9.186   4.049 -0.2806  1.0469 -1.6650
  214MOL0     H28870   7.838   9.216   4.282 -0.4866 -1.5040  1.2427
  214MOL0     H28871   7.687   9.126   4.247  2.5675 -0.9814 -0.7289
  214MOL0     H28872   7.057   9.063   3.990 -0.7546  0.5128  2.4270
  214MOL0     H28873   6.822   9.010   4.070  2.3451 -0.7269  0.6524
  214MOL0     H28874   6.442   8.726   3.798  1.6080 -0.9701 -0.3073
  214MOL0     H28875   6.264   8.587   3.912  0.7814 -1.0338  1.0410
  214MOL0     H28876   6.093   7.421   5.254 -0.5073  1.4504 -0.7055
  214MOL0     H28877   6.113   7.198   5.358  2.4447 -3.0115  2.5628
  214MOL0     H28878   6.512   6.994   5.626 -1.5964  0.4940  0.5084
  214MOL0     H28879   6.638   6.797   5.721  3.4358 -3.9276 -0.4971
  214MOL0     H28880   6.781   6.400   5.590 -4.3316 -1.0945 -0.6871
  214MOL0     H28881   6.744   6.486   5.445 -1.2189 -0.6036  0.7472
  214MOL0     H28882   6.931   6.572   5.672  1.4034 -0.6792 -0.2869
  214MOL0     H28883   6.882   6.686   5.545  1.4545 -1.1685 -0.3918
  214MOL0     H28884   6.987   6.569   5.375  1.8521 -1.0859 -0.7616
  214MOL0     H28885   7.009   6.425   5.471 -1.3827 -0.4991 -2.7125
  214MOL0     H28886   7.168   6.547   5.615  2.5663  0.8207  0.9775
  214MOL0     H28887   7.129   6.699   5.529 -0.8994  0.0035 -3.2050
  214MOL0     H28888   7.380   6.489   5.247 -2.4072 -2.0812 -1.1900
  214MOL0     H28889   6.546   6.583   5.348  1.1417  2.3591 -3.0502
  214MOL0     H28890   6.435   6.775   5.253 -2.4138  1.5621  0.3072
  215MOL0     O28891   5.425   9.143  11.451 -0.3351  0.4538  0.3222
  215MOL0     C28892   5.381   9.129  11.337  1.2501  0.3277  0.3070
  215MOL0     O28893   5.313   9.019  11.288  0.2730  1.4343  0.1138
  215MOL0     C28894   5.283   8.924  11.373  1.1089 -0.4502 -0.4862
  215MOL0     C28895   5.149   8.909  11.418 -0.9480  0.5772  0.9380
  215MOL0     C28896   5.119   8.823  11.522  1.0458 -0.1114 -0.5306
  215MOL0     C28897   5.212   8.748  11.583 -0.4100  0.0129 -0.1821
  215MOL0     O28898   5.164   8.668  11.687 -0.0513  0.2954 -0.3104
  215MOL0     C28899   5.236   8.596  11.787 -0.8329  0.1848 -0.6511
  215MOL0     C28900   5.195   8.448  11.792  0.1970 -0.9430  0.9530
  215MOL0     C28901   5.043   8.418  11.798  0.8870 -0.3773 -0.0194
  215MOL0     C28902   5.008   8.260  11.780 -0.7131  0.6497  0.7297
  215MOL0     C28903   4.860   8.230  11.750 -0.0101  0.2314 -0.5714
  215MOL0     C28904   4.799   8.150  11.865  0.2778 -0.2653  0.0158
  215MOL0     C28905   4.815   7.994  11.851  1.1719  1.3793  0.8785
  215MOL0     C28906   4.770   7.923  11.973 -0.5021 -0.5998 -0.0888
  215MOL0     N28907   4.628   7.912  12.013 -0.9263  0.1189 -0.3565
  215MOL0     C28908   4.572   7.833  12.112  0.3943 -0.2877  0.1678
  215MOL0     C28909   4.440   7.863  12.100  0.3776 -0.5705 -0.0248
  215MOL0     C28910   4.327   7.801  12.174  0.2163 -1.0949  0.2911
  215MOL0     C28911   4.317   7.850  12.321 -1.1707  0.9135  0.7959
  215MOL0     C28912   4.289   8.002  12.329 -0.0773 -0.1046 -0.2044
  215MOL0     C28913   4.379   8.094  12.415  0.0081  0.6008 -1.0482
  215MOL0     O28914   4.516   8.100  12.366  0.3429  0.4746  0.7868
  215MOL0     C28915   4.566   8.216  12.335  0.0610  0.2813 -0.2645
  215MOL0     C28916   4.569   8.318  12.430  0.3762 -0.2352 -0.2310
  215MOL0     C28917   4.642   8.439  12.399 -0.0050  0.6468  0.8484
  215MOL0     C28918   4.658   8.537  12.505 -0.1672  0.5455  0.5873
  215MOL0     C28919   4.707   8.449  12.271  0.4088 -0.2396 -0.0174
  215MOL0     C28920   4.806   8.562  12.234 -0.2657 -0.4247 -1.0981
  215MOL0     O28921   4.883   8.546  12.123  0.3124  0.5537 -0.6952
  215MOL0     C28922   4.966   8.659  12.096 -0.2422 -0.2770  0.5712
  215MOL0     C28923   5.078   8.690  12.169  0.1026  0.3976 -0.0285
  215MOL0     C28924   5.165   8.801  12.141  0.4980 -0.2821 -1.1996
  215MOL0     C28925   5.143   8.871  12.023 -0.3941 -0.6969 -0.3116
  215MOL0     O28926   5.240   8.965  11.985 -0.1245  0.2385 -0.3477
  215MOL0     C28927   5.265   9.005  11.854 -0.9640 -0.8078 -0.0982
  215MOL0     C28928   5.283   9.164  11.867 -0.7365 -1.2569 -0.2229
  215MOL0     C28929   5.427   9.223  11.896 -0.3351 -0.3672 -0.7042
  215MOL0     C28930   5.441   9.384  11.884  0.0285  0.5333 -0.3466
  215MOL0     C28931   5.472   9.425  11.742  0.8211  1.0336 -0.0715
  215MOL0     C28932   5.511   9.569  11.723  0.8767 -0.0543 -0.2816
  215MOL0     C28933   5.597   9.597  11.594 -0.0959  0.0943 -0.2704
  215MOL0     C28934   5.665   9.731  11.601 -0.0600  1.8532  0.8741
  215MOL0    Cl28935   5.787   9.716  11.747 -0.5077 -0.4878  0.2126
  215MOL0     C28936   5.034   8.829  11.943  0.5554  0.1101 -0.2805
  215MOL0     C28937   4.942   8.724  11.983 -0.4238 -0.0251 -0.5668
  215MOL0     O28938   4.805   8.662  12.306  0.3938 -0.0906 -0.4522
  215MOL0     C28939   4.696   8.337  12.186  0.5680  0.3549 -0.3379
  215MOL0     C28940   4.620   8.231  12.212  0.2368  0.4503 -0.4588
  215MOL0     N28941   4.415   7.949  11.989 -0.4928  1.0359 -1.0132
  215MOL0     N28942   4.532   7.978  11.948  0.4332 -0.7083 -0.1543
  215MOL0     C28943   5.347   8.753  11.535  0.2988  0.0030 -0.1979
  215MOL0     C28944   5.378   8.839  11.429 -0.1308 -1.1267 -0.3082
  215MOL0     C28945   5.403   9.244  11.247  0.5882  1.5696  0.4540
  215MOL0     C28946   5.436   9.373  11.297  0.6123  0.9802 -0.3348
  215MOL0     C28947   5.433   9.480  11.203  0.0716 -0.5650 -0.6044
  215MOL0     C28948   5.407   9.463  11.071  0.0078  0.1228 -0.5299
  215MOL0     O28949   5.403   9.580  10.998  0.0782  0.5466  0.0843
  215MOL0     C28950   5.272   9.611  10.948  0.2750 -0.0028 -0.6167
  215MOL0     C28951   5.254   9.759  10.899 -0.4798  1.5980  0.2485
  215MOL0     C28952   5.342   9.789  10.771 -0.1579 -0.5349 -0.3816
  215MOL0     C28953   5.330   9.936  10.736  0.2758 -1.3259 -0.1039
  215MOL0     C28954   5.423   9.988  10.640 -0.4202  0.1049  0.0742
  215MOL0     C28955   5.484  10.050  10.550 -0.5572 -0.5261 -0.0387
  215MOL0     C28956   5.373   9.332  11.020  0.7713  0.5326  0.1378
  215MOL0     C28957   5.367   9.225  11.106 -0.7177 -1.0153 -0.1049
  215MOL0     H28958   5.064   8.958  11.371 -1.4799 -0.6316  0.5884
  215MOL0     H28959   5.019   8.806  11.560  1.4897  0.5708  1.0140
  215MOL0     H28960   5.344   8.599  11.774 -0.8744  1.7225 -0.7577
  215MOL0     H28961   5.204   8.644  11.880  1.3040  0.7499 -0.1632
  215MOL0     H28962   5.234   8.400  11.701  1.1522  0.5393  0.5291
  215MOL0     H28963   5.245   8.401  11.877 -1.6692 -1.4890  1.7919
  215MOL0     H28964   5.019   8.441  11.902  3.6633 -2.1949  1.1610
  215MOL0     H28965   4.999   8.481  11.721  0.9224  0.2361  0.4505
  215MOL0     H28966   5.060   8.227  11.690 -2.1836  2.2509 -0.7771
  215MOL0     H28967   5.036   8.191  11.861 -3.3381 -3.7044 -1.6801
  215MOL0     H28968   4.814   8.330  11.754  1.3781  0.8773  2.7708
  215MOL0     H28969   4.838   8.175  11.658 -1.5622 -1.7989  0.9075
  215MOL0     H28970   4.837   8.188  11.960 -0.3802  1.2977 -0.3265
  215MOL0     H28971   4.691   8.169  11.863 -0.4412 -3.3606  1.8690
  215MOL0     H28972   4.754   7.939  11.778 -0.7734 -1.3235  4.2622
  215MOL0     H28973   4.922   7.982  11.830  1.7475  5.0646  0.9624
  215MOL0     H28974   4.816   7.982  12.053 -1.5166 -1.1840  0.9719
  215MOL0     H28975   4.807   7.821  11.977 -1.7579 -1.2589 -3.0056
  215MOL0     H28976   4.612   7.764  12.186 -0.2290 -3.5486 -2.2818
  215MOL0     H28977   4.232   7.824  12.126 -0.5436  4.1946  3.4631
  215MOL0     H28978   4.332   7.692  12.181 -0.5177 -1.0413  2.2865
  215MOL0     H28979   4.406   7.824  12.380 -0.1249 -0.5351 -1.2989
  215MOL0     H28980   4.227   7.797  12.353 -0.0783 -0.6512  1.4573
  215MOL0     H28981   4.189   8.026  12.365  0.2662  1.9355 -0.4784
  215MOL0     H28982   4.290   8.043  12.228  1.9953  1.6569  0.4541
  215MOL0     H28983   4.373   8.075  12.523 -0.0228 -2.7095 -1.5253
  215MOL0     H28984   4.337   8.194  12.405  2.4600  1.5202 -3.9724
  215MOL0     H28985   4.535   8.303  12.532  0.2104 -0.9425 -0.3859
  215MOL0     H28986   4.622   8.488  12.596  0.3715  2.2224  1.7576
  215MOL0     H28987   4.764   8.552  12.527 -0.0665 -1.6548  1.9234
  215MOL0     H28988   4.594   8.623  12.482 -2.3380 -2.0044 -4.4903
  215MOL0     H28989   5.088   8.632  12.260  0.4796  2.0469  1.0305
  215MOL0     H28990   5.244   8.836  12.207 -1.8972  0.0919  1.6962
  215MOL0     H28991   5.348   8.952  11.807  0.1859  1.1507 -0.3536
  215MOL0     H28992   5.181   8.985  11.787 -2.6197 -1.6088  2.1044
  215MOL0     H28993   5.260   9.220  11.776 -0.0307  0.9476  0.8622
  215MOL0     H28994   5.218   9.200  11.948  0.3495 -0.8818  0.5013
  215MOL0     H28995   5.481   9.167  11.818 -0.9924 -0.7820 -0.8737
  215MOL0     H28996   5.460   9.196  11.997 -2.6010 -0.3150  0.1044
  215MOL0     H28997   5.345   9.426  11.913 -0.2659  0.5405 -1.3106
  215MOL0     H28998   5.516   9.412  11.959  2.1657 -0.5319 -1.9965
  215MOL0     H28999   5.386   9.394  11.682  1.0008 -1.9151  1.0558
  215MOL0     H29000   5.555   9.359  11.717 -1.2264 -1.6036 -0.3446
  215MOL0     H29001   5.420   9.628  11.707  1.0772 -0.1056 -1.7344
  215MOL0     H29002   5.559   9.615  11.810  0.5155 -0.3312  0.0662
  215MOL0     H29003   5.530   9.604  11.508 -0.9682  0.2812  0.4123
  215MOL0     H29004   5.669   9.517  11.575 -0.8920 -1.0669  1.3359
  215MOL0     H29005   5.580   9.798  11.616 -1.3468  0.1562  1.5420
  215MOL0     H29006   5.725   9.747  11.511  0.5924  0.4311  1.0312
  215MOL0     H29007   5.016   8.874  11.846 -1.8123  0.1828  0.1533
  215MOL0     H29008   4.872   8.694  11.906 -0.9353  2.4809 -1.1796
  215MOL0     H29009   4.747   8.342  12.090  1.3396  0.9175  0.0939
  215MOL0     H29010   4.607   8.150  12.142  0.4424  0.0428 -0.0350
  215MOL0     H29011   5.423   8.689  11.580 -0.1150 -1.3489 -1.3845
  215MOL0     H29012   5.484   8.842  11.405 -0.6895  0.0697 -2.9494
  215MOL0     H29013   5.450   9.386  11.404  0.7647 -0.2581 -0.1885
  215MOL0     H29014   5.467   9.578  11.234  2.4336 -0.6262 -2.7802
  215MOL0     H29015   5.239   9.543  10.869 -2.5480  0.4116  0.1025
  215MOL0     H29016   5.201   9.583  11.026 -1.7246  2.8687 -1.2263
  215MOL0     H29017   5.287   9.827  10.979 -1.8391  0.7668  1.5615
  215MOL0     H29018   5.147   9.773  10.880 -1.1822  0.4876  2.8343
  215MOL0     H29019   5.308   9.721  10.692 -1.5188  1.1249 -1.2923
  215MOL0     H29020   5.448   9.771  10.790  0.1269 -0.0187 -1.4416
  215MOL0     H29021   5.346   9.997  10.826 -1.1311 -1.2789  0.1413
  215MOL0     H29022   5.234   9.967  10.693  0.1737  1.8851  2.0242
  215MOL0     H29023   5.542  10.106  10.480  1.8387  0.0525  2.2612
  215MOL0     H29024   5.367   9.319  10.913 -0.1051  2.1576 -0.0313
  215MOL0     H29025   5.346   9.130  11.057 -1.3598 -1.8960  1.7932
  216MOL0     O29026   7.334   4.395   5.026 -0.5810 -0.1455 -0.2053
  216MOL0     C29027   7.379   4.299   4.967 -0.8530  0.0189 -0.3701
  216MOL0     O29028   7.342   4.166   4.987 -1.0644 -0.0362  0.2224
  216MOL0     C29029   7.229   4.136   5.062  0.0063 -0.3248  0.0704
  216MOL0     C29030   7.253   4.063   5.179  0.6918  0.0705 -0.5544
  216MOL0     C29031   7.152   4.028   5.262  0.7134  0.1856 -0.2742
  216MOL0     C29032   7.021   4.061   5.229  0.5431 -0.0623 -0.0241
  216MOL0     O29033   6.924   4.016   5.319 -0.3033 -0.3240 -0.1091
  216MOL0     C29034   6.792   4.076   5.310  0.0002  0.5976  0.7824
  216MOL0     C29035   6.707   4.077   5.439 -0.1061  0.1978  0.5896
  216MOL0     C29036   6.761   4.180   5.544  0.6042 -0.2734  0.2292
  216MOL0     C29037   6.727   4.161   5.686 -0.3297  0.4080 -0.7497
  216MOL0     C29038   6.797   4.049   5.757 -0.0560 -0.2493 -0.2486
  216MOL0     C29039   6.707   3.970   5.849 -0.0473 -0.3941 -0.3528
  216MOL0     C29040   6.791   3.850   5.905 -0.8719  0.4145 -1.2047
  216MOL0     C29041   6.702   3.792   6.024 -0.2794 -0.1940  0.6503
  216MOL0     N29042   6.578   3.730   5.992  0.8523  0.2499  0.7267
  216MOL0     C29043   6.562   3.621   5.910  0.5128  0.6399 -0.2932
  216MOL0     C29044   6.430   3.608   5.896  0.1374 -0.0639  0.3375
  216MOL0     C29045   6.378   3.494   5.811 -0.3678  0.0501  0.2282
  216MOL0     C29046   6.237   3.507   5.770 -0.5155  0.2699 -0.6104
  216MOL0     C29047   6.182   3.381   5.698  0.1602 -0.5747 -0.1042
  216MOL0     C29048   6.065   3.420   5.607 -0.6417  0.7675 -0.1392
  216MOL0     O29049   6.020   3.312   5.520  0.0661  1.1022 -0.1236
  216MOL0     C29050   5.901   3.327   5.450 -0.8720  0.0945 -0.3312
  216MOL0     C29051   5.831   3.214   5.421  0.9833 -0.7701  0.3348
  216MOL0     C29052   5.699   3.219   5.384 -0.1603 -0.2502  0.2525
  216MOL0     C29053   5.649   3.084   5.349 -0.3287 -0.3156  0.0696
  216MOL0     C29054   5.624   3.348   5.366 -0.4088  0.1590 -1.7833
  216MOL0     C29055   5.476   3.373   5.327 -0.4906  0.1618  1.0313
  216MOL0     O29056   5.420   3.486   5.374  0.6372 -0.1800  0.1861
  216MOL0     C29057   5.299   3.535   5.316 -0.4364  0.0343 -0.1761
  216MOL0     C29058   5.284   3.529   5.178  0.8463 -0.1230  0.9472
  216MOL0     C29059   5.158   3.545   5.121 -0.7978  1.4537 -0.5673
  216MOL0     C29060   5.037   3.540   5.200 -0.6999 -0.5578 -0.7590
  216MOL0     O29061   4.918   3.559   5.140  0.7508 -0.3165  0.7549
  216MOL0     C29062   4.787   3.556   5.211 -0.0322 -0.2927 -0.5566
  216MOL0     C29063   4.680   3.568   5.106 -0.5183 -0.2300 -0.5263
  216MOL0     C29064   4.709   3.683   5.006  0.2048 -0.2098 -0.8372
  216MOL0     C29065   4.673   3.815   5.065  0.2050  0.0098 -0.3308
  216MOL0     C29066   4.722   3.920   4.972 -0.8133  0.3130  1.2265
  216MOL0     C29067   4.877   3.930   4.941 -0.4873  1.0669 -0.6442
  216MOL0     C29068   4.958   3.903   5.069  0.3135  0.4476 -0.0762
  216MOL0     C29069   5.092   3.982   5.070 -0.0075  0.4380 -0.3045
  216MOL0    Cl29070   5.088   4.162   5.064 -0.6036  0.0356  0.1035
  216MOL0     C29071   5.062   3.552   5.344 -0.0724 -0.0816 -0.0081
  216MOL0     C29072   5.187   3.546   5.399 -0.5860 -0.9762 -0.4151
  216MOL0     O29073   5.418   3.286   5.266 -0.2236 -0.6104 -0.1308
  216MOL0     C29074   5.698   3.463   5.388  0.3321  0.8696  0.6694
  216MOL0     C29075   5.839   3.452   5.426  0.2053  0.1056 -0.6492
  216MOL0     N29076   6.360   3.703   5.972 -0.0262  0.2324  0.4961
  216MOL0     N29077   6.452   3.778   6.021 -0.4634  0.8247 -0.5825
  216MOL0     C29078   6.994   4.135   5.110  0.1770 -0.7344  0.0473
  216MOL0     C29079   7.097   4.170   5.025 -0.4799  1.1327 -0.9314
  216MOL0     C29080   7.498   4.333   4.879  0.0073 -0.2919 -0.3252
  216MOL0     C29081   7.546   4.243   4.777 -0.0701 -0.4978  0.3166
  216MOL0     C29082   7.673   4.254   4.718 -0.9012 -1.3332  0.0668
  216MOL0     C29083   7.763   4.358   4.742 -0.3177 -0.0819 -0.6762
  216MOL0     O29084   7.889   4.357   4.686  0.3176  0.1636  0.1559
  216MOL0     C29085   7.972   4.471   4.699 -0.0375 -0.8061  0.2780
  216MOL0     C29086   7.914   4.598   4.630  0.7055  0.4670  0.5120
  216MOL0     C29087   7.958   4.736   4.671 -0.7422  0.4161  0.5106
  216MOL0     C29088   7.862   4.844   4.630 -0.6058  0.0965  0.2772
  216MOL0     C29089   7.894   4.983   4.674 -0.7383  0.4277 -0.7593
  216MOL0     C29090   7.901   5.099   4.684  0.0978 -1.0692  0.3805
  216MOL0     C29091   7.715   4.446   4.842  0.4448 -0.2102  0.5518
  216MOL0     C29092   7.581   4.445   4.903 -0.5087  0.1922 -0.3815
  216MOL0     H29093   7.356   4.046   5.207  0.3558 -1.0027  0.0650
  216MOL0     H29094   7.181   3.983   5.357  1.0452  1.6307  0.3368
  216MOL0     H29095   6.806   4.181   5.283  0.2503  0.8516  1.8693
  216MOL0     H29096   6.736   4.030   5.228 -1.0641  0.4749  1.5677
  216MOL0     H29097   6.603   4.093   5.409  0.2812  1.1731 -0.2903
  216MOL0     H29098   6.719   3.980   5.488  1.2537  0.6982  1.2999
  216MOL0     H29099   6.869   4.181   5.530  1.3242 -1.1610  4.4062
  216MOL0     H29100   6.718   4.277   5.514 -0.6178 -0.7033  0.5337
  216MOL0     H29101   6.755   4.259   5.727 -1.3449  1.1699 -1.8461
  216MOL0     H29102   6.620   4.139   5.684 -0.6080  1.6713 -3.0304
  216MOL0     H29103   6.856   3.987   5.690  1.3987 -1.3655  1.9418
  216MOL0     H29104   6.866   4.089   5.832  1.9971 -3.0575 -0.4866
  216MOL0     H29105   6.669   4.030   5.932  3.1894 -0.2997  1.2212
  216MOL0     H29106   6.626   3.934   5.785  0.1926 -4.3814  1.2444
  216MOL0     H29107   6.805   3.776   5.826 -1.2359 -0.1210 -0.7791
  216MOL0     H29108   6.890   3.876   5.943 -0.2262 -2.5995 -0.5925
  216MOL0     H29109   6.679   3.869   6.098  2.8488 -1.0613  2.7556
  216MOL0     H29110   6.767   3.719   6.075 -1.3665 -0.5431  1.5697
  216MOL0     H29111   6.645   3.571   5.860  0.7553  0.6485  0.0945
  216MOL0     H29112   6.434   3.495   5.717  0.2622  1.3171  0.5978
  216MOL0     H29113   6.408   3.400   5.859 -2.1680 -1.0939 -0.7580
  216MOL0     H29114   6.233   3.598   5.709  2.0817  0.0279 -1.2690
  216MOL0     H29115   6.179   3.509   5.863 -3.0392 -1.0642 -2.0577
  216MOL0     H29116   6.154   3.318   5.783 -1.8498 -2.1569 -1.7911
  216MOL0     H29117   6.251   3.323   5.636 -0.6988 -0.6000 -1.0647
  216MOL0     H29118   6.080   3.503   5.537 -5.6281  0.6690 -1.7503
  216MOL0     H29119   5.976   3.452   5.662 -0.5833  0.5509  0.0834
  216MOL0     H29120   5.881   3.119   5.436  3.2616  0.6320  2.6074
  216MOL0     H29121   5.682   3.055   5.249  1.2790  0.5306  0.3324
  216MOL0     H29122   5.672   3.012   5.428 -2.0281 -2.1720 -1.0519
  216MOL0     H29123   5.540   3.096   5.351 -0.3104 -0.2129  0.8078
  216MOL0     H29124   5.370   3.509   5.114 -1.5314  0.6212 -2.7893
  216MOL0     H29125   5.146   3.540   5.013  0.2724  0.9731 -0.6779
  216MOL0     H29126   4.772   3.470   5.277 -2.4286  1.1468  0.8906
  216MOL0     H29127   4.775   3.636   5.284 -1.9512 -2.1462  1.2923
  216MOL0     H29128   4.679   3.477   5.046  2.4989  0.2070 -1.4075
  216MOL0     H29129   4.581   3.575   5.152  0.2803  1.0169  1.1417
  216MOL0     H29130   4.649   3.664   4.917  0.7659  1.5011 -1.6202
  216MOL0     H29131   4.810   3.676   4.966  0.8951 -1.5328  0.9970
  216MOL0     H29132   4.564   3.816   5.074  0.3189 -0.3727  1.4412
  216MOL0     H29133   4.721   3.822   5.163 -0.5989 -0.1054  0.0753
  216MOL0     H29134   4.681   4.012   5.015 -0.6111  0.8210  0.3589
  216MOL0     H29135   4.666   3.901   4.880  0.5553 -5.0672  1.1617
  216MOL0     H29136   4.890   3.854   4.863 -0.6144  0.0056  0.3452
  216MOL0     H29137   4.911   4.025   4.897  0.3730 -0.2515 -3.0164
  216MOL0     H29138   4.992   3.800   5.080 -1.4791 -0.2292 -0.6185
  216MOL0     H29139   4.891   3.933   5.150 -2.2418  0.0708 -1.9251
  216MOL0     H29140   5.152   3.958   4.981 -0.5337  1.4522 -0.9496
  216MOL0     H29141   5.155   3.956   5.155  2.4406  2.8261 -1.2757
  216MOL0     H29142   4.974   3.562   5.407 -0.0844 -1.0491  0.1436
  216MOL0     H29143   5.213   3.535   5.503 -2.0767 -1.7748 -0.1053
  216MOL0     H29144   5.668   3.566   5.377  1.7709  1.5309  2.3224
  216MOL0     H29145   5.895   3.544   5.442 -3.5576  2.9197 -2.0207
  216MOL0     H29146   6.891   4.145   5.074 -0.7445 -1.4087  2.3318
  216MOL0     H29147   7.069   4.229   4.939 -1.6888 -0.0671 -1.3961
  216MOL0     H29148   7.482   4.158   4.755  0.6693 -0.2471 -3.3706
  216MOL0     H29149   7.714   4.168   4.665  0.7212 -0.7450  0.2983
  216MOL0     H29150   7.997   4.485   4.805 -0.9295 -2.1638  0.6853
  216MOL0     H29151   8.071   4.447   4.659 -0.2276 -0.2029 -0.5888
  216MOL0     H29152   7.805   4.597   4.627  0.7222 -1.1309 -0.5534
  216MOL0     H29153   7.943   4.586   4.526 -3.3384  2.4234 -1.0325
  216MOL0     H29154   8.057   4.746   4.625 -1.1597  0.4358 -0.4236
  216MOL0     H29155   7.957   4.738   4.780  0.9341 -1.6469  0.6312
  216MOL0     H29156   7.765   4.809   4.668  0.3488 -3.8548 -0.4864
  216MOL0     H29157   7.854   4.838   4.521 -3.0668 -1.5057  0.4590
  216MOL0     H29158   7.906   5.206   4.683  1.0685 -1.0733 -2.4917
  216MOL0     H29159   7.787   4.522   4.870  1.4050 -0.4397 -1.1679
  216MOL0     H29160   7.543   4.514   4.979 -1.4382 -0.8723  0.1603
  217MOL0     O29161   9.445   9.635   0.561 -0.6629  0.2142 -0.3982
  217MOL0     C29162   9.552   9.678   0.523 -0.4357 -0.3883 -0.0296
  217MOL0     O29163   9.662   9.594   0.497  0.6154 -0.3837 -0.6415
  217MOL0     C29164   9.654   9.463   0.527  0.1903  0.3892  0.4999
  217MOL0     C29165   9.674   9.372   0.426  0.6034 -0.3039  0.4975
  217MOL0     C29166   9.655   9.235   0.449 -0.6973 -0.1302  1.0460
  217MOL0     C29167   9.620   9.190   0.583 -0.0067  1.1770  0.3022
  217MOL0     O29168   9.609   9.058   0.631 -0.5936 -0.4076  0.2994
  217MOL0     C29169   9.539   8.958   0.553  0.7015 -0.2855 -0.1668
  217MOL0     C29170   9.587   8.825   0.609  0.3439  0.3940  0.1300
  217MOL0     C29171   9.495   8.718   0.547 -0.2177 -0.8829 -0.1059
  217MOL0     C29172   9.368   8.690   0.621  0.3563 -1.1386 -0.0500
  217MOL0     C29173   9.280   8.588   0.550 -1.0491  0.3026  0.1009
  217MOL0     C29174   9.153   8.559   0.627 -0.8112 -0.3588 -0.5002
  217MOL0     C29175   9.074   8.466   0.544  1.0620  0.4061 -0.1827
  217MOL0     C29176   8.927   8.443   0.582 -0.1671 -0.1682  0.2113
  217MOL0     N29177   8.861   8.560   0.635  0.8034 -0.5321  0.2071
  217MOL0     C29178   8.836   8.594   0.769  0.5926 -0.3137  0.2167
  217MOL0     C29179   8.748   8.693   0.770 -0.4020 -0.2466  0.3911
  217MOL0     C29180   8.693   8.765   0.888  0.2928  0.9123  0.6821
  217MOL0     C29181   8.764   8.894   0.931  0.5147 -0.3331 -1.4630
  217MOL0     C29182   8.916   8.884   0.955  0.1349 -0.0417  0.8371
  217MOL0     C29183   8.976   9.002   1.029  0.0367 -0.5768 -0.5660
  217MOL0     O29184   8.973   8.980   1.177 -0.4846  0.2947  0.2934
  217MOL0     C29185   9.094   8.928   1.225  1.1757 -1.3711 -0.2344
  217MOL0     C29186   9.177   8.839   1.174  1.1510  0.3772  0.9114
  217MOL0     C29187   9.276   8.780   1.258 -1.2546 -1.3069 -0.0202
  217MOL0     C29188   9.355   8.654   1.215 -0.0373  0.1245 -0.6619
  217MOL0     C29189   9.308   8.840   1.383 -1.1333  0.5909  1.0306
  217MOL0     C29190   9.426   8.798   1.471 -0.4200  0.7519 -0.2407
  217MOL0     O29191   9.435   8.659   1.504 -0.4459  0.4646 -0.2815
  217MOL0     C29192   9.549   8.612   1.561  0.2447 -1.1825  0.8335
  217MOL0     C29193   9.595   8.655   1.692  1.3194 -1.3400 -0.7183
  217MOL0     C29194   9.698   8.583   1.754  0.6589 -0.5703 -0.4404
  217MOL0     C29195   9.760   8.477   1.688 -0.2610  0.9258  0.0157
  217MOL0     O29196   9.867   8.415   1.749 -0.6181  0.0311 -0.6022
  217MOL0     C29197   9.877   8.270   1.738 -0.2710 -1.0107  0.9367
  217MOL0     C29198   9.969   8.212   1.851 -0.0776 -0.1881  0.3332
  217MOL0     C29199   9.959   8.060   1.865 -0.2377 -0.2387 -0.0071
  217MOL0     C29200  10.047   8.022   1.985  0.4103 -0.3989  0.6085
  217MOL0     C29201  10.059   7.864   1.985  1.8102 -0.1241  0.1284
  217MOL0     C29202  10.104   7.821   2.125 -0.1878  0.3518 -0.7888
  217MOL0     C29203  10.075   7.674   2.159  0.4591 -1.5753  0.5527
  217MOL0     C29204  10.166   7.577   2.083  0.4549  0.4807 -0.4620
  217MOL0    Cl29205  10.320   7.553   2.168 -0.0295  0.1031 -0.1156
  217MOL0     C29206   9.709   8.438   1.564  0.7377 -1.0137  0.0744
  217MOL0     C29207   9.602   8.496   1.503  0.5745 -0.4846 -0.4902
  217MOL0     O29208   9.513   8.883   1.510  0.0247  0.0917 -0.0218
  217MOL0     C29209   9.220   8.933   1.433 -0.1757  0.2218 -0.7128
  217MOL0     C29210   9.114   8.969   1.360 -0.6213 -0.0530  0.4185
  217MOL0     N29211   8.710   8.717   0.642 -0.2575  0.1356  0.0301
  217MOL0     N29212   8.783   8.645   0.566  0.3890  0.1864 -0.7304
  217MOL0     C29213   9.609   9.286   0.684  0.3843 -0.1236 -0.7535
  217MOL0     C29214   9.628   9.419   0.653  1.1133  0.5487 -0.8474
  217MOL0     C29215   9.574   9.818   0.475  0.0353 -0.1730 -0.4365
  217MOL0     C29216   9.466   9.910   0.471 -0.8964  0.2644  0.2608
  217MOL0     C29217   9.481  10.038   0.437  0.5135 -0.4524 -0.0003
  217MOL0     C29218   9.610  10.098   0.410  0.1806  0.0420 -0.9209
  217MOL0     O29219   9.632  10.227   0.393 -0.1998 -0.5351 -0.4178
  217MOL0     C29220   9.515  10.309   0.377 -0.2915  0.0038 -0.3387
  217MOL0     C29221   9.553  10.446   0.326 -0.7309  0.8181 -0.4657
  217MOL0     C29222   9.644  10.445   0.206 -0.8363  0.9174  0.2166
  217MOL0     C29223   9.581  10.428   0.066 -0.3539  0.4068  1.2463
  217MOL0     C29224   9.642  10.513  -0.034 -0.0324 -1.5027  0.6996
  217MOL0     C29225   9.688  10.579  -0.122 -0.8400 -0.7793 -0.2593
  217MOL0     C29226   9.718  10.016   0.424 -0.3281 -0.6223 -0.4860
  217MOL0     C29227   9.700   9.875   0.457  0.2646  0.4065 -0.3590
  217MOL0     H29228   9.711   9.411   0.332  2.4495 -1.3823  0.7281
  217MOL0     H29229   9.682   9.160   0.375  2.9481 -0.4065  2.4548
  217MOL0     H29230   9.432   8.979   0.557  1.2552  2.7302  0.9642
  217MOL0     H29231   9.572   8.961   0.449  5.9190  0.1130  1.2110
  217MOL0     H29232   9.690   8.812   0.573  0.4945 -0.0855  0.7101
  217MOL0     H29233   9.592   8.829   0.718 -3.9480  1.3145  0.4291
  217MOL0     H29234   9.473   8.747   0.444 -0.8582  0.3446  0.3587
  217MOL0     H29235   9.548   8.622   0.548 -2.0901 -2.0339 -2.2364
  217MOL0     H29236   9.391   8.660   0.724  1.1811 -2.6181 -0.6234
  217MOL0     H29237   9.321   8.786   0.642 -2.0540 -2.1138 -0.6085
  217MOL0     H29238   9.253   8.627   0.452 -0.6522  0.0032 -0.1281
  217MOL0     H29239   9.338   8.495   0.553  3.6685  2.9388 -0.7013
  217MOL0     H29240   9.176   8.514   0.724  0.2369  2.2628  0.5464
  217MOL0     H29241   9.101   8.650   0.657  0.0311 -1.1204  3.9252
  217MOL0     H29242   9.069   8.514   0.446 -3.3724 -0.6170 -0.6621
  217MOL0     H29243   9.108   8.363   0.533 -2.0361 -0.4545 -3.2075
  217MOL0     H29244   8.915   8.369   0.662  0.0199  2.0612  2.4486
  217MOL0     H29245   8.862   8.411   0.501 -0.1661  1.1673 -0.3499
  217MOL0     H29246   8.886   8.552   0.857  0.8509  0.7789  0.6055
  217MOL0     H29247   8.590   8.782   0.855  0.8154 -0.4140 -1.9277
  217MOL0     H29248   8.681   8.690   0.967 -0.8962  0.4534  0.0873
  217MOL0     H29249   8.709   8.915   1.023 -4.1960 -1.0482 -3.8359
  217MOL0     H29250   8.744   8.975   0.860  1.0238  0.9892 -0.1682
  217MOL0     H29251   8.956   8.879   0.854 -2.1083 -5.1823 -0.1160
  217MOL0     H29252   8.935   8.788   1.004 -1.0011 -0.6774  0.0723
  217MOL0     H29253   8.932   9.101   1.017  3.8845  1.9294  3.0286
  217MOL0     H29254   9.075   9.010   0.982  0.5512  1.0714  0.7086
  217MOL0     H29255   9.165   8.791   1.077  1.4924  0.8471  0.6293
  217MOL0     H29256   9.351   8.586   1.300 -1.5536  3.4964  2.2068
  217MOL0     H29257   9.313   8.614   1.122 -0.6675 -0.5561 -0.0983
  217MOL0     H29258   9.457   8.686   1.192  0.5091 -0.1827  1.2339
  217MOL0     H29259   9.537   8.725   1.751  0.1288  0.2674 -3.5706
  217MOL0     H29260   9.718   8.602   1.858 -1.1867 -2.1109  0.2645
  217MOL0     H29261   9.774   8.232   1.733 -0.1594 -1.1611 -0.7766
  217MOL0     H29262   9.928   8.235   1.648  1.7339 -2.5462  2.5583
  217MOL0     H29263  10.068   8.240   1.815 -0.9775  0.6949 -1.6361
  217MOL0     H29264   9.939   8.263   1.943  2.3517  0.1193  1.0167
  217MOL0     H29265   9.999   8.018   1.773 -0.5514 -1.6917  0.4859
  217MOL0     H29266   9.857   8.024   1.875 -0.1340 -0.5225  0.0527
  217MOL0     H29267  10.147   8.066   1.980 -0.0874  0.7369  0.0704
  217MOL0     H29268  10.005   8.076   2.071 -0.0108 -1.0431  0.8147
  217MOL0     H29269  10.128   7.822   1.912  2.0848 -1.2302  0.9910
  217MOL0     H29270   9.961   7.820   1.964  1.1408  1.5381 -0.3828
  217MOL0     H29271  10.210   7.847   2.134 -0.0928 -0.6460  1.7440
  217MOL0     H29272  10.054   7.875   2.206  1.0991  0.5900 -0.1163
  217MOL0     H29273   9.969   7.655   2.137 -0.0001  3.6873 -4.4623
  217MOL0     H29274  10.090   7.675   2.268 -2.5883 -1.1199  1.0698
  217MOL0     H29275  10.172   7.620   1.983  2.1940  3.8551  0.9300
  217MOL0     H29276  10.110   7.483   2.073  1.4482 -0.2467  0.5508
  217MOL0     H29277   9.746   8.347   1.517  0.2749  0.3505 -3.2178
  217MOL0     H29278   9.543   8.453   1.423 -3.8796  0.2671  2.0365
  217MOL0     H29279   9.242   8.968   1.533 -2.3619  1.0715 -0.4847
  217MOL0     H29280   9.038   9.039   1.393 -0.1961 -0.4179  2.3268
  217MOL0     H29281   9.591   9.258   0.788  0.9938  0.2360 -0.5472
  217MOL0     H29282   9.619   9.501   0.724  0.2800 -0.9233  0.8541
  217MOL0     H29283   9.364   9.876   0.485 -1.3975  0.9029 -1.5177
  217MOL0     H29284   9.393  10.101   0.426 -0.2945 -0.9460  2.7790
  217MOL0     H29285   9.447  10.263   0.306  1.8457  0.0275 -2.5337
  217MOL0     H29286   9.473  10.327   0.476 -0.3967 -0.7305 -0.2457
  217MOL0     H29287   9.624  10.487   0.398  3.5808 -0.7466 -3.4074
  217MOL0     H29288   9.467  10.510   0.303 -1.2416 -0.3932 -2.2051
  217MOL0     H29289   9.726  10.376   0.228 -0.3185  1.7914  1.1346
  217MOL0     H29290   9.692  10.543   0.210 -0.3051  0.6401  2.1378
  217MOL0     H29291   9.477  10.457   0.078 -1.4006 -1.6451 -1.7798
  217MOL0     H29292   9.588  10.327   0.025  2.2806  1.3751 -1.0658
  217MOL0     H29293   9.714  10.639  -0.207  2.2560 -3.5657 -1.4755
  217MOL0     H29294   9.819  10.057   0.416  0.1304 -1.9662 -2.2185
  217MOL0     H29295   9.791   9.818   0.441 -1.1973 -1.4808 -2.5092
  218MOL0     O29296   9.371   8.627   6.837  0.4622  0.3875  0.2783
  218MOL0     C29297   9.487   8.638   6.876 -0.3303  0.4666 -0.6483
  218MOL0     O29298   9.543   8.581   6.995  0.4026 -0.2235  0.2652
  218MOL0     C29299   9.469   8.492   7.068 -0.7582  0.1805 -0.1285
  218MOL0     C29300   9.370   8.533   7.149  1.4698 -0.4804 -0.0391
  218MOL0     C29301   9.295   8.440   7.226  0.2366  0.1377  0.0805
  218MOL0     C29302   9.323   8.307   7.230 -0.7863 -0.7843  0.6390
  218MOL0     O29303   9.238   8.236   7.305 -0.5239  0.4486  0.4081
  218MOL0     C29304   9.275   8.102   7.320  0.9743 -0.6531 -0.0153
  218MOL0     C29305   9.246   7.998   7.215 -0.0724  0.3407 -0.6480
  218MOL0     C29306   9.269   7.849   7.254  1.0702  0.3139 -0.4234
  218MOL0     C29307   9.400   7.825   7.329  1.0965  0.2128  0.7757
  218MOL0     C29308   9.515   7.847   7.231  0.4629  0.7514 -0.4046
  218MOL0     C29309   9.635   7.764   7.294  0.5150 -0.1873  1.1622
  218MOL0     C29310   9.755   7.774   7.193  0.1582  0.1290 -0.0277
  218MOL0     C29311   9.865   7.677   7.241  0.2308 -0.3609 -0.6439
  218MOL0     N29312   9.975   7.672   7.153  0.6643  0.8607  0.6245
  218MOL0     C29313   9.961   7.638   7.021 -0.2816  0.8070  0.2842
  218MOL0     C29314  10.085   7.615   6.976 -0.4097  0.9543  0.3762
  218MOL0     C29315  10.117   7.545   6.848 -0.4249 -0.4076 -0.9060
  218MOL0     C29316  10.173   7.412   6.857 -0.4567  0.9873  0.7183
  218MOL0     C29317  10.092   7.296   6.917 -0.3497  0.3401 -0.1091
  218MOL0     C29318  10.113   7.149   6.869 -0.1449 -1.3992  0.1011
  218MOL0     O29319  10.038   7.133   6.751 -0.4246 -0.0755 -0.6740
  218MOL0     C29320  10.023   7.000   6.717  0.0017 -0.6754  0.4700
  218MOL0     C29321  10.117   6.896   6.721  0.5929  0.5820 -0.1220
  218MOL0     C29322  10.076   6.765   6.673  0.8745 -0.5793 -0.4770
  218MOL0     C29323  10.189   6.676   6.669 -0.8105  0.3044  0.7512
  218MOL0     C29324   9.944   6.736   6.628 -0.0469 -0.1139 -1.1748
  218MOL0     C29325   9.900   6.603   6.587 -0.5079 -0.0187 -0.5829
  218MOL0     O29326   9.790   6.604   6.501 -0.2698  0.5231 -0.4022
  218MOL0     C29327   9.829   6.590   6.368  1.5443 -0.2842 -0.3737
  218MOL0     C29328   9.724   6.603   6.277 -0.0999 -0.6335  0.0901
  218MOL0     C29329   9.742   6.584   6.134 -0.3945 -1.5965  0.5433
  218MOL0     C29330   9.871   6.567   6.083 -0.2126 -0.6156  0.2391
  218MOL0     O29331   9.884   6.576   5.944 -0.2944 -0.5636 -1.0559
  218MOL0     C29332   9.793   6.496   5.856  0.5228  0.1289  0.5759
  218MOL0     C29333   9.730   6.583   5.736  0.3633  0.6330 -0.6543
  218MOL0     C29334   9.659   6.708   5.798  0.3373  0.2429  0.1500
  218MOL0     C29335   9.606   6.809   5.692 -0.4511  0.4728  0.3420
  218MOL0     C29336   9.719   6.890   5.629 -0.5613  0.1979  0.3179
  218MOL0     C29337   9.661   6.981   5.523 -0.9694  0.3029  0.5295
  218MOL0     C29338   9.767   7.001   5.416 -0.3210 -0.6447  0.7427
  218MOL0     C29339   9.746   7.110   5.307 -0.1437 -0.2208 -0.0671
  218MOL0    Cl29340   9.887   7.099   5.187  0.5331  0.0048  0.4136
  218MOL0     C29341   9.979   6.582   6.171  0.1736  0.7656  0.1567
  218MOL0     C29342   9.957   6.585   6.310 -0.1163  0.9224 -0.3473
  218MOL0     O29343   9.960   6.500   6.623 -0.7480 -1.0049 -0.4408
  218MOL0     C29344   9.853   6.839   6.621 -1.1092  0.2911  0.1094
  218MOL0     C29345   9.898   6.971   6.662  0.3425  1.1457  0.5816
  218MOL0     N29346  10.183   7.629   7.083 -0.0461 -0.0868  0.2973
  218MOL0     N29347  10.105   7.665   7.181 -0.0782  0.2913  0.0139
  218MOL0     C29348   9.425   8.260   7.153 -0.0260  0.1375  0.0913
  218MOL0     C29349   9.487   8.350   7.060  0.0591 -0.3509 -0.2441
  218MOL0     C29350   9.580   8.713   6.792  1.2383 -0.3004  0.8560
  218MOL0     C29351   9.713   8.756   6.835 -0.3072 -0.1988  0.0932
  218MOL0     C29352   9.797   8.841   6.754  0.1524 -0.3330  0.1285
  218MOL0     C29353   9.737   8.902   6.636 -0.2426 -0.4633 -1.1467
  218MOL0     O29354   9.814   8.984   6.550  0.3442  0.4647 -0.7411
  218MOL0     C29355   9.847   8.929   6.423 -0.4371  0.4978  0.4224
  218MOL0     C29356   9.880   9.035   6.320  0.0680 -0.1678  0.1961
  218MOL0     C29357   9.756   9.132   6.300  0.0579 -0.5039  0.7105
  218MOL0     C29358   9.814   9.259   6.232 -1.1626  0.3858  0.7039
  218MOL0     C29359   9.705   9.346   6.174 -1.0469  0.2125  0.1230
  218MOL0     C29360   9.625   9.426   6.120 -0.4413  0.4148 -0.4988
  218MOL0     C29361   9.617   8.861   6.596 -0.3023  0.5965 -0.2004
  218MOL0     C29362   9.537   8.770   6.664 -0.2908  0.4574  0.5232
  218MOL0     H29363   9.347   8.636   7.173  0.9839 -0.7363  0.6437
  218MOL0     H29364   9.221   8.467   7.300  2.1236  0.4918  1.9197
  218MOL0     H29365   9.375   8.100   7.364  0.4398  1.2358  1.4314
  218MOL0     H29366   9.208   8.070   7.401  0.1796 -0.1249 -0.4490
  218MOL0     H29367   9.141   8.011   7.186 -0.2169 -1.9353 -1.3486
  218MOL0     H29368   9.305   8.024   7.126  0.4607 -1.6158 -0.9090
  218MOL0     H29369   9.181   7.820   7.313 -0.6684  3.6382 -1.0946
  218MOL0     H29370   9.273   7.804   7.155  1.2175  2.5720 -1.5022
  218MOL0     H29371   9.416   7.887   7.418  0.1794  0.6631  0.6377
  218MOL0     H29372   9.399   7.720   7.358 -3.4199 -0.4917 -1.0713
  218MOL0     H29373   9.491   7.806   7.133 -2.6556  1.5125 -0.0692
  218MOL0     H29374   9.538   7.953   7.217 -1.2978  1.2536  0.2737
  218MOL0     H29375   9.676   7.803   7.388  0.5683 -0.1780  1.1352
  218MOL0     H29376   9.603   7.661   7.307 -3.4231  0.7660  0.3423
  218MOL0     H29377   9.707   7.748   7.099  0.6444 -0.4711 -0.1173
  218MOL0     H29378   9.802   7.873   7.189 -2.7159  1.6694 -5.9115
  218MOL0     H29379   9.834   7.572   7.247  1.4148 -0.7312 -0.6145
  218MOL0     H29380   9.896   7.707   7.342  1.9353 -0.9070 -0.9728
  218MOL0     H29381   9.866   7.607   6.979  1.3844 -2.8499 -1.2890
  218MOL0     H29382  10.031   7.557   6.781  0.8340 -1.2281 -2.7368
  218MOL0     H29383  10.197   7.603   6.801 -1.0449  0.3150 -1.0986
  218MOL0     H29384  10.268   7.427   6.911  0.3483  5.0975 -1.4095
  218MOL0     H29385  10.199   7.385   6.755 -0.2591  3.9553 -0.1203
  218MOL0     H29386   9.984   7.307   6.901 -0.1391 -0.4836 -2.4879
  218MOL0     H29387  10.111   7.292   7.024  0.7739  1.6647 -0.2283
  218MOL0     H29388  10.086   7.083   6.952  0.4231 -1.3077  0.3608
  218MOL0     H29389  10.217   7.120   6.853  0.2884 -0.6926  1.4495
  218MOL0     H29390  10.221   6.907   6.752  0.5177 -0.7546  0.6832
  218MOL0     H29391  10.223   6.665   6.565 -2.9001  2.1782 -0.2164
  218MOL0     H29392  10.279   6.716   6.716  2.1471 -2.7902 -1.7095
  218MOL0     H29393  10.165   6.579   6.712 -0.0415 -0.9549 -1.4791
  218MOL0     H29394   9.625   6.638   6.305  0.2738  0.5788 -0.0194
  218MOL0     H29395   9.664   6.601   6.061 -1.6390 -1.2089  1.9217
  218MOL0     H29396   9.856   6.424   5.804 -2.5565 -1.7151 -0.8935
  218MOL0     H29397   9.709   6.450   5.910 -1.2596  0.6720 -1.6224
  218MOL0     H29398   9.801   6.592   5.653  2.1940 -1.8986  0.4662
  218MOL0     H29399   9.660   6.516   5.685  0.8143 -0.5232  0.1847
  218MOL0     H29400   9.736   6.760   5.857  2.4259 -0.8095 -1.4871
  218MOL0     H29401   9.568   6.681   5.852 -1.5274  2.9032 -1.4580
  218MOL0     H29402   9.545   6.746   5.626 -2.5258 -0.0580  2.5921
  218MOL0     H29403   9.537   6.876   5.743 -0.4774  0.1213  0.7805
  218MOL0     H29404   9.785   6.813   5.588 -1.0374 -1.2047  2.0662
  218MOL0     H29405   9.773   6.945   5.706 -0.6193  1.7885 -0.7239
  218MOL0     H29406   9.574   6.933   5.477  0.6238 -0.9098 -1.4134
  218MOL0     H29407   9.640   7.076   5.572  1.7353  0.7766  0.8873
  218MOL0     H29408   9.757   6.903   5.369 -2.7437  0.2554 -0.7920
  218MOL0     H29409   9.864   7.006   5.467  1.0717 -3.1523 -1.4471
  218MOL0     H29410   9.752   7.213   5.344 -0.5503 -0.6398  1.2198
  218MOL0     H29411   9.647   7.099   5.262 -1.6831  3.9968  1.7865
  218MOL0     H29412  10.081   6.575   6.133  0.9100  0.2123  2.0944
  218MOL0     H29413  10.046   6.584   6.372  0.5485 -1.1067 -1.2668
  218MOL0     H29414   9.755   6.829   6.577 -0.3243 -0.8681 -1.4581
  218MOL0     H29415   9.819   7.042   6.639 -1.1905 -0.1963  1.5120
  218MOL0     H29416   9.455   8.156   7.153  1.9584  0.6831 -0.1372
  218MOL0     H29417   9.567   8.321   6.993  0.9467 -1.0623  1.0750
  218MOL0     H29418   9.753   8.713   6.927 -0.6092 -1.0373 -0.1528
  218MOL0     H29419   9.898   8.871   6.779 -0.4123 -0.0964  2.3164
  218MOL0     H29420   9.934   8.867   6.447 -0.6504 -0.1958 -0.5737
  218MOL0     H29421   9.765   8.864   6.393  1.0321 -2.0459  1.5998
  218MOL0     H29422   9.912   8.993   6.224  0.3866 -0.9336  0.6342
  218MOL0     H29423   9.968   9.091   6.355  0.7490  0.3345 -2.1503
  218MOL0     H29424   9.718   9.152   6.400 -4.8190  2.6195 -1.3992
  218MOL0     H29425   9.672   9.078   6.256 -0.1990 -1.7257  2.5745
  218MOL0     H29426   9.894   9.244   6.159  0.0415  0.8603  1.8877
  218MOL0     H29427   9.869   9.316   6.307  3.1228 -1.7611 -0.4829
  218MOL0     H29428   9.562   9.499   6.074  0.0618 -0.1201 -2.1109
  218MOL0     H29429   9.597   8.910   6.502  2.7393 -2.7601 -2.9182
  218MOL0     H29430   9.441   8.747   6.620 -0.3415  0.3305  0.6982
  219MOL0     O29431   4.224   9.635   2.382 -0.2394  0.0009  0.5279
  219MOL0     C29432   4.154   9.550   2.446  0.4091  0.0791  1.2407
  219MOL0     O29433   4.210   9.455   2.538  1.4155 -0.1248  0.1838
  219MOL0     C29434   4.351   9.458   2.542  0.1037 -0.5379  0.3408
  219MOL0     C29435   4.418   9.366   2.467  0.3096 -0.5964 -0.2054
  219MOL0     C29436   4.560   9.361   2.459  0.4000 -0.2215 -0.3945
  219MOL0     C29437   4.636   9.455   2.535  1.2204  0.4568  0.8139
  219MOL0     O29438   4.774   9.463   2.540 -0.3589 -0.1679 -0.3487
  219MOL0     C29439   4.848   9.417   2.425  0.1095 -0.5807 -0.9956
  219MOL0     C29440   4.833   9.517   2.304 -0.0703  0.3945 -0.1048
  219MOL0     C29441   4.913   9.646   2.347 -0.7661  0.6623 -0.5944
  219MOL0     C29442   4.945   9.745   2.227  0.3548  0.9515  0.5841
  219MOL0     C29443   4.987   9.884   2.258  0.0598  0.4932 -0.8607
  219MOL0     C29444   5.128   9.889   2.316  0.2790 -0.2917 -0.3428
  219MOL0     C29445   5.229   9.979   2.243  0.0811 -0.4942 -0.5387
  219MOL0     C29446   5.217  10.128   2.280 -0.4354 -0.8148  0.1407
  219MOL0     N29447   5.314  10.209   2.199 -0.2112  0.5448 -0.1985
  219MOL0     C29448   5.321  10.347   2.209  0.3233 -0.2006  0.0751
  219MOL0     C29449   5.438  10.372   2.147  0.2323 -0.3152 -0.1825
  219MOL0     C29450   5.490  10.512   2.121  0.1467  1.0142 -0.7607
  219MOL0     C29451   5.566  10.565   2.241 -1.0876 -1.5054 -0.0708
  219MOL0     C29452   5.615  10.706   2.224 -0.3723 -0.4954  0.4165
  219MOL0     C29453   5.663  10.762   2.359  0.7741  0.1041  0.2936
  219MOL0     O29454   5.555  10.756   2.449 -0.3157  0.6046 -0.5877
  219MOL0     C29455   5.577  10.800   2.579 -1.0162  0.3986  0.1886
  219MOL0     C29456   5.480  10.785   2.673 -0.5402 -0.4892  1.1403
  219MOL0     C29457   5.503  10.808   2.809  0.0310 -0.0779  0.0103
  219MOL0     C29458   5.405  10.755   2.910 -0.2146 -0.8734  1.2806
  219MOL0     C29459   5.626  10.871   2.860  0.3999  0.2416 -0.8410
  219MOL0     C29460   5.660  10.899   2.998  1.0271 -0.7289 -0.2630
  219MOL0     O29461   5.789  10.944   3.011 -0.6768 -0.0212  0.1317
  219MOL0     C29462   5.862  10.966   3.120  1.2410  0.5141  0.0996
  219MOL0     C29463   5.999  10.983   3.112  1.0379 -0.4893  1.0156
  219MOL0     C29464   6.087  11.001   3.213 -1.2714  1.6398  0.6160
  219MOL0     C29465   6.032  11.003   3.342  0.5076  0.2016  0.0183
  219MOL0     O29466   6.117  11.014   3.455  0.5337 -0.5375  0.5853
  219MOL0     C29467   6.113  10.887   3.532 -0.7895 -0.3962  0.2228
  219MOL0     C29468   6.222  10.902   3.640  0.7948  0.1514 -1.3649
  219MOL0     C29469   6.191  11.038   3.716 -0.5007 -0.7687 -0.5895
  219MOL0     C29470   6.251  11.042   3.855 -0.4315  0.0093 -0.1535
  219MOL0     C29471   6.192  11.167   3.921  0.1006  0.7985 -0.6568
  219MOL0     C29472   6.261  11.195   4.051  0.4354  0.2678 -0.2948
  219MOL0     C29473   6.225  11.337   4.103 -0.1771 -0.3311  0.8617
  219MOL0     C29474   6.309  11.374   4.230 -1.2344  0.0886  0.0621
  219MOL0    Cl29475   6.487  11.358   4.196 -0.0676 -0.0799 -0.5157
  219MOL0     C29476   5.893  11.020   3.363  0.3095  0.0362 -0.6589
  219MOL0     C29477   5.804  10.994   3.246  0.4801  0.6066  0.0132
  219MOL0     O29478   5.588  10.864   3.091  0.7012  0.3278  0.4514
  219MOL0     C29479   5.729  10.890   2.759 -0.0725  0.6780  0.0394
  219MOL0     C29480   5.702  10.860   2.623 -0.9612 -0.0370  0.1842
  219MOL0     N29481   5.509  10.264   2.113 -0.3043  0.1131 -0.1326
  219MOL0     N29482   5.426  10.166   2.140 -0.3112 -0.2833  0.2654
  219MOL0     C29483   4.568   9.538   2.612  0.1647 -0.1120 -0.7748
  219MOL0     C29484   4.435   9.545   2.608 -0.6575 -0.4013 -0.7695
  219MOL0     C29485   4.006   9.568   2.441  0.5653 -0.0427  0.4464
  219MOL0     C29486   3.944   9.611   2.324 -0.3973 -0.2575 -0.0085
  219MOL0     C29487   3.802   9.605   2.315  0.3568 -0.3873  0.8508
  219MOL0     C29488   3.716   9.579   2.421  0.3726  0.2819  0.6874
  219MOL0     O29489   3.576   9.572   2.418  0.0281  0.7698  0.0105
  219MOL0     C29490   3.517   9.505   2.310 -0.0038  0.3404  0.3289
  219MOL0     C29491   3.371   9.492   2.346 -0.4362 -0.3540  0.3214
  219MOL0     C29492   3.281   9.452   2.227  0.4442 -0.8470  0.1628
  219MOL0     C29493   3.165   9.370   2.286  0.0928 -0.4577 -0.4714
  219MOL0     C29494   3.196   9.232   2.333 -1.4687 -0.4063  0.3190
  219MOL0     C29495   3.227   9.122   2.363 -0.6595  0.3867  0.4637
  219MOL0     C29496   3.781   9.554   2.538 -0.4017  0.7197 -1.1123
  219MOL0     C29497   3.922   9.540   2.541 -0.5260 -0.3984  0.0295
  219MOL0     H29498   4.355   9.294   2.416 -1.8383  1.4655 -0.6547
  219MOL0     H29499   4.611   9.282   2.405  3.1643  1.9669 -1.2508
  219MOL0     H29500   4.955   9.410   2.448  0.1272  1.0990 -0.4549
  219MOL0     H29501   4.820   9.314   2.402  1.2679 -1.9626  2.9469
  219MOL0     H29502   4.874   9.467   2.215  0.1522  2.2057 -1.0702
  219MOL0     H29503   4.729   9.550   2.294  0.1956  1.0542 -0.8355
  219MOL0     H29504   4.864   9.690   2.434 -0.5504 -0.0976 -0.0830
  219MOL0     H29505   5.011   9.626   2.391  0.0839  3.4292 -1.0497
  219MOL0     H29506   5.010   9.700   2.151 -1.2578  2.5542 -1.9259
  219MOL0     H29507   4.854   9.757   2.167  2.1506  1.2440 -2.3020
  219MOL0     H29508   4.985   9.946   2.168  1.5662  0.0206 -1.2453
  219MOL0     H29509   4.911   9.930   2.323 -0.7751  1.3955 -2.4245
  219MOL0     H29510   5.127   9.922   2.420  1.0148  0.5515 -0.5859
  219MOL0     H29511   5.182   9.794   2.304  2.0261  0.7985 -1.4744
  219MOL0     H29512   5.329   9.949   2.276  1.0960  3.6265  0.8094
  219MOL0     H29513   5.233   9.967   2.135 -1.9581 -0.4087 -0.6583
  219MOL0     H29514   5.235  10.138   2.387 -0.8928 -0.4641  0.1871
  219MOL0     H29515   5.116  10.166   2.268  0.0315 -0.3491 -3.4625
  219MOL0     H29516   5.254  10.416   2.260  1.0014 -1.1134  2.2773
  219MOL0     H29517   5.547  10.509   2.028 -0.5776 -0.5933 -1.1885
  219MOL0     H29518   5.400  10.573   2.109 -0.2227  0.3756 -1.2737
  219MOL0     H29519   5.646  10.493   2.263 -1.2608 -1.9679 -0.9118
  219MOL0     H29520   5.503  10.541   2.327  0.5599 -1.7262  1.1200
  219MOL0     H29521   5.532  10.768   2.188  1.7887  0.9176 -2.6338
  219MOL0     H29522   5.696  10.706   2.150  1.2544 -3.0621  2.0309
  219MOL0     H29523   5.704  10.861   2.336 -0.7742  0.7025 -0.0044
  219MOL0     H29524   5.748  10.702   2.394 -0.5828 -0.9712  1.8825
  219MOL0     H29525   5.381  10.749   2.648 -0.0916 -0.4331 -0.9583
  219MOL0     H29526   5.463  10.673   2.954  2.8147  0.5782  0.2903
  219MOL0     H29527   5.367  10.827   2.983 -2.7227 -2.3679  1.5564
  219MOL0     H29528   5.322  10.701   2.863 -0.6586  2.3440 -2.0549
  219MOL0     H29529   6.027  10.968   3.008  0.3129  0.1827  0.7133
  219MOL0     H29530   6.194  11.014   3.202 -1.0934  1.3242  1.7724
  219MOL0     H29531   6.010  10.870   3.563 -2.2242  0.8457 -3.2682
  219MOL0     H29532   6.140  10.804   3.466  0.7222  0.8508 -0.8203
  219MOL0     H29533   6.204  10.826   3.717  0.5219  4.3633  3.2455
  219MOL0     H29534   6.322  10.884   3.598  0.1843  2.3732 -4.0867
  219MOL0     H29535   6.084  11.037   3.736 -0.3901 -3.4809  0.3605
  219MOL0     H29536   6.225  11.116   3.648  2.8756 -1.2464  0.3622
  219MOL0     H29537   6.214  10.953   3.906 -1.5533  1.6855  2.1506
  219MOL0     H29538   6.361  11.039   3.853 -0.3934  0.3604  0.9617
  219MOL0     H29539   6.086  11.146   3.935  0.2043 -0.9076 -2.1393
  219MOL0     H29540   6.197  11.259   3.863 -3.0919  2.2797  1.1494
  219MOL0     H29541   6.229  11.120   4.124  0.9577 -1.6415 -1.9335
  219MOL0     H29542   6.367  11.170   4.043  0.0790 -0.8832 -2.2241
  219MOL0     H29543   6.118  11.333   4.126 -0.1101  0.9301  1.5064
  219MOL0     H29544   6.248  11.413   4.029  1.0057 -0.6917  0.8379
  219MOL0     H29545   6.273  11.317   4.316  2.5526 -1.3312  0.8821
  219MOL0     H29546   6.290  11.480   4.248  0.2189 -0.0538  3.1457
  219MOL0     H29547   5.861  11.020   3.466 -3.4099 -2.4509 -1.6480
  219MOL0     H29548   5.696  10.990   3.257  0.2373  4.5195  0.3645
  219MOL0     H29549   5.824  10.935   2.786  1.8974 -2.3352 -1.3584
  219MOL0     H29550   5.796  10.873   2.570  0.0744 -2.5216  1.2025
  219MOL0     H29551   4.618   9.608   2.678  1.1455  1.5845 -3.1835
  219MOL0     H29552   4.384   9.626   2.660 -1.6583  0.0348 -2.3507
  219MOL0     H29553   4.010   9.639   2.243  0.1120 -0.6388  0.2640
  219MOL0     H29554   3.762   9.644   2.222  1.1806 -1.5514 -0.0198
  219MOL0     H29555   3.532   9.567   2.221 -1.7083  1.0420  0.4910
  219MOL0     H29556   3.561   9.405   2.304 -1.8706 -0.5933  1.4218
  219MOL0     H29557   3.325   9.580   2.391 -1.7925 -0.8979  0.0794
  219MOL0     H29558   3.350   9.426   2.431 -1.2800 -1.1736 -0.4812
  219MOL0     H29559   3.327   9.380   2.159  0.1258 -1.5778  0.7025
  219MOL0     H29560   3.249   9.542   2.175 -0.1259  0.2041  2.2046
  219MOL0     H29561   3.079   9.367   2.218  0.1476  0.2833 -0.5863
  219MOL0     H29562   3.130   9.428   2.372  0.1909 -1.2466  0.1074
  219MOL0     H29563   3.254   9.025   2.399  4.5435  1.8769  1.4388
  219MOL0     H29564   3.729   9.538   2.633  2.7520  0.8220  0.7849
  219MOL0     H29565   3.965   9.499   2.632 -1.7192 -0.5429  0.5528
  220MOL0     O29566   9.707   2.195   8.466  0.0475  0.5579  0.3166
  220MOL0     C29567   9.791   2.192   8.560 -0.3788 -0.0186  0.1067
  220MOL0     O29568   9.761   2.231   8.685 -0.4134 -1.0847 -0.0534
  220MOL0     C29569   9.662   2.321   8.708 -0.1208  0.2783  0.0594
  220MOL0     C29570   9.641   2.435   8.626  1.5110 -0.1377  0.2853
  220MOL0     C29571   9.519   2.496   8.637  1.0600 -0.1385 -0.4540
  220MOL0     C29572   9.436   2.468   8.743  0.5309  0.2135  0.0194
  220MOL0     O29573   9.314   2.538   8.750  0.2656 -0.0803  0.4989
  220MOL0     C29574   9.228   2.519   8.863 -0.8323  0.0312 -0.6873
  220MOL0     C29575   9.111   2.613   8.859 -1.4990 -1.0701 -0.4387
  220MOL0     C29576   9.163   2.755   8.893  0.9197  0.5293 -0.1623
  220MOL0     C29577   9.200   2.779   9.040 -0.1224  0.7767 -0.5904
  220MOL0     C29578   9.174   2.926   9.087  0.1487  0.7887 -0.3433
  220MOL0     C29579   9.228   3.042   9.000  0.0199  0.5563 -0.1388
  220MOL0     C29580   9.110   3.104   8.928  0.1098 -0.6861 -1.0590
  220MOL0     C29581   9.148   3.167   8.799  0.1093  0.6034 -0.6043
  220MOL0     N29582   9.046   3.244   8.727 -0.1008  1.3705  0.1572
  220MOL0     C29583   9.006   3.366   8.763 -0.4072 -0.0664  0.1576
  220MOL0     C29584   8.902   3.400   8.682  0.5768  0.6487  0.2354
  220MOL0     C29585   8.814   3.510   8.705  0.3929  0.0587  0.0543
  220MOL0     C29586   8.824   3.622   8.587 -0.4741  0.0967 -1.4166
  220MOL0     C29587   8.965   3.666   8.536 -0.3670 -0.9763 -0.2155
  220MOL0     C29588   8.965   3.741   8.401  0.4747  0.3195 -0.7803
  220MOL0     O29589   9.082   3.797   8.337  0.5577  0.3188 -0.4229
  220MOL0     C29590   9.137   3.914   8.391 -0.0343  0.5511 -0.4684
  220MOL0     C29591   9.085   3.994   8.492 -0.3870  0.3905  0.9262
  220MOL0     C29592   9.147   4.112   8.536 -0.1793 -0.2139  0.1181
  220MOL0     C29593   9.084   4.189   8.637  0.1867 -1.0523  0.1199
  220MOL0     C29594   9.266   4.153   8.466  0.7980 -1.2404 -1.2281
  220MOL0     C29595   9.333   4.283   8.500 -1.3586 -0.7542  0.8542
  220MOL0     O29596   9.408   4.317   8.388 -0.4593  0.1488 -0.2571
  220MOL0     C29597   9.486   4.425   8.412 -0.1375  0.0750  0.5417
  220MOL0     C29598   9.632   4.420   8.419  0.4493 -0.1572 -0.3273
  220MOL0     C29599   9.710   4.529   8.412 -0.8554  0.2181 -0.7113
  220MOL0     C29600   9.647   4.654   8.409  0.4350  0.0408  0.1417
  220MOL0     O29601   9.717   4.772   8.389 -0.2345  0.4632 -0.6253
  220MOL0     C29602   9.713   4.857   8.506  0.5853 -0.5355 -0.7888
  220MOL0     C29603   9.687   5.007   8.476  0.6731 -0.0677 -0.4635
  220MOL0     C29604   9.776   5.074   8.366 -0.0804 -0.3902 -0.1651
  220MOL0     C29605   9.696   5.202   8.311 -0.0048  0.9385  0.7666
  220MOL0     C29606   9.714   5.321   8.418  0.4462  1.8046  0.6329
  220MOL0     C29607   9.856   5.364   8.456  0.3934 -0.6274  1.2295
  220MOL0     C29608   9.936   5.405   8.329  0.6977 -0.5316 -0.2669
  220MOL0     C29609   9.894   5.544   8.272 -0.2125  1.4923 -0.1641
  220MOL0    Cl29610   9.978   5.671   8.359 -0.1042 -0.0825  0.3220
  220MOL0     C29611   9.507   4.661   8.410  1.3817  0.3477  0.3375
  220MOL0     C29612   9.421   4.550   8.412 -0.5160  0.0944  0.0997
  220MOL0     O29613   9.316   4.358   8.600 -0.6100  0.2434 -0.6111
  220MOL0     C29614   9.317   4.070   8.363  0.1719 -1.0900  0.4276
  220MOL0     C29615   9.254   3.944   8.324 -0.4708 -0.5297 -0.4448
  220MOL0     N29616   8.892   3.297   8.599 -0.0979  0.1732  1.1177
  220MOL0     N29617   8.971   3.197   8.617  0.3660 -1.1493 -1.6468
  220MOL0     C29618   9.461   2.363   8.835  0.3360 -0.1892  0.6318
  220MOL0     C29619   9.586   2.301   8.825 -0.5375  0.4199 -0.4043
  220MOL0     C29620   9.931   2.148   8.534  0.1223  0.7246  0.2491
  220MOL0     C29621  10.018   2.128   8.646  1.1272 -1.0928  0.1586
  220MOL0     C29622  10.148   2.077   8.636 -0.0020  0.5875 -0.1573
  220MOL0     C29623  10.199   2.061   8.504 -0.5150  1.2515 -0.5907
  220MOL0     O29624  10.325   2.020   8.486  0.5042  0.7162  0.0017
  220MOL0     C29625  10.356   1.920   8.387 -0.2684  0.2712  0.5353
  220MOL0     C29626  10.481   1.864   8.426 -0.2747  0.2490 -0.6780
  220MOL0     C29627  10.477   1.803   8.576  0.2021  0.5868 -0.2849
  220MOL0     C29628  10.610   1.750   8.610  0.4050  0.4293 -0.2764
  220MOL0     C29629  10.709   1.846   8.651  0.4549  0.0653 -0.6859
  220MOL0     C29630  10.793   1.926   8.682  0.8665 -1.5652 -0.0821
  220MOL0     C29631  10.113   2.085   8.394  0.2769 -0.2872 -0.1578
  220MOL0     C29632   9.977   2.126   8.411 -0.3718  0.0685  0.8355
  220MOL0     H29633   9.698   2.454   8.536 -0.1457  0.4139 -0.7040
  220MOL0     H29634   9.491   2.568   8.561  0.7081  0.9237  0.6480
  220MOL0     H29635   9.183   2.420   8.847  1.8043 -1.5192  0.9027
  220MOL0     H29636   9.279   2.517   8.959  0.4395 -2.9192 -1.3162
  220MOL0     H29637   9.062   2.613   8.761 -0.1395 -0.8333 -1.1454
  220MOL0     H29638   9.037   2.574   8.929  0.3047 -1.5818  1.2741
  220MOL0     H29639   9.245   2.787   8.827  0.8966  1.7562  0.3689
  220MOL0     H29640   9.079   2.821   8.869  0.2949  0.0893  0.7520
  220MOL0     H29641   9.149   2.713   9.110 -0.2368  1.8653  0.3960
  220MOL0     H29642   9.308   2.759   9.047 -0.5608 -1.3918  0.8803
  220MOL0     H29643   9.068   2.932   9.114 -0.4965 -0.3021 -2.4759
  220MOL0     H29644   9.222   2.921   9.185 -3.1514 -0.9633  1.3633
  220MOL0     H29645   9.282   3.109   9.068  1.8020 -0.4113 -0.5373
  220MOL0     H29646   9.311   3.010   8.936  0.9621 -1.7272  2.0711
  220MOL0     H29647   9.027   3.034   8.917 -2.3698  0.7478  4.8280
  220MOL0     H29648   9.062   3.184   8.985 -0.4334  0.7366 -3.3588
  220MOL0     H29649   9.186   3.078   8.748  3.2948  0.3481  1.9383
  220MOL0     H29650   9.224   3.243   8.818  0.0090  1.0459 -1.8761
  220MOL0     H29651   9.048   3.422   8.846  0.7397 -4.7455  3.0751
  220MOL0     H29652   8.713   3.474   8.722  1.9273 -6.1829 -1.5576
  220MOL0     H29653   8.839   3.562   8.798  2.7114 -0.9334  0.0537
  220MOL0     H29654   8.760   3.704   8.621  2.4097  0.6637  3.7262
  220MOL0     H29655   8.775   3.564   8.508 -4.1141 -0.1392  0.7871
  220MOL0     H29656   9.025   3.578   8.512  1.0975  0.0318 -0.3470
  220MOL0     H29657   9.000   3.727   8.620 -4.6140  0.5703  0.6954
  220MOL0     H29658   8.886   3.816   8.407  0.8485  0.6693 -0.0330
  220MOL0     H29659   8.917   3.670   8.333 -0.0011  2.2431 -2.5628
  220MOL0     H29660   9.006   3.945   8.548  1.3743 -2.6318  0.9796
  220MOL0     H29661   9.008   4.131   8.689 -2.9006  0.2120 -2.6215
  220MOL0     H29662   9.147   4.245   8.707 -1.7940 -0.1807  1.3036
  220MOL0     H29663   9.034   4.263   8.573  1.1961 -2.2031 -2.1165
  220MOL0     H29664   9.671   4.320   8.406 -0.7033 -0.5872 -0.6686
  220MOL0     H29665   9.816   4.520   8.393 -0.2402  0.7536  2.0548
  220MOL0     H29666   9.634   4.833   8.577  2.3725  0.2890  1.6083
  220MOL0     H29667   9.808   4.860   8.561  0.1030  2.4724  0.0753
  220MOL0     H29668   9.586   5.029   8.440  0.5220  2.6923  1.4270
  220MOL0     H29669   9.706   5.063   8.567 -0.4263  3.5840 -2.2985
  220MOL0     H29670   9.800   5.006   8.284 -0.6166  1.1548 -1.6686
  220MOL0     H29671   9.877   5.107   8.393  0.3686 -1.2190 -0.7884
  220MOL0     H29672   9.736   5.245   8.219  2.2320 -2.3205  0.0524
  220MOL0     H29673   9.591   5.176   8.295  0.1912 -0.9318  2.1023
  220MOL0     H29674   9.668   5.302   8.515 -2.4042  2.0547 -0.5516
  220MOL0     H29675   9.670   5.408   8.368  2.1188  0.2647 -4.0369
  220MOL0     H29676   9.839   5.451   8.520  0.7212 -3.1442  5.0429
  220MOL0     H29677   9.917   5.293   8.513  2.0460  0.9617  1.5409
  220MOL0     H29678   9.945   5.332   8.248  2.9219 -0.1386 -0.4325
  220MOL0     H29679  10.038   5.408   8.369  1.1389 -3.5874 -0.9117
  220MOL0     H29680   9.788   5.554   8.296  0.2377  1.2844  2.1169
  220MOL0     H29681   9.912   5.561   8.165  1.3514  1.7433  0.1076
  220MOL0     H29682   9.453   4.755   8.408  3.5761  1.6700 -0.7840
  220MOL0     H29683   9.315   4.568   8.406 -0.3275  1.9020  1.3483
  220MOL0     H29684   9.403   4.107   8.308  0.9860 -0.1776  2.2179
  220MOL0     H29685   9.295   3.888   8.241  2.9685  0.7516  0.2090
  220MOL0     H29686   9.389   2.331   8.909  1.1168 -0.6872  1.1977
  220MOL0     H29687   9.623   2.217   8.883  3.0893  2.2607  0.2216
  220MOL0     H29688   9.974   2.125   8.745 -1.1078 -4.7426 -0.7515
  220MOL0     H29689  10.200   2.051   8.727  0.1414  0.6763 -0.2145
  220MOL0     H29690  10.282   1.840   8.381 -1.7141  1.1334  4.1288
  220MOL0     H29691  10.373   1.971   8.292  3.2668  1.4904  1.6771
  220MOL0     H29692  10.545   1.952   8.417 -2.0360  1.4403 -2.1298
  220MOL0     H29693  10.493   1.786   8.351 -0.8846 -1.3593  0.8157
  220MOL0     H29694  10.394   1.732   8.582  2.0177 -1.5793  1.0177
  220MOL0     H29695  10.460   1.872   8.659 -0.6171 -2.5413  2.3297
  220MOL0     H29696  10.647   1.685   8.530  2.2211  2.0450 -0.8433
  220MOL0     H29697  10.596   1.685   8.696 -0.4535  1.5473  0.4556
  220MOL0     H29698  10.870   1.987   8.724 -1.3726 -1.0063  3.6975
  220MOL0     H29699  10.163   2.076   8.297  3.2563  0.7863  1.1415
  220MOL0     H29700   9.917   2.140   8.322  0.8282  2.9443  0.3939
  221MOL0     O29701   4.684   4.643   7.543  0.0684  0.3721 -0.3021
  221MOL0     C29702   4.699   4.564   7.454  0.5242  0.2659  0.4315
  221MOL0     O29703   4.706   4.600   7.320 -0.0059 -0.4413  0.0565
  221MOL0     C29704   4.679   4.728   7.284  0.1902  0.8388  0.8525
  221MOL0     C29705   4.778   4.783   7.202  0.7783  0.5037 -1.8816
  221MOL0     C29706   4.766   4.915   7.153 -0.1271  0.2429  0.4808
  221MOL0     C29707   4.654   4.993   7.184  0.4190  0.8304  0.1203
  221MOL0     O29708   4.630   5.119   7.132  0.9601 -0.4824 -0.1507
  221MOL0     C29709   4.712   5.194   7.036  0.3187  0.1311 -0.5751
  221MOL0     C29710   4.646   5.186   6.899 -0.3071 -0.4872 -0.2296
  221MOL0     C29711   4.620   5.037   6.866 -0.2816 -0.2354  0.2582
  221MOL0     C29712   4.589   5.015   6.717 -0.0121 -0.1749  1.8398
  221MOL0     C29713   4.516   4.890   6.687  0.4060 -0.1373  0.1684
  221MOL0     C29714   4.498   4.859   6.544 -0.6219 -0.8198 -0.0653
  221MOL0     C29715   4.368   4.919   6.481 -0.9342 -1.1441 -0.6843
  221MOL0     C29716   4.250   4.824   6.525  0.1052  1.0497  0.0637
  221MOL0     N29717   4.129   4.874   6.447 -0.2882  1.1088  0.1139
  221MOL0     C29718   4.057   4.981   6.468 -1.2853 -0.8308  0.4523
  221MOL0     C29719   3.945   4.980   6.396  0.5499 -0.0950  0.0580
  221MOL0     C29720   3.842   5.083   6.391 -1.3391  0.3165 -0.4344
  221MOL0     C29721   3.874   5.207   6.302 -0.2796  0.5194  0.1758
  221MOL0     C29722   3.750   5.304   6.319  0.0640  0.5446  0.7841
  221MOL0     C29723   3.762   5.419   6.419  0.4804  0.5194  0.1661
  221MOL0     O29724   3.676   5.531   6.384 -0.4549 -0.3286  0.2290
  221MOL0     C29725   3.584   5.566   6.483  0.5355 -0.4538 -0.3954
  221MOL0     C29726   3.526   5.700   6.490  0.1494  0.4126 -0.1758
  221MOL0     C29727   3.430   5.736   6.586 -0.4960 -0.4431  0.0346
  221MOL0     C29728   3.360   5.862   6.572 -0.7924 -0.7496  0.6624
  221MOL0     C29729   3.385   5.637   6.678  0.2457 -0.5950 -0.0665
  221MOL0     C29730   3.294   5.654   6.792 -0.7937  0.4810  1.0983
  221MOL0     O29731   3.212   5.552   6.816  0.0351 -0.6394  0.1873
  221MOL0     C29732   3.099   5.560   6.896 -0.4311  0.3311  1.1698
  221MOL0     C29733   3.031   5.683   6.919  0.6017 -0.3675  0.8493
  221MOL0     C29734   2.916   5.694   7.007 -0.9468 -0.2028  0.8689
  221MOL0     C29735   2.866   5.579   7.058  0.4824  1.2479 -0.4087
  221MOL0     O29736   2.764   5.588   7.141  0.0924  0.5324  0.1309
  221MOL0     C29737   2.645   5.520   7.089  0.2751 -0.0724  0.0171
  221MOL0     C29738   2.599   5.418   7.191  0.8763 -0.3270  0.6846
  221MOL0     C29739   2.532   5.303   7.123  0.1024  0.4348  0.2851
  221MOL0     C29740   2.478   5.211   7.237 -0.7163 -0.0977 -0.2899
  221MOL0     C29741   2.503   5.067   7.205  0.5401 -0.3233  0.7776
  221MOL0     C29742   2.469   4.960   7.310  0.4643  0.1552  1.1589
  221MOL0     C29743   2.556   4.966   7.446  0.3177  0.2278 -0.2705
  221MOL0     C29744   2.512   4.853   7.538  0.3959 -0.5018 -0.6759
  221MOL0    Cl29745   2.600   4.842   7.694 -0.0126  0.3765 -0.6816
  221MOL0     C29746   2.933   5.449   7.035 -0.2283 -0.0997 -0.1594
  221MOL0     C29747   3.048   5.440   6.955 -0.6280 -0.3742 -0.2849
  221MOL0     O29748   3.290   5.761   6.848 -0.1265 -1.0281  0.3565
  221MOL0     C29749   3.436   5.504   6.664 -1.4795 -0.2243 -0.3984
  221MOL0     C29750   3.523   5.466   6.568 -0.1155 -0.6981  0.6171
  221MOL0     N29751   3.959   4.868   6.313  0.1255  0.9405 -0.2887
  221MOL0     N29752   4.072   4.805   6.343  1.0992 -0.1943 -0.0221
  221MOL0     C29753   4.565   4.936   7.266  0.0526  0.6878 -0.3000
  221MOL0     C29754   4.567   4.806   7.312  0.3374  0.3347  0.0029
  221MOL0     C29755   4.695   4.421   7.491  0.3123 -0.2222 -0.5869
  221MOL0     C29756   4.705   4.376   7.622  0.4850  0.0326 -0.8343
  221MOL0     C29757   4.700   4.237   7.650  0.8910  0.4252 -1.3188
  221MOL0     C29758   4.705   4.146   7.547 -0.5897  0.4151 -1.0737
  221MOL0     O29759   4.713   4.015   7.582 -0.5498 -0.7792  0.5535
  221MOL0     C29760   4.759   3.917   7.490  0.3261  0.0554 -0.2996
  221MOL0     C29761   4.763   3.778   7.559 -0.0178  0.5039 -0.4183
  221MOL0     C29762   4.814   3.665   7.459 -0.5571  0.3048 -0.4696
  221MOL0     C29763   4.783   3.522   7.518  0.3768 -0.0876 -0.9469
  221MOL0     C29764   4.822   3.419   7.429  0.6385  0.2717 -0.1801
  221MOL0     C29765   4.840   3.338   7.341  0.8749 -0.0995 -0.1515
  221MOL0     C29766   4.701   4.192   7.414  1.1998 -0.1002  0.9472
  221MOL0     C29767   4.696   4.323   7.387 -0.2004 -0.2007 -0.1524
  221MOL0     H29768   4.864   4.726   7.171  2.3086  0.6015  1.7098
  221MOL0     H29769   4.844   4.949   7.086 -0.8975 -0.8735 -1.0383
  221MOL0     H29770   4.726   5.298   7.065 -1.0478  0.8263 -2.2628
  221MOL0     H29771   4.816   5.159   7.029 -0.4677 -2.6496  0.2120
  221MOL0     H29772   4.555   5.246   6.903  0.0361  0.0610  3.8223
  221MOL0     H29773   4.715   5.236   6.830 -1.3895  0.5479 -0.5792
  221MOL0     H29774   4.701   4.968   6.890 -1.8979 -1.2522  3.4066
  221MOL0     H29775   4.534   4.996   6.920  0.4588 -1.8605  0.2715
  221MOL0     H29776   4.534   5.098   6.671 -0.8442 -0.7145  1.8429
  221MOL0     H29777   4.680   5.010   6.656 -1.0974  1.2395  0.0012
  221MOL0     H29778   4.570   4.804   6.729 -0.2404 -1.1581 -1.0078
  221MOL0     H29779   4.417   4.894   6.734  0.2252  4.1806 -0.1950
  221MOL0     H29780   4.592   4.884   6.493  0.3755 -3.4438  0.3414
  221MOL0     H29781   4.507   4.752   6.525  2.4502 -0.5346 -0.7653
  221MOL0     H29782   4.338   5.010   6.534  1.3594 -0.0593 -1.1396
  221MOL0     H29783   4.373   4.927   6.372  3.6246 -1.1732 -0.6658
  221MOL0     H29784   4.220   4.809   6.629 -0.4986  1.6904 -0.0163
  221MOL0     H29785   4.269   4.722   6.489 -1.1716  0.1940  1.6828
  221MOL0     H29786   4.088   5.062   6.534  0.4408  0.6183 -1.9838
  221MOL0     H29787   3.755   5.029   6.355 -0.8984  0.5223 -1.8797
  221MOL0     H29788   3.841   5.119   6.494 -2.2439  0.3589 -0.4493
  221MOL0     H29789   3.877   5.165   6.201  1.6127  0.4740  0.2275
  221MOL0     H29790   3.974   5.250   6.297  0.5331 -1.1959  1.0496
  221MOL0     H29791   3.655   5.251   6.330  0.0238  0.4290 -0.0575
  221MOL0     H29792   3.733   5.348   6.220 -0.7130 -2.0913 -0.3543
  221MOL0     H29793   3.864   5.458   6.414 -0.7811  4.1650  0.1642
  221MOL0     H29794   3.747   5.378   6.519  1.1095 -2.1692 -0.7620
  221MOL0     H29795   3.559   5.777   6.421  1.6261  0.2917  0.3533
  221MOL0     H29796   3.406   5.932   6.501 -1.7817 -0.9566 -0.2194
  221MOL0     H29797   3.256   5.841   6.545 -0.7606  1.0024 -1.0746
  221MOL0     H29798   3.363   5.922   6.664 -2.4596  0.4535  0.0036
  221MOL0     H29799   3.055   5.773   6.864 -1.2109  0.5554  1.4826
  221MOL0     H29800   2.873   5.790   7.032  3.7355  1.8141  2.4464
  221MOL0     H29801   2.570   5.599   7.079  2.3101  1.9742  0.0258
  221MOL0     H29802   2.664   5.474   6.992 -2.0224 -0.1761 -0.4441
  221MOL0     H29803   2.688   5.365   7.225  1.1374 -2.0538 -2.3015
  221MOL0     H29804   2.549   5.465   7.276 -2.5152 -0.2720 -1.1699
  221MOL0     H29805   2.603   5.261   7.051 -0.8728  3.3857 -2.6576
  221MOL0     H29806   2.452   5.340   7.058  0.3579 -1.9046 -1.5220
  221MOL0     H29807   2.532   5.224   7.331 -0.6743 -3.2392  0.2185
  221MOL0     H29808   2.381   5.236   7.281  0.0733 -3.3890  3.8924
  221MOL0     H29809   2.608   5.054   7.178  0.7955  1.5878  0.6912
  221MOL0     H29810   2.439   5.053   7.117 -0.8230 -0.6699  1.7885
  221MOL0     H29811   2.365   4.967   7.343  0.9331 -0.4071  2.8613
  221MOL0     H29812   2.481   4.859   7.269 -3.5036  0.4992 -1.3480
  221MOL0     H29813   2.542   5.056   7.506 -1.2854 -1.3517  1.8753
  221MOL0     H29814   2.660   4.950   7.417  0.6436  2.1984 -0.2921
  221MOL0     H29815   2.517   4.767   7.471 -2.4487  1.7923 -4.1699
  221MOL0     H29816   2.408   4.869   7.566  0.4640 -1.8934  0.5089
  221MOL0     H29817   2.888   5.358   7.071  1.1415 -0.4337  0.7892
  221MOL0     H29818   3.103   5.347   6.945  1.2249  0.5039  1.1658
  221MOL0     H29819   3.410   5.431   6.740  1.2513  0.1580  1.0491
  221MOL0     H29820   3.534   5.358   6.564 -5.2195 -1.4481 -2.2287
  221MOL0     H29821   4.480   4.988   7.308 -1.0681 -0.6656 -0.8033
  221MOL0     H29822   4.491   4.767   7.379  0.7390 -0.2157  0.1437
  221MOL0     H29823   4.732   4.441   7.705  0.9261  1.2414 -1.8824
  221MOL0     H29824   4.698   4.204   7.753 -0.5558  3.0253 -0.4062
  221MOL0     H29825   4.680   3.910   7.415 -2.0135  2.5347  1.7388
  221MOL0     H29826   4.856   3.938   7.442 -0.3509 -0.6291 -2.0572
  221MOL0     H29827   4.660   3.758   7.589 -0.2912  1.9490 -0.3343
  221MOL0     H29828   4.833   3.790   7.642  1.9283 -0.1817 -1.8525
  221MOL0     H29829   4.920   3.675   7.436 -0.6895  2.5354 -0.3278
  221MOL0     H29830   4.776   3.686   7.359 -0.0061  0.7511 -0.5921
  221MOL0     H29831   4.677   3.524   7.546  0.4310 -0.9615 -0.6660
  221MOL0     H29832   4.846   3.507   7.607  2.1321 -2.5940 -2.4968
  221MOL0     H29833   4.873   3.271   7.265  0.9079 -0.5953  0.2941
  221MOL0     H29834   4.700   4.121   7.332  2.2737 -1.0137  1.7056
  221MOL0     H29835   4.689   4.348   7.281 -0.5377 -0.4162 -0.1821
  222MOL0     O29836   8.979   7.910   4.776  0.2828  0.9435 -0.1207
  222MOL0     C29837   9.019   7.822   4.852 -0.1805 -0.4455  0.2400
  222MOL0     O29838   9.150   7.767   4.840  0.7016  0.6595 -0.0490
  222MOL0     C29839   9.219   7.755   4.716 -1.0272 -0.3843 -1.4715
  222MOL0     C29840   9.331   7.673   4.722 -1.0283  0.1548  0.6237
  222MOL0     C29841   9.396   7.636   4.599 -0.1341 -0.3383 -0.4678
  222MOL0     C29842   9.363   7.700   4.476 -0.5136 -0.6805  1.7013
  222MOL0     O29843   9.434   7.673   4.367 -0.2997  0.5988 -0.7705
  222MOL0     C29844   9.359   7.632   4.251  0.5190  0.7790  0.0512
  222MOL0     C29845   9.455   7.579   4.149  0.3022 -0.3248  0.1719
  222MOL0     C29846   9.492   7.433   4.192  0.2398  0.1728  0.4985
  222MOL0     C29847   9.611   7.383   4.106 -0.2942 -0.2528 -0.5524
  222MOL0     C29848   9.617   7.241   4.058  0.7791  0.8170 -0.2362
  222MOL0     C29849   9.760   7.184   4.037 -0.2511 -0.1637  0.1404
  222MOL0     C29850   9.857   7.277   3.948 -0.7471 -0.1648  1.0307
  222MOL0     C29851   9.848   7.245   3.801  0.6759 -0.3918  0.0986
  222MOL0     N29852   9.972   7.258   3.721 -0.3944 -0.8395 -0.5379
  222MOL0     C29853  10.080   7.188   3.749  0.1470 -1.0283 -0.1905
  222MOL0     C29854  10.160   7.221   3.637 -0.0355  1.7033 -0.5657
  222MOL0     C29855  10.298   7.176   3.596  0.0424  0.3768 -0.3046
  222MOL0     C29856  10.404   7.270   3.649  0.1694  0.2186  0.6197
  222MOL0     C29857  10.443   7.223   3.795 -1.4426 -0.5917  0.1289
  222MOL0     C29858  10.567   7.303   3.841  0.1946 -0.0737  0.0056
  222MOL0     O29859  10.694   7.242   3.795  0.0813  0.4296  0.2773
  222MOL0     C29860  10.810   7.286   3.852  0.6377  0.8067  0.0603
  222MOL0     C29861  10.926   7.206   3.838  0.5980  0.4266  0.3159
  222MOL0     C29862  11.051   7.254   3.872 -0.4697 -0.6799  0.1059
  222MOL0     C29863  11.168   7.160   3.849 -0.4746 -0.4431 -0.1186
  222MOL0     C29864  11.068   7.386   3.914 -0.9003 -0.6093  0.9349
  222MOL0     C29865  11.207   7.439   3.958 -0.5773 -0.8849  0.1482
  222MOL0     O29866  11.264   7.377   4.069  0.3080 -0.1387 -0.2161
  222MOL0     C29867  11.377   7.432   4.136  0.3991  0.8191  0.3887
  222MOL0     C29868  11.389   7.406   4.272  0.3214  0.4761  0.4960
  222MOL0     C29869  11.490   7.474   4.340 -0.2799  0.3761 -0.4379
  222MOL0     C29870  11.581   7.561   4.279 -0.6446 -0.1307 -0.1405
  222MOL0     O29871  11.678   7.639   4.343  0.2036 -0.3053  1.0640
  222MOL0     C29872  11.625   7.761   4.395  0.0721  0.1018  0.3677
  222MOL0     C29873  11.739   7.861   4.416 -0.5284  0.1410  0.1773
  222MOL0     C29874  11.825   7.905   4.301 -0.3115 -0.5513  1.3847
  222MOL0     C29875  11.917   8.029   4.336  0.2431 -0.1776  0.6143
  222MOL0     C29876  11.983   8.055   4.204 -0.8332 -0.4621  0.1360
  222MOL0     C29877  12.117   8.119   4.225  0.1129  0.6209 -0.0133
  222MOL0     C29878  12.183   8.171   4.092 -0.4700  0.9555 -0.5816
  222MOL0     C29879  12.184   8.326   4.099  0.0203  1.0148 -0.3438
  222MOL0    Cl29880  12.295   8.414   3.965 -0.0606 -0.1324  0.0297
  222MOL0     C29881  11.580   7.559   4.144 -0.0636  0.5089  0.2064
  222MOL0     C29882  11.479   7.502   4.066 -0.6314  0.0394  0.8150
  222MOL0     O29883  11.258   7.529   3.895 -0.2780  0.1356 -0.1435
  222MOL0     C29884  10.954   7.463   3.932 -0.3316 -0.0750 -0.1660
  222MOL0     C29885  10.828   7.411   3.909  0.5962  0.8734  0.3332
  222MOL0     N29886  10.089   7.310   3.554 -0.3704  0.4846 -0.4644
  222MOL0     N29887   9.978   7.343   3.613 -0.7819  0.8225  0.5714
  222MOL0     C29888   9.261   7.793   4.483  1.0126 -0.2764 -0.1546
  222MOL0     C29889   9.185   7.809   4.595 -0.0798  0.5332 -0.1930
  222MOL0     C29890   8.948   7.818   4.983  0.2117 -0.4373 -0.8295
  222MOL0     C29891   9.032   7.789   5.098  0.2256 -0.3382  0.8197
  222MOL0     C29892   8.970   7.775   5.221  1.1954 -0.2113 -0.0523
  222MOL0     C29893   8.828   7.783   5.231  0.8727  0.0437 -0.1255
  222MOL0     O29894   8.783   7.794   5.361 -0.2907  0.2552 -0.7035
  222MOL0     C29895   8.687   7.894   5.397  0.4809  0.2527 -0.2257
  222MOL0     C29896   8.682   7.936   5.540  0.1029  0.4293 -0.2232
  222MOL0     C29897   8.702   7.808   5.629  1.5141  0.2884 -0.3464
  222MOL0     C29898   8.625   7.800   5.761 -0.2823  0.1053  0.1135
  222MOL0     C29899   8.701   7.838   5.883  0.2921  1.1828 -0.2374
  222MOL0     C29900   8.762   7.859   5.986  0.6815  0.4865  0.2243
  222MOL0     C29901   8.750   7.804   5.114  1.0998  1.0611 -0.7056
  222MOL0     C29902   8.809   7.828   4.989  0.0475  0.0528 -0.2849
  222MOL0     H29903   9.361   7.617   4.810 -5.2118 -3.1985  0.2321
  222MOL0     H29904   9.475   7.562   4.610 -0.1656 -0.0947  2.0278
  222MOL0     H29905   9.289   7.553   4.279  1.0034 -0.3619 -1.7892
  222MOL0     H29906   9.293   7.708   4.207 -0.3403 -0.1591 -0.3120
  222MOL0     H29907   9.420   7.575   4.045  0.3686 -0.2927  0.1478
  222MOL0     H29908   9.535   7.654   4.146 -0.8423  0.9883  1.3090
  222MOL0     H29909   9.516   7.423   4.298  3.6828 -0.2126 -0.2293
  222MOL0     H29910   9.412   7.362   4.168 -0.2816  0.4851  1.2517
  222MOL0     H29911   9.621   7.458   4.027 -0.7300 -1.1335 -1.4685
  222MOL0     H29912   9.703   7.392   4.165  0.0108 -0.6148 -0.9676
  222MOL0     H29913   9.570   7.179   4.134  1.8722  0.1972 -0.0446
  222MOL0     H29914   9.555   7.231   3.968  0.0642  0.9431  0.2352
  222MOL0     H29915   9.794   7.178   4.141 -2.3146  2.2223  1.0663
  222MOL0     H29916   9.747   7.088   3.987 -2.3747 -1.3777  2.7592
  222MOL0     H29917   9.841   7.384   3.961 -0.3029  0.5291 -2.9083
  222MOL0     H29918   9.958   7.262   3.987 -0.1601 -1.4617 -0.8765
  222MOL0     H29919   9.770   7.307   3.756  2.5484  1.0873 -1.2698
  222MOL0     H29920   9.823   7.140   3.788  0.3709 -0.1117 -1.8065
  222MOL0     H29921  10.106   7.122   3.832  3.0027  0.6987  0.4510
  222MOL0     H29922  10.316   7.074   3.634 -0.9558 -1.1113 -3.4973
  222MOL0     H29923  10.312   7.173   3.488 -2.8791  0.0897 -0.7550
  222MOL0     H29924  10.381   7.376   3.655 -0.0498  0.0789  2.7375
  222MOL0     H29925  10.490   7.252   3.584  1.5133  0.0268  2.3799
  222MOL0     H29926  10.469   7.118   3.778 -0.0238  0.2597 -4.5342
  222MOL0     H29927  10.356   7.233   3.860 -0.2072 -0.4082  1.8126
  222MOL0     H29928  10.570   7.304   3.950  2.3333 -1.2788  0.0197
  222MOL0     H29929  10.563   7.399   3.788  0.2674 -0.6068 -1.0044
  222MOL0     H29930  10.908   7.103   3.810  0.2421  0.2537  1.1490
  222MOL0     H29931  11.211   7.117   3.941  0.7138 -1.9153 -1.3077
  222MOL0     H29932  11.145   7.075   3.785 -4.4112 -0.7902  1.5150
  222MOL0     H29933  11.237   7.235   3.809 -1.4118  1.9173  2.3546
  222MOL0     H29934  11.329   7.337   4.330  0.3505  0.9472  1.0888
  222MOL0     H29935  11.516   7.439   4.440  1.2641  0.6429 -0.7170
  222MOL0     H29936  11.550   7.811   4.334  1.1759  0.3165 -0.8544
  222MOL0     H29937  11.589   7.730   4.494  2.8390 -2.0088  0.8319
  222MOL0     H29938  11.708   7.953   4.466  2.9887 -0.3543  3.8407
  222MOL0     H29939  11.810   7.814   4.485  0.1081 -2.3437 -1.9996
  222MOL0     H29940  11.758   7.926   4.217  2.2628  2.0106 -0.2232
  222MOL0     H29941  11.882   7.814   4.282 -0.7948 -0.5275 -0.3111
  222MOL0     H29942  11.858   8.117   4.364  0.1416 -1.0792  3.6461
  222MOL0     H29943  11.990   8.014   4.416  0.9161  2.1885  0.4973
  222MOL0     H29944  11.935   8.134   4.145 -0.9318 -0.7632 -0.1899
  222MOL0     H29945  11.991   7.964   4.145 -1.2277 -1.6177  1.7951
  222MOL0     H29946  12.092   8.200   4.294  0.1275 -2.2307  3.6427
  222MOL0     H29947  12.182   8.053   4.282 -0.5486 -0.0107  0.0248
  222MOL0     H29948  12.151   8.126   3.998 -0.0561 -1.7358  0.4586
  222MOL0     H29949  12.285   8.131   4.098 -0.2848  1.6182  1.1997
  222MOL0     H29950  12.222   8.334   4.201 -1.5956 -0.7947  0.4662
  222MOL0     H29951  12.082   8.364   4.094  0.1991  1.5311 -0.0810
  222MOL0     H29952  11.645   7.627   4.091 -1.8782  2.3242  0.1582
  222MOL0     H29953  11.484   7.506   3.958  0.3287  0.8711  0.8696
  222MOL0     H29954  10.965   7.565   3.966 -0.1774 -0.7308  1.8419
  222MOL0     H29955  10.745   7.481   3.912 -0.3033  0.1368 -2.7147
  222MOL0     H29956   9.227   7.856   4.401  0.7383 -0.6812 -0.3610
  222MOL0     H29957   9.090   7.861   4.593 -0.5417 -0.3236 -1.1114
  222MOL0     H29958   9.137   7.767   5.081 -0.4773 -0.8947 -4.8600
  222MOL0     H29959   9.031   7.755   5.308  1.4105  3.5828  0.8390
  222MOL0     H29960   8.716   7.971   5.325  1.1838 -1.3748 -1.7495
  222MOL0     H29961   8.588   7.854   5.373  1.9634 -3.0711 -1.4167
  222MOL0     H29962   8.585   7.984   5.555 -1.1140 -1.5535 -1.2393
  222MOL0     H29963   8.765   8.005   5.555 -0.7512  1.5278 -0.4388
  222MOL0     H29964   8.810   7.793   5.636  2.4916  3.5857 -4.2453
  222MOL0     H29965   8.656   7.726   5.573 -0.1739  2.1316 -1.8570
  222MOL0     H29966   8.589   7.697   5.773  0.7530  0.0207  3.6717
  222MOL0     H29967   8.540   7.868   5.752  0.6784  1.1003 -3.0311
  222MOL0     H29968   8.825   7.868   6.072  0.2002 -1.8058  0.8983
  222MOL0     H29969   8.646   7.834   5.123  0.5642 -1.2278  4.3831
  222MOL0     H29970   8.746   7.845   4.902 -2.2761  0.2310  1.3578
  223MOL0     O29971   9.607  10.835  10.201 -0.4886 -0.2934 -0.6450
  223MOL0     C29972   9.631  10.909  10.298 -0.5161  0.9988  0.2838
  223MOL0     O29973   9.608  10.879  10.426  0.9392 -0.1413 -0.2151
  223MOL0     C29974   9.616  10.741  10.451 -0.0978  1.2589 -0.5018
  223MOL0     C29975   9.729  10.655  10.438 -0.0154 -0.0788  0.1060
  223MOL0     C29976   9.727  10.522  10.483 -0.5544 -0.4721 -0.4303
  223MOL0     C29977   9.611  10.460  10.546 -0.6335  0.8364  0.1868
  223MOL0     O29978   9.632  10.327  10.583  0.3140  0.5077 -0.3422
  223MOL0     C29979   9.503  10.254  10.613  0.5077  0.4992  1.0714
  223MOL0     C29980   9.543  10.120  10.669 -0.5847 -0.2259  0.9326
  223MOL0     C29981   9.616  10.129  10.804  0.5077 -0.7987 -0.6094
  223MOL0     C29982   9.635   9.979  10.852  0.4246  0.4419  0.6777
  223MOL0     C29983   9.724   9.947  10.972 -0.4033 -0.7283  0.6195
  223MOL0     C29984   9.681   9.821  11.053  0.1881  0.2880  1.2151
  223MOL0     C29985   9.678   9.688  10.976  0.9198  0.2517 -0.4339
  223MOL0     C29986   9.808   9.649  10.916 -0.5809 -0.0753 -0.2303
  223MOL0     N29987   9.805   9.510  10.872  0.4166 -0.8277 -0.8838
  223MOL0     C29988   9.796   9.487  10.741 -0.2670 -0.0591  0.2370
  223MOL0     C29989   9.767   9.354  10.738 -0.4394  0.5685  1.0214
  223MOL0     C29990   9.749   9.273  10.612  0.5053  0.0130  0.0020
  223MOL0     C29991   9.811   9.138  10.642 -0.5332  0.7466  0.5069
  223MOL0     C29992   9.700   9.035  10.683  0.4749  0.6489 -0.9985
  223MOL0     C29993   9.746   8.923  10.773  0.2690 -0.4540 -0.6646
  223MOL0     O29994   9.877   8.870  10.745 -0.5400 -0.2634 -0.3171
  223MOL0     C29995   9.929   8.805  10.852 -0.9649  0.1392  0.0350
  223MOL0     C29996   9.849   8.767  10.969 -0.0867  0.3117  0.0128
  223MOL0     C29997   9.907   8.696  11.084  1.1710  0.1511  0.6615
  223MOL0     C29998   9.803   8.661  11.197  0.2663 -0.6133 -0.2266
  223MOL0     C29999  10.043   8.669  11.078  1.0428  0.4425  0.2137
  223MOL0     C30000  10.115   8.586  11.181  0.5320  0.3262  1.7044
  223MOL0     O30001  10.052   8.477  11.235  0.3153  0.4487 -0.0167
  223MOL0     C30002  10.115   8.409  11.338 -0.4248  0.3125 -0.4420
  223MOL0     C30003  10.032   8.357  11.442 -0.3565 -0.7231  0.5305
  223MOL0     C30004  10.071   8.284  11.548 -0.3220  0.3200 -0.7072
  223MOL0     C30005  10.204   8.246  11.557 -0.3494  0.0661  0.0445
  223MOL0     O30006  10.266   8.168  11.655  0.4218 -0.0444  0.1874
  223MOL0     C30007  10.177   8.139  11.763 -0.9143 -0.2514 -0.0035
  223MOL0     C30008  10.258   8.065  11.878  0.9994 -0.3409 -0.5912
  223MOL0     C30009  10.145   7.996  11.968  0.7634 -0.5853 -0.9826
  223MOL0     C30010  10.052   8.098  12.046 -0.2313 -0.3384  0.1782
  223MOL0     C30011  10.008   8.066  12.200  0.2445  0.2449  0.2873
  223MOL0     C30012  10.115   8.104  12.306 -0.2646 -0.0155 -1.1826
  223MOL0     C30013  10.061   8.056  12.446  0.5279  0.7832  0.4813
  223MOL0     C30014  10.073   7.904  12.470 -0.4931 -0.0117 -0.2250
  223MOL0    Cl30015  10.037   7.880  12.641  0.1555  0.2681 -0.5439
  223MOL0     C30016  10.280   8.300  11.454 -1.3900  0.8979  0.1731
  223MOL0     C30017  10.245   8.366  11.339  0.5947  0.5593 -0.3942
  223MOL0     O30018  10.220   8.627  11.214  0.4057 -0.4322 -0.1932
  223MOL0     C30019  10.118   8.716  10.969 -0.6958  0.1738  0.7674
  223MOL0     C30020  10.061   8.787  10.860  0.1710 -0.2850 -0.8328
  223MOL0     N30021   9.747   9.305  10.870 -0.1179 -0.2784  0.7584
  223MOL0     N30022   9.765   9.402  10.952  0.0951  0.3281  0.0679
  223MOL0     C30023   9.498  10.544  10.555 -0.5639  0.3998  0.5770
  223MOL0     C30024   9.502  10.679  10.510 -0.4247 -0.8338 -0.0056
  223MOL0     C30025   9.686  11.042  10.275 -0.0679  0.2170 -0.9183
  223MOL0     C30026   9.779  11.089  10.367  0.1281  0.1876  0.9047
  223MOL0     C30027   9.828  11.222  10.367  0.0791  0.4752  0.7943
  223MOL0     C30028   9.786  11.314  10.269 -0.0601 -0.2137 -0.5069
  223MOL0     O30029   9.832  11.444  10.275 -0.3278  0.0653  0.1141
  223MOL0     C30030   9.847  11.514  10.157 -0.2563 -0.2523 -0.4212
  223MOL0     C30031   9.928  11.646  10.166  0.2394  0.5212  0.4481
  223MOL0     C30032  10.046  11.638  10.266 -0.8089 -0.8468 -0.1233
  223MOL0     C30033  10.099  11.777  10.309  1.4344  0.9399  1.4205
  223MOL0     C30034  10.118  11.865  10.187  0.3280 -0.9573  0.0395
  223MOL0     C30035  10.150  11.936  10.096 -0.5362 -1.2826 -0.4350
  223MOL0     C30036   9.700  11.260  10.165  0.1808 -0.4090 -0.6492
  223MOL0     C30037   9.653  11.125  10.168  0.3561 -0.3721  0.2961
  223MOL0     H30038   9.820  10.705  10.405 -1.2930  1.5163 -1.1514
  223MOL0     H30039   9.813  10.457  10.472 -2.2402 -2.3769 -3.7155
  223MOL0     H30040   9.440  10.306  10.685 -1.5411  2.1446 -1.7192
  223MOL0     H30041   9.450  10.235  10.519  1.3838  3.8519 -0.2374
  223MOL0     H30042   9.451  10.066  10.692 -0.5503 -0.3748  0.7200
  223MOL0     H30043   9.599  10.049  10.608  0.8206 -0.9825  3.0057
  223MOL0     H30044   9.714  10.172  10.787  0.5126 -0.7923 -0.5632
  223MOL0     H30045   9.561  10.186  10.879 -2.6988 -3.8725 -0.3125
  223MOL0     H30046   9.535   9.943  10.880  0.3003 -0.7541 -1.1307
  223MOL0     H30047   9.667   9.928  10.761 -2.6806 -1.4471  0.4717
  223MOL0     H30048   9.826   9.920  10.943 -0.9723 -1.1020 -1.1270
  223MOL0     H30049   9.731  10.038  11.033  0.6157  0.8765 -1.7317
  223MOL0     H30050   9.752   9.793  11.131  1.3925 -0.4814 -0.0966
  223MOL0     H30051   9.589   9.851  11.104 -0.3031  1.7606 -0.4100
  223MOL0     H30052   9.647   9.605  11.039 -0.3788  0.8059 -0.3024
  223MOL0     H30053   9.617   9.698  10.886  1.0289 -0.0460 -0.5402
  223MOL0     H30054   9.888   9.665  10.989 -2.5669  0.0482  2.0450
  223MOL0     H30055   9.837   9.711  10.831  2.0980 -1.3091 -0.3007
  223MOL0     H30056   9.816   9.558  10.661  1.2262  1.1561  1.6224
  223MOL0     H30057   9.646   9.267  10.576  0.8201  1.7815 -1.3132
  223MOL0     H30058   9.796   9.321  10.526 -3.3514 -2.2516 -3.8306
  223MOL0     H30059   9.885   9.140  10.722 -1.7377  0.8114  1.6614
  223MOL0     H30060   9.870   9.102  10.557 -3.5568  0.1056 -1.5043
  223MOL0     H30061   9.645   9.003  10.593 -0.2089  1.9951 -1.0878
  223MOL0     H30062   9.626   9.073  10.754 -1.2124 -2.3230 -0.9593
  223MOL0     H30063   9.674   8.841  10.775  0.7738 -0.9361 -1.7218
  223MOL0     H30064   9.742   8.969  10.872 -1.6370  1.6863 -1.6510
  223MOL0     H30065   9.742   8.784  10.968 -0.1347  0.7140  3.2643
  223MOL0     H30066   9.842   8.719  11.281 -1.7726 -1.5709  1.4985
  223MOL0     H30067   9.703   8.700  11.179  0.0184 -0.5696  1.1240
  223MOL0     H30068   9.805   8.552  11.207 -3.7672 -0.9034 -1.1460
  223MOL0     H30069   9.931   8.396  11.433  0.3466  1.1575  0.3782
  223MOL0     H30070   9.996   8.241  11.614 -0.6680  0.4131 -1.0360
  223MOL0     H30071  10.147   8.240  11.792 -0.6983  0.4554 -2.0282
  223MOL0     H30072  10.091   8.076  11.741  0.4092 -1.4369 -2.0807
  223MOL0     H30073  10.331   7.992  11.840  3.2498  0.8335  1.2187
  223MOL0     H30074  10.304   8.148  11.932 -2.0453  2.4363 -1.8951
  223MOL0     H30075  10.193   7.931  12.041 -4.6466 -2.1499  1.7083
  223MOL0     H30076  10.084   7.938  11.899  2.4606 -0.1078 -2.9804
  223MOL0     H30077  10.078   8.204  12.037 -2.0245  0.3412  2.1569
  223MOL0     H30078   9.954   8.092  11.999  0.5123 -0.5927 -1.4060
  223MOL0     H30079   9.969   7.964  12.207 -3.2212  1.3963 -0.3102
  223MOL0     H30080   9.923   8.134  12.208  1.4641  2.1673 -1.8617
  223MOL0     H30081  10.209   8.050  12.295 -1.4581 -2.4631 -0.1175
  223MOL0     H30082  10.126   8.212  12.291 -2.7127  0.1050 -2.7795
  223MOL0     H30083   9.957   8.089  12.457 -0.1756 -1.1776  0.1757
  223MOL0     H30084  10.131   8.095  12.520 -0.3942 -1.5843  2.7449
  223MOL0     H30085  10.177   7.872  12.456 -0.9849 -0.6171 -3.4128
  223MOL0     H30086  10.004   7.849  12.404  0.4552 -1.2719 -0.2073
  223MOL0     H30087  10.385   8.283  11.476 -1.6405  1.1931  1.7388
  223MOL0     H30088  10.319   8.383  11.261 -2.4717  0.1316 -3.6238
  223MOL0     H30089  10.225   8.697  10.974 -0.4842 -0.4547 -3.0761
  223MOL0     H30090  10.116   8.833  10.779 -1.3845  0.0428 -1.7562
  223MOL0     H30091   9.422  10.512  10.625 -1.4844 -2.1334 -1.4274
  223MOL0     H30092   9.411  10.736  10.524 -1.0115 -0.7328 -3.4740
  223MOL0     H30093   9.806  11.022  10.447 -0.3135 -4.8119 -2.6548
  223MOL0     H30094   9.906  11.245  10.439  3.9624  2.7971 -3.6133
  223MOL0     H30095   9.904  11.459  10.082  3.9747  0.4533  1.9402
  223MOL0     H30096   9.747  11.538  10.119 -0.7205  2.3269  2.0404
  223MOL0     H30097   9.850  11.709  10.210 -0.1870 -1.0551  2.0469
  223MOL0     H30098   9.968  11.682  10.070  0.6882 -1.1492 -0.0178
  223MOL0     H30099  10.127  11.577  10.224  0.4233 -0.2377  1.2807
  223MOL0     H30100  10.012  11.588  10.357 -0.1208  0.2564  0.7645
  223MOL0     H30101  10.200  11.787  10.351  0.9617  2.2330  2.2821
  223MOL0     H30102  10.030  11.819  10.382  1.7526  0.6871  1.8768
  223MOL0     H30103  10.169  11.997  10.010  1.7083 -1.6850 -0.2642
  223MOL0     H30104   9.683  11.317  10.074 -1.4650 -1.0668 -0.7803
  223MOL0     H30105   9.575  11.093  10.100  2.0598 -3.1446 -0.5687
  224MOL0     O30106   0.066   4.548   4.420 -0.6102  0.9050  0.3076
  224MOL0     C30107   0.118   4.436   4.438  0.0094  0.7794 -1.0263
  224MOL0     O30108   0.069   4.317   4.403 -0.1408  0.1807  0.1796
  224MOL0     C30109  -0.023   4.288   4.301  0.5655 -0.4093  0.5887
  224MOL0     C30110  -0.078   4.385   4.211  0.6503 -0.0325  1.0848
  224MOL0     C30111  -0.168   4.346   4.106 -0.4711  0.2650  0.3926
  224MOL0     C30112  -0.207   4.216   4.088  0.0123 -0.0702 -0.2423
  224MOL0     O30113  -0.310   4.206   3.995  0.2440  1.0065 -1.3613
  224MOL0     C30114  -0.356   4.067   3.968  0.1298  0.2313 -0.3305
  224MOL0     C30115  -0.448   4.059   3.855  0.1520  0.5166  0.7608
  224MOL0     C30116  -0.390   4.105   3.721 -0.3821 -0.6986  0.2416
  224MOL0     C30117  -0.466   4.061   3.604 -0.0507  0.0196 -0.0926
  224MOL0     C30118  -0.611   4.087   3.612  0.6809  0.1151  0.2235
  224MOL0     C30119  -0.686   4.022   3.504  1.3244  0.3628  0.0286
  224MOL0     C30120  -0.669   4.104   3.372  0.4493  0.4912 -0.3409
  224MOL0     C30121  -0.783   4.059   3.265 -0.1786  0.3245  0.8544
  224MOL0     N30122  -0.760   3.931   3.187 -0.3268 -0.2918  0.3091
  224MOL0     C30123  -0.671   3.911   3.084  0.4064  0.5695 -0.4699
  224MOL0     C30124  -0.680   3.775   3.073 -0.1066 -0.4711  0.7167
  224MOL0     C30125  -0.585   3.692   2.981  0.8868 -0.4716  0.4808
  224MOL0     C30126  -0.617   3.694   2.826  0.5313  0.2657  0.7203
  224MOL0     C30127  -0.601   3.822   2.741 -0.4169  0.2656 -0.1732
  224MOL0     C30128  -0.464   3.831   2.673  0.1700 -0.0176 -0.0245
  224MOL0     O30129  -0.364   3.861   2.764  0.6987  0.1149  0.2145
  224MOL0     C30130  -0.371   3.967   2.839 -0.5067 -0.0994 -0.6275
  224MOL0     C30131  -0.299   3.960   2.949  0.0940 -0.0285  0.3970
  224MOL0     C30132  -0.296   4.058   3.045 -0.2709  0.6307  0.4860
  224MOL0     C30133  -0.200   4.048   3.161 -0.3385  0.0417 -0.0996
  224MOL0     C30134  -0.385   4.169   3.031 -0.3207  0.0654 -0.1964
  224MOL0     C30135  -0.378   4.280   3.133  0.0326 -0.6886 -0.0948
  224MOL0     O30136  -0.494   4.328   3.169  0.3594 -0.4287  0.7324
  224MOL0     C30137  -0.508   4.438   3.248 -0.0692 -0.0295  0.0064
  224MOL0     C30138  -0.539   4.560   3.189  0.4948 -1.0997  0.0588
  224MOL0     C30139  -0.548   4.685   3.270 -0.7457  0.6389 -0.7057
  224MOL0     C30140  -0.510   4.676   3.408  0.0768  1.0254 -0.0020
  224MOL0     O30141  -0.499   4.764   3.509  0.2340 -0.2921 -0.8042
  224MOL0     C30142  -0.588   4.876   3.501  0.1467 -1.0335  0.1091
  224MOL0     C30143  -0.641   4.891   3.644 -0.4296 -0.8655  0.3046
  224MOL0     C30144  -0.753   4.992   3.663 -0.4942 -0.2356 -0.2659
  224MOL0     C30145  -0.794   5.022   3.806 -0.8137  0.9641 -0.1799
  224MOL0     C30146  -0.898   5.134   3.794 -0.6026  0.2533 -0.7402
  224MOL0     C30147  -0.997   5.132   3.678 -0.4911 -0.0168 -0.0244
  224MOL0     C30148  -1.097   5.016   3.697  0.5944 -0.0462 -0.8912
  224MOL0     C30149  -1.207   5.002   3.596  0.4645  0.0120  0.2485
  224MOL0    Cl30150  -1.132   4.941   3.448  0.0455  0.0556  0.3315
  224MOL0     C30151  -0.492   4.547   3.459  0.5082 -0.3160 -0.3953
  224MOL0     C30152  -0.491   4.434   3.385  0.3134 -0.0176  0.3367
  224MOL0     O30153  -0.269   4.330   3.159  0.2384 -0.2241 -0.3050
  224MOL0     C30154  -0.447   4.192   2.911 -0.1545 -0.1976  0.8980
  224MOL0     C30155  -0.446   4.083   2.825 -0.4180 -0.6731 -0.2221
  224MOL0     N30156  -0.760   3.714   3.168 -0.4133 -0.1287  0.3882
  224MOL0     N30157  -0.811   3.818   3.235 -0.6305 -0.6797 -0.1380
  224MOL0     C30158  -0.156   4.125   4.181 -0.4769  0.6907  0.6241
  224MOL0     C30159  -0.063   4.154   4.280 -0.7412  0.1848  0.3168
  224MOL0     C30160   0.225   4.436   4.530 -0.3857 -0.4404 -0.4633
  224MOL0     C30161   0.299   4.314   4.554 -0.0238 -0.5003  0.3702
  224MOL0     C30162   0.404   4.305   4.652  0.5787 -0.4726 -1.1831
  224MOL0     C30163   0.447   4.426   4.721  0.0322  0.2844 -0.2104
  224MOL0     O30164   0.555   4.442   4.804 -0.8099  0.4296  0.3203
  224MOL0     C30165   0.588   4.333   4.896  0.1024  0.3437  0.3332
  224MOL0     C30166   0.684   4.386   5.009 -0.0213 -0.4043  1.1097
  224MOL0     C30167   0.796   4.482   4.961 -0.7449  0.2442  0.4873
  224MOL0     C30168   0.898   4.510   5.056  0.2275 -0.3858  0.2244
  224MOL0     C30169   0.982   4.389   5.066 -0.7949 -0.2377  0.1329
  224MOL0     C30170   1.050   4.289   5.065  0.8745  0.4111 -0.3801
  224MOL0     C30171   0.373   4.540   4.697  0.5232 -0.9754 -0.3757
  224MOL0     C30172   0.266   4.546   4.610 -0.1296  1.5714 -0.0108
  224MOL0     H30173  -0.048   4.489   4.217  0.6288 -0.0960  4.2029
  224MOL0     H30174  -0.199   4.424   4.038  2.1497  2.6413  1.6942
  224MOL0     H30175  -0.270   4.005   3.942 -0.0044  0.7278 -2.1195
  224MOL0     H30176  -0.405   4.030   4.059  1.4435 -2.7995 -0.7315
  224MOL0     H30177  -0.480   3.955   3.843  1.4087  0.2795 -0.8418
  224MOL0     H30178  -0.545   4.108   3.868 -0.9290 -0.3447 -2.8779
  224MOL0     H30179  -0.371   4.212   3.722 -1.0305 -0.5705 -0.3294
  224MOL0     H30180  -0.288   4.068   3.707 -0.2536  0.0994 -1.0105
  224MOL0     H30181  -0.435   4.110   3.511 -0.8201 -0.4111 -0.5805
  224MOL0     H30182  -0.451   3.956   3.577 -2.1548  0.2191 -2.3834
  224MOL0     H30183  -0.647   4.060   3.712  0.9031  2.8383  1.0969
  224MOL0     H30184  -0.635   4.193   3.607  1.1785  0.3891  2.3707
  224MOL0     H30185  -0.663   3.916   3.493 -0.7925 -0.3264  1.6603
  224MOL0     H30186  -0.792   4.029   3.530  0.6782 -0.3934 -2.1640
  224MOL0     H30187  -0.686   4.210   3.392  2.0514  0.5526  0.8283
  224MOL0     H30188  -0.569   4.085   3.332  1.6343 -0.4549  2.7507
  224MOL0     H30189  -0.800   4.129   3.183 -0.4013 -0.6014  0.0771
  224MOL0     H30190  -0.875   4.046   3.325  0.2486 -2.0771  1.1041
  224MOL0     H30191  -0.616   3.984   3.025  1.5668  0.0337 -0.0754
  224MOL0     H30192  -0.484   3.731   2.997 -0.0174  2.3404 -0.0106
  224MOL0     H30193  -0.581   3.588   3.015  0.1455 -0.3989  0.8256
  224MOL0     H30194  -0.723   3.668   2.823  0.8239 -1.0399 -2.5694
  224MOL0     H30195  -0.558   3.609   2.791  1.6560  0.8980  1.0263
  224MOL0     H30196  -0.645   3.900   2.804 -5.2636 -2.3847  0.1651
  224MOL0     H30197  -0.676   3.826   2.661 -0.1498 -0.0047 -0.4414
  224MOL0     H30198  -0.462   3.907   2.594  2.8057  0.1444  0.1101
  224MOL0     H30199  -0.456   3.732   2.628  1.8167 -1.6814  3.5359
  224MOL0     H30200  -0.243   3.867   2.945 -0.3940 -0.3045 -0.4162
  224MOL0     H30201  -0.212   4.106   3.253  1.2393 -0.8681  0.7288
  224MOL0     H30202  -0.213   3.946   3.200 -3.2554  0.3874  0.0410
  224MOL0     H30203  -0.105   4.072   3.112 -0.1103  2.3595  1.3254
  224MOL0     H30204  -0.529   4.574   3.082 -0.8401  3.7721  0.3686
  224MOL0     H30205  -0.568   4.785   3.233  0.3576  0.5221 -1.6583
  224MOL0     H30206  -0.539   4.970   3.475 -3.4495  1.7590  2.5719
  224MOL0     H30207  -0.673   4.845   3.438  0.2489  2.7839 -2.1986
  224MOL0     H30208  -0.673   4.793   3.681 -0.0665 -0.5042  1.6311
  224MOL0     H30209  -0.564   4.927   3.712  0.2150  0.1549 -0.9212
  224MOL0     H30210  -0.833   4.947   3.604 -1.8994  1.7154  0.0470
  224MOL0     H30211  -0.720   5.084   3.613 -0.2855 -0.3632 -0.3689
  224MOL0     H30212  -0.848   4.938   3.850  2.1332 -0.7492  0.4724
  224MOL0     H30213  -0.700   5.041   3.859  0.5934 -3.9917 -0.3619
  224MOL0     H30214  -0.843   5.229   3.789  0.4131 -0.2062  1.0103
  224MOL0     H30215  -0.964   5.143   3.881 -2.8898  0.8270 -2.4307
  224MOL0     H30216  -1.044   5.230   3.664  2.1750  1.0479 -2.7335
  224MOL0     H30217  -0.941   5.124   3.584  3.0042  0.4282  1.8597
  224MOL0     H30218  -1.144   5.037   3.794  1.4442 -0.6752 -0.3340
  224MOL0     H30219  -1.038   4.925   3.703 -2.5427 -2.1544  2.0298
  224MOL0     H30220  -1.250   5.098   3.569 -2.0648 -0.8733  0.8450
  224MOL0     H30221  -1.286   4.933   3.628 -0.0369  0.8220  0.7893
  224MOL0     H30222  -0.470   4.547   3.566 -1.1341  0.3482 -0.0247
  224MOL0     H30223  -0.471   4.338   3.432 -0.4263  1.7527  4.8415
  224MOL0     H30224  -0.490   4.290   2.892 -1.5337 -0.4201  2.5160
  224MOL0     H30225  -0.502   4.096   2.732 -0.5955 -2.1920 -0.3544
  224MOL0     H30226  -0.192   4.024   4.161 -0.8267  0.5566  1.8894
  224MOL0     H30227  -0.018   4.074   4.338  0.9517 -0.3137 -1.5793
  224MOL0     H30228   0.262   4.223   4.506 -3.0193  1.9934 -2.5125
  224MOL0     H30229   0.456   4.215   4.684 -0.7215 -0.5775  0.7908
  224MOL0     H30230   0.497   4.285   4.933  0.2752 -0.7755 -0.6293
  224MOL0     H30231   0.627   4.250   4.836 -0.7966  1.9836 -2.6905
  224MOL0     H30232   0.728   4.300   5.060  2.9279  0.5100  0.3266
  224MOL0     H30233   0.624   4.448   5.077  0.3078  1.4592 -0.2186
  224MOL0     H30234   0.744   4.575   4.935 -1.7962 -0.7321 -1.0584
  224MOL0     H30235   0.837   4.423   4.879 -1.5853 -1.0806  0.9830
  224MOL0     H30236   0.859   4.539   5.154  3.9609 -0.5645  1.9467
  224MOL0     H30237   0.955   4.597   5.022 -1.5631 -0.2355 -2.6865
  224MOL0     H30238   1.115   4.204   5.054  3.1746  2.2811 -2.3459
  224MOL0     H30239   0.398   4.625   4.761  0.0384 -1.9953  1.2138
  224MOL0     H30240   0.204   4.635   4.618 -0.2764  1.5934 -1.2054
  225MOL0     O30241   1.057  11.324  10.209  0.2666  0.0823  0.0284
  225MOL0     C30242   0.947  11.288  10.249  0.9208 -0.0498 -0.6556
  225MOL0     O30243   0.894  11.170  10.232 -0.3619  0.0820  0.0344
  225MOL0     C30244   0.963  11.059  10.191  1.0162  0.7770  0.5082
  225MOL0     C30245   1.096  11.040  10.205  0.1535  0.2445 -0.3598
  225MOL0     C30246   1.147  10.928  10.137  0.2516 -0.4999  0.7017
  225MOL0     C30247   1.067  10.829  10.064 -0.1134 -0.0492 -0.2178
  225MOL0     O30248   1.112  10.746   9.975 -0.2691  0.7434  0.3860
  225MOL0     C30249   1.256  10.730   9.963  0.2043  0.4010  0.3289
  225MOL0     C30250   1.289  10.597   9.896  0.2925  0.3297 -0.3713
  225MOL0     C30251   1.434  10.566   9.899  0.5485 -0.1367  0.1025
  225MOL0     C30252   1.487  10.462   9.796  0.3637 -0.2421  0.1644
  225MOL0     C30253   1.613  10.519   9.743 -1.0229  0.1031  0.9803
  225MOL0     C30254   1.734  10.524   9.850  0.4475  0.2612  0.0586
  225MOL0     C30255   1.864  10.561   9.762 -0.4738  0.4332 -0.9668
  225MOL0     C30256   1.998  10.511   9.832  0.8109  0.6122 -0.3764
  225MOL0     N30257   2.101  10.596   9.786  0.1052  0.2061 -0.0357
  225MOL0     C30258   2.122  10.720   9.841  0.9747  0.0539  0.1589
  225MOL0     C30259   2.234  10.767   9.781 -0.2862  0.2171 -0.5717
  225MOL0     C30260   2.282  10.911   9.788  0.2044 -0.0069 -0.1313
  225MOL0     C30261   2.321  10.957   9.645  0.4452  0.1627 -0.5105
  225MOL0     C30262   2.193  10.992   9.563  0.3182 -0.0325 -0.5533
  225MOL0     C30263   2.134  10.878   9.481 -0.6303 -1.0031  0.0002
  225MOL0     O30264   2.241  10.812   9.408  0.1908  0.0853 -0.6147
  225MOL0     C30265   2.199  10.769   9.283  0.1325  0.0903 -0.6923
  225MOL0     C30266   2.298  10.774   9.185  0.8254  0.3636 -0.5197
  225MOL0     C30267   2.267  10.740   9.049 -0.0193  0.3766  0.7765
  225MOL0     C30268   2.383  10.759   8.952  0.7866 -0.8171  0.5946
  225MOL0     C30269   2.135  10.697   9.017  0.0646  0.1234  0.4019
  225MOL0     C30270   2.103  10.642   8.878  0.1106  0.3018 -0.0799
  225MOL0     O30271   1.983  10.578   8.866 -0.3932 -0.5599 -0.4943
  225MOL0     C30272   1.974  10.474   8.774 -1.1699  1.0015  0.8509
  225MOL0     C30273   1.860  10.475   8.687 -0.2664 -0.5099  0.1497
  225MOL0     C30274   1.833  10.380   8.585  0.3614 -0.1608  0.9489
  225MOL0     C30275   1.925  10.281   8.566  0.9024 -0.1056  0.2502
  225MOL0     O30276   1.904  10.180   8.475  0.0532  0.1620 -0.3428
  225MOL0     C30277   1.816  10.183   8.365  0.1097  0.0261  0.3196
  225MOL0     C30278   1.834  10.048   8.288 -0.6623 -0.3321 -0.7160
  225MOL0     C30279   1.947  10.051   8.186  0.0140  0.1294 -0.3183
  225MOL0     C30280   1.954   9.916   8.116  0.5758  0.5727 -1.2208
  225MOL0     C30281   2.067   9.914   8.013  0.0293  0.3216  0.8228
  225MOL0     C30282   2.050   9.985   7.886  0.2080  0.2658 -0.3676
  225MOL0     C30283   2.173   9.985   7.807 -0.3594 -0.4844 -0.2806
  225MOL0     C30284   2.165  10.068   7.675  0.1645  0.8619 -0.3867
  225MOL0    Cl30285   2.329  10.057   7.590  0.0771  0.2796 -0.0167
  225MOL0     C30286   2.041  10.282   8.652 -0.1765  0.1075  0.6616
  225MOL0     C30287   2.067  10.369   8.749 -0.4422 -0.1076 -0.5066
  225MOL0     O30288   2.181  10.653   8.792  0.0451 -0.1105  0.7871
  225MOL0     C30289   2.039  10.697   9.115 -0.8904  0.2354 -0.3488
  225MOL0     C30290   2.071  10.727   9.250  0.1027 -0.2133  0.5673
  225MOL0     N30291   2.271  10.664   9.695  0.7757  1.1592 -0.7859
  225MOL0     N30292   2.192  10.553   9.703 -0.3753 -0.7254 -0.2069
  225MOL0     C30293   0.930  10.844  10.079 -0.6012  0.5462 -1.1775
  225MOL0     C30294   0.879  10.952  10.139  0.3371 -0.3077 -0.2293
  225MOL0     C30295   0.849  11.380  10.309  0.1259 -0.6176  0.0311
  225MOL0     C30296   0.718  11.339  10.349 -0.5026  0.8858 -0.0511
  225MOL0     C30297   0.630  11.437  10.403  0.0827 -0.3106 -0.0882
  225MOL0     C30298   0.671  11.574  10.416  0.4927  0.0977 -0.1018
  225MOL0     O30299   0.598  11.674  10.466 -0.6587  0.1187  0.9007
  225MOL0     C30300   0.470  11.635  10.514  0.3920  0.3493  1.0404
  225MOL0     C30301   0.403  11.742  10.592  0.5301  0.9135  0.8620
  225MOL0     C30302   0.486  11.762  10.719  0.3417  0.6285 -0.3220
  225MOL0     C30303   0.429  11.884  10.807  0.5377  0.7340  0.1724
  225MOL0     C30304   0.285  11.883  10.829  0.1214 -0.6755 -0.1819
  225MOL0     C30305   0.164  11.900  10.842 -0.2473 -0.0040  0.0438
  225MOL0     C30306   0.799  11.608  10.386 -0.0523  0.4740 -0.4286
  225MOL0     C30307   0.883  11.517  10.332 -0.5931  1.1116 -0.2456
  225MOL0     H30308   1.173  11.109  10.239  0.8244  0.5237 -2.3041
  225MOL0     H30309   1.255  10.919  10.140  0.6471  2.5635 -0.3632
  225MOL0     H30310   1.292  10.814   9.903 -0.2336  0.2528 -0.1477
  225MOL0     H30311   1.303  10.737  10.061  1.7754 -0.2021 -0.3587
  225MOL0     H30312   1.238  10.513   9.944 -0.4881  0.5048 -0.8718
  225MOL0     H30313   1.248  10.589   9.795  2.6729  0.2208 -1.4003
  225MOL0     H30314   1.488  10.661   9.893 -1.2802  0.9005 -0.5761
  225MOL0     H30315   1.455  10.512   9.993 -0.6002 -2.7733 -1.0614
  225MOL0     H30316   1.495  10.366   9.849  0.1217 -0.6369 -0.5015
  225MOL0     H30317   1.418  10.450   9.712 -1.2619  0.2475  1.3771
  225MOL0     H30318   1.631  10.446   9.665 -3.6709 -0.8005  1.1150
  225MOL0     H30319   1.597  10.618   9.700  1.8477  1.8306  3.4352
  225MOL0     H30320   1.717  10.603   9.924 -1.9212 -1.3136  1.3147
  225MOL0     H30321   1.742  10.435   9.914  1.7661  0.9069  0.8344
  225MOL0     H30322   1.861  10.502   9.670  2.6379  0.3623 -1.0977
  225MOL0     H30323   1.864  10.665   9.731 -2.4299  1.6707  2.5237
  225MOL0     H30324   2.020  10.404   9.819 -1.4567  0.1365 -0.6438
  225MOL0     H30325   1.999  10.538   9.938 -0.2161  2.4859 -0.8111
  225MOL0     H30326   2.059  10.767   9.916  2.9712  1.8064  0.8292
  225MOL0     H30327   2.212  10.977   9.841  1.4440  0.8827  0.4501
  225MOL0     H30328   2.372  10.911   9.850 -1.3461 -3.6719  2.4927
  225MOL0     H30329   2.391  10.891   9.593  1.6271  1.0422 -0.0661
  225MOL0     H30330   2.383  11.046   9.660 -0.3555  0.7834 -0.7905
  225MOL0     H30331   2.206  11.075   9.493 -2.2480 -1.1551 -2.5295
  225MOL0     H30332   2.118  11.020   9.639 -3.2825 -3.2503 -2.5752
  225MOL0     H30333   2.045  10.909   9.425 -0.7714 -0.1689  0.6663
  225MOL0     H30334   2.106  10.807   9.560  1.4283 -0.3357  1.4059
  225MOL0     H30335   2.394  10.810   9.221 -1.1178  0.7965  5.1136
  225MOL0     H30336   2.433  10.663   8.939 -1.2088 -2.1821  2.2037
  225MOL0     H30337   2.350  10.795   8.854  2.0671  1.7427  1.0369
  225MOL0     H30338   2.452  10.841   8.973 -1.2590  0.9274  0.8441
  225MOL0     H30339   1.785  10.553   8.699 -3.2046 -2.9263 -1.2193
  225MOL0     H30340   1.745  10.390   8.522  0.0651 -3.3953  0.7068
  225MOL0     H30341   1.714  10.199   8.400  0.3122  4.4230 -0.5617
  225MOL0     H30342   1.840  10.265   8.296 -0.2167 -1.4556 -1.6599
  225MOL0     H30343   1.848   9.960   8.352  0.3952  1.5514  1.8192
  225MOL0     H30344   1.736  10.010   8.258 -1.6498  1.6600 -0.2565
  225MOL0     H30345   2.039  10.081   8.237 -1.0247  0.5437  1.4028
  225MOL0     H30346   1.930  10.131   8.113 -0.6423 -0.3746 -0.7298
  225MOL0     H30347   1.981   9.840   8.190  0.1398 -0.3014 -1.9286
  225MOL0     H30348   1.857   9.896   8.069  1.2684 -0.1226 -2.4375
  225MOL0     H30349   2.073   9.808   7.988  0.2354  0.8738 -1.7281
  225MOL0     H30350   2.158   9.957   8.057 -0.9078  2.2008  1.0578
  225MOL0     H30351   1.971   9.942   7.824 -0.1274  0.5740 -0.1539
  225MOL0     H30352   2.024  10.086   7.917 -1.5206 -0.7823  1.9421
  225MOL0     H30353   2.206   9.882   7.786  0.5858 -0.0272 -1.1078
  225MOL0     H30354   2.255  10.017   7.871  1.5230  0.9804 -3.2339
  225MOL0     H30355   2.144  10.170   7.709  1.8911  1.3851 -0.8013
  225MOL0     H30356   2.086  10.023   7.616  0.1778  2.0263 -1.3321
  225MOL0     H30357   2.103  10.193   8.639 -0.2596  0.1306  0.1045
  225MOL0     H30358   2.164  10.367   8.799 -0.2191  4.3068 -0.3769
  225MOL0     H30359   1.933  10.678   9.103 -0.8283  0.0718 -0.6693
  225MOL0     H30360   1.989  10.725   9.321  1.4115 -0.8573  2.1340
  225MOL0     H30361   0.865  10.772  10.028  2.2076 -3.6850  0.6814
  225MOL0     H30362   0.774  10.967  10.120  0.0342 -0.7777  0.9834
  225MOL0     H30363   0.685  11.237  10.329 -0.4544  0.2395  2.6722
  225MOL0     H30364   0.526  11.410  10.420 -1.2291  4.0052  0.0146
  225MOL0     H30365   0.412  11.617  10.423  0.4684 -2.9617  1.5271
  225MOL0     H30366   0.479  11.547  10.578 -0.5335 -2.2786 -2.1427
  225MOL0     H30367   0.299  11.714  10.614 -0.4186  2.8641 -0.7327
  225MOL0     H30368   0.402  11.831  10.528 -2.7040 -0.0919 -0.7514
  225MOL0     H30369   0.587  11.793  10.692  0.6667  0.0907  0.2619
  225MOL0     H30370   0.481  11.669  10.775  0.4076  0.6647 -0.2565
  225MOL0     H30371   0.458  11.973  10.750 -1.0602  1.2341  0.0789
  225MOL0     H30372   0.472  11.881  10.907 -0.0424  1.3363  0.4521
  225MOL0     H30373   0.058  11.913  10.843 -0.3094  1.5560 -4.0874
  225MOL0     H30374   0.839  11.709  10.396  1.1285  0.2829 -2.5480
  225MOL0     H30375   0.975  11.551  10.284 -0.2108  1.1951  0.5285
  226MOL0     O30376   6.920   2.666   1.135 -0.5187  0.7499 -0.7284
  226MOL0     C30377   6.963   2.622   1.030 -0.3918 -0.5136 -0.2084
  226MOL0     O30378   7.055   2.681   0.945  0.2625  0.1879  0.2760
  226MOL0     C30379   7.080   2.818   0.965 -0.2400  0.6747  1.0532
  226MOL0     C30380   6.984   2.910   0.931 -0.5747 -0.2993  0.1242
  226MOL0     C30381   7.007   3.048   0.964 -0.2150 -0.0496  0.8985
  226MOL0     C30382   7.125   3.088   1.034 -0.5685  0.3271  0.5313
  226MOL0     O30383   7.147   3.215   1.084 -0.5250  0.4801  0.9073
  226MOL0     C30384   7.057   3.321   1.068  1.2203  0.3027  0.3494
  226MOL0     C30385   7.098   3.446   1.146 -0.5692  0.5240  0.2793
  226MOL0     C30386   7.023   3.571   1.102  0.3439 -0.0764  0.2758
  226MOL0     C30387   7.055   3.706   1.167 -0.1784  0.0706 -0.1732
  226MOL0     C30388   7.091   3.682   1.325 -0.9741 -0.5919 -0.5287
  226MOL0     C30389   7.064   3.809   1.408 -0.0877 -0.2814 -0.0481
  226MOL0     C30390   7.034   3.769   1.551  0.8054 -0.1079  0.3176
  226MOL0     C30391   7.031   3.884   1.650  0.2990 -0.4748  0.2507
  226MOL0     N30392   7.166   3.952   1.667 -0.0875 -0.2019  0.0290
  226MOL0     C30393   7.253   3.912   1.768 -1.2107  0.1022  0.1855
  226MOL0     C30394   7.350   4.011   1.767 -0.1091 -0.7395 -0.6041
  226MOL0     C30395   7.476   4.021   1.842 -0.0872  0.7549 -0.3595
  226MOL0     C30396   7.513   4.171   1.858  0.3293  0.2462  0.5024
  226MOL0     C30397   7.644   4.194   1.928 -0.5732  0.0593 -0.2658
  226MOL0     C30398   7.644   4.214   2.086  0.3687 -0.9945 -0.2805
  226MOL0     O30399   7.776   4.256   2.127 -0.6891 -0.7864 -0.1859
  226MOL0     C30400   7.772   4.303   2.256 -0.2332  0.6995 -0.7871
  226MOL0     C30401   7.778   4.213   2.360 -0.5587 -0.3552 -0.0048
  226MOL0     C30402   7.763   4.257   2.498  0.5171  0.6640  0.4680
  226MOL0     C30403   7.778   4.147   2.603 -0.0131 -0.0123  0.3462
  226MOL0     C30404   7.723   4.390   2.524 -0.6317 -0.1479  0.7821
  226MOL0     C30405   7.716   4.444   2.657 -0.2879  1.8355 -0.2882
  226MOL0     O30406   7.743   4.355   2.766 -0.1797 -0.3617  0.0312
  226MOL0     C30407   7.782   4.408   2.894  0.0697 -0.4335  0.5991
  226MOL0     C30408   7.838   4.530   2.925 -0.3169  0.1489  0.5111
  226MOL0     C30409   7.873   4.559   3.054  0.3991 -0.3364  0.1498
  226MOL0     C30410   7.857   4.464   3.157  0.0588 -0.3013  0.6474
  226MOL0     O30411   7.889   4.489   3.290 -0.2286 -0.6500  0.2348
  226MOL0     C30412   7.859   4.618   3.334  0.1770 -0.7493 -0.5398
  226MOL0     C30413   7.889   4.621   3.487 -0.4871 -0.5024  0.0675
  226MOL0     C30414   7.871   4.506   3.578  0.4059 -0.0168  0.3707
  226MOL0     C30415   7.876   4.552   3.716 -0.0403 -0.7057 -0.5313
  226MOL0     C30416   7.838   4.439   3.814  0.1385 -0.7803  0.0687
  226MOL0     C30417   7.903   4.447   3.957 -0.0263  0.6121  0.0975
  226MOL0     C30418   7.877   4.574   4.030  0.3600  0.2245 -0.2583
  226MOL0     C30419   7.960   4.589   4.152 -0.1602  0.1832 -0.3269
  226MOL0    Cl30420   7.916   4.736   4.230  0.4030 -0.4637  0.2674
  226MOL0     C30421   7.804   4.342   3.125  0.1813  1.0122  0.2338
  226MOL0     C30422   7.772   4.308   2.993  0.5758 -0.4454 -0.1348
  226MOL0     O30423   7.689   4.560   2.667  0.3326 -0.5704  0.0878
  226MOL0     C30424   7.721   4.476   2.407 -0.2363  0.1528 -1.3298
  226MOL0     C30425   7.769   4.431   2.281  0.5092 -0.5828 -0.8369
  226MOL0     N30426   7.320   4.110   1.674  0.1454 -0.0088  0.4675
  226MOL0     N30427   7.210   4.072   1.618  0.5645 -0.3682  0.5481
  226MOL0     C30428   7.216   2.989   1.067  0.0580  1.8071  0.3418
  226MOL0     C30429   7.199   2.854   1.027 -0.2690  0.1789  0.8759
  226MOL0     C30430   6.930   2.474   1.002 -0.5677  0.4131  1.0647
  226MOL0     C30431   6.864   2.396   1.095 -0.3694 -0.0180  0.5167
  226MOL0     C30432   6.840   2.263   1.068  0.1062  0.5008 -0.2286
  226MOL0     C30433   6.886   2.209   0.950 -0.2235  0.7518 -0.5342
  226MOL0     O30434   6.853   2.079   0.919 -0.7478 -0.0983  0.4572
  226MOL0     C30435   6.733   2.065   0.840  1.4266 -0.7183 -0.0411
  226MOL0     C30436   6.760   2.063   0.693  0.7562 -0.0138  0.2879
  226MOL0     C30437   6.810   1.936   0.633 -0.0218  0.6234  0.4429
  226MOL0     C30438   6.962   1.939   0.590 -0.0975  0.5325 -0.4631
  226MOL0     C30439   7.035   1.955   0.714  0.1593  0.2827 -0.0961
  226MOL0     C30440   7.091   1.959   0.819  0.8431  0.1308  0.6543
  226MOL0     C30441   6.959   2.278   0.856  0.0355  0.1199  0.1826
  226MOL0     C30442   6.984   2.407   0.877  0.5114  0.6756 -0.7922
  226MOL0     H30443   6.888   2.876   0.894 -1.0518  1.2211 -0.0991
  226MOL0     H30444   6.933   3.119   0.928 -1.2052 -1.7172 -0.5362
  226MOL0     H30445   7.044   3.359   0.966 -0.3570 -0.5177  0.2158
  226MOL0     H30446   6.962   3.278   1.101  2.2816 -2.7894 -0.3225
  226MOL0     H30447   7.075   3.428   1.252 -0.0868 -2.8659 -0.0940
  226MOL0     H30448   7.206   3.459   1.139 -0.3196  0.2869  2.7058
  226MOL0     H30449   7.029   3.581   0.993  2.3958 -0.3231  0.3205
  226MOL0     H30450   6.920   3.535   1.113  0.2520  0.4567  1.2745
  226MOL0     H30451   7.142   3.736   1.109 -1.1588 -0.5354 -2.0365
  226MOL0     H30452   6.978   3.780   1.144 -1.9354 -2.1123 -1.7932
  226MOL0     H30453   7.018   3.608   1.359 -1.6263  1.8019  4.0626
  226MOL0     H30454   7.192   3.645   1.344 -0.0820  0.1271 -3.3568
  226MOL0     H30455   7.146   3.881   1.403 -3.3037  3.7879  0.0665
  226MOL0     H30456   6.973   3.851   1.363  0.4371  2.1051  0.9796
  226MOL0     H30457   6.936   3.720   1.551  1.0923 -0.7886 -1.7360
  226MOL0     H30458   7.107   3.698   1.590  2.3463  0.7598 -0.8691
  226MOL0     H30459   6.999   3.847   1.748 -1.0620 -0.9582 -0.3478
  226MOL0     H30460   6.952   3.952   1.616  1.4343 -0.0702 -1.7469
  226MOL0     H30461   7.240   3.830   1.839  3.8569  0.5547  2.0413
  226MOL0     H30462   7.457   3.981   1.941 -2.2578  0.8038 -0.7206
  226MOL0     H30463   7.555   3.973   1.783  0.5328 -0.0176  1.0597
  226MOL0     H30464   7.433   4.221   1.913 -0.8340  0.1390 -1.0297
  226MOL0     H30465   7.535   4.221   1.763  0.2944 -0.6598  0.0009
  226MOL0     H30466   7.690   4.286   1.891  1.3664 -0.8506 -0.2426
  226MOL0     H30467   7.715   4.124   1.882 -2.0638 -1.1454 -0.8077
  226MOL0     H30468   7.627   4.124   2.145 -0.5416  0.6146  2.0295
  226MOL0     H30469   7.573   4.293   2.113  0.4986 -0.4186 -1.5456
  226MOL0     H30470   7.783   4.107   2.336 -4.3092 -1.2329  2.3196
  226MOL0     H30471   7.688   4.157   2.664 -1.8679  2.6931 -2.5456
  226MOL0     H30472   7.795   4.051   2.552  0.3246  1.2036 -1.9981
  226MOL0     H30473   7.869   4.160   2.662  0.6706 -1.7534 -0.2591
  226MOL0     H30474   7.833   4.611   2.852 -1.8625  3.2312  3.6903
  226MOL0     H30475   7.904   4.662   3.070 -2.4736  1.0712 -2.1940
  226MOL0     H30476   7.942   4.683   3.306 -0.4184  0.4691  0.3913
  226MOL0     H30477   7.762   4.668   3.323  1.2451  2.5747  2.7790
  226MOL0     H30478   7.993   4.649   3.502  0.0244 -3.3022  3.0165
  226MOL0     H30479   7.829   4.699   3.533  1.8307  2.0140 -0.9513
  226MOL0     H30480   7.939   4.423   3.554  0.4392 -0.4117  1.7279
  226MOL0     H30481   7.769   4.466   3.569  0.5976 -1.0192  2.1381
  226MOL0     H30482   7.975   4.591   3.741 -0.2909 -1.4162  1.7119
  226MOL0     H30483   7.807   4.636   3.729  0.7333  0.1700 -1.8005
  226MOL0     H30484   7.884   4.346   3.780  2.4183 -0.0208  0.8786
  226MOL0     H30485   7.730   4.434   3.828  0.1430  0.6178  0.7840
  226MOL0     H30486   7.862   4.365   4.017 -1.8865  2.5946  1.7195
  226MOL0     H30487   8.011   4.433   3.949  0.3767 -0.4308  4.6298
  226MOL0     H30488   7.771   4.600   4.042  0.3829  0.5226 -0.6644
  226MOL0     H30489   7.911   4.652   3.961 -0.7038  0.6168 -0.3627
  226MOL0     H30490   8.063   4.577   4.116 -0.3546 -1.7562 -0.3912
  226MOL0     H30491   7.945   4.501   4.216 -1.5586 -0.9945 -2.1610
  226MOL0     H30492   7.815   4.263   3.199 -2.6154 -0.1238 -0.4391
  226MOL0     H30493   7.733   4.208   2.974  0.8533 -0.6838  0.5103
  226MOL0     H30494   7.697   4.582   2.412 -2.3710 -0.3431  1.2402
  226MOL0     H30495   7.781   4.501   2.199  1.7515 -1.9656 -1.8856
  226MOL0     H30496   7.305   3.024   1.119  3.8123  2.3505 -5.5209
  226MOL0     H30497   7.269   2.776   1.055 -2.3935 -2.7744 -1.2992
  226MOL0     H30498   6.824   2.441   1.185 -2.0458  0.3086 -0.3447
  226MOL0     H30499   6.773   2.206   1.132  0.5471  0.2140 -0.0135
  226MOL0     H30500   6.660   1.985   0.855  0.9043 -0.2832 -0.2317
  226MOL0     H30501   6.684   2.162   0.855  2.1046 -0.1490 -1.3688
  226MOL0     H30502   6.827   2.145   0.666 -0.1029  2.2772  4.3104
  226MOL0     H30503   6.671   2.093   0.637  0.5636  0.8326  1.0236
  226MOL0     H30504   6.753   1.931   0.540 -1.2413  3.6704  0.9136
  226MOL0     H30505   6.789   1.849   0.696 -1.7277 -0.9604 -2.0964
  226MOL0     H30506   6.992   2.024   0.529  3.0078 -0.0431  0.1083
  226MOL0     H30507   6.986   1.845   0.540  1.3134  1.6317 -1.9489
  226MOL0     H30508   7.132   1.956   0.918  2.3381  2.0023  0.1560
  226MOL0     H30509   6.980   2.217   0.769  0.3785  1.9091 -1.0542
  226MOL0     H30510   7.048   2.467   0.813 -0.0750  0.6144 -1.4453
  227MOL0     O30511   9.808   3.417   9.413 -0.2884 -0.5347  0.2313
  227MOL0     C30512   9.819   3.352   9.512  0.1488  0.0500  0.3295
  227MOL0     O30513   9.844   3.401   9.630 -0.0451  0.4889 -0.7202
  227MOL0     C30514   9.888   3.534   9.645 -0.8233  0.2666  0.4213
  227MOL0     C30515   9.959   3.616   9.548  0.1408 -0.5531 -0.1010
  227MOL0     C30516   9.988   3.746   9.578 -1.6648 -0.2066  0.1970
  227MOL0     C30517   9.931   3.806   9.695  0.4902  0.0549  0.8829
  227MOL0     O30518   9.924   3.938   9.711 -0.0593  0.0397 -0.4630
  227MOL0     C30519   9.798   4.009   9.717  0.0191 -0.3751 -0.5221
  227MOL0     C30520   9.822   4.161   9.740 -0.0408 -0.7354  0.3426
  227MOL0     C30521   9.696   4.236   9.703 -0.3181 -0.0016 -0.9750
  227MOL0     C30522   9.713   4.383   9.744 -0.5485  0.2013 -0.4251
  227MOL0     C30523   9.596   4.483   9.741 -0.1262 -0.3050  0.0188
  227MOL0     C30524   9.512   4.487   9.609 -0.2954  0.0103  0.7775
  227MOL0     C30525   9.371   4.555   9.641 -0.1708  0.5482 -0.4951
  227MOL0     C30526   9.248   4.463   9.670 -0.3648  0.7654 -0.9921
  227MOL0     N30527   9.242   4.404   9.810 -0.4932 -0.0087  0.4004
  227MOL0     C30528   9.325   4.309   9.857 -0.2175  0.1231  1.1250
  227MOL0     C30529   9.308   4.303   9.988 -0.4537 -0.0340 -0.0237
  227MOL0     C30530   9.375   4.207  10.084  0.2397  1.0984 -1.0772
  227MOL0     C30531   9.463   4.275  10.202 -0.3879 -0.4939  1.2537
  227MOL0     C30532   9.583   4.355  10.146 -1.0551  0.1540 -0.4348
  227MOL0     C30533   9.674   4.381  10.257 -1.0844 -0.6845  0.1152
  227MOL0     O30534   9.798   4.419  10.193  0.3463  0.2870 -0.2814
  227MOL0     C30535   9.905   4.419  10.279  0.0225 -0.3332 -0.5823
  227MOL0     C30536   9.891   4.484  10.401  0.0073 -0.0374 -0.7515
  227MOL0     C30537   9.999   4.491  10.488 -0.2391 -0.7611  0.4397
  227MOL0     C30538   9.986   4.568  10.605  1.1125  0.5853  0.1998
  227MOL0     C30539  10.121   4.426  10.446  0.5502  0.2832  0.7015
  227MOL0     C30540  10.244   4.423  10.528  0.0598  0.6601 -0.6164
  227MOL0     O30541  10.348   4.465  10.449  0.1452  0.4742 -0.6647
  227MOL0     C30542  10.470   4.454  10.524  0.7035 -0.5878  0.6060
  227MOL0     C30543  10.537   4.334  10.504 -0.1830 -0.1700  0.0902
  227MOL0     C30544  10.642   4.296  10.594  0.8084  0.1324  0.3682
  227MOL0     C30545  10.691   4.387  10.689  0.2434  1.1157 -0.3327
  227MOL0     O30546  10.797   4.356  10.772 -0.6205 -0.1862 -0.1133
  227MOL0     C30547  10.743   4.278  10.872 -1.2296 -0.4079  0.1828
  227MOL0     C30548  10.831   4.276  10.993 -0.0142 -0.0530 -0.4501
  227MOL0     C30549  10.965   4.198  10.983 -0.5981 -0.0032 -0.9218
  227MOL0     C30550  11.059   4.242  11.097  0.3901  0.5447 -0.8938
  227MOL0     C30551  11.206   4.216  11.054 -0.3259 -0.8755 -0.2704
  227MOL0     C30552  11.310   4.260  11.168 -0.0140 -0.0784 -0.1915
  227MOL0     C30553  11.452   4.241  11.108 -0.3497 -0.2459 -0.6808
  227MOL0     C30554  11.568   4.273  11.206  0.2002 -0.3210 -0.1914
  227MOL0    Cl30555  11.581   4.146  11.329  0.0154  0.1722  0.0978
  227MOL0     C30556  10.622   4.505  10.710  0.8348  0.2279 -0.1700
  227MOL0     C30557  10.516   4.543  10.628  0.6517 -0.3538  0.2762
  227MOL0     O30558  10.253   4.359  10.633  0.5837 -0.0356 -0.5080
  227MOL0     C30559  10.122   4.359  10.324 -0.5094  1.2737 -0.2909
  227MOL0     C30560  10.020   4.346  10.243  0.1618  0.5332 -0.2594
  227MOL0     N30561   9.197   4.372  10.020  0.4649  0.3304  0.2129
  227MOL0     N30562   9.160   4.427   9.915  0.4637  0.4960  0.0444
  227MOL0     C30563   9.869   3.727   9.781  0.2193  0.7989  0.1688
  227MOL0     C30564   9.860   3.582   9.769 -0.4933 -0.7693 -0.1148
  227MOL0     C30565   9.801   3.196   9.504  0.0042  0.1548  0.4767
  227MOL0     C30566   9.783   3.132   9.386  0.0452 -0.7276  0.2282
  227MOL0     C30567   9.793   2.992   9.383 -0.0526  0.2082  0.5709
  227MOL0     C30568   9.826   2.915   9.492 -0.3422  0.5692 -0.0813
  227MOL0     O30569   9.843   2.772   9.477 -0.1681  0.4985  0.3176
  227MOL0     C30570   9.903   2.705   9.590  0.3471 -0.9142  0.4538
  227MOL0     C30571   9.970   2.568   9.552  0.6977 -0.2968  0.1635
  227MOL0     C30572  10.077   2.598   9.438  0.6722  1.5005 -0.0188
  227MOL0     C30573  10.169   2.478   9.414 -0.4887 -0.5258 -1.1551
  227MOL0     C30574  10.235   2.425   9.539  0.6912  0.1566  0.8277
  227MOL0     C30575  10.304   2.399   9.631  0.1866 -0.1991  0.8182
  227MOL0     C30576   9.835   2.991   9.613  0.1073 -0.2985 -0.1722
  227MOL0     C30577   9.823   3.125   9.616  0.7995 -0.2878  0.1384
  227MOL0     H30578   9.990   3.577   9.452  0.3562  0.8392 -0.6216
  227MOL0     H30579  10.044   3.803   9.505  2.9420 -2.2511  1.7354
  227MOL0     H30580   9.760   4.002   9.614  2.2300  0.6728 -1.4687
  227MOL0     H30581   9.730   3.975   9.795  1.1687 -0.7110  0.3657
  227MOL0     H30582   9.845   4.182   9.845 -4.3643  1.0121  1.1460
  227MOL0     H30583   9.893   4.199   9.666 -0.8762  0.1735 -0.0053
  227MOL0     H30584   9.691   4.239   9.594  0.2573 -1.4081 -1.0569
  227MOL0     H30585   9.616   4.183   9.755  2.6523 -0.1643  4.1554
  227MOL0     H30586   9.744   4.376   9.848 -1.8982 -2.2364 -0.1090
  227MOL0     H30587   9.790   4.421   9.676  1.5612 -4.1471 -0.8144
  227MOL0     H30588   9.529   4.450   9.821 -1.3975  0.5590 -0.6652
  227MOL0     H30589   9.636   4.582   9.764  0.9809 -0.3584 -1.5602
  227MOL0     H30590   9.566   4.544   9.533 -0.6980  1.3923  1.4704
  227MOL0     H30591   9.501   4.385   9.573 -1.2580  0.3750 -0.0286
  227MOL0     H30592   9.376   4.637   9.713 -2.2311  0.8993 -0.6887
  227MOL0     H30593   9.349   4.607   9.548  0.3406 -0.2576 -1.0795
  227MOL0     H30594   9.236   4.376   9.604 -2.0882  0.7089 -0.6515
  227MOL0     H30595   9.166   4.533   9.654 -0.1714  1.0647 -0.6764
  227MOL0     H30596   9.403   4.255   9.803 -0.6966  0.5762 -0.0476
  227MOL0     H30597   9.287   4.156  10.124  2.2632 -1.6819  0.1530
  227MOL0     H30598   9.442   4.130  10.043  0.7926 -0.3899  2.3225
  227MOL0     H30599   9.509   4.198  10.265  1.0467 -0.7976 -0.0865
  227MOL0     H30600   9.395   4.335  10.264 -0.1637 -0.6691  1.6777
  227MOL0     H30601   9.552   4.448  10.097 -1.4264  0.3121  0.0961
  227MOL0     H30602   9.636   4.309  10.062 -0.5559 -2.9335  1.4143
  227MOL0     H30603   9.684   4.291  10.318 -2.0625  0.6595  2.3972
  227MOL0     H30604   9.632   4.453  10.327  0.1189 -0.1294  0.2803
  227MOL0     H30605   9.799   4.538  10.421  0.1877  0.3010 -0.8340
  227MOL0     H30606  10.074   4.629  10.627 -1.0521  3.9151  0.3740
  227MOL0     H30607   9.903   4.640  10.600  1.5493  1.3658  2.7265
  227MOL0     H30608   9.958   4.504  10.689 -0.3301 -3.1956 -2.8928
  227MOL0     H30609  10.500   4.270  10.425  1.6370 -0.2158 -0.7867
  227MOL0     H30610  10.694   4.203  10.575 -1.2256 -0.5587 -2.5029
  227MOL0     H30611  10.642   4.306  10.902 -1.4241 -1.1407  0.2228
  227MOL0     H30612  10.748   4.182  10.820  3.1912  1.1972 -2.9615
  227MOL0     H30613  10.842   4.374  11.040  1.1091 -1.7596  3.2816
  227MOL0     H30614  10.768   4.225  11.066 -2.0983  3.0030  0.0637
  227MOL0     H30615  11.012   4.208  10.885  1.0508 -2.2497 -0.4368
  227MOL0     H30616  10.958   4.089  10.978  2.6226 -0.5497  2.2589
  227MOL0     H30617  11.053   4.349  11.117  0.7874  0.3432  0.4125
  227MOL0     H30618  11.027   4.180  11.182 -2.0323 -1.0824 -2.8595
  227MOL0     H30619  11.227   4.280  10.968  1.4773  0.6023  1.1941
  227MOL0     H30620  11.207   4.109  11.029  1.1757 -1.0169  0.3128
  227MOL0     H30621  11.288   4.365  11.188 -2.0849  0.3056 -3.7921
  227MOL0     H30622  11.305   4.209  11.265  1.5460 -0.2832 -0.1868
  227MOL0     H30623  11.458   4.319  11.032  0.0479 -0.1557 -0.5586
  227MOL0     H30624  11.465   4.142  11.063  0.0560 -0.7306  0.4695
  227MOL0     H30625  11.544   4.366  11.257  0.2096 -0.4119 -0.0205
  227MOL0     H30626  11.665   4.268  11.156  0.7572 -2.3027  0.9458
  227MOL0     H30627  10.643   4.587  10.778 -4.0340  1.1189  0.6199
  227MOL0     H30628  10.442   4.622  10.628  0.0207 -0.9035 -1.5076
  227MOL0     H30629  10.215   4.307  10.302 -2.6894 -3.6714  0.6209
  227MOL0     H30630  10.015   4.283  10.155 -2.0374  1.3167 -0.7673
  227MOL0     H30631   9.853   3.766   9.881  2.8490 -1.7037  1.7358
  227MOL0     H30632   9.806   3.520   9.840  0.8198 -2.4010 -0.4956
  227MOL0     H30633   9.760   3.185   9.294  0.6162 -1.0914 -0.1293
  227MOL0     H30634   9.786   2.958   9.280 -2.1983  3.6394 -0.5954
  227MOL0     H30635   9.986   2.760   9.634  1.4238 -2.9428  1.0422
  227MOL0     H30636   9.821   2.680   9.658  0.8134 -1.6937  0.7430
  227MOL0     H30637   9.900   2.488   9.525  0.5784  0.1445 -0.8945
  227MOL0     H30638  10.022   2.544   9.645  1.3490 -1.5513 -0.4936
  227MOL0     H30639  10.139   2.678   9.480  0.7933  0.1406  2.5967
  227MOL0     H30640  10.035   2.629   9.342  0.3315  2.2740  0.3718
  227MOL0     H30641  10.257   2.511   9.357  1.1324 -1.1801  0.8067
  227MOL0     H30642  10.121   2.393   9.365 -0.3063 -1.4653  0.2272
  227MOL0     H30643  10.371   2.391   9.713  0.0376 -3.0416  0.7644
  227MOL0     H30644   9.822   2.940   9.708  0.4877  1.7445  1.0285
  227MOL0     H30645   9.822   3.167   9.716 -0.4471 -0.6784  0.3118
  228MOL0     O30646   2.135   2.802   2.103 -0.0489 -0.4519 -0.7094
  228MOL0     C30647   2.241   2.852   2.073 -0.6221 -0.4963 -0.7013
  228MOL0     O30648   2.260   2.942   1.972 -0.1868  0.1575 -0.2522
  228MOL0     C30649   2.161   2.954   1.876 -0.6138  0.7580  0.4530
  228MOL0     C30650   2.033   2.988   1.911 -0.6765 -0.4910  0.0724
  228MOL0     C30651   1.942   2.991   1.815  1.2524  0.1791  0.0004
  228MOL0     C30652   1.970   2.962   1.684  0.7746 -0.9952 -0.4767
  228MOL0     O30653   1.873   2.990   1.586 -0.1826 -0.2470 -0.4901
  228MOL0     C30654   1.871   3.117   1.523 -0.8450  0.5188  0.7559
  228MOL0     C30655   1.863   3.095   1.377 -0.2935 -0.5544  0.4308
  228MOL0     C30656   1.718   3.065   1.324  0.2877  0.1642 -1.4017
  228MOL0     C30657   1.718   3.035   1.172 -0.6801 -0.2206 -0.8823
  228MOL0     C30658   1.585   3.019   1.100  1.1622 -0.0157  0.3447
  228MOL0     C30659   1.501   2.900   1.139 -0.3757  0.2499  0.8193
  228MOL0     C30660   1.353   2.897   1.080 -0.1458 -0.1857  0.6606
  228MOL0     C30661   1.287   3.025   1.118  0.3503  0.2941  0.2949
  228MOL0     N30662   1.135   3.011   1.100 -0.5796 -0.4335  0.2358
  228MOL0     C30663   1.064   3.045   0.988 -0.0024 -0.0308 -0.2647
  228MOL0     C30664   0.934   3.031   1.022 -1.0004  0.0797  0.1555
  228MOL0     C30665   0.832   3.061   0.923  0.0322 -0.0651  0.9039
  228MOL0     C30666   0.857   3.016   0.774  0.2605 -0.4785 -0.5032
  228MOL0     C30667   0.720   3.027   0.713  0.3836  0.2261  0.4355
  228MOL0     C30668   0.723   2.974   0.573 -1.1917  0.0843  0.6655
  228MOL0     O30669   0.797   3.059   0.486 -0.8820 -0.2454  0.3541
  228MOL0     C30670   0.937   3.045   0.483 -1.3582  0.5598 -0.7682
  228MOL0     C30671   1.013   3.152   0.427 -0.9891 -0.5571  0.0545
  228MOL0     C30672   1.157   3.152   0.405  0.2567 -0.5967  0.9989
  228MOL0     C30673   1.227   3.263   0.336  0.5516 -0.7023 -0.2001
  228MOL0     C30674   1.223   3.034   0.444  0.6862  0.3205  0.1915
  228MOL0     C30675   1.358   3.014   0.414 -0.7947  0.5999  0.5301
  228MOL0     O30676   1.388   3.019   0.277 -0.7698  0.6274  0.1799
  228MOL0     C30677   1.511   2.982   0.224 -0.2960 -0.9260 -0.1974
  228MOL0     C30678   1.561   2.857   0.256  0.1780  0.5814 -0.0476
  228MOL0     C30679   1.664   2.806   0.176 -0.0257 -0.0203  0.3472
  228MOL0     C30680   1.742   2.884   0.101 -0.0445  0.4271 -0.9872
  228MOL0     O30681   1.837   2.807   0.024 -0.2551 -0.2579  0.5290
  228MOL0     C30682   1.918   2.888  -0.068  0.3993  0.8911  0.0628
  228MOL0     C30683   2.026   2.794  -0.122  0.1706 -0.2756  1.2644
  228MOL0     C30684   2.130   2.733  -0.024  0.0559  0.5930 -0.0872
  228MOL0     C30685   2.145   2.814   0.104  0.6425  0.5293 -0.9378
  228MOL0     C30686   2.247   2.732   0.182  0.7064  0.2553  0.9211
  228MOL0     C30687   2.300   2.803   0.309 -0.1916 -0.5149 -0.6388
  228MOL0     C30688   2.378   2.705   0.396 -0.0103  1.1230 -0.7504
  228MOL0     C30689   2.415   2.782   0.518  0.8853  0.0794  0.1564
  228MOL0    Cl30690   2.523   2.912   0.491 -0.2164  0.2409  0.3604
  228MOL0     C30691   1.696   3.013   0.080 -0.1988 -0.6295 -0.0699
  228MOL0     C30692   1.582   3.063   0.133  0.4067  0.4669 -0.2929
  228MOL0     O30693   1.441   2.992   0.506  0.0432 -0.7450 -0.2429
  228MOL0     C30694   1.148   2.923   0.482  0.1026  1.1390 -0.5510
  228MOL0     C30695   1.011   2.934   0.513  1.4098 -0.5615  0.6367
  228MOL0     N30696   0.928   2.988   1.149  1.0133 -0.2483  0.0412
  228MOL0     N30697   1.044   2.973   1.191 -0.9106  0.8315  0.4873
  228MOL0     C30698   2.093   2.914   1.647  0.5627 -0.7181  1.0310
  228MOL0     C30699   2.196   2.907   1.738 -0.3394 -0.1126 -0.5885
  228MOL0     C30700   2.366   2.800   2.141  0.4367  1.3355  0.4115
  228MOL0     C30701   2.365   2.681   2.211  0.5542  0.0242 -0.1611
  228MOL0     C30702   2.477   2.648   2.289 -0.2099 -0.1666 -0.4475
  228MOL0     C30703   2.588   2.729   2.284  0.5277 -0.3235  0.5925
  228MOL0     O30704   2.688   2.713   2.379  0.3233  0.0514 -0.2637
  228MOL0     C30705   2.818   2.680   2.324  0.7556 -0.2231  0.2356
  228MOL0     C30706   2.822   2.537   2.256 -0.1820  0.1557 -0.8149
  228MOL0     C30707   2.958   2.511   2.187  0.0001 -0.4126 -0.0669
  228MOL0     C30708   2.961   2.586   2.052 -0.1479 -0.2370  0.7031
  228MOL0     C30709   3.086   2.612   1.984 -1.1168  0.6775  0.3643
  228MOL0     C30710   3.194   2.640   1.936 -0.1456 -0.8564  0.3362
  228MOL0     C30711   2.580   2.850   2.213 -0.6732  0.5375  0.2850
  228MOL0     C30712   2.476   2.875   2.130  0.0700 -0.1239 -0.4148
  228MOL0     H30713   2.004   3.014   2.012  0.9643  0.4581  0.3373
  228MOL0     H30714   1.846   3.029   1.849  1.3288 -1.0457  1.7004
  228MOL0     H30715   1.790   3.183   1.554 -1.3121  0.0241  0.6196
  228MOL0     H30716   1.959   3.176   1.549  0.0551  0.5344 -2.0025
  228MOL0     H30717   1.910   3.185   1.338  3.2445 -1.4593  2.2204
  228MOL0     H30718   1.927   3.012   1.347  2.6026  2.0464 -1.1035
  228MOL0     H30719   1.673   2.973   1.363  0.0650 -0.0671 -2.1704
  228MOL0     H30720   1.646   3.144   1.345  1.2529  0.8057 -0.3977
  228MOL0     H30721   1.776   3.114   1.124  1.6411 -0.7975  0.8208
  228MOL0     H30722   1.769   2.939   1.161 -0.2934 -0.2911  1.1909
  228MOL0     H30723   1.534   3.116   1.111 -0.8497 -0.9102 -0.6031
  228MOL0     H30724   1.604   3.017   0.992  2.8376  1.2176  0.5829
  228MOL0     H30725   1.550   2.816   1.090 -1.9219  0.4958 -1.2878
  228MOL0     H30726   1.502   2.892   1.248 -1.4122  1.3224  0.9248
  228MOL0     H30727   1.347   2.889   0.971  1.6726  0.5745  0.4704
  228MOL0     H30728   1.304   2.810   1.124  1.9966 -0.6218  2.3566
  228MOL0     H30729   1.330   3.104   1.055 -1.1041  1.1417  0.3283
  228MOL0     H30730   1.323   3.046   1.219  4.9361 -0.2091 -1.0023
  228MOL0     H30731   1.099   3.065   0.887  1.3974  0.4712  0.2869
  228MOL0     H30732   0.738   3.011   0.951 -0.1198 -1.4523 -1.7318
  228MOL0     H30733   0.804   3.167   0.925 -0.7307 -0.0718 -2.7115
  228MOL0     H30734   0.882   2.911   0.758 -1.3322 -0.6647 -2.0804
  228MOL0     H30735   0.924   3.094   0.735  2.1020  0.3603  3.7056
  228MOL0     H30736   0.695   3.134   0.717  1.6054  0.6551 -1.6970
  228MOL0     H30737   0.643   2.975   0.769 -0.5139  0.9668 -0.0708
  228MOL0     H30738   0.620   2.968   0.536 -0.2806 -1.3004 -1.8537
  228MOL0     H30739   0.761   2.872   0.567  2.9881  1.5384 -2.8602
  228MOL0     H30740   0.948   3.233   0.396 -0.3369  0.1891  0.5935
  228MOL0     H30741   1.247   3.231   0.233 -1.7577 -0.6898 -0.7008
  228MOL0     H30742   1.156   3.346   0.329  1.0767 -0.2471 -0.1980
  228MOL0     H30743   1.315   3.291   0.394 -0.3044  2.0128 -0.0736
  228MOL0     H30744   1.507   2.790   0.321  2.1846 -1.3343 -0.2731
  228MOL0     H30745   1.689   2.701   0.182 -1.6342 -0.3685  2.3699
  228MOL0     H30746   1.846   2.910  -0.148 -0.4735 -2.5130 -0.2717
  228MOL0     H30747   1.963   2.976  -0.022  0.1374  0.6708  0.7515
  228MOL0     H30748   1.976   2.705  -0.163 -3.4294  2.5690 -1.2299
  228MOL0     H30749   2.086   2.845  -0.197  0.7900  0.3738  2.1841
  228MOL0     H30750   2.224   2.705  -0.073 -1.5085 -0.3401 -2.7694
  228MOL0     H30751   2.082   2.637  -0.006  2.9614 -0.7514  1.0780
  228MOL0     H30752   2.182   2.916   0.089  2.3181  0.0189 -0.4556
  228MOL0     H30753   2.051   2.807   0.161  0.7530 -1.0302 -0.9049
  228MOL0     H30754   2.336   2.722   0.119  0.0942  2.6738 -0.4245
  228MOL0     H30755   2.207   2.634   0.212 -0.8669 -0.1585 -2.1907
  228MOL0     H30756   2.364   2.890   0.287 -2.3060  0.7617 -2.1642
  228MOL0     H30757   2.220   2.857   0.360 -1.3731  1.8555 -4.5404
  228MOL0     H30758   2.467   2.662   0.349  1.1917 -0.3900  2.6357
  228MOL0     H30759   2.320   2.614   0.410 -1.8245  1.7853 -3.2587
  228MOL0     H30760   2.460   2.731   0.605 -1.0631  3.3295  3.3459
  228MOL0     H30761   2.319   2.817   0.557 -0.7912 -0.1444 -3.4190
  228MOL0     H30762   1.763   3.082   0.029  1.5911 -0.7023  2.0001
  228MOL0     H30763   1.540   3.160   0.108  0.8571  1.6145  2.8610
  228MOL0     H30764   1.203   2.832   0.501 -1.5977  0.4387  1.3284
  228MOL0     H30765   0.958   2.849   0.555 -2.6491  1.6256  0.4337
  228MOL0     H30766   2.110   2.871   1.549  0.2229  1.2986  0.0378
  228MOL0     H30767   2.287   2.856   1.709  1.6691  3.3064 -0.7879
  228MOL0     H30768   2.273   2.624   2.218 -0.0297  1.0650  0.7386
  228MOL0     H30769   2.479   2.557   2.348  1.5449  0.1919  0.1150
  228MOL0     H30770   2.838   2.762   2.255 -1.4943 -0.2666 -0.5340
  228MOL0     H30771   2.884   2.677   2.411 -2.3468 -0.6348  2.7809
  228MOL0     H30772   2.744   2.531   2.179 -0.0259 -1.2857 -0.8982
  228MOL0     H30773   2.804   2.456   2.327  0.7720 -1.5573 -2.4058
  228MOL0     H30774   2.972   2.405   2.164 -1.6126 -0.2106 -2.2711
  228MOL0     H30775   3.043   2.545   2.248  0.9582 -1.5820 -0.7022
  228MOL0     H30776   2.913   2.683   2.058  0.0159 -0.1616  0.8230
  228MOL0     H30777   2.911   2.515   1.986 -0.2687 -1.4227  2.0159
  228MOL0     H30778   3.273   2.683   1.878 -2.4051  1.5128 -1.2706
  228MOL0     H30779   2.664   2.919   2.214  2.1079 -2.5587  2.7448
  228MOL0     H30780   2.475   2.962   2.066  0.1104 -0.5038 -0.9344
  229MOL0     O30781   8.723  10.511  11.503  0.3326 -0.0158  0.7768
  229MOL0     C30782   8.776  10.594  11.574 -0.3037  0.0316 -0.2648
  229MOL0     O30783   8.745  10.730  11.579  0.5194  0.4958  0.0481
  229MOL0     C30784   8.631  10.770  11.500 -0.1989  0.5178 -0.0203
  229MOL0     C30785   8.638  10.900  11.456  0.2352 -0.4605 -0.1206
  229MOL0     C30786   8.539  10.965  11.380  0.2429 -0.3184 -0.2772
  229MOL0     C30787   8.417  10.898  11.356  0.1256 -1.3034 -0.3354
  229MOL0     O30788   8.312  10.966  11.295 -0.2000  0.8745  1.0246
  229MOL0     C30789   8.343  11.095  11.236  0.4198  0.4549  1.4236
  229MOL0     C30790   8.217  11.136  11.167  0.2955 -0.1950  0.2146
  229MOL0     C30791   8.251  11.245  11.070  0.6807  1.1634  0.2616
  229MOL0     C30792   8.125  11.310  11.008 -0.1695 -0.3710 -0.7899
  229MOL0     C30793   8.142  11.313  10.849  0.4744  0.5169 -0.7227
  229MOL0     C30794   8.022  11.369  10.774 -0.0093 -0.5046  0.3181
  229MOL0     C30795   8.016  11.333  10.625 -0.0746 -0.1447 -0.5409
  229MOL0     C30796   7.970  11.176  10.607 -0.0217 -1.4606 -0.6979
  229MOL0     N30797   7.836  11.164  10.535 -0.5754  0.4115 -0.1867
  229MOL0     C30798   7.783  11.249  10.443  0.8493  0.6916  0.1240
  229MOL0     C30799   7.651  11.221  10.440  0.1219 -0.7906 -0.3962
  229MOL0     C30800   7.566  11.284  10.329 -1.1385  0.1677  0.4656
  229MOL0     C30801   7.568  11.429  10.348  0.9092 -0.3984  0.0111
  229MOL0     C30802   7.455  11.496  10.270 -0.0220 -0.5518 -0.6677
  229MOL0     C30803   7.464  11.657  10.274  0.2521 -0.5048  0.6172
  229MOL0     O30804   7.587  11.713  10.219  0.4977  0.3898 -0.0053
  229MOL0     C30805   7.644  11.797  10.308 -0.1460 -0.6048  0.2747
  229MOL0     C30806   7.724  11.746  10.405 -0.0343 -0.3090 -0.1460
  229MOL0     C30807   7.806  11.834  10.482 -0.7417  0.1459 -0.8049
  229MOL0     C30808   7.918  11.773  10.556 -0.8987 -0.1930  0.0181
  229MOL0     C30809   7.784  11.980  10.485  0.4869 -0.0258 -0.2650
  229MOL0     C30810   7.840  12.074  10.590  0.0290  0.1658  0.1585
  229MOL0     O30811   7.862  12.035  10.719  0.3660  0.1344  0.8850
  229MOL0     C30812   7.853  12.124  10.825  0.4719 -0.5397 -0.2076
  229MOL0     C30813   7.971  12.145  10.899  0.2303 -0.2556  0.1594
  229MOL0     C30814   7.959  12.225  11.014  0.2214 -0.0713  0.4610
  229MOL0     C30815   7.841  12.288  11.051 -0.1236 -0.1061 -0.9813
  229MOL0     O30816   7.832  12.359  11.172  0.2478  0.1055 -0.4009
  229MOL0     C30817   7.707  12.419  11.225 -0.4557  0.0495  0.9981
  229MOL0     C30818   7.611  12.323  11.290  0.1408 -0.0802  0.0788
  229MOL0     C30819   7.679  12.216  11.360 -0.3425 -0.6357 -0.7854
  229MOL0     C30820   7.754  12.279  11.477 -0.8029  0.0336  0.0728
  229MOL0     C30821   7.772  12.206  11.612  0.1062 -0.6866 -0.5146
  229MOL0     C30822   7.860  12.071  11.607 -0.0279 -0.5163 -0.2540
  229MOL0     C30823   8.000  12.116  11.560 -0.6721 -0.9105 -0.2058
  229MOL0     C30824   8.070  12.220  11.645 -0.0192  0.5742  0.6101
  229MOL0    Cl30825   8.071  12.180  11.813  0.1738  0.3845 -0.0313
  229MOL0     C30826   7.730  12.281  10.967 -0.1696  0.0019  0.9937
  229MOL0     C30827   7.735  12.197  10.858 -0.1395  0.2479  0.9113
  229MOL0     O30828   7.865  12.188  10.555  0.0047 -0.0694 -0.1220
  229MOL0     C30829   7.701  12.025  10.383  0.7628  1.4210 -0.2561
  229MOL0     C30830   7.638  11.938  10.289 -1.0042  0.6699 -0.3356
  229MOL0     N30831   7.624  11.135  10.547  0.4363 -1.4082 -0.0257
  229MOL0     N30832   7.734  11.107  10.600 -0.0479  0.2880  0.2512
  229MOL0     C30833   8.411  10.772  11.403 -0.0761 -0.3745 -0.5243
  229MOL0     C30834   8.511  10.702  11.470  0.5351  0.3951  0.3462
  229MOL0     C30835   8.900  10.558  11.652 -0.2724  0.2341  0.0562
  229MOL0     C30836   8.991  10.663  11.670 -0.2370 -0.7480  0.1565
  229MOL0     C30837   9.110  10.635  11.745 -0.0573 -0.3228 -0.9508
  229MOL0     C30838   9.129  10.521  11.819 -0.1025  0.3485  0.9283
  229MOL0     O30839   9.230  10.500  11.911  0.4877  0.2439 -0.0458
  229MOL0     C30840   9.187  10.508  12.055 -0.3646 -0.9930  0.2297
  229MOL0     C30841   9.281  10.599  12.131  0.0415 -0.5063 -0.1079
  229MOL0     C30842   9.324  10.727  12.055 -0.6122  0.3190  1.3938
  229MOL0     C30843   9.411  10.838  12.124  0.9167 -0.6126  0.1493
  229MOL0     C30844   9.409  10.961  12.037 -0.1598  1.1370  0.6211
  229MOL0     C30845   9.407  11.048  11.958 -0.7797 -0.3040  0.3528
  229MOL0     C30846   9.042  10.417  11.792 -0.6773  0.3876  0.3306
  229MOL0     C30847   8.930  10.432  11.713  0.2356 -0.0913  0.8226
  229MOL0     H30848   8.730  10.947  11.490 -0.1993  0.6062 -0.4112
  229MOL0     H30849   8.545  11.060  11.328 -3.6916  1.5129  2.1056
  229MOL0     H30850   8.371  11.170  11.311  1.1983  4.2659 -2.2992
  229MOL0     H30851   8.426  11.090  11.164  1.3043  1.0458  2.3777
  229MOL0     H30852   8.170  11.057  11.107 -1.6974  1.6452 -0.7673
  229MOL0     H30853   8.149  11.175  11.243 -0.1676  1.2940 -0.9197
  229MOL0     H30854   8.331  11.312  11.104  4.1835 -1.1677 -2.6838
  229MOL0     H30855   8.303  11.193  10.989  2.7044  2.1260  0.8776
  229MOL0     H30856   8.036  11.254  11.035 -1.3669  0.3150 -3.0003
  229MOL0     H30857   8.124  11.418  11.027  1.0618  0.1265 -3.1227
  229MOL0     H30858   8.222  11.377  10.811 -1.6085  1.8249 -3.3058
  229MOL0     H30859   8.165  11.209  10.822  0.0799  0.2797 -0.1607
  229MOL0     H30860   7.933  11.329  10.823 -1.6028  0.8589 -1.3184
  229MOL0     H30861   8.021  11.478  10.782 -0.4761 -0.5503  0.9227
  229MOL0     H30862   7.945  11.394  10.568 -1.2922 -0.6915  0.3538
  229MOL0     H30863   8.120  11.343  10.593  0.3353 -0.7483  0.5465
  229MOL0     H30864   7.977  11.124  10.703  2.5436  0.9448  0.5891
  229MOL0     H30865   8.042  11.124  10.543  0.6953  0.6596 -1.7348
  229MOL0     H30866   7.838  11.302  10.366  1.8538  0.7171  0.8350
  229MOL0     H30867   7.610  11.274  10.230  0.6052  3.2963  0.7879
  229MOL0     H30868   7.468  11.236  10.327 -1.0646 -0.0821  1.7979
  229MOL0     H30869   7.661  11.472  10.310  1.7369 -2.4391 -0.4160
  229MOL0     H30870   7.563  11.452  10.455  2.9724 -1.5817  0.4122
  229MOL0     H30871   7.359  11.483  10.321  0.9417 -0.0642  1.3972
  229MOL0     H30872   7.438  11.458  10.169  0.0582  0.5452 -1.1094
  229MOL0     H30873   7.453  11.687  10.379  0.7327  1.3003  0.1821
  229MOL0     H30874   7.376  11.697  10.222  1.0764  1.0111  0.3379
  229MOL0     H30875   7.732  11.639  10.422 -0.3707 -0.2350  0.4779
  229MOL0     H30876   7.905  11.806  10.660 -1.8795 -1.2138  0.2409
  229MOL0     H30877   7.921  11.663  10.561 -0.1935 -0.2179 -0.8121
  229MOL0     H30878   8.015  11.816  10.529 -1.4025  0.1990 -1.2082
  229MOL0     H30879   8.045  12.068  10.879  2.3376  1.8309 -0.5191
  229MOL0     H30880   8.043  12.230  11.083  1.6114 -0.0986 -1.1602
  229MOL0     H30881   7.749  12.492  11.294 -1.1939  0.6511  0.8208
  229MOL0     H30882   7.643  12.464  11.148 -1.4790  0.3750  2.0126
  229MOL0     H30883   7.544  12.373  11.361  2.8778  1.5234  1.7244
  229MOL0     H30884   7.555  12.281  11.206  2.3751 -0.2572 -1.4094
  229MOL0     H30885   7.746  12.164  11.290 -0.1724 -2.4146  0.6231
  229MOL0     H30886   7.605  12.139  11.384  0.4288 -1.2707 -0.3947
  229MOL0     H30887   7.853  12.309  11.442 -0.4195  0.3236  1.3749
  229MOL0     H30888   7.706  12.374  11.501 -0.1533  0.6736 -1.0869
  229MOL0     H30889   7.674  12.173  11.646 -0.6703  2.3036  0.5341
  229MOL0     H30890   7.806  12.281  11.685 -2.7601  2.2458 -1.9299
  229MOL0     H30891   7.864  12.021  11.704  1.2066 -1.2307 -0.6526
  229MOL0     H30892   7.803  12.003  11.543 -1.3325 -0.2268  0.5469
  229MOL0     H30893   8.008  12.159  11.460  3.9937  2.4486  1.3069
  229MOL0     H30894   8.069  12.030  11.564  0.2347 -0.3789 -2.8286
  229MOL0     H30895   8.007  12.309  11.635  0.0296  0.4674 -0.8561
  229MOL0     H30896   8.172  12.239  11.609 -0.2559 -4.0911 -3.7142
  229MOL0     H30897   7.632  12.317  10.996  0.2750 -0.5058  3.3316
  229MOL0     H30898   7.640  12.195  10.805 -0.5636  3.4380  1.3761
  229MOL0     H30899   7.693  12.132  10.372 -2.9450  1.5088  1.8128
  229MOL0     H30900   7.585  11.973  10.201 -0.1813 -0.9716 -1.5565
  229MOL0     H30901   8.309  10.735  11.405 -1.2352  2.3550 -2.6814
  229MOL0     H30902   8.488  10.603  11.509 -0.3296  0.6190  0.4300
  229MOL0     H30903   8.965  10.760  11.628 -0.5171  0.6441  3.2308
  229MOL0     H30904   9.161  10.725  11.776 -1.5655  0.5113 -0.7751
  229MOL0     H30905   9.089  10.557  12.057  1.8050  4.0927  3.2252
  229MOL0     H30906   9.193  10.409  12.100 -0.8906 -1.3414 -0.4409
  229MOL0     H30907   9.370  10.541  12.157  0.2007  0.2532  1.1278
  229MOL0     H30908   9.214  10.627  12.213 -1.6660 -0.2971 -1.5321
  229MOL0     H30909   9.234  10.771  12.011  0.1925  0.9391  0.3155
  229MOL0     H30910   9.381  10.686  11.971 -1.9634 -0.9204  1.0349
  229MOL0     H30911   9.507  10.788  12.137  0.4659 -0.9753  2.7284
  229MOL0     H30912   9.374  10.866  12.224 -0.8556  0.4725 -0.7562
  229MOL0     H30913   9.389  11.125  11.886  1.0905 -2.1717 -2.3040
  229MOL0     H30914   9.056  10.321  11.841 -1.3272 -0.5885 -1.2922
  229MOL0     H30915   8.858  10.352  11.702  1.7585 -1.6198  1.4699
  230MOL0     O30916  10.527   3.826   4.726  1.1556  0.1717 -0.2072
  230MOL0     C30917  10.638   3.778   4.765  0.0671 -0.0110 -0.1027
  230MOL0     O30918  10.656   3.655   4.827  0.1668  0.2163  0.1006
  230MOL0     C30919  10.541   3.577   4.846 -0.4083  0.1409  0.5770
  230MOL0     C30920  10.535   3.491   4.957 -0.0966 -0.2027 -0.0550
  230MOL0     C30921  10.439   3.399   4.977 -0.2489  0.1052  0.5634
  230MOL0     C30922  10.338   3.385   4.886  0.1657 -0.3118  1.4873
  230MOL0     O30923  10.250   3.295   4.917  0.2922 -0.0657 -0.0784
  230MOL0     C30924  10.131   3.263   4.838 -0.0401  0.7947  0.5102
  230MOL0     C30925  10.159   3.123   4.778 -0.1222 -0.0496 -0.5372
  230MOL0     C30926  10.211   3.004   4.874  0.5043 -0.8056  1.0940
  230MOL0     C30927  10.125   2.966   5.004 -0.2652 -1.4837  0.7822
  230MOL0     C30928  10.214   2.996   5.132  0.1394 -0.3787 -0.1803
  230MOL0     C30929  10.162   2.931   5.255  0.8176 -0.2933  0.3863
  230MOL0     C30930  10.238   2.977   5.378 -0.6256  0.0737 -0.4891
  230MOL0     C30931  10.397   2.937   5.382  0.2115 -0.1856  0.6020
  230MOL0     N30932  10.464   2.965   5.504 -0.1683 -0.3370 -0.4824
  230MOL0     C30933  10.574   3.050   5.532  0.0773 -0.5509 -0.8348
  230MOL0     C30934  10.579   3.051   5.667 -0.3113 -0.8613 -0.0619
  230MOL0     C30935  10.676   3.130   5.750 -0.5052 -0.1964 -0.7447
  230MOL0     C30936  10.651   3.282   5.768 -1.0021  0.3376 -0.6472
  230MOL0     C30937  10.556   3.319   5.886  0.8902  1.2215  0.1814
  230MOL0     C30938  10.585   3.465   5.925  0.5041 -0.5304 -0.2894
  230MOL0     O30939  10.559   3.560   5.815 -0.0103 -0.0750 -0.0212
  230MOL0     C30940  10.536   3.692   5.853 -0.7612  0.3233 -0.4575
  230MOL0     C30941  10.465   3.767   5.765  0.2911 -0.2011 -0.6694
  230MOL0     C30942  10.463   3.906   5.772 -0.6003  0.3006 -0.6943
  230MOL0     C30943  10.389   3.977   5.665 -0.0075 -0.2671  0.2441
  230MOL0     C30944  10.522   3.974   5.875 -0.1748  0.0560 -0.6268
  230MOL0     C30945  10.506   4.117   5.892 -0.3564  0.2123  0.2822
  230MOL0     O30946  10.522   4.163   6.020 -0.5619 -1.2511  0.5339
  230MOL0     C30947  10.510   4.302   6.033 -0.6440  0.7351 -0.7427
  230MOL0     C30948  10.600   4.360   6.117  0.2008 -0.0491 -0.6745
  230MOL0     C30949  10.582   4.495   6.161  0.0397  0.7445 -0.3666
  230MOL0     C30950  10.461   4.561   6.129  0.3069  0.2541  0.4392
  230MOL0     O30951  10.416   4.688   6.150  0.5917 -0.9094 -0.3311
  230MOL0     C30952  10.485   4.776   6.243 -0.1518 -0.3546 -0.3775
  230MOL0     C30953  10.418   4.909   6.222 -0.1236  0.7578 -0.3953
  230MOL0     C30954  10.472   5.022   6.303  0.2864  0.4155 -1.2743
  230MOL0     C30955  10.402   5.152   6.271 -0.4621 -0.4216 -0.0601
  230MOL0     C30956  10.465   5.268   6.349 -0.5701 -0.4057 -1.1955
  230MOL0     C30957  10.399   5.397   6.305  0.0534  0.3580  0.0457
  230MOL0     C30958  10.483   5.513   6.350 -0.0612  0.3209  0.0476
  230MOL0     C30959  10.425   5.634   6.271 -1.3176 -0.5003  0.0842
  230MOL0    Cl30960  10.537   5.665   6.126  0.2530 -0.3242  0.0577
  230MOL0     C30961  10.377   4.497   6.035 -0.4856  0.5949 -1.6139
  230MOL0     C30962  10.389   4.361   6.004 -0.1450  0.8751  0.0480
  230MOL0     O30963  10.502   4.187   5.790  0.2622 -0.1574 -0.0067
  230MOL0     C30964  10.582   3.897   5.980  0.2704  0.5200 -0.3593
  230MOL0     C30965  10.589   3.755   5.964  0.1839  0.0085  0.1873
  230MOL0     N30966  10.499   2.959   5.715  0.1732  0.4165  0.9217
  230MOL0     N30967  10.418   2.917   5.624 -0.4553  0.3898  1.5109
  230MOL0     C30968  10.351   3.451   4.759  1.4222 -0.2692 -0.8989
  230MOL0     C30969  10.448   3.553   4.744 -0.7470 -0.1291 -0.4400
  230MOL0     C30970  10.757   3.866   4.759  0.3309  0.2501  0.7843
  230MOL0     C30971  10.869   3.829   4.833 -0.1148  0.6859 -0.3116
  230MOL0     C30972  10.956   3.933   4.870  0.3938 -0.5371 -0.2094
  230MOL0     C30973  10.936   4.064   4.813 -0.0781 -0.3937 -0.4303
  230MOL0     O30974  11.035   4.147   4.838  0.0029 -0.0973 -0.1420
  230MOL0     C30975  11.028   4.287   4.808  0.7061 -0.5395 -0.0397
  230MOL0     C30976  11.148   4.348   4.882  0.0986  0.7162 -0.2522
  230MOL0     C30977  11.282   4.322   4.806 -2.0004 -0.2676  0.0560
  230MOL0     C30978  11.423   4.358   4.879 -0.4860  0.4397 -0.7165
  230MOL0     C30979  11.418   4.499   4.924 -0.5974  0.3367 -0.2654
  230MOL0     C30980  11.419   4.615   4.950 -0.9359  0.0370  1.4713
  230MOL0     C30981  10.832   4.088   4.724  0.0263 -0.6486 -0.5458
  230MOL0     C30982  10.743   3.995   4.702 -0.3464  1.2470 -0.1992
  230MOL0     H30983  10.607   3.492   5.038 -0.5496 -2.5905  0.4479
  230MOL0     H30984  10.457   3.342   5.068  1.2520  2.8876  2.1446
  230MOL0     H30985  10.045   3.250   4.906  1.3792 -2.4670  1.9081
  230MOL0     H30986  10.103   3.335   4.761  0.2380  1.7906  1.3227
  230MOL0     H30987  10.066   3.087   4.732 -0.5949  1.1312 -0.5398
  230MOL0     H30988  10.225   3.147   4.694 -1.3318  1.7220 -1.0402
  230MOL0     H30989  10.215   2.915   4.811  0.0601 -0.1350  0.0966
  230MOL0     H30990  10.311   3.034   4.905  0.9126 -0.7605 -0.2116
  230MOL0     H30991  10.028   3.017   5.012 -0.1414 -1.4883  3.5044
  230MOL0     H30992  10.112   2.858   5.017  2.3266 -1.8605  0.7674
  230MOL0     H30993  10.316   2.962   5.113  0.4236 -0.4199  1.3517
  230MOL0     H30994  10.220   3.105   5.139  1.0565 -0.3313 -1.3265
  230MOL0     H30995  10.056   2.955   5.269  1.1490  0.0201  2.8018
  230MOL0     H30996  10.166   2.822   5.248  0.0251 -0.3634  0.9297
  230MOL0     H30997  10.221   3.081   5.407  2.2155  0.4348  0.1144
  230MOL0     H30998  10.196   2.928   5.467  1.7499 -2.3816 -0.5875
  230MOL0     H30999  10.448   2.980   5.295  0.4168 -1.7653 -0.0976
  230MOL0     H31000  10.414   2.829   5.370 -1.2275 -0.3027 -0.8037
  230MOL0     H31001  10.646   3.099   5.468 -1.2206  0.8357 -1.3149
  230MOL0     H31002  10.687   3.075   5.844 -1.1770 -1.4715 -1.3886
  230MOL0     H31003  10.772   3.120   5.697 -0.8340 -0.9061 -1.2074
  230MOL0     H31004  10.611   3.341   5.685  1.3567  0.7295 -1.5658
  230MOL0     H31005  10.750   3.314   5.801 -0.3252  1.9922 -3.9395
  230MOL0     H31006  10.573   3.244   5.964  0.7255  0.9156 -0.0729
  230MOL0     H31007  10.451   3.301   5.862  1.4209 -3.3521  0.3449
  230MOL0     H31008  10.685   3.478   5.969  0.5602 -1.0155 -0.2669
  230MOL0     H31009  10.519   3.480   6.010  1.1502 -1.7479  0.4641
  230MOL0     H31010  10.411   3.716   5.686  0.5234 -2.0953  0.3391
  230MOL0     H31011  10.353   3.909   5.587  1.4621  0.3718 -1.0582
  230MOL0     H31012  10.299   4.028   5.700 -0.7386 -1.3564  0.0153
  230MOL0     H31013  10.454   4.043   5.606  1.7655 -2.2344 -0.1476
  230MOL0     H31014  10.684   4.304   6.156  0.2717  1.0949  0.9094
  230MOL0     H31015  10.656   4.532   6.231 -0.6177 -2.2638  2.1384
  230MOL0     H31016  10.492   4.731   6.342  1.0412 -2.2033 -1.2422
  230MOL0     H31017  10.588   4.784   6.207 -0.5417 -0.2120 -1.4914
  230MOL0     H31018  10.446   4.932   6.119  0.2778  1.3940 -0.1518
  230MOL0     H31019  10.309   4.908   6.228 -0.1180 -0.0564 -0.3415
  230MOL0     H31020  10.581   5.028   6.300  0.6063 -2.3142  0.9003
  230MOL0     H31021  10.444   4.982   6.400 -2.1808  1.3560 -1.5362
  230MOL0     H31022  10.428   5.171   6.167  0.5430  0.5210  0.3389
  230MOL0     H31023  10.295   5.135   6.287 -0.2466  0.1969  2.6077
  230MOL0     H31024  10.571   5.269   6.324 -0.1185 -1.9652  0.4320
  230MOL0     H31025  10.473   5.267   6.458 -0.0441  0.8624 -1.2090
  230MOL0     H31026  10.395   5.414   6.198  0.1197  0.2169  0.0207
  230MOL0     H31027  10.297   5.399   6.345  0.6998 -1.9103  2.0774
  230MOL0     H31028  10.590   5.491   6.339 -0.2684 -1.7453  1.6097
  230MOL0     H31029  10.471   5.536   6.456 -1.7300 -0.0745 -0.0227
  230MOL0     H31030  10.440   5.724   6.331 -2.0385 -0.2799 -0.0512
  230MOL0     H31031  10.322   5.634   6.235  0.0601 -1.7549 -4.5932
  230MOL0     H31032  10.291   4.553   5.999 -0.3200  1.2487 -1.0154
  230MOL0     H31033  10.313   4.306   5.950 -1.0645 -0.5437  2.6029
  230MOL0     H31034  10.622   3.936   6.073 -0.1110  1.0099 -0.3955
  230MOL0     H31035  10.649   3.705   6.040  0.5847  3.9461  2.8085
  230MOL0     H31036  10.282   3.424   4.680  0.5457 -1.0652  0.1083
  230MOL0     H31037  10.467   3.597   4.646  0.2816  1.8252  0.5673
  230MOL0     H31038  10.907   3.739   4.882 -2.3511 -0.0412  0.1820
  230MOL0     H31039  11.052   3.914   4.917 -0.3257 -2.2483  0.6607
  230MOL0     H31040  11.020   4.291   4.699  1.2836  0.2404 -0.0697
  230MOL0     H31041  10.938   4.324   4.858  0.8409 -2.3296  1.6415
  230MOL0     H31042  11.149   4.308   4.984  1.1216  3.0608  0.7339
  230MOL0     H31043  11.144   4.457   4.897 -2.5353  0.5723  0.6324
  230MOL0     H31044  11.270   4.390   4.721 -2.4774  0.7457  0.9113
  230MOL0     H31045  11.286   4.214   4.788  4.4051 -0.6959  1.3393
  230MOL0     H31046  11.500   4.329   4.807  0.5938 -1.4938  1.0980
  230MOL0     H31047  11.438   4.305   4.974  0.3105  2.1513  0.1559
  230MOL0     H31048  11.421   4.719   4.975  4.7703  0.4004  0.8307
  230MOL0     H31049  10.809   4.183   4.675  1.8661  1.6488  2.6348
  230MOL0     H31050  10.659   4.004   4.634 -2.4515 -2.0276  1.6687
  231MOL0     O31051  11.237   3.092   4.407  0.7492 -0.5210 -0.2305
  231MOL0     C31052  11.329   3.173   4.409  0.7242 -1.0740  0.2815
  231MOL0     O31053  11.332   3.299   4.348  0.8635  0.2189 -0.1395
  231MOL0     C31054  11.220   3.337   4.277  0.3077  1.0554 -0.7489
  231MOL0     C31055  11.085   3.326   4.317  0.5768 -0.0622 -1.3307
  231MOL0     C31056  10.980   3.385   4.260  0.5092  1.1260  1.3797
  231MOL0     C31057  11.009   3.465   4.146  0.0288  0.2596 -0.3627
  231MOL0     O31058  10.909   3.527   4.064 -0.9917 -0.5049  0.5944
  231MOL0     C31059  10.795   3.450   4.035  0.4454  0.7621  0.1450
  231MOL0     C31060  10.719   3.514   3.915 -0.5507 -0.6157  0.0825
  231MOL0     C31061  10.658   3.658   3.945  0.1620  0.3696  0.4296
  231MOL0     C31062  10.667   3.750   3.824 -0.1491 -0.5576 -0.5380
  231MOL0     C31063  10.563   3.710   3.724 -0.5213  0.1031 -0.2501
  231MOL0     C31064  10.584   3.799   3.593 -0.3701 -0.4097  0.3877
  231MOL0     C31065  10.499   3.756   3.470 -0.1172  0.2212 -1.2948
  231MOL0     C31066  10.535   3.612   3.425 -0.5263  0.1893 -0.2909
  231MOL0     N31067  10.422   3.563   3.343  0.8983 -0.3899  0.4591
  231MOL0     C31068  10.426   3.527   3.213 -0.6054 -0.0987  0.3025
  231MOL0     C31069  10.327   3.440   3.192 -0.2262 -0.3976  0.1218
  231MOL0     C31070  10.301   3.392   3.050  0.0437  0.2822 -1.2021
  231MOL0     C31071  10.217   3.267   3.040 -0.3877 -0.3011 -0.3865
  231MOL0     C31072  10.295   3.136   3.018  0.2457  0.0795  0.5200
  231MOL0     C31073  10.198   3.012   3.001 -0.2703 -0.4989  1.2068
  231MOL0     O31074  10.264   2.905   2.929 -0.1575 -0.3746 -0.2938
  231MOL0     C31075  10.255   2.891   2.793 -0.7677 -0.2951 -0.3265
  231MOL0     C31076  10.260   2.759   2.746  0.4810 -0.3638 -0.6113
  231MOL0     C31077  10.255   2.726   2.609  0.1616  0.2016 -0.1410
  231MOL0     C31078  10.309   2.586   2.572  0.7824 -0.4245  0.1308
  231MOL0     C31079  10.222   2.829   2.513 -0.2711 -0.8608 -0.2180
  231MOL0     C31080  10.187   2.803   2.370 -0.3627 -0.7689  0.2785
  231MOL0     O31081  10.155   2.670   2.333  0.2162  0.4644 -0.1668
  231MOL0     C31082  10.168   2.626   2.202 -0.3676 -0.4821 -0.3768
  231MOL0     C31083  10.270   2.679   2.120  0.5934 -0.2313 -0.2583
  231MOL0     C31084  10.294   2.625   1.991 -0.9762  0.7243 -0.2117
  231MOL0     C31085  10.232   2.505   1.949 -0.8287  0.2196  0.3170
  231MOL0     O31086  10.254   2.453   1.827  0.2257  0.3620  0.0539
  231MOL0     C31087  10.303   2.537   1.721 -0.2652 -0.2283 -0.1634
  231MOL0     C31088  10.333   2.457   1.593 -0.5840 -1.2419 -0.6196
  231MOL0     C31089  10.449   2.354   1.622 -1.0096  0.4339  0.1908
  231MOL0     C31090  10.502   2.278   1.496 -1.1927 -0.2839 -0.0399
  231MOL0     C31091  10.581   2.145   1.517 -0.3338 -0.3373 -0.2335
  231MOL0     C31092  10.709   2.161   1.612  0.5317 -0.2751 -0.3189
  231MOL0     C31093  10.821   2.232   1.533  0.0775  0.6301 -0.1382
  231MOL0     C31094  10.947   2.275   1.627  0.8686  0.3631 -0.5835
  231MOL0    Cl31095  11.042   2.140   1.676  0.3659  0.0766 -0.2547
  231MOL0     C31096  10.137   2.449   2.033  0.5178 -0.4462 -0.3125
  231MOL0     C31097  10.108   2.510   2.165  0.4235  0.2692 -0.2381
  231MOL0     O31098  10.172   2.897   2.291 -0.7156 -0.2092  0.2450
  231MOL0     C31099  10.195   2.960   2.561  0.1888 -0.4798 -0.7328
  231MOL0     C31100  10.220   2.989   2.698 -0.1203  0.0927  0.0100
  231MOL0     N31101  10.259   3.423   3.314 -0.4230  0.4360  0.0315
  231MOL0     N31102  10.320   3.488   3.405  0.6589  0.1022 -0.3653
  231MOL0     C31103  11.139   3.482   4.102  0.7496  0.2010  0.1893
  231MOL0     C31104  11.243   3.409   4.156  0.9293 -1.0276  0.2475
  231MOL0     C31105  11.457   3.130   4.457 -0.7367  0.3387 -0.5311
  231MOL0     C31106  11.573   3.176   4.397 -0.1853 -0.9790  0.1073
  231MOL0     C31107  11.704   3.146   4.450  0.4076 -0.3490  0.1256
  231MOL0     C31108  11.705   3.053   4.550  0.2097 -0.1785  0.5987
  231MOL0     O31109  11.813   3.014   4.608 -0.3216 -0.5005 -0.2857
  231MOL0     C31110  11.932   3.099   4.609  0.3509 -0.7463 -0.1664
  231MOL0     C31111  12.026   3.031   4.708  0.1771  0.0015 -0.7619
  231MOL0     C31112  11.969   3.038   4.849  1.6274 -0.0527 -0.7367
  231MOL0     C31113  12.041   2.931   4.945  0.0396  0.3293  0.4478
  231MOL0     C31114  12.191   2.944   4.948 -0.7908  0.6434 -0.4315
  231MOL0     C31115  12.308   2.944   4.947 -0.4021  0.2599 -0.1418
  231MOL0     C31116  11.585   2.994   4.609  0.2106 -0.0971  0.7411
  231MOL0     C31117  11.465   3.036   4.557  0.2971  0.1005 -0.2607
  231MOL0     H31118  11.062   3.279   4.412  0.9172  0.5713 -0.9269
  231MOL0     H31119  10.880   3.368   4.300  0.3599 -1.5858  0.0845
  231MOL0     H31120  10.819   3.346   4.011  4.1779  1.2635  1.1608
  231MOL0     H31121  10.728   3.446   4.122 -0.7283 -3.1995 -0.7436
  231MOL0     H31122  10.784   3.525   3.828 -1.4489 -1.0804 -0.6615
  231MOL0     H31123  10.638   3.446   3.887  0.5890 -0.7821 -3.2573
  231MOL0     H31124  10.554   3.656   3.981  0.1446 -1.2048  0.3591
  231MOL0     H31125  10.722   3.704   4.021 -0.7730  2.3401  0.0919
  231MOL0     H31126  10.663   3.855   3.853  1.2580 -1.1780  2.3289
  231MOL0     H31127  10.767   3.732   3.783 -0.4672 -0.3048 -1.4455
  231MOL0     H31128  10.573   3.604   3.700  1.6634  0.6332 -2.0791
  231MOL0     H31129  10.464   3.723   3.768  0.4049  1.1381  1.6477
  231MOL0     H31130  10.563   3.905   3.610  3.0886  0.9844 -2.6797
  231MOL0     H31131  10.691   3.789   3.573  0.2349 -1.5249  3.4842
  231MOL0     H31132  10.394   3.773   3.494  0.3881  0.8579  0.6785
  231MOL0     H31133  10.527   3.816   3.383  1.7084  2.4947  0.7176
  231MOL0     H31134  10.540   3.536   3.504  0.0602  0.1645 -0.3456
  231MOL0     H31135  10.634   3.608   3.380 -0.3158 -1.9915  0.2529
  231MOL0     H31136  10.497   3.543   3.133  0.8662 -0.5496  1.4655
  231MOL0     H31137  10.249   3.470   2.992 -1.4187 -2.1018 -3.3559
  231MOL0     H31138  10.390   3.376   2.988 -0.6117 -1.6015 -1.7522
  231MOL0     H31139  10.157   3.279   2.949  1.6717  1.0390 -1.6918
  231MOL0     H31140  10.146   3.257   3.122 -2.1253  1.9265 -1.4871
  231MOL0     H31141  10.365   3.111   3.099  2.2629  1.4705 -0.6885
  231MOL0     H31142  10.352   3.154   2.926 -1.6228 -1.4875 -1.0379
  231MOL0     H31143  10.115   3.038   2.934  0.4775  0.8525  0.7557
  231MOL0     H31144  10.157   2.979   3.097  1.9303  1.1308  2.8159
  231MOL0     H31145  10.291   2.684   2.819 -0.5842 -1.3037 -1.0990
  231MOL0     H31146  10.235   2.509   2.548  2.0325 -1.8629  0.7197
  231MOL0     H31147  10.375   2.587   2.484  2.2007 -0.1227  1.1654
  231MOL0     H31148  10.365   2.541   2.654  0.3212 -0.3374  0.4913
  231MOL0     H31149  10.320   2.772   2.143  1.9450 -1.5038  2.3314
  231MOL0     H31150  10.362   2.675   1.922 -1.3691  1.2020 -0.2614
  231MOL0     H31151  10.240   2.624   1.699 -2.2475 -1.5829 -0.0185
  231MOL0     H31152  10.398   2.572   1.763 -1.4997 -1.3564  4.0385
  231MOL0     H31153  10.250   2.404   1.547 -1.3302 -1.5866  1.0437
  231MOL0     H31154  10.392   2.529   1.535  3.3459 -3.1519  0.6266
  231MOL0     H31155  10.415   2.282   1.697 -0.4132 -1.1274 -0.9750
  231MOL0     H31156  10.535   2.409   1.661  0.3072 -1.7125  0.4544
  231MOL0     H31157  10.418   2.251   1.432 -1.9796 -0.1969  0.9288
  231MOL0     H31158  10.560   2.361   1.455 -0.8325 -0.4543  0.1178
  231MOL0     H31159  10.590   2.088   1.424  3.8385  1.2565 -1.0322
  231MOL0     H31160  10.519   2.084   1.583 -2.1295  1.5879 -0.0563
  231MOL0     H31161  10.691   2.219   1.703  1.1035 -0.2505 -0.2141
  231MOL0     H31162  10.750   2.064   1.640 -0.0174  0.2665  2.7319
  231MOL0     H31163  10.780   2.326   1.494 -1.4056  0.5383  1.0988
  231MOL0     H31164  10.846   2.172   1.445 -0.9685 -0.2093  0.1231
  231MOL0     H31165  10.907   2.331   1.712 -2.8059  0.2109 -2.0010
  231MOL0     H31166  11.010   2.340   1.565  0.4372  1.4782  0.1235
  231MOL0     H31167  10.083   2.367   1.988  1.2363  0.2709 -2.5835
  231MOL0     H31168  10.027   2.460   2.219 -4.1362  3.4750 -3.3725
  231MOL0     H31169  10.148   3.032   2.494  1.1716  1.1168  0.2476
  231MOL0     H31170  10.219   3.096   2.715  0.0494  0.3892 -1.6655
  231MOL0     H31171  11.158   3.553   4.022 -3.0677  2.1889  0.8034
  231MOL0     H31172  11.346   3.422   4.125  0.6526  1.9704  0.2676
  231MOL0     H31173  11.563   3.255   4.324 -1.0825 -0.7715  0.4365
  231MOL0     H31174  11.791   3.195   4.409 -0.1317 -1.3183 -2.3310
  231MOL0     H31175  11.984   3.095   4.513  0.3453 -1.8445 -0.1444
  231MOL0     H31176  11.918   3.200   4.649  1.0125 -0.3325 -0.9667
  231MOL0     H31177  12.117   3.092   4.707  1.6401 -2.0659 -0.5210
  231MOL0     H31178  12.047   2.926   4.684  1.1088 -0.2669  1.0661
  231MOL0     H31179  11.861   3.025   4.842  1.6731  0.5354 -5.3415
  231MOL0     H31180  11.987   3.139   4.888 -0.0339 -0.3548  0.9733
  231MOL0     H31181  12.026   2.830   4.904  0.6624  0.6418 -0.5969
  231MOL0     H31182  11.990   2.925   5.041  0.2520 -1.8206  0.4769
  231MOL0     H31183  12.414   2.925   4.953  0.3812  3.9142 -0.2662
  231MOL0     H31184  11.583   2.917   4.685 -1.7070 -1.0378 -0.2001
  231MOL0     H31185  11.371   2.986   4.579  0.8906 -0.6492  0.6497
  232MOL0     O31186   4.348   5.017  10.986 -0.0351 -0.2963  0.0425
  232MOL0     C31187   4.255   5.082  10.941 -0.7940  0.5835 -0.3507
  232MOL0     O31188   4.208   5.069  10.815 -0.2462 -0.0411  0.8482
  232MOL0     C31189   4.275   4.986  10.728 -0.0043  0.0676  0.3145
  232MOL0     C31190   4.298   5.041  10.602  0.0818  0.0977 -0.7851
  232MOL0     C31191   4.344   4.954  10.500  0.1040 -0.0506  0.1697
  232MOL0     C31192   4.359   4.814  10.528 -0.9377 -0.4458 -0.3261
  232MOL0     O31193   4.397   4.729  10.431  1.5420 -0.4932  0.6851
  232MOL0     C31194   4.271   4.677  10.372  0.3449  0.4032  0.1418
  232MOL0     C31195   4.296   4.597  10.243  0.5559  0.4665 -0.1443
  232MOL0     C31196   4.167   4.559  10.161 -0.2886  0.7280  0.1632
  232MOL0     C31197   4.183   4.453  10.055 -0.4809 -0.3563 -0.3971
  232MOL0     C31198   4.126   4.506   9.916 -1.2770  0.1975  0.0818
  232MOL0     C31199   4.125   4.396   9.805 -0.0035  0.2366 -0.0291
  232MOL0     C31200   4.250   4.379   9.727 -0.7574 -0.7842  0.0621
  232MOL0     C31201   4.224   4.260   9.629 -0.0614 -0.4341  0.3049
  232MOL0     N31202   4.199   4.121   9.688  0.0717 -0.3934  0.2196
  232MOL0     C31203   4.162   3.999   9.622 -1.0315 -1.1469  0.1370
  232MOL0     C31204   4.133   3.912   9.716 -0.4267  0.3495 -0.4803
  232MOL0     C31205   4.097   3.771   9.693 -0.3865 -0.4030  0.3798
  232MOL0     C31206   4.205   3.679   9.635  0.3067 -0.0562  0.0635
  232MOL0     C31207   4.213   3.677   9.486 -0.3915 -0.7429  0.2647
  232MOL0     C31208   4.253   3.541   9.428 -0.0720 -0.3407  1.0090
  232MOL0     O31209   4.268   3.551   9.283  0.3000  0.2787  0.4050
  232MOL0     C31210   4.380   3.614   9.225  0.6242  0.3299 -0.5383
  232MOL0     C31211   4.371   3.635   9.089  0.2541 -0.3705  0.0557
  232MOL0     C31212   4.461   3.713   9.012 -1.2109  0.0417 -0.2139
  232MOL0     C31213   4.446   3.728   8.864 -0.2836 -0.2703 -0.4101
  232MOL0     C31214   4.577   3.757   9.084 -0.1216 -0.4268 -0.0028
  232MOL0     C31215   4.682   3.839   9.012  0.9772 -0.1614  0.2172
  232MOL0     O31216   4.799   3.837   9.081 -0.2929  0.3103 -0.4451
  232MOL0     C31217   4.894   3.920   9.034 -0.1774 -1.0654 -0.4175
  232MOL0     C31218   4.971   3.993   9.122  0.6345 -0.4739 -0.1286
  232MOL0     C31219   5.096   4.052   9.086  0.4724 -0.3112  1.0423
  232MOL0     C31220   5.134   4.039   8.945 -0.5535  0.3752  0.3374
  232MOL0     O31221   5.256   4.090   8.904  0.8233  0.5632 -0.3685
  232MOL0     C31222   5.276   4.226   8.951 -0.0890  0.3117  0.7595
  232MOL0     C31223   5.408   4.269   8.890  0.7415  0.7006  0.3035
  232MOL0     C31224   5.450   4.409   8.900 -1.7992  0.0725  0.3476
  232MOL0     C31225   5.591   4.446   8.851 -0.4829 -0.1925 -0.6132
  232MOL0     C31226   5.595   4.460   8.697  0.0244  0.5003  0.0517
  232MOL0     C31227   5.733   4.478   8.627  0.6439  0.4493 -0.4641
  232MOL0     C31228   5.734   4.480   8.476  0.3252  0.2205 -0.4868
  232MOL0     C31229   5.659   4.576   8.393  0.1622 -0.5639  0.5814
  232MOL0    Cl31230   5.672   4.520   8.232 -0.2736 -0.3723 -0.0092
  232MOL0     C31231   5.059   3.968   8.853 -0.3658  0.0687  0.3900
  232MOL0     C31232   4.942   3.907   8.901  0.8823  0.0603  1.2316
  232MOL0     O31233   4.655   3.908   8.914 -0.5440  0.9457 -0.3157
  232MOL0     C31234   4.597   3.743   9.222 -0.6651  0.9360  0.8498
  232MOL0     C31235   4.501   3.661   9.299  0.0196 -0.5623 -0.7324
  232MOL0     N31236   4.166   3.966   9.841  0.3185 -0.1766 -0.5526
  232MOL0     N31237   4.196   4.090   9.820 -0.1079  0.0052  0.0889
  232MOL0     C31238   4.336   4.767  10.658  0.2513  0.1536  0.7860
  232MOL0     C31239   4.291   4.852  10.759 -0.4314 -0.3212  0.1944
  232MOL0     C31240   4.200   5.190  11.018 -1.0871 -0.3598 -0.0888
  232MOL0     C31241   4.241   5.212  11.155  0.2125 -0.7392 -0.1719
  232MOL0     C31242   4.189   5.315  11.234  0.0411  0.7485  0.7571
  232MOL0     C31243   4.084   5.399  11.180  0.0655 -0.8103 -0.0779
  232MOL0     O31244   4.012   5.510  11.244  0.2848 -0.1470  0.1420
  232MOL0     C31245   4.030   5.541  11.382  0.1033 -0.4434  0.9446
  232MOL0     C31246   3.957   5.663  11.424 -0.0486 -0.1549 -0.3398
  232MOL0     C31247   3.903   5.657  11.564  0.7948  0.1216 -0.8708
  232MOL0     C31248   3.849   5.801  11.599  0.1742 -0.4412  1.3131
  232MOL0     C31249   3.736   5.841  11.512 -0.2843  0.5367 -0.0256
  232MOL0     C31250   3.652   5.895  11.442  0.2605 -0.9645 -0.1578
  232MOL0     C31251   4.054   5.384  11.041  0.3378 -0.2677  0.0037
  232MOL0     C31252   4.108   5.279  10.961 -0.1523 -0.6580  1.2031
  232MOL0     H31253   4.284   5.148  10.590 -0.8224  0.0154 -0.5140
  232MOL0     H31254   4.354   5.002  10.403 -1.6291 -0.3868 -0.2108
  232MOL0     H31255   4.209   4.619  10.440  0.7918 -2.6579 -1.8964
  232MOL0     H31256   4.209   4.763  10.344 -0.3481 -0.2530 -0.3743
  232MOL0     H31257   4.371   4.646  10.181  1.1178  2.3768  1.9114
  232MOL0     H31258   4.346   4.505  10.275  1.9300  1.4751  0.6837
  232MOL0     H31259   4.106   4.510  10.238 -0.7686  1.8514  0.5272
  232MOL0     H31260   4.112   4.645  10.122 -2.3115  0.2141  1.6785
  232MOL0     H31261   4.283   4.410  10.057 -0.3209  0.0442  0.9206
  232MOL0     H31262   4.109   4.378  10.086 -2.7301  2.4587  1.6395
  232MOL0     H31263   4.027   4.537   9.950 -1.3339 -2.0645  2.2381
  232MOL0     H31264   4.176   4.597   9.881  1.6821 -1.5506 -0.6761
  232MOL0     H31265   4.113   4.300   9.856 -3.3597 -0.6728 -2.2273
  232MOL0     H31266   4.039   4.407   9.739 -1.1132 -0.6384  1.2034
  232MOL0     H31267   4.284   4.468   9.673 -1.4808  2.0596  3.9023
  232MOL0     H31268   4.327   4.352   9.800  1.3678  0.1635 -1.7133
  232MOL0     H31269   4.305   4.228   9.563 -2.2188 -6.8771  0.0015
  232MOL0     H31270   4.138   4.291   9.568  1.5328 -0.0952 -1.8750
  232MOL0     H31271   4.140   3.990   9.516 -2.4193  0.2812  0.2554
  232MOL0     H31272   4.065   3.729   9.788  0.1243  1.5602  1.4606
  232MOL0     H31273   4.007   3.785   9.633  1.2938 -1.0049 -2.5324
  232MOL0     H31274   4.181   3.585   9.685 -0.7026  1.3903  2.4983
  232MOL0     H31275   4.303   3.710   9.672  0.7304 -1.2949  0.0092
  232MOL0     H31276   4.298   3.738   9.453  2.2022 -4.8701 -1.5335
  232MOL0     H31277   4.123   3.721   9.443 -0.0026 -0.0190  0.1847
  232MOL0     H31278   4.183   3.461   9.453  0.3814 -0.6931  1.1748
  232MOL0     H31279   4.356   3.516   9.456  0.2544 -0.8699 -0.5758
  232MOL0     H31280   4.277   3.598   9.049  1.5230 -2.0490 -1.5572
  232MOL0     H31281   4.358   3.673   8.829  1.6084 -3.1276 -1.0632
  232MOL0     H31282   4.427   3.834   8.845 -4.0371 -0.5577  0.8966
  232MOL0     H31283   4.540   3.702   8.815 -0.3681  1.1865 -1.4019
  232MOL0     H31284   4.929   4.003   9.222  0.9093 -0.1920 -0.0416
  232MOL0     H31285   5.137   4.113   9.166 -1.2367  0.1910  1.5767
  232MOL0     H31286   5.191   4.288   8.921  0.2132 -0.1863 -1.2264
  232MOL0     H31287   5.271   4.241   9.060 -1.7354  4.7445  0.2658
  232MOL0     H31288   5.475   4.206   8.949  1.7296  2.6635  1.3623
  232MOL0     H31289   5.404   4.233   8.787 -0.6391 -0.8858  0.8635
  232MOL0     H31290   5.455   4.434   9.006  3.2295  1.0588  0.1276
  232MOL0     H31291   5.372   4.473   8.858  1.1797  5.0754  1.7056
  232MOL0     H31292   5.628   4.543   8.884  0.9629 -0.4169 -1.4735
  232MOL0     H31293   5.663   4.370   8.882 -4.6730 -3.7172  1.6034
  232MOL0     H31294   5.530   4.539   8.660 -0.0953 -0.5915 -2.2656
  232MOL0     H31295   5.554   4.368   8.653 -1.5269  0.8933  0.6086
  232MOL0     H31296   5.762   4.577   8.663  2.3439 -1.2459  3.4200
  232MOL0     H31297   5.799   4.400   8.666 -1.1732 -0.2241  1.4577
  232MOL0     H31298   5.715   4.377   8.442 -0.2360  0.2889 -0.3820
  232MOL0     H31299   5.839   4.495   8.449  0.5066 -0.5135 -0.2329
  232MOL0     H31300   5.714   4.670   8.392  0.2182 -0.3902 -4.4234
  232MOL0     H31301   5.555   4.588   8.425 -0.1192 -2.0632  0.2993
  232MOL0     H31302   5.088   3.948   8.750  1.0685 -0.0962  0.8113
  232MOL0     H31303   4.886   3.843   8.835  1.3593  2.3814 -1.6513
  232MOL0     H31304   4.681   3.788   9.275 -1.2945  1.1316  1.7025
  232MOL0     H31305   4.521   3.647   9.404 -0.9298  2.4057 -0.0411
  232MOL0     H31306   4.353   4.660  10.664 -1.5384 -0.4345 -2.2164
  232MOL0     H31307   4.273   4.812  10.859  2.3864 -2.2065  0.0944
  232MOL0     H31308   4.328   5.162  11.195  0.2735  1.2148  2.4192
  232MOL0     H31309   4.220   5.343  11.334 -2.4478  0.1558  1.7768
  232MOL0     H31310   3.998   5.457  11.444  2.1228  0.4316  3.3822
  232MOL0     H31311   4.138   5.544  11.404  1.0203 -2.2057 -2.6103
  232MOL0     H31312   3.882   5.689  11.349 -1.0283 -2.7111 -0.3564
  232MOL0     H31313   4.030   5.743  11.422  2.7389 -2.2318  3.7646
  232MOL0     H31314   3.978   5.643  11.642 -2.3932 -0.6562  2.3162
  232MOL0     H31315   3.822   5.584  11.569 -0.9897  2.0427 -0.2380
  232MOL0     H31316   3.928   5.877  11.594 -0.6878  0.6182  2.9022
  232MOL0     H31317   3.798   5.797  11.696  1.3772 -1.5736  1.9245
  232MOL0     H31318   3.579   5.939  11.378  1.1433 -0.2215 -0.6855
  232MOL0     H31319   3.978   5.451  11.003 -0.4490 -1.9310 -1.5201
  232MOL0     H31320   4.080   5.278  10.856 -1.1116  1.1806  1.3963
  233MOL0     O31321   5.399   0.373   1.821  0.1303  0.3091 -0.4118
  233MOL0     C31322   5.387   0.455   1.730 -0.1460 -0.6350  0.0919
  233MOL0     O31323   5.315   0.444   1.620 -0.5914  0.6849 -0.3518
  233MOL0     C31324   5.253   0.331   1.584  0.7173  0.0495 -0.0249
  233MOL0     C31325   5.120   0.351   1.549  0.7298 -0.5332 -0.1674
  233MOL0     C31326   5.042   0.238   1.518  0.2407 -0.2754 -0.1465
  233MOL0     C31327   5.087   0.110   1.532 -0.0185 -0.6465 -0.9602
  233MOL0     O31328   5.000   0.002   1.506  0.2726 -0.7449  0.0437
  233MOL0     C31329   5.066  -0.121   1.481 -0.3091 -0.0323 -0.6528
  233MOL0     C31330   4.967  -0.219   1.438 -0.0722 -0.1418 -0.0999
  233MOL0     C31331   5.026  -0.355   1.390 -0.2345 -0.7310  0.1425
  233MOL0     C31332   4.947  -0.455   1.300  0.4309  1.0948  0.0628
  233MOL0     C31333   4.979  -0.593   1.363 -0.0451 -0.0200 -0.0806
  233MOL0     C31334   4.949  -0.700   1.264 -0.5777  0.9068  0.2091
  233MOL0     C31335   5.023  -0.714   1.132 -0.1290  1.1947 -0.1715
  233MOL0     C31336   5.145  -0.802   1.134  0.2304 -0.1367 -0.5650
  233MOL0     N31337   5.248  -0.762   1.035 -0.7210 -0.1098 -0.1833
  233MOL0     C31338   5.253  -0.817   0.906  0.1932  0.1768 -0.3042
  233MOL0     C31339   5.376  -0.805   0.857 -0.0958 -0.7382 -0.2964
  233MOL0     C31340   5.422  -0.830   0.711  0.4999  1.0478  0.1141
  233MOL0     C31341   5.376  -0.969   0.646  0.6506  0.4726 -0.3185
  233MOL0     C31342   5.334  -0.951   0.495 -0.3274 -0.0939  0.6072
  233MOL0     C31343   5.454  -0.931   0.409  0.0556  0.7980 -0.5304
  233MOL0     O31344   5.412  -0.893   0.275 -0.0900 -0.4740 -0.3910
  233MOL0     C31345   5.494  -0.922   0.170 -0.0275 -0.0495 -0.0929
  233MOL0     C31346   5.450  -0.931   0.042 -0.2045  0.7312 -0.3998
  233MOL0     C31347   5.532  -0.963  -0.064  0.2343 -0.5999  0.6861
  233MOL0     C31348   5.466  -0.993  -0.201 -0.3288 -0.4505 -0.0086
  233MOL0     C31349   5.673  -0.975  -0.044 -0.9687 -0.7214  0.5246
  233MOL0     C31350   5.767  -1.013  -0.152 -0.0196  0.4126  0.3775
  233MOL0     O31351   5.898  -0.981  -0.129  0.6566  0.1834  0.9155
  233MOL0     C31352   5.989  -1.009  -0.228  0.4911  0.4815 -0.2749
  233MOL0     C31353   6.034  -1.143  -0.246 -0.0240  0.2072 -0.3324
  233MOL0     C31354   6.152  -1.161  -0.321 -0.3644 -0.0455  0.0685
  233MOL0     C31355   6.212  -1.055  -0.403 -0.3118  0.4881 -0.0190
  233MOL0     O31356   6.330  -1.065  -0.474  0.0788  0.3855 -1.4642
  233MOL0     C31357   6.351  -1.179  -0.544 -0.4401  0.9265  0.2972
  233MOL0     C31358   6.474  -1.178  -0.638 -0.5401 -1.5356 -0.0863
  233MOL0     C31359   6.472  -1.056  -0.726  0.0836  1.0754 -0.4609
  233MOL0     C31360   6.526  -0.924  -0.663  0.1856  0.1588 -0.0091
  233MOL0     C31361   6.552  -0.831  -0.787 -0.5095  0.9607 -0.2432
  233MOL0     C31362   6.692  -0.845  -0.849  1.6676  0.3304  0.4191
  233MOL0     C31363   6.707  -0.731  -0.954  0.2136  0.0072  0.3666
  233MOL0     C31364   6.848  -0.714  -1.001  0.2977 -0.1366 -0.1312
  233MOL0    Cl31365   6.911  -0.847  -1.115  0.0675 -0.1374 -0.5060
  233MOL0     C31366   6.162  -0.926  -0.376  0.3004 -0.3462  0.7050
  233MOL0     C31367   6.052  -0.904  -0.287 -0.1656 -0.8016 -0.1108
  233MOL0     O31368   5.722  -1.068  -0.248 -0.1280 -1.1011 -0.0886
  233MOL0     C31369   5.720  -0.970   0.092 -0.6546 -0.5259 -0.0083
  233MOL0     C31370   5.632  -0.932   0.198  0.1011  0.1079 -0.0785
  233MOL0     N31371   5.457  -0.768   0.965  0.0033  0.4868  0.0363
  233MOL0     N31372   5.381  -0.722   1.055  0.3395  0.3595 -0.1191
  233MOL0     C31373   5.222   0.093   1.570  0.8061 -0.0527  0.0550
  233MOL0     C31374   5.305   0.203   1.584  0.5350 -0.3101 -0.5904
  233MOL0     C31375   5.470   0.577   1.743  0.0039 -0.0101  0.5396
  233MOL0     C31376   5.574   0.585   1.838  0.6029  0.4834  0.0841
  233MOL0     C31377   5.624   0.707   1.871  1.0593 -0.7026 -0.4257
  233MOL0     C31378   5.605   0.823   1.804 -0.1160 -0.2428  0.3302
  233MOL0     O31379   5.653   0.937   1.856 -0.4213  0.4130 -0.5602
  233MOL0     C31380   5.555   1.039   1.866 -0.3329 -0.4794 -1.1591
  233MOL0     C31381   5.620   1.169   1.912  0.0317 -0.6057  0.2099
  233MOL0     C31382   5.667   1.150   2.055 -0.8505 -0.4149  0.7316
  233MOL0     C31383   5.769   1.261   2.095 -0.6514  0.3881 -0.2572
  233MOL0     C31384   5.886   1.273   2.003 -0.2307  0.7594  0.3086
  233MOL0     C31385   5.960   1.309   1.904 -0.4932  0.3450 -0.4681
  233MOL0     C31386   5.511   0.814   1.698 -0.8479 -0.7139 -1.3086
  233MOL0     C31387   5.445   0.690   1.672 -0.4163  0.1445 -0.1117
  233MOL0     H31388   5.081   0.453   1.550  0.7409 -0.5212 -0.7069
  233MOL0     H31389   4.936   0.252   1.499 -0.2613 -3.5173 -0.1647
  233MOL0     H31390   5.146  -0.121   1.407  1.0215 -1.2952  0.6989
  233MOL0     H31391   5.108  -0.166   1.572  1.9443 -1.9024 -2.5117
  233MOL0     H31392   4.888  -0.243   1.510  0.7309  2.9834  2.0666
  233MOL0     H31393   4.916  -0.184   1.348 -1.7816 -0.8662  0.5390
  233MOL0     H31394   5.116  -0.329   1.333 -2.1116  3.7407 -1.2392
  233MOL0     H31395   5.070  -0.398   1.481 -0.6992  0.7044  1.0759
  233MOL0     H31396   4.842  -0.424   1.297 -0.2076 -0.7324  1.4844
  233MOL0     H31397   4.973  -0.448   1.194 -0.8717  0.5429 -0.3227
  233MOL0     H31398   5.087  -0.605   1.373  0.2538  1.7912 -0.7635
  233MOL0     H31399   4.922  -0.601   1.457 -2.8807 -0.4024 -1.7184
  233MOL0     H31400   4.954  -0.801   1.305 -1.2449  0.6481 -0.3360
  233MOL0     H31401   4.845  -0.686   1.236 -0.0759 -1.9543 -4.1605
  233MOL0     H31402   4.957  -0.763   1.059 -0.5342 -1.9595  2.1393
  233MOL0     H31403   5.034  -0.616   1.086 -5.8383  2.7949  1.0256
  233MOL0     H31404   5.118  -0.906   1.114 -1.6677  0.0470  0.8214
  233MOL0     H31405   5.187  -0.800   1.235 -0.1967 -1.1675 -0.3598
  233MOL0     H31406   5.170  -0.861   0.851  2.0815 -1.8038 -1.7715
  233MOL0     H31407   5.387  -0.746   0.651  1.0731 -0.1425 -2.0066
  233MOL0     H31408   5.531  -0.831   0.726  0.0206  0.0207  5.5486
  233MOL0     H31409   5.287  -1.008   0.696  0.7419  0.7416  0.0559
  233MOL0     H31410   5.447  -1.052   0.646  0.7284  0.5241  1.3043
  233MOL0     H31411   5.274  -0.860   0.484  1.9723  1.5552  0.7798
  233MOL0     H31412   5.277  -1.041   0.470  0.1693 -0.7217  1.6621
  233MOL0     H31413   5.519  -1.019   0.406  0.5801  1.1385  0.3411
  233MOL0     H31414   5.514  -0.856   0.461 -0.1542 -0.6128  1.9099
  233MOL0     H31415   5.348  -0.902   0.022  0.4590  1.6004 -2.9176
  233MOL0     H31416   5.483  -1.095  -0.237  0.7726  0.1794 -1.3731
  233MOL0     H31417   5.358  -0.987  -0.185 -0.5714  0.9036 -1.8320
  233MOL0     H31418   5.503  -0.920  -0.273 -0.4433  1.6244  1.9055
  233MOL0     H31419   5.987  -1.228  -0.197  1.6879 -0.0994  0.8755
  233MOL0     H31420   6.212  -1.252  -0.325 -1.7976 -0.9864 -0.9378
  233MOL0     H31421   6.377  -1.258  -0.472  0.9637  1.9558  0.9761
  233MOL0     H31422   6.265  -1.207  -0.605 -0.8763  1.0999  0.8222
  233MOL0     H31423   6.561  -1.187  -0.571 -1.6714  1.7891  2.0727
  233MOL0     H31424   6.470  -1.272  -0.694  0.4657 -1.6879  0.0642
  233MOL0     H31425   6.369  -1.052  -0.764  0.4788  1.5652 -1.4901
  233MOL0     H31426   6.535  -1.086  -0.810 -0.9765  0.7381 -1.1543
  233MOL0     H31427   6.456  -0.890  -0.586  0.1473 -1.2593  0.6142
  233MOL0     H31428   6.628  -0.945  -0.627  0.3003 -0.0420 -0.4520
  233MOL0     H31429   6.541  -0.726  -0.758 -2.3216  0.2107  2.0944
  233MOL0     H31430   6.470  -0.850  -0.857 -0.6739  0.3954  0.0940
  233MOL0     H31431   6.765  -0.845  -0.768 -0.1358 -1.8472  2.1765
  233MOL0     H31432   6.694  -0.940  -0.902  1.4012  1.5459 -1.9138
  233MOL0     H31433   6.675  -0.631  -0.923 -0.5517  0.2153 -1.0062
  233MOL0     H31434   6.653  -0.755  -1.046  0.7017 -0.0735  0.0989
  233MOL0     H31435   6.909  -0.699  -0.911 -4.1403  2.7669  2.8515
  233MOL0     H31436   6.857  -0.626  -1.065  0.1667 -0.5737 -0.7580
  233MOL0     H31437   6.204  -0.842  -0.431 -2.8432  1.3475  0.6620
  233MOL0     H31438   6.025  -0.801  -0.265  1.4277 -0.6283  1.1905
  233MOL0     H31439   5.826  -0.969   0.113 -0.4349 -3.5483 -0.6245
  233MOL0     H31440   5.683  -0.913   0.292  0.5267 -0.8363 -0.1064
  233MOL0     H31441   5.268  -0.005   1.585  2.8161  0.7590 -0.4184
  233MOL0     H31442   5.413   0.188   1.592  0.3071 -2.1865 -0.6404
  233MOL0     H31443   5.596   0.504   1.907 -0.6175  0.7240  0.7835
  233MOL0     H31444   5.685   0.708   1.960 -0.5013 -3.9326  0.8669
  233MOL0     H31445   5.490   1.062   1.781  0.5121  1.9604 -1.2329
  233MOL0     H31446   5.495   0.999   1.949  3.0920 -2.3766  0.6322
  233MOL0     H31447   5.551   1.254   1.908 -0.7696 -1.2667 -0.7663
  233MOL0     H31448   5.698   1.191   1.838 -1.8150  3.7804 -0.7542
  233MOL0     H31449   5.702   1.049   2.075 -0.1189 -0.0744  1.2185
  233MOL0     H31450   5.582   1.167   2.122  1.9516  1.6396  4.1555
  233MOL0     H31451   5.807   1.246   2.196  1.9462 -0.5055 -1.2872
  233MOL0     H31452   5.718   1.358   2.098  1.2858  1.4245  1.6098
  233MOL0     H31453   6.027   1.330   1.824  1.7694 -2.7391  0.4493
  233MOL0     H31454   5.484   0.907   1.648  1.8087  0.0008 -1.5588
  233MOL0     H31455   5.376   0.696   1.588 -0.3454 -0.8634 -0.2618
  234MOL0     O31456   7.043   5.356   0.423  0.2357  1.1029 -0.4003
  234MOL0     C31457   7.054   5.453   0.484 -0.1829 -0.7634 -0.9790
  234MOL0     O31458   6.958   5.551   0.493  0.4307  0.1385 -0.3461
  234MOL0     C31459   6.820   5.533   0.503 -0.4795 -0.3228 -0.8197
  234MOL0     C31460   6.750   5.415   0.484  0.5298  0.5533 -0.0887
  234MOL0     C31461   6.610   5.413   0.503 -0.6440  0.5183 -0.4161
  234MOL0     C31462   6.550   5.533   0.544  0.2025 -0.2566 -0.5214
  234MOL0     O31463   6.425   5.536   0.603 -0.0868 -0.2244 -0.2244
  234MOL0     C31464   6.322   5.436   0.554  0.0376 -0.2044 -0.3305
  234MOL0     C31465   6.180   5.471   0.592  0.0150 -0.5115  0.7510
  234MOL0     C31466   6.155   5.510   0.739  0.1552  0.1345  0.1548
  234MOL0     C31467   6.008   5.504   0.780 -0.0394 -0.1680 -0.0733
  234MOL0     C31468   5.993   5.507   0.933  1.0592  0.2804 -0.1630
  234MOL0     C31469   5.986   5.668   0.978  0.1983 -0.4983  0.1143
  234MOL0     C31470   5.919   5.684   1.111 -0.8980 -0.5828 -0.7001
  234MOL0     C31471   5.998   5.671   1.237  0.0985  0.0470 -0.1850
  234MOL0     N31472   5.909   5.688   1.361  0.6112  0.2447  0.1290
  234MOL0     C31473   5.891   5.799   1.442 -0.0665  0.4168  0.0984
  234MOL0     C31474   5.807   5.759   1.539 -0.4971  0.0803 -0.0358
  234MOL0     C31475   5.787   5.823   1.678 -0.0950 -0.4509 -0.1652
  234MOL0     C31476   5.900   5.803   1.776  0.1067  0.2689 -0.1637
  234MOL0     C31477   6.029   5.864   1.733 -0.3514 -0.7730  0.1688
  234MOL0     C31478   6.129   5.874   1.849 -0.0196  0.2797 -0.0666
  234MOL0     O31479   6.178   5.747   1.892  0.9292  0.0194 -0.2277
  234MOL0     C31480   6.269   5.752   1.997  0.5759  0.4796 -0.5255
  234MOL0     C31481   6.310   5.626   2.031  0.3562 -0.3699 -0.6269
  234MOL0     C31482   6.405   5.605   2.129 -0.9749 -0.1403 -0.6138
  234MOL0     C31483   6.437   5.464   2.147 -0.1582  0.7259  0.0389
  234MOL0     C31484   6.473   5.717   2.193  0.7017 -0.6837  0.0556
  234MOL0     C31485   6.597   5.698   2.287  0.2308 -0.2777 -0.0648
  234MOL0     O31486   6.651   5.817   2.336 -0.6743 -0.7262 -0.3426
  234MOL0     C31487   6.747   5.805   2.431 -0.2489  0.2255  0.1908
  234MOL0     C31488   6.882   5.769   2.395  0.2691 -0.3399 -0.4567
  234MOL0     C31489   6.968   5.769   2.509  0.0164  0.1687 -0.3525
  234MOL0     C31490   6.925   5.795   2.644 -1.1683  0.1174  0.8028
  234MOL0     O31491   7.013   5.775   2.747  0.2907  0.2638  0.4949
  234MOL0     C31492   6.995   5.860   2.855 -0.0200 -0.0163  0.5153
  234MOL0     C31493   7.119   5.867   2.939  0.6056 -0.3016 -0.6599
  234MOL0     C31494   7.093   5.902   3.086 -1.0785 -0.4891  0.5024
  234MOL0     C31495   7.233   5.930   3.150 -0.3960 -0.1178 -1.0949
  234MOL0     C31496   7.273   6.074   3.142 -0.0150 -0.8268  0.6622
  234MOL0     C31497   7.396   6.100   3.225  0.7021  0.0422 -0.8281
  234MOL0     C31498   7.422   6.250   3.249 -0.2049 -0.4656 -0.3367
  234MOL0     C31499   7.523   6.273   3.353  1.0960  0.2180 -0.6049
  234MOL0    Cl31500   7.685   6.239   3.287 -0.2203  0.0488 -0.4953
  234MOL0     C31501   6.790   5.825   2.664 -0.1471  0.9119  0.4191
  234MOL0     C31502   6.702   5.838   2.561  0.2687 -0.1233 -0.5488
  234MOL0     O31503   6.620   5.588   2.335 -0.3344  0.3388 -0.1508
  234MOL0     C31504   6.429   5.848   2.154 -0.2498 -0.7091 -0.1947
  234MOL0     C31505   6.332   5.856   2.054  0.3569  0.2850  0.0732
  234MOL0     N31506   5.781   5.627   1.522  0.1992 -0.6804 -0.0081
  234MOL0     N31507   5.824   5.587   1.403 -0.1787 -0.1020 -0.4044
  234MOL0     C31508   6.618   5.650   0.552  0.7051 -0.1714  0.4296
  234MOL0     C31509   6.752   5.652   0.536  0.1770  1.4719  1.0378
  234MOL0     C31510   7.193   5.504   0.496 -0.4203  0.4365 -0.6067
  234MOL0     C31511   7.306   5.415   0.489 -0.8002 -0.7860 -0.2402
  234MOL0     C31512   7.431   5.467   0.470 -0.2879 -0.3760  0.2787
  234MOL0     C31513   7.454   5.605   0.478 -0.2443  0.2044 -0.1248
  234MOL0     O31514   7.591   5.639   0.477  0.1835  0.1126 -0.4442
  234MOL0     C31515   7.625   5.780   0.517  0.3744 -0.2938  0.6748
  234MOL0     C31516   7.772   5.792   0.549  0.0170  0.3923  0.2220
  234MOL0     C31517   7.809   5.701   0.663  0.2839 -0.0815  0.9291
  234MOL0     C31518   7.951   5.754   0.716  0.4999  0.2075  0.1320
  234MOL0     C31519   8.010   5.662   0.817 -0.5620  1.3085  0.2513
  234MOL0     C31520   8.063   5.578   0.896  0.2151 -0.1407  0.0740
  234MOL0     C31521   7.348   5.690   0.502 -0.5761 -1.0673  0.0560
  234MOL0     C31522   7.221   5.646   0.493  0.5792  0.0060 -0.3238
  234MOL0     H31523   6.796   5.322   0.451 -0.8364 -1.3956  3.0993
  234MOL0     H31524   6.548   5.324   0.502  1.6178 -1.2284 -3.6162
  234MOL0     H31525   6.328   5.433   0.445  0.5619 -0.2423 -0.3007
  234MOL0     H31526   6.338   5.333   0.588 -1.3100 -0.1791  0.4898
  234MOL0     H31527   6.144   5.553   0.529  1.8964  0.0989  0.3961
  234MOL0     H31528   6.118   5.385   0.566  1.8429 -1.0069 -2.5183
  234MOL0     H31529   6.222   5.441   0.791 -0.8569 -1.7042 -0.8599
  234MOL0     H31530   6.180   5.616   0.740 -0.7230  0.3583 -0.3600
  234MOL0     H31531   5.949   5.575   0.722 -2.5088 -1.7231  0.3629
  234MOL0     H31532   5.963   5.408   0.751 -1.6757  0.2747  0.8534
  234MOL0     H31533   5.895   5.462   0.948 -1.8198  5.2766 -1.5240
  234MOL0     H31534   6.070   5.457   0.993 -0.4249 -1.1687  0.5894
  234MOL0     H31535   6.087   5.709   0.981 -1.2591  3.5230  0.1532
  234MOL0     H31536   5.920   5.725   0.912 -0.2658  0.1014  1.0760
  234MOL0     H31537   5.883   5.787   1.116 -0.8892 -0.5135 -1.9150
  234MOL0     H31538   5.831   5.620   1.110 -3.4675  2.6289  1.1668
  234MOL0     H31539   6.077   5.745   1.256 -0.0602  0.0731  0.3929
  234MOL0     H31540   6.041   5.571   1.234 -0.4758 -0.1887 -1.0239
  234MOL0     H31541   5.937   5.897   1.438 -1.9992  1.3390 -0.7484
  234MOL0     H31542   5.757   5.929   1.680  2.3612  0.3848 -2.0239
  234MOL0     H31543   5.699   5.776   1.723 -1.1405  3.7780  2.7788
  234MOL0     H31544   5.916   5.697   1.798 -0.7194  0.2198  0.2251
  234MOL0     H31545   5.859   5.839   1.871  2.3025  0.1740  0.9034
  234MOL0     H31546   6.008   5.963   1.691 -2.1227 -0.0819  2.5097
  234MOL0     H31547   6.071   5.794   1.660  5.5119  1.6848  0.6209
  234MOL0     H31548   6.087   5.941   1.925 -0.8649  1.4333 -1.4802
  234MOL0     H31549   6.217   5.930   1.815 -1.0823  3.4034  1.8358
  234MOL0     H31550   6.268   5.551   1.966  1.0933 -0.4706 -1.0012
  234MOL0     H31551   6.376   5.430   2.232  0.0910 -1.2456 -0.5193
  234MOL0     H31552   6.419   5.392   2.067 -2.1596 -4.5075  4.5412
  234MOL0     H31553   6.536   5.437   2.185 -0.5645 -1.2933 -0.2534
  234MOL0     H31554   6.898   5.746   2.291  1.6633  2.6609 -1.0085
  234MOL0     H31555   7.074   5.751   2.493  0.5384  0.7261  2.0883
  234MOL0     H31556   6.963   5.959   2.822 -0.0154 -0.1681  0.0559
  234MOL0     H31557   6.910   5.820   2.911 -1.2479  1.7716  0.0178
  234MOL0     H31558   7.149   5.762   2.930 -2.0828 -1.0267 -2.3709
  234MOL0     H31559   7.194   5.936   2.900 -0.1177 -0.0735 -1.6719
  234MOL0     H31560   7.056   5.818   3.144  1.1428  1.5503  5.4154
  234MOL0     H31561   7.030   5.990   3.103  1.3355  1.6984 -1.0484
  234MOL0     H31562   7.220   5.894   3.253 -1.5442 -0.4244 -1.3401
  234MOL0     H31563   7.314   5.873   3.103  0.4087  2.4024 -2.9795
  234MOL0     H31564   7.195   6.137   3.185  1.3494  1.8257 -0.5103
  234MOL0     H31565   7.301   6.106   3.041 -1.2107  0.0696  0.6027
  234MOL0     H31566   7.385   6.064   3.328 -1.4887  0.4452 -0.8587
  234MOL0     H31567   7.486   6.056   3.181  1.2243 -1.7105  1.7185
  234MOL0     H31568   7.328   6.298   3.278  0.8025  0.3192  1.8172
  234MOL0     H31569   7.458   6.293   3.155 -0.2231 -0.2572 -0.2478
  234MOL0     H31570   7.486   6.209   3.433 -3.1886  0.3108 -2.2395
  234MOL0     H31571   7.525   6.378   3.384  1.4302 -0.5659  2.3603
  234MOL0     H31572   6.742   5.856   2.756  2.6893  2.2289  1.5984
  234MOL0     H31573   6.596   5.847   2.579  0.8839  1.8354  3.1892
  234MOL0     H31574   6.471   5.935   2.203  2.3332 -1.9575 -0.0279
  234MOL0     H31575   6.296   5.950   2.013 -1.1537 -0.4479 -0.3492
  234MOL0     H31576   6.577   5.742   0.592 -0.4972 -0.5994  0.2285
  234MOL0     H31577   6.805   5.747   0.542 -4.4583  4.4312  0.1397
  234MOL0     H31578   7.276   5.311   0.485 -1.2771 -0.7371  1.2036
  234MOL0     H31579   7.507   5.394   0.445 -0.3571 -0.3262 -0.0965
  234MOL0     H31580   7.611   5.848   0.432 -0.8329  0.6451  1.5852
  234MOL0     H31581   7.570   5.818   0.604 -2.2092  0.7398 -1.2566
  234MOL0     H31582   7.794   5.895   0.577  3.0223 -0.1951  0.2848
  234MOL0     H31583   7.822   5.769   0.455 -2.9790 -1.5884 -1.0712
  234MOL0     H31584   7.813   5.599   0.624 -0.1239  0.8469 -1.7157
  234MOL0     H31585   7.734   5.705   0.743 -2.1994 -2.0481 -1.1459
  234MOL0     H31586   7.929   5.853   0.757 -0.2402  0.8706 -1.7407
  234MOL0     H31587   8.016   5.774   0.630 -1.4144  1.4352 -1.1301
  234MOL0     H31588   8.097   5.512   0.974  2.4338  3.2877  2.3193
  234MOL0     H31589   7.358   5.798   0.509 -4.1393 -0.7141  2.0241
  234MOL0     H31590   7.139   5.716   0.479 -0.9441 -1.8034 -0.9627
  235MOL0     O31591   3.170  10.271   3.737 -0.1249  0.7370 -0.1423
  235MOL0     C31592   3.289  10.302   3.723 -0.0317  1.2771  0.0622
  235MOL0     O31593   3.334  10.376   3.625 -0.3932  0.1884 -0.3151
  235MOL0     C31594   3.251  10.447   3.541  0.7204 -0.6744  0.4322
  235MOL0     C31595   3.302  10.570   3.504 -0.4076  1.0550 -0.7044
  235MOL0     C31596   3.243  10.636   3.400  0.5102 -0.2169  0.0303
  235MOL0     C31597   3.131  10.597   3.334  0.2125 -0.2908  0.3795
  235MOL0     O31598   3.078  10.687   3.239 -0.0250 -0.1534  0.2654
  235MOL0     C31599   2.960  10.647   3.176  0.5568 -0.0094  0.0920
  235MOL0     C31600   2.953  10.747   3.056  0.1685 -0.1722 -0.0774
  235MOL0     C31601   3.016  10.672   2.938  0.0719  0.6033 -0.2453
  235MOL0     C31602   2.995  10.758   2.817  0.1910 -0.5271  0.3968
  235MOL0     C31603   3.058  10.685   2.700  0.1936 -0.2141  0.0727
  235MOL0     C31604   3.152  10.772   2.626  0.0634 -0.0758  0.4193
  235MOL0     C31605   3.185  10.696   2.499  0.2639  0.2045  0.4468
  235MOL0     C31606   3.283  10.578   2.510  0.0626 -0.9133 -0.6391
  235MOL0     N31607   3.421  10.612   2.552 -0.4427 -0.4460 -0.4626
  235MOL0     C31608   3.475  10.612   2.676 -0.0961 -0.4289 -0.6635
  235MOL0     C31609   3.602  10.654   2.659 -0.3587  0.1951 -0.7199
  235MOL0     C31610   3.711  10.666   2.763  0.0179 -0.2105 -0.1791
  235MOL0     C31611   3.663  10.636   2.900 -0.8954 -0.5394 -0.7013
  235MOL0     C31612   3.766  10.665   3.006 -0.0656  0.7374  0.4606
  235MOL0     C31613   3.896  10.589   2.991  0.4827  0.6841  0.6158
  235MOL0     O31614   3.855  10.452   2.980 -0.1305  0.5810 -0.3516
  235MOL0     C31615   3.950  10.353   2.974 -0.2778 -0.4776  0.4944
  235MOL0     C31616   4.088  10.370   2.953 -0.1226  0.0652 -0.7120
  235MOL0     C31617   4.176  10.260   2.945  0.2212 -0.4011  0.4161
  235MOL0     C31618   4.320  10.285   2.922  0.5824  0.7331  0.7146
  235MOL0     C31619   4.124  10.125   2.944 -0.8392 -0.5174  0.2701
  235MOL0     C31620   4.203   9.993   2.913  0.0934 -0.2911 -0.1595
  235MOL0     O31621   4.132   9.872   2.905 -0.1970 -0.4128  1.1171
  235MOL0     C31622   4.186   9.750   2.899 -0.2033  1.0282 -0.5336
  235MOL0     C31623   4.324   9.708   2.923  0.2623  0.6748 -0.6590
  235MOL0     C31624   4.368   9.572   2.916  0.6680  0.6853  0.3556
  235MOL0     C31625   4.270   9.474   2.891 -0.9565  0.0563  1.1259
  235MOL0     O31626   4.296   9.339   2.905  1.0923 -0.0020  0.7178
  235MOL0     C31627   4.408   9.294   2.839  0.1187  0.7144 -0.4784
  235MOL0     C31628   4.387   9.142   2.805 -0.2855  0.3522  0.1175
  235MOL0     C31629   4.384   9.051   2.936 -0.7772  0.7880  0.1334
  235MOL0     C31630   4.404   8.903   2.890  1.0432 -0.3553  0.1194
  235MOL0     C31631   4.320   8.850   2.767  0.7601  0.9182 -0.2140
  235MOL0     C31632   4.334   8.696   2.724 -0.4738  0.5407 -0.2577
  235MOL0     C31633   4.486   8.647   2.725  0.4087  0.2240  0.4247
  235MOL0     C31634   4.506   8.516   2.647  0.6810  0.7941  0.2299
  235MOL0    Cl31635   4.454   8.386   2.767 -0.4402 -0.6093 -0.1168
  235MOL0     C31636   4.138   9.510   2.865  0.0918  0.2528  0.2035
  235MOL0     C31637   4.102   9.644   2.868  0.2213 -0.7648  0.0264
  235MOL0     O31638   4.324   9.994   2.890  1.2085  0.8585 -0.8699
  235MOL0     C31639   3.992  10.107   2.977 -0.0140 -0.2056 -0.9166
  235MOL0     C31640   3.906  10.220   2.977  0.4045 -0.4948 -0.0998
  235MOL0     N31641   3.631  10.665   2.531  1.1278 -0.2667 -0.1196
  235MOL0     N31642   3.521  10.647   2.464  1.5410 -0.5034 -0.4758
  235MOL0     C31643   3.081  10.474   3.369  0.4148 -0.3842 -0.5260
  235MOL0     C31644   3.131  10.395   3.472 -1.1152  0.5791 -0.5333
  235MOL0     C31645   3.392  10.232   3.819  0.6274  0.7246 -0.4379
  235MOL0     C31646   3.515  10.300   3.833 -0.0288  0.4418  0.7403
  235MOL0     C31647   3.616  10.241   3.911 -0.3118 -0.8199 -0.4172
  235MOL0     C31648   3.588  10.128   3.991 -0.3282 -0.0593 -0.2984
  235MOL0     O31649   3.685  10.061   4.074  0.0816 -0.4210 -1.0852
  235MOL0     C31650   3.810  10.131   4.098 -0.5947  0.3523  0.5256
  235MOL0     C31651   3.904  10.044   4.172 -0.5054  0.2914  0.0792
  235MOL0     C31652   3.834   9.982   4.297 -0.2501 -1.1234  0.5191
  235MOL0     C31653   3.943   9.907   4.374 -0.3323  0.3316 -0.5810
  235MOL0     C31654   4.001   9.796   4.304  0.6684  0.7898  0.3257
  235MOL0     C31655   4.029   9.689   4.256  0.6698  0.2721 -0.2758
  235MOL0     C31656   3.461  10.065   3.977 -0.8361 -0.8647 -0.0415
  235MOL0     C31657   3.363  10.113   3.888 -0.5274  0.8650 -0.4886
  235MOL0     H31658   3.391  10.605   3.555  0.4417  0.0191 -1.4313
  235MOL0     H31659   3.297  10.725   3.367  0.9973 -1.2403 -2.0699
  235MOL0     H31660   2.958  10.546   3.135 -2.9041  0.2924 -0.8066
  235MOL0     H31661   2.877  10.672   3.243 -1.4485  0.6778 -2.4844
  235MOL0     H31662   2.855  10.778   3.016 -0.3361  1.5500  2.2649
  235MOL0     H31663   3.005  10.838   3.086  1.9731 -1.3304  0.4145
  235MOL0     H31664   3.125  10.663   2.942  0.5633  1.4922 -4.9507
  235MOL0     H31665   2.969  10.575   2.921 -0.6152  0.4072  2.4038
  235MOL0     H31666   2.892  10.787   2.796  0.3264  0.6424  1.2927
  235MOL0     H31667   3.049  10.851   2.834 -1.6049  0.6850 -0.3152
  235MOL0     H31668   3.104  10.593   2.738  1.1318  0.7402  1.3646
  235MOL0     H31669   2.976  10.658   2.633 -0.1044 -0.2039  0.4292
  235MOL0     H31670   3.114  10.870   2.598  3.3225  0.6927 -1.9399
  235MOL0     H31671   3.244  10.792   2.682  0.5130  0.1874 -0.4003
  235MOL0     H31672   3.091  10.661   2.456  1.2442  0.7004 -2.3065
  235MOL0     H31673   3.229  10.759   2.420  3.7954 -0.9694  1.2892
  235MOL0     H31674   3.284  10.519   2.418 -2.9240 -0.8692 -0.8114
  235MOL0     H31675   3.228  10.514   2.580  0.2283 -1.6226 -1.1362
  235MOL0     H31676   3.432  10.587   2.772  2.4144 -2.7266 -0.0171
  235MOL0     H31677   3.797  10.602   2.746 -0.1163  0.2160 -3.0553
  235MOL0     H31678   3.752  10.767   2.751 -1.3128  0.8860  3.3934
  235MOL0     H31679   3.619  10.536   2.909 -1.7445 -0.1452 -0.3120
  235MOL0     H31680   3.578  10.701   2.921 -0.3507  0.4594 -1.5333
  235MOL0     H31681   3.742  10.653   3.112  1.8554 -0.1755  0.8477
  235MOL0     H31682   3.796  10.770   2.996  1.2680  0.4584  1.1786
  235MOL0     H31683   3.978  10.613   3.059  3.6613 -0.6325 -2.4065
  235MOL0     H31684   3.946  10.616   2.898  2.6333 -3.0501  0.4634
  235MOL0     H31685   4.130  10.470   2.956 -2.0286  0.8690  0.6236
  235MOL0     H31686   4.376  10.219   2.989 -2.9753 -0.6052  2.5865
  235MOL0     H31687   4.344  10.242   2.824 -0.1412  1.6616  0.1078
  235MOL0     H31688   4.343  10.392   2.923 -2.6980  1.5134  0.7671
  235MOL0     H31689   4.405   9.771   2.958  1.8334 -1.8347  0.5016
  235MOL0     H31690   4.470   9.549   2.944 -0.3113  0.3102  4.1976
  235MOL0     H31691   4.430   9.354   2.750  1.2644 -2.0978 -2.2159
  235MOL0     H31692   4.491   9.298   2.911 -0.4193  1.2105  0.1223
  235MOL0     H31693   4.295   9.138   2.746  0.8437 -1.3115 -1.6471
  235MOL0     H31694   4.460   9.101   2.734 -2.4920  0.4934 -2.4016
  235MOL0     H31695   4.286   9.063   2.983  0.4334 -1.7285  3.7347
  235MOL0     H31696   4.457   9.085   3.010 -0.0096 -0.4515 -0.0096
  235MOL0     H31697   4.505   8.889   2.853  1.2003 -3.7264  1.4421
  235MOL0     H31698   4.392   8.840   2.979  0.2648 -2.0589 -1.1590
  235MOL0     H31699   4.344   8.917   2.683 -0.7507 -1.5937 -2.8377
  235MOL0     H31700   4.214   8.861   2.789  0.9860  1.4909  0.6401
  235MOL0     H31701   4.276   8.638   2.797 -1.9682  0.6017 -1.3580
  235MOL0     H31702   4.279   8.681   2.631  1.2987 -0.3805 -1.2321
  235MOL0     H31703   4.524   8.626   2.825  5.4348  1.6579 -0.9281
  235MOL0     H31704   4.538   8.732   2.679 -2.7877  2.1079 -0.0827
  235MOL0     H31705   4.609   8.485   2.630  1.7787  3.0459  2.1536
  235MOL0     H31706   4.449   8.523   2.554  0.4212  1.3358  0.4244
  235MOL0     H31707   4.057   9.439   2.847 -3.0403  3.6535 -0.2452
  235MOL0     H31708   3.996   9.667   2.865  0.4793  0.4759 -0.2118
  235MOL0     H31709   3.951  10.007   2.975 -1.0989  0.2328 -1.9941
  235MOL0     H31710   3.803  10.188   2.993 -0.2599  1.0822 -0.9660
  235MOL0     H31711   3.000  10.438   3.305 -0.6342  2.5592 -1.0452
  235MOL0     H31712   3.098  10.296   3.502  2.0469  0.3538  2.9176
  235MOL0     H31713   3.525  10.392   3.776  0.1165  0.2561  0.4600
  235MOL0     H31714   3.709  10.297   3.912  0.2749 -1.7467 -1.0601
  235MOL0     H31715   3.847  10.159   3.999  0.7969  1.3336  1.3001
  235MOL0     H31716   3.787  10.221   4.156  1.6536 -0.3472  2.6788
  235MOL0     H31717   3.980  10.120   4.193  0.4217 -1.0154  1.6883
  235MOL0     H31718   3.946   9.968   4.106  2.4395  0.9537  1.0363
  235MOL0     H31719   3.760   9.909   4.264 -0.9950 -0.3323  0.4141
  235MOL0     H31720   3.779  10.051   4.361 -1.2435 -1.2292 -0.2058
  235MOL0     H31721   3.899   9.866   4.466  1.5006 -6.9192 -2.2651
  235MOL0     H31722   4.026   9.970   4.406  1.6522 -2.8933  1.2704
  235MOL0     H31723   4.034   9.584   4.237  0.1415  0.4135 -1.2788
  235MOL0     H31724   3.449   9.972   4.032 -0.3521 -1.5838 -1.1152
  235MOL0     H31725   3.272  10.058   3.865  1.2758 -2.0701 -1.2250
  236MOL0     O31726   6.019   1.431   8.848 -0.7916 -0.2034 -0.0140
  236MOL0     C31727   5.936   1.513   8.869  0.3233 -0.7789 -0.4694
  236MOL0     O31728   5.894   1.555   8.990  0.0166  0.6635  0.0663
  236MOL0     C31729   5.971   1.520   9.099  0.0377 -0.6284 -0.8428
  236MOL0     C31730   6.114   1.518   9.107 -0.2935 -0.8251 -0.6689
  236MOL0     C31731   6.180   1.486   9.225 -0.9814 -0.9072 -0.0340
  236MOL0     C31732   6.111   1.435   9.338  1.2534  0.7878  0.5236
  236MOL0     O31733   6.201   1.400   9.434  0.1726  0.6725 -0.8301
  236MOL0     C31734   6.145   1.309   9.535  0.4270 -0.0644  0.3860
  236MOL0     C31735   6.227   1.328   9.657 -0.9299  0.6414 -0.4688
  236MOL0     C31736   6.375   1.281   9.629  0.0458  1.2360 -0.0193
  236MOL0     C31737   6.472   1.309   9.739  0.4496 -0.2314 -0.3307
  236MOL0     C31738   6.608   1.285   9.696 -0.3580  0.3871  0.6205
  236MOL0     C31739   6.709   1.330   9.796  0.6492  0.5369 -0.3003
  236MOL0     C31740   6.828   1.395   9.758  0.1718  0.2037  0.0701
  236MOL0     C31741   6.811   1.545   9.717  0.0923  0.3078  0.3770
  236MOL0     N31742   6.768   1.620   9.830  0.5942  0.0897  0.5833
  236MOL0     C31743   6.645   1.637   9.891  0.3422  1.0643 -0.2831
  236MOL0     C31744   6.657   1.689  10.014  1.0575 -0.3960  0.1716
  236MOL0     C31745   6.554   1.742  10.112 -0.3971 -0.3093  0.4523
  236MOL0     C31746   6.505   1.877  10.063  0.1372 -0.2716  0.0658
  236MOL0     C31747   6.397   1.944  10.146  0.3870 -0.1872  0.0291
  236MOL0     C31748   6.273   1.871  10.164 -0.3467  0.2073 -0.1600
  236MOL0     O31749   6.210   1.889  10.296  0.0034  0.3836 -0.1700
  236MOL0     C31750   6.097   1.809  10.309 -0.7363 -0.6347 -1.1521
  236MOL0     C31751   6.120   1.669  10.326  0.1905 -0.5924  0.2944
  236MOL0     C31752   6.024   1.571  10.329  0.9153  0.2742 -0.7574
  236MOL0     C31753   6.044   1.421  10.338 -0.1893 -0.4148  0.2794
  236MOL0     C31754   5.894   1.624  10.319  0.0886 -0.7782  0.4133
  236MOL0     C31755   5.779   1.536  10.300 -0.1635  0.2496 -0.7537
  236MOL0     O31756   5.654   1.581  10.347 -0.4312 -0.0007 -0.1751
  236MOL0     C31757   5.527   1.529  10.311  0.1884  0.0051  0.0233
  236MOL0     C31758   5.498   1.450  10.198 -0.7536  0.3184  0.2138
  236MOL0     C31759   5.386   1.381  10.181 -0.1306 -0.8740 -0.3542
  236MOL0     C31760   5.280   1.412  10.267  0.9906  0.0608 -0.4091
  236MOL0     O31761   5.147   1.362  10.255 -0.6680  0.3537  0.4629
  236MOL0     C31762   5.120   1.252  10.177  0.2497  0.1505 -0.3837
  236MOL0     C31763   4.985   1.185  10.221  0.3071 -0.3970 -0.1311
  236MOL0     C31764   4.962   1.053  10.146 -0.6170 -0.4656  0.7881
  236MOL0     C31765   4.876   0.961  10.231 -0.0350  0.8240 -0.2859
  236MOL0     C31766   4.736   1.012  10.262 -0.2853  0.2194 -0.2071
  236MOL0     C31767   4.645   0.978  10.151  0.8349 -0.1442 -0.4167
  236MOL0     C31768   4.506   1.063  10.146 -0.7116  0.2603 -0.4767
  236MOL0     C31769   4.419   1.056  10.025  0.1085 -0.9526  1.2756
  236MOL0    Cl31770   4.514   1.066   9.870  0.4427  0.0339 -0.1902
  236MOL0     C31771   5.298   1.504  10.375 -0.5789  0.9276  0.3643
  236MOL0     C31772   5.416   1.563  10.394  0.4804 -0.3378  1.0128
  236MOL0     O31773   5.799   1.427  10.242  0.0486 -0.2841 -0.1636
  236MOL0     C31774   5.873   1.760  10.298 -0.1258 -0.8196  0.7042
  236MOL0     C31775   5.973   1.852  10.289 -0.7947  0.5605  0.3011
  236MOL0     N31776   6.799   1.726  10.024 -1.0804  0.2973  0.5606
  236MOL0     N31777   6.856   1.677   9.914  0.2562 -0.2974 -0.2320
  236MOL0     C31778   5.970   1.431   9.335  0.2396  0.1468 -0.1055
  236MOL0     C31779   5.906   1.477   9.217  0.0723  0.2293 -0.0213
  236MOL0     C31780   5.856   1.554   8.753  0.9854 -0.2908 -0.2655
  236MOL0     C31781   5.916   1.548   8.629  0.1798  0.0591  0.4175
  236MOL0     C31782   5.843   1.586   8.517 -0.4924 -1.8828  0.0952
  236MOL0     C31783   5.713   1.629   8.526  0.7448  1.0239  1.0411
  236MOL0     O31784   5.638   1.679   8.423  0.8183 -0.2386 -0.7704
  236MOL0     C31785   5.704   1.703   8.294  0.0563  0.1572  0.0082
  236MOL0     C31786   5.695   1.573   8.219 -0.1401 -0.2737  1.2303
  236MOL0     C31787   5.545   1.548   8.187 -1.0457  0.0254  1.6686
  236MOL0     C31788   5.523   1.445   8.070 -0.6518 -0.3736  0.4631
  236MOL0     C31789   5.606   1.489   7.954 -0.4751 -0.4939  0.2003
  236MOL0     C31790   5.668   1.532   7.856  0.7292  0.7633 -0.4623
  236MOL0     C31791   5.650   1.634   8.647 -0.2137  0.3966 -0.4819
  236MOL0     C31792   5.729   1.601   8.764  0.0461 -0.0766 -0.4999
  236MOL0     H31793   6.172   1.552   9.022 -0.4138  2.3631  0.3887
  236MOL0     H31794   6.288   1.496   9.230 -0.7320 -1.7104 -2.5462
  236MOL0     H31795   6.039   1.329   9.556  0.0265  0.2310 -1.7476
  236MOL0     H31796   6.136   1.203   9.510 -2.2805  0.2355 -0.2664
  236MOL0     H31797   6.226   1.433   9.687 -1.6128 -0.1037  2.5363
  236MOL0     H31798   6.188   1.269   9.741 -1.0453 -1.5002 -1.9507
  236MOL0     H31799   6.367   1.172   9.627  0.6582  1.1966 -0.3682
  236MOL0     H31800   6.411   1.308   9.530  0.6696 -0.6546 -0.3335
  236MOL0     H31801   6.464   1.415   9.766 -1.2154 -0.6545  1.0191
  236MOL0     H31802   6.454   1.244   9.825  1.0682 -1.0014 -0.7689
  236MOL0     H31803   6.623   1.180   9.668 -2.6440  0.2640 -0.3974
  236MOL0     H31804   6.617   1.336   9.600  1.2704 -0.8778  0.0542
  236MOL0     H31805   6.656   1.376   9.879  1.5131 -0.1312  0.6434
  236MOL0     H31806   6.730   1.231   9.838 -0.7049 -0.5143 -1.9115
  236MOL0     H31807   6.910   1.381   9.829  1.0796  2.0869 -0.5481
  236MOL0     H31808   6.860   1.338   9.669  0.5160 -2.0464  1.5603
  236MOL0     H31809   6.726   1.544   9.648 -1.7528 -1.2441  2.5348
  236MOL0     H31810   6.900   1.592   9.674 -0.8350  0.9678 -0.9232
  236MOL0     H31811   6.548   1.608   9.853 -1.1553 -3.0558  5.3923
  236MOL0     H31812   6.482   1.660  10.126 -1.7811  1.3328  4.8969
  236MOL0     H31813   6.599   1.752  10.211 -0.3774  0.2275  0.3933
  236MOL0     H31814   6.471   1.865   9.960  1.1873  0.5379 -0.3958
  236MOL0     H31815   6.593   1.941  10.065 -0.0731  0.0305 -0.2930
  236MOL0     H31816   6.365   2.041  10.108 -0.6650  0.5661  2.6485
  236MOL0     H31817   6.438   1.950  10.247 -1.6895  0.6299  0.8748
  236MOL0     H31818   6.278   1.767  10.129 -1.2558 -0.0494  0.4664
  236MOL0     H31819   6.204   1.918  10.094  2.3160  1.5365 -2.0975
  236MOL0     H31820   6.225   1.642  10.335 -0.0515 -1.0266  2.3768
  236MOL0     H31821   6.149   1.409  10.367  0.6118  1.0265 -1.7801
  236MOL0     H31822   5.986   1.371  10.416 -1.1733  3.2520  2.1406
  236MOL0     H31823   6.030   1.370  10.242  0.2738  0.4357 -0.2560
  236MOL0     H31824   5.584   1.429  10.134 -2.0843  1.2081 -1.9769
  236MOL0     H31825   5.366   1.313  10.099 -1.2570  2.8007 -3.3877
  236MOL0     H31826   5.112   1.288  10.074 -1.6526  0.4338 -0.1582
  236MOL0     H31827   5.199   1.178  10.194  0.0853  0.2846  1.1022
  236MOL0     H31828   4.987   1.147  10.324  2.2567 -2.3470 -0.7952
  236MOL0     H31829   4.892   1.236  10.196  0.1119 -0.8308 -0.3097
  236MOL0     H31830   5.054   0.995  10.138 -0.6998 -0.3613 -1.6491
  236MOL0     H31831   4.928   1.066  10.042  2.2107 -1.2078 -0.3259
  236MOL0     H31832   4.867   0.873  10.166 -1.9877 -1.1293  2.4380
  236MOL0     H31833   4.936   0.925  10.315  1.8604 -2.6287 -2.8538
  236MOL0     H31834   4.740   1.115  10.299  3.6398 -0.2438  1.1607
  236MOL0     H31835   4.720   0.953  10.353  0.5030 -3.5757 -2.3323
  236MOL0     H31836   4.698   0.993  10.057  1.3755 -0.4973 -0.1735
  236MOL0     H31837   4.627   0.871  10.166  2.3149 -0.6814 -2.1511
  236MOL0     H31838   4.526   1.168  10.170  2.0716 -0.3542  0.2915
  236MOL0     H31839   4.447   1.032  10.233 -1.3741  1.9097 -0.2952
  236MOL0     H31840   4.360   1.148  10.032  0.8506 -0.2511 -1.0290
  236MOL0     H31841   4.358   0.966  10.009  1.3430 -1.9619  2.0490
  236MOL0     H31842   5.208   1.517  10.433 -1.0479 -4.1179  1.2873
  236MOL0     H31843   5.428   1.620  10.485 -2.8767  0.6790  0.9524
  236MOL0     H31844   5.772   1.790  10.271  0.5335 -0.1496 -1.1329
  236MOL0     H31845   5.960   1.952  10.248  1.4976  1.2956  1.1740
  236MOL0     H31846   5.903   1.387   9.408 -3.5673  4.8592 -0.3032
  236MOL0     H31847   5.799   1.461   9.224  0.1195  0.4961  1.8913
  236MOL0     H31848   6.025   1.539   8.631  0.2131 -0.5266 -1.8354
  236MOL0     H31849   5.896   1.582   8.423 -0.6861 -2.4535  0.0100
  236MOL0     H31850   5.647   1.778   8.238 -1.3160  1.6674  3.1519
  236MOL0     H31851   5.804   1.746   8.303 -1.6934  4.3468  3.4172
  236MOL0     H31852   5.738   1.494   8.281 -0.2311  0.6272  2.4740
  236MOL0     H31853   5.763   1.582   8.134  0.3101 -1.5399  1.4330
  236MOL0     H31854   5.493   1.635   8.146  2.2490  0.8062 -1.3146
  236MOL0     H31855   5.498   1.511   8.278  0.4385 -2.2389  1.5805
  236MOL0     H31856   5.417   1.435   8.045 -1.3276 -0.1175  2.9494
  236MOL0     H31857   5.549   1.345   8.105  0.4896 -0.3372 -0.2378
  236MOL0     H31858   5.709   1.583   7.772  4.2231 -0.1894  0.5039
  236MOL0     H31859   5.552   1.679   8.654  0.4068  1.5044  2.4232
  236MOL0     H31860   5.673   1.610   8.857 -1.7679  0.5419 -1.5886
  237MOL0     O31861   7.409   8.803   8.189 -1.3531 -0.6586 -1.0583
  237MOL0     C31862   7.385   8.912   8.239  0.2398  0.3145  0.6105
  237MOL0     O31863   7.423   9.034   8.191 -0.7895 -0.2366  0.1845
  237MOL0     C31864   7.515   9.055   8.090  0.0714 -0.3034 -0.1363
  237MOL0     C31865   7.587   8.954   8.019 -0.6586 -0.1244 -0.4184
  237MOL0     C31866   7.664   8.989   7.909 -0.3300 -0.2518 -1.0122
  237MOL0     C31867   7.679   9.128   7.880  0.6195 -0.3748 -0.4180
  237MOL0     O31868   7.782   9.169   7.796 -0.1879 -0.1260 -0.3169
  237MOL0     C31869   7.841   9.082   7.693 -0.2484 -0.1282 -0.4676
  237MOL0     C31870   7.750   9.030   7.585 -0.0278  0.2301  1.6303
  237MOL0     C31871   7.805   8.988   7.446  0.3458 -0.2951  1.0622
  237MOL0     C31872   7.700   8.991   7.333  0.0502  0.6126  1.3362
  237MOL0     C31873   7.748   8.951   7.178  0.5155  0.2428  0.5331
  237MOL0     C31874   7.695   9.052   7.073 -0.3321  0.8518 -0.2318
  237MOL0     C31875   7.727   8.995   6.940  0.2192 -0.8336 -0.4398
  237MOL0     C31876   7.628   8.890   6.897  0.1542  0.4569  0.7544
  237MOL0     N31877   7.631   8.864   6.748 -0.5250 -0.4685 -0.8937
  237MOL0     C31878   7.565   8.938   6.653  0.0011 -1.2200 -0.3988
  237MOL0     C31879   7.585   8.875   6.530  0.2239 -0.8136 -0.4135
  237MOL0     C31880   7.527   8.906   6.399  0.4013  0.2953  0.6397
  237MOL0     C31881   7.542   9.062   6.363 -0.2835  0.8110 -0.3811
  237MOL0     C31882   7.685   9.117   6.371  0.3608 -0.1753 -0.1392
  237MOL0     C31883   7.680   9.259   6.390 -0.7282  0.4591 -0.0412
  237MOL0     O31884   7.822   9.290   6.390 -0.8669  1.0484 -0.3436
  237MOL0     C31885   7.862   9.421   6.374  0.6088 -1.2228 -0.2149
  237MOL0     C31886   7.774   9.532   6.383  0.2888  0.8223 -0.5097
  237MOL0     C31887   7.820   9.658   6.342  0.4175  0.0031 -0.5429
  237MOL0     C31888   7.710   9.758   6.319  0.3095 -0.4679 -0.1556
  237MOL0     C31889   7.962   9.679   6.311  0.7579  0.4436 -0.1669
  237MOL0     C31890   8.017   9.807   6.270  0.0018 -0.0135 -0.7469
  237MOL0     O31891   7.931   9.915   6.258  0.3155  1.1339  0.3433
  237MOL0     C31892   7.979  10.025   6.196 -0.7441 -0.6432  0.3886
  237MOL0     C31893   8.035  10.126   6.268  0.4539  0.3875  0.3580
  237MOL0     C31894   8.070  10.251   6.214  0.8258  0.5078 -0.8950
  237MOL0     C31895   8.047  10.270   6.075  0.3725 -0.3972  0.1888
  237MOL0     O31896   8.087  10.376   6.002 -0.2839 -0.8398  0.8371
  237MOL0     C31897   8.092  10.504   6.072  0.5156  0.5089 -0.2081
  237MOL0     C31898   8.115  10.627   5.983 -0.0611 -0.0510  0.6086
  237MOL0     C31899   8.034  10.624   5.854  0.4136 -0.1603 -0.8236
  237MOL0     C31900   8.042  10.763   5.776  0.1609 -0.0144 -0.6796
  237MOL0     C31901   8.180  10.786   5.712  1.0178  0.2145  0.6931
  237MOL0     C31902   8.227  10.667   5.621 -0.7839 -0.0897  0.8911
  237MOL0     C31903   8.350  10.723   5.545 -0.5874 -0.5392 -0.1834
  237MOL0     C31904   8.420  10.610   5.477  0.9419 -1.0219  1.1078
  237MOL0    Cl31905   8.348  10.592   5.308  0.8034 -0.0111  0.2185
  237MOL0     C31906   7.989  10.166   6.004  0.2753  0.3170  0.2703
  237MOL0     C31907   7.954  10.046   6.061  0.1813  0.9781  1.0637
  237MOL0     O31908   8.138   9.806   6.243  0.5937  0.0982  0.3353
  237MOL0     C31909   8.043   9.564   6.330 -0.1455  0.1832  0.1597
  237MOL0     C31910   7.996   9.436   6.353  0.1483  0.2378  0.0177
  237MOL0     N31911   7.649   8.757   6.562 -0.4521  0.7200 -0.4422
  237MOL0     N31912   7.680   8.751   6.688  0.0753  0.6224  0.6101
  237MOL0     C31913   7.628   9.229   7.961  0.1838 -0.4236 -0.0975
  237MOL0     C31914   7.541   9.193   8.061  0.7530 -0.0592 -0.1484
  237MOL0     C31915   7.290   8.917   8.353  0.3320 -0.2127  0.5903
  237MOL0     C31916   7.252   8.809   8.431 -0.2740  0.1093  0.6106
  237MOL0     C31917   7.168   8.816   8.540 -0.7464  0.2029 -0.1106
  237MOL0     C31918   7.113   8.942   8.581  0.1931  0.0665  0.0419
  237MOL0     O31919   7.040   8.945   8.689  0.0445 -0.3630  0.4550
  237MOL0     C31920   7.057   8.840   8.797 -0.5826  0.4050  0.7875
  237MOL0     C31921   6.986   8.885   8.921 -0.6005  0.6072 -0.2447
  237MOL0     C31922   7.051   9.012   8.976 -0.1767 -0.4314  0.4008
  237MOL0     C31923   7.201   9.015   8.967 -1.1078 -1.0657 -0.0613
  237MOL0     C31924   7.272   8.921   9.061  0.9315 -1.0739  0.3929
  237MOL0     C31925   7.327   8.861   9.152  0.3438  0.4522  0.5980
  237MOL0     C31926   7.144   9.057   8.504  0.1779 -0.0353 -1.2807
  237MOL0     C31927   7.229   9.038   8.391  0.0298 -0.4481  0.1683
  237MOL0     H31928   7.586   8.848   8.043 -0.1589  0.2212  1.2990
  237MOL0     H31929   7.697   8.907   7.846  1.8327 -1.4254  1.4715
  237MOL0     H31930   7.907   9.159   7.650  0.8120  1.7075  3.8535
  237MOL0     H31931   7.903   9.009   7.746  1.4713  1.1719 -0.5644
  237MOL0     H31932   7.687   8.949   7.621 -2.1330 -0.0168 -2.0721
  237MOL0     H31933   7.681   9.114   7.568  2.0509  1.8415  0.6473
  237MOL0     H31934   7.869   9.071   7.414 -3.1070  2.3068  0.2535
  237MOL0     H31935   7.886   8.917   7.434  1.1171  0.2800  2.6097
  237MOL0     H31936   7.618   8.922   7.356  0.2917  0.1974  0.9597
  237MOL0     H31937   7.661   9.094   7.334 -2.1006 -0.1413  1.2993
  237MOL0     H31938   7.857   8.960   7.179  0.4859  0.8127 -0.4064
  237MOL0     H31939   7.721   8.850   7.145 -0.9494  1.1404 -1.1975
  237MOL0     H31940   7.586   9.046   7.076 -0.2760 -1.7162 -1.1671
  237MOL0     H31941   7.727   9.155   7.091  3.4090 -0.3216  0.8599
  237MOL0     H31942   7.745   9.080   6.873  0.8568  0.1044  0.8599
  237MOL0     H31943   7.830   8.960   6.951  0.4701 -0.6279 -1.8738
  237MOL0     H31944   7.526   8.928   6.910  0.2734  0.9706  0.2415
  237MOL0     H31945   7.640   8.799   6.955  1.0085 -0.0974 -0.2510
  237MOL0     H31946   7.509   9.030   6.668 -0.5558 -1.3340 -1.6348
  237MOL0     H31947   7.580   8.844   6.325  0.6847 -1.7842  2.4869
  237MOL0     H31948   7.423   8.872   6.404 -0.1234  1.9234  1.6372
  237MOL0     H31949   7.482   9.111   6.440  1.3543 -0.4793  1.8341
  237MOL0     H31950   7.498   9.081   6.265  0.1038  0.3640 -0.6444
  237MOL0     H31951   7.746   9.091   6.285 -0.0992 -0.5748 -0.3475
  237MOL0     H31952   7.734   9.074   6.459 -0.8769 -2.8391 -0.6720
  237MOL0     H31953   7.653   9.282   6.493  0.6102 -1.6419  0.8457
  237MOL0     H31954   7.635   9.316   6.309  0.0607  0.7504 -0.2924
  237MOL0     H31955   7.666   9.529   6.394  0.1803  3.2817 -0.3390
  237MOL0     H31956   7.718   9.845   6.385  1.1439 -1.5426  1.2209
  237MOL0     H31957   7.718   9.790   6.215  2.8798 -3.6339 -1.0869
  237MOL0     H31958   7.608   9.727   6.346 -0.4724  2.7137  0.9693
  237MOL0     H31959   8.043  10.102   6.374 -3.0689  1.8617  1.1045
  237MOL0     H31960   8.121  10.319   6.280 -2.6823  1.7867  0.7190
  237MOL0     H31961   8.000  10.518   6.130  0.0845 -0.8709 -0.5194
  237MOL0     H31962   8.172  10.498   6.147 -0.6473  0.1009  1.0421
  237MOL0     H31963   8.098  10.717   6.042  0.7874  1.0209 -0.7433
  237MOL0     H31964   8.221  10.633   5.957  0.4851 -1.0236  2.4225
  237MOL0     H31965   7.932  10.614   5.892  1.9455 -0.6524  3.7154
  237MOL0     H31966   8.057  10.540   5.787  0.7678 -1.4261  0.8355
  237MOL0     H31967   7.958  10.767   5.706 -1.9644  1.5687  1.7780
  237MOL0     H31968   8.018  10.844   5.846  1.8256  0.8417 -1.0404
  237MOL0     H31969   8.256  10.803   5.789  1.2031 -2.2395  1.1485
  237MOL0     H31970   8.184  10.877   5.652 -0.0594 -2.0911 -3.2519
  237MOL0     H31971   8.246  10.568   5.665  0.4195 -2.0905 -3.5706
  237MOL0     H31972   8.151  10.648   5.546 -0.7839  3.2659 -0.1017
  237MOL0     H31973   8.424  10.754   5.620  1.7039 -2.5302 -1.5040
  237MOL0     H31974   8.319  10.802   5.475 -1.2303 -0.6845 -0.0687
  237MOL0     H31975   8.396  10.525   5.541 -0.8386  0.3446  2.3737
  237MOL0     H31976   8.528  10.624   5.473  0.8274 -0.0139 -2.9396
  237MOL0     H31977   7.970  10.177   5.898  0.0451 -1.7687  0.0461
  237MOL0     H31978   7.896   9.973   6.004  0.7896  2.8384 -2.2277
  237MOL0     H31979   8.151   9.566   6.321  0.2445 -0.7021  3.5589
  237MOL0     H31980   8.067   9.354   6.351 -0.3866 -0.2730  1.0868
  237MOL0     H31981   7.657   9.332   7.945  0.0700 -0.1198  1.4655
  237MOL0     H31982   7.503   9.276   8.120 -2.3234  1.1744 -3.5652
  237MOL0     H31983   7.301   8.718   8.397  1.5206  1.3403 -0.3014
  237MOL0     H31984   7.148   8.726   8.596  0.5513  0.3086  0.5554
  237MOL0     H31985   7.013   8.742   8.772  1.2377 -0.2059 -0.2010
  237MOL0     H31986   7.162   8.814   8.815  0.1580  3.3711  1.1331
  237MOL0     H31987   6.984   8.800   8.989  0.2494  0.8858  0.1385
  237MOL0     H31988   6.880   8.904   8.903 -0.8614 -0.5235 -0.0001
  237MOL0     H31989   7.021   9.027   9.081  1.3742  2.9938  0.4753
  237MOL0     H31990   7.008   9.088   8.911  1.1355 -0.6583 -0.7668
  237MOL0     H31991   7.237   9.116   8.987 -1.0913 -0.2328 -3.6071
  237MOL0     H31992   7.233   9.006   8.863 -1.3800  2.1165 -0.4952
  237MOL0     H31993   7.383   8.804   9.224  0.7875 -1.2695 -1.0395
  237MOL0     H31994   7.099   9.147   8.544 -1.2663 -1.1227 -0.3398
  237MOL0     H31995   7.251   9.122   8.327 -1.8115 -1.1315 -1.4771
  238MOL0     O31996   9.877   8.008  10.903  0.3786  0.2181  0.5589
  238MOL0     C31997   9.769   8.033  10.839 -0.1657 -0.9229  1.1758
  238MOL0     O31998   9.699   7.944  10.754 -0.7578 -0.4649  0.1744
  238MOL0     C31999   9.759   7.819  10.762  0.1029 -0.3591 -0.1580
  238MOL0     C32000   9.712   7.722  10.847  0.7723 -0.0245  0.6674
  238MOL0     C32001   9.764   7.596  10.842  0.1501 -0.4566  0.5907
  238MOL0     C32002   9.878   7.564  10.760 -0.3547 -0.4659  0.3198
  238MOL0     O32003   9.931   7.442  10.752  0.5395 -0.0007 -0.2845
  238MOL0     C32004  10.060   7.429  10.810 -0.2703  0.3839 -0.7013
  238MOL0     C32005  10.064   7.297  10.887  0.2889  0.1051 -0.5797
  238MOL0     C32006  10.207   7.273  10.928 -0.1112  0.0021  0.3478
  238MOL0     C32007  10.209   7.152  11.027  0.2564  0.2542  0.0316
  238MOL0     C32008  10.343   7.116  11.092  0.1901 -0.6003  0.5909
  238MOL0     C32009  10.458   7.086  10.993  0.5648  0.4787 -0.1620
  238MOL0     C32010  10.554   7.004  11.078  0.1064 -0.4641 -1.1437
  238MOL0     C32011  10.684   6.956  10.998 -0.5182  0.1377 -0.5302
  238MOL0     N32012  10.653   6.848  10.902  0.6435 -0.1713 -0.4666
  238MOL0     C32013  10.629   6.721  10.943 -0.2120 -0.1731 -0.7453
  238MOL0     C32014  10.596   6.642  10.838  0.0634  0.1478 -0.1980
  238MOL0     C32015  10.559   6.490  10.815 -0.4512  0.2236  0.3590
  238MOL0     C32016  10.653   6.395  10.901  0.5692 -0.1385 -0.1800
  238MOL0     C32017  10.673   6.269  10.810  0.2738  0.1356  0.3377
  238MOL0     C32018  10.767   6.168  10.869 -0.4610 -0.0897 -0.5381
  238MOL0     O32019  10.718   6.093  10.991  0.0666  0.0341  0.3250
  238MOL0     C32020  10.792   6.009  11.065 -0.6859  0.1403 -0.4537
  238MOL0     C32021  10.917   5.971  11.029 -1.5974  0.7192 -0.1360
  238MOL0     C32022  10.998   5.886  11.111  0.0521 -0.5280 -0.0377
  238MOL0     C32023  11.128   5.846  11.043 -0.0898  1.0012  0.0368
  238MOL0     C32024  10.966   5.851  11.236  0.0232 -0.7883 -0.5128
  238MOL0     C32025  11.049   5.779  11.332 -0.0040 -0.1506 -0.9149
  238MOL0     O32026  10.982   5.682  11.402  0.8078  0.5572 -0.3067
  238MOL0     C32027  11.054   5.610  11.488 -1.7013  0.3362 -0.1444
  238MOL0     C32028  11.044   5.476  11.480  0.4738  0.8653 -0.5230
  238MOL0     C32029  11.109   5.387  11.568  0.2321  0.8310 -0.6633
  238MOL0     C32030  11.193   5.441  11.669 -0.1447 -1.0251  0.4886
  238MOL0     O32031  11.267   5.367  11.755 -0.4234 -0.3915  0.5977
  238MOL0     C32032  11.388   5.314  11.703  0.0081  1.2171  1.0497
  238MOL0     C32033  11.457   5.214  11.797 -0.2746  0.8311  0.4065
  238MOL0     C32034  11.355   5.103  11.829  0.6100  0.1015  0.4467
  238MOL0     C32035  11.413   4.977  11.889 -0.0079 -0.1383 -0.5221
  238MOL0     C32036  11.306   4.891  11.941 -0.7644 -0.4138  0.5272
  238MOL0     C32037  11.342   4.746  11.916 -0.7548  0.2630 -0.8888
  238MOL0     C32038  11.444   4.683  12.011 -0.8284  0.6456  0.6790
  238MOL0     C32039  11.539   4.568  11.958  0.0638  0.0460 -0.4542
  238MOL0    Cl32040  11.694   4.596  12.028  0.0545  0.0941  0.0332
  238MOL0     C32041  11.213   5.583  11.680  0.5527 -0.3582  0.0572
  238MOL0     C32042  11.141   5.664  11.590  0.6016 -0.1051  0.0956
  238MOL0     O32043  11.169   5.804  11.339 -0.3957 -0.5300  0.2093
  238MOL0     C32044  10.843   5.901  11.277 -0.2077 -0.8381 -1.0874
  238MOL0     C32045  10.756   5.977  11.192  0.1063  0.2482 -0.2085
  238MOL0     N32046  10.619   6.730  10.729  0.0370 -1.0586 -0.5824
  238MOL0     N32047  10.658   6.849  10.768  0.2728  0.5851  0.3510
  238MOL0     C32048   9.921   7.656  10.670 -0.9486 -0.6501 -0.2267
  238MOL0     C32049   9.872   7.789  10.676  0.8175 -0.2129 -0.5886
  238MOL0     C32050   9.727   8.170  10.847  0.4453  0.5257  0.1480
  238MOL0     C32051   9.751   8.257  10.948  1.0320  0.0338 -0.6628
  238MOL0     C32052   9.691   8.385  10.948  0.8054  0.8760 -0.5098
  238MOL0     C32053   9.612   8.428  10.842 -0.1775  0.7687 -0.1029
  238MOL0     O32054   9.562   8.559  10.846 -0.0652 -0.4115  0.5946
  238MOL0     C32055   9.420   8.574  10.837 -0.2624  1.2774 -0.0686
  238MOL0     C32056   9.341   8.480  10.933 -0.7682 -1.0522 -0.4820
  238MOL0     C32057   9.203   8.530  10.963 -0.8329  0.5836 -0.4025
  238MOL0     C32058   9.137   8.453  11.079  0.1504 -0.4720  0.5151
  238MOL0     C32059   9.024   8.525  11.140 -0.7454  0.3532  0.6913
  238MOL0     C32060   8.923   8.576  11.189 -0.0110 -0.4920 -0.3728
  238MOL0     C32061   9.580   8.338  10.740  0.7388  0.3849 -0.7648
  238MOL0     C32062   9.642   8.219  10.746  0.4075 -0.0008  0.2246
  238MOL0     H32063   9.619   7.752  10.894  0.2761  2.9635 -1.8397
  238MOL0     H32064   9.724   7.514  10.901  2.2743 -0.1357  2.6063
  238MOL0     H32065  10.133   7.413  10.730 -1.0223 -2.2358 -0.9607
  238MOL0     H32066  10.098   7.510  10.873  0.2785 -0.7296  0.4411
  238MOL0     H32067   9.997   7.302  10.974  1.5646 -0.9833  0.4979
  238MOL0     H32068  10.031   7.210  10.830  0.4321 -0.8109  0.6709
  238MOL0     H32069  10.269   7.256  10.840  2.1961  1.0876  1.6703
  238MOL0     H32070  10.247   7.363  10.976 -0.7280  0.5166 -0.0819
  238MOL0     H32071  10.142   7.172  11.110  0.5485  1.9621 -0.1077
  238MOL0     H32072  10.166   7.069  10.970  1.3426  1.8112 -3.3550
  238MOL0     H32073  10.368   7.198  11.159  0.7362  2.3669 -2.9662
  238MOL0     H32074  10.326   7.025  11.152 -1.6187  0.1537  1.2810
  238MOL0     H32075  10.422   7.034  10.903  1.1272 -0.1379 -0.0336
  238MOL0     H32076  10.499   7.181  10.959  1.3139  1.5394  3.3480
  238MOL0     H32077  10.584   7.074  11.157  0.2860  0.0930 -1.7071
  238MOL0     H32078  10.501   6.927  11.136 -0.7266  0.7765 -0.1972
  238MOL0     H32079  10.755   6.924  11.074  0.1741  3.8466  0.6243
  238MOL0     H32080  10.726   7.039  10.941  0.8542  0.2278  0.5639
  238MOL0     H32081  10.646   6.674  11.039 -1.6419 -0.2455 -0.4978
  238MOL0     H32082  10.455   6.476  10.844  0.3226 -2.9132  2.0343
  238MOL0     H32083  10.589   6.463  10.713  3.3760 -2.5885  1.9800
  238MOL0     H32084  10.609   6.362  10.995 -1.5790 -0.8627 -1.3821
  238MOL0     H32085  10.746   6.447  10.926  1.4516 -2.6384  2.1412
  238MOL0     H32086  10.706   6.293  10.709  0.2365 -2.3741 -0.3279
  238MOL0     H32087  10.579   6.215  10.802 -1.6145  3.3859 -1.5168
  238MOL0     H32088  10.861   6.218  10.896 -0.7670 -1.1395  3.0114
  238MOL0     H32089  10.795   6.103  10.786 -1.7578  0.1026 -1.1582
  238MOL0     H32090  10.963   5.999  10.935 -0.5333  1.7092  0.6486
  238MOL0     H32091  11.200   5.927  11.058  1.9345 -1.1384  3.1819
  238MOL0     H32092  11.176   5.761  11.092 -1.4096  0.4674  0.4654
  238MOL0     H32093  11.116   5.825  10.937  2.7414  1.6576 -0.4765
  238MOL0     H32094  10.966   5.447  11.411 -2.0193  0.2380  2.3309
  238MOL0     H32095  11.113   5.279  11.559  3.0811  0.7642  0.2501
  238MOL0     H32096  11.370   5.265  11.607 -2.6712 -0.0180  2.1045
  238MOL0     H32097  11.450   5.402  11.684 -0.6568  1.5810  0.5115
  238MOL0     H32098  11.550   5.177  11.753  1.2369  4.0149  0.5895
  238MOL0     H32099  11.500   5.258  11.888 -2.1042 -0.4927  2.0160
  238MOL0     H32100  11.305   5.071  11.737  3.2267 -0.8772 -0.7277
  238MOL0     H32101  11.281   5.150  11.894 -1.3578 -0.9078 -0.9445
  238MOL0     H32102  11.485   4.929  11.822  0.5932  0.7223 -0.5117
  238MOL0     H32103  11.469   4.998  11.981 -0.2514  4.5865 -1.1955
  238MOL0     H32104  11.209   4.917  11.898 -1.0961 -0.5608  1.1721
  238MOL0     H32105  11.287   4.913  12.047 -0.2105  3.2390 -0.0040
  238MOL0     H32106  11.252   4.685  11.924  2.4534 -4.8057  1.7933
  238MOL0     H32107  11.368   4.723  11.812  0.3232  0.4581 -0.6743
  238MOL0     H32108  11.387   4.632  12.090 -0.2715  2.1563  2.1265
  238MOL0     H32109  11.510   4.752  12.063 -1.1661 -1.0384  3.6176
  238MOL0     H32110  11.564   4.579  11.852  0.6480  1.4858 -0.1966
  238MOL0     H32111  11.488   4.476  11.989 -0.2637  0.0669 -0.9121
  238MOL0     H32112  11.275   5.637  11.750 -0.0546  2.0719 -1.1344
  238MOL0     H32113  11.162   5.771  11.588  3.0060 -0.5177  0.1447
  238MOL0     H32114  10.817   5.883  11.381  3.0034  4.5341  1.1024
  238MOL0     H32115  10.661   5.998  11.238  0.3959 -2.7210  2.0572
  238MOL0     H32116   9.994   7.622  10.597  0.4985  1.4738  0.1457
  238MOL0     H32117   9.914   7.872  10.620 -0.4056  0.2323 -0.8742
  238MOL0     H32118   9.821   8.225  11.025  1.1027 -2.3473 -1.6361
  238MOL0     H32119   9.713   8.458  11.026 -0.6769  1.2019 -0.3831
  238MOL0     H32120   9.389   8.675  10.865  0.5632  1.5204 -0.0109
  238MOL0     H32121   9.397   8.550  10.733 -0.6319 -1.1924  0.5195
  238MOL0     H32122   9.400   8.475  11.025  2.7447  2.0805 -2.2549
  238MOL0     H32123   9.330   8.376  10.901 -0.4510 -0.3789 -3.0252
  238MOL0     H32124   9.135   8.521  10.878 -2.1037  0.4456  0.5906
  238MOL0     H32125   9.210   8.636  10.991 -1.9031  0.2943  1.0879
  238MOL0     H32126   9.215   8.442  11.155 -0.5007  0.6361  1.3773
  238MOL0     H32127   9.099   8.357  11.042 -0.7860  0.7203 -1.7845
  238MOL0     H32128   8.840   8.604  11.251  0.2749 -0.4967  0.0213
  238MOL0     H32129   9.516   8.374  10.660 -1.5947 -2.6900 -0.4655
  238MOL0     H32130   9.620   8.142  10.672 -3.2215  0.8792  0.1772
  239MOL0     O32131   3.775   3.339  11.404 -0.0284 -0.1133 -0.0667
  239MOL0     C32132   3.817   3.282  11.501  1.1077 -0.5635 -0.2733
  239MOL0     O32133   3.750   3.285  11.619 -0.0757 -0.3043 -0.2908
  239MOL0     C32134   3.616   3.319  11.625  0.6027  1.1501 -0.3805
  239MOL0     C32135   3.518   3.265  11.540  1.3301  0.4144  0.1226
  239MOL0     C32136   3.380   3.310  11.542  1.2252  0.1863 -0.8086
  239MOL0     C32137   3.341   3.406  11.639  0.1275  0.8681 -1.1593
  239MOL0     O32138   3.206   3.445  11.640 -0.7656 -0.4471  0.0759
  239MOL0     C32139   3.166   3.507  11.511 -1.0195 -0.6195  0.2230
  239MOL0     C32140   3.047   3.595  11.555 -0.3517 -0.1271 -0.1331
  239MOL0     C32141   2.990   3.682  11.441 -0.3740  0.8395  0.5668
  239MOL0     C32142   2.853   3.630  11.387 -0.9847  0.0325 -0.0477
  239MOL0     C32143   2.813   3.739  11.290  1.0941 -0.1286  0.6048
  239MOL0     C32144   2.676   3.712  11.221 -0.3698 -0.1210 -1.0266
  239MOL0     C32145   2.650   3.837  11.130 -0.0697  0.6553  0.0874
  239MOL0     C32146   2.745   3.850  11.009  0.7272 -0.8655  1.0661
  239MOL0     N32147   2.707   3.973  10.922  0.9907 -0.3328 -0.3828
  239MOL0     C32148   2.795   4.076  10.889 -0.0305  0.8292  0.2786
  239MOL0     C32149   2.739   4.148  10.789  0.1115 -0.1611  0.0441
  239MOL0     C32150   2.805   4.267  10.728  0.8830  0.6921  0.0650
  239MOL0     C32151   2.925   4.229  10.643 -0.5850  0.2504  0.4065
  239MOL0     C32152   3.054   4.234  10.721  0.5627 -0.2539  0.3215
  239MOL0     C32153   3.111   4.371  10.694 -0.1643  0.2820 -0.0474
  239MOL0     O32154   3.202   4.394  10.804 -0.3029  0.1084  0.1850
  239MOL0     C32155   3.227   4.525  10.835  0.0139 -0.0486 -0.0528
  239MOL0     C32156   3.264   4.626  10.741 -0.4974  0.4272 -0.7577
  239MOL0     C32157   3.309   4.752  10.784 -0.0623 -0.7019 -0.3472
  239MOL0     C32158   3.367   4.852  10.678  0.0587 -0.0990  0.2886
  239MOL0     C32159   3.313   4.783  10.918 -0.0101 -0.5371  1.7929
  239MOL0     C32160   3.374   4.911  10.977 -0.3180  0.0821 -0.6235
  239MOL0     O32161   3.379   5.025  10.911  0.2819 -0.6611  0.0970
  239MOL0     C32162   3.415   5.138  10.983 -0.1106 -0.9224 -0.2116
  239MOL0     C32163   3.543   5.201  10.989  1.0596 -0.2885  0.1763
  239MOL0     C32164   3.554   5.337  11.042 -0.4046  0.7003  0.6873
  239MOL0     C32165   3.448   5.402  11.103  0.2629 -0.9931  0.4401
  239MOL0     O32166   3.471   5.525  11.162 -0.4748  1.0087  0.2458
  239MOL0     C32167   3.494   5.631  11.071  0.4733  0.6931  0.2902
  239MOL0     C32168   3.610   5.722  11.115  0.4917 -0.4915  0.1342
  239MOL0     C32169   3.711   5.772  10.997 -0.0503  0.4431  0.7082
  239MOL0     C32170   3.806   5.886  11.024  1.2259  0.2483 -0.9330
  239MOL0     C32171   3.848   5.969  10.896 -0.4699  0.6458 -0.1637
  239MOL0     C32172   3.945   5.883  10.808  0.0440  0.1972  0.0233
  239MOL0     C32173   3.969   5.944  10.668 -0.6144  0.0043  0.4109
  239MOL0     C32174   4.054   6.066  10.661  0.2937  0.5001 -0.3666
  239MOL0    Cl32175   3.966   6.211  10.716  0.1105  0.0435 -0.2124
  239MOL0     C32176   3.322   5.336  11.099 -0.2161 -1.3300  0.1335
  239MOL0     C32177   3.308   5.209  11.041 -0.2422  0.4388  0.7425
  239MOL0     O32178   3.404   4.893  11.092  0.4344 -1.0621 -0.7230
  239MOL0     C32179   3.285   4.678  11.004  1.2471  0.5169  0.4344
  239MOL0     C32180   3.239   4.553  10.971  0.2412  0.2615 -0.3070
  239MOL0     N32181   2.611   4.097  10.770 -0.6498  0.5880  0.2926
  239MOL0     N32182   2.590   3.990  10.852 -0.2902  0.0324  0.4676
  239MOL0     C32183   3.437   3.447  11.727 -0.6047 -0.2452  0.6498
  239MOL0     C32184   3.569   3.404  11.722  0.2313  0.1412  0.9349
  239MOL0     C32185   3.946   3.228  11.500  0.0684  0.0867  0.2051
  239MOL0     C32186   3.986   3.127  11.591  1.5180 -0.3764  0.1819
  239MOL0     C32187   4.100   3.057  11.564  0.2027 -0.6729 -0.6374
  239MOL0     C32188   4.188   3.090  11.454  0.3779  0.5287  0.0132
  239MOL0     O32189   4.296   3.009  11.430  0.8822  0.0512  0.5105
  239MOL0     C32190   4.429   3.069  11.446  0.5329  0.2147 -0.0175
  239MOL0     C32191   4.520   2.956  11.494  0.9609 -0.1076  0.4308
  239MOL0     C32192   4.663   2.990  11.505  0.6888  0.5284  0.2092
  239MOL0     C32193   4.722   2.861  11.568 -0.8028 -0.1123 -0.5898
  239MOL0     C32194   4.860   2.874  11.616  0.5030  1.5898  0.0990
  239MOL0     C32195   4.980   2.892  11.637  0.2930  0.3041  1.0414
  239MOL0     C32196   4.155   3.200  11.370 -0.5723  1.1975 -0.2166
  239MOL0     C32197   4.027   3.264  11.390  0.3504 -0.4069 -0.3645
  239MOL0     H32198   3.561   3.188  11.477  2.3327 -0.2841  1.6013
  239MOL0     H32199   3.312   3.267  11.469  0.2090 -0.3047  0.3887
  239MOL0     H32200   3.246   3.564  11.462 -1.1592 -1.0606 -0.5333
  239MOL0     H32201   3.129   3.429  11.444 -1.4879  1.5672 -2.2559
  239MOL0     H32202   2.973   3.529  11.601 -0.5200  1.3755  1.8673
  239MOL0     H32203   3.088   3.664  11.629  0.6032 -0.6199 -0.1887
  239MOL0     H32204   2.980   3.783  11.484 -0.0130  0.4697  1.5704
  239MOL0     H32205   3.065   3.675  11.362  0.6985 -3.0310  1.7058
  239MOL0     H32206   2.881   3.540  11.331  2.0311 -0.6953  2.3532
  239MOL0     H32207   2.778   3.610  11.464 -1.7721 -0.3449 -0.8913
  239MOL0     H32208   2.810   3.837  11.339  1.1059 -1.5005  3.6111
  239MOL0     H32209   2.881   3.741  11.205 -1.3422  0.6650 -1.4355
  239MOL0     H32210   2.675   3.623  11.157 -0.1309 -2.4895  2.0346
  239MOL0     H32211   2.597   3.710  11.297  0.4834  3.0628  0.1263
  239MOL0     H32212   2.545   3.837  11.098  0.0540 -1.3376 -0.4631
  239MOL0     H32213   2.665   3.932  11.181  2.5477 -0.7762  2.2221
  239MOL0     H32214   2.735   3.755  10.955 -2.6584 -0.3715  0.5653
  239MOL0     H32215   2.849   3.871  11.033  0.0232  2.6926  1.5262
  239MOL0     H32216   2.899   4.079  10.919  0.5515  0.6699 -1.5998
  239MOL0     H32217   2.735   4.307  10.654  0.9219 -0.2762 -0.5198
  239MOL0     H32218   2.839   4.335  10.807  0.4470  2.4588 -1.2207
  239MOL0     H32219   2.924   4.281  10.546 -2.8527 -1.6496 -0.6881
  239MOL0     H32220   2.915   4.124  10.616  2.7824  0.9458 -5.4822
  239MOL0     H32221   3.120   4.156  10.681 -0.8918  0.4737 -4.1252
  239MOL0     H32222   3.038   4.222  10.828 -0.8433  0.3942  0.2074
  239MOL0     H32223   3.041   4.454  10.682  0.7336  0.8491 -1.5865
  239MOL0     H32224   3.147   4.369  10.591 -1.9434 -0.6086 -0.6932
  239MOL0     H32225   3.250   4.612  10.635  1.6861 -2.4921 -0.7813
  239MOL0     H32226   3.365   4.807  10.579  2.3151 -0.2240  0.2404
  239MOL0     H32227   3.315   4.948  10.674  0.0190 -0.1592 -2.5756
  239MOL0     H32228   3.474   4.857  10.703  0.1634 -2.0421  0.3635
  239MOL0     H32229   3.618   5.150  10.929 -0.6967 -1.0950 -1.4475
  239MOL0     H32230   3.643   5.399  11.047 -1.2361  1.9321  0.5530
  239MOL0     H32231   3.505   5.596  10.969 -0.0564  1.5845 -0.0896
  239MOL0     H32232   3.403   5.688  11.051  0.8101  1.2832  0.4148
  239MOL0     H32233   3.559   5.811  11.154 -1.7875 -1.0631 -1.3746
  239MOL0     H32234   3.662   5.679  11.201 -2.7085 -1.1410  1.8916
  239MOL0     H32235   3.651   5.808  10.912 -0.1173  0.0344  0.5776
  239MOL0     H32236   3.747   5.681  10.949 -3.7484 -0.8619  0.0647
  239MOL0     H32237   3.742   5.955  11.079 -0.4895  0.5353 -3.1491
  239MOL0     H32238   3.894   5.858  11.082  0.5497 -1.3368 -0.6401
  239MOL0     H32239   3.901   6.056  10.937  1.0578 -0.6051  0.5920
  239MOL0     H32240   3.764   5.998  10.833 -0.4719 -0.7078 -0.8123
  239MOL0     H32241   4.046   5.856  10.840  0.6418  1.0367 -1.0835
  239MOL0     H32242   3.893   5.787  10.800 -0.2209  0.4658 -2.2273
  239MOL0     H32243   3.872   5.969  10.624 -1.1957 -1.7425  0.6026
  239MOL0     H32244   4.015   5.865  10.608  1.7673  1.9663 -0.4942
  239MOL0     H32245   4.100   6.084  10.564 -0.5466  0.9312 -0.6978
  239MOL0     H32246   4.134   6.055  10.735 -1.7116  3.4212  2.5554
  239MOL0     H32247   3.230   5.371  11.145 -0.6782 -1.1421 -0.9087
  239MOL0     H32248   3.215   5.153  11.046 -0.9891  1.0661 -3.2334
  239MOL0     H32249   3.273   4.702  11.109 -0.2211  5.0500 -0.5207
  239MOL0     H32250   3.206   4.489  11.052 -1.5472  4.2882  2.5422
  239MOL0     H32251   3.406   3.526  11.796  0.4813 -0.6522  1.6235
  239MOL0     H32252   3.638   3.457  11.787  0.3417  3.8336 -1.8786
  239MOL0     H32253   3.928   3.117  11.683 -0.2553  1.6457 -0.6270
  239MOL0     H32254   4.129   2.970  11.621  1.0644  0.0517  0.0650
  239MOL0     H32255   4.462   3.112  11.350  0.1229 -1.3536 -0.8940
  239MOL0     H32256   4.430   3.139  11.529 -0.1793  0.2374 -0.0228
  239MOL0     H32257   4.506   2.872  11.426  1.6636  0.7264 -0.7935
  239MOL0     H32258   4.478   2.938  11.592  0.3727  2.3495  0.6950
  239MOL0     H32259   4.674   3.075  11.572  1.2581 -0.2808  1.1656
  239MOL0     H32260   4.694   3.017  11.404 -1.4457 -0.2690 -0.7416
  239MOL0     H32261   4.713   2.786  11.489 -1.8750 -2.7614  1.8591
  239MOL0     H32262   4.664   2.826  11.654  0.8884  0.2136  0.7365
  239MOL0     H32263   5.083   2.910  11.661  1.7451 -0.2167 -3.7575
  239MOL0     H32264   4.212   3.234  11.285 -0.9395 -0.0257 -0.9644
  239MOL0     H32265   3.999   3.344  11.323 -1.9574 -2.5341 -2.1424
  240MOL0     O32266   2.965   5.422   1.318 -0.7330  0.0779 -0.3729
  240MOL0     C32267   2.861   5.485   1.296  0.1039 -0.8736  0.0169
  240MOL0     O32268   2.834   5.606   1.335 -0.3468  0.1537 -0.5853
  240MOL0     C32269   2.914   5.680   1.417 -0.2144  0.1608  0.7048
  240MOL0     C32270   2.854   5.779   1.499  0.1723 -0.4371 -0.1951
  240MOL0     C32271   2.943   5.867   1.572 -0.1393 -0.3345  0.0232
  240MOL0     C32272   3.083   5.866   1.564  0.7016  0.7085  0.1749
  240MOL0     O32273   3.160   5.964   1.627  0.2524 -0.2374  0.3355
  240MOL0     C32274   3.286   6.004   1.573  0.0939 -1.2140 -0.4174
  240MOL0     C32275   3.253   6.103   1.452 -0.0879  0.2300 -0.2948
  240MOL0     C32276   3.384   6.172   1.419 -0.1533 -0.6998  0.7207
  240MOL0     C32277   3.355   6.276   1.303 -0.5777  0.1910  0.0711
  240MOL0     C32278   3.327   6.421   1.353 -0.4864  0.2216  0.7705
  240MOL0     C32279   3.386   6.540   1.265  0.2088  1.4026 -0.6886
  240MOL0     C32280   3.539   6.544   1.265  0.3487 -0.2537  0.4386
  240MOL0     C32281   3.615   6.549   1.390 -0.0225 -0.7586 -0.7348
  240MOL0     N32282   3.591   6.683   1.458 -0.0263 -0.0339 -0.2015
  240MOL0     C32283   3.530   6.703   1.579 -0.6904  1.3700 -0.0065
  240MOL0     C32284   3.544   6.832   1.613 -0.0948  0.5812 -0.1670
  240MOL0     C32285   3.503   6.886   1.745 -0.1444  0.0831  0.0218
  240MOL0     C32286   3.629   6.914   1.842  0.8610 -0.1960  0.7398
  240MOL0     C32287   3.718   6.793   1.853  0.0978 -0.1124 -0.0412
  240MOL0     C32288   3.828   6.820   1.951  0.1186  0.6503  0.3383
  240MOL0     O32289   3.776   6.810   2.083  0.3590  0.3771  0.7618
  240MOL0     C32290   3.852   6.857   2.191  1.3112  0.4714 -0.0571
  240MOL0     C32291   3.992   6.845   2.203  0.8070  0.0316 -0.3716
  240MOL0     C32292   4.071   6.910   2.310  0.2631 -0.2263 -0.0611
  240MOL0     C32293   4.222   6.890   2.302 -0.3127 -0.1956 -0.7778
  240MOL0     C32294   4.002   7.003   2.398  0.0576  1.1870 -0.3447
  240MOL0     C32295   4.060   7.103   2.482 -0.1410  0.0047  0.1828
  240MOL0     O32296   3.971   7.186   2.549 -0.0125  0.2433 -0.4035
  240MOL0     C32297   3.999   7.264   2.658  0.0126  0.5079  0.9540
  240MOL0     C32298   3.896   7.351   2.694  0.3733  0.0411  0.3376
  240MOL0     C32299   3.914   7.432   2.805  0.1150  0.3253 -0.2293
  240MOL0     C32300   4.044   7.443   2.864  0.3678 -0.0734  0.9586
  240MOL0     O32301   4.070   7.515   2.977  0.5836  0.2696  0.1133
  240MOL0     C32302   4.060   7.657   2.963  0.8087 -0.3341  1.1508
  240MOL0     C32303   4.155   7.732   3.065  0.4673  0.4453  0.2269
  240MOL0     C32304   4.122   7.715   3.214 -0.3209 -0.1463  0.4133
  240MOL0     C32305   4.200   7.803   3.304 -0.7604 -0.0035  0.4655
  240MOL0     C32306   4.161   7.774   3.450 -0.2502  0.0444  0.0696
  240MOL0     C32307   4.178   7.889   3.545 -0.1197 -0.5122 -0.2494
  240MOL0     C32308   4.215   7.846   3.689 -0.3664  0.9227  0.8706
  240MOL0     C32309   4.295   7.954   3.765  0.6938 -0.7077 -0.2767
  240MOL0    Cl32310   4.200   8.112   3.761 -0.1596 -0.2272 -0.2131
  240MOL0     C32311   4.147   7.362   2.823  0.0120  0.3708 -1.1182
  240MOL0     C32312   4.124   7.275   2.714  0.0151 -0.4975  0.2640
  240MOL0     O32313   4.181   7.119   2.491  0.7113  0.4969  0.0562
  240MOL0     C32314   3.860   6.997   2.391 -0.0069 -0.4318 -0.3800
  240MOL0     C32315   3.788   6.927   2.290 -1.4280 -0.2847 -0.9816
  240MOL0     N32316   3.603   6.892   1.496 -0.9905  0.2200 -0.4903
  240MOL0     N32317   3.616   6.801   1.408  0.0979 -0.5347  0.5477
  240MOL0     C32318   3.139   5.775   1.483 -0.3249  0.4914  0.1406
  240MOL0     C32319   3.062   5.687   1.404  0.3394  0.7911 -0.4348
  240MOL0     C32320   2.751   5.439   1.208  0.6253 -0.1317  0.1139
  240MOL0     C32321   2.621   5.475   1.206  0.2847 -0.1720 -0.8610
  240MOL0     C32322   2.523   5.411   1.138  0.9765 -0.8160 -1.0352
  240MOL0     C32323   2.543   5.295   1.066 -0.0140  0.2397  0.8216
  240MOL0     O32324   2.429   5.249   1.009  0.0306 -0.0489 -0.1972
  240MOL0     C32325   2.442   5.163   0.898  0.2171  0.0291  0.6169
  240MOL0     C32326   2.303   5.119   0.845  0.8893 -0.8601 -1.3662
  240MOL0     C32327   2.203   5.232   0.812 -0.2661  0.1661 -0.5919
  240MOL0     C32328   2.097   5.193   0.708  0.3378  0.2196  0.1855
  240MOL0     C32329   2.007   5.094   0.769  0.5985  0.0861  0.3653
  240MOL0     C32330   1.925   5.018   0.814  0.2868 -0.9025 -0.4185
  240MOL0     C32331   2.680   5.254   1.052 -0.1682  0.3004 -0.5957
  240MOL0     C32332   2.782   5.324   1.128 -0.2698  0.2947 -0.1344
  240MOL0     H32333   2.753   5.817   1.485  0.4482  1.0368  1.4771
  240MOL0     H32334   2.897   5.943   1.634  2.4059  1.4390 -0.0992
  240MOL0     H32335   3.343   6.058   1.648  0.3237  0.6081 -1.8126
  240MOL0     H32336   3.349   5.918   1.549  0.2604 -1.1002 -0.3898
  240MOL0     H32337   3.220   6.041   1.368  1.2545  1.9810 -2.2069
  240MOL0     H32338   3.182   6.178   1.488  1.2354  1.4084 -0.0740
  240MOL0     H32339   3.417   6.223   1.510 -0.7560  0.8042  0.1271
  240MOL0     H32340   3.464   6.103   1.392  1.0629  0.4202  1.3406
  240MOL0     H32341   3.434   6.269   1.228 -2.6609 -2.5656 -2.1035
  240MOL0     H32342   3.267   6.238   1.250 -1.1846 -0.0130  1.1924
  240MOL0     H32343   3.219   6.436   1.352 -0.7894 -1.7433  0.2802
  240MOL0     H32344   3.348   6.431   1.460 -2.2078 -0.8009  1.2379
  240MOL0     H32345   3.355   6.527   1.161  4.4038 -1.1139 -1.8808
  240MOL0     H32346   3.348   6.639   1.293 -1.5094  1.6734 -3.6098
  240MOL0     H32347   3.570   6.444   1.231 -3.1397 -1.8834  1.5409
  240MOL0     H32348   3.567   6.616   1.187  0.1765 -0.9982 -0.3342
  240MOL0     H32349   3.722   6.530   1.374  0.4689  0.0861  1.2375
  240MOL0     H32350   3.585   6.475   1.464  1.6971 -0.7069  0.0767
  240MOL0     H32351   3.481   6.629   1.641 -0.1062 -0.3189 -1.4673
  240MOL0     H32352   3.437   6.973   1.741 -1.0424 -0.4311  2.2343
  240MOL0     H32353   3.440   6.813   1.796 -1.0116  1.3505  0.8313
  240MOL0     H32354   3.589   6.933   1.942  0.6017 -1.3322  0.8645
  240MOL0     H32355   3.675   7.010   1.815 -0.0605  1.7174  5.0884
  240MOL0     H32356   3.758   6.788   1.751  0.8254  0.1235  0.2257
  240MOL0     H32357   3.661   6.705   1.884 -1.0050  0.6776  0.2166
  240MOL0     H32358   3.879   6.916   1.942  0.6517  0.7971  3.7079
  240MOL0     H32359   3.904   6.741   1.942 -0.4398  0.0970  0.4219
  240MOL0     H32360   4.035   6.793   2.118  0.2088 -0.4328 -0.4031
  240MOL0     H32361   4.238   6.802   2.239 -0.5871 -1.1549  0.4594
  240MOL0     H32362   4.282   6.978   2.276  1.1462 -1.2541 -1.1560
  240MOL0     H32363   4.264   6.856   2.397  1.7582 -2.7253 -2.4334
  240MOL0     H32364   3.797   7.341   2.650  0.2809 -2.7693  0.9556
  240MOL0     H32365   3.833   7.497   2.836  0.7980 -0.5814  4.2759
  240MOL0     H32366   4.084   7.689   2.861  0.7826  4.3136  2.3664
  240MOL0     H32367   3.962   7.695   2.991 -0.0781 -1.5693 -0.1629
  240MOL0     H32368   4.259   7.701   3.055  0.8852  0.1577  4.0639
  240MOL0     H32369   4.134   7.839   3.054 -3.1209  0.3909  4.0467
  240MOL0     H32370   4.153   7.611   3.224  1.2885  0.2840  0.2920
  240MOL0     H32371   4.013   7.720   3.221 -0.3370  1.6217 -0.5384
  240MOL0     H32372   4.307   7.786   3.287 -1.1019 -1.1754 -0.5964
  240MOL0     H32373   4.184   7.910   3.288  2.7946  0.3476 -1.8964
  240MOL0     H32374   4.208   7.679   3.478 -0.4883  0.3519  1.6023
  240MOL0     H32375   4.052   7.763   3.446 -0.0153 -3.4206  0.3542
  240MOL0     H32376   4.262   7.954   3.517 -1.1772  0.7930 -0.4696
  240MOL0     H32377   4.095   7.960   3.547  2.3117  2.5636 -0.7168
  240MOL0     H32378   4.277   7.757   3.697  0.1719  0.8021 -2.8599
  240MOL0     H32379   4.119   7.822   3.737 -0.5929 -1.1302 -0.4951
  240MOL0     H32380   4.390   7.949   3.711 -0.7321 -1.0687 -2.9549
  240MOL0     H32381   4.319   7.938   3.870  0.3861  0.1723 -0.0634
  240MOL0     H32382   4.249   7.361   2.858  0.0143 -0.5107 -1.1068
  240MOL0     H32383   4.218   7.231   2.682 -1.4541 -2.1259 -2.0569
  240MOL0     H32384   3.807   7.050   2.470  0.4843  1.0078 -0.9746
  240MOL0     H32385   3.680   6.941   2.289 -1.3055  1.5373  1.4530
  240MOL0     H32386   3.246   5.764   1.471 -0.4167  1.3661 -1.8754
  240MOL0     H32387   3.119   5.621   1.340 -1.2958 -2.7975  1.5571
  240MOL0     H32388   2.589   5.552   1.275  0.8217  1.3500 -2.2541
  240MOL0     H32389   2.425   5.457   1.125  2.1048  2.1895  0.1599
  240MOL0     H32390   2.497   5.202   0.813  0.4053 -1.0425  0.2224
  240MOL0     H32391   2.499   5.076   0.932  0.0589 -0.2048  0.2962
  240MOL0     H32392   2.255   5.055   0.920 -0.0068  0.5294 -0.7080
  240MOL0     H32393   2.316   5.061   0.754 -2.6299 -5.1206  0.5061
  240MOL0     H32394   2.265   5.309   0.765 -0.3904 -0.4284 -1.7742
  240MOL0     H32395   2.164   5.280   0.902  0.7525  0.2127 -0.1710
  240MOL0     H32396   2.149   5.142   0.627  2.0070 -2.2921  2.6563
  240MOL0     H32397   2.045   5.283   0.676  0.1031  0.6064  1.5723
  240MOL0     H32398   1.873   4.929   0.842  3.1559 -3.6849 -3.1371
  240MOL0     H32399   2.715   5.187   0.975  2.3343  1.6452 -0.7246
  240MOL0     H32400   2.888   5.298   1.122 -0.0447  1.3858 -1.2564
  241MOL0     O32401   4.765  10.022   3.237  0.1844 -0.2839  0.4025
  241MOL0     C32402   4.675  10.107   3.238  0.4326  0.1130  0.0296
  241MOL0     O32403   4.695  10.240   3.218 -0.0757  0.3156 -0.3201
  241MOL0     C32404   4.828  10.279   3.205 -0.8693 -0.2373 -0.8042
  241MOL0     C32405   4.877  10.304   3.083  0.8351 -0.9843 -0.3266
  241MOL0     C32406   5.008  10.351   3.058 -0.4993 -0.1144 -0.6636
  241MOL0     C32407   5.078  10.393   3.166  0.6354 -0.0142 -1.1862
  241MOL0     O32408   5.195  10.454   3.151 -0.4977  0.0223 -0.0253
  241MOL0     C32409   5.320  10.397   3.203  0.2635 -0.4591 -0.4595
  241MOL0     C32410   5.380  10.297   3.099  0.1322 -1.1769 -0.3795
  241MOL0     C32411   5.517  10.247   3.145  0.0799  0.9803 -0.2290
  241MOL0     C32412   5.512  10.146   3.264 -0.0397  0.4345  0.6583
  241MOL0     C32413   5.647  10.153   3.349 -0.5244 -0.3118  0.7583
  241MOL0     C32414   5.755  10.065   3.295 -0.4146 -0.6494 -0.8346
  241MOL0     C32415   5.882  10.053   3.386  0.0884 -0.4571  0.6728
  241MOL0     C32416   5.952   9.924   3.369 -0.0883  0.7288 -0.1074
  241MOL0     N32417   6.084   9.919   3.451  0.1906 -0.1579  0.8175
  241MOL0     C32418   6.200   9.967   3.397 -0.0945 -0.0628  0.0915
  241MOL0     C32419   6.287   9.955   3.506  0.6508 -0.3738  0.2026
  241MOL0     C32420   6.434   9.997   3.510 -0.1889 -0.1744  0.4345
  241MOL0     C32421   6.469  10.148   3.539  0.5832  0.2860 -0.3946
  241MOL0     C32422   6.538  10.181   3.666 -0.4302  0.0430 -0.3142
  241MOL0     C32423   6.692  10.180   3.630  0.0395 -0.0867 -0.2950
  241MOL0     O32424   6.736  10.050   3.589  0.0858 -0.0378  0.5479
  241MOL0     C32425   6.848  10.039   3.511  0.0608 -0.0776 -0.8502
  241MOL0     C32426   6.970  10.109   3.546  0.4794  0.0216 -0.5695
  241MOL0     C32427   7.081  10.068   3.476  0.3538 -0.4138  0.7379
  241MOL0     C32428   7.210  10.141   3.516  1.2228 -0.5065  0.2444
  241MOL0     C32429   7.077   9.992   3.356  1.1110  0.1129  0.2087
  241MOL0     C32430   7.197   9.960   3.277 -0.2183  0.0159 -0.0278
  241MOL0     O32431   7.306   9.914   3.351 -0.5109  0.1736 -0.1343
  241MOL0     C32432   7.434   9.922   3.289 -0.2839  0.1288 -0.3525
  241MOL0     C32433   7.529   9.822   3.324  1.1123  0.6890  0.3736
  241MOL0     C32434   7.657   9.817   3.276  0.1520  0.5600  0.3012
  241MOL0     C32435   7.687   9.911   3.181 -0.1464  0.5273  0.8889
  241MOL0     O32436   7.810   9.927   3.122  0.1813 -0.5553 -0.1472
  241MOL0     C32437   7.893   9.819   3.119  0.3154  0.5482  0.0570
  241MOL0     C32438   8.038   9.842   3.070  0.2002  0.0643 -0.7312
  241MOL0     C32439   8.038   9.924   2.935 -0.0964 -0.1825 -0.0657
  241MOL0     C32440   8.089   9.840   2.811 -0.1535 -1.1376  0.6747
  241MOL0     C32441   8.153   9.934   2.703 -0.8380 -0.8760 -0.0429
  241MOL0     C32442   8.235   9.863   2.604  0.6893  0.6561 -0.4490
  241MOL0     C32443   8.142   9.766   2.521 -0.4800  0.9557  0.2323
  241MOL0     C32444   8.213   9.714   2.412 -0.8852 -0.4150  0.6581
  241MOL0    Cl32445   8.216   9.842   2.283 -0.0234 -0.1604 -0.0814
  241MOL0     C32446   7.603  10.013   3.140 -0.3073 -0.1560  0.1630
  241MOL0     C32447   7.469  10.028   3.190 -0.9806 -0.3980 -0.8220
  241MOL0     O32448   7.180   9.941   3.157 -0.2947  0.1453  0.6975
  241MOL0     C32449   6.950   9.947   3.320 -0.1867 -0.2167  0.8061
  241MOL0     C32450   6.837   9.960   3.401  0.4135 -0.0885 -0.1155
  241MOL0     N32451   6.212   9.909   3.622  1.0529 -0.6929  1.2609
  241MOL0     N32452   6.092   9.888   3.582 -0.9743 -0.3987  0.2205
  241MOL0     C32453   5.029  10.376   3.298 -0.4612 -0.4391  1.3347
  241MOL0     C32454   4.907  10.316   3.322 -0.8213  0.4342  0.8015
  241MOL0     C32455   4.532  10.069   3.242  0.1923  0.5888  0.0103
  241MOL0     C32456   4.508   9.929   3.245 -0.7986  0.6324 -0.7253
  241MOL0     C32457   4.376   9.879   3.246 -0.2087 -0.0362 -0.9046
  241MOL0     C32458   4.268   9.967   3.251 -0.0332  0.3410 -0.0543
  241MOL0     O32459   4.140   9.919   3.274 -0.9631  0.6352  0.1787
  241MOL0     C32460   4.034   9.997   3.337 -0.9662 -0.3201 -0.0185
  241MOL0     C32461   4.064  10.036   3.478 -0.4819 -0.5041  0.2937
  241MOL0     C32462   4.074   9.915   3.573  0.2069  0.8156 -0.0989
  241MOL0     C32463   4.091   9.955   3.715 -0.6352 -0.3378  0.2485
  241MOL0     C32464   4.062   9.837   3.792 -0.4389  1.0216 -0.8993
  241MOL0     C32465   4.045   9.740   3.857  0.2924  0.4438 -0.7561
  241MOL0     C32466   4.298  10.107   3.244 -0.0735 -0.3390  1.1934
  241MOL0     C32467   4.428  10.158   3.238  1.0370 -0.3772 -0.1252
  241MOL0     H32468   4.803  10.291   3.004 -1.1052 -3.0722  1.6625
  241MOL0     H32469   5.045  10.348   2.956  0.2011 -0.2463 -0.4155
  241MOL0     H32470   5.396  10.474   3.222 -0.0276 -0.6090  1.3965
  241MOL0     H32471   5.299  10.344   3.296  0.5363 -0.4726 -0.4060
  241MOL0     H32472   5.310  10.215   3.082 -2.3604  0.4501  1.3286
  241MOL0     H32473   5.416  10.353   3.012 -0.8069 -0.0300 -0.0568
  241MOL0     H32474   5.569  10.197   3.062 -0.2981 -0.1671  0.1967
  241MOL0     H32475   5.583  10.331   3.167  0.1885  0.1655  3.1146
  241MOL0     H32476   5.430  10.186   3.324 -0.4507 -2.6752  2.3890
  241MOL0     H32477   5.481  10.045   3.235  0.1714 -0.3651  3.0131
  241MOL0     H32478   5.680  10.256   3.367  2.7810 -0.7342 -1.8374
  241MOL0     H32479   5.623  10.119   3.451 -0.8460  0.9429  1.1174
  241MOL0     H32480   5.707   9.968   3.277 -3.0307  0.4277 -0.0668
  241MOL0     H32481   5.785  10.104   3.197 -3.2801  1.5266 -0.9728
  241MOL0     H32482   5.946  10.137   3.356 -1.1605 -0.0236 -0.8546
  241MOL0     H32483   5.866  10.061   3.494 -2.9557 -2.7194  0.4954
  241MOL0     H32484   5.979   9.900   3.266 -0.3733 -2.8322  0.5040
  241MOL0     H32485   5.893   9.843   3.413  1.6664  0.4614  1.9170
  241MOL0     H32486   6.213  10.001   3.295 -1.4016 -2.6331 -1.0183
  241MOL0     H32487   6.463   9.940   3.599  2.9287 -0.7555 -0.8446
  241MOL0     H32488   6.497   9.956   3.431  1.9285  0.4073  1.7357
  241MOL0     H32489   6.383  10.213   3.518  1.2994  1.0215 -1.1248
  241MOL0     H32490   6.534  10.181   3.457  1.6717  4.8575  1.9454
  241MOL0     H32491   6.508  10.110   3.744  0.5815  2.0600  2.0595
  241MOL0     H32492   6.505  10.279   3.703  3.9229  2.4776 -2.1391
  241MOL0     H32493   6.734  10.214   3.726 -1.7569  0.0614  0.4738
  241MOL0     H32494   6.725  10.253   3.556  0.5396 -0.1060 -0.0968
  241MOL0     H32495   6.980  10.176   3.630  2.2240 -0.6679 -0.1875
  241MOL0     H32496   7.279  10.172   3.437  3.1885  2.1302  2.8094
  241MOL0     H32497   7.187  10.236   3.563 -4.1047 -0.1680 -2.2867
  241MOL0     H32498   7.261  10.074   3.586 -0.6305 -2.7603 -0.4266
  241MOL0     H32499   7.501   9.745   3.396 -2.5135  0.4866 -1.0846
  241MOL0     H32500   7.730   9.746   3.314  0.6956  0.6469 -0.5726
  241MOL0     H32501   7.902   9.769   3.216  2.4603  0.4222 -0.1785
  241MOL0     H32502   7.865   9.741   3.048  0.1318 -0.4449  1.1916
  241MOL0     H32503   8.099   9.888   3.148 -1.4755  2.0925 -0.5317
  241MOL0     H32504   8.075   9.741   3.047  0.5631 -0.2560  1.1184
  241MOL0     H32505   8.094  10.018   2.946  0.8749 -0.4108 -2.4078
  241MOL0     H32506   7.936   9.958   2.916  0.9207  3.6013  0.4095
  241MOL0     H32507   8.174   9.787   2.854 -0.2156  0.2651  2.7099
  241MOL0     H32508   8.015   9.773   2.767  1.4832 -4.3416  2.4491
  241MOL0     H32509   8.210  10.012   2.753 -2.5604 -0.8310  1.9588
  241MOL0     H32510   8.069   9.984   2.653 -2.3723 -1.4000  1.8738
  241MOL0     H32511   8.278   9.936   2.535  0.2555  1.2194 -0.1353
  241MOL0     H32512   8.318   9.812   2.655  1.2297  2.4282  0.5060
  241MOL0     H32513   8.061   9.828   2.483  0.5692  1.8631 -0.5932
  241MOL0     H32514   8.101   9.692   2.591 -2.1805  0.8341 -0.8511
  241MOL0     H32515   8.159   9.624   2.381  2.3192 -1.6318 -1.9091
  241MOL0     H32516   8.314   9.685   2.442 -0.8186 -2.4837 -1.3562
  241MOL0     H32517   7.626  10.089   3.066 -3.5397  3.7445  2.7089
  241MOL0     H32518   7.402  10.110   3.168  1.2006  0.6182 -4.6091
  241MOL0     H32519   6.936   9.891   3.228 -5.1283  0.6563  0.7682
  241MOL0     H32520   6.741   9.915   3.377  0.8316 -1.4791  0.6789
  241MOL0     H32521   5.083  10.404   3.388 -2.4922  0.9908  2.1829
  241MOL0     H32522   4.880  10.311   3.427  2.3153  4.0110  1.9951
  241MOL0     H32523   4.592   9.864   3.269 -0.9615  1.1762  1.4904
  241MOL0     H32524   4.365   9.773   3.268 -4.1690  0.0243 -1.8660
  241MOL0     H32525   4.029  10.092   3.285  0.6929  0.0179  0.3696
  241MOL0     H32526   3.938   9.946   3.325 -1.6464  0.4374  1.8107
  241MOL0     H32527   3.980  10.098   3.512 -2.5101 -3.0759  0.2543
  241MOL0     H32528   4.160  10.088   3.482 -0.2000 -0.8268 -1.5267
  241MOL0     H32529   4.162   9.857   3.545 -0.7463 -0.9053  0.3671
  241MOL0     H32530   3.990   9.849   3.552  0.0919  0.8180  0.3576
  241MOL0     H32531   4.027  10.039   3.743  0.2200  1.4938 -2.8406
  241MOL0     H32532   4.192   9.991   3.738 -0.5043 -0.3764 -0.2408
  241MOL0     H32533   4.017   9.650   3.907 -1.1494  0.3225 -1.7514
  241MOL0     H32534   4.222  10.178   3.216  2.3906  1.2653 -2.2094
  241MOL0     H32535   4.446  10.265   3.242 -2.8315  0.4909 -1.2396
  242MOL0     O32536   3.143  11.231   3.249  0.3157  0.5633  0.4743
  242MOL0     C32537   3.259  11.261   3.261  0.1776 -1.4558  0.6261
  242MOL0     O32538   3.332  11.232   3.368  0.7247  0.1554 -0.2867
  242MOL0     C32539   3.274  11.148   3.457  0.1337  0.2534  0.7278
  242MOL0     C32540   3.204  11.021   3.423  0.1727  0.0663  0.2692
  242MOL0     C32541   3.153  10.931   3.515 -0.1385  0.4502  0.6125
  242MOL0     C32542   3.184  10.953   3.648  0.1819 -0.4681 -0.8916
  242MOL0     O32543   3.135  10.865   3.743 -0.4213  0.0550  0.1039
  242MOL0     C32544   2.989  10.837   3.744 -0.2845 -0.0328 -0.2034
  242MOL0     C32545   2.961  10.694   3.689  0.0688  0.6763  0.2976
  242MOL0     C32546   2.932  10.602   3.801  0.4122  0.1417 -0.8999
  242MOL0     C32547   2.879  10.475   3.750 -0.1954 -0.6205 -0.4674
  242MOL0     C32548   2.865  10.385   3.869  1.4208  0.0709 -0.3503
  242MOL0     C32549   2.810  10.238   3.812  0.6543 -0.5670  0.7637
  242MOL0     C32550   2.778  10.135   3.914 -0.7888  0.0374  0.4775
  242MOL0     C32551   2.744  10.001   3.845  0.3032  0.0330 -0.3058
  242MOL0     N32552   2.622   9.938   3.903 -0.4283 -0.5884 -0.3516
  242MOL0     C32553   2.595   9.941   4.041 -0.1628  0.3411  0.4127
  242MOL0     C32554   2.471   9.893   4.040  0.2580  0.3283 -0.3037
  242MOL0     C32555   2.379   9.857   4.148 -0.4112 -0.9079 -0.0322
  242MOL0     C32556   2.435   9.745   4.230 -0.3499 -0.1039  0.6068
  242MOL0     C32557   2.452   9.602   4.167  0.0843 -0.9959  0.0896
  242MOL0     C32558   2.554   9.594   4.055  0.3663 -0.3922 -0.1694
  242MOL0     O32559   2.690   9.606   4.104  0.0521  0.2723 -0.3441
  242MOL0     C32560   2.797   9.617   4.012  0.1445 -1.1687 -0.3620
  242MOL0     C32561   2.906   9.687   4.053  0.7218 -0.1927 -0.4253
  242MOL0     C32562   3.014   9.731   3.971 -0.5474  0.2813 -0.3288
  242MOL0     C32563   3.125   9.804   4.042  0.0338 -0.8144  0.2812
  242MOL0     C32564   3.020   9.667   3.841  0.0584  0.3232 -0.3592
  242MOL0     C32565   3.122   9.696   3.723 -0.3756 -0.3067 -0.7324
  242MOL0     O32566   3.131   9.601   3.626 -0.0743 -0.5446  0.4448
  242MOL0     C32567   3.220   9.628   3.525 -0.0976  0.4576 -0.6968
  242MOL0     C32568   3.345   9.562   3.523 -0.1420  1.4448  0.4068
  242MOL0     C32569   3.427   9.570   3.401 -0.0844 -0.6064 -0.4662
  242MOL0     C32570   3.384   9.645   3.290  0.4468 -0.7763 -0.9119
  242MOL0     O32571   3.457   9.662   3.174 -0.3509  0.1086  0.6340
  242MOL0     C32572   3.514   9.784   3.156 -0.1599 -0.5163 -0.3223
  242MOL0     C32573   3.674   9.793   3.183 -0.2480 -0.2975 -0.6347
  242MOL0     C32574   3.738   9.681   3.108 -0.5533  0.2663 -0.2900
  242MOL0     C32575   3.869   9.613   3.172 -0.0886  0.3693 -0.7162
  242MOL0     C32576   3.830   9.528   3.302 -0.2554  0.3242 -0.3018
  242MOL0     C32577   3.951   9.525   3.389 -0.0726  1.3265  0.7583
  242MOL0     C32578   3.943   9.438   3.508  0.7330 -0.1178 -0.3352
  242MOL0     C32579   3.820   9.461   3.604 -0.4352 -0.4179  0.1999
  242MOL0    Cl32580   3.847   9.374   3.775 -0.0686 -0.1664  0.2252
  242MOL0     C32581   3.255   9.699   3.300 -0.7749  0.0207  0.1851
  242MOL0     C32582   3.170   9.693   3.408 -1.0354 -1.1416 -0.0038
  242MOL0     O32583   3.188   9.801   3.730 -0.0802 -0.4383 -0.7859
  242MOL0     C32584   2.914   9.577   3.806 -0.7649 -0.5462 -0.0065
  242MOL0     C32585   2.801   9.552   3.888  0.2431 -0.2492  0.2923
  242MOL0     N32586   2.415   9.895   3.912  0.4883  0.2438  0.0356
  242MOL0     N32587   2.512   9.918   3.831 -0.0251 -0.2689 -0.3138
  242MOL0     C32588   3.253  11.070   3.689 -0.2844  0.5686  0.1584
  242MOL0     C32589   3.286  11.169   3.593 -0.7583  1.0124 -0.0814
  242MOL0     C32590   3.315  11.346   3.159 -0.6160 -0.8143  0.2320
  242MOL0     C32591   3.271  11.331   3.025 -1.0106 -0.8259  0.0045
  242MOL0     C32592   3.307  11.420   2.917  0.6053  1.2642 -0.6307
  242MOL0     C32593   3.385  11.530   2.949 -0.0391 -0.5979  0.0216
  242MOL0     O32594   3.434  11.627   2.870 -0.4906 -0.6719 -0.7094
  242MOL0     C32595   3.350  11.664   2.761 -0.5556  0.7486  0.6325
  242MOL0     C32596   3.231  11.736   2.807  0.5172 -0.2527 -0.2787
  242MOL0     C32597   3.266  11.891   2.837 -0.2733  0.8280  0.6231
  242MOL0     C32598   3.142  11.965   2.902 -0.0915 -0.0348  0.1137
  242MOL0     C32599   3.160  12.111   2.907  0.5644  1.3486  0.4736
  242MOL0     C32600   3.176  12.237   2.910 -0.0873  0.1386  0.4566
  242MOL0     C32601   3.433  11.538   3.084 -0.1323  0.3125  1.0312
  242MOL0     C32602   3.403  11.449   3.184  0.1302  1.2305  0.7483
  242MOL0     H32603   3.206  10.993   3.318  0.2616  3.1024 -0.6255
  242MOL0     H32604   3.085  10.850   3.491  0.6145  0.8520 -3.5666
  242MOL0     H32605   2.945  10.851   3.844  0.8480 -1.7563  0.5868
  242MOL0     H32606   2.948  10.913   3.678  1.6696  1.7724  0.5215
  242MOL0     H32607   2.869  10.692   3.629 -0.6650 -1.6794  1.4094
  242MOL0     H32608   3.046  10.657   3.631  1.5151  0.8167  2.2263
  242MOL0     H32609   3.007  10.581   3.877 -1.8385  2.3093  2.1991
  242MOL0     H32610   2.846  10.644   3.855  0.8136 -1.0545  0.7189
  242MOL0     H32611   2.782  10.485   3.700  1.2810  1.5591 -3.1975
  242MOL0     H32612   2.947  10.436   3.673 -0.9673  0.0358 -1.5217
  242MOL0     H32613   2.965  10.379   3.913  2.6501  0.0417 -2.9468
  242MOL0     H32614   2.789  10.423   3.938  0.9005  0.7948 -1.3043
  242MOL0     H32615   2.723  10.253   3.747  1.6382  2.4662 -0.0221
  242MOL0     H32616   2.895  10.198   3.754 -0.9801 -0.6404 -1.7193
  242MOL0     H32617   2.871  10.112   3.967  1.1699 -1.1421 -3.1519
  242MOL0     H32618   2.705  10.173   3.986  3.1031  1.7572  3.9349
  242MOL0     H32619   2.822   9.924   3.853  1.2023  1.0519  1.1053
  242MOL0     H32620   2.726  10.012   3.737 -2.4499 -2.3530 -0.2100
  242MOL0     H32621   2.660   9.964   4.125  4.4814 -1.9952 -2.1277
  242MOL0     H32622   2.366   9.946   4.209  1.7392 -0.6781  0.1882
  242MOL0     H32623   2.280   9.829   4.111 -2.0172  2.9859  0.8492
  242MOL0     H32624   2.372   9.740   4.319 -0.0576  2.7750  1.0861
  242MOL0     H32625   2.538   9.759   4.266 -0.3165  0.4759  0.2865
  242MOL0     H32626   2.356   9.573   4.124  0.2033  3.0433 -3.5599
  242MOL0     H32627   2.481   9.533   4.247  0.5898 -2.0030 -0.9247
  242MOL0     H32628   2.517   9.660   3.977 -0.5150  0.9360  1.3174
  242MOL0     H32629   2.539   9.502   3.998 -2.8686  0.6085 -1.0826
  242MOL0     H32630   2.897   9.724   4.155 -2.0996 -1.1976 -0.2094
  242MOL0     H32631   3.125   9.780   4.148  0.6519  3.3261  1.3885
  242MOL0     H32632   3.215   9.751   4.011  0.4981 -1.4295  2.5556
  242MOL0     H32633   3.135   9.913   4.032  1.7410 -0.8507  1.3059
  242MOL0     H32634   3.372   9.513   3.616 -1.7512  0.8338  0.5844
  242MOL0     H32635   3.521   9.518   3.417  0.5410  0.9630  1.4928
  242MOL0     H32636   3.503   9.811   3.050  1.5384  1.9336  0.0256
  242MOL0     H32637   3.466   9.859   3.220  0.6709 -0.6102  0.4379
  242MOL0     H32638   3.689   9.890   3.136 -2.0230  0.0241 -0.5809
  242MOL0     H32639   3.677   9.774   3.291 -2.8475 -3.9690 -1.0144
  242MOL0     H32640   3.784   9.726   3.020 -0.7926  0.9296 -0.0826
  242MOL0     H32641   3.666   9.603   3.080 -0.6608  0.4921 -0.6483
  242MOL0     H32642   3.922   9.552   3.099 -0.6115 -2.7936  1.3464
  242MOL0     H32643   3.934   9.700   3.187 -1.8154  1.2885  2.3754
  242MOL0     H32644   3.801   9.430   3.263  2.5150 -0.6368 -0.1851
  242MOL0     H32645   3.744   9.575   3.351  1.2006  1.7865  0.9615
  242MOL0     H32646   4.025   9.485   3.319  0.4033  0.2320  1.8503
  242MOL0     H32647   3.985   9.624   3.418 -0.7457  1.9533 -0.5251
  242MOL0     H32648   4.032   9.439   3.571  1.2963  1.3832 -1.1153
  242MOL0     H32649   3.939   9.334   3.472 -1.2818 -1.6667  3.6426
  242MOL0     H32650   3.732   9.428   3.549  1.3160 -0.7586 -2.6259
  242MOL0     H32651   3.815   9.570   3.613 -0.4703 -0.2733 -1.3307
  242MOL0     H32652   3.214   9.745   3.211 -0.0627 -0.0647 -0.1939
  242MOL0     H32653   3.078   9.749   3.394  0.5759  2.4213  2.3529
  242MOL0     H32654   2.918   9.529   3.709 -1.0050  0.6299 -0.6283
  242MOL0     H32655   2.725   9.479   3.861 -1.2939  1.7020 -0.9233
  242MOL0     H32656   3.259  11.095   3.795 -1.1277  1.3820  0.0276
  242MOL0     H32657   3.314  11.272   3.609  1.7617  1.0298 -3.5629
  242MOL0     H32658   3.202  11.251   3.000  0.4470 -2.0821 -0.1276
  242MOL0     H32659   3.267  11.407   2.816  2.7130 -0.8094 -1.2803
  242MOL0     H32660   3.417  11.723   2.697  0.6599  0.1706  1.3369
  242MOL0     H32661   3.320  11.578   2.701 -3.8777  3.4936 -2.1057
  242MOL0     H32662   3.196  11.681   2.894 -0.4580  1.2249  0.3037
  242MOL0     H32663   3.142  11.732   2.743 -1.3028 -0.0023  2.0878
  242MOL0     H32664   3.285  11.930   2.737  0.5520 -0.4331  0.2669
  242MOL0     H32665   3.355  11.895   2.901  0.4144 -1.0045 -0.1640
  242MOL0     H32666   3.137  11.925   3.003 -0.6866  0.5070  0.3136
  242MOL0     H32667   3.047  11.942   2.852  0.3046  1.3822 -1.3879
  242MOL0     H32668   3.184  12.343   2.900  0.6066 -0.0836 -2.1770
  242MOL0     H32669   3.497  11.622   3.110 -1.5164  1.0681  2.1823
  242MOL0     H32670   3.439  11.473   3.284  1.0354 -0.0605  0.7495
  243MOL0     O32671   7.528   3.495   1.338  0.6689 -0.4710 -0.8147
  243MOL0     C32672   7.551   3.410   1.426 -0.1913 -1.1877 -0.8208
  243MOL0     O32673   7.633   3.293   1.411  1.1179  0.4203 -0.7498
  243MOL0     C32674   7.666   3.226   1.296 -0.7699  0.4083 -0.1926
  243MOL0     C32675   7.748   3.119   1.321  0.3467  0.1394  0.6324
  243MOL0     C32676   7.772   3.017   1.226  1.1688  0.0154 -0.2538
  243MOL0     C32677   7.701   3.030   1.097 -0.0745  0.3772 -0.3482
  243MOL0     O32678   7.703   2.936   1.002 -0.5129  0.4529 -0.2978
  243MOL0     C32679   7.639   2.944   0.872  0.0338 -0.1210 -0.4922
  243MOL0     C32680   7.621   2.810   0.801 -0.7641  0.4394 -0.9967
  243MOL0     C32681   7.544   2.702   0.880  0.6496  0.8105 -0.4204
  243MOL0     C32682   7.528   2.581   0.793 -0.1329 -0.0707 -0.1115
  243MOL0     C32683   7.408   2.500   0.853 -0.0134  0.4178 -1.2293
  243MOL0     C32684   7.432   2.456   1.002 -0.3847 -0.4468 -0.1172
  243MOL0     C32685   7.326   2.353   1.041 -0.4452 -0.4564 -0.4558
  243MOL0     C32686   7.332   2.315   1.186 -0.0454  0.9928 -0.3360
  243MOL0     N32687   7.322   2.434   1.268  0.3621 -0.0916 -0.3491
  243MOL0     C32688   7.212   2.522   1.273 -0.6483  1.2024  0.5828
  243MOL0     C32689   7.262   2.629   1.329  0.2963 -0.2675  0.7639
  243MOL0     C32690   7.186   2.762   1.358  0.9439  0.2539 -0.1329
  243MOL0     C32691   7.137   2.769   1.509  1.0388 -0.4572  0.7105
  243MOL0     C32692   7.050   2.892   1.529 -0.3062 -0.0479  0.6257
  243MOL0     C32693   6.979   2.885   1.659 -0.6496 -0.5684  0.5721
  243MOL0     O32694   6.884   2.991   1.661  0.4221 -0.3305  0.1990
  243MOL0     C32695   6.851   3.027   1.792 -0.7723 -0.3816  0.8448
  243MOL0     C32696   6.830   3.160   1.818  0.2325  0.5600 -1.2881
  243MOL0     C32697   6.771   3.207   1.938  0.1910 -0.1125 -0.5492
  243MOL0     C32698   6.762   3.353   1.951 -1.0839  0.8186 -0.4598
  243MOL0     C32699   6.757   3.118   2.046  0.2604 -0.0525 -0.1308
  243MOL0     C32700   6.701   3.156   2.178  0.6378  0.3350  0.3310
  243MOL0     O32701   6.597   3.243   2.181  0.4328  0.0826  0.0391
  243MOL0     C32702   6.535   3.270   2.302  0.1032 -0.5538 -0.1941
  243MOL0     C32703   6.419   3.214   2.347  0.1585 -0.1484  0.8006
  243MOL0     C32704   6.340   3.268   2.452  0.2527 -0.9191 -0.1109
  243MOL0     C32705   6.387   3.376   2.525  0.4234 -0.6100 -0.0465
  243MOL0     O32706   6.313   3.416   2.634 -0.0078  0.1802  0.1339
  243MOL0     C32707   6.194   3.485   2.610  0.1512  0.1853 -0.4252
  243MOL0     C32708   6.218   3.620   2.549 -0.1401  0.0756  0.3396
  243MOL0     C32709   6.094   3.689   2.491  0.0288 -0.4961 -0.9841
  243MOL0     C32710   6.119   3.849   2.500 -0.2637 -1.4222 -0.0539
  243MOL0     C32711   5.985   3.920   2.447  0.8835  0.1979 -0.0261
  243MOL0     C32712   6.000   4.069   2.446  0.2397 -0.0221  0.8818
  243MOL0     C32713   5.867   4.141   2.400 -0.6362  1.0353 -0.5080
  243MOL0     C32714   5.796   4.082   2.278  0.0285 -0.5646 -0.1827
  243MOL0    Cl32715   5.640   4.163   2.264 -0.2209  0.0201  0.2972
  243MOL0     C32716   6.503   3.443   2.478 -0.8049 -0.7590 -0.4438
  243MOL0     C32717   6.577   3.382   2.373  0.7302 -0.2691  0.1573
  243MOL0     O32718   6.738   3.091   2.275 -0.1552  0.2860  0.3739
  243MOL0     C32719   6.796   2.987   2.023  0.1977 -0.3611 -0.0571
  243MOL0     C32720   6.842   2.943   1.905  0.9069 -0.1458  0.2550
  243MOL0     N32721   7.394   2.600   1.374 -0.0115 -0.3324  0.3339
  243MOL0     N32722   7.421   2.487   1.335 -0.2974 -0.1620 -0.0135
  243MOL0     C32723   7.626   3.149   1.079  0.1453  0.1045 -0.0251
  243MOL0     C32724   7.613   3.250   1.167 -0.1747  0.0951  0.3881
  243MOL0     C32725   7.551   3.458   1.577  0.1518 -0.2305  0.2340
  243MOL0     C32726   7.507   3.586   1.607 -0.0844  0.4188  0.6461
  243MOL0     C32727   7.464   3.626   1.735  0.0390 -0.8237 -0.5441
  243MOL0     C32728   7.491   3.545   1.843  0.0050 -0.6738  0.5874
  243MOL0     O32729   7.463   3.594   1.969 -0.2333  0.1944 -0.4105
  243MOL0     C32730   7.578   3.589   2.057  0.4177 -0.3849  1.4241
  243MOL0     C32731   7.607   3.721   2.128 -0.1567  0.9476 -0.0078
  243MOL0     C32732   7.714   3.700   2.243  0.0536  0.3180  1.0778
  243MOL0     C32733   7.725   3.823   2.328  0.4714  0.3329 -0.7233
  243MOL0     C32734   7.601   3.880   2.387  0.2209 -0.5793 -0.4133
  243MOL0     C32735   7.503   3.942   2.430  0.1166  0.0343 -0.1109
  243MOL0     C32736   7.544   3.415   1.816  0.3155 -0.4648 -0.0578
  243MOL0     C32737   7.574   3.378   1.682 -0.0021  0.9746  0.3048
  243MOL0     H32738   7.777   3.105   1.425  0.2530  2.2344  0.9784
  243MOL0     H32739   7.831   2.930   1.252  2.9873  0.7296 -1.7438
  243MOL0     H32740   7.541   2.988   0.890  0.8765  1.0342  1.5950
  243MOL0     H32741   7.691   3.013   0.805  1.9145 -0.3400  0.6627
  243MOL0     H32742   7.563   2.831   0.711 -1.6931 -2.4595 -1.1806
  243MOL0     H32743   7.721   2.772   0.777 -0.4719 -0.5385  1.4447
  243MOL0     H32744   7.604   2.675   0.968  2.1183  1.1343 -1.2839
  243MOL0     H32745   7.449   2.741   0.918  0.8862  0.4727  0.5526
  243MOL0     H32746   7.511   2.613   0.690 -0.9557  0.6053  0.2277
  243MOL0     H32747   7.627   2.534   0.801 -1.8817 -3.7829  2.3885
  243MOL0     H32748   7.318   2.563   0.846 -0.6657 -0.4361 -0.6635
  243MOL0     H32749   7.399   2.408   0.795  1.5813 -0.4873 -0.1023
  243MOL0     H32750   7.532   2.417   1.022 -1.6346 -2.1421  3.7224
  243MOL0     H32751   7.420   2.542   1.067  2.3888  1.4421 -1.8861
  243MOL0     H32752   7.226   2.390   1.016 -2.0569 -3.3857  1.0550
  243MOL0     H32753   7.344   2.260   0.986  1.2585 -1.2163  1.2553
  243MOL0     H32754   7.430   2.270   1.205 -1.4241 -2.6827 -0.9060
  243MOL0     H32755   7.252   2.242   1.206  1.4729 -0.8903 -0.7727
  243MOL0     H32756   7.110   2.513   1.237 -0.3620 -2.4251  0.3141
  243MOL0     H32757   7.248   2.848   1.329 -0.1830  1.0123 -0.3483
  243MOL0     H32758   7.097   2.773   1.296  0.9530  1.8885  0.1071
  243MOL0     H32759   7.218   2.767   1.582  0.1366 -1.1122  1.7266
  243MOL0     H32760   7.070   2.687   1.538 -1.9483  1.6408  0.1710
  243MOL0     H32761   6.977   2.901   1.448 -0.8219 -1.7342  0.8712
  243MOL0     H32762   7.109   2.984   1.522 -2.8037  1.7374  1.6684
  243MOL0     H32763   7.050   2.890   1.743 -0.7479 -0.8248  0.6715
  243MOL0     H32764   6.928   2.790   1.675  0.0373 -1.2833 -1.3043
  243MOL0     H32765   6.849   3.227   1.735  2.4062 -0.0462 -1.3555
  243MOL0     H32766   6.792   3.403   1.858 -1.7868  2.7516  0.3101
  243MOL0     H32767   6.660   3.366   1.988 -0.8860 -1.7022  1.2252
  243MOL0     H32768   6.823   3.394   2.031  1.6880 -1.6839 -1.1126
  243MOL0     H32769   6.381   3.128   2.293  4.3344 -0.9290 -1.2913
  243MOL0     H32770   6.247   3.223   2.483  0.2255 -0.8579 -0.1018
  243MOL0     H32771   6.135   3.416   2.549  0.3224  0.3106 -0.7400
  243MOL0     H32772   6.141   3.498   2.705 -0.5785  1.5856 -0.9854
  243MOL0     H32773   6.265   3.676   2.630  3.1415 -0.3544 -1.1050
  243MOL0     H32774   6.300   3.612   2.477 -1.9562  1.5989 -2.0381
  243MOL0     H32775   6.010   3.669   2.558 -0.8324  3.7831 -0.4804
  243MOL0     H32776   6.083   3.646   2.391 -0.6783  0.8028 -1.4968
  243MOL0     H32777   6.131   3.887   2.602  2.5423 -1.6720 -0.2070
  243MOL0     H32778   6.201   3.872   2.431 -1.1841 -3.7314 -2.0753
  243MOL0     H32779   5.907   3.887   2.515  0.6481  1.4406  0.3354
  243MOL0     H32780   5.972   3.891   2.343  2.6372  1.4517 -0.6500
  243MOL0     H32781   6.025   4.096   2.549  3.2034 -0.8175  0.4504
  243MOL0     H32782   6.083   4.101   2.383  0.1805 -1.6110 -0.0767
  243MOL0     H32783   5.894   4.246   2.382  3.8960  0.0779 -0.3738
  243MOL0     H32784   5.801   4.140   2.487 -0.2291 -1.9406 -0.1420
  243MOL0     H32785   5.782   3.974   2.285  0.1019 -0.5202  0.8258
  243MOL0     H32786   5.853   4.101   2.187 -1.2903  0.6281 -0.7856
  243MOL0     H32787   6.532   3.536   2.527  1.3146  0.2612 -3.3624
  243MOL0     H32788   6.649   3.446   2.322  0.4955 -0.2765 -0.1842
  243MOL0     H32789   6.773   2.912   2.098 -0.5150 -1.7501 -1.5910
  243MOL0     H32790   6.833   2.836   1.888  0.3507 -0.2714  1.2776
  243MOL0     H32791   7.581   3.178   0.984  0.7669 -3.3306 -1.5014
  243MOL0     H32792   7.560   3.344   1.155  0.5698  0.5633  0.7030
  243MOL0     H32793   7.482   3.660   1.532  1.0136  0.3024  0.1366
  243MOL0     H32794   7.425   3.727   1.746  2.9906  0.0989  4.2374
  243MOL0     H32795   7.546   3.520   2.135 -5.1253 -1.4666 -1.3320
  243MOL0     H32796   7.668   3.552   2.007  0.6177  2.7096 -0.8114
  243MOL0     H32797   7.516   3.757   2.177 -0.8179  1.7706 -1.7762
  243MOL0     H32798   7.632   3.790   2.048  0.2056 -2.4422 -3.1001
  243MOL0     H32799   7.808   3.678   2.192 -1.3812 -2.4628 -0.6627
  243MOL0     H32800   7.699   3.612   2.305 -1.1869  0.9367  1.6910
  243MOL0     H32801   7.763   3.902   2.263  1.0396  1.7348  1.2218
  243MOL0     H32802   7.776   3.799   2.422 -1.1505  2.9613  0.9452
  243MOL0     H32803   7.413   3.979   2.474  1.5452  2.1864  1.1701
  243MOL0     H32804   7.552   3.337   1.891 -0.9142  1.0104  1.7093
  243MOL0     H32805   7.608   3.276   1.664 -2.5455  0.3060 -1.3809
  244MOL0     O32806   6.498   7.769   3.150  0.3569 -0.0747 -0.4968
  244MOL0     C32807   6.609   7.731   3.177 -0.6320  0.3221  0.2994
  244MOL0     O32808   6.681   7.753   3.284  0.5995 -0.2896  0.1980
  244MOL0     C32809   6.660   7.858   3.373  0.0103  0.4582 -0.2531
  244MOL0     C32810   6.729   7.855   3.493  0.4422 -0.0207  0.7187
  244MOL0     C32811   6.698   7.936   3.600 -0.0274 -0.3985  0.5883
  244MOL0     C32812   6.594   8.012   3.601  0.1360  0.3697 -0.1252
  244MOL0     O32813   6.565   8.081   3.712 -0.4215 -0.2435  0.2854
  244MOL0     C32814   6.464   8.182   3.717 -0.0249  0.7672 -0.4000
  244MOL0     C32815   6.436   8.232   3.851  0.8700 -0.1977 -0.9128
  244MOL0     C32816   6.553   8.286   3.932 -0.1999  0.2489 -0.0668
  244MOL0     C32817   6.504   8.341   4.067 -1.0326  0.6698  0.3178
  244MOL0     C32818   6.618   8.376   4.152  0.1898 -0.1479  0.0188
  244MOL0     C32819   6.635   8.528   4.171  0.1272  0.2449  0.0352
  244MOL0     C32820   6.767   8.552   4.249  0.7425 -0.2979  0.2884
  244MOL0     C32821   6.801   8.702   4.237 -0.5995  0.3835  0.0291
  244MOL0     N32822   6.930   8.734   4.306  0.3136 -0.0812  0.9998
  244MOL0     C32823   6.961   8.862   4.350  0.5345  0.2102  0.0935
  244MOL0     C32824   7.082   8.865   4.421 -0.3591  0.4955  0.0226
  244MOL0     C32825   7.136   8.984   4.487 -0.4399 -1.0247  0.7184
  244MOL0     C32826   7.282   8.981   4.537  0.2902 -0.6705  0.5200
  244MOL0     C32827   7.376   9.106   4.521 -0.3107 -0.1553  0.3190
  244MOL0     C32828   7.344   9.214   4.629 -0.3177 -0.0946 -0.3215
  244MOL0     O32829   7.428   9.326   4.599 -1.1049 -0.2643 -0.0388
  244MOL0     C32830   7.378   9.451   4.650 -1.3993  0.5204 -0.8304
  244MOL0     C32831   7.343   9.475   4.783  0.3033  0.5466  0.2270
  244MOL0     C32832   7.307   9.612   4.823 -0.1951  0.9073  0.3761
  244MOL0     C32833   7.268   9.633   4.965  0.5663  0.6125 -0.9099
  244MOL0     C32834   7.303   9.705   4.725  0.0362 -0.5371 -0.9359
  244MOL0     C32835   7.262   9.846   4.738 -0.1321  0.8161 -0.2091
  244MOL0     O32836   7.162   9.891   4.658  0.3061 -0.3211 -0.2658
  244MOL0     C32837   7.123  10.025   4.657 -0.0204 -0.5669  0.2478
  244MOL0     C32838   6.992  10.050   4.642 -0.1743 -0.6455 -0.0235
  244MOL0     C32839   6.928  10.171   4.668  0.3774  0.2003  0.0882
  244MOL0     C32840   6.995  10.284   4.707 -0.2919 -0.5994 -0.2834
  244MOL0     O32841   6.948  10.409   4.719  0.2325  0.3898 -0.8128
  244MOL0     C32842   6.830  10.451   4.646  0.4070  0.1535  0.1320
  244MOL0     C32843   6.862  10.600   4.642 -0.0874 -0.3900 -0.4420
  244MOL0     C32844   6.754  10.694   4.587 -1.0697 -0.4114 -0.3204
  244MOL0     C32845   6.776  10.843   4.612  0.2939  0.3572  0.0624
  244MOL0     C32846   6.654  10.933   4.561  0.2457  0.7438 -0.3493
  244MOL0     C32847   6.695  10.956   4.416  0.1527  0.3257  0.0594
  244MOL0     C32848   6.611  11.070   4.345 -0.5552 -0.3905 -0.1209
  244MOL0     C32849   6.488  11.012   4.273  0.9312  0.2230 -0.6011
  244MOL0    Cl32850   6.529  10.885   4.163 -0.2224 -0.3968 -0.6367
  244MOL0     C32851   7.133  10.265   4.724 -0.6304  0.9854 -0.0964
  244MOL0     C32852   7.195  10.137   4.692  0.4067 -1.5151 -0.6694
  244MOL0     O32853   7.319   9.913   4.823 -0.2275  1.2008  0.7831
  244MOL0     C32854   7.344   9.682   4.591  0.1800 -0.2301 -0.1925
  244MOL0     C32855   7.385   9.550   4.552 -0.2551  0.4736 -0.1082
  244MOL0     N32856   7.133   8.736   4.419 -1.1939 -0.1021 -0.4756
  244MOL0     N32857   7.041   8.661   4.354 -0.5351 -0.3467 -0.3248
  244MOL0     C32858   6.512   8.015   3.491 -0.3053  0.3589  0.4273
  244MOL0     C32859   6.545   7.945   3.370 -1.2109 -0.3337 -0.3125
  244MOL0     C32860   6.678   7.659   3.062 -0.8891  0.8513  0.1790
  244MOL0     C32861   6.805   7.617   3.076  0.3455  0.9655  0.7433
  244MOL0     C32862   6.864   7.540   2.968 -0.1625  0.7779  0.6441
  244MOL0     C32863   6.781   7.486   2.874 -0.3523  0.6120  0.4674
  244MOL0     O32864   6.827   7.373   2.811  0.2257 -0.4538 -0.3802
  244MOL0     C32865   6.895   7.396   2.689  0.0172  0.2468 -0.1031
  244MOL0     C32866   6.888   7.281   2.592  0.0016  0.3388 -0.4129
  244MOL0     C32867   6.981   7.155   2.632 -0.2644  0.2044  0.2416
  244MOL0     C32868   6.950   7.100   2.769 -0.1762 -0.7290 -0.2609
  244MOL0     C32869   7.025   6.986   2.812  0.4219  0.7593 -0.6245
  244MOL0     C32870   7.081   6.903   2.868 -0.5152  0.6023  0.1900
  244MOL0     C32871   6.654   7.528   2.863  0.5425 -0.4287 -0.0871
  244MOL0     C32872   6.598   7.612   2.954  0.1174 -0.8471  0.0715
  244MOL0     H32873   6.807   7.779   3.501  2.3345  1.5125 -1.5305
  244MOL0     H32874   6.762   7.935   3.688 -2.2241 -1.7731  2.3093
  244MOL0     H32875   6.486   8.261   3.644 -3.2483  4.5796  2.2967
  244MOL0     H32876   6.371   8.131   3.690 -1.1184  2.0080  0.8280
  244MOL0     H32877   6.360   8.310   3.858  1.7287  0.5107  2.9158
  244MOL0     H32878   6.399   8.148   3.911  0.0827 -0.8798 -2.3134
  244MOL0     H32879   6.624   8.204   3.943 -1.9619 -1.3539 -0.1710
  244MOL0     H32880   6.603   8.370   3.882  2.1534 -0.9671  0.0943
  244MOL0     H32881   6.441   8.429   4.051  1.1105  1.8301 -2.9775
  244MOL0     H32882   6.451   8.259   4.116  0.8196 -2.4878 -2.5283
  244MOL0     H32883   6.622   8.318   4.244  0.4996 -3.9015 -2.1523
  244MOL0     H32884   6.701   8.335   4.094 -0.2658  0.5064 -1.1377
  244MOL0     H32885   6.644   8.580   4.075  0.1781 -0.5854 -0.4200
  244MOL0     H32886   6.546   8.561   4.224 -1.4369  0.9358 -2.8386
  244MOL0     H32887   6.755   8.519   4.352 -1.5952  2.8722  1.1834
  244MOL0     H32888   6.847   8.500   4.195  0.1074  1.1807 -2.2755
  244MOL0     H32889   6.722   8.770   4.270 -0.6795 -0.1318  0.9141
  244MOL0     H32890   6.819   8.725   4.131  0.9832  1.1890  0.4355
  244MOL0     H32891   6.903   8.952   4.335  1.2206  0.8377  1.0810
  244MOL0     H32892   7.127   9.059   4.407  1.4394 -0.7278  0.7464
  244MOL0     H32893   7.071   9.016   4.569  0.6843  3.6116  0.0680
  244MOL0     H32894   7.344   8.910   4.482  1.5045 -0.1466  1.1727
  244MOL0     H32895   7.281   8.955   4.643 -2.3101 -0.2287  0.6693
  244MOL0     H32896   7.350   9.167   4.433  3.9078  2.8416  0.8471
  244MOL0     H32897   7.483   9.083   4.520 -0.3481 -0.3595  1.0869
  244MOL0     H32898   7.363   9.176   4.730  0.5791 -1.4226 -0.9579
  244MOL0     H32899   7.238   9.236   4.611 -0.7712 -1.3630  0.5839
  244MOL0     H32900   7.326   9.393   4.853  1.3471  1.2079  1.2944
  244MOL0     H32901   7.186   9.703   4.979 -0.6560 -1.3780  3.4914
  244MOL0     H32902   7.234   9.543   5.018 -1.5554  1.1393 -1.2872
  244MOL0     H32903   7.359   9.675   5.008  2.0195 -2.0859 -1.0982
  244MOL0     H32904   6.929   9.963   4.629 -2.8348  0.6008  3.1149
  244MOL0     H32905   6.822  10.166   4.644  0.7882  0.9545 -2.1649
  244MOL0     H32906   6.832  10.394   4.553 -0.5444 -0.4197  0.4432
  244MOL0     H32907   6.737  10.422   4.697 -0.7128 -2.6151 -3.1507
  244MOL0     H32908   6.878  10.640   4.742 -0.8805 -0.0657 -0.4355
  244MOL0     H32909   6.944  10.616   4.572 -0.6631  0.7399 -0.8851
  244MOL0     H32910   6.660  10.657   4.627 -0.8791  0.0138  0.5399
  244MOL0     H32911   6.749  10.682   4.478 -0.5891  0.6897 -0.4820
  244MOL0     H32912   6.791  10.867   4.717  1.3018 -0.2601  0.0731
  244MOL0     H32913   6.874  10.864   4.570  0.2144 -3.5971 -2.6074
  244MOL0     H32914   6.668  11.027   4.615 -1.2663  0.6872  0.1820
  244MOL0     H32915   6.550  10.902   4.572 -0.1151  2.2146  0.8352
  244MOL0     H32916   6.800  10.983   4.403 -0.4823  3.2867  0.3714
  244MOL0     H32917   6.691  10.860   4.364  0.2220  1.8682 -3.0064
  244MOL0     H32918   6.685  11.107   4.274  0.6059 -0.4060  1.0567
  244MOL0     H32919   6.590  11.153   4.413  0.2360  1.6474 -2.2150
  244MOL0     H32920   6.449  11.103   4.227  1.9929 -0.3371 -2.7395
  244MOL0     H32921   6.414  10.964   4.338  0.8954 -2.4495 -2.4236
  244MOL0     H32922   7.191  10.348   4.762 -1.0242  0.4119  1.8412
  244MOL0     H32923   7.303  10.128   4.699  1.0589  3.2616 -1.2008
  244MOL0     H32924   7.336   9.750   4.507 -0.5502 -0.7985 -0.5943
  244MOL0     H32925   7.436   9.530   4.458  2.7563 -0.6157  1.6505
  244MOL0     H32926   6.420   8.072   3.478 -0.0118  0.8067  0.2501
  244MOL0     H32927   6.464   7.945   3.298 -3.4966 -4.8357  1.8437
  244MOL0     H32928   6.863   7.643   3.165 -0.4990 -0.0209  1.5999
  244MOL0     H32929   6.965   7.501   2.967 -0.4090  0.1162  1.0193
  244MOL0     H32930   6.855   7.485   2.640 -0.6157  0.1423  0.2135
  244MOL0     H32931   6.994   7.425   2.723 -0.4627  0.8073  0.8688
  244MOL0     H32932   6.924   7.315   2.494  0.5282 -0.1233 -0.3863
  244MOL0     H32933   6.784   7.247   2.586  0.1540 -0.7812  2.2403
  244MOL0     H32934   7.083   7.195   2.643 -1.4406  3.2062  1.3513
  244MOL0     H32935   6.987   7.081   2.552  0.7810  1.9158 -1.3379
  244MOL0     H32936   6.845   7.074   2.781 -0.0469 -2.5188 -2.4775
  244MOL0     H32937   6.982   7.185   2.831  0.3299 -1.8406  1.0451
  244MOL0     H32938   7.141   6.830   2.919  1.7479  0.3666 -2.5437
  244MOL0     H32939   6.594   7.473   2.791 -1.2238  3.0253 -1.5146
  244MOL0     H32940   6.503   7.659   2.933 -0.0940  0.0612  2.7793
  245MOL0     O32941   3.903   1.557   5.446 -0.0058  0.6884 -0.6972
  245MOL0     C32942   4.011   1.607   5.415  0.9386  0.3233 -0.1350
  245MOL0     O32943   4.051   1.620   5.287 -0.0003 -0.1142 -0.3156
  245MOL0     C32944   3.958   1.608   5.186  0.5898 -0.0828 -0.6856
  245MOL0     C32945   3.847   1.521   5.181  0.5387  0.3571 -0.0663
  245MOL0     C32946   3.765   1.519   5.067 -0.9097 -0.1309 -0.6585
  245MOL0     C32947   3.802   1.592   4.952 -0.3777  1.5689 -0.1057
  245MOL0     O32948   3.734   1.581   4.832 -0.6804  0.9058 -0.7488
  245MOL0     C32949   3.651   1.463   4.802  0.0417 -0.0959 -0.5425
  245MOL0     C32950   3.615   1.487   4.658  0.8997 -0.3193 -0.4266
  245MOL0     C32951   3.531   1.378   4.591  0.0535 -0.1527  0.0723
  245MOL0     C32952   3.488   1.417   4.456 -0.3485  0.9193  1.0702
  245MOL0     C32953   3.446   1.301   4.365  0.6347  0.1883 -0.7000
  245MOL0     C32954   3.345   1.211   4.422  0.6223  0.4736 -0.6520
  245MOL0     C32955   3.296   1.083   4.338 -0.3946 -0.4339 -0.3982
  245MOL0     C32956   3.179   1.023   4.413 -0.3371  0.1732 -0.5304
  245MOL0     N32957   3.138   0.883   4.394  0.1499  0.4228 -0.4239
  245MOL0     C32958   3.017   0.850   4.339  0.0198  0.0350  0.2812
  245MOL0     C32959   3.017   0.715   4.358  0.2074 -1.0169 -0.1916
  245MOL0     C32960   2.914   0.619   4.291  0.0905  0.8947 -0.6254
  245MOL0     C32961   2.769   0.664   4.306  0.0525  0.0844 -0.3194
  245MOL0     C32962   2.673   0.548   4.339  0.0115 -0.3694  1.1479
  245MOL0     C32963   2.680   0.496   4.474 -0.3566 -0.9450  0.3667
  245MOL0     O32964   2.646   0.602   4.570  0.9840 -0.2670  0.3342
  245MOL0     C32965   2.609   0.579   4.700  0.0019 -0.4229 -0.4734
  245MOL0     C32966   2.621   0.459   4.764 -0.2210 -0.4516 -0.6394
  245MOL0     C32967   2.577   0.431   4.891  0.0811 -0.8309  0.0107
  245MOL0     C32968   2.613   0.293   4.943  0.3748  0.0543  0.2256
  245MOL0     C32969   2.513   0.539   4.965  1.2339  0.0205 -0.1085
  245MOL0     C32970   2.448   0.525   5.100  0.1487 -0.2063  0.5266
  245MOL0     O32971   2.364   0.616   5.146 -0.0806  0.3311 -0.5752
  245MOL0     C32972   2.279   0.594   5.253  0.5135  0.2579 -0.3367
  245MOL0     C32973   2.154   0.651   5.251  0.5701 -0.0733 -0.6869
  245MOL0     C32974   2.063   0.633   5.363 -1.3348 -0.1086 -0.1259
  245MOL0     C32975   2.098   0.571   5.482  0.0087  0.0277 -0.7994
  245MOL0     O32976   2.006   0.587   5.578  0.1637  0.1079  0.0149
  245MOL0     C32977   1.998   0.468   5.671  0.4447 -0.6164  0.5068
  245MOL0     C32978   1.901   0.481   5.789 -0.5585  0.1671  0.2700
  245MOL0     C32979   1.953   0.590   5.882  0.1105 -0.6066  0.1105
  245MOL0     C32980   1.836   0.655   5.958  0.0730  0.0574 -0.2429
  245MOL0     C32981   1.785   0.564   6.062  0.1744  0.4528 -0.5777
  245MOL0     C32982   1.718   0.638   6.177 -0.1078 -0.2858  0.5488
  245MOL0     C32983   1.642   0.768   6.162  0.2679  0.1244 -0.3747
  245MOL0     C32984   1.608   0.842   6.300  0.6321 -0.0789  0.2281
  245MOL0    Cl32985   1.536   0.729   6.433 -0.7862  0.2739  0.5494
  245MOL0     C32986   2.225   0.513   5.489 -0.0450  0.3425  0.2170
  245MOL0     C32987   2.312   0.524   5.374 -0.2090  0.2457 -0.8553
  245MOL0     O32988   2.463   0.413   5.150  0.5651  0.3674  1.0849
  245MOL0     C32989   2.522   0.661   4.904  0.0644 -0.2162 -0.6814
  245MOL0     C32990   2.557   0.680   4.772  0.7108  0.3414  0.3741
  245MOL0     N32991   3.130   0.674   4.428 -0.7948  0.3540  0.5900
  245MOL0     N32992   3.204   0.774   4.449 -0.8491 -0.1189 -0.3951
  245MOL0     C32993   3.916   1.669   4.957 -0.7083  0.0371 -0.2332
  245MOL0     C32994   3.994   1.677   5.074 -0.2705  0.7657  0.0035
  245MOL0     C32995   4.103   1.652   5.521 -0.0274 -0.7175  0.0838
  245MOL0     C32996   4.061   1.655   5.658  0.2795  1.1046 -0.3206
  245MOL0     C32997   4.148   1.709   5.755 -0.2853 -0.1728 -0.3304
  245MOL0     C32998   4.263   1.782   5.720 -1.0216 -0.5817 -0.6435
  245MOL0     O32999   4.349   1.844   5.808  0.4256 -0.6105  0.2027
  245MOL0     C33000   4.343   1.825   5.946  0.1838  0.6253  1.1220
  245MOL0     C33001   4.249   1.918   6.006 -0.9239  0.7768 -0.0867
  245MOL0     C33002   4.271   1.899   6.161  0.5613 -0.0137  0.1781
  245MOL0     C33003   4.154   1.950   6.235  0.3572  0.4794 -0.5666
  245MOL0     C33004   4.139   2.094   6.210 -0.4378 -0.8074  0.3496
  245MOL0     C33005   4.154   2.215   6.187  0.3662 -0.5173 -0.1923
  245MOL0     C33006   4.310   1.776   5.591 -0.1000  0.1094 -0.3182
  245MOL0     C33007   4.237   1.699   5.495  0.9322 -0.4994  0.5322
  245MOL0     H33008   3.822   1.456   5.264  0.5406  3.9568  3.0313
  245MOL0     H33009   3.698   1.434   5.068  0.7558 -1.5299  1.2817
  245MOL0     H33010   3.704   1.369   4.823 -1.6029 -0.8607  0.3675
  245MOL0     H33011   3.563   1.471   4.867  2.4787  1.3765  2.9120
  245MOL0     H33012   3.548   1.572   4.639 -1.6216 -2.6081 -2.5282
  245MOL0     H33013   3.708   1.498   4.603  0.9709  0.5166 -0.1595
  245MOL0     H33014   3.601   1.294   4.579  2.8346  1.8952  0.7783
  245MOL0     H33015   3.465   1.334   4.666  0.0070  0.6207  0.4949
  245MOL0     H33016   3.405   1.487   4.461 -0.7683  0.3353  2.6488
  245MOL0     H33017   3.573   1.455   4.397 -1.7870 -0.4888 -2.1574
  245MOL0     H33018   3.401   1.350   4.278  1.2809  0.8788 -0.6563
  245MOL0     H33019   3.533   1.240   4.340  1.8465  2.1515 -1.5280
  245MOL0     H33020   3.381   1.170   4.516 -0.3450  0.4119 -0.2914
  245MOL0     H33021   3.246   1.257   4.437 -0.5374 -1.4449 -1.9278
  245MOL0     H33022   3.266   1.111   4.237 -1.2777 -1.5472 -0.4684
  245MOL0     H33023   3.370   1.002   4.333 -0.3354 -0.3604 -0.7783
  245MOL0     H33024   3.101   1.091   4.376  1.0110  1.5292 -0.9880
  245MOL0     H33025   3.195   1.038   4.520  0.5881  2.4076 -0.9208
  245MOL0     H33026   2.944   0.914   4.292 -0.0884 -0.4670 -0.2437
  245MOL0     H33027   2.938   0.608   4.185 -2.7858 -1.6683 -1.1461
  245MOL0     H33028   2.949   0.524   4.332  3.4913  2.6310  0.8734
  245MOL0     H33029   2.736   0.706   4.210 -2.7578  2.0792  1.3891
  245MOL0     H33030   2.749   0.740   4.382 -2.7915  3.2924 -3.8637
  245MOL0     H33031   2.685   0.471   4.262  2.4402  0.9024  0.1541
  245MOL0     H33032   2.574   0.594   4.329 -0.7684 -2.4457 -3.3050
  245MOL0     H33033   2.782   0.460   4.490  2.3306  3.8387 -3.4342
  245MOL0     H33034   2.616   0.407   4.470 -1.8695  0.1452 -0.9980
  245MOL0     H33035   2.664   0.371   4.718 -0.2463 -1.3301  0.9386
  245MOL0     H33036   2.665   0.231   4.870  1.7950  1.4812 -0.0360
  245MOL0     H33037   2.668   0.306   5.038 -2.3647 -0.9877  2.0730
  245MOL0     H33038   2.523   0.242   4.975 -0.8038  3.0178  2.0952
  245MOL0     H33039   2.114   0.695   5.160 -1.6062 -0.7790 -0.1104
  245MOL0     H33040   1.965   0.679   5.357  0.0148  2.8600 -1.9203
  245MOL0     H33041   1.977   0.376   5.616  1.7246 -0.3455 -0.4844
  245MOL0     H33042   2.099   0.447   5.708  1.7508  1.6853 -1.4546
  245MOL0     H33043   1.805   0.499   5.738 -1.2746 -1.4407  0.9949
  245MOL0     H33044   1.913   0.387   5.843 -0.4850  1.5609  2.8094
  245MOL0     H33045   2.021   0.654   5.825  1.0254 -1.1886  0.5258
  245MOL0     H33046   2.023   0.544   5.953 -0.5080 -0.8378  0.5839
  245MOL0     H33047   1.876   0.742   6.011  1.9501  0.2376 -1.8713
  245MOL0     H33048   1.757   0.688   5.889 -0.2008 -2.4283 -1.2088
  245MOL0     H33049   1.867   0.510   6.112 -0.2892 -1.0510 -1.3649
  245MOL0     H33050   1.720   0.491   6.012  1.7004  0.0440 -2.0777
  245MOL0     H33051   1.647   0.568   6.221 -1.0839 -0.5058 -1.2610
  245MOL0     H33052   1.800   0.661   6.245  2.7304 -2.4150 -1.8645
  245MOL0     H33053   1.550   0.760   6.104 -1.7017  2.8923  2.0347
  245MOL0     H33054   1.695   0.848   6.109 -1.8360  2.5139  0.9339
  245MOL0     H33055   1.544   0.928   6.280  0.2940 -0.2493  0.5652
  245MOL0     H33056   1.701   0.883   6.342  0.4692 -0.1267  0.6338
  245MOL0     H33057   2.267   0.474   5.581 -1.6370 -4.2466 -0.7533
  245MOL0     H33058   2.407   0.472   5.372 -0.8730 -1.0587  0.2504
  245MOL0     H33059   2.478   0.743   4.961  1.8064  0.6459 -0.5016
  245MOL0     H33060   2.544   0.782   4.737  2.0925 -0.2342 -2.0361
  245MOL0     H33061   3.953   1.720   4.869 -1.2858 -0.3662 -0.7278
  245MOL0     H33062   4.087   1.731   5.057 -3.1782  6.4300 -0.1741
  245MOL0     H33063   3.964   1.627   5.698 -0.1668  0.6103 -1.6921
  245MOL0     H33064   4.124   1.689   5.859  3.6538 -2.8367  0.3007
  245MOL0     H33065   4.316   1.722   5.970 -0.6910  0.6224  0.2283
  245MOL0     H33066   4.443   1.837   5.988 -0.2675  2.1820  1.8421
  245MOL0     H33067   4.147   1.904   5.970 -1.4729  2.0649  0.8863
  245MOL0     H33068   4.281   2.016   5.970 -1.6361  1.5420  1.2755
  245MOL0     H33069   4.371   1.936   6.185  0.2978  1.1659 -0.4406
  245MOL0     H33070   4.285   1.797   6.197  2.5605  0.6874  1.5824
  245MOL0     H33071   4.173   1.941   6.342  1.2931 -0.1742 -0.7720
  245MOL0     H33072   4.061   1.897   6.213  0.1312 -1.1337  3.5011
  245MOL0     H33073   4.161   2.321   6.171  1.2238 -0.4974  0.2751
  245MOL0     H33074   4.402   1.822   5.558  0.5167  0.5297  1.8782
  245MOL0     H33075   4.275   1.707   5.393  0.7804 -0.3723  0.4869
  246MOL0     O33076   3.105   1.007   3.752  0.2722 -0.2034 -0.8572
  246MOL0     C33077   3.069   1.037   3.863 -0.2740 -0.5663  0.8064
  246MOL0     O33078   2.943   0.997   3.916 -0.1256  0.0909  0.2117
  246MOL0     C33079   2.859   0.906   3.854  0.5411 -0.4367 -1.0914
  246MOL0     C33080   2.877   0.825   3.739 -0.2804  0.4918 -0.4321
  246MOL0     C33081   2.771   0.749   3.683  0.0319 -0.2264  0.5187
  246MOL0     C33082   2.648   0.746   3.752  0.5345 -0.4042  0.5416
  246MOL0     O33083   2.543   0.669   3.706 -0.2346 -0.0628  0.7912
  246MOL0     C33084   2.548   0.607   3.577 -0.5197  0.1745 -0.8995
  246MOL0     C33085   2.410   0.542   3.557  0.5351 -0.3934 -0.0451
  246MOL0     C33086   2.372   0.440   3.671 -0.0822  0.1932 -0.9899
  246MOL0     C33087   2.227   0.382   3.664 -0.2395 -0.0443  0.3395
  246MOL0     C33088   2.217   0.269   3.557 -0.7653  0.0161  0.0427
  246MOL0     C33089   2.099   0.174   3.570 -1.1406  0.9580 -0.3391
  246MOL0     C33090   1.965   0.247   3.563  0.6036  0.0795  0.2339
  246MOL0     C33091   1.844   0.137   3.564  0.7824  0.8788 -0.7454
  246MOL0     N33092   1.812   0.100   3.704  0.0544 -0.2092  0.6060
  246MOL0     C33093   1.853  -0.007   3.777  0.7295 -0.5217  0.9739
  246MOL0     C33094   1.779  -0.003   3.887  0.0765 -0.7450  0.2380
  246MOL0     C33095   1.800  -0.093   4.000 -0.6257  0.9608 -0.1548
  246MOL0     C33096   1.671  -0.184   4.004  0.5401  0.2614  0.9443
  246MOL0     C33097   1.677  -0.284   4.118  0.3944  1.3110  0.6054
  246MOL0     C33098   1.568  -0.385   4.119  0.1871 -1.0069  0.0587
  246MOL0     O33099   1.497  -0.391   4.246 -0.3641  0.2123  1.0812
  246MOL0     C33100   1.431  -0.506   4.270  0.1084  0.0774 -0.2383
  246MOL0     C33101   1.417  -0.546   4.403 -0.4964  0.4106 -0.2063
  246MOL0     C33102   1.372  -0.675   4.433 -0.1895  1.5738  0.4178
  246MOL0     C33103   1.382  -0.730   4.576  0.0039  0.9237  0.9552
  246MOL0     C33104   1.309  -0.752   4.326 -0.2146  0.7301 -0.3098
  246MOL0     C33105   1.245  -0.890   4.340 -0.5995  0.2319  0.5516
  246MOL0     O33106   1.234  -0.963   4.219  0.1929 -0.5048  0.1109
  246MOL0     C33107   1.167  -1.076   4.230  0.8468  0.1263  0.7224
  246MOL0     C33108   1.213  -1.178   4.312  0.0980  0.9342  0.4621
  246MOL0     C33109   1.164  -1.309   4.305  0.6141 -0.3206 -0.4294
  246MOL0     C33110   1.061  -1.343   4.217 -0.2011  0.2633  0.2114
  246MOL0     O33111   1.003  -1.463   4.204  0.0725  0.0012  0.2444
  246MOL0     C33112   1.026  -1.555   4.306  0.2130  0.0892  1.3470
  246MOL0     C33113   0.905  -1.649   4.288  1.1426 -0.4338 -1.8125
  246MOL0     C33114   0.774  -1.572   4.343  0.2117  0.1968 -0.3665
  246MOL0     C33115   0.653  -1.667   4.351 -0.5532  0.9731  0.3843
  246MOL0     C33116   0.535  -1.580   4.394  0.6347 -1.6002  0.0483
  246MOL0     C33117   0.400  -1.653   4.386  1.0882  0.4573 -1.2331
  246MOL0     C33118   0.277  -1.559   4.389  0.7593 -0.4582 -0.6132
  246MOL0     C33119   0.265  -1.483   4.528 -0.0061  0.6557 -0.5728
  246MOL0    Cl33120   0.238  -1.608   4.653  0.1687 -0.4132 -0.2759
  246MOL0     C33121   1.017  -1.240   4.129  0.3167  0.2758 -0.1743
  246MOL0     C33122   1.079  -1.116   4.118 -0.0162 -0.6330 -1.3331
  246MOL0     O33123   1.208  -0.929   4.449 -0.4282  1.3849 -0.5267
  246MOL0     C33124   1.324  -0.712   4.195  0.2384  0.1141 -0.5335
  246MOL0     C33125   1.381  -0.594   4.167  0.4775 -0.0085  0.6418
  246MOL0     N33126   1.680   0.096   3.874 -0.6573  0.0830 -0.1303
  246MOL0     N33127   1.703   0.156   3.763  0.3797 -0.7578  0.3714
  246MOL0     C33128   2.633   0.818   3.875 -0.0456  0.2127 -1.0881
  246MOL0     C33129   2.741   0.887   3.924  0.3308  0.5356 -0.8049
  246MOL0     C33130   3.125   1.164   3.920  0.3492  0.6337 -0.8361
  246MOL0     C33131   3.259   1.201   3.888 -0.4653  0.9171 -1.1658
  246MOL0     C33132   3.304   1.315   3.953  0.3309 -0.3489  0.0966
  246MOL0     C33133   3.238   1.375   4.053  0.5383 -0.0950 -0.2870
  246MOL0     O33134   3.294   1.491   4.093  0.2085 -0.4743 -0.2321
  246MOL0     C33135   3.217   1.576   4.186 -0.0384 -0.0366  0.7905
  246MOL0     C33136   3.312   1.688   4.228 -0.9119  0.6753  0.1027
  246MOL0     C33137   3.293   1.818   4.149 -0.2452  0.3201 -0.6187
  246MOL0     C33138   3.316   1.795   3.997 -0.9005 -0.1515  0.1975
  246MOL0     C33139   3.281   1.926   3.928 -0.2155 -0.2627  0.8744
  246MOL0     C33140   3.257   2.033   3.866  0.2191  0.1607 -0.0022
  246MOL0     C33141   3.112   1.332   4.098  0.2042  1.0469 -0.4384
  246MOL0     C33142   3.059   1.221   4.029  0.2239  0.0244  1.2913
  246MOL0     H33143   2.977   0.835   3.699  0.5040  0.6489  1.4484
  246MOL0     H33144   2.774   0.701   3.586 -2.4830  2.8697 -1.3018
  246MOL0     H33145   2.558   0.672   3.490 -2.7751 -0.9290 -2.0759
  246MOL0     H33146   2.619   0.524   3.585 -0.8956  0.0296  2.2360
  246MOL0     H33147   2.335   0.622   3.554  1.2351  0.2787 -3.1222
  246MOL0     H33148   2.409   0.481   3.466 -0.8219 -1.4148  0.6215
  246MOL0     H33149   2.437   0.352   3.667 -1.9552 -1.3206  0.4516
  246MOL0     H33150   2.399   0.484   3.768  3.4734 -1.7952 -0.8820
  246MOL0     H33151   2.212   0.343   3.766  1.5467  0.4249  0.8113
  246MOL0     H33152   2.148   0.457   3.646  0.1989  0.2838 -0.2372
  246MOL0     H33153   2.213   0.310   3.456  0.1733 -2.6519 -1.1571
  246MOL0     H33154   2.308   0.209   3.557  0.6434  2.0369 -1.0922
  246MOL0     H33155   2.111   0.109   3.483  0.5326 -0.0962  0.6239
  246MOL0     H33156   2.104   0.115   3.662  0.3971  0.1992 -0.8681
  246MOL0     H33157   1.966   0.325   3.640  0.2988  1.5376 -1.1910
  246MOL0     H33158   1.952   0.293   3.465  2.4684 -1.1939 -0.6569
  246MOL0     H33159   1.872   0.045   3.514 -0.6498 -2.5345  3.9622
  246MOL0     H33160   1.759   0.171   3.504  1.2717 -1.2461 -2.7406
  246MOL0     H33161   1.930  -0.081   3.754  0.1822 -1.0693  0.8916
  246MOL0     H33162   1.887  -0.156   3.981 -2.1931 -0.9187 -1.5041
  246MOL0     H33163   1.830  -0.042   4.092  1.1155 -0.3097  0.0315
  246MOL0     H33164   1.665  -0.248   3.916 -0.4483  0.2960  0.9729
  246MOL0     H33165   1.595  -0.109   4.029  1.4793  0.9887  1.6851
  246MOL0     H33166   1.680  -0.233   4.215 -3.4943  0.2629  1.4466
  246MOL0     H33167   1.773  -0.336   4.110  0.1308  0.5474  2.1643
  246MOL0     H33168   1.617  -0.480   4.096 -0.4690 -3.2052  6.0113
  246MOL0     H33169   1.502  -0.361   4.035 -0.1340  1.8208  1.0187
  246MOL0     H33170   1.431  -0.478   4.486  1.2571 -0.3782  0.1974
  246MOL0     H33171   1.283  -0.754   4.616  0.0612 -1.3741 -0.1501
  246MOL0     H33172   1.435  -0.825   4.583 -1.0626  0.4316  3.8225
  246MOL0     H33173   1.430  -0.661   4.646 -0.9264 -0.6523  3.2891
  246MOL0     H33174   1.286  -1.156   4.389  2.2809 -2.3292 -0.4661
  246MOL0     H33175   1.196  -1.379   4.382 -0.9495  0.7469  1.2902
  246MOL0     H33176   1.118  -1.613   4.290  0.2359  0.8639 -2.5108
  246MOL0     H33177   1.014  -1.513   4.406  0.5134  1.5437  0.8028
  246MOL0     H33178   0.894  -1.675   4.183  0.0993 -0.9617 -1.5838
  246MOL0     H33179   0.923  -1.739   4.349  0.9063  1.7530  1.7877
  246MOL0     H33180   0.760  -1.491   4.271 -2.6028 -0.2749 -0.4649
  246MOL0     H33181   0.789  -1.527   4.441  0.7202  1.9304 -1.2114
  246MOL0     H33182   0.639  -1.716   4.255  2.9445 -1.5589  0.9445
  246MOL0     H33183   0.673  -1.753   4.415 -1.2384 -1.4026 -2.4098
  246MOL0     H33184   0.530  -1.489   4.332 -4.7836  0.2763  2.6215
  246MOL0     H33185   0.545  -1.546   4.497 -1.2906  0.3963 -0.3563
  246MOL0     H33186   0.371  -1.703   4.294  1.9514 -0.1997 -1.1590
  246MOL0     H33187   0.407  -1.728   4.465  5.4897 -0.6282 -2.3953
  246MOL0     H33188   0.178  -1.605   4.386 -0.1839  1.1496  2.3573
  246MOL0     H33189   0.281  -1.491   4.303  0.7111 -1.2685 -1.2767
  246MOL0     H33190   0.178  -1.418   4.537 -1.7457 -1.8136  2.9179
  246MOL0     H33191   0.354  -1.421   4.538  1.1596 -1.0415  0.1088
  246MOL0     H33192   0.936  -1.257   4.060  0.9073  0.5369 -0.9517
  246MOL0     H33193   1.033  -1.033   4.065 -0.1575  1.4675  1.7926
  246MOL0     H33194   1.284  -0.765   4.109 -1.7878  1.4234 -0.4692
  246MOL0     H33195   1.398  -0.570   4.062 -2.5242 -1.2903 -0.2485
  246MOL0     H33196   2.550   0.808   3.944  0.3187 -0.4918 -0.7251
  246MOL0     H33197   2.733   0.940   4.018  1.0479  3.0943 -2.0772
  246MOL0     H33198   3.318   1.157   3.808 -1.9591 -1.7126 -0.9378
  246MOL0     H33199   3.401   1.359   3.936  0.8676  1.6075  5.9416
  246MOL0     H33200   3.133   1.618   4.129  0.9656  2.2816  0.8895
  246MOL0     H33201   3.170   1.529   4.273 -0.8310  0.2041  0.5022
  246MOL0     H33202   3.416   1.660   4.210  0.2751  3.1393  2.3611
  246MOL0     H33203   3.318   1.716   4.334  1.0047  0.9022 -0.0325
  246MOL0     H33204   3.357   1.895   4.193  0.3765  0.2860 -1.4602
  246MOL0     H33205   3.191   1.857   4.162 -0.4486  0.1799 -1.7061
  246MOL0     H33206   3.262   1.709   3.957  0.7384 -1.7646  1.2692
  246MOL0     H33207   3.422   1.783   3.971 -1.3343 -1.5440 -1.1015
  246MOL0     H33208   3.245   2.128   3.818 -3.1306  0.7279  1.6666
  246MOL0     H33209   3.061   1.382   4.180 -0.1343  0.4478 -0.2759
  246MOL0     H33210   2.962   1.179   4.055  0.1073  0.2053  1.1554
  247MOL0     O33211   9.851   4.445  11.248 -0.6991 -0.0724  0.5079
  247MOL0     C33212   9.947   4.414  11.174  0.0818 -0.0322 -0.8482
  247MOL0     O33213  10.076   4.451  11.186  0.2536 -0.7744  0.2382
  247MOL0     C33214  10.110   4.546  11.277 -0.6115  1.0900 -0.4355
  247MOL0     C33215  10.036   4.666  11.292  0.8498  0.2222 -0.2743
  247MOL0     C33216  10.068   4.778  11.373 -0.1402 -0.6309 -0.3662
  247MOL0     C33217  10.185   4.773  11.449  0.2269  1.1201  1.1984
  247MOL0     O33218  10.223   4.884  11.515  0.1858  0.0761 -0.0163
  247MOL0     C33219  10.352   4.884  11.580 -0.7236  0.3022  1.0508
  247MOL0     C33220  10.361   5.019  11.667  0.6031 -0.0653  0.0700
  247MOL0     C33221  10.293   5.009  11.802  1.4056 -0.3201  1.0525
  247MOL0     C33222  10.294   5.133  11.891  0.1563  0.4541  1.0039
  247MOL0     C33223  10.244   5.096  12.036  0.0776 -0.0535 -0.2355
  247MOL0     C33224  10.249   5.220  12.127 -0.9367 -0.2632  0.2682
  247MOL0     C33225  10.249   5.210  12.281  0.2929  0.2886  0.5376
  247MOL0     C33226  10.111   5.156  12.328  0.1284 -0.0155 -0.7405
  247MOL0     N33227  10.130   5.075  12.450  0.6500  0.7528 -0.1781
  247MOL0     C33228  10.077   5.100  12.574 -0.4286 -0.8056 -0.3511
  247MOL0     C33229  10.130   5.003  12.649 -0.0455 -0.6829 -0.0315
  247MOL0     C33230  10.115   4.981  12.794 -0.5670  0.3119  0.0816
  247MOL0     C33231   9.995   5.062  12.840  0.1969 -0.1185 -0.7702
  247MOL0     C33232  10.028   5.199  12.891 -0.3347 -0.7770  0.0472
  247MOL0     C33233   9.917   5.288  12.950 -0.5348  0.5395 -0.4396
  247MOL0     O33234   9.869   5.394  12.862  0.2590 -0.4134  1.6753
  247MOL0     C33235   9.957   5.482  12.799 -0.1176  0.2323 -0.7592
  247MOL0     C33236   9.965   5.476  12.662 -0.4313 -0.5208  0.9056
  247MOL0     C33237  10.070   5.549  12.603 -1.0575  0.5412  1.2134
  247MOL0     C33238  10.099   5.523  12.459  0.0946 -0.3413  0.0236
  247MOL0     C33239  10.144   5.659  12.670  0.0093  0.2854 -0.2391
  247MOL0     C33240  10.238   5.761  12.604 -0.1189  0.3721  1.3374
  247MOL0     O33241  10.282   5.861  12.692  1.1083  0.5304 -0.0454
  247MOL0     C33242  10.368   5.958  12.661  0.3743 -0.6921 -0.4303
  247MOL0     C33243  10.472   5.940  12.568  0.5755 -0.3331 -1.0295
  247MOL0     C33244  10.583   6.026  12.572  0.3942  1.1694 -0.3781
  247MOL0     C33245  10.602   6.120  12.679  0.8308  1.0520  0.4588
  247MOL0     O33246  10.705   6.209  12.712  0.1333 -0.4695 -0.0615
  247MOL0     C33247  10.825   6.194  12.637 -0.2246  0.3529 -0.0325
  247MOL0     C33248  10.912   6.085  12.700  0.5801  0.4123  0.4857
  247MOL0     C33249  11.041   6.049  12.615 -0.0531 -0.5912  0.0763
  247MOL0     C33250  11.143   5.966  12.681  0.0948  0.3417 -0.3982
  247MOL0     C33251  11.250   5.907  12.574  0.4082 -0.1458 -0.4601
  247MOL0     C33252  11.364   5.821  12.647 -0.3423 -1.1012  0.4695
  247MOL0     C33253  11.496   5.812  12.575  0.3401 -0.1778  0.1535
  247MOL0     C33254  11.588   5.707  12.650 -0.6102  0.3272  0.3368
  247MOL0    Cl33255  11.728   5.671  12.538  0.4762 -0.3715 -0.1491
  247MOL0     C33256  10.484   6.147  12.753 -0.2237  0.6182 -0.4197
  247MOL0     C33257  10.376   6.071  12.754  0.2408 -0.1839 -0.0038
  247MOL0     O33258  10.268   5.749  12.485 -0.7158  0.0257 -0.2643
  247MOL0     C33259  10.125   5.647  12.810 -0.8715 -1.0798 -0.1909
  247MOL0     C33260  10.044   5.553  12.877 -0.5330  0.3689 -0.3552
  247MOL0     N33261  10.207   4.920  12.573 -0.5710 -0.1907  0.8309
  247MOL0     N33262  10.204   4.964  12.453  0.2889 -1.3356  0.2319
  247MOL0     C33263  10.265   4.660  11.423 -0.5789  0.8378 -0.7442
  247MOL0     C33264  10.232   4.548  11.346 -0.0422  0.4632  0.8606
  247MOL0     C33265   9.917   4.321  11.054  0.1733 -1.3948  0.5601
  247MOL0     C33266  10.011   4.301  10.951 -0.0465  0.9720  0.2539
  247MOL0     C33267   9.981   4.241  10.836 -0.4443  0.6072 -1.3575
  247MOL0     C33268   9.857   4.180  10.811  0.1374 -0.9438  0.8924
  247MOL0     O33269   9.807   4.129  10.687 -0.0066 -0.4098  0.6552
  247MOL0     C33270   9.907   4.115  10.590 -1.0927  0.8873 -0.4138
  247MOL0     C33271   9.825   4.087  10.464 -1.3815 -0.1765  0.0452
  247MOL0     C33272   9.750   3.949  10.464 -0.8960 -0.8133  0.6937
  247MOL0     C33273   9.636   3.934  10.358  0.1794 -0.2088 -0.5193
  247MOL0     C33274   9.677   3.950  10.219  0.8056 -0.1915  0.0261
  247MOL0     C33275   9.705   3.982  10.106 -0.6984 -0.4186 -0.0293
  247MOL0     C33276   9.761   4.179  10.924  0.4312 -0.1639 -0.6444
  247MOL0     C33277   9.791   4.257  11.036  0.2082  0.2901  0.0903
  247MOL0     H33278   9.942   4.669  11.237 -0.0296 -1.6180  1.0257
  247MOL0     H33279  10.003   4.865  11.383  0.5818 -0.2375  1.1917
  247MOL0     H33280  10.355   4.796  11.644 -0.2012  1.6561  2.9871
  247MOL0     H33281  10.434   4.881  11.508 -1.1857 -0.8794  0.5456
  247MOL0     H33282  10.467   5.046  11.672  0.3941  1.4130 -2.0697
  247MOL0     H33283  10.310   5.101  11.617 -0.1191 -0.6318 -0.1497
  247MOL0     H33284  10.191   4.970  11.796  2.1800 -2.3151 -0.2052
  247MOL0     H33285  10.340   4.922  11.850 -0.7226 -3.3542 -1.8964
  247MOL0     H33286  10.394   5.176  11.901  0.1769  0.2076  1.8758
  247MOL0     H33287  10.234   5.208  11.837 -0.2706 -1.5593 -1.5618
  247MOL0     H33288  10.139   5.065  12.032 -1.2133  3.9226 -1.5649
  247MOL0     H33289  10.316   5.024  12.076  0.0097  0.5772  1.0889
  247MOL0     H33290  10.348   5.261  12.105 -0.9028 -0.0791  0.7610
  247MOL0     H33291  10.183   5.298  12.090  0.5576  1.3079  0.7902
  247MOL0     H33292  10.335   5.150  12.312  0.1879  0.1784  0.6240
  247MOL0     H33293  10.271   5.307  12.325 -2.3939  0.2450  2.2728
  247MOL0     H33294  10.078   5.088  12.250  0.2551 -0.7048 -0.2021
  247MOL0     H33295  10.047   5.243  12.346  0.4844  0.3421 -1.2040
  247MOL0     H33296  10.003   5.180  12.578  1.4954  1.0424  0.0102
  247MOL0     H33297  10.100   4.874  12.813  1.6285  0.3257  2.2684
  247MOL0     H33298  10.209   5.017  12.836  0.4859 -1.8344 -0.2866
  247MOL0     H33299   9.955   5.006  12.926  0.9235  1.6263  0.7831
  247MOL0     H33300   9.909   5.064  12.772 -1.8599 -0.4692  1.6208
  247MOL0     H33301  10.084   5.259  12.818 -2.1446  0.9606 -0.0171
  247MOL0     H33302  10.093   5.188  12.979 -0.2501 -1.6923 -0.1246
  247MOL0     H33303   9.948   5.346  13.037 -1.1226  0.5896 -0.2589
  247MOL0     H33304   9.846   5.210  12.979  2.6754 -1.5034  2.7581
  247MOL0     H33305   9.905   5.418  12.592  1.7401 -0.6029 -1.0460
  247MOL0     H33306  10.066   5.608  12.400 -1.6018 -1.0571 -0.1316
  247MOL0     H33307  10.207   5.507  12.460  0.1066 -0.2957  1.2570
  247MOL0     H33308  10.053   5.436  12.411  0.4985 -0.2308 -0.5722
  247MOL0     H33309  10.469   5.864  12.491 -0.1973  2.1740 -3.6217
  247MOL0     H33310  10.663   6.001  12.503 -2.7140 -3.2503 -2.9724
  247MOL0     H33311  10.805   6.164  12.534 -0.4403 -2.2932  0.7056
  247MOL0     H33312  10.889   6.283  12.637  1.3000 -0.6870 -0.8324
  247MOL0     H33313  10.956   6.108  12.798  4.2023 -2.0717 -0.3454
  247MOL0     H33314  10.852   5.995  12.716  2.9067 -1.3446 -0.0033
  247MOL0     H33315  11.098   6.141  12.601  0.8973 -1.2929 -0.7703
  247MOL0     H33316  11.012   5.998  12.523  1.1159 -0.9077 -0.1309
  247MOL0     H33317  11.194   6.019  12.762  0.9336 -2.2417  0.8814
  247MOL0     H33318  11.095   5.876  12.720  1.4844 -0.5589 -0.6908
  247MOL0     H33319  11.289   5.999  12.529 -2.7240  3.0837  2.8005
  247MOL0     H33320  11.206   5.840  12.500 -0.7902 -1.0345  0.9883
  247MOL0     H33321  11.381   5.862  12.747 -2.1818  0.9396  0.0381
  247MOL0     H33322  11.327   5.720  12.664 -2.9369 -0.0273  1.8592
  247MOL0     H33323  11.548   5.908  12.579  2.0578 -1.0726  3.1368
  247MOL0     H33324  11.486   5.773  12.473  0.2275  0.2858 -0.0126
  247MOL0     H33325  11.539   5.609  12.659  1.5392 -0.7980  0.2745
  247MOL0     H33326  11.632   5.737  12.745 -1.2152  2.1601  0.0798
  247MOL0     H33327  10.499   6.215  12.836  4.4841 -2.0234  1.2622
  247MOL0     H33328  10.302   6.083  12.833  1.5988  0.6465  1.1954
  247MOL0     H33329  10.185   5.711  12.874  0.6826 -2.6003 -0.0660
  247MOL0     H33330  10.035   5.549  12.985  0.1997  1.2797 -0.2382
  247MOL0     H33331  10.369   4.668  11.452 -0.6491 -1.6054  0.4173
  247MOL0     H33332  10.301   4.466  11.334 -0.2121  0.7657 -4.2328
  247MOL0     H33333  10.111   4.340  10.934  0.2384 -0.9086 -3.4546
  247MOL0     H33334  10.057   4.231  10.760 -2.2303 -0.9194 -3.0469
  247MOL0     H33335   9.967   4.205  10.574 -0.7881  0.5434 -1.2559
  247MOL0     H33336   9.965   4.024  10.610 -2.1541  0.0573 -0.9952
  247MOL0     H33337   9.887   4.089  10.374  1.9777  0.1480  2.1905
  247MOL0     H33338   9.741   4.156  10.454  0.3610  2.3520  1.4235
  247MOL0     H33339   9.703   3.938  10.563 -1.0714  3.4345  1.3019
  247MOL0     H33340   9.820   3.871  10.436  3.3107  3.3768 -2.0502
  247MOL0     H33341   9.553   4.005  10.372  2.2298  1.8093  3.0081
  247MOL0     H33342   9.598   3.832  10.373 -1.6186  0.5397  0.4388
  247MOL0     H33343   9.710   4.000  10.000  1.8948  0.8358  0.2328
  247MOL0     H33344   9.664   4.131  10.924 -0.1029  0.8696  0.1019
  247MOL0     H33345   9.712   4.283  11.106  0.4212  2.1017 -0.2720
  248MOL0     O33346   3.132   8.918   0.462 -0.1205 -0.3650  0.7681
  248MOL0     C33347   3.171   8.810   0.419  0.8989 -0.3246  0.3996
  248MOL0     O33348   3.287   8.787   0.362 -0.2958  0.0813  1.1542
  248MOL0     C33349   3.369   8.890   0.331 -0.4875  0.0105 -1.2538
  248MOL0     C33350   3.501   8.850   0.297 -0.5555 -0.3256 -0.6774
  248MOL0     C33351   3.599   8.948   0.247  1.2276  0.4848 -0.6052
  248MOL0     C33352   3.564   9.080   0.235 -0.0107  0.3941 -0.7783
  248MOL0     O33353   3.650   9.178   0.195  0.4912 -0.2985  0.4564
  248MOL0     C33354   3.792   9.159   0.216  1.6103  0.6525 -0.3298
  248MOL0     C33355   3.880   9.286   0.218  1.2337 -0.0660  0.5708
  248MOL0     C33356   3.847   9.368   0.097 -0.4653 -0.8976  1.1741
  248MOL0     C33357   3.955   9.483   0.085  0.1952 -0.3007  0.0551
  248MOL0     C33358   3.939   9.547  -0.059  0.2029 -0.1412 -0.2048
  248MOL0     C33359   4.070   9.620  -0.105 -0.1628  0.9577  0.4635
  248MOL0     C33360   4.105   9.724  -0.001 -0.0417  0.3267 -0.2721
  248MOL0     C33361   4.189   9.830  -0.057 -0.1987  0.4065 -0.5127
  248MOL0     N33362   4.240   9.909   0.060  0.1462 -0.4881 -0.3626
  248MOL0     C33363   4.175  10.019   0.120 -0.0517 -1.3297  0.6432
  248MOL0     C33364   4.267  10.072   0.211  0.6052  0.3384 -0.1503
  248MOL0     C33365   4.250  10.192   0.295 -0.3385  0.8939  0.2879
  248MOL0     C33366   4.205  10.131   0.423  0.1575  0.1344  0.1013
  248MOL0     C33367   4.238  10.216   0.541  0.3549  0.0292 -0.9482
  248MOL0     C33368   4.132  10.326   0.561 -0.5659 -1.0303  0.1399
  248MOL0     O33369   4.158  10.408   0.678  0.2749 -0.2212 -0.2813
  248MOL0     C33370   4.126  10.538   0.679 -0.0262 -0.0779  0.6667
  248MOL0     C33371   4.070  10.621   0.572 -0.2572 -0.5186 -0.2796
  248MOL0     C33372   4.028  10.749   0.588  0.1832 -0.2084 -0.5596
  248MOL0     C33373   3.947  10.807   0.483  0.5547 -0.2618 -0.1069
  248MOL0     C33374   4.048  10.814   0.719  0.8394 -0.0305  0.2606
  248MOL0     C33375   4.004  10.949   0.747 -0.9545  1.3840  0.5894
  248MOL0     O33376   3.958  10.962   0.869  0.2020  0.0558 -0.0002
  248MOL0     C33377   3.935  11.094   0.916 -0.3300  0.4553  0.5505
  248MOL0     C33378   3.969  11.113   1.049  0.4061 -0.6483 -0.0565
  248MOL0     C33379   3.944  11.236   1.118 -0.4805 -0.9591 -0.1149
  248MOL0     C33380   3.896  11.344   1.041 -0.5510  0.8128  0.1007
  248MOL0     O33381   3.908  11.464   1.099 -0.5172 -0.2178  0.1805
  248MOL0     C33382   3.796  11.547   1.107 -0.3347 -1.0543 -0.1046
  248MOL0     C33383   3.838  11.688   1.136 -0.3044 -0.1382 -0.0280
  248MOL0     C33384   3.720  11.762   1.196 -0.1649  0.7180 -1.0058
  248MOL0     C33385   3.772  11.912   1.230 -0.4732  0.1194  1.4533
  248MOL0     C33386   3.656  12.000   1.300 -0.5706  1.1582 -0.4138
  248MOL0     C33387   3.645  11.947   1.442  1.0036 -0.5121 -0.0884
  248MOL0     C33388   3.584  12.051   1.535  0.7734  0.2207  0.0388
  248MOL0     C33389   3.598  12.002   1.676 -1.0413  0.2598  0.6913
  248MOL0    Cl33390   3.750  12.066   1.753 -0.0149  0.1336  0.1639
  248MOL0     C33391   3.845  11.315   0.917  0.2390 -0.1831  0.8730
  248MOL0     C33392   3.860  11.188   0.854  0.6041  0.2606 -1.0599
  248MOL0     O33393   4.033  11.034   0.667  0.7791 -0.4063 -0.1221
  248MOL0     C33394   4.094  10.723   0.822  0.2742 -0.0201 -0.7679
  248MOL0     C33395   4.142  10.591   0.806  0.3709 -0.0872  0.5520
  248MOL0     N33396   4.374   9.975   0.208 -0.3297  0.2141 -0.4347
  248MOL0     N33397   4.347   9.873   0.132  0.6223  0.5687 -0.2455
  248MOL0     C33398   3.428   9.122   0.272 -1.3300 -0.5210  0.2310
  248MOL0     C33399   3.334   9.022   0.309  0.4325  1.1771  1.0066
  248MOL0     C33400   3.079   8.694   0.443  0.1871 -0.0423 -0.7143
  248MOL0     C33401   2.979   8.693   0.546 -0.1773 -0.5414  0.6729
  248MOL0     C33402   2.888   8.595   0.559 -0.2040  0.1358  1.0269
  248MOL0     C33403   2.884   8.488   0.463  0.5508 -0.7512 -0.3062
  248MOL0     O33404   2.805   8.381   0.477  0.8579 -0.2454 -0.9408
  248MOL0     C33405   2.869   8.273   0.550  0.5861  0.5343  0.4053
  248MOL0     C33406   2.863   8.145   0.460  0.7935 -0.0917 -0.3617
  248MOL0     C33407   2.778   8.032   0.512  0.1563  0.4454 -0.1995
  248MOL0     C33408   2.842   7.961   0.638 -1.5424 -0.7694 -0.6273
  248MOL0     C33409   2.762   7.850   0.672 -0.1648  0.1379  0.8100
  248MOL0     C33410   2.692   7.765   0.722  1.0678  0.2030 -0.0049
  248MOL0     C33411   2.986   8.484   0.368 -0.6219  0.2617 -0.3940
  248MOL0     C33412   3.089   8.579   0.363  0.1256 -0.3960 -0.0432
  248MOL0     H33413   3.528   8.745   0.295 -1.3970 -0.6285  1.3043
  248MOL0     H33414   3.698   8.914   0.217  0.8178  0.0532 -1.4892
  248MOL0     H33415   3.812   9.108   0.310  0.8746 -0.1530 -0.6038
  248MOL0     H33416   3.814   9.093   0.132 -3.1596  0.6978 -1.9104
  248MOL0     H33417   3.860   9.351   0.304  0.0560  1.8786 -1.0708
  248MOL0     H33418   3.987   9.263   0.221  1.5775  1.4446  1.4611
  248MOL0     H33419   3.847   9.303   0.010 -1.1655 -0.4634  0.8430
  248MOL0     H33420   3.745   9.406   0.091 -0.2870 -0.5497  0.2365
  248MOL0     H33421   3.936   9.550   0.169  0.1677 -0.0659 -0.1374
  248MOL0     H33422   4.050   9.430   0.091 -1.7838 -4.6498 -2.1957
  248MOL0     H33423   3.915   9.460  -0.121  0.2067  0.1368 -0.6068
  248MOL0     H33424   3.855   9.616  -0.067 -1.3444 -1.8934  0.2740
  248MOL0     H33425   4.155   9.551  -0.104 -0.0114  1.0213 -2.0789
  248MOL0     H33426   4.059   9.644  -0.211 -0.0105 -1.4791 -0.1678
  248MOL0     H33427   4.008   9.765   0.029  1.0695  3.2825 -0.3606
  248MOL0     H33428   4.159   9.668   0.076 -0.9734 -1.7065 -1.0253
  248MOL0     H33429   4.151   9.887  -0.143  0.7492  0.1897 -1.0899
  248MOL0     H33430   4.274   9.787  -0.111  1.8409  1.5182  1.6566
  248MOL0     H33431   4.075  10.055   0.098 -1.5313 -5.1078  0.3320
  248MOL0     H33432   4.340  10.253   0.304 -0.2317  0.4761  2.6305
  248MOL0     H33433   4.176  10.263   0.258  0.2909  1.2577 -0.2853
  248MOL0     H33434   4.265  10.041   0.440 -0.2636 -0.1175  0.2642
  248MOL0     H33435   4.098  10.111   0.419 -0.0337  1.2369 -0.7962
  248MOL0     H33436   4.339  10.255   0.539  1.3607 -2.2886  0.2770
  248MOL0     H33437   4.226  10.151   0.628 -0.4473  0.2794 -0.8650
  248MOL0     H33438   4.042  10.273   0.594 -0.9115 -0.2806  0.4473
  248MOL0     H33439   4.109  10.383   0.471  1.3511 -0.8841 -0.2940
  248MOL0     H33440   4.059  10.576   0.474 -0.0813  1.1277 -1.0942
  248MOL0     H33441   3.876  10.877   0.527 -0.4681 -0.5677 -1.2310
  248MOL0     H33442   4.000  10.861   0.404 -1.4327  1.5227 -0.2860
  248MOL0     H33443   3.889  10.730   0.431  0.1579 -0.6330  0.8529
  248MOL0     H33444   4.009  11.018   1.085 -1.0234 -0.8980  0.9558
  248MOL0     H33445   3.974  11.252   1.221 -0.6958 -0.2336 -0.1653
  248MOL0     H33446   3.740  11.546   1.013  0.2104  1.3213 -0.5189
  248MOL0     H33447   3.725  11.517   1.184 -3.6153 -0.0074 -2.4912
  248MOL0     H33448   3.924  11.700   1.202 -0.4816 -0.0845  0.1930
  248MOL0     H33449   3.879  11.730   1.044  0.4104 -0.3196  0.2061
  248MOL0     H33450   3.689  11.699   1.279 -2.2599 -1.2048 -3.1000
  248MOL0     H33451   3.638  11.773   1.124 -1.4369  0.8991  0.4159
  248MOL0     H33452   3.865  11.911   1.287 -0.2315  2.4160  1.2210
  248MOL0     H33453   3.801  11.964   1.138  0.3723  1.0608  2.2193
  248MOL0     H33454   3.563  11.994   1.242  1.3642 -0.3600 -3.6408
  248MOL0     H33455   3.675  12.108   1.300 -1.0933  1.2572  0.4564
  248MOL0     H33456   3.580  11.859   1.448 -0.4248  0.3034 -2.4906
  248MOL0     H33457   3.744  11.915   1.478  1.5857  1.0373 -0.2453
  248MOL0     H33458   3.477  12.063   1.519 -0.1343 -2.7457  2.7939
  248MOL0     H33459   3.625  12.152   1.520 -1.7553  0.8420 -4.5821
  248MOL0     H33460   3.606  11.893   1.674 -1.3444  0.2322 -1.9929
  248MOL0     H33461   3.503  12.012   1.730 -0.9142 -1.0499  1.1863
  248MOL0     H33462   3.800  11.398   0.865  2.0595  0.7739  0.7479
  248MOL0     H33463   3.826  11.187   0.751 -0.3973  2.0868 -0.7855
  248MOL0     H33464   4.085  10.764   0.923 -4.3339 -0.6055 -0.7727
  248MOL0     H33465   4.181  10.542   0.894  1.7093  0.6517  0.4139
  248MOL0     H33466   3.395   9.226   0.267 -0.7922 -0.3877 -2.7153
  248MOL0     H33467   3.230   9.052   0.312 -0.6264 -1.9737 -0.5689
  248MOL0     H33468   2.943   8.776   0.606  1.0463 -0.0474  0.7316
  248MOL0     H33469   2.817   8.614   0.640  1.4349  2.8087  1.9647
  248MOL0     H33470   2.973   8.301   0.573  1.1262 -1.9684  1.2629
  248MOL0     H33471   2.815   8.270   0.645  0.2115  3.1761  0.3571
  248MOL0     H33472   2.961   8.098   0.447  1.4297  0.6635  1.4289
  248MOL0     H33473   2.834   8.177   0.359  1.2449  3.0815  0.3967
  248MOL0     H33474   2.760   7.951   0.441 -1.6096  0.1524  0.5268
  248MOL0     H33475   2.677   8.065   0.538  1.1264  1.1622  3.2643
  248MOL0     H33476   2.853   8.029   0.724 -1.4240 -0.1755 -1.1071
  248MOL0     H33477   2.945   7.925   0.627 -2.0832 -2.3510 -0.6806
  248MOL0     H33478   2.646   7.680   0.769 -2.2729  2.1277  0.5021
  248MOL0     H33479   3.001   8.403   0.298  1.6866 -1.0783  1.5033
  248MOL0     H33480   3.172   8.585   0.294  0.6400 -0.5758  0.5450
  249MOL0     O33481   5.631  11.299   2.180 -0.3509  0.2268  0.1927
  249MOL0     C33482   5.672  11.223   2.271 -0.2937  0.6853  0.2535
  249MOL0     O33483   5.716  11.096   2.246 -0.1330 -0.4400  0.4834
  249MOL0     C33484   5.683  11.055   2.115  0.0867 -0.2088  0.1948
  249MOL0     C33485   5.549  11.057   2.073  0.0678 -0.3371  0.1221
  249MOL0     C33486   5.506  11.000   1.955 -0.0552  0.1127 -0.1878
  249MOL0     C33487   5.594  10.941   1.867 -0.1746 -0.0672 -0.5694
  249MOL0     O33488   5.553  10.884   1.744 -0.5897  0.0962 -0.0755
  249MOL0     C33489   5.481  10.965   1.647  0.1501  0.2269 -0.0147
  249MOL0     C33490   5.415  10.891   1.534  0.3824 -0.3368  0.3903
  249MOL0     C33491   5.517  10.807   1.454  0.1555 -0.1995  0.5645
  249MOL0     C33492   5.454  10.676   1.404 -0.5306 -0.5014 -0.6961
  249MOL0     C33493   5.535  10.602   1.301  0.2692 -0.6068 -0.0693
  249MOL0     C33494   5.450  10.475   1.259 -1.8678  0.6904 -0.2163
  249MOL0     C33495   5.538  10.372   1.177  0.1321 -0.3204 -0.5487
  249MOL0     C33496   5.544  10.428   1.032 -0.3440  0.1420  0.4682
  249MOL0     N33497   5.625  10.350   0.938  0.0455  0.1129 -0.3598
  249MOL0     C33498   5.653  10.217   0.949 -1.0175 -0.0577  0.3650
  249MOL0     C33499   5.700  10.186   0.822 -0.3663  0.7286 -0.8712
  249MOL0     C33500   5.755  10.043   0.813  0.3015  0.2390  0.0669
  249MOL0     C33501   5.679   9.969   0.707  1.3756  0.1924  0.4175
  249MOL0     C33502   5.525   9.960   0.748  0.0364 -0.2341  0.2647
  249MOL0     C33503   5.432  10.003   0.626 -0.3229 -0.3338 -0.5249
  249MOL0     O33504   5.297   9.978   0.655  1.1332 -0.9644 -0.1003
  249MOL0     C33505   5.225  10.094   0.692 -0.6334  0.7977 -0.0138
  249MOL0     C33506   5.137  10.147   0.608 -0.0174  0.5162  0.4160
  249MOL0     C33507   5.075  10.273   0.634 -0.4421  0.5017  0.4289
  249MOL0     C33508   5.018  10.326   0.510 -0.1833 -0.8126  0.2762
  249MOL0     C33509   5.095  10.333   0.758  0.3630 -0.5768  0.3547
  249MOL0     C33510   5.046  10.472   0.791 -0.1495  0.8449  0.0238
  249MOL0     O33511   5.011  10.563   0.694 -0.2746 -0.3865 -0.2431
  249MOL0     C33512   4.940  10.681   0.714 -0.1501  1.1646 -1.2514
  249MOL0     C33513   4.980  10.799   0.643 -0.5901  0.2695 -0.2801
  249MOL0     C33514   4.923  10.923   0.674 -0.1339  0.5943 -0.7731
  249MOL0     C33515   4.816  10.931   0.782  0.0690  0.6351 -0.4670
  249MOL0     O33516   4.764  11.048   0.832 -0.2800  0.0322  0.2811
  249MOL0     C33517   4.683  11.041   0.959 -0.6772 -0.4513  0.3858
  249MOL0     C33518   4.643  11.180   1.004 -0.9164  0.3428 -0.2258
  249MOL0     C33519   4.757  11.286   0.999  0.4129 -0.1123 -0.4895
  249MOL0     C33520   4.718  11.425   1.039 -0.7315 -0.6775 -0.5927
  249MOL0     C33521   4.836  11.526   1.038 -0.9715  0.2415 -0.2626
  249MOL0     C33522   4.773  11.669   1.051 -0.0080 -0.5975 -0.2824
  249MOL0     C33523   4.873  11.763   1.118  0.3195  0.1608  1.1223
  249MOL0     C33524   4.818  11.898   1.116 -0.7007  0.5840 -0.8535
  249MOL0    Cl33525   4.911  12.005   1.237 -0.0457 -0.3766  0.4697
  249MOL0     C33526   4.776  10.803   0.839  1.3367  0.0521  0.4134
  249MOL0     C33527   4.840  10.687   0.807 -0.6496 -0.0449  0.1724
  249MOL0     O33528   5.033  10.484   0.911 -0.5231 -0.3018  0.6022
  249MOL0     C33529   5.156  10.260   0.858 -0.2303 -0.5195 -0.3994
  249MOL0     C33530   5.234  10.153   0.820  0.2110  0.3758  0.1122
  249MOL0     N33531   5.699  10.307   0.751 -0.1011  0.6618 -1.2877
  249MOL0     N33532   5.664  10.405   0.815  1.0852  0.4647 -0.6033
  249MOL0     C33533   5.720  10.918   1.917 -0.5186 -0.5521  0.3730
  249MOL0     C33534   5.762  10.970   2.039  1.0381  0.1536 -0.3777
  249MOL0     C33535   5.688  11.268   2.406  0.6996  1.2331  0.6613
  249MOL0     C33536   5.659  11.403   2.442 -0.2538  0.5899 -0.2421
  249MOL0     C33537   5.671  11.453   2.571  0.0359 -0.3758 -0.6042
  249MOL0     C33538   5.717  11.365   2.671 -0.7798 -0.4211 -0.5025
  249MOL0     O33539   5.736  11.412   2.795 -0.0430 -0.5583  0.8229
  249MOL0     C33540   5.778  11.337   2.911 -0.4663  1.0104  0.4134
  249MOL0     C33541   5.879  11.417   2.985  0.2866 -0.5539 -1.5330
  249MOL0     C33542   5.983  11.489   2.893  0.2754  0.2964 -0.2284
  249MOL0     C33543   6.098  11.520   2.977  0.6677  0.4152 -1.2797
  249MOL0     C33544   6.218  11.558   2.901  0.0960 -0.2324  0.8973
  249MOL0     C33545   6.305  11.595   2.822  0.4397  0.4479 -0.0484
  249MOL0     C33546   5.755  11.234   2.630 -0.3813  0.4131  0.7110
  249MOL0     C33547   5.739  11.179   2.501 -0.2341 -0.2968 -1.0450
  249MOL0     H33548   5.467  11.108   2.122  0.3455  0.6055 -0.3545
  249MOL0     H33549   5.399  11.010   1.938  0.0349  0.5617 -0.4973
  249MOL0     H33550   5.407  11.018   1.708 -1.4030 -2.2231  0.3719
  249MOL0     H33551   5.549  11.034   1.597 -0.7292 -1.1283 -3.3842
  249MOL0     H33552   5.345  10.827   1.589 -0.8306 -1.0755 -1.8838
  249MOL0     H33553   5.359  10.956   1.466  1.1370  0.2076  0.2796
  249MOL0     H33554   5.573  10.857   1.376  1.5900 -0.4420  1.4017
  249MOL0     H33555   5.598  10.786   1.525  2.4549  0.2360 -1.7798
  249MOL0     H33556   5.432  10.614   1.491 -4.8154  2.5471  0.6941
  249MOL0     H33557   5.365  10.704   1.349 -0.0353 -1.5013 -2.0633
  249MOL0     H33558   5.556  10.678   1.225  0.8344  1.2760  1.8683
  249MOL0     H33559   5.635  10.574   1.337  0.8083  1.9256  0.5770
  249MOL0     H33560   5.408  10.432   1.350 -0.3930  0.4822  0.4041
  249MOL0     H33561   5.370  10.500   1.189  0.0807  1.1512 -2.3929
  249MOL0     H33562   5.643  10.363   1.208  0.5551  0.2481 -1.7638
  249MOL0     H33563   5.476  10.284   1.162  0.1336 -0.5026  0.4130
  249MOL0     H33564   5.587  10.529   1.032  0.5225 -0.2073 -0.6881
  249MOL0     H33565   5.440  10.429   0.999 -0.9478 -2.2299  2.0591
  249MOL0     H33566   5.628  10.149   1.029 -0.7797  0.6463  1.0456
  249MOL0     H33567   5.855  10.053   0.769  1.2776 -1.1131  1.8026
  249MOL0     H33568   5.770   9.991   0.908 -0.3840 -1.1582 -0.5647
  249MOL0     H33569   5.718   9.868   0.698 -1.4390 -0.9882  0.5269
  249MOL0     H33570   5.707  10.016   0.612  3.0325  0.1673  0.8592
  249MOL0     H33571   5.500  10.017   0.838 -2.5934 -0.3804 -0.3127
  249MOL0     H33572   5.492   9.859   0.776  0.3265 -0.3392  0.2328
  249MOL0     H33573   5.448   9.932   0.545  1.8299 -1.0511  0.4643
  249MOL0     H33574   5.449  10.098   0.575 -1.2179 -0.5040 -1.1574
  249MOL0     H33575   5.148  10.090   0.517  2.2046  0.3319  0.7445
  249MOL0     H33576   5.104  10.372   0.459 -1.9812  3.7898  0.8896
  249MOL0     H33577   4.963  10.251   0.452 -2.7896 -0.6545  2.3718
  249MOL0     H33578   4.945  10.405   0.529  1.4977  0.8136  0.3525
  249MOL0     H33579   5.056  10.791   0.566 -0.4597 -1.4854 -0.0121
  249MOL0     H33580   4.963  11.010   0.622  1.0879 -0.8995 -2.4265
  249MOL0     H33581   4.601  10.971   0.942 -1.0439  0.1056 -0.1994
  249MOL0     H33582   4.753  10.997   1.031 -0.5265 -4.2530 -1.7908
  249MOL0     H33583   4.561  11.218   0.943 -0.2499 -1.6274 -2.5316
  249MOL0     H33584   4.606  11.154   1.104  1.3122 -1.1151  0.2891
  249MOL0     H33585   4.811  11.289   0.903 -2.4944  3.7684 -2.2791
  249MOL0     H33586   4.837  11.264   1.070  0.7490  1.4465 -0.3680
  249MOL0     H33587   4.651  11.468   0.964 -2.3009 -2.0380 -0.0454
  249MOL0     H33588   4.687  11.424   1.144  1.5270 -0.1206  0.1380
  249MOL0     H33589   4.887  11.514   0.942  0.4707 -3.2899  0.7767
  249MOL0     H33590   4.913  11.498   1.110 -0.3961 -1.1484 -1.3604
  249MOL0     H33591   4.711  11.706   0.969  0.9297  0.3430 -0.5890
  249MOL0     H33592   4.694  11.663   1.126  0.1014  2.0601  0.1364
  249MOL0     H33593   4.965  11.766   1.059 -1.3259  2.2127 -1.6325
  249MOL0     H33594   4.899  11.731   1.219 -2.3698 -0.5478  1.6682
  249MOL0     H33595   4.710  11.893   1.133 -0.7341 -1.1144 -1.3945
  249MOL0     H33596   4.823  11.935   1.013  1.0138  0.5486 -0.8187
  249MOL0     H33597   4.701  10.791   0.917 -1.3331  1.8009 -1.6971
  249MOL0     H33598   4.813  10.592   0.852 -0.4399 -0.6797 -0.9920
  249MOL0     H33599   5.155  10.294   0.961  0.1136 -0.6366 -0.3570
  249MOL0     H33600   5.290  10.103   0.899 -1.8061  2.7934  3.3181
  249MOL0     H33601   5.776  10.860   1.845 -1.2162 -2.5993  1.3998
  249MOL0     H33602   5.866  10.965   2.070 -0.1225 -0.9641  4.0868
  249MOL0     H33603   5.609  11.468   2.372 -0.1037  2.9508  1.6995
  249MOL0     H33604   5.619  11.546   2.593 -6.4091 -2.8583 -2.9051
  249MOL0     H33605   5.700  11.306   2.981  0.5177 -4.7572 -0.5203
  249MOL0     H33606   5.827  11.246   2.874 -1.7173  0.6860 -0.5209
  249MOL0     H33607   5.926  11.343   3.050  1.1941  2.1133  1.0765
  249MOL0     H33608   5.834  11.494   3.049  2.8372  0.4195 -0.8046
  249MOL0     H33609   5.932  11.580   2.859  0.6910  0.1037 -1.4305
  249MOL0     H33610   6.020  11.446   2.799 -0.5081  0.6932 -0.7347
  249MOL0     H33611   6.117  11.433   3.041  3.5462  0.4693 -1.9266
  249MOL0     H33612   6.066  11.608   3.035 -2.0658 -0.1694 -1.7454
  249MOL0     H33613   6.383  11.622   2.754 -2.1184  2.6583 -2.3613
  249MOL0     H33614   5.801  11.162   2.697 -1.5286  0.1137  1.1929
  249MOL0     H33615   5.764  11.077   2.473 -0.5079  0.3501 -3.9330
  250MOL0     O33616   7.031   8.722  10.738 -0.7051 -0.7199 -0.6992
  250MOL0     C33617   6.967   8.744  10.644  0.1180  0.2810  0.8932
  250MOL0     O33618   6.832   8.729  10.640  0.0969  0.6357  0.4676
  250MOL0     C33619   6.760   8.735  10.759 -0.7343  0.0139 -0.5699
  250MOL0     C33620   6.774   8.826  10.869  1.2063 -0.5749  0.6227
  250MOL0     C33621   6.668   8.833  10.969  0.0466 -0.5359  0.6931
  250MOL0     C33622   6.577   8.731  10.979  0.9085  0.6562  0.7873
  250MOL0     O33623   6.505   8.733  11.101 -0.2238  0.6124  0.0250
  250MOL0     C33624   6.440   8.613  11.138 -0.2361 -0.1883  0.1512
  250MOL0     C33625   6.539   8.504  11.193  0.4373 -0.5740 -1.2046
  250MOL0     C33626   6.452   8.385  11.252 -0.4252 -1.0613 -0.4549
  250MOL0     C33627   6.411   8.309  11.129  0.2501  0.6893 -0.2583
  250MOL0     C33628   6.371   8.172  11.175 -0.3158  0.4115  0.5607
  250MOL0     C33629   6.325   8.080  11.061  0.1485  0.6246 -0.4717
  250MOL0     C33630   6.440   8.048  10.971 -0.5775  0.0257 -0.1943
  250MOL0     C33631   6.391   7.995  10.832  0.4396  0.2864  0.3000
  250MOL0     N33632   6.351   7.856  10.819  0.2942 -0.2821  0.2889
  250MOL0     C33633   6.380   7.763  10.909  0.3507 -0.0153 -0.6563
  250MOL0     C33634   6.400   7.651  10.834  0.6088 -0.9371  0.2274
  250MOL0     C33635   6.461   7.525  10.904  0.2921 -0.2457 -0.0846
  250MOL0     C33636   6.577   7.464  10.834  1.0657 -0.6831 -1.0258
  250MOL0     C33637   6.559   7.405  10.696 -0.2841 -0.2587 -0.1849
  250MOL0     C33638   6.515   7.265  10.698  0.1013 -0.6319 -0.0276
  250MOL0     O33639   6.511   7.229  10.567  0.1053  0.0563 -0.3857
  250MOL0     C33640   6.517   7.092  10.545  0.0007  0.7202 -0.2576
  250MOL0     C33641   6.490   6.991  10.643  0.0431 -0.1613  0.8200
  250MOL0     C33642   6.512   6.855  10.614  0.7048 -0.1820  0.5723
  250MOL0     C33643   6.482   6.764  10.730  0.2728  0.6005  0.2972
  250MOL0     C33644   6.573   6.811  10.493  0.2791 -1.0420 -0.1648
  250MOL0     C33645   6.608   6.671  10.456 -0.7417  0.2017  0.0841
  250MOL0     O33646   6.688   6.654  10.340 -0.2716 -0.4774 -0.7320
  250MOL0     C33647   6.698   6.528  10.287 -0.3218  0.0314 -0.4593
  250MOL0     C33648   6.692   6.514  10.144 -0.4256  0.7218 -0.3550
  250MOL0     C33649   6.709   6.390  10.071 -0.1426 -0.2295 -0.9643
  250MOL0     C33650   6.720   6.274  10.157  0.3683  0.0792 -0.2558
  250MOL0     O33651   6.733   6.147  10.100  0.0534 -0.3073  0.4470
  250MOL0     C33652   6.696   6.123   9.965  0.0243 -0.0891  0.9189
  250MOL0     C33653   6.728   5.973   9.939 -0.7293  0.2836  0.2303
  250MOL0     C33654   6.615   5.880   9.984 -0.4187  1.2030 -0.1644
  250MOL0     C33655   6.596   5.861  10.135  0.7808 -0.2407 -0.4262
  250MOL0     C33656   6.484   5.767  10.160  0.0575 -1.0317  0.0909
  250MOL0     C33657   6.464   5.750  10.312 -0.7442  0.2230  0.7494
  250MOL0     C33658   6.311   5.733  10.339 -0.5087  0.7063  0.6014
  250MOL0     C33659   6.285   5.650  10.467 -0.8741 -0.8698  0.0202
  250MOL0    Cl33660   6.307   5.746  10.608  0.4340 -0.4413 -0.3232
  250MOL0     C33661   6.741   6.289  10.293 -0.5554  0.2839  0.6483
  250MOL0     C33662   6.743   6.415  10.352  0.4121 -0.1855 -0.2275
  250MOL0     O33663   6.553   6.582  10.512  0.5521  0.0788  0.0081
  250MOL0     C33664   6.578   6.907  10.393  0.2703  0.4991  0.1623
  250MOL0     C33665   6.556   7.043  10.424  0.0773  1.3044  0.3155
  250MOL0     N33666   6.359   7.681  10.704  0.6006  0.0839  0.3307
  250MOL0     N33667   6.342   7.800  10.694  0.8025 -0.0948 -0.6661
  250MOL0     C33668   6.577   8.628  10.881 -0.2908 -0.0330 -0.3058
  250MOL0     C33669   6.665   8.634  10.779  0.1794  0.1283 -0.9075
  250MOL0     C33670   7.054   8.768  10.527  0.3317  0.1543  0.6782
  250MOL0     C33671   7.000   8.738  10.398  0.3009 -0.0671 -0.2380
  250MOL0     C33672   7.069   8.783  10.286 -0.1234 -0.1501 -0.1718
  250MOL0     C33673   7.193   8.841  10.300  0.1815  0.2241 -0.2151
  250MOL0     O33674   7.273   8.878  10.197 -1.0482 -0.0381  0.9170
  250MOL0     C33675   7.214   8.933  10.077  0.9782 -0.3301  0.0533
  250MOL0     C33676   7.319   8.999   9.995  0.1098  0.6094  0.5922
  250MOL0     C33677   7.362   9.128  10.074 -0.7718 -0.2386  0.9461
  250MOL0     C33678   7.466   9.200   9.986  0.6214  0.6480  0.0023
  250MOL0     C33679   7.599   9.162  10.033 -0.2069  0.6743 -0.1507
  250MOL0     C33680   7.715   9.137  10.065 -0.3575 -0.5132  0.2649
  250MOL0     C33681   7.257   8.861  10.422  1.1189  0.4525  0.0248
  250MOL0     C33682   7.174   8.834  10.532  0.0391  0.0894 -0.6598
  250MOL0     H33683   6.861   8.890  10.857  0.8448 -0.1031  0.4972
  250MOL0     H33684   6.670   8.920  11.033  3.4652  0.5259 -0.5989
  250MOL0     H33685   6.362   8.625  11.213 -3.1923 -1.4014 -2.5053
  250MOL0     H33686   6.388   8.582  11.047 -0.2775 -0.1890  0.1750
  250MOL0     H33687   6.613   8.471  11.120  3.1160  0.7044  0.7996
  250MOL0     H33688   6.591   8.552  11.276  1.0143  1.6257 -2.7411
  250MOL0     H33689   6.526   8.327  11.308  0.2188  0.8723  0.7638
  250MOL0     H33690   6.372   8.417  11.319  1.6826  0.1582  1.6215
  250MOL0     H33691   6.329   8.367  11.084 -1.3478  1.0854  2.8645
  250MOL0     H33692   6.491   8.293  11.056 -0.2659  2.5283 -1.3077
  250MOL0     H33693   6.446   8.128  11.241 -0.8852 -1.5591 -0.0379
  250MOL0     H33694   6.284   8.192  11.238 -0.5063 -2.8615  1.4732
  250MOL0     H33695   6.289   7.988  11.107 -1.5210  0.6476 -1.6523
  250MOL0     H33696   6.241   8.132  11.013 -0.0666  0.2561 -0.4943
  250MOL0     H33697   6.496   8.138  10.943 -0.1618  0.1588  1.0059
  250MOL0     H33698   6.504   7.971  11.015 -0.9222 -0.7162 -0.9791
  250MOL0     H33699   6.459   8.019  10.750 -0.0522  0.7891  0.0320
  250MOL0     H33700   6.299   8.052  10.814 -0.7157  0.2184  4.7018
  250MOL0     H33701   6.383   7.776  11.016 -2.6266  2.3537 -0.7352
  250MOL0     H33702   6.492   7.540  11.008 -1.5943  0.8179  0.3920
  250MOL0     H33703   6.376   7.458  10.920  0.8744 -0.1199  5.1897
  250MOL0     H33704   6.609   7.383  10.900 -1.8451 -0.1667  1.2153
  250MOL0     H33705   6.651   7.544  10.839  0.7482 -0.4774  1.4068
  250MOL0     H33706   6.650   7.410  10.635 -1.8687 -0.5893 -2.7568
  250MOL0     H33707   6.489   7.470  10.641 -2.6164  0.5295  3.3813
  250MOL0     H33708   6.412   7.263  10.733 -0.7929  2.0954 -2.1336
  250MOL0     H33709   6.563   7.191  10.763 -2.2010 -1.7731  0.4493
  250MOL0     H33710   6.449   7.012  10.741 -0.2595 -4.1964  1.7429
  250MOL0     H33711   6.550   6.679  10.719 -0.1407  0.3429 -0.3547
  250MOL0     H33712   6.520   6.808  10.822  0.4454 -0.2623  0.6434
  250MOL0     H33713   6.375   6.744  10.744  0.2488  0.3864 -0.1649
  250MOL0     H33714   6.661   6.593  10.077 -1.9461 -0.5301 -1.1839
  250MOL0     H33715   6.701   6.386   9.963  3.5062  2.3220 -1.5152
  250MOL0     H33716   6.590   6.138   9.946  0.1970 -0.7557 -0.7955
  250MOL0     H33717   6.741   6.177   9.882 -3.1023  0.9474 -0.2300
  250MOL0     H33718   6.749   5.955   9.833 -0.8788  0.4847  0.1661
  250MOL0     H33719   6.816   5.943   9.996  0.1556  1.0772 -0.6674
  250MOL0     H33720   6.642   5.779   9.952  0.6363  1.3761  0.1503
  250MOL0     H33721   6.519   5.912   9.941 -1.6686  0.7674  2.1508
  250MOL0     H33722   6.677   5.808  10.185 -0.1473  0.9444  2.5762
  250MOL0     H33723   6.564   5.952  10.186 -1.7877 -1.5476  0.4849
  250MOL0     H33724   6.513   5.677  10.106 -0.4472 -0.0868 -1.8611
  250MOL0     H33725   6.393   5.813  10.121  0.2469  0.3646  1.2109
  250MOL0     H33726   6.526   5.670  10.352  1.0244  0.8630 -0.6086
  250MOL0     H33727   6.487   5.844  10.364 -3.4859  0.9854  0.8015
  250MOL0     H33728   6.272   5.681  10.252 -1.6365  0.1024  1.4436
  250MOL0     H33729   6.260   5.830  10.343  2.2979  2.3911 -0.6650
  250MOL0     H33730   6.347   5.560  10.467  1.1249  0.4208  1.6094
  250MOL0     H33731   6.182   5.614  10.464 -0.6937 -1.4207  0.4345
  250MOL0     H33732   6.777   6.198  10.340  0.5305 -1.2418 -2.8204
  250MOL0     H33733   6.766   6.430  10.456  0.4239  1.4291 -0.4353
  250MOL0     H33734   6.604   6.877  10.292  3.8352  2.7759  0.2469
  250MOL0     H33735   6.577   7.117  10.348 -4.4685  2.4378 -0.1434
  250MOL0     H33736   6.499   8.552  10.877 -0.9869  0.7167 -2.2242
  250MOL0     H33737   6.657   8.566  10.695 -4.3339  1.7163 -2.0416
  250MOL0     H33738   6.905   8.688  10.383  1.4037 -3.3032  2.3550
  250MOL0     H33739   7.024   8.761  10.190 -0.0684 -3.4850  0.4593
  250MOL0     H33740   7.152   8.862  10.022 -4.8293  1.7456  3.0403
  250MOL0     H33741   7.135   9.000  10.111  1.6332  0.7551 -0.5266
  250MOL0     H33742   7.285   9.009   9.892  0.5872 -1.0764  0.2382
  250MOL0     H33743   7.412   8.942   9.993 -0.8221 -0.9567 -1.6152
  250MOL0     H33744   7.398   9.106  10.175 -0.1295 -3.2133  0.1714
  250MOL0     H33745   7.270   9.186  10.073 -1.1071 -0.7496 -0.2436
  250MOL0     H33746   7.462   9.310   9.988 -0.7232  0.6876 -2.3743
  250MOL0     H33747   7.451   9.168   9.883 -1.5740 -3.1451  1.2968
  250MOL0     H33748   7.811   9.106  10.102 -0.0157  0.9850  0.6911
  250MOL0     H33749   7.351   8.915  10.425  1.2793  0.2000  3.1781
  250MOL0     H33750   7.221   8.842  10.630 -0.3577 -1.3025 -0.3233
  251MOL0     O33751   4.759   2.249   0.994 -0.6495 -0.0066  0.0697
  251MOL0     C33752   4.668   2.323   1.032 -0.9286  0.4185  0.2510
  251MOL0     O33753   4.545   2.288   1.077 -0.5198 -0.4494 -0.5147
  251MOL0     C33754   4.528   2.156   1.089 -1.5747 -0.3877  0.9226
  251MOL0     C33755   4.554   2.101   1.214  0.9916  0.4833 -0.3168
  251MOL0     C33756   4.546   1.956   1.230 -0.6876  0.2115  0.8744
  251MOL0     C33757   4.499   1.867   1.131 -0.0020  1.0131 -0.3797
  251MOL0     O33758   4.479   1.726   1.156 -0.3092  0.3334 -0.5535
  251MOL0     C33759   4.478   1.619   1.050 -0.4464  0.5770  0.1284
  251MOL0     C33760   4.601   1.635   0.969 -0.1746  0.5698  0.7749
  251MOL0     C33761   4.619   1.531   0.857  0.2005  0.0201  0.4489
  251MOL0     C33762   4.541   1.580   0.726 -0.8990 -0.0430 -0.1582
  251MOL0     C33763   4.519   1.477   0.627  0.3513  0.8623 -0.1041
  251MOL0     C33764   4.461   1.526   0.496  0.7860 -1.1066  0.5572
  251MOL0     C33765   4.361   1.429   0.441 -0.7802 -0.3754 -0.2463
  251MOL0     C33766   4.377   1.395   0.295  0.1200  0.1571 -0.4945
  251MOL0     N33767   4.281   1.308   0.233  1.0696  1.4313  0.1612
  251MOL0     C33768   4.175   1.239   0.283  0.9174  0.2086 -0.5641
  251MOL0     C33769   4.091   1.221   0.174  1.2013  0.2467  0.3110
  251MOL0     C33770   3.971   1.126   0.172  0.0631  0.3225 -0.6733
  251MOL0     C33771   3.878   1.153   0.059  0.7216 -0.4536 -0.4190
  251MOL0     C33772   3.793   1.029   0.015 -0.4972  0.1673 -0.1751
  251MOL0     C33773   3.773   1.016  -0.131  0.1694  0.3345 -0.6521
  251MOL0     O33774   3.694   1.125  -0.181  0.4840  0.1548 -0.1029
  251MOL0     C33775   3.573   1.096  -0.242  0.4999  0.0605  0.0503
  251MOL0     C33776   3.529   1.198  -0.330  0.0103  0.1461  0.3572
  251MOL0     C33777   3.405   1.194  -0.397  0.5276 -1.3539 -0.4389
  251MOL0     C33778   3.369   1.318  -0.482  0.7705  0.4440  0.3869
  251MOL0     C33779   3.320   1.079  -0.391 -0.1944  0.2062  0.3646
  251MOL0     C33780   3.204   1.059  -0.486 -0.3432  0.4193 -0.0688
  251MOL0     O33781   3.112   0.977  -0.434 -1.0157 -1.0612  0.4942
  251MOL0     C33782   3.004   0.949  -0.513  1.0199 -0.6985  0.2192
  251MOL0     C33783   2.991   0.940  -0.654  0.9583  0.3795  1.5611
  251MOL0     C33784   2.878   0.892  -0.713  0.2213  0.4987 -0.5638
  251MOL0     C33785   2.769   0.847  -0.637  0.0168 -0.6364 -0.0818
  251MOL0     O33786   2.649   0.811  -0.694 -0.3319 -0.0234 -0.2952
  251MOL0     C33787   2.653   0.749  -0.821  0.5697  0.1312 -0.7380
  251MOL0     C33788   2.508   0.734  -0.870  0.4045 -0.1649  0.6435
  251MOL0     C33789   2.492   0.601  -0.951 -0.5777  0.0809  1.1375
  251MOL0     C33790   2.335   0.571  -0.955 -0.1881 -0.3632  0.2638
  251MOL0     C33791   2.312   0.485  -1.084 -0.1206  0.5111 -0.6833
  251MOL0     C33792   2.162   0.467  -1.113  0.1378 -0.1149 -0.3655
  251MOL0     C33793   2.143   0.382  -1.238  0.6808  0.0221  0.5090
  251MOL0     C33794   1.987   0.367  -1.253  1.5654  0.5563 -0.3495
  251MOL0    Cl33795   1.928   0.285  -1.395  0.2097  0.2758  0.0782
  251MOL0     C33796   2.769   0.871  -0.503 -1.1469 -0.5139 -0.4155
  251MOL0     C33797   2.893   0.908  -0.437  0.4460 -0.9389  0.0223
  251MOL0     O33798   3.204   1.120  -0.599  0.0083 -0.8955  0.2918
  251MOL0     C33799   3.360   0.980  -0.299 -1.0143  0.7242  0.2956
  251MOL0     C33800   3.480   0.991  -0.219  1.0093  1.3997  0.5566
  251MOL0     N33801   4.149   1.279   0.065  0.8158  0.3488  0.5996
  251MOL0     N33802   4.260   1.328   0.104  0.5657 -0.5741 -0.5100
  251MOL0     C33803   4.464   1.930   1.010  0.1142  0.2408  0.1261
  251MOL0     C33804   4.477   2.067   0.991 -0.3008 -0.0657  0.1612
  251MOL0     C33805   4.710   2.467   1.039 -0.1934 -0.1080  0.1332
  251MOL0     C33806   4.616   2.574   1.021  0.1567  0.1429 -0.8706
  251MOL0     C33807   4.650   2.702   1.036  0.3175  0.0714  1.0556
  251MOL0     C33808   4.790   2.738   1.050  1.0348  0.4614  0.2847
  251MOL0     O33809   4.825   2.873   1.037  0.8058  0.0237  0.1847
  251MOL0     C33810   4.963   2.909   1.044  0.5672 -0.5101 -0.0639
  251MOL0     C33811   4.981   3.059   1.069 -0.5672  0.1301 -0.0505
  251MOL0     C33812   5.002   3.139   0.937 -0.2739  0.4489 -1.0031
  251MOL0     C33813   5.151   3.129   0.885  0.2841  0.1135 -0.2619
  251MOL0     C33814   5.201   2.995   0.847  0.3708 -0.0606 -0.3357
  251MOL0     C33815   5.224   2.878   0.818  0.0355  0.4382  0.5305
  251MOL0     C33816   4.884   2.635   1.065  0.4125 -0.6453 -0.6634
  251MOL0     C33817   4.841   2.503   1.066 -0.0648  0.0647  0.2036
  251MOL0     H33818   4.584   2.171   1.291 -2.3268 -0.4575  2.0725
  251MOL0     H33819   4.572   1.899   1.319  1.5064 -0.6738 -0.2686
  251MOL0     H33820   4.471   1.517   1.089  0.0220 -0.1431 -1.5771
  251MOL0     H33821   4.394   1.645   0.985 -0.9819  2.9702  1.6398
  251MOL0     H33822   4.594   1.731   0.917  2.2226  0.1600 -0.4905
  251MOL0     H33823   4.695   1.632   1.024  1.8559 -1.5919 -2.4009
  251MOL0     H33824   4.726   1.515   0.847  0.5408  1.9293  0.7183
  251MOL0     H33825   4.569   1.441   0.893  0.5547 -1.2545 -2.0371
  251MOL0     H33826   4.449   1.632   0.752 -0.8985  0.2126 -0.6526
  251MOL0     H33827   4.609   1.658   0.690  1.3111 -1.3677  0.9053
  251MOL0     H33828   4.614   1.425   0.611  0.0319 -0.4220  1.9369
  251MOL0     H33829   4.450   1.412   0.681  1.8640 -0.5732  0.1797
  251MOL0     H33830   4.394   1.610   0.518  2.1935  0.1865  0.1447
  251MOL0     H33831   4.533   1.559   0.420  2.1065  0.1327  2.2727
  251MOL0     H33832   4.364   1.327   0.479 -0.8191 -0.3631 -0.2095
  251MOL0     H33833   4.263   1.476   0.457  0.2281  1.6269  0.3377
  251MOL0     H33834   4.481   1.360   0.290 -0.1655 -1.3575  2.2864
  251MOL0     H33835   4.381   1.487   0.236  0.8362 -0.5509 -1.5780
  251MOL0     H33836   4.158   1.209   0.386  1.0110 -2.8706 -1.3512
  251MOL0     H33837   4.016   1.027   0.159  0.0122  0.4683 -2.1981
  251MOL0     H33838   3.925   1.135   0.271  2.8363  0.5379  0.6824
  251MOL0     H33839   3.924   1.192  -0.032 -1.6552 -1.3825 -2.0984
  251MOL0     H33840   3.815   1.235   0.096  0.6878  0.6104 -2.6939
  251MOL0     H33841   3.697   1.044   0.065 -1.3010  1.7476 -2.0688
  251MOL0     H33842   3.852   0.941   0.040  1.2670  0.7257 -2.1366
  251MOL0     H33843   3.727   0.918  -0.144  0.1681  0.3956 -1.1180
  251MOL0     H33844   3.867   1.001  -0.186 -1.2300 -0.4488 -2.9231
  251MOL0     H33845   3.584   1.291  -0.339  1.3184 -0.2304  3.3378
  251MOL0     H33846   3.263   1.338  -0.462  0.0926 -0.9033 -1.5642
  251MOL0     H33847   3.423   1.409  -0.454 -0.3088  0.5123  2.4865
  251MOL0     H33848   3.375   1.292  -0.588  0.8638  2.3133 -0.1069
  251MOL0     H33849   3.079   0.953  -0.717 -0.8131 -1.0905 -1.4879
  251MOL0     H33850   2.878   0.884  -0.821 -0.4599 -1.5913 -0.4369
  251MOL0     H33851   2.702   0.806  -0.901 -0.7324  0.0479 -1.6221
  251MOL0     H33852   2.707   0.654  -0.815  0.3848 -0.0017 -1.1219
  251MOL0     H33853   2.449   0.708  -0.782 -0.2293  0.8794  0.5374
  251MOL0     H33854   2.478   0.817  -0.933 -1.3911 -2.1902 -1.3520
  251MOL0     H33855   2.533   0.516  -0.896 -0.4979 -0.0269  0.9115
  251MOL0     H33856   2.541   0.618  -1.047 -0.5613  2.3869  1.4814
  251MOL0     H33857   2.302   0.515  -0.867 -0.2050 -0.5784  0.1222
  251MOL0     H33858   2.279   0.665  -0.965 -1.3698 -1.1526 -1.0327
  251MOL0     H33859   2.372   0.394  -1.076 -0.8004  0.1935  1.8912
  251MOL0     H33860   2.349   0.543  -1.169  1.5559  2.2813  1.1438
  251MOL0     H33861   2.116   0.416  -1.028  1.9981 -2.0956 -0.4340
  251MOL0     H33862   2.128   0.570  -1.118  2.7678  1.0809  2.8379
  251MOL0     H33863   2.195   0.286  -1.232  0.8077  0.0520 -0.0287
  251MOL0     H33864   2.176   0.433  -1.329 -0.0106 -3.9790 -2.2795
  251MOL0     H33865   1.943   0.468  -1.253  1.7326  0.6358 -1.2559
  251MOL0     H33866   1.960   0.313  -1.162  0.0166  1.4817 -0.2015
  251MOL0     H33867   2.682   0.838  -0.448  1.2696 -0.0307  4.2133
  251MOL0     H33868   2.903   0.924  -0.330 -0.1565  1.6456 -0.2237
  251MOL0     H33869   3.300   0.890  -0.311 -2.1502  1.6722 -1.7621
  251MOL0     H33870   3.506   0.913  -0.147 -1.5086  1.1054  1.2542
  251MOL0     H33871   4.419   1.872   0.930  5.1110 -2.5370 -1.0844
  251MOL0     H33872   4.445   2.108   0.896  0.6228  0.2360 -0.0367
  251MOL0     H33873   4.514   2.570   0.984  0.7004 -0.7940 -2.3579
  251MOL0     H33874   4.576   2.781   1.025 -0.1184 -0.1424  2.2501
  251MOL0     H33875   5.000   2.857   1.133 -0.3152  0.0541  0.6521
  251MOL0     H33876   5.018   2.866   0.959 -2.2357 -1.6026 -1.4484
  251MOL0     H33877   5.056   3.090   1.143 -0.3307  2.5339 -1.2000
  251MOL0     H33878   4.887   3.099   1.108  0.2166  0.1385  1.9566
  251MOL0     H33879   4.977   3.242   0.964  0.6063 -0.1234  2.4179
  251MOL0     H33880   4.943   3.105   0.851  1.7895  1.0235 -2.7499
  251MOL0     H33881   5.213   3.148   0.974  0.1846 -1.6121  0.2213
  251MOL0     H33882   5.175   3.201   0.806 -1.5284  0.8678 -0.1629
  251MOL0     H33883   5.243   2.780   0.779 -0.0919  0.6338 -0.0339
  251MOL0     H33884   4.986   2.659   1.089  0.0001 -0.1073  0.6453
  251MOL0     H33885   4.913   2.422   1.076  0.4327  0.7324  2.4019
  252MOL0     O33886   3.495   8.274   4.722 -0.6548 -0.2055 -0.2252
  252MOL0     C33887   3.423   8.369   4.695 -0.0685  0.0342  0.3517
  252MOL0     O33888   3.317   8.413   4.764  0.3411 -0.1472  0.1331
  252MOL0     C33889   3.329   8.377   4.896  0.4089  0.1266  0.6081
  252MOL0     C33890   3.396   8.465   4.978  0.2712 -0.1710  0.2060
  252MOL0     C33891   3.425   8.418   5.101 -0.2278 -0.0523 -0.3964
  252MOL0     C33892   3.385   8.301   5.166  0.6917  0.5120  0.4568
  252MOL0     O33893   3.410   8.283   5.296 -0.1156 -0.5977 -0.5673
  252MOL0     C33894   3.475   8.158   5.322  0.5962  0.3819  0.5020
  252MOL0     C33895   3.569   8.165   5.437 -0.1003 -0.0185  0.4558
  252MOL0     C33896   3.694   8.241   5.408 -1.0440 -0.2603  0.2945
  252MOL0     C33897   3.821   8.168   5.472 -0.3295  0.3832 -0.2893
  252MOL0     C33898   3.934   8.265   5.507 -0.1605 -1.0834 -1.1372
  252MOL0     C33899   3.905   8.367   5.626  0.6270 -0.1405 -0.3683
  252MOL0     C33900   3.888   8.305   5.768 -0.2242  0.0566  0.5216
  252MOL0     C33901   3.864   8.409   5.885  0.3452 -0.1884 -0.6898
  252MOL0     N33902   3.837   8.343   6.016 -0.9977  0.1916 -0.1255
  252MOL0     C33903   3.727   8.273   6.037  0.3302  1.0743  0.4030
  252MOL0     C33904   3.752   8.170   6.119 -0.5402 -0.1440  0.0537
  252MOL0     C33905   3.652   8.054   6.141  0.5786 -0.9556  0.9005
  252MOL0     C33906   3.666   7.925   6.056  0.4902 -0.1434  0.5639
  252MOL0     C33907   3.656   7.970   5.907 -0.9569  0.1228  0.5386
  252MOL0     C33908   3.518   8.002   5.874 -0.0290 -0.0640 -0.2511
  252MOL0     O33909   3.511   8.029   5.736 -0.1479  0.1023 -0.3893
  252MOL0     C33910   3.458   7.923   5.664 -1.1384 -0.0721 -1.3984
  252MOL0     C33911   3.324   7.903   5.662  0.3552 -1.0177 -0.0818
  252MOL0     C33912   3.268   7.792   5.598  0.7885 -0.1344 -0.5643
  252MOL0     C33913   3.118   7.779   5.619 -0.2765  0.7300  0.2317
  252MOL0     C33914   3.343   7.709   5.512 -0.1200  0.2128  0.3087
  252MOL0     C33915   3.284   7.605   5.418 -0.1260 -0.5481 -0.7548
  252MOL0     O33916   3.362   7.498   5.394 -0.3241  0.8953 -0.1315
  252MOL0     C33917   3.308   7.396   5.314 -0.0185 -0.2285 -0.1707
  252MOL0     C33918   3.342   7.380   5.184 -0.3118  1.1983  0.1043
  252MOL0     C33919   3.292   7.271   5.113  0.1484  0.6131 -0.1715
  252MOL0     C33920   3.194   7.186   5.170 -0.8645 -0.8236 -1.3753
  252MOL0     O33921   3.130   7.095   5.094  0.1914  0.1114 -0.4478
  252MOL0     C33922   3.001   7.129   5.042 -0.4629  0.5411  1.4161
  252MOL0     C33923   3.015   7.127   4.879  0.3243 -0.2331  0.4498
  252MOL0     C33924   3.010   6.979   4.828 -1.0802  0.3168  0.1900
  252MOL0     C33925   2.873   6.921   4.850  0.0637  0.2605 -0.4008
  252MOL0     C33926   2.844   6.799   4.772  0.2144  0.2504  0.6793
  252MOL0     C33927   2.703   6.776   4.802 -0.5543  0.1973 -0.2544
  252MOL0     C33928   2.657   6.652   4.732  0.0863  1.1846  0.5945
  252MOL0     C33929   2.502   6.658   4.720  0.2030  0.7742 -0.6857
  252MOL0    Cl33930   2.444   6.529   4.618  0.3607  0.2922 -0.2592
  252MOL0     C33931   3.161   7.206   5.304  0.1985 -0.3373 -1.1225
  252MOL0     C33932   3.223   7.306   5.375 -0.1616 -0.6046 -0.2920
  252MOL0     O33933   3.176   7.630   5.362 -0.5470 -0.8958 -0.5575
  252MOL0     C33934   3.479   7.742   5.511 -0.3918  0.5562  0.0557
  252MOL0     C33935   3.537   7.848   5.585  1.3450 -0.4740  0.7372
  252MOL0     N33936   3.886   8.181   6.154 -0.5522 -0.3600  0.1206
  252MOL0     N33937   3.937   8.282   6.093  0.7437 -0.1747 -0.1826
  252MOL0     C33938   3.310   8.212   5.082  0.0442  0.5683  0.8289
  252MOL0     C33939   3.281   8.252   4.945  1.1127 -0.7579 -0.8592
  252MOL0     C33940   3.441   8.421   4.559  0.2801  0.5137  0.4491
  252MOL0     C33941   3.505   8.342   4.454  0.7599  0.9987  1.1099
  252MOL0     C33942   3.536   8.391   4.329  0.3593 -1.0754  0.6216
  252MOL0     C33943   3.500   8.526   4.301 -0.5835  0.1109 -0.2207
  252MOL0     O33944   3.517   8.597   4.186 -0.6188  0.5092 -0.2363
  252MOL0     C33945   3.560   8.530   4.070 -0.1180  0.2259 -0.2392
  252MOL0     C33946   3.713   8.528   4.063  0.1546 -0.9205  0.9046
  252MOL0     C33947   3.773   8.542   3.919  0.7268  0.2035 -0.3480
  252MOL0     C33948   3.922   8.579   3.930 -0.6964 -0.8951 -0.9590
  252MOL0     C33949   3.996   8.595   3.800 -0.5204  0.1713  0.8544
  252MOL0     C33950   4.068   8.592   3.702 -0.0423  0.0458  0.9596
  252MOL0     C33951   3.436   8.604   4.401 -0.9037 -0.1785  0.1534
  252MOL0     C33952   3.403   8.555   4.529 -0.0910  0.0065 -0.2233
  252MOL0     H33953   3.441   8.551   4.929 -1.1184 -0.4751 -1.7286
  252MOL0     H33954   3.489   8.472   5.171 -0.5165 -1.4947  1.0326
  252MOL0     H33955   3.395   8.088   5.348  0.2493  1.3192  2.0541
  252MOL0     H33956   3.520   8.117   5.231  1.2756  1.4921  0.3282
  252MOL0     H33957   3.526   8.208   5.528  2.0493  2.3779  0.4554
  252MOL0     H33958   3.599   8.060   5.445 -1.9593 -0.5277  1.4316
  252MOL0     H33959   3.715   8.253   5.302 -2.2593  0.5341  0.1199
  252MOL0     H33960   3.687   8.344   5.447  2.3382  1.7491 -3.6259
  252MOL0     H33961   3.782   8.128   5.566  1.3970  0.6395  0.5806
  252MOL0     H33962   3.870   8.088   5.416  1.7654  1.5339 -0.2043
  252MOL0     H33963   4.027   8.211   5.525  0.1812 -0.6686 -1.6156
  252MOL0     H33964   3.958   8.328   5.420 -0.1259  0.2174 -0.2123
  252MOL0     H33965   3.993   8.431   5.636  2.3426 -2.6720  2.3199
  252MOL0     H33966   3.819   8.427   5.593  2.0442  2.7075  0.7114
  252MOL0     H33967   3.801   8.240   5.760  0.8925 -1.5571  0.9572
  252MOL0     H33968   3.982   8.252   5.784 -0.1556  0.2836  0.8844
  252MOL0     H33969   3.793   8.491   5.869 -1.6283 -1.9901 -1.8307
  252MOL0     H33970   3.960   8.460   5.891 -0.0820  0.7012 -1.2997
  252MOL0     H33971   3.640   8.270   5.973  0.8494 -3.7391 -0.4883
  252MOL0     H33972   3.661   8.035   6.249 -0.2608 -0.0418  1.1424
  252MOL0     H33973   3.550   8.092   6.144  1.9111  2.9606  3.3601
  252MOL0     H33974   3.603   7.842   6.090 -0.0835  1.0606  2.6115
  252MOL0     H33975   3.766   7.886   6.077  0.5091  0.5476  1.8656
  252MOL0     H33976   3.673   7.878   5.850  1.0907 -0.6433  2.2505
  252MOL0     H33977   3.730   8.043   5.876  1.9553 -2.5411  0.6809
  252MOL0     H33978   3.482   8.090   5.928  1.6115 -0.5297  1.7057
  252MOL0     H33979   3.464   7.911   5.904  0.8850 -0.2367  0.9404
  252MOL0     H33980   3.257   7.970   5.715 -0.3542  0.8699 -3.1061
  252MOL0     H33981   3.072   7.801   5.522  1.9903  0.3040 -1.0276
  252MOL0     H33982   3.092   7.680   5.659 -1.3042  1.8224  2.4041
  252MOL0     H33983   3.082   7.854   5.689 -0.4267 -1.0809  2.2178
  252MOL0     H33984   3.424   7.439   5.144  1.5412  1.2580  3.5582
  252MOL0     H33985   3.321   7.248   5.011 -1.5978 -1.1452 -0.3207
  252MOL0     H33986   2.917   7.078   5.090  1.4674 -0.5958  3.7555
  252MOL0     H33987   2.964   7.229   5.066  1.3265  1.3917  0.8204
  252MOL0     H33988   2.932   7.187   4.841  1.8276  0.9588 -1.1186
  252MOL0     H33989   3.110   7.169   4.846 -1.1444  1.7813 -1.5481
  252MOL0     H33990   3.078   6.920   4.891 -2.8231  0.7202  2.6179
  252MOL0     H33991   3.030   6.972   4.721 -6.1205  0.4302 -1.0045
  252MOL0     H33992   2.862   6.897   4.957 -2.2739  1.5515 -0.2768
  252MOL0     H33993   2.810   7.008   4.835  2.5563  2.7465  2.2339
  252MOL0     H33994   2.897   6.707   4.800 -2.9736 -2.9078 -2.6118
  252MOL0     H33995   2.870   6.811   4.666  0.9414 -1.5967  0.6081
  252MOL0     H33996   2.688   6.755   4.908 -1.3498 -0.6980 -0.5271
  252MOL0     H33997   2.636   6.857   4.773  0.6295  1.4061  0.2681
  252MOL0     H33998   2.710   6.567   4.775  1.7224  1.0747 -1.4458
  252MOL0     H33999   2.704   6.656   4.633  0.2280 -1.7936  0.4457
  252MOL0     H34000   2.463   6.750   4.676 -1.4982 -0.4195 -1.8156
  252MOL0     H34001   2.457   6.649   4.819  0.3330  1.4535 -0.5624
  252MOL0     H34002   3.097   7.133   5.353  0.1033 -0.5460 -1.5500
  252MOL0     H34003   3.211   7.315   5.482  0.2084 -0.0477 -0.2938
  252MOL0     H34004   3.550   7.679   5.459 -1.1215  0.9382 -1.4502
  252MOL0     H34005   3.641   7.878   5.584  0.6990  1.9624  0.4700
  252MOL0     H34006   3.277   8.115   5.118  2.2593 -0.8836 -0.7475
  252MOL0     H34007   3.229   8.188   4.874  3.1413 -1.7696 -1.5063
  252MOL0     H34008   3.530   8.241   4.483 -1.4162  0.8000  2.5619
  252MOL0     H34009   3.583   8.323   4.259  2.2291 -1.1190  1.8254
  252MOL0     H34010   3.532   8.424   4.068  1.0270 -0.0820 -1.1251
  252MOL0     H34011   3.522   8.588   3.985  0.5599 -0.0350 -0.7289
  252MOL0     H34012   3.758   8.436   4.103  3.4984  1.3444  2.8054
  252MOL0     H34013   3.752   8.612   4.121  0.6728  1.5465 -2.7190
  252MOL0     H34014   3.714   8.615   3.862 -0.7933 -0.5114  0.2507
  252MOL0     H34015   3.756   8.444   3.875  0.1468  1.0633 -2.1178
  252MOL0     H34016   3.980   8.509   3.992  0.8011  2.0718  1.2654
  252MOL0     H34017   3.937   8.674   3.983  0.5287 -2.5846  2.0182
  252MOL0     H34018   4.148   8.596   3.631 -0.7223  1.0217  0.2166
  252MOL0     H34019   3.406   8.703   4.369  1.8765  0.4803 -0.6957
  252MOL0     H34020   3.370   8.620   4.608  1.8694  1.6269 -0.6731
  253MOL0     O34021   4.901   5.280   4.085  0.6638 -0.0789  0.3468
  253MOL0     C34022   4.786   5.225   4.102 -1.1107  0.4342  0.0961
  253MOL0     O34023   4.749   5.116   4.025  0.3610  0.8875 -0.7319
  253MOL0     C34024   4.807   5.111   3.894 -0.7930 -0.1075 -1.1223
  253MOL0     C34025   4.807   5.216   3.800  0.3597 -0.1783  0.1451
  253MOL0     C34026   4.860   5.187   3.670  0.0855 -0.5000  0.5355
  253MOL0     C34027   4.923   5.063   3.640  0.6384  0.6808 -0.6856
  253MOL0     O34028   4.989   5.019   3.528  0.5703 -0.5406 -0.7383
  253MOL0     C34029   4.986   5.114   3.414 -0.7888  0.8785 -0.5210
  253MOL0     C34030   5.099   5.066   3.320 -0.9571 -0.3068  0.6266
  253MOL0     C34031   5.068   4.925   3.266  0.2461  0.0543  0.3619
  253MOL0     C34032   5.163   4.877   3.149  0.3374 -0.1606 -1.0211
  253MOL0     C34033   5.104   4.808   3.023  0.2661 -0.2478 -0.1817
  253MOL0     C34034   5.207   4.813   2.912 -0.6269  0.7086 -0.3471
  253MOL0     C34035   5.320   4.713   2.936 -0.0183 -0.1640 -0.3701
  253MOL0     C34036   5.398   4.664   2.824  0.4057  0.5857 -0.1264
  253MOL0     N34037   5.487   4.548   2.874 -0.1546  0.5451  0.3529
  253MOL0     C34038   5.455   4.409   2.893  1.1354 -0.2558 -0.2437
  253MOL0     C34039   5.555   4.364   2.970  0.8778  0.3074  0.3022
  253MOL0     C34040   5.562   4.217   3.016 -0.0179 -0.2742  0.4607
  253MOL0     C34041   5.662   4.138   2.934 -1.2022 -0.0146 -0.2466
  253MOL0     C34042   5.659   3.988   2.973 -0.0297  0.4846  0.5906
  253MOL0     C34043   5.788   3.916   2.915 -0.4745 -0.7194  0.8861
  253MOL0     O34044   5.892   3.964   3.001  0.3011  1.0433  0.6712
  253MOL0     C34045   5.901   3.916   3.129  0.3387  0.6310 -0.2139
  253MOL0     C34046   5.985   3.991   3.212 -0.1807  0.5692 -0.0277
  253MOL0     C34047   6.005   3.960   3.348  0.8747  0.4355 -0.1582
  253MOL0     C34048   6.126   4.029   3.414 -0.1257 -0.5174 -0.3937
  253MOL0     C34049   5.933   3.855   3.407  0.5783  0.8870 -0.0440
  253MOL0     C34050   5.939   3.821   3.557 -0.1163 -0.1708 -1.1088
  253MOL0     O34051   5.897   3.696   3.591 -0.5410 -0.8603 -0.2173
  253MOL0     C34052   5.878   3.679   3.722  0.6499 -0.2062 -0.2274
  253MOL0     C34053   5.974   3.671   3.819  0.2542 -0.7198  0.5622
  253MOL0     C34054   5.930   3.668   3.952 -0.6194  0.3201  0.8644
  253MOL0     C34055   5.797   3.683   3.984  0.0200  0.7731 -0.2421
  253MOL0     O34056   5.728   3.676   4.108 -0.5117  0.0054  0.4016
  253MOL0     C34057   5.766   3.775   4.210  0.5375 -0.2357 -0.1136
  253MOL0     C34058   5.647   3.782   4.305  0.1426  0.2684 -0.5798
  253MOL0     C34059   5.684   3.849   4.440 -0.5239 -0.8844  1.0978
  253MOL0     C34060   5.671   4.000   4.446  0.1664  0.7008 -0.8231
  253MOL0     C34061   5.714   4.059   4.580 -0.3502 -1.3821  0.3695
  253MOL0     C34062   5.701   4.217   4.574  0.7481  0.1839  0.2421
  253MOL0     C34063   5.783   4.282   4.681 -0.0190  0.6316 -0.0747
  253MOL0     C34064   5.792   4.434   4.705 -0.6430  0.1302 -0.4100
  253MOL0    Cl34065   5.629   4.483   4.777  0.6279 -0.4693  0.2149
  253MOL0     C34066   5.706   3.679   3.881 -0.2870  0.6397  1.1421
  253MOL0     C34067   5.740   3.671   3.749  0.0251 -1.5097 -0.1854
  253MOL0     O34068   5.960   3.912   3.639 -0.1092  0.7839  0.3151
  253MOL0     C34069   5.855   3.776   3.319  0.3770  0.8084 -0.4180
  253MOL0     C34070   5.830   3.808   3.189 -0.5501  0.0693 -0.3324
  253MOL0     N34071   5.641   4.465   3.000 -0.0319 -0.1907 -0.6732
  253MOL0     N34072   5.604   4.566   2.937 -0.1673 -0.2148  0.3520
  253MOL0     C34073   4.939   4.970   3.748 -0.1706  0.4212 -0.3485
  253MOL0     C34074   4.874   4.989   3.873 -0.3180 -0.1159  0.0255
  253MOL0     C34075   4.699   5.278   4.206 -0.7109 -0.5379  0.1862
  253MOL0     C34076   4.562   5.236   4.225 -0.0718 -1.3056  0.2797
  253MOL0     C34077   4.492   5.285   4.330 -0.6353 -0.5207  0.2084
  253MOL0     C34078   4.547   5.385   4.421  0.2006  0.5130 -0.0883
  253MOL0     O34079   4.466   5.440   4.521 -0.4784  0.5506 -0.1263
  253MOL0     C34080   4.410   5.340   4.603  0.0436  0.8409 -0.3784
  253MOL0     C34081   4.352   5.383   4.726 -0.2482 -0.9659  0.0616
  253MOL0     C34082   4.262   5.512   4.731 -0.9340  0.1627 -0.4828
  253MOL0     C34083   4.128   5.479   4.667 -0.5776 -1.1382 -0.1254
  253MOL0     C34084   4.054   5.607   4.668  1.2479  0.8654  0.6770
  253MOL0     C34085   3.991   5.713   4.671 -0.8147 -0.2545 -0.4312
  253MOL0     C34086   4.678   5.428   4.404 -0.6793 -0.7073  0.3321
  253MOL0     C34087   4.757   5.362   4.302  0.2620 -0.0468 -0.0793
  253MOL0     H34088   4.757   5.311   3.815 -2.0897 -1.3296 -0.2159
  253MOL0     H34089   4.843   5.266   3.598  1.9821  1.1021  1.7465
  253MOL0     H34090   4.888   5.116   3.365  0.0748  3.2918 -2.3605
  253MOL0     H34091   5.010   5.217   3.443  2.3355  0.3716 -0.9922
  253MOL0     H34092   5.112   5.151   3.252 -0.2687  0.6163  1.8711
  253MOL0     H34093   5.191   5.064   3.378 -1.7460  0.7811  1.9741
  253MOL0     H34094   5.075   4.849   3.344 -1.6010 -1.1580 -0.5538
  253MOL0     H34095   4.966   4.918   3.227  0.6217 -1.8623 -0.3837
  253MOL0     H34096   5.209   4.974   3.129  2.7777 -0.8811  0.6078
  253MOL0     H34097   5.245   4.811   3.180  1.1645 -0.2124 -3.1526
  253MOL0     H34098   5.083   4.705   3.052 -0.9999 -0.1889 -0.8044
  253MOL0     H34099   5.021   4.870   2.989  1.4269  0.8225 -1.1752
  253MOL0     H34100   5.158   4.772   2.823  0.0395 -3.0536  0.8332
  253MOL0     H34101   5.250   4.913   2.896  0.6531 -0.0780 -2.1817
  253MOL0     H34102   5.392   4.731   3.016 -0.4799 -1.3515  0.3447
  253MOL0     H34103   5.263   4.633   2.985 -0.9095  0.7632  0.1305
  253MOL0     H34104   5.461   4.746   2.787 -0.7252  2.6043  2.1565
  253MOL0     H34105   5.333   4.616   2.751  2.0280 -1.4303 -0.3477
  253MOL0     H34106   5.363   4.357   2.867  0.5754  0.4251  0.3010
  253MOL0     H34107   5.586   4.218   3.122  3.5190  4.4354 -0.0735
  253MOL0     H34108   5.466   4.168   2.998  0.3143 -0.4053 -1.0949
  253MOL0     H34109   5.762   4.180   2.937 -2.2433  2.7887 -1.1546
  253MOL0     H34110   5.625   4.145   2.831 -0.6511  3.0764 -0.3117
  253MOL0     H34111   5.569   3.960   2.917  1.1092 -0.1785 -0.9762
  253MOL0     H34112   5.640   3.969   3.079 -3.1872 -1.6048 -0.2008
  253MOL0     H34113   5.805   3.949   2.812 -1.5016 -3.7286 -0.3771
  253MOL0     H34114   5.786   3.807   2.901  2.6645 -0.7379 -0.2263
  253MOL0     H34115   6.043   4.065   3.157  2.0746 -0.1772  1.2261
  253MOL0     H34116   6.081   4.127   3.432  0.5934  0.0504 -1.6148
  253MOL0     H34117   6.169   3.977   3.500  2.2637 -3.0507 -2.9265
  253MOL0     H34118   6.207   4.041   3.342 -1.8984 -1.3901 -2.6628
  253MOL0     H34119   6.079   3.662   3.797  0.4711  1.8437  0.2320
  253MOL0     H34120   5.998   3.692   4.032  1.8788  2.9989 -1.7865
  253MOL0     H34121   5.861   3.741   4.251  1.5238  0.9818 -1.3217
  253MOL0     H34122   5.777   3.876   4.170  0.1484 -0.3962 -0.6302
  253MOL0     H34123   5.559   3.829   4.259 -2.1116 -0.7283  2.3564
  253MOL0     H34124   5.614   3.679   4.323  2.3489 -0.2637  0.7863
  253MOL0     H34125   5.788   3.835   4.471  0.7031  4.0041 -0.1360
  253MOL0     H34126   5.612   3.801   4.509  0.8749 -0.8195  2.6717
  253MOL0     H34127   5.752   4.040   4.383  0.4451  3.6455  1.1895
  253MOL0     H34128   5.573   4.033   4.411 -0.1287 -1.2515 -1.9656
  253MOL0     H34129   5.818   4.027   4.597  1.1110  0.1056 -4.1435
  253MOL0     H34130   5.648   4.029   4.662 -2.1432 -0.4612 -0.6799
  253MOL0     H34131   5.725   4.258   4.476  3.2784  1.8182  1.4498
  253MOL0     H34132   5.598   4.246   4.595  1.1703  0.2403  2.4756
  253MOL0     H34133   5.883   4.242   4.661 -0.2390 -0.6912  1.2834
  253MOL0     H34134   5.757   4.240   4.778 -1.8257 -1.2338 -1.2770
  253MOL0     H34135   5.808   4.487   4.611 -1.9849  0.9600 -0.2047
  253MOL0     H34136   5.873   4.446   4.777  0.3786 -0.8789 -1.3420
  253MOL0     H34137   5.602   3.683   3.913 -0.0264  1.8487  1.9155
  253MOL0     H34138   5.662   3.680   3.674  0.0073 -2.0322 -0.2364
  253MOL0     H34139   5.792   3.699   3.363  1.0078 -0.5611 -1.8141
  253MOL0     H34140   5.755   3.760   3.127 -1.7810  0.3847  0.8592
  253MOL0     H34141   4.989   4.874   3.735 -0.6576  0.1169 -0.0274
  253MOL0     H34142   4.892   4.924   3.958  2.4125  1.9443  1.1685
  253MOL0     H34143   4.527   5.174   4.143  4.2509 -2.0267 -1.3261
  253MOL0     H34144   4.389   5.253   4.322 -0.5389 -0.6560 -0.5576
  253MOL0     H34145   4.347   5.266   4.552 -1.1620 -0.3993  2.6892
  253MOL0     H34146   4.499   5.288   4.639 -0.5676  0.8272  1.1828
  253MOL0     H34147   4.425   5.387   4.808 -1.0891  1.4026  0.7980
  253MOL0     H34148   4.278   5.306   4.751 -1.5880  0.7749  1.8373
  253MOL0     H34149   4.302   5.594   4.672 -1.6788 -0.7165 -2.2777
  253MOL0     H34150   4.251   5.550   4.833 -0.0828 -0.6840 -0.0546
  253MOL0     H34151   4.066   5.411   4.726  0.1221  0.3164  2.4641
  253MOL0     H34152   4.144   5.436   4.568 -0.6249  1.1723 -1.2029
  253MOL0     H34153   3.934   5.804   4.673  2.2883  1.8471 -0.8134
  253MOL0     H34154   4.714   5.508   4.467  0.3945 -0.0222 -1.0969
  253MOL0     H34155   4.862   5.388   4.300  0.8326 -2.1816 -0.7836
  254MOL0     O34156  11.081   1.229   4.763 -0.7502 -0.6472 -0.9441
  254MOL0     C34157  11.025   1.279   4.865  0.1915  1.1386 -0.1892
  254MOL0     O34158  10.936   1.381   4.867 -0.2244  0.0337  0.0820
  254MOL0     C34159  10.884   1.445   4.753  0.5524  0.4164 -0.4976
  254MOL0     C34160  10.850   1.380   4.639 -0.6494  0.7613 -0.3934
  254MOL0     C34161  10.784   1.443   4.536 -0.3374 -0.0405 -0.6293
  254MOL0     C34162  10.781   1.583   4.535 -0.4841  0.0617  0.1454
  254MOL0     O34163  10.729   1.661   4.436 -0.2777 -0.5760 -0.5519
  254MOL0     C34164  10.716   1.625   4.293 -0.5696 -0.3438 -0.3011
  254MOL0     C34165  10.724   1.749   4.213 -1.0286  0.0016  0.3424
  254MOL0     C34166  10.866   1.814   4.211 -0.0374  0.0473  0.8042
  254MOL0     C34167  10.976   1.721   4.164 -0.4846  0.3747  0.7126
  254MOL0     C34168  11.095   1.785   4.102 -0.8664 -0.6250  0.0327
  254MOL0     C34169  11.088   1.902   3.998 -0.4133  0.6656  0.1654
  254MOL0     C34170  10.983   1.901   3.890 -0.0865 -0.2752 -0.3151
  254MOL0     C34171  11.022   1.788   3.786  0.5208 -0.2067 -0.0876
  254MOL0     N34172  11.004   1.834   3.653  0.0015 -0.6347 -0.9536
  254MOL0     C34173  11.067   1.937   3.585 -0.4566  1.1482 -0.1266
  254MOL0     C34174  11.012   1.933   3.460 -0.0000 -0.3185 -0.1887
  254MOL0     C34175  11.035   2.016   3.332  0.5943  0.0392 -0.4545
  254MOL0     C34176  11.037   2.164   3.353  0.2465  0.4167  0.2966
  254MOL0     C34177  11.172   2.214   3.313 -0.9373 -0.6986 -0.1052
  254MOL0     C34178  11.179   2.371   3.334  0.6069 -0.5700  0.1898
  254MOL0     O34179  11.307   2.437   3.306  0.4531  0.5091 -0.4879
  254MOL0     C34180  11.329   2.512   3.193 -0.3339  0.4092 -0.6620
  254MOL0     C34181  11.456   2.573   3.189  0.1381 -0.7382 -1.0348
  254MOL0     C34182  11.511   2.628   3.069  0.2493  0.3958  0.8627
  254MOL0     C34183  11.651   2.676   3.070 -0.2386 -0.5864  0.0673
  254MOL0     C34184  11.417   2.651   2.953 -0.8660 -0.5998 -0.4424
  254MOL0     C34185  11.455   2.720   2.827 -0.7567 -0.1648  0.1293
  254MOL0     O34186  11.347   2.703   2.736  0.0210 -0.0304 -0.1662
  254MOL0     C34187  11.347   2.772   2.619 -0.2093  0.7220  0.3853
  254MOL0     C34188  11.372   2.911   2.611 -0.4746  0.2346 -1.1125
  254MOL0     C34189  11.356   2.975   2.487  0.6769 -0.3882  1.1579
  254MOL0     C34190  11.327   2.895   2.368  0.2010 -0.6422  0.3883
  254MOL0     O34191  11.340   2.959   2.247  0.2929  0.3596 -0.3574
  254MOL0     C34192  11.314   2.890   2.119 -0.8040  0.0979 -0.0516
  254MOL0     C34193  11.361   2.978   1.998  0.0598 -0.6922 -1.0165
  254MOL0     C34194  11.286   3.119   2.010  0.7660 -0.3059 -0.3698
  254MOL0     C34195  11.265   3.170   1.862 -0.8521  0.4764  0.1947
  254MOL0     C34196  11.398   3.216   1.780 -0.2534  0.4111  0.1639
  254MOL0     C34197  11.479   3.330   1.856  0.7553  0.0214 -1.0220
  254MOL0     C34198  11.576   3.393   1.762 -0.3310 -0.2847 -0.1703
  254MOL0     C34199  11.675   3.286   1.715  0.8166  0.0756 -0.4734
  254MOL0    Cl34200  11.749   3.185   1.848 -0.2456 -0.4781 -0.3531
  254MOL0     C34201  11.322   2.757   2.388 -0.5292 -0.1574  0.6101
  254MOL0     C34202  11.322   2.697   2.501 -0.3793  0.1130 -0.6366
  254MOL0     O34203  11.549   2.798   2.803 -0.0825  0.2929 -0.6829
  254MOL0     C34204  11.287   2.603   2.979 -1.1940 -0.6441  0.3369
  254MOL0     C34205  11.246   2.531   3.085  0.3898 -0.8310 -0.4885
  254MOL0     N34206  10.921   1.829   3.459  0.0787 -0.0791  0.9730
  254MOL0     N34207  10.907   1.791   3.571 -0.2553  0.5456  0.1498
  254MOL0     C34208  10.828   1.651   4.644  0.4441  0.5728 -0.3076
  254MOL0     C34209  10.868   1.585   4.758  0.2437  0.4487 -0.3345
  254MOL0     C34210  11.071   1.229   4.995  0.2309 -0.6858 -0.0302
  254MOL0     C34211  11.147   1.115   4.999 -0.1511 -0.0775 -0.6184
  254MOL0     C34212  11.189   1.083   5.126  0.4991 -0.1656  0.4532
  254MOL0     C34213  11.152   1.147   5.243  1.9498  0.0097  0.2233
  254MOL0     O34214  11.181   1.091   5.367  0.2327 -0.0970  0.3866
  254MOL0     C34215  11.305   1.033   5.390  0.2514 -1.0212 -0.1470
  254MOL0     C34216  11.324   1.013   5.544  0.3113 -0.3913  0.1688
  254MOL0     C34217  11.276   1.136   5.625 -0.1739  0.0505  0.3573
  254MOL0     C34218  11.390   1.225   5.669  0.1375  0.7844  0.0491
  254MOL0     C34219  11.436   1.300   5.548 -0.9929  0.3904  1.0983
  254MOL0     C34220  11.482   1.366   5.455  0.0794 -0.6985 -0.4016
  254MOL0     C34221  11.075   1.260   5.239  0.1970 -0.4623 -0.1554
  254MOL0     C34222  11.040   1.308   5.103  0.5329 -0.1970  0.1043
  254MOL0     H34223  10.850   1.272   4.649 -1.7099  0.4598 -2.9129
  254MOL0     H34224  10.756   1.366   4.464  1.4937 -2.1769  0.8114
  254MOL0     H34225  10.802   1.561   4.270  0.2314  0.3215  0.7042
  254MOL0     H34226  10.628   1.569   4.263 -0.1622  0.4756 -3.4428
  254MOL0     H34227  10.686   1.735   4.112 -1.5046 -0.8150  0.6283
  254MOL0     H34228  10.662   1.829   4.255  0.9370  1.9737 -0.3031
  254MOL0     H34229  10.864   1.908   4.156  1.3338 -1.0800 -1.2774
  254MOL0     H34230  10.895   1.851   4.310  0.5660  1.4484  0.1191
  254MOL0     H34231  11.017   1.655   4.241 -0.7922  0.0479  0.6028
  254MOL0     H34232  10.933   1.667   4.079  0.7245  2.8256 -1.6068
  254MOL0     H34233  11.162   1.824   4.179 -3.5185  2.9804  0.8015
  254MOL0     H34234  11.145   1.705   4.047  0.2384  1.3539 -2.0171
  254MOL0     H34235  11.070   1.998   4.047  1.8711  0.2502  2.0279
  254MOL0     H34236  11.182   1.922   3.946 -0.1325 -0.2480  0.2908
  254MOL0     H34237  10.888   1.872   3.934  1.4026 -2.0726  1.9412
  254MOL0     H34238  10.985   2.002   3.847  2.3589  1.8628  4.1170
  254MOL0     H34239  10.972   1.690   3.784  0.1149 -0.0242 -2.6508
  254MOL0     H34240  11.129   1.768   3.789  0.8375  0.6082 -3.1134
  254MOL0     H34241  11.152   1.998   3.616 -0.1322 -0.1142  1.6398
  254MOL0     H34242  11.122   1.968   3.287  0.2597 -2.3466  1.2395
  254MOL0     H34243  10.951   2.000   3.265 -0.6213 -1.7116  1.3723
  254MOL0     H34244  11.008   2.201   3.452 -1.2324 -1.7843  0.7425
  254MOL0     H34245  10.967   2.207   3.282 -1.9747  2.1309  3.2595
  254MOL0     H34246  11.212   2.188   3.215  1.9207 -3.7533  1.6640
  254MOL0     H34247  11.252   2.174   3.376 -0.0340  0.5956 -0.3951
  254MOL0     H34248  11.160   2.394   3.439  2.5195  2.9020 -0.0591
  254MOL0     H34249  11.099   2.418   3.276  0.3990  0.2722  1.1390
  254MOL0     H34250  11.522   2.553   3.273 -1.2482  1.3635  0.6517
  254MOL0     H34251  11.704   2.654   3.163 -0.2986 -0.3988  0.1472
  254MOL0     H34252  11.717   2.650   2.987  0.2288 -0.6270  0.4478
  254MOL0     H34253  11.655   2.785   3.081 -4.7290 -0.3207  1.0241
  254MOL0     H34254  11.385   2.964   2.705  0.9503 -0.6896 -0.7507
  254MOL0     H34255  11.374   3.082   2.482  1.0021 -0.4826 -0.3008
  254MOL0     H34256  11.370   2.796   2.119 -5.5053 -3.0703  1.8841
  254MOL0     H34257  11.211   2.857   2.104 -0.0872 -2.8497  0.7538
  254MOL0     H34258  11.470   2.980   1.990 -0.0650 -1.3377 -3.6507
  254MOL0     H34259  11.335   2.936   1.900 -0.9638  0.3939 -1.2280
  254MOL0     H34260  11.342   3.193   2.069  1.1999  0.4434 -1.6597
  254MOL0     H34261  11.190   3.101   2.057  0.9636 -0.3266  0.0314
  254MOL0     H34262  11.208   3.093   1.810  0.0417  1.2409 -2.0746
  254MOL0     H34263  11.207   3.263   1.858 -2.3517 -0.4594 -0.5933
  254MOL0     H34264  11.353   3.249   1.686 -1.4599  3.0780  1.5625
  254MOL0     H34265  11.465   3.129   1.775  3.9375  3.3611 -0.2615
  254MOL0     H34266  11.413   3.404   1.902  3.8703 -0.5622  5.5493
  254MOL0     H34267  11.533   3.282   1.939 -1.2539  0.3704  0.5618
  254MOL0     H34268  11.633   3.473   1.809 -0.3089 -0.7573  0.6175
  254MOL0     H34269  11.522   3.430   1.674  0.2303  0.7650 -0.0893
  254MOL0     H34270  11.755   3.345   1.671 -0.3091  2.4691  0.4984
  254MOL0     H34271  11.636   3.209   1.648  1.2072 -2.1137  1.6650
  254MOL0     H34272  11.313   2.696   2.299  0.2286 -0.3128  0.6279
  254MOL0     H34273  11.317   2.588   2.504 -3.3045  0.1873  0.4732
  254MOL0     H34274  11.205   2.613   2.909 -0.2573 -0.5850 -0.7800
  254MOL0     H34275  11.148   2.485   3.070  1.3622 -2.8057 -1.1208
  254MOL0     H34276  10.833   1.759   4.651  0.0912  0.5341  0.8403
  254MOL0     H34277  10.894   1.644   4.844  0.1413 -0.1565  0.1219
  254MOL0     H34278  11.182   1.053   4.918  1.2036  0.2204 -0.2834
  254MOL0     H34279  11.257   0.998   5.122 -0.0488 -0.6308  0.8796
  254MOL0     H34280  11.314   0.932   5.349 -3.1957 -0.6482 -2.1395
  254MOL0     H34281  11.382   1.090   5.338 -1.5331  0.3615 -1.3883
  254MOL0     H34282  11.428   0.999   5.573  0.9752  1.8280 -0.8601
  254MOL0     H34283  11.271   0.920   5.567  0.5411 -1.4360 -3.0207
  254MOL0     H34284  11.227   1.099   5.715 -1.7408 -1.4681 -1.0731
  254MOL0     H34285  11.198   1.192   5.573 -2.0443 -2.5858  0.1357
  254MOL0     H34286  11.469   1.184   5.733 -2.8374 -1.6262  2.4502
  254MOL0     H34287  11.335   1.297   5.730  0.5788  0.9898  0.2088
  254MOL0     H34288  11.528   1.419   5.374 -2.2573  2.0400 -0.1021
  254MOL0     H34289  11.049   1.311   5.330  0.1524  2.3597 -1.6379
  254MOL0     H34290  10.972   1.392   5.093  1.8556  0.8944 -0.0939
  255MOL0     O34291   9.301   3.316   5.601  0.2815 -1.0717  0.2298
  255MOL0     C34292   9.299   3.329   5.720  0.7148 -0.3346  0.0091
  255MOL0     O34293   9.215   3.250   5.803 -1.0972  0.3419 -0.9094
  255MOL0     C34294   9.124   3.170   5.734 -0.3139  0.2651 -0.1961
  255MOL0     C34295   8.988   3.181   5.749 -0.2272 -1.0986  0.1148
  255MOL0     C34296   8.900   3.084   5.700  1.0696 -0.3355  0.3179
  255MOL0     C34297   8.947   2.977   5.621  0.3096  0.0711  0.0190
  255MOL0     O34298   8.862   2.897   5.548  0.1480  0.2304  0.2526
  255MOL0     C34299   8.752   2.832   5.615 -0.3421 -0.2049  1.2129
  255MOL0     C34300   8.807   2.747   5.741 -0.4265 -1.4288 -0.1894
  255MOL0     C34301   8.751   2.604   5.762  1.0407 -0.5306 -0.1927
  255MOL0     C34302   8.594   2.620   5.764  0.4858  0.3298  0.6019
  255MOL0     C34303   8.531   2.483   5.793 -0.1259 -1.1473  0.1158
  255MOL0     C34304   8.541   2.453   5.941  0.0069  0.9133 -0.4215
  255MOL0     C34305   8.404   2.402   5.986  0.2186 -0.6051 -1.0541
  255MOL0     C34306   8.405   2.305   6.107 -0.4289  0.0611 -0.1874
  255MOL0     N34307   8.478   2.364   6.221 -0.2225 -0.7827  1.1398
  255MOL0     C34308   8.416   2.439   6.315 -0.2184 -0.0293 -0.4747
  255MOL0     C34309   8.516   2.495   6.395 -0.0100  0.6478 -0.8702
  255MOL0     C34310   8.500   2.596   6.494  0.8342 -0.3129 -0.1527
  255MOL0     C34311   8.455   2.526   6.625  2.4571 -0.0102  0.4222
  255MOL0     C34312   8.552   2.428   6.688  0.5890  0.6096 -0.1098
  255MOL0     C34313   8.541   2.418   6.847  0.4367 -0.2492  0.2382
  255MOL0     O34314   8.435   2.489   6.917  0.1056 -0.2101 -0.2648
  255MOL0     C34315   8.366   2.413   6.998 -0.5457 -0.0835 -0.4299
  255MOL0     C34316   8.246   2.347   6.976  0.1570  0.4882  0.4436
  255MOL0     C34317   8.179   2.259   7.068 -1.1729 -1.0279 -0.7533
  255MOL0     C34318   8.042   2.219   7.034  0.6873  0.2692 -0.1287
  255MOL0     C34319   8.245   2.228   7.198 -0.1458 -0.1437  0.8510
  255MOL0     C34320   8.204   2.129   7.301 -0.0199  0.8051 -0.4840
  255MOL0     O34321   8.253   2.143   7.432  0.6185 -0.6036 -0.4441
  255MOL0     C34322   8.221   2.049   7.528  0.1984 -0.2550  0.5164
  255MOL0     C34323   8.312   1.946   7.546  0.4255 -0.5167  0.2962
  255MOL0     C34324   8.294   1.848   7.639  0.2504 -0.8335  0.8444
  255MOL0     C34325   8.190   1.850   7.733 -0.2270  0.3748  0.1442
  255MOL0     O34326   8.172   1.750   7.820  0.1899  0.1283  0.0258
  255MOL0     C34327   8.045   1.727   7.872 -0.6800 -0.8707  0.1039
  255MOL0     C34328   8.067   1.640   7.998  0.1871 -0.0738  0.2320
  255MOL0     C34329   8.138   1.516   7.958  0.6211  0.1145 -0.2216
  255MOL0     C34330   8.136   1.421   8.079  0.5568  0.3711 -0.5613
  255MOL0     C34331   8.192   1.284   8.049 -0.4534 -0.6801 -0.5957
  255MOL0     C34332   8.145   1.217   7.922 -0.0944  0.8946  0.3004
  255MOL0     C34333   8.183   1.071   7.930  0.0051 -0.5858 -1.0518
  255MOL0     C34334   8.111   0.986   7.829  1.0330 -0.9009 -0.1423
  255MOL0    Cl34335   8.121   0.811   7.879  0.3076 -0.2831  0.3302
  255MOL0     C34336   8.115   1.962   7.722  1.1472 -0.2751 -0.0407
  255MOL0     C34337   8.120   2.053   7.618  0.0967  0.8511  1.3798
  255MOL0     O34338   8.141   2.034   7.260  0.3861 -0.7168  0.2883
  255MOL0     C34339   8.368   2.292   7.213  0.3307 -1.2341 -1.1085
  255MOL0     C34340   8.425   2.379   7.127  0.3276 -0.8661  0.5474
  255MOL0     N34341   8.629   2.436   6.350  0.1614  0.4210 -0.7802
  255MOL0     N34342   8.610   2.355   6.251 -0.3076  0.4315  1.3156
  255MOL0     C34343   9.082   2.978   5.587  0.0200 -0.3424 -0.4878
  255MOL0     C34344   9.173   3.065   5.651  1.1052  0.1419  0.7424
  255MOL0     C34345   9.411   3.403   5.794  0.8440  0.2570  0.0252
  255MOL0     C34346   9.392   3.422   5.932  0.0720  0.2561  0.1997
  255MOL0     C34347   9.488   3.501   6.000 -0.4050  0.1240  0.4266
  255MOL0     C34348   9.604   3.563   5.932  0.1185 -0.0386  0.2528
  255MOL0     O34349   9.697   3.642   5.986 -0.0144 -0.2001  0.0090
  255MOL0     C34350   9.674   3.696   6.118  0.3917 -0.0695 -0.3599
  255MOL0     C34351   9.747   3.824   6.161 -0.6137 -0.3982 -0.4900
  255MOL0     C34352   9.674   3.956   6.133 -0.3817 -0.5909 -0.2451
  255MOL0     C34353   9.654   3.986   5.984  0.2674 -0.3861 -0.6154
  255MOL0     C34354   9.566   4.098   5.962 -0.0967  0.3454 -0.1702
  255MOL0     C34355   9.509   4.200   5.939 -0.2840 -0.2525  0.8662
  255MOL0     C34356   9.617   3.538   5.795  0.6145 -0.3667 -0.0115
  255MOL0     C34357   9.514   3.455   5.731 -0.5427 -0.0762  0.6800
  255MOL0     H34358   8.954   3.257   5.818  1.2486  1.3911 -1.7497
  255MOL0     H34359   8.798   3.100   5.733  1.2162  1.8805 -0.1409
  255MOL0     H34360   8.674   2.903   5.643  0.2799  0.4691  1.2740
  255MOL0     H34361   8.711   2.765   5.539 -0.5444  0.5028  0.6894
  255MOL0     H34362   8.914   2.734   5.723  0.9733  2.0450  3.9269
  255MOL0     H34363   8.816   2.805   5.833  0.2791  0.2705 -1.2893
  255MOL0     H34364   8.791   2.539   5.684  0.4844 -1.3428  0.1838
  255MOL0     H34365   8.787   2.553   5.852  0.2274 -0.7576  0.0122
  255MOL0     H34366   8.563   2.689   5.843  0.5237 -1.3922  2.1834
  255MOL0     H34367   8.547   2.649   5.669 -1.5830  0.0413  1.4733
  255MOL0     H34368   8.426   2.499   5.766 -0.2073 -0.2950  0.8868
  255MOL0     H34369   8.571   2.399   5.735 -2.3131 -0.3349 -2.7698
  255MOL0     H34370   8.609   2.368   5.950  2.1173  2.5509 -0.0398
  255MOL0     H34371   8.578   2.531   6.007 -2.8963  1.6171  0.5063
  255MOL0     H34372   8.345   2.490   6.015 -2.8539 -3.5562  2.7529
  255MOL0     H34373   8.344   2.354   5.909 -0.4297  1.8729 -2.2112
  255MOL0     H34374   8.473   2.226   6.072  1.1726  1.4435 -0.3777
  255MOL0     H34375   8.308   2.263   6.133 -0.2443  0.6752  1.6414
  255MOL0     H34376   8.323   2.493   6.313  0.0287  0.3951 -1.8818
  255MOL0     H34377   8.588   2.660   6.510 -1.0435  3.8978 -4.2899
  255MOL0     H34378   8.435   2.675   6.457  0.5277 -0.5691 -0.1642
  255MOL0     H34379   8.359   2.474   6.617  1.9374  0.7891  1.2469
  255MOL0     H34380   8.435   2.614   6.687  1.8738  3.4960 -4.2560
  255MOL0     H34381   8.653   2.466   6.671  0.9453 -1.0775 -2.1412
  255MOL0     H34382   8.552   2.332   6.636  2.0812  2.0767 -3.0590
  255MOL0     H34383   8.644   2.447   6.866  1.2506 -1.7421 -1.6023
  255MOL0     H34384   8.538   2.309   6.858  0.7399 -0.3288 -0.4270
  255MOL0     H34385   8.212   2.374   6.877 -0.9969  0.7779  0.9084
  255MOL0     H34386   7.992   2.298   6.979  0.7482 -0.2816 -1.0035
  255MOL0     H34387   8.034   2.131   6.969 -0.2976 -0.9222  1.5165
  255MOL0     H34388   7.975   2.194   7.117  1.8016  0.1002  0.7545
  255MOL0     H34389   8.407   1.941   7.494  1.1523  1.0493  1.3768
  255MOL0     H34390   8.367   1.767   7.643  1.4473  0.2633  3.0626
  255MOL0     H34391   7.988   1.816   7.899  0.0843 -0.8078  1.6776
  255MOL0     H34392   7.980   1.677   7.800  0.5944  2.4837 -3.7186
  255MOL0     H34393   8.121   1.694   8.076  0.9097 -2.3197  1.3631
  255MOL0     H34394   7.961   1.623   8.022 -0.3229  0.1461 -1.6640
  255MOL0     H34395   8.242   1.542   7.936  0.2884  0.5505 -1.3507
  255MOL0     H34396   8.093   1.469   7.870  1.0526  3.2248 -2.2800
  255MOL0     H34397   8.200   1.477   8.149  2.3495 -0.1723 -1.6829
  255MOL0     H34398   8.040   1.415   8.131  2.3302 -1.6417  2.8818
  255MOL0     H34399   8.147   1.239   8.138  0.5774  2.2755  1.5666
  255MOL0     H34400   8.301   1.277   8.056 -0.2236  2.9493  2.4681
  255MOL0     H34401   8.037   1.231   7.916 -0.0548  1.1382 -5.2229
  255MOL0     H34402   8.193   1.266   7.836  1.4540  2.0426  1.7306
  255MOL0     H34403   8.145   1.027   8.023  2.4588  0.0067  0.3574
  255MOL0     H34404   8.292   1.063   7.917 -0.0403 -0.8660 -1.2651
  255MOL0     H34405   8.167   0.986   7.735  1.6202  0.3890  0.1836
  255MOL0     H34406   8.005   1.015   7.819 -0.0503 -3.3524  2.8063
  255MOL0     H34407   8.043   1.997   7.796  0.3015 -1.7774 -0.1271
  255MOL0     H34408   8.042   2.128   7.619 -3.0259 -2.1045 -0.5829
  255MOL0     H34409   8.411   2.268   7.310 -1.0098  0.9321  0.1070
  255MOL0     H34410   8.526   2.409   7.155  0.0896  2.1745 -1.3536
  255MOL0     H34411   9.115   2.909   5.510 -0.1481  1.1376 -1.9662
  255MOL0     H34412   9.279   3.057   5.632  1.4114 -0.9449  2.6427
  255MOL0     H34413   9.314   3.375   5.991 -1.0696  3.0560  1.0896
  255MOL0     H34414   9.471   3.514   6.106 -2.6155  0.3333  0.0982
  255MOL0     H34415   9.569   3.725   6.131  0.7181  2.0711 -1.9848
  255MOL0     H34416   9.699   3.615   6.187 -0.8435  1.5812  2.1871
  255MOL0     H34417   9.848   3.822   6.120  1.1602  0.2098  3.3833
  255MOL0     H34418   9.746   3.815   6.270 -2.7867 -4.8004 -0.6556
  255MOL0     H34419   9.728   4.043   6.173  2.5353 -2.4809  0.2183
  255MOL0     H34420   9.580   3.973   6.187  0.5564  0.0202  1.2642
  255MOL0     H34421   9.600   3.902   5.940  3.1872 -2.4085 -0.6045
  255MOL0     H34422   9.750   3.993   5.933  1.0540 -2.4423  0.4710
  255MOL0     H34423   9.456   4.293   5.933 -1.4201 -0.7082  2.9048
  255MOL0     H34424   9.696   3.573   5.729 -0.4284 -0.5957 -1.4373
  255MOL0     H34425   9.532   3.416   5.632 -0.5250 -2.2028  1.4880
  256MOL0     O34426  10.722   8.813   0.204  0.2018 -0.6554 -1.2811
  256MOL0     C34427  10.800   8.721   0.207 -0.0754  0.5307  1.2991
  256MOL0     O34428  10.875   8.670   0.090  0.5771  0.0500 -0.4745
  256MOL0     C34429  10.858   8.730  -0.042 -0.1704  0.2005 -0.0113
  256MOL0     C34430  10.881   8.635  -0.134  1.1205 -0.1227 -0.0872
  256MOL0     C34431  10.882   8.676  -0.265 -0.1892  0.4866  0.4754
  256MOL0     C34432  10.839   8.795  -0.312  0.4119 -0.2430  0.6079
  256MOL0     O34433  10.818   8.821  -0.443 -0.2039  1.0051 -0.0097
  256MOL0     C34434  10.904   8.773  -0.541  0.0968  0.4093 -0.4126
  256MOL0     C34435  11.041   8.819  -0.550 -0.6738 -0.1151 -0.3255
  256MOL0     C34436  11.080   8.958  -0.613  0.5576  0.2186 -0.5128
  256MOL0     C34437  11.097   9.067  -0.496  0.7667 -0.4021 -0.4697
  256MOL0     C34438  11.164   9.186  -0.559 -0.4477 -0.5256  0.1485
  256MOL0     C34439  11.315   9.159  -0.595  0.0963  0.6227  0.2226
  256MOL0     C34440  11.407   9.284  -0.587  0.1744  0.1824  0.3664
  256MOL0     C34441  11.503   9.270  -0.468  0.1751  0.1333 -0.2602
  256MOL0     N34442  11.434   9.261  -0.339 -0.5594 -0.0269 -0.2450
  256MOL0     C34443  11.457   9.152  -0.258  0.4415  0.6943  0.5475
  256MOL0     C34444  11.383   9.180  -0.146 -0.4034  0.0125  0.5707
  256MOL0     C34445  11.387   9.088  -0.039  0.1972  0.8565 -0.0269
  256MOL0     C34446  11.282   8.973  -0.072  0.1367  1.0321 -0.2941
  256MOL0     C34447  11.347   8.834  -0.036  0.1532  1.0396  0.8944
  256MOL0     C34448  11.284   8.717  -0.107 -0.9339  0.1020  0.0358
  256MOL0     O34449  11.268   8.607  -0.013  0.0590 -0.7677  0.0301
  256MOL0     C34450  11.229   8.491  -0.055 -0.4715  1.5846 -0.7387
  256MOL0     C34451  11.204   8.445  -0.184 -0.2014 -0.0411  0.9016
  256MOL0     C34452  11.168   8.309  -0.215  0.1916 -0.7004 -0.3809
  256MOL0     C34453  11.152   8.276  -0.358 -0.2196  0.6835  0.2002
  256MOL0     C34454  11.171   8.210  -0.106  0.1247 -0.1076  1.0261
  256MOL0     C34455  11.148   8.061  -0.128  0.4129  0.0362  0.0763
  256MOL0     O34456  11.206   7.978  -0.035 -0.3007  0.8232  0.0271
  256MOL0     C34457  11.198   7.841  -0.060 -0.2015  0.5413  0.8699
  256MOL0     C34458  11.084   7.771  -0.033 -0.9186  0.0165 -0.3789
  256MOL0     C34459  11.070   7.635  -0.071  0.6439 -0.4011 -0.4550
  256MOL0     C34460  11.188   7.567  -0.109  0.0044 -0.9255  0.4000
  256MOL0     O34461  11.183   7.427  -0.119  0.2503  0.5099  0.1153
  256MOL0     C34462  11.302   7.363  -0.063  0.3454  0.1078  0.5389
  256MOL0     C34463  11.266   7.217  -0.036  0.7181  0.8417 -0.4251
  256MOL0     C34464  11.176   7.191   0.093 -0.3762  0.2547 -0.2500
  256MOL0     C34465  11.152   7.040   0.118  0.5817  1.1329  0.6716
  256MOL0     C34466  11.070   7.030   0.247  0.0785  0.7645 -0.6174
  256MOL0     C34467  11.034   6.887   0.287 -0.4894  0.7450  0.6743
  256MOL0     C34468  10.993   6.892   0.434  0.3171 -0.5728 -0.1038
  256MOL0     C34469  10.952   6.753   0.489 -0.3968  0.1681 -0.1765
  256MOL0    Cl34470  10.814   6.755   0.600 -0.8745 -0.2726 -0.0504
  256MOL0     C34471  11.312   7.638  -0.118  0.7419 -0.0104  0.1649
  256MOL0     C34472  11.313   7.781  -0.094 -0.2474  0.0882 -0.1813
  256MOL0     O34473  11.108   8.025  -0.237 -0.1761  0.3344 -0.4305
  256MOL0     C34474  11.181   8.255   0.017 -0.6953 -0.5749 -0.0885
  256MOL0     C34475  11.200   8.393   0.048 -1.0771 -0.4271  0.0641
  256MOL0     N34476  11.332   9.306  -0.154 -0.3226 -0.2680 -0.6964
  256MOL0     N34477  11.362   9.358  -0.271 -0.2368 -0.4142  0.6625
  256MOL0     C34478  10.797   8.881  -0.221  0.3499 -0.0998 -0.0756
  256MOL0     C34479  10.815   8.855  -0.083  0.3712  0.7526 -0.3547
  256MOL0     C34480  10.829   8.646   0.332  0.7748  0.5987  1.0774
  256MOL0     C34481  10.762   8.672   0.453 -0.5093  0.4125 -0.6185
  256MOL0     C34482  10.795   8.601   0.566  0.2909  0.6806 -0.0859
  256MOL0     C34483  10.888   8.499   0.567 -0.2839  0.4526  0.2342
  256MOL0     O34484  10.902   8.434   0.682  0.4451  0.0498  0.1289
  256MOL0     C34485  10.976   8.321   0.684 -0.6342 -0.3467 -0.3770
  256MOL0     C34486  10.997   8.245   0.814  0.6961 -0.2827 -0.0826
  256MOL0     C34487  11.075   8.325   0.907  0.4267  0.3438 -0.6718
  256MOL0     C34488  11.077   8.248   1.047 -0.1869 -0.0034  0.4675
  256MOL0     C34489  11.092   8.106   1.053  0.7712 -1.4373 -0.6241
  256MOL0     C34490  11.106   7.990   1.060  0.5362 -0.1714 -0.1707
  256MOL0     C34491  10.960   8.475   0.447  0.1296 -0.2995 -0.1615
  256MOL0     C34492  10.928   8.545   0.334 -0.7902  1.3786  0.0394
  256MOL0     H34493  10.916   8.535  -0.113  2.6234  0.7728  2.0357
  256MOL0     H34494  10.918   8.598  -0.332  0.4622  2.2926 -1.3665
  256MOL0     H34495  10.904   8.664  -0.533 -1.5934 -0.0163 -4.2212
  256MOL0     H34496  10.856   8.792  -0.637  1.2666  1.8812 -0.7462
  256MOL0     H34497  11.090   8.804  -0.453  1.1431  1.6010 -0.9257
  256MOL0     H34498  11.091   8.746  -0.613  0.0103  0.4485 -0.4426
  256MOL0     H34499  11.173   8.949  -0.669  0.4216 -1.4119 -0.5307
  256MOL0     H34500  11.000   8.982  -0.684 -1.2562 -3.5334  0.0217
  256MOL0     H34501  10.995   9.089  -0.463  2.0916  2.2513  2.4855
  256MOL0     H34502  11.149   9.051  -0.401 -0.8010  0.0780  0.5143
  256MOL0     H34503  11.111   9.213  -0.651  0.0665  1.5743  0.4020
  256MOL0     H34504  11.164   9.268  -0.486 -0.2804  1.6620 -2.1891
  256MOL0     H34505  11.359   9.083  -0.530  3.2789  0.8347 -1.5120
  256MOL0     H34506  11.316   9.118  -0.697  1.6555 -1.8044  1.1399
  256MOL0     H34507  11.451   9.308  -0.684 -0.1840  5.1861  1.1678
  256MOL0     H34508  11.350   9.372  -0.556  1.4282  0.1937  2.9174
  256MOL0     H34509  11.571   9.356  -0.469  0.2489  0.0769 -1.7277
  256MOL0     H34510  11.557   9.177  -0.489  0.4011  0.5453 -1.6086
  256MOL0     H34511  11.520   9.064  -0.268  2.4573  2.2993 -1.4646
  256MOL0     H34512  11.489   9.048  -0.035 -0.1648 -0.0084  0.8935
  256MOL0     H34513  11.379   9.145   0.054  1.3884  2.0408 -0.6137
  256MOL0     H34514  11.250   8.974  -0.177 -0.7778  3.2479 -0.0374
  256MOL0     H34515  11.193   8.992  -0.012 -0.6592  3.0636 -2.0113
  256MOL0     H34516  11.345   8.809   0.071 -1.0222 -1.3378  0.3996
  256MOL0     H34517  11.451   8.835  -0.068 -0.1979 -1.5396 -0.6485
  256MOL0     H34518  11.354   8.696  -0.188  1.9731 -1.9273  2.8336
  256MOL0     H34519  11.184   8.745  -0.142 -1.6519 -0.2535  1.7240
  256MOL0     H34520  11.232   8.516  -0.261  2.6317  1.6388  3.2509
  256MOL0     H34521  11.160   8.370  -0.412  0.8481 -0.2015 -1.2628
  256MOL0     H34522  11.236   8.210  -0.381 -1.1927 -0.2706 -0.7344
  256MOL0     H34523  11.054   8.236  -0.388 -2.1735  4.4005  0.9673
  256MOL0     H34524  11.003   7.823   0.017 -2.1695 -4.5515  2.9174
  256MOL0     H34525  10.980   7.574  -0.073  1.1364 -1.1416 -2.2078
  256MOL0     H34526  11.393   7.365  -0.124  0.3975 -4.2530  0.1364
  256MOL0     H34527  11.330   7.407   0.033  2.1500 -0.4176  0.2965
  256MOL0     H34528  11.219   7.174  -0.125  2.1573 -0.0531 -0.8020
  256MOL0     H34529  11.360   7.163  -0.019  1.1810  0.9221 -2.4426
  256MOL0     H34530  11.081   7.239   0.069  0.3392  1.0334 -1.7144
  256MOL0     H34531  11.226   7.234   0.180  3.3138 -3.3670 -0.2818
  256MOL0     H34532  11.101   6.995   0.032  0.8150  1.7249  0.2213
  256MOL0     H34533  11.246   6.986   0.125 -0.0221 -0.2451 -1.0256
  256MOL0     H34534  10.973   7.080   0.246  1.1550  3.4360  3.6570
  256MOL0     H34535  11.119   7.076   0.333 -0.9350  0.8908 -0.0876
  256MOL0     H34536  10.959   6.847   0.219  0.5857  0.6606 -0.5107
  256MOL0     H34537  11.117   6.824   0.253 -1.2704  0.8217 -1.5516
  256MOL0     H34538  10.899   6.947   0.439  1.1976  0.9050  0.8718
  256MOL0     H34539  11.057   6.947   0.503 -0.2448  3.4502 -2.4641
  256MOL0     H34540  11.038   6.710   0.540  1.8065  1.3748 -2.6443
  256MOL0     H34541  10.923   6.679   0.413 -0.3285 -1.4961  1.3525
  256MOL0     H34542  11.406   7.594  -0.149  1.2541  0.4903  0.9579
  256MOL0     H34543  11.395   7.851  -0.106 -1.3820  2.3619  3.5540
  256MOL0     H34544  11.146   8.211   0.110 -0.3978  0.1044  0.3551
  256MOL0     H34545  11.214   8.423   0.151  0.7082  2.4924 -0.8874
  256MOL0     H34546  10.750   8.969  -0.264 -0.4884 -0.3859  0.2254
  256MOL0     H34547  10.768   8.915  -0.006  0.5202 -3.5213  3.5289
  256MOL0     H34548  10.680   8.743   0.459 -2.5184 -1.8523  3.2438
  256MOL0     H34549  10.735   8.629   0.652 -1.0581 -1.9274 -0.0940
  256MOL0     H34550  10.929   8.249   0.617 -0.4828 -0.9408  0.1520
  256MOL0     H34551  11.075   8.340   0.641 -0.9940 -0.1123 -1.1292
  256MOL0     H34552  11.041   8.146   0.805 -0.8499 -1.0212  0.0951
  256MOL0     H34553  10.898   8.227   0.858 -0.0918  1.5230 -0.9923
  256MOL0     H34554  11.026   8.419   0.932  1.2944  1.2645 -2.2472
  256MOL0     H34555  11.178   8.337   0.872  0.1825 -3.4251 -3.3145
  256MOL0     H34556  10.989   8.277   1.104 -0.3839 -1.0822  0.7299
  256MOL0     H34557  11.154   8.304   1.101 -2.9843  4.6289  0.2162
  256MOL0     H34558  11.111   7.883   1.055 -2.6855 -0.3710 -1.3906
  256MOL0     H34559  11.026   8.389   0.441  0.0237 -0.3425 -0.7223
  256MOL0     H34560  10.987   8.531   0.244  1.2502  0.6701  1.4036
  257MOL0     O34561  10.055   7.566   7.869  0.8184 -0.8844  0.3842
  257MOL0     C34562  10.016   7.497   7.777  0.4312  0.2038 -0.5172
  257MOL0     O34563   9.927   7.533   7.685 -0.2143  0.3401  0.1395
  257MOL0     C34564   9.862   7.653   7.673 -0.5015  0.2758 -0.1682
  257MOL0     C34565   9.916   7.777   7.694  0.1509 -0.5484  0.5217
  257MOL0     C34566   9.832   7.891   7.685  0.2446 -0.8022  0.1978
  257MOL0     C34567   9.696   7.883   7.673 -0.4183  0.2570 -0.6315
  257MOL0     O34568   9.621   7.990   7.709  0.3722  1.4375 -0.1921
  257MOL0     C34569   9.586   8.073   7.598  0.6189  0.1650 -0.6904
  257MOL0     C34570   9.642   8.211   7.623  1.0661 -0.2735  0.7890
  257MOL0     C34571   9.652   8.286   7.489  0.3474 -0.1167  0.5477
  257MOL0     C34572   9.704   8.429   7.505 -0.0962  0.3003 -0.8465
  257MOL0     C34573   9.735   8.499   7.376 -0.0735 -0.4773  0.3183
  257MOL0     C34574   9.841   8.419   7.291  0.4604 -1.0558  0.0088
  257MOL0     C34575   9.896   8.486   7.168  0.4017  0.4381 -0.1495
  257MOL0     C34576  10.001   8.592   7.197 -0.5561  1.4919  0.5379
  257MOL0     N34577  10.069   8.639   7.074 -0.5986 -0.3387 -0.5060
  257MOL0     C34578  10.205   8.662   7.062  0.2280  0.5648  0.1446
  257MOL0     C34579  10.227   8.705   6.933  0.3833 -0.4662 -0.6220
  257MOL0     C34580  10.368   8.734   6.869  0.0786  0.5346 -0.6069
  257MOL0     C34581  10.371   8.814   6.740  1.0992 -1.0660  0.2220
  257MOL0     C34582  10.278   8.938   6.744 -0.4024 -0.4992 -0.2862
  257MOL0     C34583  10.268   8.980   6.604  0.7036  1.0460 -0.7274
  257MOL0     O34584  10.387   9.048   6.560 -0.2443  0.2487 -0.3462
  257MOL0     C34585  10.398   9.097   6.432 -0.5794 -0.2446  0.3112
  257MOL0     C34586  10.307   9.192   6.382 -0.1736  0.1003 -0.6746
  257MOL0     C34587  10.310   9.228   6.245  0.7369  0.0538  0.0096
  257MOL0     C34588  10.193   9.324   6.197  0.6504  0.6811 -0.1995
  257MOL0     C34589  10.417   9.180   6.169  0.6054  0.3890  1.0980
  257MOL0     C34590  10.430   9.208   6.018  0.5960  0.2889  0.3521
  257MOL0     O34591  10.530   9.137   5.953  0.0003  0.6528  0.4085
  257MOL0     C34592  10.550   9.163   5.815 -0.4005  0.6304 -0.1807
  257MOL0     C34593  10.625   9.265   5.765 -1.1068  0.0787 -0.2113
  257MOL0     C34594  10.666   9.261   5.634 -0.8656 -0.1515 -0.1431
  257MOL0     C34595  10.634   9.154   5.540  0.2553  0.1321 -0.4866
  257MOL0     O34596  10.669   9.121   5.412 -0.6051 -0.5175  0.0458
  257MOL0     C34597  10.758   9.215   5.355 -0.0519  0.3620  0.2250
  257MOL0     C34598  10.897   9.184   5.411 -0.7312  0.2693 -0.3718
  257MOL0     C34599  10.999   9.244   5.308 -0.7193 -0.4728  0.3252
  257MOL0     C34600  11.020   9.145   5.194 -0.2317 -0.5018  0.1509
  257MOL0     C34601  11.083   9.223   5.080 -0.4651  0.6167 -1.1048
  257MOL0     C34602  11.171   9.144   4.986  0.0919  0.3057  0.6448
  257MOL0     C34603  11.211   9.237   4.862  0.3439  0.0805 -0.9329
  257MOL0     C34604  11.297   9.164   4.759  0.5377  0.1421  1.0983
  257MOL0    Cl34605  11.191   9.096   4.629  0.1200  0.4186  0.7617
  257MOL0     C34606  10.535   9.067   5.589 -0.1588  0.1632  0.4495
  257MOL0     C34607  10.494   9.071   5.727 -0.9283  0.2331 -0.6191
  257MOL0     O34608  10.342   9.280   5.965 -0.1034  0.4819  1.1091
  257MOL0     C34609  10.501   9.073   6.216  0.0808 -0.2441  0.2469
  257MOL0     C34610  10.501   9.044   6.353  0.0152  0.5165 -1.1937
  257MOL0     N34611  10.109   8.684   6.867  0.4998 -0.6858  0.4175
  257MOL0     N34612  10.014   8.655   6.948 -0.3348  0.0395  1.2119
  257MOL0     C34613   9.638   7.755   7.657 -0.3297 -0.8603 -0.1634
  257MOL0     C34614   9.720   7.638   7.649  0.3986 -0.4016  0.8410
  257MOL0     C34615  10.064   7.361   7.771 -0.2724  0.3726  0.8729
  257MOL0     C34616  10.020   7.271   7.662  0.3723  0.5869  0.5684
  257MOL0     C34617  10.068   7.138   7.662 -0.1987 -0.1358  1.1549
  257MOL0     C34618  10.158   7.090   7.757 -0.7164 -0.6436 -0.1283
  257MOL0     O34619  10.204   6.962   7.755 -0.5347  0.2642  0.0184
  257MOL0     C34620  10.152   6.875   7.664 -0.3599  1.4135  1.3980
  257MOL0     C34621  10.200   6.726   7.671 -0.3425 -0.7234 -0.1886
  257MOL0     C34622  10.140   6.647   7.547  0.7227  0.2804 -0.0408
  257MOL0     C34623   9.987   6.645   7.531 -0.6768  0.3450 -0.1775
  257MOL0     C34624   9.926   6.549   7.622 -0.2514  0.4775 -0.8868
  257MOL0     C34625   9.888   6.466   7.701  0.6515 -0.1537 -0.3796
  257MOL0     C34626  10.208   7.180   7.852  0.4025  0.1699 -0.2574
  257MOL0     C34627  10.153   7.310   7.865 -0.6256  0.8791 -0.0456
  257MOL0     H34628  10.022   7.771   7.717  0.0056 -2.3268  0.9287
  257MOL0     H34629   9.878   7.987   7.708  1.2230 -1.5897  1.7555
  257MOL0     H34630   9.615   8.040   7.497 -1.4531 -0.5636 -1.1028
  257MOL0     H34631   9.477   8.079   7.601  0.5509  3.1737  5.2564
  257MOL0     H34632   9.577   8.267   7.691 -0.1763  0.5487 -1.0037
  257MOL0     H34633   9.742   8.202   7.668  1.9426  1.5942 -0.6217
  257MOL0     H34634   9.714   8.227   7.421 -3.0974 -2.8354 -0.5280
  257MOL0     H34635   9.556   8.285   7.436 -0.6425 -2.3717  2.2316
  257MOL0     H34636   9.617   8.467   7.560 -0.1267 -1.4164  0.3556
  257MOL0     H34637   9.779   8.442   7.582 -1.6332  0.6207  0.6579
  257MOL0     H34638   9.638   8.503   7.325 -0.0734 -0.9614  0.2778
  257MOL0     H34639   9.774   8.599   7.399 -1.7497  0.0283  1.1834
  257MOL0     H34640   9.929   8.405   7.355  0.5009  0.0985  0.2368
  257MOL0     H34641   9.798   8.323   7.263 -0.8359 -1.5609  3.3366
  257MOL0     H34642   9.938   8.411   7.101  2.4525  0.9345  0.5028
  257MOL0     H34643   9.815   8.546   7.126  0.0203  2.9767  3.6505
  257MOL0     H34644  10.080   8.560   7.266 -1.0681 -0.7471  0.1288
  257MOL0     H34645   9.942   8.669   7.248  0.8849  0.8175  3.3749
  257MOL0     H34646  10.272   8.639   7.144 -2.8803 -1.3997  2.3460
  257MOL0     H34647  10.416   8.802   6.940  0.6526  2.2408 -2.5310
  257MOL0     H34648  10.426   8.642   6.852  0.2038  0.6428 -0.7772
  257MOL0     H34649  10.323   8.742   6.674 -1.1415  0.1645  0.4087
  257MOL0     H34650  10.470   8.845   6.706 -0.0101  1.5675 -0.9242
  257MOL0     H34651  10.327   9.012   6.808 -2.7087  0.6726  0.2091
  257MOL0     H34652  10.181   8.917   6.789  1.5441 -1.7069  3.8419
  257MOL0     H34653  10.185   9.051   6.600 -0.4294 -0.0940  0.9460
  257MOL0     H34654  10.251   8.898   6.534 -0.1790  0.7598 -0.2024
  257MOL0     H34655  10.230   9.232   6.448  0.7729  1.7615 -0.5173
  257MOL0     H34656  10.122   9.341   6.279 -0.0405  2.3612 -1.0913
  257MOL0     H34657  10.216   9.425   6.163 -2.1752  1.1618 -0.9695
  257MOL0     H34658  10.129   9.274   6.124 -1.8974  2.5070  0.6143
  257MOL0     H34659  10.644   9.344   5.837  0.8225 -1.3541  0.9487
  257MOL0     H34660  10.720   9.340   5.583  0.2461 -0.5556  0.3615
  257MOL0     H34661  10.760   9.208   5.246  2.9219  1.8642  0.0823
  257MOL0     H34662  10.726   9.318   5.372 -1.5746  0.2213 -1.4845
  257MOL0     H34663  10.913   9.233   5.508 -0.6086  1.4225 -0.9599
  257MOL0     H34664  10.923   9.078   5.418 -1.1952  0.2156  0.7067
  257MOL0     H34665  11.094   9.268   5.356  0.1707  0.3370 -1.7183
  257MOL0     H34666  10.951   9.330   5.260  3.7455  2.4063  0.4373
  257MOL0     H34667  11.099   9.077   5.226  0.1779 -0.0610  0.0721
  257MOL0     H34668  10.933   9.089   5.158 -0.9414  2.3508 -3.0865
  257MOL0     H34669  11.150   9.287   5.137  1.2377 -4.7051  3.8133
  257MOL0     H34670  11.001   9.276   5.030 -1.2525  2.3964  1.8275
  257MOL0     H34671  11.256   9.098   5.037  1.9210  0.4655 -2.0993
  257MOL0     H34672  11.105   9.066   4.946  0.3840  1.6949 -2.8827
  257MOL0     H34673  11.272   9.314   4.910  0.0217  0.7762 -1.6407
  257MOL0     H34674  11.118   9.281   4.827  0.5060  1.9749  0.8225
  257MOL0     H34675  11.366   9.091   4.803  0.0286 -0.9346  0.1295
  257MOL0     H34676  11.364   9.235   4.709  0.0526  0.2082  0.5346
  257MOL0     H34677  10.490   8.988   5.530 -0.4816  0.5049  0.2325
  257MOL0     H34678  10.425   8.998   5.768  0.6099 -0.8265  0.2028
  257MOL0     H34679  10.585   9.018   6.174  1.7624 -1.0861  4.2261
  257MOL0     H34680  10.574   8.977   6.398  0.9539  1.1388 -1.7556
  257MOL0     H34681   9.535   7.726   7.641 -0.5683  1.4097 -4.1891
  257MOL0     H34682   9.668   7.543   7.644 -2.1887  0.9905 -1.0952
  257MOL0     H34683   9.936   7.298   7.599 -0.4363 -2.2673  0.2725
  257MOL0     H34684  10.051   7.087   7.568  0.0888  3.6861 -1.2124
  257MOL0     H34685  10.044   6.890   7.674 -1.0952 -1.7534 -0.4433
  257MOL0     H34686  10.176   6.899   7.560 -0.1061  1.6629  1.5127
  257MOL0     H34687  10.161   6.687   7.765 -0.3124 -1.9404 -0.6644
  257MOL0     H34688  10.310   6.721   7.669 -0.0264  3.2611 -2.6627
  257MOL0     H34689  10.162   6.540   7.548 -2.1983 -0.4456  2.3819
  257MOL0     H34690  10.184   6.679   7.452  1.6754 -1.4776 -0.2217
  257MOL0     H34691   9.966   6.609   7.429  0.6145 -0.7021 -0.1070
  257MOL0     H34692   9.946   6.743   7.554 -0.9358  0.2902 -0.4095
  257MOL0     H34693   9.850   6.379   7.751  0.0826 -0.7617 -1.8113
  257MOL0     H34694  10.291   7.145   7.913  1.6707  0.7302 -1.6033
  257MOL0     H34695  10.188   7.371   7.948  0.0037 -0.1124  0.4392
  258MOL0     O34696   2.007   2.676   3.297 -0.4283  0.0803 -0.8328
  258MOL0     C34697   2.033   2.794   3.259 -0.6183  0.9275 -1.1279
  258MOL0     O34698   2.064   2.824   3.132  0.1284  0.3972 -0.2399
  258MOL0     C34699   2.084   2.726   3.038  0.7925 -0.7522 -0.4990
  258MOL0     C34700   2.039   2.772   2.914 -0.0798  0.8661  0.1106
  258MOL0     C34701   2.029   2.696   2.797 -0.1093 -0.8674  0.1339
  258MOL0     C34702   2.065   2.563   2.810  0.3527  0.3579 -0.3668
  258MOL0     O34703   2.058   2.493   2.693 -0.3190  0.6358 -0.9573
  258MOL0     C34704   2.178   2.482   2.618  1.1506  0.3513  0.2829
  258MOL0     C34705   2.168   2.386   2.508  0.1411  1.0062 -0.0141
  258MOL0     C34706   2.062   2.421   2.400  0.0115  0.0726 -0.4439
  258MOL0     C34707   2.098   2.330   2.285  0.9178  0.4202  0.5395
  258MOL0     C34708   2.010   2.343   2.168  0.1353 -0.5571  0.2271
  258MOL0     C34709   1.999   2.480   2.095  1.0838 -0.5026 -0.3720
  258MOL0     C34710   1.937   2.478   1.955  0.2141 -0.6358 -0.3936
  258MOL0     C34711   1.954   2.616   1.882  0.6198  0.6370  0.5748
  258MOL0     N34712   1.934   2.579   1.741 -0.7255 -0.6085  0.4517
  258MOL0     C34713   1.839   2.637   1.657  0.6741 -0.9302  0.9856
  258MOL0     C34714   1.879   2.611   1.536 -0.0498 -0.0432 -0.2824
  258MOL0     C34715   1.798   2.639   1.412 -0.3366  0.6190  0.5871
  258MOL0     C34716   1.852   2.575   1.289 -0.6924  1.0986  0.2939
  258MOL0     C34717   1.798   2.619   1.153  0.0944  0.6282 -0.1805
  258MOL0     C34718   1.836   2.536   1.037 -0.0636  1.0258  1.5131
  258MOL0     O34719   1.785   2.589   0.904 -0.6154  0.8260  0.0262
  258MOL0     C34720   1.644   2.620   0.892  0.0234 -0.3025 -0.2742
  258MOL0     C34721   1.544   2.540   0.945 -0.2681 -0.1990 -0.4628
  258MOL0     C34722   1.405   2.556   0.920 -1.2066 -0.5850  0.5719
  258MOL0     C34723   1.315   2.448   0.980  0.3419  0.2617 -0.5849
  258MOL0     C34724   1.369   2.671   0.832 -0.6647 -0.7129  0.9312
  258MOL0     C34725   1.220   2.707   0.817  0.2878 -0.3858  0.1351
  258MOL0     O34726   1.132   2.603   0.830  0.8148  0.3011  0.4590
  258MOL0     C34727   0.996   2.623   0.809  0.4452  0.1338  0.2720
  258MOL0     C34728   0.915   2.671   0.914 -0.0474 -0.5885 -0.3458
  258MOL0     C34729   0.772   2.671   0.884 -0.1591 -0.5372 -0.6330
  258MOL0     C34730   0.724   2.626   0.762  0.4134 -0.1546 -0.1394
  258MOL0     O34731   0.587   2.607   0.750  0.1731  0.5791  0.3082
  258MOL0     C34732   0.531   2.504   0.834  1.2891  0.0100 -0.4724
  258MOL0     C34733   0.469   2.559   0.966  0.7686 -0.1838 -0.0626
  258MOL0     C34734   0.402   2.448   1.057  0.6622  0.4503 -0.9834
  258MOL0     C34735   0.346   2.322   0.984  0.0277 -0.4161 -0.4667
  258MOL0     C34736   0.275   2.227   1.077  0.9079 -0.5374  0.3156
  258MOL0     C34737   0.271   2.093   0.999  0.4643 -0.0778 -0.0532
  258MOL0     C34738   0.200   1.979   1.076  0.1096 -0.1057  0.3482
  258MOL0     C34739   0.273   1.840   1.055 -0.0519 -0.1071 -0.0164
  258MOL0    Cl34740   0.273   1.838   0.874 -0.1585 -0.3112 -0.2473
  258MOL0     C34741   0.807   2.598   0.656 -0.4217  1.2021  0.6141
  258MOL0     C34742   0.943   2.589   0.680  0.5395 -0.3036  0.2528
  258MOL0     O34743   1.188   2.824   0.782 -0.5115  0.3313  0.5160
  258MOL0     C34744   1.465   2.754   0.777 -0.2330 -0.2781  0.1977
  258MOL0     C34745   1.599   2.715   0.797 -0.3108  0.0923 -0.7304
  258MOL0     N34746   1.982   2.514   1.538  0.1450 -0.3739  0.3352
  258MOL0     N34747   2.022   2.509   1.663 -0.7643  0.2145 -0.1672
  258MOL0     C34748   2.106   2.512   2.931  0.4726  0.2261 -0.9272
  258MOL0     C34749   2.126   2.590   3.045 -0.0461 -0.2646 -0.4528
  258MOL0     C34750   2.032   2.900   3.358  0.1917 -1.0602 -0.4888
  258MOL0     C34751   2.081   3.026   3.322 -0.0657 -0.7855  0.4469
  258MOL0     C34752   2.081   3.131   3.418  0.0298 -1.0760 -0.2084
  258MOL0     C34753   2.015   3.126   3.541  0.7019  0.3167  0.3579
  258MOL0     O34754   2.030   3.228   3.634  0.4354 -0.8488 -0.4146
  258MOL0     C34755   1.972   3.231   3.769  0.1812  0.5471 -0.3245
  258MOL0     C34756   1.827   3.280   3.747 -0.2821 -0.3650  0.0605
  258MOL0     C34757   1.742   3.315   3.871  0.8046  0.1229 -0.6072
  258MOL0     C34758   1.755   3.466   3.915 -0.2363 -0.3320 -0.3314
  258MOL0     C34759   1.710   3.485   4.057  0.4481 -0.2466  0.5165
  258MOL0     C34760   1.689   3.511   4.174  0.6133  0.0356 -0.2359
  258MOL0     C34761   1.956   3.002   3.580 -0.1072 -1.0290 -0.2049
  258MOL0     C34762   1.969   2.887   3.487  0.7233 -0.1681 -0.5117
  258MOL0     H34763   2.013   2.877   2.916 -0.1668  1.3238 -6.2199
  258MOL0     H34764   2.006   2.738   2.700  4.1148 -1.0287 -1.1275
  258MOL0     H34765   2.195   2.585   2.586 -2.0739  1.4071  1.5504
  258MOL0     H34766   2.264   2.447   2.676 -0.8615 -5.8804  0.2052
  258MOL0     H34767   2.274   2.376   2.483  0.5346 -0.2642  1.9837
  258MOL0     H34768   2.132   2.296   2.557  0.7249  1.2886  0.9477
  258MOL0     H34769   1.962   2.396   2.436  0.4494 -3.4135 -1.2884
  258MOL0     H34770   2.068   2.524   2.362 -2.9653  0.5722  0.1751
  258MOL0     H34771   2.199   2.346   2.247  0.0070 -0.3006 -2.5155
  258MOL0     H34772   2.099   2.229   2.327 -0.6760  1.0403  2.1989
  258MOL0     H34773   2.036   2.272   2.090  2.1029  1.3109 -0.9306
  258MOL0     H34774   1.910   2.317   2.202  1.3790 -3.4299  2.1118
  258MOL0     H34775   1.932   2.544   2.153  1.1088 -0.3955 -0.4617
  258MOL0     H34776   2.092   2.536   2.103  0.6751 -0.0728  2.1364
  258MOL0     H34777   1.995   2.405   1.897 -1.1438 -2.3747  0.3498
  258MOL0     H34778   1.832   2.448   1.948 -0.2550  0.8404 -0.1316
  258MOL0     H34779   2.048   2.670   1.889  1.8486 -1.1269 -1.2651
  258MOL0     H34780   1.876   2.688   1.909 -0.5253 -0.0864 -0.6746
  258MOL0     H34781   1.755   2.700   1.686  0.3175  0.0428 -1.8712
  258MOL0     H34782   1.698   2.609   1.443  0.0683 -1.2376  0.2214
  258MOL0     H34783   1.783   2.746   1.399 -2.5157  0.5768  2.1494
  258MOL0     H34784   1.842   2.467   1.299  2.5636  0.6141 -0.4420
  258MOL0     H34785   1.959   2.598   1.279 -0.5428 -0.0992 -1.1376
  258MOL0     H34786   1.815   2.726   1.139 -1.8967  1.5679  3.1826
  258MOL0     H34787   1.689   2.622   1.164 -0.2774 -2.1316 -2.1343
  258MOL0     H34788   1.792   2.439   1.062  0.5248  0.9249  2.2008
  258MOL0     H34789   1.945   2.531   1.042  0.1778 -2.4873 -2.3028
  258MOL0     H34790   1.587   2.463   1.009  2.6115  0.1986 -1.7509
  258MOL0     H34791   1.227   2.495   1.026  3.0155  1.1743  4.3684
  258MOL0     H34792   1.286   2.373   0.907  1.2602  0.6745 -1.4053
  258MOL0     H34793   1.367   2.407   1.067 -1.3083 -1.0487 -0.1844
  258MOL0     H34794   0.956   2.725   0.998 -2.2939  0.9043 -0.1224
  258MOL0     H34795   0.704   2.718   0.954  1.6771  2.2498 -0.5743
  258MOL0     H34796   0.451   2.455   0.777  0.1109  1.8854 -0.5426
  258MOL0     H34797   0.606   2.428   0.857  1.1179  0.2471  0.9879
  258MOL0     H34798   0.536   2.604   1.039 -0.5916  2.7919 -0.5398
  258MOL0     H34799   0.392   2.628   0.932 -0.4986 -0.7987  1.4667
  258MOL0     H34800   0.339   2.505   1.126  1.7166  2.8712 -1.9077
  258MOL0     H34801   0.483   2.412   1.121  1.1528  2.8037 -0.1793
  258MOL0     H34802   0.277   2.336   0.901  2.7364 -1.5543 -3.1061
  258MOL0     H34803   0.430   2.261   0.948 -0.3798 -1.9354  1.0296
  258MOL0     H34804   0.173   2.260   1.099  1.1663  1.4681 -1.2649
  258MOL0     H34805   0.337   2.222   1.167  2.8712  2.8143 -0.7022
  258MOL0     H34806   0.223   2.107   0.902  0.4267  1.1503  0.1164
  258MOL0     H34807   0.374   2.070   0.973  0.3687 -1.5799  0.7739
  258MOL0     H34808   0.100   1.980   1.032  0.7293 -2.5991 -1.3167
  258MOL0     H34809   0.203   2.003   1.182  0.5872  1.1430  0.0700
  258MOL0     H34810   0.222   1.758   1.105 -4.2101  0.9445 -2.0914
  258MOL0     H34811   0.377   1.854   1.085 -0.3489  4.6820 -0.4501
  258MOL0     H34812   0.775   2.574   0.555  1.1030  3.4990 -0.5097
  258MOL0     H34813   1.012   2.547   0.608 -1.5824 -0.0262 -2.0567
  258MOL0     H34814   1.447   2.830   0.701  1.4981  0.3915  0.4177
  258MOL0     H34815   1.676   2.773   0.746  1.7790 -1.9925 -0.1392
  258MOL0     H34816   2.124   2.409   2.957 -2.5429  0.3944  2.5823
  258MOL0     H34817   2.164   2.558   3.142  2.0422  1.6900 -0.5411
  258MOL0     H34818   2.124   3.053   3.226 -2.8320 -1.7086 -1.1631
  258MOL0     H34819   2.104   3.228   3.375 -3.1704 -1.6245 -3.6256
  258MOL0     H34820   1.978   3.131   3.812  5.1109  1.2011  1.2113
  258MOL0     H34821   2.034   3.299   3.829 -0.3121  1.7026 -1.0811
  258MOL0     H34822   1.783   3.204   3.682  2.0846  1.3297 -3.8935
  258MOL0     H34823   1.833   3.367   3.681  1.6889 -2.2584 -2.4684
  258MOL0     H34824   1.777   3.253   3.954 -0.1237  0.0296 -0.2712
  258MOL0     H34825   1.636   3.294   3.851  0.6925 -0.7800  0.7910
  258MOL0     H34826   1.689   3.525   3.851 -1.1958 -2.6024 -1.5427
  258MOL0     H34827   1.858   3.497   3.896  0.7930 -3.4808 -0.4350
  258MOL0     H34828   1.681   3.550   4.274  1.5103  2.2260 -0.9490
  258MOL0     H34829   1.910   2.992   3.678 -1.1458 -0.4531 -0.6172
  258MOL0     H34830   1.926   2.797   3.529 -0.1566  0.0985 -0.8269
  259MOL0     O34831   8.928   4.833   0.132  0.2527  0.4959  0.1809
  259MOL0     C34832   8.979   4.822   0.243  0.2748  0.3811  0.4196
  259MOL0     O34833   9.072   4.899   0.296  0.0778  0.1596 -0.2955
  259MOL0     C34834   9.081   5.025   0.247 -0.4710  0.3135 -0.0359
  259MOL0     C34835   8.973   5.112   0.243  0.8334 -0.3063 -0.6775
  259MOL0     C34836   8.996   5.246   0.205 -0.1074 -0.2579 -0.4038
  259MOL0     C34837   9.117   5.286   0.151 -0.0334  0.9137  0.7945
  259MOL0     O34838   9.129   5.411   0.093 -0.2082  0.6616  0.1453
  259MOL0     C34839   9.135   5.415  -0.055 -0.2878  1.0361 -0.5735
  259MOL0     C34840   9.282   5.371  -0.116 -0.3890  0.5149 -0.0812
  259MOL0     C34841   9.363   5.496  -0.119  0.2252 -1.6430 -0.4023
  259MOL0     C34842   9.517   5.466  -0.148  0.4542  0.4663 -0.3205
  259MOL0     C34843   9.593   5.593  -0.174  0.3456  0.3453 -0.6642
  259MOL0     C34844   9.534   5.674  -0.282 -0.6273 -0.4584 -1.0853
  259MOL0     C34845   9.629   5.784  -0.333 -0.0133 -0.4048  0.4054
  259MOL0     C34846   9.657   5.903  -0.238  0.3130  0.3403 -0.0372
  259MOL0     N34847   9.761   5.995  -0.302  0.2192  0.3530  0.0161
  259MOL0     C34848   9.802   6.000  -0.435  0.5307 -1.2149 -0.4328
  259MOL0     C34849   9.891   6.105  -0.431 -0.4366  0.8638 -0.6033
  259MOL0     C34850   9.960   6.158  -0.555 -0.2791 -0.5817  0.4048
  259MOL0     C34851  10.059   6.279  -0.538 -0.2452  0.0951  0.2469
  259MOL0     C34852  10.118   6.336  -0.670 -0.1984  0.4954 -0.2645
  259MOL0     C34853  10.197   6.228  -0.750  0.8454  0.2469  1.4378
  259MOL0     O34854  10.205   6.278  -0.889 -1.2245 -0.6953 -0.3711
  259MOL0     C34855  10.310   6.242  -0.971  0.0506 -0.4955 -0.2519
  259MOL0     C34856  10.391   6.339  -1.034  0.8400  0.7279  0.3652
  259MOL0     C34857  10.494   6.321  -1.119 -0.4499  1.4705  0.1402
  259MOL0     C34858  10.567   6.440  -1.168  0.3499 -0.1590 -0.2474
  259MOL0     C34859  10.533   6.186  -1.136  0.2104  0.4347  0.4748
  259MOL0     C34860  10.663   6.148  -1.216 -0.7292 -0.0183 -0.2943
  259MOL0     O34861  10.690   6.020  -1.229 -0.1462  0.0975  0.0227
  259MOL0     C34862  10.784   5.964  -1.308  0.9019 -1.1541 -0.6381
  259MOL0     C34863  10.803   5.831  -1.286 -0.1235 -0.5368 -0.3099
  259MOL0     C34864  10.891   5.749  -1.354 -0.1897  0.3638 -0.1974
  259MOL0     C34865  10.977   5.805  -1.447  0.2843 -0.6618 -0.3937
  259MOL0     O34866  11.074   5.737  -1.525  0.0184 -0.4837 -0.6066
  259MOL0     C34867  11.099   5.612  -1.479 -0.3323  0.0912  0.0613
  259MOL0     C34868  11.211   5.537  -1.557 -0.2328  0.3526 -0.1710
  259MOL0     C34869  11.343   5.614  -1.563  0.5647  0.0368  0.5505
  259MOL0     C34870  11.444   5.521  -1.641  0.0590  0.1859  0.5173
  259MOL0     C34871  11.575   5.576  -1.683 -0.0317  0.4405 -0.1085
  259MOL0     C34872  11.675   5.471  -1.721  0.4205 -0.1903  0.1853
  259MOL0     C34873  11.813   5.519  -1.754 -0.7399 -0.3767 -0.3271
  259MOL0     C34874  11.813   5.599  -1.876 -0.1753 -0.0048 -0.8247
  259MOL0    Cl34875  11.746   5.503  -2.011  0.2602  0.0516  0.6106
  259MOL0     C34876  10.948   5.937  -1.476 -1.3862 -0.5793  0.5532
  259MOL0     C34877  10.856   6.021  -1.405 -0.2683 -0.2340 -0.1370
  259MOL0     O34878  10.738   6.236  -1.253  0.5710 -0.1340 -0.4162
  259MOL0     C34879  10.458   6.085  -1.078  0.5399 -0.2299 -0.1507
  259MOL0     C34880  10.337   6.115  -1.002 -0.1338  1.2504 -0.2552
  259MOL0     N34881   9.900   6.151  -0.298 -0.6032  0.6474  0.8010
  259MOL0     N34882   9.820   6.096  -0.231 -0.4892 -0.7066  0.2409
  259MOL0     C34883   9.236   5.201   0.167  0.4592 -0.5987 -0.7791
  259MOL0     C34884   9.210   5.077   0.219  0.5601  0.0529  1.0616
  259MOL0     C34885   8.932   4.713   0.330  0.0888  0.2346 -0.9544
  259MOL0     C34886   8.983   4.697   0.460  0.4188 -0.5756 -0.2257
  259MOL0     C34887   8.922   4.604   0.550  1.1473 -0.8291 -0.5327
  259MOL0     C34888   8.805   4.524   0.513 -0.5171 -0.1521 -0.6131
  259MOL0     O34889   8.751   4.449   0.614  0.5368 -0.6251 -0.1636
  259MOL0     C34890   8.628   4.375   0.581  0.6044 -0.6745  0.6622
  259MOL0     C34891   8.576   4.303   0.705  0.2900  0.9393 -0.2265
  259MOL0     C34892   8.641   4.339   0.843 -0.6851  0.6314 -1.0512
  259MOL0     C34893   8.596   4.244   0.952 -0.5265 -0.8654  0.3061
  259MOL0     C34894   8.667   4.113   0.948 -0.5449 -0.6360 -0.1954
  259MOL0     C34895   8.726   4.009   0.943  0.3066  0.5155  0.3034
  259MOL0     C34896   8.768   4.539   0.375  0.6534 -0.6464 -0.7224
  259MOL0     C34897   8.830   4.628   0.292 -0.0805 -0.0179 -0.3031
  259MOL0     H34898   8.874   5.081   0.278  1.6752 -0.7871  1.4337
  259MOL0     H34899   8.917   5.320   0.200  2.1958  2.3026 -2.1188
  259MOL0     H34900   9.059   5.343  -0.088  1.4628 -1.4245  0.4081
  259MOL0     H34901   9.104   5.514  -0.089 -0.0294  0.2516 -3.3708
  259MOL0     H34902   9.330   5.290  -0.061 -2.6177  0.2404  1.6194
  259MOL0     H34903   9.271   5.345  -0.222  2.6344 -0.9043 -0.1473
  259MOL0     H34904   9.335   5.561  -0.202  2.5261  1.3736  0.9588
  259MOL0     H34905   9.340   5.552  -0.027 -2.1415 -1.3486 -1.1134
  259MOL0     H34906   9.561   5.404  -0.069  4.5466  1.2066 -1.7654
  259MOL0     H34907   9.529   5.411  -0.241  2.0373 -0.0018  0.1259
  259MOL0     H34908   9.590   5.653  -0.083  0.7285  0.3173 -0.6284
  259MOL0     H34909   9.698   5.575  -0.200 -0.1193 -0.5321 -2.0307
  259MOL0     H34910   9.502   5.611  -0.365  0.6982  2.3940 -3.9950
  259MOL0     H34911   9.445   5.719  -0.237  0.3312  0.7866 -0.3346
  259MOL0     H34912   9.720   5.734  -0.365  1.1674 -0.9046  4.0497
  259MOL0     H34913   9.585   5.828  -0.423 -0.2380 -1.4215 -0.0020
  259MOL0     H34914   9.702   5.856  -0.149 -0.4100 -0.5291 -0.1198
  259MOL0     H34915   9.568   5.954  -0.201  0.6575  0.0413  1.2668
  259MOL0     H34916   9.795   5.940  -0.525  1.7123  1.0550 -2.1682
  259MOL0     H34917  10.008   6.077  -0.609  1.2128  0.4651  0.0944
  259MOL0     H34918   9.882   6.194  -0.622 -0.8886 -0.6810  1.0506
  259MOL0     H34919  10.141   6.246  -0.474 -1.9029 -0.5754  2.1307
  259MOL0     H34920  10.010   6.361  -0.485 -0.5495  0.3801 -0.4717
  259MOL0     H34921  10.180   6.425  -0.667 -0.4063  0.7506 -2.1979
  259MOL0     H34922  10.033   6.349  -0.738  1.1410 -0.7486 -2.2619
  259MOL0     H34923  10.151   6.130  -0.739 -2.0478  1.5058  1.5630
  259MOL0     H34924  10.301   6.233  -0.715  1.8110  3.2113 -1.3231
  259MOL0     H34925  10.377   6.445  -1.013  1.8430  1.2446 -1.4407
  259MOL0     H34926  10.662   6.442  -1.113  0.5894 -2.6505 -0.4563
  259MOL0     H34927  10.589   6.432  -1.275  1.4100  1.7041 -0.2031
  259MOL0     H34928  10.519   6.534  -1.139 -0.8826 -0.7623 -0.2660
  259MOL0     H34929  10.740   5.789  -1.208 -3.5513  1.2805 -1.8847
  259MOL0     H34930  10.879   5.641  -1.345 -1.4322  0.1805 -2.9559
  259MOL0     H34931  11.144   5.619  -1.379  3.4407  0.3282 -1.5073
  259MOL0     H34932  11.013   5.545  -1.470  0.6750 -1.2534  0.0485
  259MOL0     H34933  11.215   5.442  -1.503  1.2147 -0.2803 -1.3299
  259MOL0     H34934  11.167   5.517  -1.655 -1.1800 -0.9546  0.4889
  259MOL0     H34935  11.378   5.636  -1.462 -1.3643  1.8511  0.8914
  259MOL0     H34936  11.335   5.709  -1.615 -3.6626 -1.2927 -1.6610
  259MOL0     H34937  11.457   5.437  -1.572  1.1529  0.0908  0.2089
  259MOL0     H34938  11.386   5.489  -1.728 -2.0313  1.0282  1.5102
  259MOL0     H34939  11.614   5.640  -1.604 -0.9846  2.9104 -1.5300
  259MOL0     H34940  11.559   5.631  -1.776  2.6025 -0.7737 -1.3792
  259MOL0     H34941  11.676   5.393  -1.644  3.0349  0.1047  0.5376
  259MOL0     H34942  11.641   5.416  -1.809  2.8858  0.8801 -1.5714
  259MOL0     H34943  11.882   5.436  -1.769 -0.1960  0.0963 -0.4803
  259MOL0     H34944  11.865   5.575  -1.676  1.0333  0.1081 -1.7868
  259MOL0     H34945  11.918   5.615  -1.901  0.2737 -2.5425 -0.8389
  259MOL0     H34946  11.756   5.690  -1.856  1.0769  0.4125  1.1532
  259MOL0     H34947  10.997   5.977  -1.565  2.3231 -1.0128  2.1998
  259MOL0     H34948  10.852   6.123  -1.440 -0.8612 -0.9799 -2.3664
  259MOL0     H34949  10.468   5.979  -1.098 -1.0234 -0.2392 -1.0337
  259MOL0     H34950  10.272   6.034  -0.972 -0.0844  1.4617  0.4432
  259MOL0     H34951   9.336   5.235   0.141  0.8537  0.8231  2.1138
  259MOL0     H34952   9.289   5.005   0.238  0.6543 -0.2141 -0.2018
  259MOL0     H34953   9.060   4.760   0.503 -1.6685  1.1022  1.2976
  259MOL0     H34954   8.973   4.584   0.644 -0.8446 -0.3390  0.7039
  259MOL0     H34955   8.556   4.447   0.542  4.3038  3.3096  0.4573
  259MOL0     H34956   8.656   4.296   0.511 -1.6857 -2.1833  1.3363
  259MOL0     H34957   8.601   4.198   0.687  1.4146  0.8767  1.4848
  259MOL0     H34958   8.467   4.302   0.710  0.2364 -1.6469 -0.5153
  259MOL0     H34959   8.634   4.445   0.868  1.7107  0.7911 -0.8682
  259MOL0     H34960   8.749   4.325   0.830 -0.6054  0.1263  0.0101
  259MOL0     H34961   8.487   4.244   0.948 -0.5574 -2.1906  0.7924
  259MOL0     H34962   8.633   4.295   1.042  3.3000 -0.7438 -1.1435
  259MOL0     H34963   8.773   3.913   0.943  5.9141  2.8796 -0.0432
  259MOL0     H34964   8.684   4.484   0.336  0.8504 -0.9482 -0.7307
  259MOL0     H34965   8.776   4.648   0.200  2.3253  1.8133 -1.4102
  260MOL0     O34966   1.291   0.955   7.905  0.1394 -0.3699  0.1068
  260MOL0     C34967   1.176   0.954   7.865 -0.2366  0.0779 -1.4431
  260MOL0     O34968   1.086   1.052   7.885 -0.1998  0.1517 -0.5203
  260MOL0     C34969   1.109   1.154   7.973  0.3505 -1.2003  0.1885
  260MOL0     C34970   1.218   1.168   8.071 -0.7821 -1.1910  0.0844
  260MOL0     C34971   1.229   1.286   8.143 -0.0076  1.3848  1.0439
  260MOL0     C34972   1.136   1.388   8.130  0.0774  0.7422 -0.2350
  260MOL0     O34973   1.156   1.487   8.221  0.5322 -0.2894 -0.4659
  260MOL0     C34974   1.079   1.605   8.198 -0.8406 -1.3298 -0.0047
  260MOL0     C34975   1.125   1.690   8.082  0.1993 -0.1815 -0.0784
  260MOL0     C34976   1.273   1.743   8.091 -0.7222 -0.4722 -0.2415
  260MOL0     C34977   1.323   1.797   7.960  0.4361 -0.1356  0.5411
  260MOL0     C34978   1.319   1.947   7.928  0.5525  0.2253 -0.4040
  260MOL0     C34979   1.363   1.979   7.782  0.9730 -0.4516  0.2577
  260MOL0     C34980   1.257   1.942   7.681 -0.7388  0.7608 -0.0999
  260MOL0     C34981   1.155   2.059   7.673 -0.5180  1.3557 -0.1803
  260MOL0     N34982   1.066   2.018   7.566  0.2018  0.1053 -0.0187
  260MOL0     C34983   0.961   1.933   7.596  0.0272 -0.3357 -0.2969
  260MOL0     C34984   0.901   1.892   7.483  0.5981 -1.0669 -1.1701
  260MOL0     C34985   0.787   1.799   7.468  0.3950  0.9077  0.2702
  260MOL0     C34986   0.774   1.773   7.317  0.1035  0.0031 -0.2021
  260MOL0     C34987   0.657   1.684   7.274  0.4234 -0.1903 -0.2897
  260MOL0     C34988   0.650   1.683   7.122 -0.9798  0.0096  0.0560
  260MOL0     O34989   0.521   1.619   7.102 -0.5140 -0.4609 -0.3240
  260MOL0     C34990   0.455   1.614   6.972 -0.5921 -0.3056  0.2620
  260MOL0     C34991   0.539   1.631   6.854  0.1700 -0.2077  0.8620
  260MOL0     C34992   0.480   1.650   6.726 -0.9357  0.3590  0.6517
  260MOL0     C34993   0.575   1.643   6.602  0.1785  0.0605 -0.3478
  260MOL0     C34994   0.338   1.663   6.711 -0.7232 -0.4351 -0.4949
  260MOL0     C34995   0.272   1.708   6.590 -0.4545 -0.3583  1.2988
  260MOL0     O34996   0.352   1.762   6.496  0.6302 -1.1886 -0.4483
  260MOL0     C34997   0.308   1.804   6.368  0.7626  1.1460 -0.2256
  260MOL0     C34998   0.262   1.932   6.341 -0.2237  0.8812 -0.8327
  260MOL0     C34999   0.235   1.966   6.206 -0.1301 -0.2862 -0.6420
  260MOL0     C35000   0.277   1.872   6.106  0.6983 -0.7740 -0.6948
  260MOL0     O35001   0.264   1.910   5.974  0.1335  0.4478 -0.8957
  260MOL0     C35002   0.346   1.850   5.874 -0.2873 -0.4895  2.3217
  260MOL0     C35003   0.402   1.965   5.784  0.0132 -0.4075 -0.0813
  260MOL0     C35004   0.539   2.022   5.820 -0.5576 -1.0758 -0.0138
  260MOL0     C35005   0.654   1.937   5.767 -0.4300  0.1312 -0.6149
  260MOL0     C35006   0.784   1.968   5.835  0.4803  0.5202 -0.1340
  260MOL0     C35007   0.820   2.118   5.834 -0.3531 -0.3526  0.2434
  260MOL0     C35008   0.965   2.139   5.850 -0.1648 -0.1864 -0.4504
  260MOL0     C35009   1.011   2.284   5.818 -0.2403  0.2653 -1.0353
  260MOL0    Cl35010   0.988   2.352   5.651  0.0320  0.0324 -0.1720
  260MOL0     C35011   0.321   1.741   6.138 -0.6867  0.2068  0.0077
  260MOL0     C35012   0.344   1.706   6.265 -0.1065  0.4454 -0.2041
  260MOL0     O35013   0.155   1.677   6.577  0.2667 -0.0768  0.6993
  260MOL0     C35014   0.255   1.629   6.830 -0.0551 -0.8212  0.1364
  260MOL0     C35015   0.315   1.604   6.957  0.5804 -0.4117 -1.2521
  260MOL0     N35016   0.987   1.944   7.386  0.1900 -0.2283  0.4603
  260MOL0     N35017   1.080   2.021   7.427 -0.7765  0.5320  0.0100
  260MOL0     C35018   1.030   1.373   8.039 -0.6615  1.0847 -1.2222
  260MOL0     C35019   1.026   1.259   7.958  0.5388  0.1184  0.2680
  260MOL0     C35020   1.130   0.840   7.789  0.1524  0.3100  0.0269
  260MOL0     C35021   1.232   0.781   7.704 -0.4384  1.6617  0.4451
  260MOL0     C35022   1.198   0.665   7.638  0.5692  0.0725  0.5605
  260MOL0     C35023   1.068   0.608   7.639 -0.7694  0.8976  0.4204
  260MOL0     O35024   1.015   0.508   7.557 -0.7855  0.6638 -0.0269
  260MOL0     C35025   1.084   0.437   7.447 -0.5567 -0.0620  0.2372
  260MOL0     C35026   1.097   0.288   7.459 -0.3213  0.1440 -0.1372
  260MOL0     C35027   1.226   0.248   7.384  0.9439  0.2401 -0.1335
  260MOL0     C35028   1.206   0.097   7.333  0.1706  0.4685 -0.1697
  260MOL0     C35029   1.110   0.084   7.221  0.0710 -0.3729 -0.5752
  260MOL0     C35030   1.028   0.055   7.135 -0.4649  0.0287  0.3335
  260MOL0     C35031   0.973   0.672   7.720 -0.1005  1.3973  0.9451
  260MOL0     C35032   0.999   0.776   7.804  0.1430 -0.7998  0.1118
  260MOL0     H35033   1.294   1.091   8.081  0.4233  0.2402  3.7214
  260MOL0     H35034   1.306   1.292   8.219  1.1483 -2.1306  0.3559
  260MOL0     H35035   0.974   1.576   8.184 -1.5605  2.1020 -3.4523
  260MOL0     H35036   1.084   1.667   8.288  1.9943 -1.8103  0.2660
  260MOL0     H35037   1.119   1.624   7.994  0.2340 -3.4159  2.1634
  260MOL0     H35038   1.060   1.777   8.070 -1.1598 -1.0023  1.0941
  260MOL0     H35039   1.288   1.817   8.170  2.7523  2.2350 -3.0798
  260MOL0     H35040   1.332   1.655   8.117  3.7319  2.3968  0.4871
  260MOL0     H35041   1.431   1.776   7.957  0.3823 -0.7831  2.2037
  260MOL0     H35042   1.276   1.739   7.881  0.1802  1.7354 -0.7461
  260MOL0     H35043   1.224   1.993   7.955 -1.4705 -3.9259  0.3868
  260MOL0     H35044   1.398   1.987   7.992  1.4834 -1.4055 -0.4723
  260MOL0     H35045   1.379   2.087   7.776 -0.6577 -0.2288 -1.1892
  260MOL0     H35046   1.452   1.919   7.761  0.9727 -1.2043  2.2270
  260MOL0     H35047   1.310   1.929   7.586 -3.6723  3.1179 -2.2516
  260MOL0     H35048   1.211   1.844   7.690  0.2254  0.3708  0.7874
  260MOL0     H35049   1.212   2.147   7.641  2.3925  0.1015  1.1987
  260MOL0     H35050   1.100   2.067   7.767  0.3331  2.8708  0.2152
  260MOL0     H35051   0.933   1.903   7.697  1.2841  0.5311  0.3325
  260MOL0     H35052   0.816   1.703   7.512  2.7259 -0.1445 -3.1646
  260MOL0     H35053   0.699   1.842   7.517 -0.8307 -0.4480 -0.6713
  260MOL0     H35054   0.862   1.713   7.292  0.5790 -0.1751  1.7408
  260MOL0     H35055   0.771   1.864   7.257  0.4964 -0.8422 -1.5767
  260MOL0     H35056   0.567   1.727   7.319 -0.4865 -0.4863 -1.7612
  260MOL0     H35057   0.677   1.582   7.308 -0.7598  0.1919  1.7906
  260MOL0     H35058   0.731   1.617   7.088 -1.7920 -0.6375 -0.6667
  260MOL0     H35059   0.660   1.781   7.076 -0.5552 -0.9978 -2.1409
  260MOL0     H35060   0.647   1.632   6.859  0.1835  0.0472  0.4816
  260MOL0     H35061   0.660   1.579   6.628  1.0863  2.2333  2.4875
  260MOL0     H35062   0.525   1.598   6.516  0.3537 -1.8505  0.4970
  260MOL0     H35063   0.612   1.739   6.565  1.8085 -1.2729 -2.3761
  260MOL0     H35064   0.272   2.003   6.422  0.2672  1.3672 -1.3064
  260MOL0     H35065   0.236   2.072   6.183  0.5116 -0.2105 -0.3033
  260MOL0     H35066   0.437   1.791   5.891  2.3031  2.0009 -1.2071
  260MOL0     H35067   0.290   1.774   5.820  0.1575  1.5676 -1.3439
  260MOL0     H35068   0.411   1.927   5.682  2.1996 -0.2845  0.0054
  260MOL0     H35069   0.332   2.049   5.790 -1.0394 -1.3609  2.9939
  260MOL0     H35070   0.546   2.031   5.929 -1.6758 -3.5845  0.3309
  260MOL0     H35071   0.558   2.125   5.788  3.0978 -0.5863  2.9247
  260MOL0     H35072   0.629   1.831   5.778 -0.5716  0.3033  0.9300
  260MOL0     H35073   0.669   1.948   5.659 -1.8952  0.0611 -0.8599
  260MOL0     H35074   0.857   1.907   5.781  1.4508  2.4878 -1.1223
  260MOL0     H35075   0.788   1.923   5.935  2.5702 -0.8940 -0.7886
  260MOL0     H35076   0.799   2.170   5.741  2.6581  1.9133  0.6947
  260MOL0     H35077   0.761   2.167   5.912  1.0539  1.2463  0.3550
  260MOL0     H35078   1.027   2.071   5.791  0.0475 -0.1771 -0.2347
  260MOL0     H35079   0.988   2.108   5.952  2.0819 -0.6311 -1.0511
  260MOL0     H35080   1.119   2.290   5.836 -0.1027 -0.2567 -1.6818
  260MOL0     H35081   0.958   2.356   5.881 -0.0496  0.4467 -1.0806
  260MOL0     H35082   0.328   1.673   6.053 -2.0879 -0.8155  0.6619
  260MOL0     H35083   0.376   1.607   6.297  2.3938  0.7305 -1.6107
  260MOL0     H35084   0.147   1.636   6.830  0.0315  1.0753 -0.5513
  260MOL0     H35085   0.256   1.611   7.048  2.0396 -3.6557  0.0888
  260MOL0     H35086   0.946   1.441   8.029 -1.2243  0.6838  0.5036
  260MOL0     H35087   0.941   1.263   7.892 -1.4455 -2.9008  2.3740
  260MOL0     H35088   1.329   0.827   7.695 -0.0126  0.4633 -2.1582
  260MOL0     H35089   1.279   0.613   7.586 -1.9446 -1.5910 -2.0070
  260MOL0     H35090   1.032   0.452   7.352 -1.9827 -0.2106  0.9703
  260MOL0     H35091   1.179   0.491   7.441 -1.6136  1.8202 -4.8074
  260MOL0     H35092   1.008   0.235   7.422 -2.0426  3.1168 -0.5677
  260MOL0     H35093   1.088   0.258   7.564 -2.4197 -2.3502 -0.9098
  260MOL0     H35094   1.313   0.259   7.448  0.8521  4.2648 -0.4529
  260MOL0     H35095   1.247   0.305   7.293  1.8676 -3.0695 -2.1717
  260MOL0     H35096   1.189   0.031   7.418  3.5830 -1.0520 -0.4977
  260MOL0     H35097   1.296   0.052   7.290  0.1547  0.7565 -0.5136
  260MOL0     H35098   0.962   0.031   7.055  0.0059  3.3897 -1.2175
  260MOL0     H35099   0.875   0.626   7.722  0.4857 -0.4596 -3.0500
  260MOL0     H35100   0.916   0.808   7.867 -0.2888  0.0851 -0.8731
  261MOL0     O35101   6.493   2.086   8.751 -0.4087 -0.2193  0.6606
  261MOL0     C35102   6.392   2.155   8.751 -0.4114 -0.0420  0.2046
  261MOL0     O35103   6.330   2.217   8.642 -0.4476 -0.6790 -0.3830
  261MOL0     C35104   6.400   2.228   8.526  0.3488 -0.1786 -0.3780
  261MOL0     C35105   6.316   2.277   8.428 -0.2894 -0.1899 -0.1208
  261MOL0     C35106   6.369   2.299   8.294 -0.1149  0.3223  0.7210
  261MOL0     C35107   6.505   2.261   8.270  0.3315  0.3416 -0.0170
  261MOL0     O35108   6.569   2.266   8.151 -0.2524  0.6202 -0.1395
  261MOL0     C35109   6.501   2.278   8.030 -0.1379 -0.2082  0.2864
  261MOL0     C35110   6.525   2.424   7.966  0.4224 -0.7036 -0.5615
  261MOL0     C35111   6.452   2.525   8.040  0.1058 -1.1315  0.2168
  261MOL0     C35112   6.436   2.658   7.976 -0.1556 -0.4893  0.6188
  261MOL0     C35113   6.367   2.758   8.083  0.1086 -0.3940  0.7706
  261MOL0     C35114   6.360   2.894   8.021  0.2303  0.9568  0.0719
  261MOL0     C35115   6.494   2.969   8.006 -1.4025  0.4783  0.0064
  261MOL0     C35116   6.466   3.112   7.976 -0.5269 -0.5613  0.8816
  261MOL0     N35117   6.439   3.188   8.110  0.1057  0.3961  0.1667
  261MOL0     C35118   6.527   3.281   8.169  0.1461  0.0940 -0.2523
  261MOL0     C35119   6.465   3.312   8.288 -0.1722  0.2334 -0.3738
  261MOL0     C35120   6.500   3.427   8.387 -0.0019  0.1343 -0.1627
  261MOL0     C35121   6.455   3.569   8.335 -0.7214  0.4054 -0.6086
  261MOL0     C35122   6.305   3.592   8.288  0.0126 -0.6550 -0.4709
  261MOL0     C35123   6.263   3.724   8.340 -0.3163  0.1369  0.0778
  261MOL0     O35124   6.240   3.725   8.483  0.9889 -0.1509 -0.5746
  261MOL0     C35125   6.136   3.637   8.536  0.3631 -0.5977 -0.2342
  261MOL0     C35126   6.039   3.570   8.458  0.3111 -0.7899  0.0415
  261MOL0     C35127   5.940   3.502   8.521  0.6830 -0.1860 -0.5443
  261MOL0     C35128   5.843   3.422   8.437  0.3863  0.0224  0.3576
  261MOL0     C35129   5.938   3.494   8.666 -1.0722  0.9695 -0.4143
  261MOL0     C35130   5.840   3.415   8.747 -0.6450 -0.7594 -0.3894
  261MOL0     O35131   5.895   3.333   8.840 -0.0976  0.1880  0.0532
  261MOL0     C35132   5.809   3.253   8.914  0.3367 -0.0197 -0.7789
  261MOL0     C35133   5.840   3.117   8.938 -0.7135  0.1064  0.2007
  261MOL0     C35134   5.760   3.033   9.018 -0.0630  0.1881  0.1782
  261MOL0     C35135   5.663   3.096   9.102 -0.2201  0.5839 -0.3247
  261MOL0     O35136   5.605   3.017   9.196  0.0738  0.3776 -0.3408
  261MOL0     C35137   5.582   3.073   9.324 -0.0175 -0.6710  0.2605
  261MOL0     C35138   5.604   2.973   9.450  1.3890  0.9228  0.7909
  261MOL0     C35139   5.753   2.934   9.467 -0.0770 -0.0999  0.3762
  261MOL0     C35140   5.781   2.825   9.573  0.7595 -0.2831  0.2325
  261MOL0     C35141   5.738   2.866   9.722 -0.4346 -0.0051  0.3101
  261MOL0     C35142   5.767   2.760   9.826  0.3613 -0.3382 -0.5283
  261MOL0     C35143   5.735   2.805   9.963  0.4287  0.0246  0.3080
  261MOL0     C35144   5.585   2.819   9.987  0.9058 -0.4107 -0.9487
  261MOL0    Cl35145   5.537   2.822  10.167  0.0367  0.4601  0.0964
  261MOL0     C35146   5.635   3.229   9.084  0.1575 -0.4205 -0.8119
  261MOL0     C35147   5.704   3.305   8.985 -0.4506  0.6798 -0.0701
  261MOL0     O35148   5.724   3.443   8.730 -0.6936 -0.0410 -0.5803
  261MOL0     C35149   6.032   3.571   8.738  0.6843 -0.3654  0.5128
  261MOL0     C35150   6.129   3.647   8.672  0.0017 -0.6012 -0.8961
  261MOL0     N35151   6.340   3.250   8.291  0.2756 -0.0510  0.5284
  261MOL0     N35152   6.328   3.181   8.185 -0.0594  0.0912 -0.0931
  261MOL0     C35153   6.585   2.221   8.384  0.3680 -0.9036  0.5804
  261MOL0     C35154   6.536   2.209   8.509 -0.4752  0.4908  0.1743
  261MOL0     C35155   6.320   2.150   8.885 -0.2393  0.1431  0.3941
  261MOL0     C35156   6.187   2.199   8.907 -1.0173 -0.6449  0.0217
  261MOL0     C35157   6.132   2.196   9.040  0.4960  0.2702  0.5842
  261MOL0     C35158   6.204   2.152   9.144  0.3435 -0.4799  0.2464
  261MOL0     O35159   6.143   2.164   9.268 -0.0493  0.6231  0.1940
  261MOL0     C35160   6.231   2.201   9.373  0.0442  0.7346  0.5636
  261MOL0     C35161   6.145   2.261   9.485  0.7460  0.5513  0.1999
  261MOL0     C35162   6.091   2.396   9.453 -0.2400  0.3042 -0.3809
  261MOL0     C35163   6.077   2.486   9.573  0.6967  1.0172 -0.3189
  261MOL0     C35164   6.202   2.561   9.602  0.3296 -0.4549  0.9081
  261MOL0     C35165   6.308   2.630   9.609 -0.0294  0.3884  0.2757
  261MOL0     C35166   6.335   2.116   9.126 -0.1714  0.0734 -0.3628
  261MOL0     C35167   6.395   2.116   8.998  0.6546  0.4879  0.0097
  261MOL0     H35168   6.210   2.275   8.447 -0.7233 -0.8137 -2.2831
  261MOL0     H35169   6.299   2.339   8.222 -0.6880  2.8843  2.5808
  261MOL0     H35170   6.535   2.207   7.955 -1.0697  3.1828 -3.7387
  261MOL0     H35171   6.397   2.244   8.033 -0.9677  1.9793 -1.1690
  261MOL0     H35172   6.634   2.431   7.970  0.5534 -2.3802 -0.5066
  261MOL0     H35173   6.496   2.416   7.861 -3.1724 -1.3299  0.3337
  261MOL0     H35174   6.358   2.480   8.073  0.9252 -0.1241  4.5324
  261MOL0     H35175   6.499   2.540   8.138 -3.6692  2.2377  1.7909
  261MOL0     H35176   6.531   2.694   7.936  0.1311  0.0921  1.7826
  261MOL0     H35177   6.370   2.648   7.889  2.2636 -1.1854 -1.2284
  261MOL0     H35178   6.265   2.727   8.107 -0.7112  1.5230 -0.0617
  261MOL0     H35179   6.428   2.764   8.174 -0.8867 -1.5082  1.5447
  261MOL0     H35180   6.333   2.888   7.915 -0.1095  0.7873  0.1672
  261MOL0     H35181   6.284   2.948   8.078 -1.3465 -3.1287  2.2539
  261MOL0     H35182   6.537   2.966   8.106  1.3935  1.8022 -1.0718
  261MOL0     H35183   6.554   2.919   7.930  1.5479  3.1358  0.3942
  261MOL0     H35184   6.388   3.135   7.903 -1.4785  1.2293  2.3548
  261MOL0     H35185   6.554   3.157   7.930 -1.1704 -1.3311 -1.2124
  261MOL0     H35186   6.617   3.315   8.119 -0.2695  0.7344 -0.5699
  261MOL0     H35187   6.453   3.396   8.481  0.8858  2.4684  1.1332
  261MOL0     H35188   6.608   3.432   8.404 -0.0313 -1.8996  0.9632
  261MOL0     H35189   6.517   3.583   8.246  0.6286  1.0338  0.3868
  261MOL0     H35190   6.477   3.646   8.410 -0.6601 -0.8618  0.6960
  261MOL0     H35191   6.245   3.510   8.329  0.4087  0.0770  1.7470
  261MOL0     H35192   6.308   3.603   8.179  2.3041 -0.7104 -0.4597
  261MOL0     H35193   6.166   3.744   8.293 -1.2351 -0.0660  1.8039
  261MOL0     H35194   6.335   3.805   8.321  1.1504 -1.3703 -1.0743
  261MOL0     H35195   6.026   3.569   8.350 -0.2898 -0.0465  0.0984
  261MOL0     H35196   5.874   3.422   8.332 -1.4917 -2.9790 -0.3063
  261MOL0     H35197   5.846   3.320   8.475  2.5474  1.0765  3.4896
  261MOL0     H35198   5.743   3.465   8.449  0.1618 -0.5043  0.3815
  261MOL0     H35199   5.917   3.060   8.888 -0.9792  0.7008 -0.9359
  261MOL0     H35200   5.784   2.928   9.031  2.4769  0.7043  0.2564
  261MOL0     H35201   5.645   3.160   9.342 -1.9151  0.9572 -0.5663
  261MOL0     H35202   5.479   3.110   9.329 -0.0426 -0.7171  0.0702
  261MOL0     H35203   5.569   3.015   9.545  0.0137 -0.4928  0.9337
  261MOL0     H35204   5.546   2.881   9.438  0.9035  1.4653 -1.6952
  261MOL0     H35205   5.813   3.022   9.491  1.8975 -0.4004 -2.8179
  261MOL0     H35206   5.787   2.899   9.369 -1.9101  1.2337 -0.8088
  261MOL0     H35207   5.725   2.736   9.543 -4.1418  1.8594  1.8761
  261MOL0     H35208   5.888   2.804   9.579  1.1153  1.0854 -0.7986
  261MOL0     H35209   5.631   2.887   9.718 -0.5789 -0.8483 -0.6458
  261MOL0     H35210   5.787   2.956   9.762 -1.2431 -0.5485  2.6718
  261MOL0     H35211   5.727   2.661   9.805  0.7279 -1.5838  3.7165
  261MOL0     H35212   5.875   2.743   9.817  0.8437  2.4311 -0.7744
  261MOL0     H35213   5.791   2.895   9.988  1.1666 -0.2670 -0.2347
  261MOL0     H35214   5.762   2.726  10.034  0.7914 -1.9744 -1.8924
  261MOL0     H35215   5.527   2.743   9.935 -0.9362 -0.9016  1.6218
  261MOL0     H35216   5.569   2.918   9.945  1.9491  0.1466 -0.0921
  261MOL0     H35217   5.562   3.282   9.144 -0.0537 -0.5417 -0.9592
  261MOL0     H35218   5.692   3.412   8.968  1.2366  0.5947 -2.3106
  261MOL0     H35219   6.042   3.556   8.845  1.3326 -0.5380  0.4321
  261MOL0     H35220   6.194   3.709   8.733  0.7407 -2.2552  0.0653
  261MOL0     H35221   6.691   2.201   8.368  0.1265 -0.5265 -1.9570
  261MOL0     H35222   6.607   2.171   8.583 -1.5151 -1.0629  0.4210
  261MOL0     H35223   6.135   2.247   8.825  1.6145  1.6778 -0.4287
  261MOL0     H35224   6.033   2.241   9.042  2.0232  4.2227 -1.1401
  261MOL0     H35225   6.280   2.110   9.410 -0.7470 -0.4995 -1.2334
  261MOL0     H35226   6.307   2.277   9.352  2.0945 -0.9517  1.4899
  261MOL0     H35227   6.209   2.266   9.574  2.3338 -0.7964 -0.8358
  261MOL0     H35228   6.058   2.199   9.507 -1.1085  1.9183 -2.6148
  261MOL0     H35229   5.991   2.379   9.412  0.6516 -2.6929 -1.5623
  261MOL0     H35230   6.143   2.438   9.367 -0.1234 -0.5116 -0.7217
  261MOL0     H35231   6.052   2.434   9.666 -1.5646  0.7593 -1.0208
  261MOL0     H35232   5.988   2.547   9.554  0.8786  1.2840 -0.3195
  261MOL0     H35233   6.397   2.689   9.619  0.0001  0.3561  0.1984
  261MOL0     H35234   6.396   2.068   9.202  0.3916  0.6874 -0.4191
  261MOL0     H35235   6.494   2.072   8.993  0.1892 -1.1741  2.7998
  262MOL0     O35236   0.593   1.128   3.147  0.2521  1.1936  0.7798
  262MOL0     C35237   0.697   1.062   3.170 -0.2146  0.5078  0.3868
  262MOL0     O35238   0.756   0.968   3.084 -0.8169  0.2674  0.0459
  262MOL0     C35239   0.681   0.888   2.998  0.5205  0.8299  0.2336
  262MOL0     C35240   0.753   0.811   2.903 -0.8108  0.4165  1.1820
  262MOL0     C35241   0.681   0.730   2.808  0.1228  0.6100 -0.3471
  262MOL0     C35242   0.542   0.726   2.796 -0.2256  0.1576 -0.9843
  262MOL0     O35243   0.488   0.659   2.691  0.2749 -0.4635 -0.3940
  262MOL0     C35244   0.366   0.705   2.631  0.6448  0.6250  0.2130
  262MOL0     C35245   0.261   0.589   2.654 -0.1133  0.0232 -0.1674
  262MOL0     C35246   0.220   0.571   2.798  1.4035  0.0833  0.4387
  262MOL0     C35247   0.114   0.462   2.811  0.3097 -0.6930 -1.1055
  262MOL0     C35248   0.130   0.323   2.752 -0.2566 -0.7224 -0.6737
  262MOL0     C35249   0.026   0.219   2.805 -0.1046 -0.7940  0.1724
  262MOL0     C35250   0.086   0.076   2.793  0.6370  0.1144  0.3364
  262MOL0     C35251   0.103   0.025   2.645 -0.4500  0.0925 -0.3401
  262MOL0     N35252   0.210  -0.076   2.644 -0.3404  0.3114 -0.3645
  262MOL0     C35253   0.182  -0.208   2.676  0.2686 -0.3864 -0.2520
  262MOL0     C35254   0.276  -0.283   2.625  0.0284  0.1991 -0.5765
  262MOL0     C35255   0.269  -0.437   2.624 -0.5985  0.6905 -0.7042
  262MOL0     C35256   0.407  -0.493   2.680 -0.0788  0.2683  0.6280
  262MOL0     C35257   0.438  -0.638   2.651  0.2091 -0.5171 -1.4104
  262MOL0     C35258   0.470  -0.674   2.504  0.3069 -0.4827 -0.7840
  262MOL0     O35259   0.391  -0.781   2.451 -0.4568  0.0886 -0.1145
  262MOL0     C35260   0.328  -0.761   2.332  0.3811 -0.1356 -0.1319
  262MOL0     C35261   0.224  -0.834   2.287 -0.0300  0.8444 -0.4931
  262MOL0     C35262   0.148  -0.814   2.164 -0.0701  0.1798 -0.3397
  262MOL0     C35263   0.055  -0.915   2.126  1.2532  0.9072 -0.4152
  262MOL0     C35264   0.191  -0.720   2.066 -1.3146 -1.4770  0.2602
  262MOL0     C35265   0.133  -0.694   1.930 -0.9220  0.2286 -0.0695
  262MOL0     O35266   0.215  -0.642   1.824  0.2346 -0.0649 -0.7014
  262MOL0     C35267   0.178  -0.638   1.694 -0.3375  0.0226  1.0518
  262MOL0     C35268   0.273  -0.676   1.602 -0.4379  1.1659  0.0241
  262MOL0     C35269   0.235  -0.692   1.470 -0.1581 -0.4323  0.6613
  262MOL0     C35270   0.111  -0.654   1.432 -1.1382 -0.8716 -0.4646
  262MOL0     O35271   0.080  -0.650   1.299 -0.2419  0.6196 -0.0991
  262MOL0     C35272   0.105  -0.773   1.225  0.4498  0.2083  0.7414
  262MOL0     C35273  -0.015  -0.877   1.219  0.4365  0.1614  0.2078
  262MOL0     C35274  -0.154  -0.812   1.256  0.5520  0.7460  0.7206
  262MOL0     C35275  -0.271  -0.902   1.214 -0.2010  0.3519 -1.0027
  262MOL0     C35276  -0.408  -0.856   1.278 -0.3173 -0.1918  0.1510
  262MOL0     C35277  -0.520  -0.941   1.245  0.0710  0.0993 -0.1034
  262MOL0     C35278  -0.561  -0.942   1.092  0.2293  0.3616 -0.1215
  262MOL0     C35279  -0.561  -1.083   1.024 -0.7942 -0.5745  0.6928
  262MOL0    Cl35280  -0.571  -1.068   0.836  0.1537  0.9052 -0.3441
  262MOL0     C35281   0.023  -0.601   1.523  0.5818 -0.2601 -0.0031
  262MOL0     C35282   0.055  -0.593   1.652  0.1903 -0.4231 -0.7902
  262MOL0     O35283   0.020  -0.731   1.913  0.1971  0.7204  1.0429
  262MOL0     C35284   0.312  -0.646   2.107  0.2085  0.4745 -0.1650
  262MOL0     C35285   0.368  -0.672   2.232  0.6910  0.0098 -0.6992
  262MOL0     N35286   0.369  -0.195   2.569  0.0084 -0.5898 -0.8127
  262MOL0     N35287   0.334  -0.074   2.583  0.0989  0.1634 -0.3689
  262MOL0     C35288   0.476   0.797   2.894 -0.3313  1.0361  0.4329
  262MOL0     C35289   0.540   0.872   2.997  0.6918 -0.4883  0.5870
  262MOL0     C35290   0.762   1.078   3.297  0.3986 -0.4564 -0.2362
  262MOL0     C35291   0.846   0.982   3.359  0.9341  0.1864  0.8044
  262MOL0     C35292   0.914   1.000   3.480 -0.2434 -0.7180 -0.7191
  262MOL0     C35293   0.898   1.112   3.552  0.2811  0.4293 -0.0599
  262MOL0     O35294   0.960   1.122   3.677  0.2100 -0.0220  0.0127
  262MOL0     C35295   0.898   1.212   3.776 -0.1864  0.3457  0.3945
  262MOL0     C35296   0.956   1.160   3.912  0.2369 -0.6280 -0.1810
  262MOL0     C35297   1.103   1.135   3.913  0.9385  0.0364 -0.3174
  262MOL0     C35298   1.157   1.074   4.047  1.0265  0.0148  0.2411
  262MOL0     C35299   1.131   1.154   4.167  0.3925  0.0212  0.0515
  262MOL0     C35300   1.102   1.212   4.268 -0.0468 -1.0208  0.9422
  262MOL0     C35301   0.816   1.215   3.502 -0.2078 -0.6199  0.1659
  262MOL0     C35302   0.751   1.193   3.377  0.8740  0.3153 -0.0672
  262MOL0     H35303   0.861   0.811   2.913 -0.8284  1.5686  1.4655
  262MOL0     H35304   0.751   0.679   2.743  2.0855 -0.7498  2.6132
  262MOL0     H35305   0.322   0.797   2.670 -0.9510 -0.4799  1.1376
  262MOL0     H35306   0.382   0.716   2.523  0.3528  4.0952  0.4149
  262MOL0     H35307   0.177   0.607   2.586  2.9058  0.5149 -4.1400
  262MOL0     H35308   0.310   0.500   2.615  0.4152 -0.9273  2.4514
  262MOL0     H35309   0.308   0.561   2.863  1.1465 -0.4331  0.7095
  262MOL0     H35310   0.190   0.670   2.835  1.3931 -0.4681  1.9938
  262MOL0     H35311   0.100   0.453   2.919 -0.2089  0.8589 -1.0148
  262MOL0     H35312   0.018   0.506   2.780 -1.7683 -4.1104 -0.1455
  262MOL0     H35313   0.137   0.328   2.643 -0.0563  1.5429 -0.6065
  262MOL0     H35314   0.230   0.292   2.783  1.0679  2.7574 -1.0050
  262MOL0     H35315  -0.008   0.237   2.907 -1.1986  1.8217 -0.5591
  262MOL0     H35316  -0.068   0.229   2.749 -0.2800  5.1564  0.8577
  262MOL0     H35317   0.181   0.066   2.846  1.1550 -1.3555 -0.8022
  262MOL0     H35318   0.014   0.012   2.844  0.8368 -1.6836 -1.5006
  262MOL0     H35319   0.129   0.107   2.577 -0.0920 -1.0935 -1.6846
  262MOL0     H35320   0.017  -0.036   2.617 -0.1996 -0.9237  0.9843
  262MOL0     H35321   0.093  -0.248   2.724 -0.2680 -0.0865 -0.9741
  262MOL0     H35322   0.193  -0.474   2.694  2.3744 -0.8472  2.0116
  262MOL0     H35323   0.241  -0.474   2.525  0.9908  0.2749 -1.0162
  262MOL0     H35324   0.418  -0.468   2.786  1.5287  0.7728  0.3726
  262MOL0     H35325   0.490  -0.439   2.632 -1.3108  0.7773 -0.9937
  262MOL0     H35326   0.365  -0.708   2.692 -1.4937  2.1191  0.4330
  262MOL0     H35327   0.528  -0.661   2.710 -0.2038  2.2189  0.4964
  262MOL0     H35328   0.574  -0.710   2.505 -0.2664 -2.2649 -1.3772
  262MOL0     H35329   0.461  -0.586   2.441 -3.4208 -1.1992 -1.4451
  262MOL0     H35330   0.201  -0.913   2.358 -0.7043  3.8408  2.9620
  262MOL0     H35331  -0.035  -0.853   2.116  1.6317  1.5374 -0.0080
  262MOL0     H35332   0.074  -0.966   2.032  2.6105 -1.0727  0.8766
  262MOL0     H35333   0.025  -0.979   2.209 -3.5850  1.4925 -1.4080
  262MOL0     H35334   0.374  -0.708   1.627 -1.7251 -3.0232  0.6715
  262MOL0     H35335   0.320  -0.728   1.413  0.1476 -0.7119  1.2835
  262MOL0     H35336   0.127  -0.748   1.121  2.7530 -1.8232  0.6474
  262MOL0     H35337   0.196  -0.823   1.261  1.9030  0.3629 -2.4179
  262MOL0     H35338  -0.021  -0.916   1.117 -3.8468  0.9145 -0.0030
  262MOL0     H35339  -0.005  -0.958   1.292  0.7989 -0.5547 -0.6259
  262MOL0     H35340  -0.160  -0.719   1.198 -0.3310 -0.2247 -0.7966
  262MOL0     H35341  -0.143  -0.794   1.364  1.4849 -1.5311  1.0573
  262MOL0     H35342  -0.272  -0.912   1.105 -1.2536 -0.4544 -0.9235
  262MOL0     H35343  -0.246  -1.003   1.246 -1.2662  0.1200 -0.8794
  262MOL0     H35344  -0.427  -0.752   1.250 -0.9214  0.9511  4.1354
  262MOL0     H35345  -0.404  -0.850   1.387 -1.5746 -1.1672  0.2673
  262MOL0     H35346  -0.520  -1.037   1.299 -1.0500  0.4363  0.5269
  262MOL0     H35347  -0.615  -0.899   1.281 -1.5363 -1.4863 -2.1656
  262MOL0     H35348  -0.487  -0.883   1.038 -0.2385  2.5522  1.4829
  262MOL0     H35349  -0.660  -0.898   1.078 -0.2471 -0.5517  0.3107
  262MOL0     H35350  -0.636  -1.148   1.070 -1.5922  1.3507  2.2713
  262MOL0     H35351  -0.465  -1.132   1.046 -1.8438 -2.2221  1.8404
  262MOL0     H35352  -0.074  -0.562   1.493  1.9215  2.8184 -0.7950
  262MOL0     H35353  -0.018  -0.559   1.725 -0.7852 -2.5560 -0.6850
  262MOL0     H35354   0.344  -0.572   2.034  0.5767 -2.1101 -2.8223
  262MOL0     H35355   0.460  -0.614   2.244  1.1509 -0.0738 -3.1919
  262MOL0     H35356   0.369   0.800   2.877 -0.0363 -0.0713 -2.1637
  262MOL0     H35357   0.465   0.926   3.054  1.3055  1.4771 -0.3581
  262MOL0     H35358   0.851   0.889   3.303 -3.7858 -0.2215  0.6609
  262MOL0     H35359   0.976   0.922   3.524 -0.5044 -1.5195 -1.7465
  262MOL0     H35360   0.926   1.315   3.750  0.9909 -0.4901 -1.9969
  262MOL0     H35361   0.790   1.195   3.770 -0.3516  1.0332  1.1853
  262MOL0     H35362   0.914   1.064   3.945 -1.2630 -0.1997 -0.7856
  262MOL0     H35363   0.913   1.231   3.984  1.9287 -0.7302  0.9861
  262MOL0     H35364   1.155   1.225   3.881  1.4574  0.6137  1.9598
  262MOL0     H35365   1.122   1.062   3.834  0.5727 -0.8510  0.3847
  262MOL0     H35366   1.264   1.051   4.038  0.3093 -4.5789  0.9661
  262MOL0     H35367   1.108   0.977   4.064  2.0888 -0.6158 -0.1978
  262MOL0     H35368   1.089   1.259   4.364  1.6277  0.7078  0.4053
  262MOL0     H35369   0.788   1.302   3.561 -2.1121 -2.4369  2.1226
  262MOL0     H35370   0.691   1.276   3.342  0.6449 -1.1844 -3.6632
  263MOL0     O35371   4.169   4.293   5.782 -0.5482 -0.0017  0.1119
  263MOL0     C35372   4.049   4.260   5.769 -0.6661  0.5112 -0.0042
  263MOL0     O35373   3.992   4.168   5.850  0.1393 -0.5592  0.3603
  263MOL0     C35374   4.062   4.115   5.949 -0.7364  0.6272  0.1547
  263MOL0     C35375   4.086   4.191   6.058 -0.2269 -0.2506 -0.3844
  263MOL0     C35376   4.146   4.137   6.177  0.3112  0.5090 -0.0405
  263MOL0     C35377   4.191   4.003   6.174 -0.1273 -0.2453 -0.9022
  263MOL0     O35378   4.232   3.933   6.287 -0.6238  0.1597  0.1034
  263MOL0     C35379   4.362   3.974   6.322  0.0538  0.6359 -0.7928
  263MOL0     C35380   4.353   3.975   6.487 -0.5833  0.4257 -0.2793
  263MOL0     C35381   4.270   4.097   6.541  0.4442  1.3784 -0.5256
  263MOL0     C35382   4.340   4.150   6.665  0.4386  0.9413 -0.4290
  263MOL0     C35383   4.264   4.246   6.758  0.7332 -0.0142 -0.2641
  263MOL0     C35384   4.146   4.165   6.827  0.2172  0.5342 -0.6784
  263MOL0     C35385   4.190   4.071   6.938  0.4639 -0.0777  0.6589
  263MOL0     C35386   4.081   3.991   7.015 -0.5636  0.1164  0.0442
  263MOL0     N35387   4.004   4.072   7.111  0.2921  1.2225 -0.2342
  263MOL0     C35388   3.864   4.059   7.126 -0.7512 -0.5670 -0.8683
  263MOL0     C35389   3.840   4.146   7.227  0.6946 -0.4321 -1.4870
  263MOL0     C35390   3.703   4.175   7.298  0.2266  1.0237 -0.6341
  263MOL0     C35391   3.644   4.312   7.283  0.0773  0.4953  0.4132
  263MOL0     C35392   3.618   4.352   7.144 -0.4037 -1.5366  0.7256
  263MOL0     C35393   3.536   4.485   7.125 -0.1080 -0.0516  0.4024
  263MOL0     O35394   3.619   4.603   7.129 -0.1416  1.0330 -0.0140
  263MOL0     C35395   3.616   4.678   7.244  0.0024 -0.7803  0.8794
  263MOL0     C35396   3.536   4.661   7.355 -0.0447  0.5072 -0.1090
  263MOL0     C35397   3.529   4.743   7.467  0.7963  0.3951 -0.3004
  263MOL0     C35398   3.428   4.700   7.576 -0.5319 -0.2106  0.1970
  263MOL0     C35399   3.599   4.863   7.459  0.2388  0.2295  0.5156
  263MOL0     C35400   3.597   4.976   7.549 -0.6110 -0.2730 -0.7491
  263MOL0     O35401   3.649   5.094   7.512 -0.1866  0.4364 -0.4968
  263MOL0     C35402   3.645   5.197   7.604  1.4798  0.5596 -0.1249
  263MOL0     C35403   3.690   5.190   7.734  0.1208  0.5644 -0.4454
  263MOL0     C35404   3.677   5.308   7.824  0.6862 -1.0144  0.0278
  263MOL0     C35405   3.613   5.423   7.773  0.8735  0.3409 -0.1770
  263MOL0     O35406   3.586   5.519   7.875 -0.4802  0.0762  0.8938
  263MOL0     C35407   3.458   5.589   7.878  0.0613  0.0115 -0.7352
  263MOL0     C35408   3.449   5.703   7.980 -0.5079  0.5217  0.2003
  263MOL0     C35409   3.325   5.789   7.958  0.5636 -0.1686  0.1502
  263MOL0     C35410   3.190   5.710   7.982  0.7877 -0.1860 -0.3740
  263MOL0     C35411   3.081   5.815   7.974  0.5464 -0.1237  0.1930
  263MOL0     C35412   2.961   5.774   8.061  0.3376  0.5240  0.2879
  263MOL0     C35413   2.886   5.667   7.983  0.4541  0.1335 -1.0614
  263MOL0     C35414   2.749   5.647   8.049  0.0863 -0.5383 -0.0966
  263MOL0    Cl35415   2.634   5.777   8.001 -0.4834  0.2109 -0.1928
  263MOL0     C35416   3.573   5.430   7.641 -0.4742  0.2270 -0.0832
  263MOL0     C35417   3.585   5.317   7.552 -0.2474 -0.2520  0.0751
  263MOL0     O35418   3.527   4.958   7.656 -0.6997  0.0209 -0.0321
  263MOL0     C35419   3.690   4.876   7.356  1.1227  0.6032 -0.0112
  263MOL0     C35420   3.696   4.788   7.245  0.5508 -0.0568 -0.6496
  263MOL0     N35421   3.962   4.205   7.261  0.1939 -0.4156  0.0367
  263MOL0     N35422   4.059   4.162   7.191 -0.0077 -0.6797  0.5853
  263MOL0     C35423   4.161   3.926   6.060 -0.2659 -0.3066 -1.1906
  263MOL0     C35424   4.096   3.979   5.948  0.4071 -0.8596  0.6389
  263MOL0     C35425   3.964   4.338   5.683 -0.3726 -0.7354  0.3410
  263MOL0     C35426   3.846   4.296   5.630  0.5858 -0.0061 -0.5574
  263MOL0     C35427   3.780   4.364   5.526 -0.9223 -0.5304 -0.2452
  263MOL0     C35428   3.835   4.490   5.474  0.7614  0.6316  0.0822
  263MOL0     O35429   3.773   4.574   5.383  1.0634  0.5929  0.4387
  263MOL0     C35430   3.634   4.526   5.364 -0.3332 -0.9621 -0.2888
  263MOL0     C35431   3.549   4.634   5.282 -0.3271 -0.2481  0.1041
  263MOL0     C35432   3.634   4.676   5.159  0.0493  0.2641  0.0694
  263MOL0     C35433   3.560   4.776   5.070 -0.6655 -0.0212  0.2485
  263MOL0     C35434   3.635   4.851   4.978 -0.2090 -0.3169 -0.1268
  263MOL0     C35435   3.700   4.929   4.909 -0.7907 -0.1867 -1.0868
  263MOL0     C35436   3.950   4.532   5.530 -1.1236  0.6285  0.1270
  263MOL0     C35437   4.014   4.462   5.635 -0.0998 -0.1852  0.5246
  263MOL0     H35438   4.068   4.298   6.057  2.4980  0.2946  0.2388
  263MOL0     H35439   4.153   4.193   6.269  1.2532 -0.4689  0.5056
  263MOL0     H35440   4.450   3.912   6.305 -1.1016 -1.2811 -0.1917
  263MOL0     H35441   4.382   4.080   6.302 -0.1507  1.2144  1.7071
  263MOL0     H35442   4.307   3.882   6.521  2.1482 -0.8811  0.1647
  263MOL0     H35443   4.453   3.990   6.529 -2.1066  3.7420  2.6513
  263MOL0     H35444   4.251   4.166   6.458  1.0912 -0.2394 -2.1129
  263MOL0     H35445   4.173   4.056   6.569  0.6904  1.3546  0.2952
  263MOL0     H35446   4.360   4.062   6.727  0.6069  0.2575 -1.4459
  263MOL0     H35447   4.439   4.182   6.631  1.2731 -0.9287  0.1070
  263MOL0     H35448   4.340   4.273   6.832 -0.3770  0.4212  0.7514
  263MOL0     H35449   4.221   4.332   6.707 -1.1549 -0.2138  0.9106
  263MOL0     H35450   4.080   4.241   6.871  0.2678  0.4420 -0.4440
  263MOL0     H35451   4.078   4.112   6.760  0.8208 -0.3781 -0.5854
  263MOL0     H35452   4.243   3.984   6.898 -0.4564 -0.7006  0.7627
  263MOL0     H35453   4.259   4.132   6.998 -1.0729 -0.4412  2.9006
  263MOL0     H35454   4.140   3.928   7.083 -3.3263 -0.5282  2.0258
  263MOL0     H35455   4.008   3.944   6.949  0.2044  0.2086 -0.8881
  263MOL0     H35456   3.799   3.984   7.083 -0.5014 -2.3351  1.5849
  263MOL0     H35457   3.630   4.097   7.273 -2.2704  2.7843  0.7265
  263MOL0     H35458   3.730   4.164   7.404  2.7494 -0.2495 -1.3334
  263MOL0     H35459   3.709   4.382   7.337 -0.1918 -1.1333  3.0081
  263MOL0     H35460   3.549   4.314   7.336 -0.2675 -1.9209 -0.0354
  263MOL0     H35461   3.550   4.277   7.102  1.4834 -2.7663 -0.2300
  263MOL0     H35462   3.712   4.348   7.088  1.3170 -1.2612  3.4366
  263MOL0     H35463   3.440   4.495   7.177  0.1933  0.1022  0.9348
  263MOL0     H35464   3.516   4.468   7.018  2.9738 -2.6252  0.0804
  263MOL0     H35465   3.491   4.565   7.378 -0.4130  0.6968 -0.0255
  263MOL0     H35466   3.341   4.766   7.584 -2.0164 -2.0969  0.3244
  263MOL0     H35467   3.386   4.599   7.568 -3.8645  1.1539 -1.9873
  263MOL0     H35468   3.481   4.695   7.671  0.0024 -2.4184 -0.1486
  263MOL0     H35469   3.723   5.104   7.791  0.4828 -0.0128 -1.4820
  263MOL0     H35470   3.713   5.296   7.925  2.7255 -2.4784 -0.7878
  263MOL0     H35471   3.418   5.619   7.781 -0.6965 -2.1743 -1.1505
  263MOL0     H35472   3.380   5.519   7.908  0.7048 -0.9395 -1.2485
  263MOL0     H35473   3.449   5.670   8.084  1.8617  0.2487  0.1676
  263MOL0     H35474   3.527   5.778   7.966 -1.1525  1.1472 -0.1418
  263MOL0     H35475   3.315   5.830   7.857 -0.3091 -1.4520 -0.3153
  263MOL0     H35476   3.339   5.869   8.031  3.7127  0.4375 -0.9377
  263MOL0     H35477   3.171   5.625   7.917 -1.9196  1.0724 -1.4017
  263MOL0     H35478   3.190   5.675   8.086  1.8052 -0.4874 -0.4739
  263MOL0     H35479   3.050   5.836   7.871 -2.4153  2.3047  1.4238
  263MOL0     H35480   3.114   5.915   8.006 -1.7339  0.9709 -0.6346
  263MOL0     H35481   2.991   5.754   8.165 -1.4490  1.4256  1.0098
  263MOL0     H35482   2.913   5.871   8.074 -1.0337  0.3459 -2.6130
  263MOL0     H35483   2.928   5.567   7.995  0.5213  0.2944  0.1666
  263MOL0     H35484   2.882   5.700   7.878  2.3607  0.7343 -0.9849
  263MOL0     H35485   2.743   5.639   8.158  4.4073  1.2217  0.4559
  263MOL0     H35486   2.714   5.546   8.024 -0.6602  0.2551 -2.5220
  263MOL0     H35487   3.532   5.517   7.592 -0.0988 -0.3667 -1.5100
  263MOL0     H35488   3.541   5.307   7.454  0.9193 -3.0285 -0.2497
  263MOL0     H35489   3.750   4.967   7.357 -0.6007  1.8238 -1.6433
  263MOL0     H35490   3.754   4.809   7.156 -1.4211 -0.8276 -2.2014
  263MOL0     H35491   4.188   3.822   6.069 -2.5318 -0.8895 -0.4784
  263MOL0     H35492   4.079   3.925   5.856 -1.5332 -0.3486  0.6511
  263MOL0     H35493   3.803   4.202   5.664  2.4530 -1.6400 -2.4239
  263MOL0     H35494   3.688   4.322   5.488 -0.9236 -0.5049 -0.2699
  263MOL0     H35495   3.630   4.436   5.301 -0.6701  0.3892 -2.3180
  263MOL0     H35496   3.581   4.516   5.459  4.2593  0.9813  2.8058
  263MOL0     H35497   3.524   4.722   5.342 -1.4065  0.3914 -1.2421
  263MOL0     H35498   3.456   4.595   5.240  0.2930 -3.2357  1.2268
  263MOL0     H35499   3.675   4.595   5.099  0.3641  1.8260 -1.9581
  263MOL0     H35500   3.717   4.734   5.200 -1.9158  2.5602  1.0847
  263MOL0     H35501   3.518   4.844   5.145  1.8086  1.1041  0.7141
  263MOL0     H35502   3.480   4.730   5.010 -0.3561 -1.7423  1.1050
  263MOL0     H35503   3.752   5.007   4.856 -0.9548  1.0275  0.4816
  263MOL0     H35504   3.988   4.630   5.501  2.5121 -0.0511  2.0633
  263MOL0     H35505   4.105   4.506   5.673 -0.1131 -0.6373  1.0815
  264MOL0     O35506   1.123   4.194   4.764  0.0987 -0.1650 -0.1020
  264MOL0     C35507   1.060   4.132   4.684  0.3841  0.2403  0.3063
  264MOL0     O35508   1.042   3.990   4.680 -0.4675  0.5280 -0.8992
  264MOL0     C35509   1.126   3.905   4.746  0.0309  1.0471 -0.5167
  264MOL0     C35510   1.123   3.766   4.700  0.1728 -0.1169 -0.2249
  264MOL0     C35511   1.188   3.663   4.767 -0.8179 -0.3568 -0.4970
  264MOL0     C35512   1.259   3.693   4.880  0.2715 -0.7740  0.2087
  264MOL0     O35513   1.348   3.611   4.943  0.5196  0.5426 -0.1322
  264MOL0     C35514   1.312   3.470   4.958 -0.6357 -0.2440 -0.2097
  264MOL0     C35515   1.416   3.371   4.951  0.1325 -0.0823  0.3592
  264MOL0     C35516   1.450   3.361   4.805 -0.9794  0.3011  0.0615
  264MOL0     C35517   1.543   3.235   4.769  0.4939 -0.4878  0.0054
  264MOL0     C35518   1.593   3.241   4.630  0.3346 -0.9097  0.4816
  264MOL0     C35519   1.671   3.121   4.587  1.2140 -0.4067 -0.3368
  264MOL0     C35520   1.728   3.138   4.444 -0.2624 -0.2237 -0.5465
  264MOL0     C35521   1.772   3.006   4.387  0.0387 -0.2685  0.7678
  264MOL0     N35522   1.883   2.944   4.464 -0.5097  0.3327  0.0640
  264MOL0     C35523   1.895   2.810   4.463 -0.2756  0.1978 -0.8404
  264MOL0     C35524   2.003   2.792   4.546 -1.0193  0.5775  0.1481
  264MOL0     C35525   2.073   2.658   4.565 -0.7812  0.2793 -0.4272
  264MOL0     C35526   2.041   2.600   4.703  0.7043 -0.6553 -0.4642
  264MOL0     C35527   2.161   2.518   4.754 -1.2947 -0.3805 -0.1195
  264MOL0     C35528   2.131   2.443   4.878 -0.7846  0.5906 -0.0425
  264MOL0     O35529   2.208   2.327   4.892  0.0374  1.0576  0.1143
  264MOL0     C35530   2.279   2.315   5.011 -1.0994  0.7694  1.2062
  264MOL0     C35531   2.352   2.424   5.060  0.9545  0.8016  0.5777
  264MOL0     C35532   2.438   2.406   5.166  0.0095  0.0993 -0.3414
  264MOL0     C35533   2.518   2.531   5.208 -0.0021 -0.5216 -0.8640
  264MOL0     C35534   2.455   2.279   5.224 -0.1846  0.3609 -0.3497
  264MOL0     C35535   2.555   2.260   5.333 -0.2410 -0.1009 -1.2337
  264MOL0     O35536   2.671   2.328   5.322  0.2736 -0.3267  0.9255
  264MOL0     C35537   2.764   2.319   5.427 -0.3249 -0.4447  1.6105
  264MOL0     C35538   2.896   2.260   5.405 -0.0763  0.3628 -1.3335
  264MOL0     C35539   3.004   2.261   5.501  0.0654 -0.5432  0.8884
  264MOL0     C35540   2.971   2.321   5.619  0.0732 -1.0004 -0.0833
  264MOL0     O35541   3.073   2.328   5.712 -0.2982 -0.3047  0.7593
  264MOL0     C35542   3.075   2.413   5.821 -0.2164 -0.1804 -0.6273
  264MOL0     C35543   3.009   2.355   5.943  0.3059 -0.2445 -0.8341
  264MOL0     C35544   3.084   2.238   6.002 -0.3414 -0.0641  1.3989
  264MOL0     C35545   3.026   2.207   6.135  0.0571 -0.1019  0.8324
  264MOL0     C35546   3.071   2.071   6.190  0.2442  0.3562 -0.2813
  264MOL0     C35547   3.204   2.075   6.266  0.1145 -0.6660 -1.6430
  264MOL0     C35548   3.237   1.940   6.317 -0.4475  0.9825  0.4258
  264MOL0     C35549   3.346   1.860   6.231  1.0766  0.2399  0.7419
  264MOL0    Cl35550   3.389   1.721   6.328  0.1998  0.1671 -0.0794
  264MOL0     C35551   2.844   2.389   5.643 -0.8718 -1.3407 -0.4586
  264MOL0     C35552   2.743   2.383   5.546  0.8351 -0.4752  0.7377
  264MOL0     O35553   2.537   2.169   5.417 -0.0992  0.4015 -0.7426
  264MOL0     C35554   2.380   2.172   5.183  0.0806  0.1830 -1.0288
  264MOL0     C35555   2.289   2.190   5.078 -0.4019 -0.2178  0.7157
  264MOL0     N35556   2.054   2.914   4.594  0.1053 -0.3757  0.0533
  264MOL0     N35557   1.980   3.006   4.539 -0.4234 -0.4079 -0.4755
  264MOL0     C35558   1.257   3.822   4.925 -0.4967 -0.6694  0.3295
  264MOL0     C35559   1.183   3.930   4.867 -0.3240 -0.2802 -0.7633
  264MOL0     C35560   0.971   4.213   4.591 -0.3511 -0.3796  1.5285
  264MOL0     C35561   0.933   4.349   4.611  0.0137 -0.0747  0.7864
  264MOL0     C35562   0.844   4.414   4.522  0.8392  0.3216 -0.0239
  264MOL0     C35563   0.797   4.358   4.403 -1.0445  0.4860 -0.1653
  264MOL0     O35564   0.713   4.437   4.330  0.1821  0.3107 -0.2910
  264MOL0     C35565   0.625   4.373   4.238 -1.0620 -0.8022 -0.7722
  264MOL0     C35566   0.577   4.474   4.137  0.0243  0.2882  0.2803
  264MOL0     C35567   0.497   4.583   4.206 -0.8777  0.6814 -0.7886
  264MOL0     C35568   0.568   4.715   4.243  0.0649  0.3089  0.8184
  264MOL0     C35569   0.544   4.812   4.133  0.3090 -1.0381  1.1807
  264MOL0     C35570   0.510   4.893   4.047 -0.1431  0.5337  0.2943
  264MOL0     C35571   0.845   4.235   4.369  0.4232  1.0534  0.2410
  264MOL0     C35572   0.921   4.166   4.465  0.2205 -0.5303 -0.5157
  264MOL0     H35573   1.055   3.735   4.621 -1.5991  3.5645 -0.3831
  264MOL0     H35574   1.188   3.560   4.733 -1.6171 -0.1938 -1.0049
  264MOL0     H35575   1.266   3.472   5.058  1.6407 -0.6049  0.9147
  264MOL0     H35576   1.237   3.440   4.885  0.5703  4.1814 -3.6795
  264MOL0     H35577   1.495   3.403   5.020  1.2161 -4.0919  1.1994
  264MOL0     H35578   1.386   3.271   4.983  3.9897 -1.7911 -0.6441
  264MOL0     H35579   1.358   3.349   4.746  0.2019 -1.6364 -1.5210
  264MOL0     H35580   1.508   3.448   4.776  1.1886 -0.6968  1.1931
  264MOL0     H35581   1.621   3.231   4.845 -1.3542 -0.5117  2.0045
  264MOL0     H35582   1.486   3.142   4.765 -2.3290  1.1602 -0.9409
  264MOL0     H35583   1.509   3.258   4.561  3.1176  0.1508 -2.9720
  264MOL0     H35584   1.653   3.331   4.610 -1.3421 -0.2087 -1.9458
  264MOL0     H35585   1.759   3.106   4.651 -1.1311 -2.0944  2.8126
  264MOL0     H35586   1.593   3.044   4.584  0.4720  0.3082  0.0666
  264MOL0     H35587   1.659   3.188   4.375  2.7368  0.3116 -3.3934
  264MOL0     H35588   1.817   3.200   4.459 -0.7292 -0.3013  4.3272
  264MOL0     H35589   1.801   3.004   4.281  1.1107 -2.2096  1.0514
  264MOL0     H35590   1.678   2.951   4.399 -1.0824  1.2253 -0.6556
  264MOL0     H35591   1.846   2.737   4.399  1.3178 -2.1419  0.4173
  264MOL0     H35592   2.030   2.600   4.483  0.7529 -0.0892 -0.9936
  264MOL0     H35593   2.181   2.674   4.557 -0.8425  2.0576  1.2927
  264MOL0     H35594   1.950   2.538   4.697 -1.0348  1.9056 -3.3180
  264MOL0     H35595   2.017   2.685   4.767  1.0815  0.4904 -1.7981
  264MOL0     H35596   2.240   2.593   4.765 -1.7860  0.3951 -1.6669
  264MOL0     H35597   2.192   2.447   4.677  0.0063  0.7644 -0.6807
  264MOL0     H35598   2.029   2.405   4.873  0.0127 -2.7417  3.6637
  264MOL0     H35599   2.131   2.512   4.964 -1.7069  1.9456 -1.0843
  264MOL0     H35600   2.350   2.519   5.007  4.6212  1.5398  1.4451
  264MOL0     H35601   2.519   2.546   5.317  1.8925 -0.5992 -0.8229
  264MOL0     H35602   2.624   2.523   5.179  0.4435  3.1101 -0.6790
  264MOL0     H35603   2.479   2.622   5.162 -2.5131 -1.5009 -0.8191
  264MOL0     H35604   2.918   2.225   5.305 -1.5083  0.7014 -1.7902
  264MOL0     H35605   3.103   2.218   5.488  0.8886  0.6198  2.8220
  264MOL0     H35606   3.181   2.431   5.845 -0.0981  1.7011 -2.2987
  264MOL0     H35607   3.033   2.507   5.785  0.2140  0.8345  1.4089
  264MOL0     H35608   3.012   2.436   6.017  0.7792 -0.7703 -0.2649
  264MOL0     H35609   2.904   2.333   5.919  1.1970 -2.6680 -2.9301
  264MOL0     H35610   3.189   2.265   6.017  0.1134 -2.3716  2.7558
  264MOL0     H35611   3.074   2.165   5.921 -2.9870  1.0493  0.5913
  264MOL0     H35612   3.040   2.293   6.201 -1.1746  1.6250 -1.0401
  264MOL0     H35613   2.920   2.193   6.112  0.1986  0.4076 -0.1848
  264MOL0     H35614   3.082   2.002   6.106 -1.5671  0.9623 -1.0666
  264MOL0     H35615   2.988   2.037   6.252 -1.1358 -1.0687 -2.7283
  264MOL0     H35616   3.287   2.118   6.209  1.1354  0.9411  0.8928
  264MOL0     H35617   3.193   2.138   6.354  0.9902 -1.6701 -0.8013
  264MOL0     H35618   3.145   1.881   6.320  0.1969  0.0186  1.8568
  264MOL0     H35619   3.280   1.942   6.417  0.7403  0.8828 -0.0737
  264MOL0     H35620   3.436   1.921   6.224  1.4890 -0.0502  2.6976
  264MOL0     H35621   3.310   1.816   6.138  1.6655  0.0245  0.6088
  264MOL0     H35622   2.816   2.451   5.728 -0.7276  0.4597 -1.6618
  264MOL0     H35623   2.642   2.419   5.565 -0.6840 -4.6810  1.5928
  264MOL0     H35624   2.398   2.073   5.223 -2.6871 -1.3704 -3.2361
  264MOL0     H35625   2.231   2.109   5.035  1.1399 -0.6479 -0.6119
  264MOL0     H35626   1.308   3.837   5.020  0.3920 -1.7373  0.0432
  264MOL0     H35627   1.195   4.028   4.911 -0.6949 -0.2782 -0.6597
  264MOL0     H35628   0.949   4.391   4.710 -0.8156  2.7970 -0.2008
  264MOL0     H35629   0.801   4.511   4.546 -2.8127 -1.4128  1.0031
  264MOL0     H35630   0.669   4.293   4.179 -1.6481 -2.6555  1.1894
  264MOL0     H35631   0.545   4.323   4.294  1.1461 -1.4255  2.0697
  264MOL0     H35632   0.516   4.429   4.059  1.0624  2.9625 -2.2222
  264MOL0     H35633   0.663   4.504   4.076 -0.6007  1.1747 -0.1692
  264MOL0     H35634   0.455   4.549   4.301 -1.2465  0.6985 -0.9435
  264MOL0     H35635   0.414   4.608   4.140 -0.1969  1.4378 -1.3826
  264MOL0     H35636   0.677   4.703   4.251  0.1164  0.2519  0.0305
  264MOL0     H35637   0.521   4.744   4.338 -0.1752 -1.7695  1.3736
  264MOL0     H35638   0.475   4.953   3.966 -1.7021 -2.6227 -1.5728
  264MOL0     H35639   0.827   4.189   4.272  0.9217  0.8042  0.2626
  264MOL0     H35640   0.951   4.064   4.443  1.1356 -1.3427  3.6049
  265MOL0     O35641   2.468   4.032   2.189 -0.3185 -0.7690 -0.3664
  265MOL0     C35642   2.393   4.028   2.282  0.1637 -0.1099 -0.8068
  265MOL0     O35643   2.437   4.010   2.409 -0.3582  0.3799 -0.5811
  265MOL0     C35644   2.379   4.080   2.515 -0.8854 -0.6493 -0.1295
  265MOL0     C35645   2.295   4.196   2.502  0.6401 -0.7245  0.7087
  265MOL0     C35646   2.247   4.263   2.612 -0.6511  0.0243  0.4260
  265MOL0     C35647   2.280   4.214   2.738  0.2884 -1.0228 -0.1634
  265MOL0     O35648   2.237   4.274   2.854  0.2344 -0.1024  0.4540
  265MOL0     C35649   2.208   4.416   2.852  0.0962 -0.7263 -0.8082
  265MOL0     C35650   2.179   4.462   2.996  0.4491  0.1503  0.9582
  265MOL0     C35651   2.316   4.507   3.063 -0.5677 -0.0447 -0.5129
  265MOL0     C35652   2.312   4.526   3.219 -0.6633 -1.0230  0.1144
  265MOL0     C35653   2.236   4.422   3.306 -0.3554  0.4855  0.0755
  265MOL0     C35654   2.136   4.477   3.402 -1.0033  0.0998 -1.9296
  265MOL0     C35655   2.211   4.563   3.513 -0.3107  1.2672 -0.5961
  265MOL0     C35656   2.106   4.588   3.615  0.1108 -0.2271  0.0747
  265MOL0     N35657   2.038   4.715   3.589  0.9026  1.0765  0.4293
  265MOL0     C35658   1.923   4.728   3.521  0.2900  0.2310 -0.3083
  265MOL0     C35659   1.883   4.859   3.529  0.3297 -0.5355 -0.7886
  265MOL0     C35660   1.771   4.938   3.466 -0.8291 -0.1251 -0.2288
  265MOL0     C35661   1.747   4.894   3.322 -1.1501  1.0159 -0.1063
  265MOL0     C35662   1.625   4.957   3.257  0.0619 -0.3280  0.1048
  265MOL0     C35663   1.600   5.109   3.264  0.3571  0.1733 -0.4501
  265MOL0     O35664   1.718   5.177   3.245  0.2226 -0.2598 -0.4671
  265MOL0     C35665   1.784   5.192   3.125  1.7490  0.0667 -0.3039
  265MOL0     C35666   1.724   5.163   3.011 -0.6990 -0.8642  1.0991
  265MOL0     C35667   1.786   5.185   2.880  0.0755 -0.8059  0.5422
  265MOL0     C35668   1.708   5.158   2.755  1.1322  0.1165  0.6014
  265MOL0     C35669   1.907   5.250   2.869 -0.3231 -0.3596  1.0325
  265MOL0     C35670   1.976   5.294   2.742 -0.8173  0.2773  1.1466
  265MOL0     O35671   2.072   5.394   2.754 -0.1075  0.0624  0.4766
  265MOL0     C35672   2.169   5.406   2.665 -0.1135 -0.3385  0.5422
  265MOL0     C35673   2.285   5.329   2.674  0.8978 -0.4722  1.1682
  265MOL0     C35674   2.391   5.356   2.582 -0.4163  0.0711 -0.9056
  265MOL0     C35675   2.383   5.458   2.479 -0.0353  0.4319 -0.3743
  265MOL0     O35676   2.481   5.475   2.385 -0.4649  0.0000 -0.0766
  265MOL0     C35677   2.529   5.613   2.379  0.8583  0.9898  0.3831
  265MOL0     C35678   2.680   5.611   2.334 -0.4956 -0.2245 -0.8340
  265MOL0     C35679   2.771   5.568   2.451 -0.7884 -0.0844 -0.8136
  265MOL0     C35680   2.919   5.570   2.403  1.1239  0.0435 -0.1576
  265MOL0     C35681   3.029   5.515   2.494 -0.1296 -0.5531 -0.8570
  265MOL0     C35682   3.162   5.576   2.449  0.5637  0.2775 -0.0004
  265MOL0     C35683   3.278   5.503   2.516 -1.6721  0.0580 -0.4698
  265MOL0     C35684   3.403   5.551   2.445 -0.2625 -0.1545 -1.6999
  265MOL0    Cl35685   3.431   5.464   2.305 -0.2548  0.1148 -0.3952
  265MOL0     C35686   2.258   5.521   2.467 -0.1879  0.6776  0.4800
  265MOL0     C35687   2.156   5.507   2.565  0.8061 -0.0643 -0.1207
  265MOL0     O35688   1.966   5.228   2.639 -0.2002  0.0726  0.3467
  265MOL0     C35689   1.964   5.293   2.990  0.1278 -1.2194 -0.6832
  265MOL0     C35690   1.909   5.268   3.119 -0.4811  0.0096  0.1744
  265MOL0     N35691   1.977   4.920   3.607  0.4887  1.1237 -0.2937
  265MOL0     N35692   2.074   4.839   3.650  0.4923 -0.4474  0.4297
  265MOL0     C35693   2.354   4.099   2.758 -0.2363  0.1718 -0.0745
  265MOL0     C35694   2.404   4.031   2.643 -0.1934  0.0432 -0.1798
  265MOL0     C35695   2.251   3.980   2.258  0.2505  0.4415 -0.0047
  265MOL0     C35696   2.195   3.992   2.127  0.4600  0.1510  0.1096
  265MOL0     C35697   2.055   3.976   2.104 -0.3762  0.3196 -0.0094
  265MOL0     C35698   1.979   3.915   2.195 -0.1424  0.8142 -0.3116
  265MOL0     O35699   1.843   3.901   2.152 -0.1914  0.2050 -0.2721
  265MOL0     C35700   1.739   3.868   2.247 -0.4887  0.1706  0.0786
  265MOL0     C35701   1.603   3.908   2.207 -0.2834 -0.6929 -0.1824
  265MOL0     C35702   1.530   3.814   2.114  0.6074  0.1837 -0.1139
  265MOL0     C35703   1.577   3.835   1.974 -0.4669  0.3914  0.1328
  265MOL0     C35704   1.488   3.773   1.873  0.1917 -0.3839  0.1943
  265MOL0     C35705   1.424   3.699   1.814 -0.3588  0.0274 -0.0221
  265MOL0     C35706   2.036   3.893   2.325  0.0406  0.8746  1.3281
  265MOL0     C35707   2.166   3.925   2.361  0.3174  0.8403 -0.1834
  265MOL0     H35708   2.270   4.243   2.408  2.2246  0.4101  0.8035
  265MOL0     H35709   2.174   4.344   2.600  0.0251  0.4886 -0.6767
  265MOL0     H35710   2.298   4.463   2.812  0.8580  0.6016  2.2274
  265MOL0     H35711   2.124   4.441   2.786 -0.6332 -0.5044  0.1731
  265MOL0     H35712   2.111   4.548   2.988  1.6769  1.1454  0.8674
  265MOL0     H35713   2.136   4.379   3.052  1.7441 -1.1297  0.1125
  265MOL0     H35714   2.392   4.433   3.035 -0.4087  0.5396 -1.6684
  265MOL0     H35715   2.359   4.594   3.012 -2.2517  0.8788 -0.4273
  265MOL0     H35716   2.416   4.543   3.250 -0.0201 -0.7981 -1.9912
  265MOL0     H35717   2.267   4.624   3.232  0.8661 -0.2511 -0.2046
  265MOL0     H35718   2.179   4.355   3.241 -0.6467  1.1964 -0.4278
  265MOL0     H35719   2.312   4.360   3.354  0.3156 -0.1364 -1.7286
  265MOL0     H35720   2.058   4.528   3.343 -0.9938 -0.1055 -2.1230
  265MOL0     H35721   2.099   4.388   3.453 -0.2938  0.9536  0.1624
  265MOL0     H35722   2.301   4.511   3.549  0.7667  3.9480  0.9503
  265MOL0     H35723   2.246   4.663   3.483 -0.5961  1.3731 -0.5819
  265MOL0     H35724   2.153   4.584   3.714  0.3179  0.5187  0.0148
  265MOL0     H35725   2.036   4.504   3.617  0.6254 -0.6549  1.9736
  265MOL0     H35726   1.868   4.649   3.471  1.6176  1.2163 -3.5723
  265MOL0     H35727   1.685   4.920   3.530 -0.1053 -0.3201  0.7215
  265MOL0     H35728   1.801   5.043   3.463  0.6398 -0.4834  0.6409
  265MOL0     H35729   1.740   4.785   3.309 -1.7944  1.1617 -1.2168
  265MOL0     H35730   1.834   4.932   3.268 -1.4557  2.7798  0.5730
  265MOL0     H35731   1.536   4.923   3.311 -0.6960 -0.1686 -1.0212
  265MOL0     H35732   1.614   4.919   3.156  0.4828 -0.0853 -0.0394
  265MOL0     H35733   1.572   5.130   3.368 -0.2236  0.8186 -0.7261
  265MOL0     H35734   1.516   5.134   3.199  1.3841 -1.1048 -2.3275
  265MOL0     H35735   1.619   5.138   3.006 -0.6019 -1.0581 -0.7564
  265MOL0     H35736   1.762   5.085   2.694 -1.4228  0.1734 -1.9061
  265MOL0     H35737   1.605   5.124   2.768  0.9627  0.3690 -0.0508
  265MOL0     H35738   1.710   5.243   2.686 -0.7859 -1.4169 -1.4798
  265MOL0     H35739   2.303   5.251   2.747  1.3895 -1.6221 -0.1361
  265MOL0     H35740   2.478   5.292   2.579 -1.3401 -1.3109  0.4972
  265MOL0     H35741   2.475   5.663   2.298 -0.0722 -0.8693 -0.2171
  265MOL0     H35742   2.522   5.668   2.473  1.1018  0.9586  0.4209
  265MOL0     H35743   2.684   5.550   2.243 -1.4670  0.9176 -1.6753
  265MOL0     H35744   2.711   5.710   2.300 -1.2294  0.3778  0.1983
  265MOL0     H35745   2.748   5.468   2.490  0.9074  0.5643  2.1884
  265MOL0     H35746   2.767   5.643   2.530 -1.2584 -0.0578 -0.8553
  265MOL0     H35747   2.908   5.517   2.308  1.7072  2.2833 -1.5544
  265MOL0     H35748   2.939   5.677   2.387  3.1359  0.2248  2.7905
  265MOL0     H35749   3.030   5.406   2.483  3.1036 -0.5717 -1.1463
  265MOL0     H35750   3.009   5.553   2.595 -0.3540 -1.2029 -0.6515
  265MOL0     H35751   3.176   5.571   2.341 -0.2263 -0.0075 -0.0954
  265MOL0     H35752   3.163   5.678   2.489 -0.2894  0.4252 -0.3277
  265MOL0     H35753   3.269   5.394   2.510  0.8949 -0.1174 -3.3107
  265MOL0     H35754   3.297   5.540   2.618  1.5879 -3.6407  0.5013
  265MOL0     H35755   3.482   5.534   2.518 -3.2729  1.6733  2.4187
  265MOL0     H35756   3.405   5.658   2.423  3.1697  0.5246  1.0401
  265MOL0     H35757   2.244   5.596   2.390  0.0555 -0.1150 -0.3516
  265MOL0     H35758   2.070   5.574   2.572  1.5723  0.8700  0.8008
  265MOL0     H35759   2.053   5.355   2.994 -2.7640  3.4178  0.2657
  265MOL0     H35760   1.947   5.304   3.214  1.4010 -0.2157 -0.4498
  265MOL0     H35761   2.389   4.069   2.857  3.9302  0.7855 -1.1437
  265MOL0     H35762   2.469   3.944   2.646 -0.4215 -0.4618 -4.2741
  265MOL0     H35763   2.263   4.026   2.049 -2.2394  3.6782 -0.9579
  265MOL0     H35764   2.017   4.017   2.011  2.7399  1.6534 -0.8541
  265MOL0     H35765   1.727   3.763   2.275 -0.2916 -0.5982 -2.5011
  265MOL0     H35766   1.766   3.932   2.331 -0.6922  1.6191 -0.9177
  265MOL0     H35767   1.611   4.008   2.163 -1.7660 -0.2895  0.4047
  265MOL0     H35768   1.542   3.918   2.297 -1.3575  0.4874 -1.0081
  265MOL0     H35769   1.423   3.834   2.121  0.1394 -2.4774  2.5779
  265MOL0     H35770   1.537   3.705   2.128 -1.1674 -0.1371 -1.4618
  265MOL0     H35771   1.669   3.777   1.962 -1.3712 -1.3205  1.0613
  265MOL0     H35772   1.591   3.942   1.954  1.6032  0.2424  0.5626
  265MOL0     H35773   1.377   3.624   1.753  2.2250 -2.6923  1.0384
  265MOL0     H35774   1.969   3.841   2.393  1.8032 -0.3051  2.2220
  265MOL0     H35775   2.201   3.915   2.463  1.0085  0.8117 -0.4203
  266MOL0     O35776   2.069   9.181   1.835 -0.1675 -0.1263 -0.1509
  266MOL0     C35777   2.035   9.134   1.947 -0.0239 -1.1094 -0.3052
  266MOL0     O35778   1.989   9.208   2.050 -0.1149  0.5007  0.4312
  266MOL0     C35779   1.925   9.333   2.042 -0.4894 -0.7808  0.5560
  266MOL0     C35780   1.863   9.393   2.157  1.2978  1.0771 -0.5394
  266MOL0     C35781   1.804   9.524   2.167 -0.5786  0.7009 -0.5308
  266MOL0     C35782   1.810   9.594   2.049 -0.9710  0.1401 -0.3497
  266MOL0     O35783   1.752   9.714   2.025  0.0942 -0.1988 -0.3448
  266MOL0     C35784   1.700   9.791   2.137 -0.4046 -0.3186 -0.0958
  266MOL0     C35785   1.807   9.876   2.215 -0.3806 -0.3544  0.4017
  266MOL0     C35786   1.875   9.993   2.141  0.6175  0.0060 -0.2479
  266MOL0     C35787   1.997  10.046   2.217  0.8472  0.8793 -0.1645
  266MOL0     C35788   2.076  10.144   2.134 -0.1356 -0.1733 -0.4265
  266MOL0     C35789   2.172  10.219   2.226  0.7119 -0.6754 -0.1463
  266MOL0     C35790   2.215  10.350   2.156  0.3173 -0.2201  0.1189
  266MOL0     C35791   2.323  10.402   2.243  0.1553 -0.4723  0.2029
  266MOL0     N35792   2.380  10.526   2.191 -0.3017  1.2512  0.1436
  266MOL0     C35793   2.308  10.644   2.205 -0.6981  0.3423  0.4255
  266MOL0     C35794   2.359  10.722   2.107 -0.2216 -1.2292 -0.1232
  266MOL0     C35795   2.324  10.868   2.082 -0.2022  0.4989 -0.1150
  266MOL0     C35796   2.200  10.885   1.987  0.1853 -0.0556 -0.0780
  266MOL0     C35797   2.256  10.889   1.848 -0.1385  0.3996 -0.6195
  266MOL0     C35798   2.157  10.954   1.754  0.8544  0.6778 -0.2546
  266MOL0     O35799   2.157  11.096   1.735  0.5110  0.3904  0.2967
  266MOL0     C35800   2.030  11.137   1.689 -0.4945 -1.0747 -0.0722
  266MOL0     C35801   1.935  11.152   1.781 -0.6305 -0.2520  0.7033
  266MOL0     C35802   1.806  11.195   1.741  0.6103  0.4804 -0.0121
  266MOL0     C35803   1.703  11.193   1.846 -0.1460 -0.6276  0.1622
  266MOL0     C35804   1.785  11.237   1.606 -0.2065 -0.1155 -0.0926
  266MOL0     C35805   1.659  11.279   1.544 -0.8051  0.9539  0.2479
  266MOL0     O35806   1.668  11.368   1.442  0.3389 -0.0908  0.2004
  266MOL0     C35807   1.557  11.426   1.379  0.1970 -0.3548  0.4501
  266MOL0     C35808   1.429  11.437   1.435  0.3307 -0.8382  0.5690
  266MOL0     C35809   1.322  11.489   1.357  0.0780  0.0099 -0.5478
  266MOL0     C35810   1.339  11.549   1.236  0.2111 -0.5272 -0.1821
  266MOL0     O35811   1.240  11.603   1.152 -0.3078 -0.6224  0.4145
  266MOL0     C35812   1.124  11.657   1.204  0.1730  0.0503  0.5767
  266MOL0     C35813   1.137  11.788   1.279  0.3629 -0.7767  0.6256
  266MOL0     C35814   1.010  11.821   1.368  1.4398  0.2389  1.5389
  266MOL0     C35815   1.046  11.918   1.484  0.6516  0.1631  0.1422
  266MOL0     C35816   0.928  11.950   1.576 -0.2088 -0.3716  0.2846
  266MOL0     C35817   0.849  12.081   1.530  0.1439 -1.0939 -0.2399
  266MOL0     C35818   0.745  12.138   1.630  0.2111  0.3108  1.1117
  266MOL0     C35819   0.650  12.231   1.562  0.2409 -0.1381 -0.0202
  266MOL0    Cl35820   0.541  12.298   1.690 -0.0680 -0.2482  0.1810
  266MOL0     C35821   1.470  11.548   1.191 -0.9932  0.5091  0.4999
  266MOL0     C35822   1.576  11.491   1.261 -0.6786  0.3014  0.2039
  266MOL0     O35823   1.564  11.206   1.575  0.6633 -0.1463 -0.7279
  266MOL0     C35824   1.887  11.217   1.513  0.1359 -0.1853  0.8445
  266MOL0     C35825   2.015  11.177   1.559 -0.0152  0.2190 -0.2800
  266MOL0     N35826   2.449  10.659   2.032 -0.4154 -0.8480 -0.3133
  266MOL0     N35827   2.459  10.538   2.076  0.6371  0.3657  0.2819
  266MOL0     C35828   1.865   9.541   1.941  0.2668  0.9608  0.0038
  266MOL0     C35829   1.925   9.421   1.935 -1.2050 -0.0633  0.2617
  266MOL0     C35830   2.049   8.984   1.965 -0.0570  1.0657 -0.1417
  266MOL0     C35831   2.083   8.889   1.862  0.5932 -0.8490  0.0246
  266MOL0     C35832   2.069   8.744   1.879  0.0536  1.0768 -0.5187
  266MOL0     C35833   2.024   8.702   2.008  0.0424  1.2014 -0.0407
  266MOL0     O35834   2.016   8.569   2.011 -0.6208  0.3462  0.4470
  266MOL0     C35835   1.981   8.495   2.134  0.3549 -0.2761  0.6029
  266MOL0     C35836   1.829   8.491   2.154  1.0202 -0.1949 -0.5688
  266MOL0     C35837   1.754   8.403   2.064  0.5480  0.8956  0.8668
  266MOL0     C35838   1.620   8.346   2.126 -0.3934  0.1696 -0.2385
  266MOL0     C35839   1.648   8.247   2.236  0.3560 -0.7684  0.0006
  266MOL0     C35840   1.684   8.166   2.321 -0.9060  1.0399  1.4916
  266MOL0     C35841   1.989   8.789   2.108 -0.5538  0.2811  0.1071
  266MOL0     C35842   1.996   8.928   2.086 -0.9355  0.3366 -0.2013
  266MOL0     H35843   1.833   9.326   2.237 -1.9701  1.8469 -0.9784
  266MOL0     H35844   1.752   9.550   2.259 -0.7232  0.0817 -0.4298
  266MOL0     H35845   1.630   9.864   2.096  0.2760 -0.4235 -1.5140
  266MOL0     H35846   1.641   9.722   2.199  2.2883 -1.4998  1.3041
  266MOL0     H35847   1.758   9.918   2.303  2.1069 -0.3243  1.8481
  266MOL0     H35848   1.889   9.807   2.238  2.3597  1.2453 -3.4289
  266MOL0     H35849   1.901   9.973   2.036 -2.6173  2.0842 -1.6030
  266MOL0     H35850   1.807  10.078   2.136  0.6092 -0.0554 -1.5130
  266MOL0     H35851   1.969  10.093   2.311  0.9227  0.1737  0.2211
  266MOL0     H35852   2.059   9.959   2.242 -0.7177 -0.4389 -0.6193
  266MOL0     H35853   2.120  10.091   2.048 -3.1581 -1.7299 -1.1490
  266MOL0     H35854   2.015  10.225   2.093 -0.9190 -0.7684 -0.4711
  266MOL0     H35855   2.120  10.234   2.320  0.3308  1.8590 -0.7094
  266MOL0     H35856   2.269  10.170   2.242  2.7293  2.7769 -0.8750
  266MOL0     H35857   2.243  10.326   2.053  0.6110 -1.7531  0.5320
  266MOL0     H35858   2.145  10.433   2.147  2.3700  1.4345 -1.6895
  266MOL0     H35859   2.397  10.325   2.268  0.1989  0.3142  2.8360
  266MOL0     H35860   2.281  10.423   2.342  1.8191 -0.5486  0.9768
  266MOL0     H35861   2.232  10.664   2.281  1.3837 -1.5189  3.1592
  266MOL0     H35862   2.294  10.911   2.177 -1.7206 -0.0398 -0.3168
  266MOL0     H35863   2.416  10.920   2.054 -0.6504  0.8373 -1.0174
  266MOL0     H35864   2.137  10.972   2.007 -0.0109 -0.0392 -0.7585
  266MOL0     H35865   2.139  10.795   1.993  0.2295 -0.1609 -1.0154
  266MOL0     H35866   2.284  10.787   1.818  2.1528 -0.4668  3.6249
  266MOL0     H35867   2.346  10.950   1.848 -0.6328  1.1579 -1.6677
  266MOL0     H35868   2.058  10.925   1.791  1.9395 -1.6989  1.0469
  266MOL0     H35869   2.169  10.901   1.659  0.9519 -1.0444  0.6641
  266MOL0     H35870   1.955  11.133   1.886  2.5094 -2.6746 -0.1745
  266MOL0     H35871   1.731  11.154   1.944 -0.0231  1.8674  1.1763
  266MOL0     H35872   1.669  11.295   1.863 -0.3397 -0.9249  1.7363
  266MOL0     H35873   1.626  11.124   1.809  0.1111 -1.7552  1.6456
  266MOL0     H35874   1.404  11.407   1.536 -0.9617 -0.7851  0.2753
  266MOL0     H35875   1.219  11.473   1.388  0.8828  0.3997  2.6978
  266MOL0     H35876   1.054  11.668   1.121  0.7493 -3.5758 -0.6107
  266MOL0     H35877   1.085  11.580   1.271  0.7104 -0.7410  0.0053
  266MOL0     H35878   1.216  11.770   1.353 -1.2223  1.5960  3.1192
  266MOL0     H35879   1.156  11.880   1.222  1.3483  0.2302  2.4435
  266MOL0     H35880   1.007  11.717   1.401  0.4694 -0.6250 -1.0024
  266MOL0     H35881   0.926  11.849   1.304  1.9481  0.3567  0.9110
  266MOL0     H35882   1.130  11.875   1.540  1.5076 -1.2605 -2.0915
  266MOL0     H35883   1.074  12.008   1.427  6.2044 -1.5115 -0.4398
  266MOL0     H35884   0.962  11.976   1.676  0.5170  4.1768 -0.9017
  266MOL0     H35885   0.863  11.862   1.575  0.8576 -1.1887 -0.6662
  266MOL0     H35886   0.912  12.163   1.495 -0.7290 -0.2202  0.1826
  266MOL0     H35887   0.802  12.044   1.439 -0.6056 -2.4490  0.6577
  266MOL0     H35888   0.806  12.186   1.708 -1.9777  0.4538  2.8312
  266MOL0     H35889   0.693  12.054   1.676 -0.2708  0.5873  1.0720
  266MOL0     H35890   0.584  12.193   1.484  0.4224  2.5005 -1.5986
  266MOL0     H35891   0.711  12.308   1.513  3.8534 -1.9113  1.3077
  266MOL0     H35892   1.493  11.587   1.092 -0.3747  1.3413  0.9528
  266MOL0     H35893   1.676  11.491   1.218 -0.6240 -0.7537  0.3163
  266MOL0     H35894   1.879  11.250   1.410  0.5433  0.4761  1.0211
  266MOL0     H35895   2.100  11.160   1.494 -0.7975  0.4966 -1.4174
  266MOL0     H35896   1.878   9.609   1.857  0.7914  1.0682  0.1676
  266MOL0     H35897   1.954   9.395   1.834  1.1075  2.3252  0.2085
  266MOL0     H35898   2.124   8.923   1.768 -1.8038  1.1443 -0.3965
  266MOL0     H35899   2.092   8.678   1.796  2.1306  1.4094 -0.2493
  266MOL0     H35900   2.027   8.396   2.124  4.9652  1.5524  1.2969
  266MOL0     H35901   2.019   8.535   2.228 -0.3256 -1.9619  1.6359
  266MOL0     H35902   1.791   8.593   2.148  0.8112 -0.2920 -0.9307
  266MOL0     H35903   1.801   8.464   2.256  0.6311 -1.9774 -1.1047
  266MOL0     H35904   1.814   8.322   2.020 -2.9522  0.7598 -4.5844
  266MOL0     H35905   1.725   8.464   1.978 -0.2011  0.0912  0.5389
  266MOL0     H35906   1.540   8.318   2.057  0.0407 -0.1181 -0.6286
  266MOL0     H35907   1.592   8.448   2.155  2.1721  0.6575  0.7942
  266MOL0     H35908   1.719   8.089   2.386 -1.7792  0.7019  1.5837
  266MOL0     H35909   1.965   8.751   2.206  2.5490 -1.9873  0.1495
  266MOL0     H35910   1.962   8.989   2.170  0.9122  0.6629  0.3748
  267MOL0     O35911   0.903   3.933   7.960 -0.2559  0.5694 -0.3404
  267MOL0     C35912   0.965   3.954   8.059  0.1932 -1.3817  1.6214
  267MOL0     O35913   1.091   3.993   8.051 -0.2253  0.0923 -0.2432
  267MOL0     C35914   1.161   4.018   7.933  0.5474  0.5295 -0.6619
  267MOL0     C35915   1.120   4.093   7.827  0.7071  0.2606 -0.1169
  267MOL0     C35916   1.211   4.107   7.721  0.0265  0.8871 -0.4210
  267MOL0     C35917   1.342   4.052   7.728 -0.4328  0.7569 -0.2092
  267MOL0     O35918   1.424   4.069   7.626 -0.1078  0.0876 -0.2061
  267MOL0     C35919   1.500   3.961   7.582 -0.5562  0.1757 -0.8070
  267MOL0     C35920   1.494   3.959   7.426 -0.5955 -0.8323 -0.1115
  267MOL0     C35921   1.553   4.088   7.370  0.2711  0.2603  0.1747
  267MOL0     C35922   1.684   4.122   7.429 -0.5702 -0.7751 -0.5914
  267MOL0     C35923   1.768   4.217   7.330  0.0958  0.0623 -0.7537
  267MOL0     C35924   1.740   4.365   7.355  0.7720  0.4228  0.4980
  267MOL0     C35925   1.867   4.450   7.352 -0.3971  0.7876  0.3041
  267MOL0     C35926   1.851   4.603   7.359 -0.2383 -0.3068  0.7861
  267MOL0     N35927   1.796   4.667   7.236  0.5748 -0.0165 -0.5845
  267MOL0     C35928   1.706   4.773   7.234 -0.7859 -0.5684 -0.4489
  267MOL0     C35929   1.663   4.758   7.099 -0.2573  0.6516 -0.9184
  267MOL0     C35930   1.607   4.880   7.031 -0.6220  0.0541  0.1031
  267MOL0     C35931   1.658   4.876   6.884 -0.8950 -0.2817  0.1550
  267MOL0     C35932   1.619   5.011   6.813 -0.1359  0.1695 -0.7854
  267MOL0     C35933   1.698   5.005   6.681 -0.2422 -0.3105  0.1188
  267MOL0     O35934   1.680   4.885   6.603  0.0504  0.2343 -0.2052
  267MOL0     C35935   1.646   4.895   6.476 -0.0944 -0.0863  0.3145
  267MOL0     C35936   1.737   4.920   6.373 -0.1391 -1.0228 -0.3846
  267MOL0     C35937   1.689   4.926   6.242 -0.7869  0.5551  0.5332
  267MOL0     C35938   1.796   4.940   6.127 -0.5373 -0.9197 -0.2683
  267MOL0     C35939   1.548   4.906   6.215  0.1653 -0.7722  0.4989
  267MOL0     C35940   1.490   4.916   6.089 -0.1195 -1.1790  0.6019
  267MOL0     O35941   1.489   4.799   6.007  0.4014 -0.1299  0.2640
  267MOL0     C35942   1.427   4.785   5.885  0.6680  0.0289 -0.8690
  267MOL0     C35943   1.299   4.828   5.859 -0.5768 -0.0677 -0.3559
  267MOL0     C35944   1.239   4.797   5.734  0.4714  0.6278 -0.6717
  267MOL0     C35945   1.321   4.751   5.629  0.3332 -0.6599 -0.2956
  267MOL0     O35946   1.247   4.734   5.513  0.9949  0.1892 -0.2620
  267MOL0     C35947   1.300   4.679   5.388 -0.3677 -0.9783  0.2656
  267MOL0     C35948   1.180   4.620   5.306 -0.5107  0.1359 -0.2156
  267MOL0     C35949   1.116   4.499   5.374 -0.4136 -0.2147 -0.2929
  267MOL0     C35950   1.200   4.369   5.373 -1.3856  0.5168  0.3794
  267MOL0     C35951   1.117   4.267   5.440 -1.0296  0.4669  0.0349
  267MOL0     C35952   1.183   4.125   5.422 -0.4645 -0.1752  0.0129
  267MOL0     C35953   1.085   4.016   5.424  0.1232  1.0237 -0.5444
  267MOL0     C35954   1.152   3.874   5.426 -0.2675 -0.0217 -0.7174
  267MOL0    Cl35955   1.029   3.753   5.434 -0.8590 -0.1810 -0.1348
  267MOL0     C35956   1.449   4.707   5.655  0.3549  0.5885  0.3470
  267MOL0     C35957   1.496   4.715   5.785 -1.5095 -0.2086 -0.8431
  267MOL0     O35958   1.430   5.013   6.058  0.0019 -0.8306  0.2865
  267MOL0     C35959   1.462   4.875   6.318  0.2711  0.7263 -0.2641
  267MOL0     C35960   1.510   4.868   6.446 -0.8081 -1.0068 -0.1258
  267MOL0     N35961   1.719   4.647   7.038 -0.6580  0.5074  0.1561
  267MOL0     N35962   1.793   4.591   7.121  0.2263  0.9964  0.1301
  267MOL0     C35963   1.378   3.971   7.839 -0.1676 -1.1766 -0.1496
  267MOL0     C35964   1.290   3.967   7.947  0.6586  0.2627  0.6696
  267MOL0     C35965   0.912   3.934   8.197 -0.0843 -0.2454 -0.5583
  267MOL0     C35966   0.776   3.952   8.211  0.1869 -0.0852 -0.6457
  267MOL0     C35967   0.730   3.978   8.334  0.0837  0.8152  0.1346
  267MOL0     C35968   0.806   3.944   8.447  0.0740 -0.4529  0.1467
  267MOL0     O35969   0.733   3.930   8.569 -0.4559 -0.4758  0.5028
  267MOL0     C35970   0.806   3.932   8.692  0.4696  0.8487  0.3858
  267MOL0     C35971   0.703   3.919   8.807  0.3291 -0.7178 -0.7665
  267MOL0     C35972   0.606   4.041   8.814 -0.7940  0.1484 -0.2821
  267MOL0     C35973   0.668   4.187   8.818 -0.9406  0.0435  0.1347
  267MOL0     C35974   0.569   4.288   8.844 -0.1426  0.0123  0.4036
  267MOL0     C35975   0.475   4.371   8.845 -1.1896  0.3889  0.6450
  267MOL0     C35976   0.943   3.915   8.435  0.1999 -0.8747  0.1744
  267MOL0     C35977   1.000   3.918   8.307 -0.1827  0.1589 -0.4042
  267MOL0     H35978   1.021   4.135   7.814  0.5728 -0.1243 -0.3278
  267MOL0     H35979   1.183   4.156   7.628 -1.5570 -1.1357 -1.0734
  267MOL0     H35980   1.605   3.966   7.613 -0.8609  0.2250  0.2466
  267MOL0     H35981   1.455   3.865   7.609 -1.5169  0.1446 -2.4333
  267MOL0     H35982   1.562   3.886   7.383  3.3376  1.5223  1.5914
  267MOL0     H35983   1.392   3.934   7.393 -0.1049 -1.6840 -1.0337
  267MOL0     H35984   1.567   4.072   7.262  2.0205 -0.6507  0.4894
  267MOL0     H35985   1.477   4.163   7.393 -2.6926 -1.9382 -1.6698
  267MOL0     H35986   1.671   4.173   7.525  0.6746 -0.8830 -0.3453
  267MOL0     H35987   1.743   4.030   7.422 -1.4292 -1.3432 -0.5069
  267MOL0     H35988   1.871   4.208   7.365  0.0416 -0.1612 -0.6468
  267MOL0     H35989   1.767   4.202   7.222  2.0614 -2.9452 -0.4710
  267MOL0     H35990   1.666   4.395   7.281  1.6385  0.0635 -0.5442
  267MOL0     H35991   1.690   4.376   7.452 -1.9367 -1.9670 -0.4736
  267MOL0     H35992   1.919   4.431   7.447  1.2788 -1.4440 -0.9683
  267MOL0     H35993   1.927   4.423   7.265 -0.1234 -1.4318  1.1201
  267MOL0     H35994   1.947   4.653   7.371  0.6708 -1.8617  0.3150
  267MOL0     H35995   1.780   4.637   7.436 -0.1061 -1.3045  1.3728
  267MOL0     H35996   1.691   4.848   7.311 -1.3804 -0.0592 -1.0479
  267MOL0     H35997   1.499   4.888   7.042 -0.3887  0.8476  2.0876
  267MOL0     H35998   1.656   4.962   7.084  0.7259 -0.0405 -0.9206
  267MOL0     H35999   1.621   4.796   6.819  3.6941 -1.9953 -0.7124
  267MOL0     H36000   1.766   4.862   6.885 -1.0810 -2.2848 -0.9003
  267MOL0     H36001   1.637   5.104   6.869 -1.7780  0.2546 -0.3484
  267MOL0     H36002   1.516   4.992   6.779  1.0420 -3.1514 -3.0522
  267MOL0     H36003   1.805   5.009   6.705 -0.2903 -1.8974  0.7087
  267MOL0     H36004   1.668   5.090   6.619  1.1005 -1.2879 -1.9891
  267MOL0     H36005   1.843   4.933   6.395  0.0541  2.6072 -2.7008
  267MOL0     H36006   1.832   4.846   6.085  0.9942 -0.8967  0.9122
  267MOL0     H36007   1.752   5.006   6.050  0.8918  0.7359  0.2683
  267MOL0     H36008   1.888   4.989   6.159 -1.2594  0.1325  0.2512
  267MOL0     H36009   1.244   4.861   5.947 -0.9195 -1.1016 -0.1733
  267MOL0     H36010   1.132   4.798   5.716 -0.1328 -0.4288  2.3158
  267MOL0     H36011   1.358   4.758   5.339 -0.3573 -0.9600  0.3073
  267MOL0     H36012   1.377   4.607   5.416  1.1306  1.2425  2.2285
  267MOL0     H36013   1.107   4.702   5.303 -2.1549 -1.1102  2.1401
  267MOL0     H36014   1.218   4.595   5.207  2.1626  1.1105  0.4761
  267MOL0     H36015   1.019   4.489   5.324 -0.1074 -1.6172 -0.6511
  267MOL0     H36016   1.094   4.523   5.479 -2.4730 -2.7725 -0.0221
  267MOL0     H36017   1.231   4.337   5.274 -1.0286 -2.6855  1.4322
  267MOL0     H36018   1.289   4.383   5.435 -1.6277 -1.3468  1.1958
  267MOL0     H36019   1.019   4.269   5.391 -0.4988 -0.7781 -1.1532
  267MOL0     H36020   1.092   4.285   5.545 -4.7847 -1.9335 -0.2574
  267MOL0     H36021   1.243   4.119   5.331  0.2592 -0.5827  0.5082
  267MOL0     H36022   1.256   4.126   5.503 -0.8129 -1.1104  0.3541
  267MOL0     H36023   1.020   4.029   5.337 -1.3991  0.1075  0.4068
  267MOL0     H36024   1.030   4.037   5.517  1.6208 -1.2153  0.9473
  267MOL0     H36025   1.232   3.859   5.499 -0.6340 -0.7346 -0.4577
  267MOL0     H36026   1.200   3.858   5.329  0.1287 -2.4300 -0.1806
  267MOL0     H36027   1.506   4.648   5.583 -0.5208 -1.1756  1.0378
  267MOL0     H36028   1.589   4.668   5.815 -1.0797  0.9153 -0.3286
  267MOL0     H36029   1.357   4.854   6.304  0.6769 -0.5880 -1.6433
  267MOL0     H36030   1.439   4.854   6.526 -3.4460  4.7052 -1.0094
  267MOL0     H36031   1.478   3.928   7.848 -0.6022 -1.9247  1.4298
  267MOL0     H36032   1.314   3.917   8.040  2.8057 -2.0224 -0.9662
  267MOL0     H36033   0.713   3.947   8.122  0.9112 -4.8540 -1.1659
  267MOL0     H36034   0.625   3.993   8.355  0.3162  1.2413  1.0198
  267MOL0     H36035   0.882   3.853   8.681 -0.9987 -0.3237 -2.2867
  267MOL0     H36036   0.853   4.030   8.705 -1.5445  1.7975  0.7789
  267MOL0     H36037   0.764   3.918   8.897  4.7977 -1.1572 -3.5144
  267MOL0     H36038   0.647   3.825   8.807 -1.4625  0.2675  1.3583
  267MOL0     H36039   0.556   4.035   8.911 -2.4688  0.2405 -1.1090
  267MOL0     H36040   0.541   4.022   8.728  0.8624 -4.1936 -0.8632
  267MOL0     H36041   0.716   4.208   8.722  0.3021 -0.3812  0.6383
  267MOL0     H36042   0.742   4.189   8.898 -0.7062 -0.4382 -0.0638
  267MOL0     H36043   0.389   4.435   8.842 -2.0232 -0.7254 -1.6866
  267MOL0     H36044   1.010   3.892   8.518 -2.8833  2.2309  3.9320
  267MOL0     H36045   1.105   3.909   8.282  0.1884  4.5502 -1.2512
  268MOL0     O36046   1.835   2.224   6.821 -0.7531 -0.3500  0.5667
  268MOL0     C36047   1.827   2.135   6.903 -0.2435 -0.6555  0.1418
  268MOL0     O36048   1.874   2.137   7.043  0.0735 -0.0285  0.7979
  268MOL0     C36049   1.935   2.249   7.098 -1.0629  0.5872 -0.0626
  268MOL0     C36050   2.040   2.227   7.178  0.0058 -0.6148 -0.3907
  268MOL0     C36051   2.092   2.334   7.256  0.9490 -0.7305 -0.2852
  268MOL0     C36052   2.065   2.468   7.212 -0.4428 -1.4844  1.3116
  268MOL0     O36053   2.147   2.561   7.272 -0.2851  0.8585  0.4559
  268MOL0     C36054   2.113   2.699   7.260  0.1354  1.0179  0.0618
  268MOL0     C36055   2.244   2.772   7.302  0.5408 -0.1479  0.4899
  268MOL0     C36056   2.246   2.917   7.271  0.9821 -0.0691 -0.4074
  268MOL0     C36057   2.377   2.981   7.324 -0.2296  0.6412 -0.6911
  268MOL0     C36058   2.503   2.974   7.239 -0.1516  0.0704 -0.5678
  268MOL0     C36059   2.585   2.844   7.252  0.3608  0.7253 -0.1869
  268MOL0     C36060   2.697   2.861   7.157  0.0174 -0.7339 -0.4710
  268MOL0     C36061   2.764   2.727   7.109 -0.1633  0.5775 -0.0943
  268MOL0     N36062   2.830   2.651   7.211 -0.3522 -0.5298 -0.0529
  268MOL0     C36063   2.777   2.539   7.272  0.8240  0.0036  0.2471
  268MOL0     C36064   2.868   2.500   7.362  0.0482  0.0463 -1.2957
  268MOL0     C36065   2.837   2.385   7.451  0.2519 -0.0062 -0.0139
  268MOL0     C36066   2.837   2.419   7.604  0.5184 -0.5869  0.8512
  268MOL0     C36067   2.960   2.372   7.679  0.7258 -0.2015 -0.7149
  268MOL0     C36068   2.932   2.402   7.834  0.0815  0.3966  0.4872
  268MOL0     O36069   2.973   2.537   7.857  0.1745 -1.2959 -0.3761
  268MOL0     C36070   2.973   2.585   7.988  0.9410 -0.7306  0.8980
  268MOL0     C36071   2.904   2.515   8.090  0.2793  1.5780  0.6469
  268MOL0     C36072   2.919   2.559   8.219  0.7561 -0.2130  0.5003
  268MOL0     C36073   2.833   2.497   8.330  0.5884 -0.6570  0.3007
  268MOL0     C36074   3.005   2.664   8.259 -0.4185 -0.3120 -0.2130
  268MOL0     C36075   3.033   2.705   8.402  0.1832 -0.3805  0.2134
  268MOL0     O36076   3.025   2.614   8.504  0.4954  0.4448  0.4780
  268MOL0     C36077   3.012   2.658   8.631 -0.8541 -0.9156 -0.2651
  268MOL0     C36078   3.067   2.569   8.723  0.4263  0.8054  0.3604
  268MOL0     C36079   3.071   2.597   8.859  1.0997  0.6359  0.2959
  268MOL0     C36080   2.998   2.700   8.908 -1.1123  1.1935 -0.2770
  268MOL0     O36081   3.008   2.712   9.050 -0.0575 -0.3255  0.8714
  268MOL0     C36082   2.914   2.798   9.112  0.7097  0.1050 -0.4617
  268MOL0     C36083   2.884   2.776   9.261 -0.4451  0.0762  0.5271
  268MOL0     C36084   2.853   2.638   9.319 -0.2783 -0.1999  0.1457
  268MOL0     C36085   2.806   2.650   9.459 -0.7129 -0.1546  0.2379
  268MOL0     C36086   2.759   2.513   9.514  0.1213 -0.5537  0.7119
  268MOL0     C36087   2.739   2.519   9.667  0.9233  0.4296 -1.2314
  268MOL0     C36088   2.708   2.375   9.729 -0.1807 -0.2326 -0.5567
  268MOL0     C36089   2.728   2.359   9.877 -0.1653  0.2116  0.1296
  268MOL0    Cl36090   2.730   2.183   9.905  0.2613  0.2735  0.5414
  268MOL0     C36091   2.951   2.794   8.817  0.4100  0.1112  0.2932
  268MOL0     C36092   2.936   2.769   8.677  0.1025  0.2276 -0.3941
  268MOL0     O36093   3.053   2.828   8.417 -0.5365 -0.1347  0.1887
  268MOL0     C36094   3.067   2.741   8.156 -0.3187  0.0963 -0.1065
  268MOL0     C36095   3.042   2.703   8.021 -0.5462  0.2085 -0.0678
  268MOL0     N36096   2.983   2.586   7.367  0.8201  0.6343 -0.0725
  268MOL0     N36097   2.948   2.674   7.271 -0.6964  0.8003 -0.8890
  268MOL0     C36098   1.966   2.490   7.113 -0.4675 -0.1047  0.3303
  268MOL0     C36099   1.891   2.381   7.069 -0.2155  0.0589 -0.2918
  268MOL0     C36100   1.757   2.014   6.852  0.9482  0.3965  0.6145
  268MOL0     C36101   1.699   2.011   6.720  1.0081 -0.6909 -0.1737
  268MOL0     C36102   1.615   1.909   6.686 -0.0596  0.2809  0.6675
  268MOL0     C36103   1.604   1.789   6.753  0.1748  0.1996 -0.5972
  268MOL0     O36104   1.533   1.695   6.687  0.2164 -0.5624 -0.2105
  268MOL0     C36105   1.515   1.560   6.738  0.2134 -1.4015 -0.1657
  268MOL0     C36106   1.392   1.564   6.822  0.1259  0.1888  1.1363
  268MOL0     C36107   1.266   1.566   6.751  0.1861  0.0806 -0.3433
  268MOL0     C36108   1.143   1.502   6.820 -0.1122 -0.2810  0.7047
  268MOL0     C36109   1.132   1.524   6.965  1.0990 -0.0567 -0.6391
  268MOL0     C36110   1.086   1.551   7.073  0.3568  1.2125  0.3284
  268MOL0     C36111   1.674   1.777   6.878 -0.2119  0.7752  0.3762
  268MOL0     C36112   1.734   1.892   6.933  0.1546 -1.1254  0.1624
  268MOL0     H36113   2.074   2.127   7.203  0.0678 -0.4707  0.1170
  268MOL0     H36114   2.175   2.341   7.327  2.8599  1.5805 -2.5256
  268MOL0     H36115   2.083   2.726   7.158  0.9289  2.4790  0.1992
  268MOL0     H36116   2.039   2.722   7.337  2.1210  1.6424  1.8818
  268MOL0     H36117   2.283   2.747   7.401  3.5935  0.4313 -0.4278
  268MOL0     H36118   2.325   2.737   7.237 -0.1312  3.9731 -3.0009
  268MOL0     H36119   2.232   2.938   7.164  1.4200  0.8568 -0.2919
  268MOL0     H36120   2.158   2.960   7.320  0.3386  0.3972 -1.9009
  268MOL0     H36121   2.360   3.089   7.322 -1.5207  0.5300  1.2437
  268MOL0     H36122   2.403   2.941   7.423 -0.6111  3.4793  0.6621
  268MOL0     H36123   2.483   2.996   7.133 -0.2798  1.6039 -0.2516
  268MOL0     H36124   2.565   3.062   7.262  0.8415 -0.4069 -1.3444
  268MOL0     H36125   2.637   2.838   7.348  1.4416  1.0491 -0.7444
  268MOL0     H36126   2.524   2.753   7.244  0.7097  0.5174 -0.4831
  268MOL0     H36127   2.665   2.914   7.067  2.4677  2.0933  0.1609
  268MOL0     H36128   2.782   2.914   7.202  0.3121 -1.8179  0.3010
  268MOL0     H36129   2.836   2.750   7.030  0.3351 -0.8094 -0.0689
  268MOL0     H36130   2.686   2.663   7.068  0.4172 -0.2863  0.1102
  268MOL0     H36131   2.690   2.487   7.233  3.0492 -0.1653 -5.4777
  268MOL0     H36132   2.734   2.356   7.426 -0.5775  2.5553  0.1278
  268MOL0     H36133   2.897   2.295   7.435  0.0941 -0.2759  0.8877
  268MOL0     H36134   2.751   2.366   7.646 -1.7508  2.8478  1.0049
  268MOL0     H36135   2.820   2.524   7.630  0.0520 -0.8545  1.6509
  268MOL0     H36136   3.050   2.408   7.629  0.3533 -3.7117 -4.3746
  268MOL0     H36137   2.975   2.265   7.694  2.0688  0.1077  0.4321
  268MOL0     H36138   2.992   2.339   7.901 -0.7398 -2.5624 -1.3474
  268MOL0     H36139   2.827   2.376   7.849 -0.0339  1.2873  1.3539
  268MOL0     H36140   2.850   2.425   8.063  2.6093  0.6670 -1.3639
  268MOL0     H36141   2.787   2.583   8.378 -1.4633 -2.3131  1.4674
  268MOL0     H36142   2.759   2.428   8.288 -3.0556  2.7219  0.6799
  268MOL0     H36143   2.878   2.437   8.409 -1.0434 -2.0201  0.2592
  268MOL0     H36144   3.099   2.477   8.675 -1.1952 -0.1026  0.9539
  268MOL0     H36145   3.115   2.530   8.932  0.2402  0.4894  0.6952
  268MOL0     H36146   2.944   2.903   9.104  0.3348  0.0577 -4.0993
  268MOL0     H36147   2.823   2.785   9.053 -0.1761 -1.4746  1.1762
  268MOL0     H36148   2.968   2.818   9.317  0.3300  1.2280 -1.4031
  268MOL0     H36149   2.812   2.851   9.295  0.3349  1.4423 -0.7562
  268MOL0     H36150   2.949   2.586   9.310 -0.0366  0.3176 -0.2841
  268MOL0     H36151   2.784   2.587   9.251  1.6448 -1.4013 -1.0172
  268MOL0     H36152   2.885   2.680   9.528 -1.6103  0.6459  0.9592
  268MOL0     H36153   2.721   2.719   9.468  1.1386  1.9936  3.0341
  268MOL0     H36154   2.840   2.442   9.496  2.4504  2.2851 -0.9778
  268MOL0     H36155   2.671   2.485   9.456  0.5762 -1.0235  0.2451
  268MOL0     H36156   2.826   2.561   9.720 -0.4091  0.9313  0.6688
  268MOL0     H36157   2.645   2.568   9.694  1.0776  0.6843 -1.1544
  268MOL0     H36158   2.777   2.303   9.683 -1.1961 -1.8233  0.3187
  268MOL0     H36159   2.609   2.344   9.696 -0.7049  0.7631  0.0477
  268MOL0     H36160   2.655   2.411   9.939 -0.4917  0.3870 -0.3932
  268MOL0     H36161   2.820   2.407   9.912 -2.1034  2.0326  3.2239
  268MOL0     H36162   2.925   2.892   8.855  3.7675  0.9535  0.7163
  268MOL0     H36163   2.884   2.828   8.603  1.8290 -0.5947 -2.3728
  268MOL0     H36164   3.118   2.835   8.178  1.2640 -0.9310  0.8591
  268MOL0     H36165   3.090   2.770   7.951 -0.2259 -1.4510 -1.5094
  268MOL0     H36166   1.937   2.590   7.080  0.9685  0.0003 -0.7294
  268MOL0     H36167   1.810   2.405   7.000  1.5535 -0.6722 -2.7730
  268MOL0     H36168   1.712   2.091   6.648  1.1775 -0.9823 -0.4693
  268MOL0     H36169   1.568   1.908   6.588  0.2712  0.6331  0.5023
  268MOL0     H36170   1.518   1.493   6.651  0.7257  0.5365 -1.7066
  268MOL0     H36171   1.600   1.520   6.794  0.6095  0.0380  0.2946
  268MOL0     H36172   1.393   1.643   6.899  1.0720  2.0523 -0.6806
  268MOL0     H36173   1.388   1.465   6.868  0.2520 -2.3361 -3.7057
  268MOL0     H36174   1.278   1.507   6.660 -0.5787  1.0746 -1.1108
  268MOL0     H36175   1.249   1.670   6.720  0.6343  0.2473 -0.0432
  268MOL0     H36176   1.143   1.395   6.798 -2.5903  0.1231 -1.9477
  268MOL0     H36177   1.055   1.544   6.770  1.1344  2.1659  0.3941
  268MOL0     H36178   1.065   1.556   7.178  1.9152 -1.1434  0.8365
  268MOL0     H36179   1.687   1.682   6.930 -2.1288 -1.7342 -3.2318
  268MOL0     H36180   1.764   1.893   7.037  1.5221  3.9208 -0.0094
  269MOL0     O36181   1.080   2.075   6.675  0.1074 -0.5149  0.1668
  269MOL0     C36182   1.046   2.013   6.774  0.0848  0.2635  0.3855
  269MOL0     O36183   0.923   1.968   6.797 -0.0139 -0.0149 -0.5441
  269MOL0     C36184   0.812   2.029   6.741  0.2664  0.1612  0.1297
  269MOL0     C36185   0.698   1.951   6.719 -0.4463 -0.4140  0.2155
  269MOL0     C36186   0.580   2.018   6.674  0.3618  0.2684 -0.6237
  269MOL0     C36187   0.566   2.144   6.636 -0.3787  0.1048 -0.4733
  269MOL0     O36188   0.458   2.185   6.574 -0.4151  0.0869 -0.1690
  269MOL0     C36189   0.457   2.308   6.498  0.3022 -0.2996  0.8581
  269MOL0     C36190   0.318   2.341   6.456  1.2755 -0.0969 -0.3537
  269MOL0     C36191   0.310   2.450   6.350  0.2125 -0.3829  0.7437
  269MOL0     C36192   0.244   2.406   6.216  0.7558 -0.3388 -0.1329
  269MOL0     C36193   0.089   2.370   6.251 -0.4546 -0.4065  0.2486
  269MOL0     C36194   0.009   2.460   6.342  0.0546  0.4666  0.3393
  269MOL0     C36195  -0.141   2.439   6.322  0.0168 -0.1859  0.2106
  269MOL0     C36196  -0.234   2.521   6.416  1.3653  0.0629  0.5403
  269MOL0     N36197  -0.248   2.662   6.369  0.1680 -0.1330  0.1873
  269MOL0     C36198  -0.320   2.701   6.266 -0.1818 -1.1709 -0.5314
  269MOL0     C36199  -0.333   2.836   6.283 -0.7835 -0.0925 -0.1554
  269MOL0     C36200  -0.400   2.935   6.192 -0.3193  0.0246  0.6609
  269MOL0     C36201  -0.551   2.920   6.190  0.0995 -0.1568 -0.4994
  269MOL0     C36202  -0.627   3.047   6.126  0.1747 -0.4691 -0.4038
  269MOL0     C36203  -0.615   3.167   6.220 -0.6697  0.3456  0.1120
  269MOL0     O36204  -0.735   3.239   6.211 -0.0741 -0.2093  0.2195
  269MOL0     C36205  -0.754   3.356   6.283 -0.7839  0.2185 -0.0705
  269MOL0     C36206  -0.878   3.415   6.270  0.4791 -0.2974  0.2606
  269MOL0     C36207  -0.902   3.535   6.335 -0.2822 -0.6028  1.5370
  269MOL0     C36208  -1.028   3.603   6.304 -0.5102 -0.4319  1.2789
  269MOL0     C36209  -0.816   3.587   6.428  0.5383  0.7102 -0.6893
  269MOL0     C36210  -0.820   3.713   6.514 -0.1297  0.4556 -0.3005
  269MOL0     O36211  -0.800   3.835   6.453 -0.3071  0.6028  0.1731
  269MOL0     C36212  -0.834   3.954   6.514  1.0821  0.1826 -0.2286
  269MOL0     C36213  -0.767   4.018   6.622 -0.6869  0.0764  0.3895
  269MOL0     C36214  -0.812   4.145   6.661  0.5332 -0.7751 -0.9153
  269MOL0     C36215  -0.923   4.210   6.602 -1.2162  0.1799 -0.7132
  269MOL0     O36216  -0.967   4.332   6.645 -0.5320 -0.0295  0.0983
  269MOL0     C36217  -0.881   4.448   6.651  0.2660  0.2284 -0.0670
  269MOL0     C36218  -0.884   4.549   6.537  0.1521  0.0754  0.2862
  269MOL0     C36219  -0.796   4.663   6.576 -1.2505 -1.3708 -0.3179
  269MOL0     C36220  -0.847   4.740   6.698 -0.1466  0.5932  0.6234
  269MOL0     C36221  -0.786   4.880   6.672  0.8908 -0.4059 -0.3619
  269MOL0     C36222  -0.830   4.986   6.772  0.2594 -0.7650  0.4968
  269MOL0     C36223  -0.790   5.125   6.731 -0.0845 -0.3758  1.0805
  269MOL0     C36224  -0.649   5.157   6.747  0.4191 -0.9280 -0.2915
  269MOL0    Cl36225  -0.609   5.314   6.684 -0.1077  0.4729  0.7487
  269MOL0     C36226  -0.994   4.143   6.502  1.2093 -0.2153 -0.3428
  269MOL0     C36227  -0.941   4.028   6.452  0.0164  0.0538 -0.4323
  269MOL0     O36228  -0.870   3.700   6.629 -0.2673  0.5042  0.3115
  269MOL0     C36229  -0.691   3.522   6.425  0.6187  0.5219 -0.0265
  269MOL0     C36230  -0.655   3.414   6.356  0.7581 -0.6187 -0.9774
  269MOL0     N36231  -0.258   2.872   6.396 -0.3409  0.1737  0.1470
  269MOL0     N36232  -0.199   2.765   6.439 -0.4159 -0.3472 -0.4521
  269MOL0     C36233   0.683   2.220   6.658 -0.7644  1.0968 -0.0950
  269MOL0     C36234   0.798   2.164   6.702 -0.6739 -0.1745  0.2110
  269MOL0     C36235   1.149   1.983   6.874 -0.3727  0.3587  0.4928
  269MOL0     C36236   1.113   1.922   6.994  0.0302 -0.3293  0.6967
  269MOL0     C36237   1.205   1.887   7.093  0.3978  0.0000  1.2702
  269MOL0     C36238   1.338   1.908   7.062 -1.5511 -0.5995  0.4072
  269MOL0     O36239   1.444   1.881   7.148 -0.9591 -0.0278  0.4306
  269MOL0     C36240   1.454   1.962   7.273 -0.9508  0.1018  0.2356
  269MOL0     C36241   1.528   2.097   7.255  0.5793 -0.6261  0.5865
  269MOL0     C36242   1.472   2.232   7.197  0.1444 -0.0987  0.1941
  269MOL0     C36243   1.577   2.337   7.186 -0.0236  0.2426  0.3236
  269MOL0     C36244   1.526   2.471   7.197  0.4238 -0.5640 -0.3976
  269MOL0     C36245   1.488   2.589   7.215 -0.6166  0.0653  0.2342
  269MOL0     C36246   1.383   1.964   6.940  0.5090 -0.0145 -0.9551
  269MOL0     C36247   1.285   2.006   6.850 -1.1015  1.3361  1.7178
  269MOL0     H36248   0.709   1.844   6.729 -2.5326 -0.6077  0.8035
  269MOL0     H36249   0.492   1.956   6.657  0.9054 -0.4006 -1.0644
  269MOL0     H36250   0.498   2.396   6.549 -1.6272 -0.0285  2.0412
  269MOL0     H36251   0.525   2.299   6.413 -1.2218  1.9472 -0.7092
  269MOL0     H36252   0.296   2.252   6.396 -1.9195  1.4508 -1.7400
  269MOL0     H36253   0.255   2.359   6.543 -0.1837 -0.7558 -1.2275
  269MOL0     H36254   0.254   2.537   6.386  4.1378  1.0739  4.1998
  269MOL0     H36255   0.408   2.492   6.325 -0.2393  0.5730  0.5489
  269MOL0     H36256   0.241   2.496   6.155 -0.2877  0.3751  0.9402
  269MOL0     H36257   0.292   2.321   6.165  4.0518  0.1626  1.8284
  269MOL0     H36258   0.033   2.348   6.159 -2.0755 -1.0218  1.3571
  269MOL0     H36259   0.086   2.277   6.308 -2.0060  0.0929  1.0489
  269MOL0     H36260   0.031   2.430   6.445  0.5754 -0.4909 -0.0474
  269MOL0     H36261   0.046   2.561   6.323  0.0498  0.6982  1.5169
  269MOL0     H36262  -0.164   2.465   6.218 -1.9813  1.1315  0.9475
  269MOL0     H36263  -0.158   2.331   6.324  0.0170 -0.1758  1.5825
  269MOL0     H36264  -0.187   2.520   6.515 -1.2649 -0.0713  1.8588
  269MOL0     H36265  -0.334   2.477   6.426  1.3151  0.5846  2.8486
  269MOL0     H36266  -0.366   2.642   6.188 -1.7231  3.5248 -3.6148
  269MOL0     H36267  -0.381   3.035   6.233 -0.8802  1.7563 -2.8963
  269MOL0     H36268  -0.369   2.927   6.087 -1.4905  2.7107  0.0213
  269MOL0     H36269  -0.584   2.915   6.294 -1.4689 -2.0964 -1.0372
  269MOL0     H36270  -0.584   2.829   6.140 -0.3406 -1.7663  2.5110
  269MOL0     H36271  -0.726   3.021   6.088  1.6979 -3.7746 -2.5827
  269MOL0     H36272  -0.570   3.072   6.036 -2.5259  1.2642 -1.7905
  269MOL0     H36273  -0.533   3.226   6.179 -0.5869  1.5148  1.8179
  269MOL0     H36274  -0.596   3.141   6.325  1.5513 -0.8984 -0.5529
  269MOL0     H36275  -0.964   3.376   6.216 -0.2170  1.4787  0.0306
  269MOL0     H36276  -1.036   3.616   6.196  0.7283  1.2940  1.3434
  269MOL0     H36277  -1.101   3.535   6.349  0.1238 -0.4283  2.3477
  269MOL0     H36278  -1.050   3.703   6.344 -0.7881  0.3931 -0.7899
  269MOL0     H36279  -0.674   3.973   6.656 -0.0633 -1.5878 -3.0942
  269MOL0     H36280  -0.754   4.206   6.730  1.2551 -0.9168 -1.3876
  269MOL0     H36281  -0.920   4.492   6.743 -1.2788  0.6228 -0.8827
  269MOL0     H36282  -0.779   4.415   6.670 -0.3656 -2.8321 -1.4195
  269MOL0     H36283  -0.846   4.512   6.441 -0.3278  4.2825 -1.7439
  269MOL0     H36284  -0.984   4.586   6.513  0.0022  1.6448  2.8983
  269MOL0     H36285  -0.798   4.735   6.494 -1.5787  0.6103  1.3400
  269MOL0     H36286  -0.689   4.643   6.585 -1.4576 -2.2833  0.3938
  269MOL0     H36287  -0.956   4.727   6.698 -0.4131  2.3418  2.8013
  269MOL0     H36288  -0.832   4.690   6.794 -1.7815 -1.4477 -0.0956
  269MOL0     H36289  -0.804   4.914   6.569 -1.9835 -0.1418  0.1258
  269MOL0     H36290  -0.677   4.876   6.678  0.8622  0.5209  1.9583
  269MOL0     H36291  -0.937   4.975   6.794 -1.0156  4.7889 -1.1567
  269MOL0     H36292  -0.774   4.957   6.861  0.4655 -0.9282  0.3127
  269MOL0     H36293  -0.858   5.196   6.780  4.7397  4.5675  1.5118
  269MOL0     H36294  -0.809   5.134   6.623  0.7123 -1.8011  0.7982
  269MOL0     H36295  -0.589   5.088   6.688 -2.7964 -3.6082 -0.7215
  269MOL0     H36296  -0.629   5.148   6.854 -3.3948 -0.8957  0.5869
  269MOL0     H36297  -1.077   4.196   6.457  0.6917  0.2249  1.0539
  269MOL0     H36298  -0.996   3.981   6.372 -0.4637  2.7721 -1.8363
  269MOL0     H36299  -0.619   3.566   6.493  2.1364 -1.7331 -0.0662
  269MOL0     H36300  -0.556   3.372   6.372  0.2883 -0.4948  3.4925
  269MOL0     H36301   0.681   2.328   6.643 -0.7964  0.8753 -1.9294
  269MOL0     H36302   0.892   2.217   6.701  1.6062 -3.6320 -3.6477
  269MOL0     H36303   1.011   1.891   7.012  0.4157 -1.4488  1.0580
  269MOL0     H36304   1.171   1.843   7.187  0.2005 -3.8322 -0.4220
  269MOL0     H36305   1.353   1.976   7.312  0.1373  3.2519  2.3642
  269MOL0     H36306   1.506   1.891   7.339  1.3437  2.8002  1.5738
  269MOL0     H36307   1.620   2.083   7.198  0.4457  3.6077 -1.0520
  269MOL0     H36308   1.556   2.118   7.359  0.5587 -1.7699  0.8286
  269MOL0     H36309   1.388   2.261   7.260  0.9202 -2.5099  2.5479
  269MOL0     H36310   1.437   2.231   7.094 -1.1688  0.1517  0.6287
  269MOL0     H36311   1.623   2.323   7.088 -0.4278  0.1672  0.1442
  269MOL0     H36312   1.661   2.326   7.255  1.1391  3.0140 -0.5229
  269MOL0     H36313   1.431   2.678   7.234  1.5161  1.3024  1.1532
  269MOL0     H36314   1.487   1.984   6.917  1.6536 -3.3047  0.7506
  269MOL0     H36315   1.312   2.043   6.751 -0.3671 -1.2141  0.8764
  270MOL0     O36316   2.350  11.504   2.573 -0.2247  0.0500  0.1223
  270MOL0     C36317   2.305  11.445   2.472  0.5859  0.3836 -0.1855
  270MOL0     O36318   2.240  11.320   2.480  0.8408  0.6159  0.3999
  270MOL0     C36319   2.229  11.262   2.606  0.9284  0.5864  0.4341
  270MOL0     C36320   2.134  11.315   2.699  0.5927  0.4939  0.5080
  270MOL0     C36321   2.134  11.258   2.826  1.0262  0.2032  0.0809
  270MOL0     C36322   2.205  11.140   2.859 -0.8754  0.0984  0.2331
  270MOL0     O36323   2.207  11.089   2.988 -0.0004 -0.0362 -0.4709
  270MOL0     C36324   2.290  11.157   3.077  0.3130 -0.6757 -0.4566
  270MOL0     C36325   2.327  11.068   3.193  0.0418 -0.4895  0.4070
  270MOL0     C36326   2.412  10.951   3.143 -0.4819 -0.2569  0.8031
  270MOL0     C36327   2.407  10.835   3.236 -0.5536  0.5653 -0.8803
  270MOL0     C36328   2.512  10.731   3.195 -0.7339 -0.3326  0.6113
  270MOL0     C36329   2.511  10.608   3.285  0.2186 -0.1135  0.2282
  270MOL0     C36330   2.616  10.503   3.257 -0.1549 -0.1273 -0.2948
  270MOL0     C36331   2.575  10.421   3.126  0.9587  0.0455 -0.9503
  270MOL0     N36332   2.673  10.326   3.077 -0.8563 -0.6764 -0.8559
  270MOL0     C36333   2.710  10.213   3.144  0.5583  0.0085  0.3061
  270MOL0     C36334   2.812  10.180   3.069  0.4869 -1.0198  0.0223
  270MOL0     C36335   2.882  10.043   3.070 -0.6394  0.7255 -0.5221
  270MOL0     C36336   2.856   9.976   2.934 -0.4698  0.0584  0.6402
  270MOL0     C36337   2.923   9.840   2.931 -0.3938 -0.0742  0.6423
  270MOL0     C36338   2.844   9.753   2.835  0.0886 -0.5735  0.0890
  270MOL0     O36339   2.932   9.643   2.801 -0.3496  0.3788  0.0602
  270MOL0     C36340   2.882   9.534   2.731 -0.5456  0.0590  0.3836
  270MOL0     C36341   2.752   9.490   2.747 -0.1959  0.2349  0.3123
  270MOL0     C36342   2.696   9.386   2.668  0.8813 -0.3949 -0.4475
  270MOL0     C36343   2.544   9.370   2.698  0.2692 -0.8547 -0.2826
  270MOL0     C36344   2.780   9.324   2.570 -0.3655  0.4376  0.2775
  270MOL0     C36345   2.731   9.214   2.484  0.2264 -0.7334 -0.2451
  270MOL0     O36346   2.823   9.156   2.397 -0.1134 -0.2238  0.2413
  270MOL0     C36347   2.776   9.037   2.331 -0.1756 -0.2265 -0.6988
  270MOL0     C36348   2.796   9.022   2.198 -0.8732  0.7056 -0.3660
  270MOL0     C36349   2.748   8.913   2.122 -0.7579  0.0092 -0.6485
  270MOL0     C36350   2.679   8.812   2.179  0.0027  0.0850 -0.3827
  270MOL0     O36351   2.643   8.711   2.092  0.2601  0.9285  0.3072
  270MOL0     C36352   2.570   8.589   2.147  0.5123 -0.2474  0.2396
  270MOL0     C36353   2.420   8.613   2.183  0.0715  0.1262 -0.3794
  270MOL0     C36354   2.331   8.497   2.233  0.5027  0.7094  0.4026
  270MOL0     C36355   2.387   8.406   2.348 -0.4168 -0.1078  0.2359
  270MOL0     C36356   2.289   8.329   2.427 -0.0538  0.0946  0.7247
  270MOL0     C36357   2.222   8.223   2.340 -0.6219 -0.4785 -0.1711
  270MOL0     C36358   2.118   8.151   2.427 -0.0111  0.9765  1.1829
  270MOL0     C36359   2.069   8.028   2.357  0.4829  0.7456  0.6630
  270MOL0    Cl36360   2.211   7.898   2.350 -0.0101 -0.5875  0.2555
  270MOL0     C36361   2.671   8.813   2.319  1.1527  0.3097  0.3014
  270MOL0     C36362   2.713   8.930   2.394 -0.5459 -0.1513  0.6659
  270MOL0     O36363   2.625   9.174   2.514 -0.2131  1.2062  0.2670
  270MOL0     C36364   2.919   9.380   2.549  0.5894  0.3529  0.5697
  270MOL0     C36365   2.966   9.479   2.629  0.8467 -0.6566  0.8063
  270MOL0     N36366   2.838  10.264   2.964 -0.8073  0.1498  0.2315
  270MOL0     N36367   2.758  10.367   2.981 -1.3114  0.6911 -0.5264
  270MOL0     C36368   2.285  11.081   2.764 -0.1655 -0.1441 -0.2123
  270MOL0     C36369   2.311  11.151   2.645 -0.4397  0.3491  0.2177
  270MOL0     C36370   2.312  11.505   2.343 -0.1181  0.7972 -0.1825
  270MOL0     C36371   2.276  11.421   2.236  0.4723  0.4688  0.4442
  270MOL0     C36372   2.309  11.463   2.102  0.1924 -0.4573 -0.3956
  270MOL0     C36373   2.373  11.582   2.075  0.0533  0.4308 -0.4464
  270MOL0     O36374   2.414  11.605   1.937  0.6441 -0.3941 -0.4661
  270MOL0     C36375   2.466  11.738   1.910 -0.2718  1.1190 -0.2740
  270MOL0     C36376   2.481  11.778   1.760 -0.5275  0.3151  0.8609
  270MOL0     C36377   2.352  11.851   1.707  0.2981 -0.1577 -1.1679
  270MOL0     C36378   2.361  11.883   1.553 -0.9551  0.4391 -0.4630
  270MOL0     C36379   2.464  11.976   1.515 -0.0076  0.1789  0.0236
  270MOL0     C36380   2.534  12.075   1.496  0.0353  0.6602  0.2812
  270MOL0     C36381   2.395  11.661   2.183 -0.4822  0.1565  0.5483
  270MOL0     C36382   2.374  11.626   2.316  0.3383 -0.3645 -0.6928
  270MOL0     H36383   2.072  11.402   2.680  0.7631  0.8566  1.5012
  270MOL0     H36384   2.074  11.307   2.902 -1.0988  1.3332 -2.1750
  270MOL0     H36385   2.381  11.202   3.037  4.0202 -1.7046  5.4840
  270MOL0     H36386   2.235  11.238   3.126  1.4097 -1.8173  2.9863
  270MOL0     H36387   2.383  11.131   3.261  1.7448 -1.4260 -0.0763
  270MOL0     H36388   2.233  11.030   3.236 -0.2523  0.5744  0.7257
  270MOL0     H36389   2.387  10.901   3.049  0.3178 -2.1135  1.5375
  270MOL0     H36390   2.513  10.993   3.138 -1.0425  1.0205 -0.7680
  270MOL0     H36391   2.439  10.872   3.334  0.1303 -1.7784 -0.1664
  270MOL0     H36392   2.309  10.788   3.249  0.8177 -1.6548  3.4105
  270MOL0     H36393   2.496  10.695   3.093 -2.5893 -2.8125  1.6648
  270MOL0     H36394   2.611  10.777   3.207 -1.5314  1.2883  1.3489
  270MOL0     H36395   2.530  10.663   3.378 -0.0855  0.0213  0.2115
  270MOL0     H36396   2.414  10.559   3.295  0.2963 -1.1064 -2.9278
  270MOL0     H36397   2.711  10.553   3.236 -0.4410  0.4598 -0.2100
  270MOL0     H36398   2.632  10.437   3.343  2.1848 -1.7200 -1.8341
  270MOL0     H36399   2.539  10.494   3.053 -1.1473  1.0469  0.9717
  270MOL0     H36400   2.482  10.369   3.151  0.9138  0.1426 -0.9134
  270MOL0     H36401   2.665  10.164   3.230 -1.8559 -0.5550 -1.1904
  270MOL0     H36402   2.988  10.043   3.095 -0.8793 -4.7575  2.1192
  270MOL0     H36403   2.835   9.984   3.150  1.2261 -1.5807 -1.0028
  270MOL0     H36404   2.908  10.033   2.856  1.1984 -2.0625  0.0922
  270MOL0     H36405   2.748   9.974   2.918 -0.7723  4.2985  1.1704
  270MOL0     H36406   2.933   9.807   3.035  0.5691  0.2347  0.6566
  270MOL0     H36407   3.024   9.849   2.890 -0.6707 -0.9474 -0.2625
  270MOL0     H36408   2.825   9.809   2.743 -0.2163 -0.2503  0.3428
  270MOL0     H36409   2.753   9.729   2.891 -0.1030 -0.4053 -0.1497
  270MOL0     H36410   2.695   9.551   2.816  2.6033  1.6657  1.5579
  270MOL0     H36411   2.527   9.387   2.805  0.1644  1.3488 -0.6135
  270MOL0     H36412   2.491   9.440   2.633 -0.1936 -0.8196  0.1249
  270MOL0     H36413   2.492   9.274   2.686 -0.4766 -1.3623  4.7003
  270MOL0     H36414   2.843   9.112   2.158 -0.3166  0.9981  0.9080
  270MOL0     H36415   2.757   8.902   2.015  0.2854  0.3580 -0.6003
  270MOL0     H36416   2.566   8.505   2.078  0.5495 -0.6680  0.7407
  270MOL0     H36417   2.610   8.536   2.234 -2.6023 -0.0237  1.9266
  270MOL0     H36418   2.425   8.689   2.262  1.1478 -1.0940  0.7780
  270MOL0     H36419   2.371   8.650   2.092  0.1567  0.0471 -0.4569
  270MOL0     H36420   2.311   8.437   2.144 -1.1901  0.5045  0.8810
  270MOL0     H36421   2.228   8.515   2.266 -1.0233 -2.8139 -1.8219
  270MOL0     H36422   2.468   8.339   2.316  1.2962  1.7064  0.5328
  270MOL0     H36423   2.443   8.477   2.410  4.5456 -1.4965 -2.1000
  270MOL0     H36424   2.210   8.395   2.463 -1.0317 -2.0004  2.6768
  270MOL0     H36425   2.350   8.283   2.505  0.6441 -0.6957 -0.2679
  270MOL0     H36426   2.172   8.264   2.252 -1.5273 -2.5145 -0.6724
  270MOL0     H36427   2.296   8.153   2.300  0.2523 -0.0288  0.6281
  270MOL0     H36428   2.029   8.215   2.432 -0.2310  0.7358  0.4837
  270MOL0     H36429   2.161   8.127   2.524 -1.5383  1.5679  2.0497
  270MOL0     H36430   1.988   7.985   2.416  0.8837  2.5877  2.7290
  270MOL0     H36431   2.038   8.050   2.255 -0.0121 -1.0525  0.3985
  270MOL0     H36432   2.616   8.732   2.366  0.4273 -0.0130 -1.0536
  270MOL0     H36433   2.693   8.934   2.501  0.3721  0.8040  0.8202
  270MOL0     H36434   2.979   9.324   2.478 -1.0886  1.7517 -2.1545
  270MOL0     H36435   3.068   9.517   2.626  1.0045 -1.0821  0.7882
  270MOL0     H36436   2.347  10.996   2.790 -0.5690  0.4087  3.0282
  270MOL0     H36437   2.383  11.122   2.568 -3.1321 -0.0364 -2.3536
  270MOL0     H36438   2.230  11.323   2.246  0.7035  0.0465 -2.0901
  270MOL0     H36439   2.286  11.402   2.015  2.8080 -6.0573  2.3818
  270MOL0     H36440   2.405  11.810   1.965 -1.4178  0.1826 -0.2817
  270MOL0     H36441   2.562  11.755   1.959  2.1558 -3.4402 -2.8134
  270MOL0     H36442   2.495  11.689   1.698 -1.6426  2.4052 -2.6255
  270MOL0     H36443   2.571  11.836   1.738 -1.9661  3.0656  1.7402
  270MOL0     H36444   2.348  11.942   1.767 -1.2515 -1.2038  0.4214
  270MOL0     H36445   2.263  11.789   1.726 -0.3267  0.0359 -3.2077
  270MOL0     H36446   2.263  11.919   1.522 -0.5983  0.3369 -1.7577
  270MOL0     H36447   2.384  11.789   1.501  0.2974 -1.1630  2.6808
  270MOL0     H36448   2.599  12.156   1.472  2.5586 -1.6418 -1.2276
  270MOL0     H36449   2.442  11.759   2.175  0.6958 -0.1740  2.6740
  270MOL0     H36450   2.406  11.693   2.396  2.1832  0.6744 -2.2017
  271MOL0     O36451   7.738   3.055   8.675 -0.4304 -0.4813 -0.1600
  271MOL0     C36452   7.659   3.048   8.763  0.1692 -0.4079  0.1678
  271MOL0     O36453   7.679   3.027   8.901  0.1838 -0.4703  0.1987
  271MOL0     C36454   7.798   3.012   8.964  0.3325  0.4514  0.9212
  271MOL0     C36455   7.789   3.004   9.102 -0.5187 -0.3437  0.5176
  271MOL0     C36456   7.911   2.998   9.177  0.0859  0.4003 -0.0150
  271MOL0     C36457   8.035   2.983   9.123 -0.1437 -0.8447 -0.2999
  271MOL0     O36458   8.143   2.977   9.209 -0.3627 -0.0158  0.6898
  271MOL0     C36459   8.278   2.978   9.177  0.8206  0.2032 -0.0109
  271MOL0     C36460   8.346   2.967   9.312  0.0241 -0.2337  0.7806
  271MOL0     C36461   8.482   3.029   9.310 -0.7971 -0.9313  0.0601
  271MOL0     C36462   8.508   3.161   9.393  1.0915  0.6335 -0.3307
  271MOL0     C36463   8.506   3.111   9.544  0.1276 -0.3296 -0.9152
  271MOL0     C36464   8.500   3.224   9.644  0.1061  0.6148  0.0355
  271MOL0     C36465   8.633   3.311   9.654 -0.3005 -0.0623  0.7777
  271MOL0     C36466   8.633   3.433   9.739 -0.0923  0.5078 -0.4208
  271MOL0     N36467   8.769   3.497   9.752  0.6520  0.2776  0.1961
  271MOL0     C36468   8.865   3.512   9.654  0.3426 -1.2435  0.6463
  271MOL0     C36469   8.977   3.560   9.716  0.6415  0.2975 -0.3875
  271MOL0     C36470   9.102   3.605   9.653  1.4381 -0.2234  0.2349
  271MOL0     C36471   9.071   3.742   9.589  0.3656 -0.7057  0.7933
  271MOL0     C36472   8.982   3.744   9.452 -0.2485  0.4320 -0.0955
  271MOL0     C36473   9.078   3.693   9.334 -1.4009  0.1145 -0.1170
  271MOL0     O36474   9.106   3.554   9.349 -0.4358 -0.2764 -0.2072
  271MOL0     C36475   9.031   3.449   9.312 -0.1735  0.2295 -0.4325
  271MOL0     C36476   8.940   3.460   9.214  0.2790  0.0947 -0.2040
  271MOL0     C36477   8.870   3.351   9.169  0.1862  0.2081  0.2865
  271MOL0     C36478   8.773   3.369   9.059 -0.1837  1.0764 -0.3797
  271MOL0     C36479   8.897   3.218   9.219  0.2463  0.6246 -0.4104
  271MOL0     C36480   8.849   3.088   9.175  0.6387  0.5377  0.4566
  271MOL0     O36481   8.885   2.975   9.250  0.4421 -0.5987  0.0328
  271MOL0     C36482   8.825   2.858   9.220 -1.4567 -0.0944  0.0129
  271MOL0     C36483   8.828   2.810   9.090 -0.1565 -0.7079 -0.5337
  271MOL0     C36484   8.768   2.687   9.053  0.0866 -1.2984 -0.2701
  271MOL0     C36485   8.715   2.599   9.151 -0.0280 -0.4230 -0.2624
  271MOL0     O36486   8.642   2.482   9.128 -0.2103 -0.3714 -0.4855
  271MOL0     C36487   8.690   2.381   9.030 -0.2483 -0.2559  0.4571
  271MOL0     C36488   8.802   2.299   9.094 -0.5695  0.1819 -0.3231
  271MOL0     C36489   8.753   2.193   9.191 -0.5580  0.7506  0.8676
  271MOL0     C36490   8.738   2.054   9.115 -0.4696  0.0282 -0.0898
  271MOL0     C36491   8.635   2.048   8.991 -0.5895  0.0428  0.2291
  271MOL0     C36492   8.495   2.045   9.050  0.4156  0.7602 -1.6516
  271MOL0     C36493   8.406   2.087   8.929  0.1119 -0.1783  0.2671
  271MOL0     C36494   8.257   2.074   8.948  0.0973 -1.1530 -0.1354
  271MOL0    Cl36495   8.158   2.086   8.802  0.2222  0.2379  0.5412
  271MOL0     C36496   8.731   2.642   9.283 -0.0897 -0.1215 -0.3581
  271MOL0     C36497   8.790   2.768   9.315 -0.4277 -0.5339 -0.5986
  271MOL0     O36498   8.772   3.084   9.065 -0.1123 -0.2313  0.0022
  271MOL0     C36499   8.991   3.217   9.329  0.8668 -0.8979 -0.0520
  271MOL0     C36500   9.055   3.330   9.376  0.4909 -0.6210 -0.1731
  271MOL0     N36501   8.954   3.554   9.852  0.1265  0.4012 -0.0462
  271MOL0     N36502   8.830   3.509   9.869  0.3374 -0.4999 -0.2872
  271MOL0     C36503   8.038   2.971   8.982  0.0075  0.0781  0.0473
  271MOL0     C36504   7.925   2.993   8.904  0.4446 -0.7026 -0.2400
  271MOL0     C36505   7.513   3.066   8.728 -0.7681 -0.4934 -0.0419
  271MOL0     C36506   7.473   3.053   8.588  0.7942 -1.2213 -1.0458
  271MOL0     C36507   7.341   3.076   8.561 -0.1289  0.5918  0.2088
  271MOL0     C36508   7.243   3.089   8.660 -0.7891 -0.4739 -0.2048
  271MOL0     O36509   7.108   3.107   8.632 -0.1349  0.4762  0.0890
  271MOL0     C36510   7.058   2.983   8.588 -0.2307 -0.4232  0.9020
  271MOL0     C36511   7.009   2.984   8.439  0.2998  0.6228  0.3594
  271MOL0     C36512   6.869   3.038   8.424 -0.4882  0.0117 -0.2972
  271MOL0     C36513   6.808   3.000   8.285  0.5068 -0.0454 -0.4332
  271MOL0     C36514   6.755   2.866   8.292  0.6119  0.2392  0.2272
  271MOL0     C36515   6.715   2.757   8.288  0.3582  1.2970  0.5083
  271MOL0     C36516   7.282   3.095   8.792  0.5907 -0.0821  0.1825
  271MOL0     C36517   7.408   3.086   8.830 -0.3127 -0.0073 -0.5518
  271MOL0     H36518   7.689   3.001   9.144 -0.6422 -2.3014  0.1498
  271MOL0     H36519   7.923   3.001   9.285  1.8371  3.9895 -0.1692
  271MOL0     H36520   8.303   2.898   9.107  0.1128  0.4894 -0.6039
  271MOL0     H36521   8.307   3.076   9.138  0.9187  0.7841  1.4326
  271MOL0     H36522   8.299   3.033   9.386  3.4475 -0.2270  3.1535
  271MOL0     H36523   8.337   2.863   9.344  2.4182  0.0354  2.5798
  271MOL0     H36524   8.554   2.950   9.334  2.1542  1.5029 -0.3064
  271MOL0     H36525   8.517   3.048   9.208  1.8352 -0.3117  1.0196
  271MOL0     H36526   8.600   3.209   9.360  0.3288  1.7064 -0.9426
  271MOL0     H36527   8.420   3.222   9.373  0.8517  1.0896  1.8485
  271MOL0     H36528   8.412   3.059   9.565 -1.9418  2.7342 -1.9389
  271MOL0     H36529   8.584   3.037   9.567  0.1053  0.1110  0.7541
  271MOL0     H36530   8.419   3.296   9.635 -1.5317 -1.0860  0.6644
  271MOL0     H36531   8.502   3.169   9.739 -0.5158 -2.6042 -1.6629
  271MOL0     H36532   8.717   3.247   9.680  1.1234  0.7483 -1.5052
  271MOL0     H36533   8.658   3.339   9.551  2.1379  2.0511  1.8488
  271MOL0     H36534   8.599   3.398   9.837 -0.1264  2.5780  0.3545
  271MOL0     H36535   8.557   3.500   9.698 -1.8872 -1.3448 -0.2599
  271MOL0     H36536   8.852   3.496   9.548 -0.1792 -0.9016  0.6500
  271MOL0     H36537   9.182   3.609   9.727  0.3542  1.6198  1.3929
  271MOL0     H36538   9.115   3.527   9.578 -2.7948 -0.2436 -0.7225
  271MOL0     H36539   9.168   3.784   9.562  1.6561 -1.9739  3.1074
  271MOL0     H36540   9.025   3.800   9.670  1.4591  1.4871 -0.0724
  271MOL0     H36541   8.959   3.844   9.416  0.3604  0.7743  0.4483
  271MOL0     H36542   8.891   3.684   9.458 -0.5158  0.8685  0.2765
  271MOL0     H36543   9.180   3.730   9.347 -1.1435 -1.0032  1.3276
  271MOL0     H36544   9.044   3.723   9.234  2.2114 -1.7553 -2.1167
  271MOL0     H36545   8.934   3.557   9.164  3.2619 -0.7441 -2.4704
  271MOL0     H36546   8.678   3.326   9.093 -0.3050  0.3688 -1.5177
  271MOL0     H36547   8.763   3.472   9.023  1.0338  1.2352 -0.2968
  271MOL0     H36548   8.806   3.307   8.975 -2.1438 -1.0588  0.3176
  271MOL0     H36549   8.845   2.862   8.996 -4.4331  0.2922 -0.9573
  271MOL0     H36550   8.753   2.660   8.949 -0.8062  0.2304 -0.5723
  271MOL0     H36551   8.614   2.308   9.002  0.3847 -1.4331  1.6927
  271MOL0     H36552   8.720   2.423   8.934  1.1603 -0.3535  0.8333
  271MOL0     H36553   8.851   2.254   9.006 -1.5590 -4.2908  1.1625
  271MOL0     H36554   8.875   2.364   9.143  1.0001 -2.1919  0.6865
  271MOL0     H36555   8.664   2.226   9.245 -1.5563 -0.6982  0.1799
  271MOL0     H36556   8.820   2.173   9.275 -2.3968 -0.1045  2.1931
  271MOL0     H36557   8.829   2.006   9.078 -0.2590 -0.3337  0.8680
  271MOL0     H36558   8.697   1.977   9.182  1.9605 -2.3201 -1.1125
  271MOL0     H36559   8.642   1.952   8.940 -1.5312 -1.2410  2.3459
  271MOL0     H36560   8.657   2.131   8.924 -0.1325  0.6414  1.0920
  271MOL0     H36561   8.477   1.940   9.075  0.8332  0.6778 -1.6941
  271MOL0     H36562   8.467   2.101   9.139 -1.2985 -0.0020 -1.6707
  271MOL0     H36563   8.427   2.016   8.848  0.6856 -2.2785  2.1358
  271MOL0     H36564   8.428   2.184   8.885 -1.0458 -0.6143 -1.3601
  271MOL0     H36565   8.236   2.168   9.001  3.1537 -0.6637  0.3855
  271MOL0     H36566   8.229   2.001   9.024  2.4464 -1.4031  0.5696
  271MOL0     H36567   8.687   2.582   9.362  0.2687 -0.9043 -0.7534
  271MOL0     H36568   8.774   2.807   9.415  0.9746  1.3133 -1.0277
  271MOL0     H36569   9.017   3.123   9.376  0.0652 -2.0307 -1.7688
  271MOL0     H36570   9.117   3.322   9.464  0.9978 -0.0494 -0.4713
  271MOL0     H36571   8.135   2.961   8.935  0.5925 -1.2742  1.4120
  271MOL0     H36572   7.940   3.016   8.799  2.1718 -0.6876 -0.0201
  271MOL0     H36573   7.538   3.053   8.501 -0.1036  2.1892 -1.8835
  271MOL0     H36574   7.312   3.076   8.456  1.3359  3.2264 -0.2953
  271MOL0     H36575   7.127   2.899   8.603 -1.8351 -1.7728  1.0725
  271MOL0     H36576   6.979   2.956   8.659  0.8750  0.7362  2.6730
  271MOL0     H36577   6.993   2.879   8.413  2.9257  0.1617  0.3654
  271MOL0     H36578   7.085   3.031   8.376 -0.7907  1.7452 -0.1719
  271MOL0     H36579   6.870   3.147   8.435  2.0204  0.0837 -0.6671
  271MOL0     H36580   6.808   2.992   8.503 -3.7001  1.3326 -1.8064
  271MOL0     H36581   6.884   2.995   8.207  1.4261 -3.1466  0.5045
  271MOL0     H36582   6.727   3.071   8.269  1.0127  1.5919  3.2292
  271MOL0     H36583   6.674   2.663   8.259 -2.3986  3.0720 -1.9586
  271MOL0     H36584   7.199   3.108   8.861  1.5332  0.9739  1.1535
  271MOL0     H36585   7.447   3.104   8.930 -2.9819  2.0923  0.2108
  272MOL0     O36586   3.718   1.266   7.936  0.2112 -0.7227  0.2177
  272MOL0     C36587   3.782   1.275   7.836 -0.4194  0.3148  0.2112
  272MOL0     O36588   3.860   1.387   7.814  0.3693  0.5475  0.0348
  272MOL0     C36589   3.827   1.495   7.891  0.3444 -0.4046  0.3625
  272MOL0     C36590   3.931   1.534   7.982 -0.5406  0.4292  0.0517
  272MOL0     C36591   3.910   1.631   8.082 -0.1135  0.0837 -0.2204
  272MOL0     C36592   3.792   1.719   8.066 -0.5409  1.0410 -0.5193
  272MOL0     O36593   3.781   1.815   8.155 -0.1902 -0.1119 -0.1825
  272MOL0     C36594   3.667   1.891   8.158  0.5251 -1.2490 -0.1895
  272MOL0     C36595   3.690   2.031   8.241 -0.9007 -0.6744 -0.2406
  272MOL0     C36596   3.675   2.019   8.393 -0.2676 -0.3988 -0.0791
  272MOL0     C36597   3.780   1.927   8.459 -0.0527 -0.3588  0.2019
  272MOL0     C36598   3.747   1.926   8.612 -1.1247  0.7031  0.2567
  272MOL0     C36599   3.886   1.911   8.680 -0.3717  0.0982  0.0709
  272MOL0     C36600   3.866   1.900   8.831  1.0423  0.0728  0.4211
  272MOL0     C36601   3.905   2.040   8.882  1.2650 -0.1361 -0.2872
  272MOL0     N36602   3.938   2.036   9.030 -0.1416  0.1843  0.6395
  272MOL0     C36603   4.053   1.979   9.074  0.1033 -0.4276  1.1289
  272MOL0     C36604   4.064   2.029   9.202 -0.5841  0.3911  0.0818
  272MOL0     C36605   4.176   2.011   9.297  0.9008 -0.2954  0.3589
  272MOL0     C36606   4.196   1.868   9.352 -0.8024  0.5266  0.1994
  272MOL0     C36607   4.076   1.793   9.403  0.3164 -0.1687  0.6489
  272MOL0     C36608   4.008   1.712   9.294 -0.2520 -0.5157 -0.4550
  272MOL0     O36609   4.082   1.646   9.190  0.2764  0.3670  0.5598
  272MOL0     C36610   4.010   1.613   9.075  0.1912  0.3449 -0.8582
  272MOL0     C36611   3.870   1.603   9.063  0.4984 -0.0610 -0.2339
  272MOL0     C36612   3.812   1.556   8.942  0.7305  0.1594  0.1806
  272MOL0     C36613   3.660   1.548   8.939 -0.2960 -0.0745  0.4021
  272MOL0     C36614   3.896   1.525   8.830  0.2930  0.4885  0.5685
  272MOL0     C36615   3.832   1.481   8.696 -0.1876 -0.8058 -0.1727
  272MOL0     O36616   3.706   1.540   8.665  0.0753  0.0803  0.6819
  272MOL0     C36617   3.640   1.513   8.544 -0.2132  0.5897 -0.5854
  272MOL0     C36618   3.500   1.507   8.543 -0.6125 -0.2959 -0.2733
  272MOL0     C36619   3.427   1.470   8.423  0.3180  0.4131 -0.2138
  272MOL0     C36620   3.495   1.427   8.314 -0.1733 -0.5786  0.0309
  272MOL0     O36621   3.416   1.407   8.202  0.7782  0.1816  0.0114
  272MOL0     C36622   3.471   1.342   8.085  0.5563  0.2839 -0.4490
  272MOL0     C36623   3.358   1.320   7.987  0.6644 -0.0502 -0.5929
  272MOL0     C36624   3.411   1.275   7.865 -0.3637  0.4176 -0.7797
  272MOL0     C36625   3.300   1.279   7.761  0.1424  0.4187  0.5158
  272MOL0     C36626   3.338   1.241   7.609 -0.1852  1.0925 -0.6658
  272MOL0     C36627   3.209   1.261   7.526 -0.1125  0.3320  0.1717
  272MOL0     C36628   3.229   1.255   7.378  1.0363  0.0400  0.0292
  272MOL0     C36629   3.202   1.119   7.327 -0.3916  0.3694 -0.3864
  272MOL0    Cl36630   3.241   1.120   7.157 -0.2045 -0.6287  0.3604
  272MOL0     C36631   3.637   1.434   8.306  0.9590 -0.3626 -0.0964
  272MOL0     C36632   3.703   1.484   8.424 -0.0685 -0.1261  0.1099
  272MOL0     O36633   3.895   1.409   8.623  0.1794 -0.0260  0.1754
  272MOL0     C36634   4.036   1.524   8.848  0.0443  0.4407  0.1459
  272MOL0     C36635   4.089   1.567   8.971 -0.7499  0.2605  0.5068
  272MOL0     N36636   3.949   2.089   9.240  0.5248 -0.3481  0.6527
  272MOL0     N36637   3.876   2.103   9.137 -0.3304  0.1833  0.1440
  272MOL0     C36638   3.693   1.671   7.984  0.3950 -1.1312 -0.6016
  272MOL0     C36639   3.709   1.568   7.888  0.1337 -0.1128  0.5180
  272MOL0     C36640   3.785   1.142   7.758 -0.6034 -0.5173  0.3081
  272MOL0     C36641   3.887   1.120   7.669 -0.3680  0.3713 -0.9380
  272MOL0     C36642   3.888   0.993   7.599  0.6491 -0.1994  0.1298
  272MOL0     C36643   3.803   0.884   7.641  0.1296 -0.4741 -0.1123
  272MOL0     O36644   3.788   0.762   7.578  0.7105  0.5941 -1.0353
  272MOL0     C36645   3.911   0.727   7.512  0.6136  0.4965  0.7980
  272MOL0     C36646   3.896   0.589   7.454  0.3032 -0.6946 -0.2852
  272MOL0     C36647   4.028   0.525   7.388  0.6031 -0.2519  0.3256
  272MOL0     C36648   4.116   0.463   7.498 -0.6392 -0.0747 -0.0567
  272MOL0     C36649   4.218   0.381   7.440  0.4308  0.8533 -0.4005
  272MOL0     C36650   4.301   0.313   7.390  0.8035  0.0539  0.2543
  272MOL0     C36651   3.705   0.907   7.744  0.2931 -0.0523  1.4166
  272MOL0     C36652   3.698   1.033   7.799 -0.2001 -0.1361  0.2086
  272MOL0     H36653   4.031   1.493   7.987 -0.3354  0.6263 -1.6781
  272MOL0     H36654   3.985   1.651   8.157  0.1980  1.1506 -0.8076
  272MOL0     H36655   3.628   1.920   8.060 -0.3213  2.0772  0.9800
  272MOL0     H36656   3.585   1.839   8.208 -0.1174 -0.0778  0.0118
  272MOL0     H36657   3.784   2.079   8.214 -0.7017 -1.0099 -0.1524
  272MOL0     H36658   3.617   2.110   8.225  0.1651  1.1125  2.8725
  272MOL0     H36659   3.684   2.115   8.444 -1.9264 -0.0779 -0.3458
  272MOL0     H36660   3.575   1.979   8.412 -0.4036 -0.8660 -1.6755
  272MOL0     H36661   3.773   1.822   8.428 -0.7431 -0.5640  1.0352
  272MOL0     H36662   3.879   1.962   8.429  0.2196 -1.3304 -0.0876
  272MOL0     H36663   3.694   2.016   8.646  0.5763  2.0918 -0.6360
  272MOL0     H36664   3.682   1.839   8.628 -2.2643  1.3067 -0.8743
  272MOL0     H36665   3.935   1.823   8.637 -1.4705 -0.0894 -0.8582
  272MOL0     H36666   3.951   1.995   8.653 -1.0948  0.4600 -0.5853
  272MOL0     H36667   3.766   1.866   8.857  1.6413 -0.2704  2.4844
  272MOL0     H36668   3.946   1.832   8.864  3.3742  1.6670 -1.5638
  272MOL0     H36669   3.828   2.117   8.876 -0.4038 -1.6457  0.7898
  272MOL0     H36670   3.990   2.085   8.830  2.0708 -2.6404 -1.3326
  272MOL0     H36671   4.124   1.931   9.007 -0.8077 -1.0376  0.5934
  272MOL0     H36672   4.265   2.039   9.241 -1.3293 -1.3190 -4.1830
  272MOL0     H36673   4.162   2.079   9.381 -0.3096  0.5966 -0.5301
  272MOL0     H36674   4.263   1.861   9.438  0.5500  2.6175 -0.6108
  272MOL0     H36675   4.248   1.814   9.272 -0.2055 -1.1777  1.6607
  272MOL0     H36676   4.013   1.867   9.453  0.5263  2.3626 -2.4873
  272MOL0     H36677   4.125   1.728   9.476  1.6110  0.4026  0.3106
  272MOL0     H36678   3.944   1.788   9.248  1.8201  1.1431 -0.7723
  272MOL0     H36679   3.952   1.637   9.350 -1.7944  0.6841 -0.3031
  272MOL0     H36680   3.814   1.612   9.156  2.1192 -1.8239  0.9963
  272MOL0     H36681   3.612   1.621   8.873 -0.7453  0.3809  1.2111
  272MOL0     H36682   3.641   1.444   8.911 -1.1354 -0.6993  2.9940
  272MOL0     H36683   3.616   1.547   9.039 -2.4169  4.5360 -0.2369
  272MOL0     H36684   3.432   1.530   8.625 -1.2200  4.1275 -1.7846
  272MOL0     H36685   3.319   1.472   8.408 -0.0789 -1.3336  1.8665
  272MOL0     H36686   3.543   1.417   8.052  1.8330 -0.6721  0.0370
  272MOL0     H36687   3.524   1.255   8.127 -2.0069 -0.8586  0.6250
  272MOL0     H36688   3.274   1.260   8.023  1.6603 -0.6000  0.9030
  272MOL0     H36689   3.323   1.420   7.960  1.1189  0.3504  0.2427
  272MOL0     H36690   3.442   1.170   7.876  0.6985  0.8811  1.3418
  272MOL0     H36691   3.498   1.338   7.842  1.3601 -0.2385  3.1028
  272MOL0     H36692   3.219   1.209   7.787 -1.6019  1.8981 -0.6808
  272MOL0     H36693   3.257   1.378   7.742 -0.4284 -0.4190 -3.4765
  272MOL0     H36694   3.379   1.140   7.619 -0.9405  0.9930  4.0844
  272MOL0     H36695   3.410   1.305   7.557  1.2840 -0.6911 -0.9097
  272MOL0     H36696   3.142   1.184   7.566  2.9184 -2.2708  0.5958
  272MOL0     H36697   3.168   1.362   7.539  1.6299  1.3691 -1.7682
  272MOL0     H36698   3.329   1.295   7.357  0.5766  1.1517 -0.1191
  272MOL0     H36699   3.160   1.324   7.329 -0.7471  1.2690  3.8897
  272MOL0     H36700   3.098   1.084   7.333 -0.1164 -0.1992  2.2755
  272MOL0     H36701   3.265   1.051   7.385  2.2637  1.7482 -1.5310
  272MOL0     H36702   3.696   1.402   8.221  1.5395  0.7479 -0.1356
  272MOL0     H36703   3.811   1.494   8.421  0.0700 -1.4232  0.0572
  272MOL0     H36704   4.102   1.494   8.767  0.8412 -1.3815  1.3851
  272MOL0     H36705   4.195   1.549   8.986 -0.9062  1.9344  5.0384
  272MOL0     H36706   3.595   1.718   7.972 -1.1210 -3.6218  1.1778
  272MOL0     H36707   3.624   1.542   7.824  0.0955  0.4582  0.3263
  272MOL0     H36708   3.962   1.193   7.639  1.3666 -1.8628 -2.4530
  272MOL0     H36709   3.961   0.974   7.521 -0.7136  0.3747 -1.3469
  272MOL0     H36710   3.939   0.790   7.427 -2.8151  0.1321 -0.7461
  272MOL0     H36711   3.992   0.730   7.586  0.5710 -0.4622  0.8995
  272MOL0     H36712   3.827   0.610   7.372  1.3595 -1.7647 -1.4930
  272MOL0     H36713   3.849   0.528   7.533 -0.5756  0.5500  0.1881
  272MOL0     H36714   4.076   0.614   7.348 -0.2412  0.4531  0.8410
  272MOL0     H36715   4.011   0.441   7.319 -1.1513  0.0289  0.3660
  272MOL0     H36716   4.067   0.420   7.586 -0.0859 -2.5336 -0.8563
  272MOL0     H36717   4.167   0.543   7.551  1.6610 -0.7800 -1.0885
  272MOL0     H36718   4.379   0.254   7.346  0.1050 -0.8324  0.1693
  272MOL0     H36719   3.642   0.829   7.787 -1.3324 -0.0385 -0.7579
  272MOL0     H36720   3.632   1.049   7.883  3.2092  4.3933  2.4578
  273MOL0     O36721   8.589   0.127   4.602 -0.4540 -0.0678  0.5475
  273MOL0     C36722   8.555   0.008   4.598  0.2369  0.7224 -0.7324
  273MOL0     O36723   8.556  -0.063   4.482  0.2003  0.5006 -0.0772
  273MOL0     C36724   8.562  -0.011   4.359 -0.6258  0.2809  0.1215
  273MOL0     C36725   8.528   0.122   4.325 -1.4460 -0.8597  0.2017
  273MOL0     C36726   8.519   0.162   4.186 -1.1170 -0.1773  0.3868
  273MOL0     C36727   8.565   0.077   4.086 -0.0932  0.2473 -0.1642
  273MOL0     O36728   8.570   0.108   3.953  0.2411 -0.5463 -0.5179
  273MOL0     C36729   8.447   0.156   3.887 -0.2424 -0.7917  0.1271
  273MOL0     C36730   8.341   0.054   3.886 -0.0942 -0.3348  0.3400
  273MOL0     C36731   8.247   0.069   3.762  0.2246  0.2056 -0.4428
  273MOL0     C36732   8.162   0.206   3.758 -0.3617 -0.5226 -0.7786
  273MOL0     C36733   8.101   0.208   3.612  0.1773  0.7940 -0.1449
  273MOL0     C36734   8.004   0.334   3.600 -0.0720 -1.2584 -0.1168
  273MOL0     C36735   7.942   0.357   3.457  0.1499  0.3214  0.4388
  273MOL0     C36736   8.056   0.420   3.377 -0.5137  0.3867 -0.4175
  273MOL0     N36737   8.019   0.535   3.306 -0.3892 -0.5182 -0.9482
  273MOL0     C36738   7.946   0.539   3.189 -0.6695  0.8775 -0.1067
  273MOL0     C36739   7.980   0.652   3.123 -0.9802  0.0609 -0.0002
  273MOL0     C36740   7.923   0.721   3.002  0.4680  0.9698 -0.3480
  273MOL0     C36741   7.794   0.802   3.033 -0.8415 -1.3448 -1.0640
  273MOL0     C36742   7.677   0.724   3.099  0.2366 -0.1479 -0.2481
  273MOL0     C36743   7.703   0.712   3.244 -0.2207 -0.3139  0.0238
  273MOL0     O36744   7.666   0.581   3.298  0.1768 -0.8409  0.0971
  273MOL0     C36745   7.620   0.579   3.433  0.5449 -0.7323  0.1203
  273MOL0     C36746   7.602   0.455   3.490  0.4720  0.0501  0.5300
  273MOL0     C36747   7.566   0.438   3.629  0.1837  0.0615  0.3262
  273MOL0     C36748   7.558   0.298   3.683 -0.4650 -0.2596  0.8612
  273MOL0     C36749   7.525   0.560   3.704  0.2021  0.1594  0.3657
  273MOL0     C36750   7.482   0.555   3.852  0.7090  0.5802  0.2767
  273MOL0     O36751   7.385   0.641   3.899 -0.2660  0.4178 -0.1619
  273MOL0     C36752   7.341   0.625   4.021  0.5442 -0.6834 -0.8746
  273MOL0     C36753   7.425   0.631   4.130  0.6102 -0.4685  0.4334
  273MOL0     C36754   7.369   0.633   4.258 -0.7741  1.1289 -0.6692
  273MOL0     C36755   7.237   0.616   4.284  0.4909 -0.0962 -0.4409
  273MOL0     O36756   7.184   0.608   4.409  0.3958  0.5209 -0.2224
  273MOL0     C36757   7.054   0.673   4.434  0.7614  0.3289 -0.3956
  273MOL0     C36758   7.051   0.827   4.411  0.1542  1.0499 -0.2366
  273MOL0     C36759   6.906   0.885   4.433  0.0598  0.0321 -0.6286
  273MOL0     C36760   6.803   0.843   4.317 -0.7659  1.1832 -0.1635
  273MOL0     C36761   6.677   0.930   4.302 -0.2155 -0.0517  0.0300
  273MOL0     C36762   6.600   0.973   4.429 -0.8213 -0.1232  0.0690
  273MOL0     C36763   6.503   1.089   4.400 -0.0445  0.5497  0.2547
  273MOL0     C36764   6.424   1.145   4.525  0.1083  0.6507  0.3857
  273MOL0    Cl36765   6.449   1.321   4.545  0.0016  0.1256  0.0875
  273MOL0     C36766   7.154   0.590   4.175  1.1600 -0.2100  0.2139
  273MOL0     C36767   7.207   0.606   4.044  0.2402 -0.3799 -0.3341
  273MOL0     O36768   7.552   0.481   3.921  0.8766 -0.6049 -0.6732
  273MOL0     C36769   7.533   0.678   3.637  0.6370  0.2768  0.5860
  273MOL0     C36770   7.573   0.698   3.510  0.8321  0.0670  0.3175
  273MOL0     N36771   8.075   0.720   3.191 -0.2497  0.1281  0.4452
  273MOL0     N36772   8.103   0.646   3.290 -0.2241  0.1620 -0.3187
  273MOL0     C36773   8.606  -0.053   4.118 -0.3532  0.6924  0.3862
  273MOL0     C36774   8.603  -0.098   4.255 -0.3313  0.1669  0.5321
  273MOL0     C36775   8.521  -0.047   4.726 -0.3500 -0.4441  0.4077
  273MOL0     C36776   8.575   0.013   4.844 -0.6750  0.0523 -0.2475
  273MOL0     C36777   8.523  -0.015   4.971  0.3789 -0.2827  0.2648
  273MOL0     C36778   8.429  -0.110   4.986 -0.6393 -0.0223 -0.3646
  273MOL0     O36779   8.385  -0.121   5.113  0.0670  0.4130  0.0364
  273MOL0     C36780   8.458  -0.204   5.205 -0.1188 -0.0396 -0.2762
  273MOL0     C36781   8.558  -0.116   5.283  0.3157 -1.0914  0.9131
  273MOL0     C36782   8.601  -0.179   5.416 -0.2494 -0.4059  0.3102
  273MOL0     C36783   8.694  -0.090   5.494  0.3093  0.7868  0.5169
  273MOL0     C36784   8.636   0.033   5.547  0.1818  0.5224  0.1549
  273MOL0     C36785   8.583   0.136   5.591 -0.9571  0.2930  0.6743
  273MOL0     C36786   8.389  -0.195   4.876 -0.2511  0.3253  0.4912
  273MOL0     C36787   8.423  -0.147   4.746  0.6584  0.2987  0.0182
  273MOL0     H36788   8.507   0.196   4.401 -1.2470  1.0682 -1.5307
  273MOL0     H36789   8.476   0.261   4.172 -0.1208  0.7624  3.2885
  273MOL0     H36790   8.399   0.237   3.942 -0.9667 -3.2753  3.4526
  273MOL0     H36791   8.470   0.191   3.786 -0.9233 -0.1941  0.1721
  273MOL0     H36792   8.387  -0.044   3.878  0.6844  0.1403 -1.4650
  273MOL0     H36793   8.290   0.058   3.983  1.2958 -3.6961  1.3642
  273MOL0     H36794   8.283   0.056   3.660 -0.5626  1.4988 -0.9163
  273MOL0     H36795   8.176  -0.014   3.771  2.1035 -1.5554 -1.2863
  273MOL0     H36796   8.095   0.214   3.844 -1.3560 -3.0254 -1.2311
  273MOL0     H36797   8.221   0.296   3.777 -3.0087  1.4872 -1.5199
  273MOL0     H36798   8.179   0.187   3.537 -0.6059 -1.4088 -0.4369
  273MOL0     H36799   8.048   0.112   3.600  2.1336 -0.9807  3.8224
  273MOL0     H36800   7.914   0.317   3.661 -0.0503  1.1025  0.6634
  273MOL0     H36801   8.055   0.425   3.631  0.9992 -2.8785  3.5445
  273MOL0     H36802   7.892   0.272   3.409  0.0799  0.4652  0.2562
  273MOL0     H36803   7.862   0.432   3.457 -0.6508 -0.4498 -1.7615
  273MOL0     H36804   8.094   0.341   3.311  3.5535 -1.2420  3.3586
  273MOL0     H36805   8.144   0.452   3.434 -1.3798  2.1393  0.0046
  273MOL0     H36806   7.865   0.480   3.147  0.3193 -0.5268 -0.1286
  273MOL0     H36807   7.997   0.775   2.943 -0.8213  0.3387 -2.6481
  273MOL0     H36808   7.882   0.641   2.939 -3.4826  0.6883  2.2414
  273MOL0     H36809   7.760   0.851   2.941  0.5419 -1.5770 -1.7284
  273MOL0     H36810   7.833   0.886   3.091 -4.2398 -1.2072  1.3065
  273MOL0     H36811   7.652   0.630   3.048 -3.6060  0.4988  0.1762
  273MOL0     H36812   7.586   0.783   3.091  1.0457  0.8156 -4.2785
  273MOL0     H36813   7.634   0.785   3.288 -2.1897 -2.0092 -0.0848
  273MOL0     H36814   7.809   0.735   3.259 -0.0451  0.8656 -2.4311
  273MOL0     H36815   7.643   0.377   3.427  0.4831 -0.5024  1.2107
  273MOL0     H36816   7.547   0.233   3.595 -0.8719 -0.2964  0.9366
  273MOL0     H36817   7.655   0.270   3.725  1.7104  0.8409 -2.9041
  273MOL0     H36818   7.472   0.287   3.750 -0.0242 -6.0621  1.0146
  273MOL0     H36819   7.523   0.678   4.125 -0.0469  0.9607  0.6907
  273MOL0     H36820   7.426   0.657   4.348 -1.2816 -2.0281  0.5963
  273MOL0     H36821   6.984   0.627   4.363  1.6145 -1.6099 -0.0395
  273MOL0     H36822   7.036   0.643   4.537  2.1106 -1.7871 -0.7365
  273MOL0     H36823   7.108   0.871   4.493  0.3331 -0.0773  0.2585
  273MOL0     H36824   7.103   0.856   4.319  2.0644 -2.3647 -0.3808
  273MOL0     H36825   6.925   0.992   4.443  4.8014 -0.7184  0.6780
  273MOL0     H36826   6.863   0.867   4.533  0.7529  3.6318  0.4657
  273MOL0     H36827   6.857   0.845   4.222  3.0201 -1.3785  1.6720
  273MOL0     H36828   6.773   0.738   4.330  2.0948  0.2535 -0.2482
  273MOL0     H36829   6.609   0.872   4.240  2.4458 -1.2789 -1.9186
  273MOL0     H36830   6.706   1.021   4.248 -2.2965 -1.5806 -4.1231
  273MOL0     H36831   6.548   0.887   4.472  2.4925 -2.4721 -0.2832
  273MOL0     H36832   6.669   1.014   4.503  1.7948 -1.8407 -1.2664
  273MOL0     H36833   6.421   1.058   4.334 -0.7832  1.3328  0.7785
  273MOL0     H36834   6.554   1.169   4.346 -0.1721  1.1766  1.0451
  273MOL0     H36835   6.460   1.098   4.617 -2.1136 -0.4484  0.7527
  273MOL0     H36836   6.318   1.121   4.513  0.5485 -0.3848 -2.4293
  273MOL0     H36837   7.050   0.560   4.181  1.6521 -1.9984  0.3129
  273MOL0     H36838   7.136   0.588   3.965  1.1330 -3.0535 -0.6264
  273MOL0     H36839   7.501   0.771   3.683  0.4678  1.1842 -1.2700
  273MOL0     H36840   7.568   0.798   3.469  0.5508  0.0411  0.2836
  273MOL0     H36841   8.650  -0.106   4.034  0.5188  0.6971  0.8242
  273MOL0     H36842   8.632  -0.197   4.288  0.9111  0.0371 -0.8488
  273MOL0     H36843   8.650   0.091   4.838 -0.6145 -0.0886 -1.4907
  273MOL0     H36844   8.544   0.048   5.057 -2.8023  2.5047 -0.7839
  273MOL0     H36845   8.381  -0.242   5.273 -0.0191  0.7475  0.2823
  273MOL0     H36846   8.499  -0.293   5.156  2.1563  0.9131 -0.2074
  273MOL0     H36847   8.512  -0.019   5.306 -3.4199 -2.2237 -0.9205
  273MOL0     H36848   8.644  -0.109   5.216 -2.2800 -3.1823 -3.0527
  273MOL0     H36849   8.667  -0.260   5.382 -1.9718 -0.9258 -2.0395
  273MOL0     H36850   8.515  -0.220   5.472 -0.7277  1.0920  0.7295
  273MOL0     H36851   8.771  -0.056   5.424 -0.5222  1.8306  0.0709
  273MOL0     H36852   8.745  -0.153   5.568  1.3563  2.3134  1.1399
  273MOL0     H36853   8.565   0.235   5.630  0.1890  1.7257 -2.1177
  273MOL0     H36854   8.317  -0.275   4.889 -2.5434  2.1065 -0.4942
  273MOL0     H36855   8.372  -0.204   4.669  0.6982 -1.7078  1.4257
  274MOL0     O36856   0.723   6.346   1.628  0.4808  0.3445  0.6580
  274MOL0     C36857   0.649   6.270   1.569  0.3363  0.9875  1.4217
  274MOL0     O36858   0.521   6.232   1.609 -0.9117  0.0961 -0.2233
  274MOL0     C36859   0.471   6.278   1.730 -0.2833 -0.3223 -0.1069
  274MOL0     C36860   0.546   6.284   1.852 -0.0716 -0.6316 -0.3824
  274MOL0     C36861   0.473   6.320   1.977 -0.5890  0.4061 -0.4706
  274MOL0     C36862   0.333   6.337   1.977 -1.2650  0.2218 -0.8711
  274MOL0     O36863   0.263   6.372   2.092 -0.6475 -0.0362 -0.3035
  274MOL0     C36864   0.155   6.468   2.075  0.2901  0.3538 -1.0748
  274MOL0     C36865   0.048   6.445   2.178  0.3283 -0.7814  0.7493
  274MOL0     C36866   0.080   6.498   2.325 -0.3945  0.0733  0.3620
  274MOL0     C36867  -0.054   6.528   2.393 -0.9919 -0.2397  0.3948
  274MOL0     C36868  -0.037   6.572   2.534  0.2328  0.2942  0.4446
  274MOL0     C36869   0.043   6.474   2.625 -0.1029  0.3061 -0.6044
  274MOL0     C36870  -0.021   6.344   2.623 -0.3393 -0.1017  0.6336
  274MOL0     C36871   0.045   6.254   2.727  0.4536  0.0066 -0.2878
  274MOL0     N36872  -0.045   6.150   2.773 -0.1761 -0.0660 -1.1275
  274MOL0     C36873  -0.078   6.027   2.707 -0.4148  0.2611  0.5157
  274MOL0     C36874  -0.150   5.956   2.794 -0.3308 -0.3997 -0.3129
  274MOL0     C36875  -0.217   5.828   2.757  0.1438  0.2012 -0.0572
  274MOL0     C36876  -0.223   5.709   2.858  0.2623  0.5554 -0.5912
  274MOL0     C36877  -0.341   5.720   2.954 -0.2068 -0.2660 -0.7483
  274MOL0     C36878  -0.332   5.675   3.101 -1.3194  0.2109 -0.6975
  274MOL0     O36879  -0.275   5.789   3.178 -0.9681  0.0207 -0.6334
  274MOL0     C36880  -0.222   5.752   3.299 -0.6626 -0.0068 -0.7063
  274MOL0     C36881  -0.116   5.829   3.349  0.3101  0.2987 -0.3317
  274MOL0     C36882  -0.053   5.793   3.472  0.2500 -0.2132 -0.1851
  274MOL0     C36883   0.055   5.888   3.528  0.1220  0.1406  0.0945
  274MOL0     C36884  -0.092   5.684   3.543 -0.2674  0.3180 -0.4297
  274MOL0     C36885  -0.034   5.647   3.669 -0.7371  0.3123 -0.6490
  274MOL0     O36886  -0.000   5.510   3.695  0.3793 -0.4825 -0.0020
  274MOL0     C36887   0.072   5.487   3.807 -0.2683 -0.5351  0.1099
  274MOL0     C36888   0.013   5.447   3.922 -0.0492 -0.5032 -0.1017
  274MOL0     C36889   0.082   5.450   4.040 -1.1368 -0.9820 -1.6231
  274MOL0     C36890   0.226   5.455   4.048 -0.6666  0.8934  0.1896
  274MOL0     O36891   0.290   5.431   4.170  0.3303 -0.0337  0.5132
  274MOL0     C36892   0.435   5.382   4.166 -0.1513  0.6682  0.4517
  274MOL0     C36893   0.529   5.502   4.164 -0.0062  0.4486  0.2892
  274MOL0     C36894   0.510   5.611   4.275 -0.6490  0.0641  0.2834
  274MOL0     C36895   0.497   5.545   4.418 -0.7844 -0.4838 -0.0631
  274MOL0     C36896   0.486   5.666   4.519  0.3197  0.5108 -0.2340
  274MOL0     C36897   0.470   5.642   4.673  0.4477 -0.3035  0.6531
  274MOL0     C36898   0.549   5.532   4.727  0.2641  0.1856  0.3110
  274MOL0     C36899   0.471   5.397   4.717  0.2410  0.0589 -0.4828
  274MOL0    Cl36900   0.353   5.387   4.861  0.1278 -0.0611 -0.1043
  274MOL0     C36901   0.287   5.462   3.927 -0.1149 -0.4806  0.8008
  274MOL0     C36902   0.209   5.488   3.810 -0.1467 -0.3637 -0.4465
  274MOL0     O36903  -0.032   5.735   3.758  0.6152 -0.1899 -0.1534
  274MOL0     C36904  -0.193   5.598   3.489 -0.7358  0.0045  0.2870
  274MOL0     C36905  -0.260   5.638   3.372 -0.9263 -0.1256 -0.3312
  274MOL0     N36906  -0.169   6.034   2.904  0.1352  0.8660  0.0959
  274MOL0     N36907  -0.104   6.144   2.891 -0.0649 -0.4281  0.0566
  274MOL0     C36908   0.273   6.319   1.852  0.1260 -0.4258 -0.3871
  274MOL0     C36909   0.332   6.283   1.731 -0.6932  0.1595  1.1411
  274MOL0     C36910   0.683   6.225   1.428  0.3350  0.1206  0.8102
  274MOL0     C36911   0.636   6.104   1.368 -0.9826  0.3179 -0.1413
  274MOL0     C36912   0.708   6.046   1.257  0.3713  0.0943  0.1834
  274MOL0     C36913   0.825   6.103   1.208 -0.1963 -0.9924 -0.2787
  274MOL0     O36914   0.883   6.033   1.110 -0.4996 -0.6147 -0.2708
  274MOL0     C36915   1.014   6.061   1.070 -0.3373  0.9830  0.1146
  274MOL0     C36916   1.080   5.948   0.995  0.3403  0.4195 -0.3587
  274MOL0     C36917   1.047   5.940   0.846 -0.1018  0.5829 -0.2303
  274MOL0     C36918   1.126   6.036   0.762  0.3219  0.6170  0.5315
  274MOL0     C36919   1.269   5.998   0.750 -0.7090  0.2798 -0.3952
  274MOL0     C36920   1.386   5.960   0.751 -0.0390  0.1971 -0.9601
  274MOL0     C36921   0.867   6.222   1.268 -1.1403 -0.2848  0.6010
  274MOL0     C36922   0.797   6.288   1.364 -0.1866  0.3176 -0.1201
  274MOL0     H36923   0.648   6.249   1.842 -0.6830 -2.9129  0.6811
  274MOL0     H36924   0.531   6.315   2.069 -0.1441  2.8459 -0.5324
  274MOL0     H36925   0.186   6.573   2.080 -1.4107  1.1958 -4.7228
  274MOL0     H36926   0.101   6.457   1.981 -3.2172 -0.6826  0.8578
  274MOL0     H36927  -0.033   6.508   2.142  0.9487  0.3456  1.2718
  274MOL0     H36928   0.023   6.338   2.172 -0.5622 -0.4839 -1.5733
  274MOL0     H36929   0.140   6.434   2.391 -1.2730 -1.9265 -0.7011
  274MOL0     H36930   0.130   6.595   2.322 -1.8517  0.8570 -3.1220
  274MOL0     H36931  -0.095   6.619   2.350 -1.4038  0.0094  1.2944
  274MOL0     H36932  -0.132   6.452   2.398  0.5008 -1.7805  2.3904
  274MOL0     H36933   0.013   6.669   2.544 -2.7848  1.9340  0.8181
  274MOL0     H36934  -0.136   6.589   2.579  0.8747 -1.1873  2.5785
  274MOL0     H36935   0.143   6.455   2.586  0.2122  1.3763 -0.3519
  274MOL0     H36936   0.039   6.511   2.728 -1.2036 -0.7306 -0.2557
  274MOL0     H36937  -0.127   6.347   2.648 -0.7108 -1.4685 -0.6337
  274MOL0     H36938  -0.011   6.297   2.524 -1.9425 -0.9868  0.8521
  274MOL0     H36939   0.073   6.307   2.819  0.7606 -1.6554  0.6135
  274MOL0     H36940   0.138   6.216   2.685 -1.3789 -1.7353 -3.1966
  274MOL0     H36941  -0.072   5.995   2.604  1.6388  1.1328  0.3141
  274MOL0     H36942  -0.319   5.856   2.729  0.0776  2.0594  1.8033
  274MOL0     H36943  -0.157   5.781   2.678 -1.7886 -0.1202 -1.4258
  274MOL0     H36944  -0.128   5.704   2.911  0.5170  0.0582 -1.0931
  274MOL0     H36945  -0.249   5.610   2.819 -2.5499  0.4665  1.2259
  274MOL0     H36946  -0.421   5.671   2.897  1.7858 -0.0720 -3.9266
  274MOL0     H36947  -0.374   5.825   2.957 -0.0875 -0.2458  0.2751
  274MOL0     H36948  -0.263   5.592   3.121 -0.2416  1.7811  3.0649
  274MOL0     H36949  -0.437   5.655   3.127 -0.8720  0.9139  1.9330
  274MOL0     H36950  -0.082   5.925   3.310  0.9778  0.2493  0.1058
  274MOL0     H36951   0.053   5.982   3.472  0.8320 -0.0378 -0.2391
  274MOL0     H36952   0.009   5.916   3.624 -0.2688 -1.2483  0.3307
  274MOL0     H36953   0.153   5.841   3.542 -0.2126  0.0243  2.3886
  274MOL0     H36954  -0.095   5.433   3.927 -0.2909  1.6099  2.6138
  274MOL0     H36955   0.028   5.435   4.133  1.6118 -1.2581  0.0599
  274MOL0     H36956   0.467   5.325   4.254  0.6737  0.7673  0.2237
  274MOL0     H36957   0.460   5.308   4.089 -0.6072  0.6927  0.2766
  274MOL0     H36958   0.631   5.464   4.161 -0.5628 -1.0652 -0.7455
  274MOL0     H36959   0.517   5.558   4.070  0.7280 -1.1203 -0.7884
  274MOL0     H36960   0.425   5.673   4.246 -1.1833 -0.4579  0.6915
  274MOL0     H36961   0.593   5.681   4.281 -2.0750  1.9358 -0.7443
  274MOL0     H36962   0.413   5.475   4.422  0.6601 -2.5517 -2.7255
  274MOL0     H36963   0.588   5.488   4.435  2.6299  3.3498 -3.2594
  274MOL0     H36964   0.403   5.727   4.482 -0.8047  0.3927  1.9473
  274MOL0     H36965   0.577   5.723   4.498  0.8724 -0.9624 -2.2238
  274MOL0     H36966   0.483   5.740   4.721  1.9036  1.3780 -2.8555
  274MOL0     H36967   0.366   5.615   4.697  0.0748  1.3172  0.9614
  274MOL0     H36968   0.586   5.556   4.827  0.6525  0.3355  0.1331
  274MOL0     H36969   0.638   5.522   4.665  0.2488  1.4249  0.0590
  274MOL0     H36970   0.548   5.320   4.730  2.6670  1.9429 -2.5615
  274MOL0     H36971   0.423   5.381   4.621  1.0170 -3.4284 -0.4361
  274MOL0     H36972   0.394   5.458   3.911 -0.3762 -0.4089 -1.2042
  274MOL0     H36973   0.241   5.515   3.710 -2.2041 -0.6957 -1.2540
  274MOL0     H36974  -0.215   5.497   3.522 -3.3547 -0.2831 -1.9173
  274MOL0     H36975  -0.333   5.569   3.329 -1.3147 -0.6823  1.1642
  274MOL0     H36976   0.167   6.336   1.838  0.4326  2.8764  0.4221
  274MOL0     H36977   0.272   6.276   1.640 -0.3460  3.8805  0.4620
  274MOL0     H36978   0.556   6.041   1.404  0.6411 -1.3712  0.6803
  274MOL0     H36979   0.660   5.958   1.214 -0.3542 -0.7609  2.6216
  274MOL0     H36980   1.028   6.154   1.015  1.1715  0.5647 -0.2496
  274MOL0     H36981   1.080   6.068   1.157 -0.8851 -2.0687  0.8811
  274MOL0     H36982   1.065   5.860   1.057  0.7079  1.0704  0.6824
  274MOL0     H36983   1.188   5.961   0.999  0.7392 -0.9448 -3.6300
  274MOL0     H36984   0.938   5.940   0.839 -0.1669  0.1034  0.5627
  274MOL0     H36985   1.077   5.839   0.816  1.0438  0.3915  1.3763
  274MOL0     H36986   1.127   6.139   0.801 -4.0383 -0.1992  3.5493
  274MOL0     H36987   1.082   6.049   0.663  2.3528 -0.7406 -0.6041
  274MOL0     H36988   1.482   5.916   0.765 -0.4335 -0.3325  0.1961
  274MOL0     H36989   0.963   6.267   1.241  0.5552 -3.2821  1.2700
  274MOL0     H36990   0.841   6.370   1.420  1.5276  1.5167 -3.0042
  275MOL0     O36991   3.053   2.014  11.200  0.1671  0.0709 -0.4163
  275MOL0     C36992   3.024   1.898  11.234  0.0551  0.6843  0.7060
  275MOL0     O36993   2.908   1.835  11.205  0.8004 -0.2487 -0.0303
  275MOL0     C36994   2.824   1.902  11.118 -0.0740 -1.1059 -0.6156
  275MOL0     C36995   2.694   1.934  11.165  0.0613  0.7558 -0.3490
  275MOL0     C36996   2.601   1.985  11.078 -0.5626 -0.1257 -0.9990
  275MOL0     C36997   2.625   2.029  10.944 -0.6528  0.6150 -0.3960
  275MOL0     O36998   2.554   2.119  10.873  0.5720 -0.5502  0.1944
  275MOL0     C36999   2.592   2.258  10.884  0.1349 -1.1756  0.0190
  275MOL0     C37000   2.481   2.356  10.852 -0.6822 -0.3510  0.4213
  275MOL0     C37001   2.523   2.505  10.889 -0.1835  0.3198  0.4652
  275MOL0     C37002   2.631   2.569  10.798 -0.5906 -0.0356 -0.9771
  275MOL0     C37003   2.764   2.610  10.880  0.2240  0.6019 -0.7260
  275MOL0     C37004   2.852   2.701  10.800  0.5662  0.1590  1.2119
  275MOL0     C37005   2.952   2.755  10.908  0.0025 -0.5439  0.1059
  275MOL0     C37006   3.049   2.874  10.863 -0.1249  0.1996  0.2810
  275MOL0     N37007   3.115   2.842  10.735 -0.5071 -0.2527 -1.0459
  275MOL0     C37008   3.211   2.747  10.723 -0.4257 -0.8291 -0.7251
  275MOL0     C37009   3.249   2.759  10.592  0.2725  0.4780  0.0786
  275MOL0     C37010   3.356   2.664  10.541 -0.8399  0.7288  0.8063
  275MOL0     C37011   3.292   2.533  10.492  0.4182  0.1223  0.4264
  275MOL0     C37012   3.384   2.416  10.479  0.0054  0.4296 -1.1247
  275MOL0     C37013   3.444   2.372  10.612  0.9853  0.1804 -0.6540
  275MOL0     O37014   3.571   2.445  10.627  0.2614  0.2072  0.8779
  275MOL0     C37015   3.686   2.409  10.568  0.0462 -0.2120 -0.1638
  275MOL0     C37016   3.699   2.305  10.484  0.4547 -0.0220  0.2680
  275MOL0     C37017   3.814   2.281  10.417 -1.1858 -0.6702 -0.2424
  275MOL0     C37018   3.807   2.173  10.312 -0.0978 -0.4953 -0.2263
  275MOL0     C37019   3.922   2.373  10.425  0.9045  0.3311  0.4707
  275MOL0     C37020   4.048   2.351  10.362  1.1023 -0.9109  1.1727
  275MOL0     O37021   4.110   2.462  10.308  0.8130 -0.5708  0.6889
  275MOL0     C37022   4.227   2.430  10.232 -0.1536 -0.7707 -0.7901
  275MOL0     C37023   4.232   2.422  10.090 -0.9503 -0.2420 -1.4476
  275MOL0     C37024   4.349   2.393  10.029 -0.0716 -0.3581  0.0384
  275MOL0     C37025   4.475   2.382  10.106 -0.6610  0.5064  0.9173
  275MOL0     O37026   4.603   2.346  10.055 -0.0626  0.7270  0.5563
  275MOL0     C37027   4.620   2.327   9.912  1.1945 -0.6283 -0.3042
  275MOL0     C37028   4.771   2.332   9.871  1.7372 -0.3989 -0.0306
  275MOL0     C37029   4.812   2.473   9.854 -0.4401  0.0028 -0.0632
  275MOL0     C37030   4.757   2.547   9.726  0.1934  0.0588 -0.4094
  275MOL0     C37031   4.790   2.694   9.735 -0.7109  0.6170 -0.0556
  275MOL0     C37032   4.693   2.799   9.658  1.0870  0.3111  0.0129
  275MOL0     C37033   4.697   2.787   9.509 -0.4342 -0.2170  0.5990
  275MOL0     C37034   4.626   2.915   9.445  0.3192  0.2822  0.1613
  275MOL0    Cl37035   4.726   3.065   9.461 -0.0575 -0.1934 -0.0475
  275MOL0     C37036   4.467   2.401  10.241  0.2776 -0.2117 -0.6448
  275MOL0     C37037   4.347   2.415  10.310 -0.4307  0.8150  0.2630
  275MOL0     O37038   4.101   2.237  10.376 -0.1346  0.0316  0.1966
  275MOL0     C37039   3.904   2.482  10.506  0.4889 -0.4920  0.3004
  275MOL0     C37040   3.786   2.500  10.582 -0.0885  0.0110 -0.2890
  275MOL0     N37041   3.180   2.860  10.528 -0.1671  0.4569  0.1266
  275MOL0     N37042   3.091   2.899  10.612 -0.2401 -0.7179  0.0460
  275MOL0     C37043   2.755   2.004  10.902 -0.1789  0.6239  0.5212
  275MOL0     C37044   2.851   1.943  10.987  0.4550 -0.0375  0.0338
  275MOL0     C37045   3.127   1.815  11.300  0.7210  0.1494  0.3134
  275MOL0     C37046   3.254   1.861  11.326 -1.0303 -0.2331 -0.3299
  275MOL0     C37047   3.354   1.799  11.397  0.4039  1.0884 -0.7014
  275MOL0     C37048   3.323   1.673  11.461 -0.4067 -0.3342 -0.0935
  275MOL0     O37049   3.408   1.596  11.526  0.4618 -0.5544 -0.4861
  275MOL0     C37050   3.499   1.663  11.607 -0.0629  1.1866  0.9532
  275MOL0     C37051   3.431   1.725  11.727 -0.2570  0.3283  0.2632
  275MOL0     C37052   3.527   1.797  11.820  0.7261  1.1705  0.8327
  275MOL0     C37053   3.461   1.887  11.924  0.1245  0.5114  0.0103
  275MOL0     C37054   3.424   2.016  11.864  0.5409  0.0598 -0.0530
  275MOL0     C37055   3.395   2.125  11.823 -1.2358  1.1269 -0.8702
  275MOL0     C37056   3.200   1.619  11.436 -0.5001 -1.1807  0.0374
  275MOL0     C37057   3.095   1.688  11.362 -0.6810  0.0650  0.4291
  275MOL0     H37058   2.654   1.916  11.265  0.0174  0.7493 -0.3668
  275MOL0     H37059   2.506   1.991  11.130  0.3925 -1.8387  1.1145
  275MOL0     H37060   2.623   2.266  10.989 -2.7130 -0.9335  0.9024
  275MOL0     H37061   2.682   2.283  10.826  0.3194  2.2961  1.5814
  275MOL0     H37062   2.451   2.357  10.747 -1.9626  1.3542  0.7451
  275MOL0     H37063   2.391   2.326  10.906 -1.3559 -0.3074 -0.6445
  275MOL0     H37064   2.432   2.564  10.884 -0.3470 -0.0050 -0.7431
  275MOL0     H37065   2.557   2.512  10.993  0.4816 -1.2896  0.3889
  275MOL0     H37066   2.667   2.494  10.727 -0.8554 -0.2157 -0.9203
  275MOL0     H37067   2.591   2.663  10.759  0.2997  0.6002 -0.3876
  275MOL0     H37068   2.742   2.655  10.977 -1.8060  1.3877 -1.4889
  275MOL0     H37069   2.814   2.517  10.908  0.2847  0.8518  0.0376
  275MOL0     H37070   2.902   2.636  10.727 -3.2961 -0.2541 -1.3479
  275MOL0     H37071   2.806   2.785  10.748  3.4123  0.0530 -1.8156
  275MOL0     H37072   2.898   2.787  10.998  3.5407  3.8610  1.0343
  275MOL0     H37073   3.017   2.674  10.941  0.9822 -0.3591 -1.2809
  275MOL0     H37074   3.119   2.901  10.942  0.9731  0.9395 -0.8954
  275MOL0     H37075   2.997   2.967  10.835 -1.2630 -0.4409  0.2196
  275MOL0     H37076   3.263   2.683  10.794  0.7824  2.3233  1.4579
  275MOL0     H37077   3.419   2.717  10.469  0.2812 -1.8538 -0.2573
  275MOL0     H37078   3.418   2.652  10.630  1.2224  0.7483 -0.5694
  275MOL0     H37079   3.263   2.549  10.388  3.9298  0.3158 -0.6480
  275MOL0     H37080   3.197   2.512  10.543  1.3499 -0.3969  1.9975
  275MOL0     H37081   3.466   2.429  10.408  0.8949 -0.7138 -0.3668
  275MOL0     H37082   3.322   2.337  10.435 -2.0371  0.7315  0.9995
  275MOL0     H37083   3.450   2.264  10.592 -2.7623 -0.2335 -0.1787
  275MOL0     H37084   3.375   2.387  10.695 -0.3906 -2.2076 -1.2636
  275MOL0     H37085   3.620   2.236  10.458  1.2596 -1.3518  1.2295
  275MOL0     H37086   3.901   2.116  10.306  0.3891  0.3598 -1.0002
  275MOL0     H37087   3.720   2.108  10.324  0.8817 -2.3115 -2.2793
  275MOL0     H37088   3.803   2.221  10.214  0.7212  4.7554  1.9668
  275MOL0     H37089   4.140   2.439  10.036  0.0504  3.4732 -2.2634
  275MOL0     H37090   4.352   2.373   9.923  0.1757  1.6396 -0.3599
  275MOL0     H37091   4.591   2.226   9.881  0.8386 -1.4663  2.4988
  275MOL0     H37092   4.545   2.393   9.867 -3.3572 -2.7532  3.2278
  275MOL0     H37093   4.824   2.291   9.958 -0.2506 -1.9408  0.5122
  275MOL0     H37094   4.793   2.281   9.776 -0.1653  0.5160 -1.0036
  275MOL0     H37095   4.920   2.487   9.847 -0.4546  0.7075  0.7763
  275MOL0     H37096   4.786   2.517   9.951  0.7317 -1.2505  0.8617
  275MOL0     H37097   4.780   2.502   9.630 -0.2395  1.4972 -1.2194
  275MOL0     H37098   4.648   2.544   9.732 -0.1586  3.4426 -2.6339
  275MOL0     H37099   4.891   2.694   9.694 -1.2859  0.5433 -1.5804
  275MOL0     H37100   4.798   2.736   9.835  2.6867  0.1474 -0.0151
  275MOL0     H37101   4.588   2.784   9.687  0.2858  1.5236 -2.0529
  275MOL0     H37102   4.721   2.899   9.691 -2.5252  0.8346  2.1375
  275MOL0     H37103   4.636   2.697   9.495  1.0041 -1.3362  1.2075
  275MOL0     H37104   4.798   2.764   9.474 -0.6158  3.0186 -2.7185
  275MOL0     H37105   4.532   2.932   9.497 -0.3138 -0.1327 -0.8237
  275MOL0     H37106   4.596   2.904   9.340 -0.8220  0.5615  0.4514
  275MOL0     H37107   4.555   2.394  10.304  1.0895  3.4448 -1.1149
  275MOL0     H37108   4.348   2.412  10.419  1.2961 -0.9160  0.2537
  275MOL0     H37109   3.973   2.566  10.511 -2.6521  2.3947 -0.8029
  275MOL0     H37110   3.783   2.584  10.651  0.7931 -0.3079  0.1451
  275MOL0     H37111   2.777   2.035  10.801 -2.2882  0.5000 -0.0253
  275MOL0     H37112   2.945   1.906  10.947 -0.9405  0.0145 -3.6677
  275MOL0     H37113   3.270   1.960  11.283 -0.8536 -1.3255 -2.9915
  275MOL0     H37114   3.455   1.839  11.405  0.9015 -0.1696 -0.4963
  275MOL0     H37115   3.572   1.589  11.640 -0.4848  0.0086 -0.6082
  275MOL0     H37116   3.560   1.739  11.557  0.1385  1.3961  1.5186
  275MOL0     H37117   3.377   1.644  11.777  0.0052 -0.9270 -1.3764
  275MOL0     H37118   3.356   1.798  11.697  0.8622  0.0785 -3.6507
  275MOL0     H37119   3.590   1.857  11.753 -0.8747  3.1138  0.9610
  275MOL0     H37120   3.581   1.718  11.872 -1.1625 -1.1427 -0.5533
  275MOL0     H37121   3.532   1.915  12.002  0.8166  1.7110 -1.0127
  275MOL0     H37122   3.378   1.837  11.975  0.9227 -0.9745 -0.1014
  275MOL0     H37123   3.383   2.225  11.785 -0.5033  1.1510 -1.0423
  275MOL0     H37124   3.184   1.520  11.475  2.7894 -1.8566 -0.0083
  275MOL0     H37125   2.997   1.645  11.344  0.6435 -2.6994 -0.8106
  276MOL0     O37126   9.536   9.376  11.289  0.5144  0.5348  0.7811
  276MOL0     C37127   9.609   9.374  11.388 -0.5358  0.1126 -0.4239
  276MOL0     O37128   9.605   9.454  11.495 -0.0720  0.2621  0.4300
  276MOL0     C37129   9.518   9.560  11.507 -0.1726 -0.1017  0.8378
  276MOL0     C37130   9.484   9.599  11.631  0.4286  0.4387  1.3408
  276MOL0     C37131   9.418   9.717  11.656  0.9614  0.1078 -0.3656
  276MOL0     C37132   9.382   9.807  11.561  1.0286 -0.1576  0.0502
  276MOL0     O37133   9.309   9.919  11.607  0.0625  0.2432  0.8979
  276MOL0     C37134   9.301  10.027  11.519  0.7649 -0.6410  0.0994
  276MOL0     C37135   9.260  10.149  11.610  0.3542  0.1718 -0.1230
  276MOL0     C37136   9.188  10.267  11.544 -0.2883 -0.5752  0.8773
  276MOL0     C37137   9.250  10.313  11.407  0.9114 -0.1516 -0.1344
  276MOL0     C37138   9.181  10.433  11.346  0.1414 -0.3472  0.4913
  276MOL0     C37139   9.024  10.418  11.317 -0.0778  0.1133  0.0825
  276MOL0     C37140   8.981  10.520  11.218 -0.7018 -0.0451  0.6414
  276MOL0     C37141   8.837  10.474  11.184  0.6023  0.0254 -0.7307
  276MOL0     N37142   8.776  10.581  11.096 -0.2065 -0.3413 -0.2108
  276MOL0     C37143   8.654  10.633  11.121 -0.7166  0.9147  0.2649
  276MOL0     C37144   8.629  10.706  11.011  0.7778 -0.6887 -0.1072
  276MOL0     C37145   8.488  10.764  10.995  0.1291  0.1803 -0.7782
  276MOL0     C37146   8.391  10.644  10.975  0.5727  0.4403 -0.2974
  276MOL0     C37147   8.245  10.692  10.950  1.0966 -1.0909  0.2337
  276MOL0     C37148   8.169  10.694  11.091  0.4554 -0.2906 -0.0506
  276MOL0     O37149   8.140  10.552  11.133  0.3266 -0.0311  0.2052
  276MOL0     C37150   8.023  10.497  11.079  0.0578 -0.3769 -0.3823
  276MOL0     C37151   8.038  10.357  11.049 -0.6947  0.0804  0.3347
  276MOL0     C37152   7.947  10.277  10.988 -0.3357 -0.1534 -0.3295
  276MOL0     C37153   7.992  10.133  10.969 -0.8419 -0.7129 -0.7077
  276MOL0     C37154   7.820  10.338  10.948  0.8229 -0.0719 -0.1502
  276MOL0     C37155   7.701  10.264  10.875 -0.1606  0.1085  0.0780
  276MOL0     O37156   7.589  10.331  10.828  0.7969  0.1744  0.2182
  276MOL0     C37157   7.496  10.243  10.760  1.1367  0.6193  0.0043
  276MOL0     C37158   7.359  10.267  10.786 -0.0317 -0.8965 -0.2199
  276MOL0     C37159   7.269  10.173  10.737  0.7943 -0.8446  1.1204
  276MOL0     C37160   7.305  10.062  10.659  0.2158 -0.6286 -0.6312
  276MOL0     O37161   7.222   9.963  10.608  0.5037 -0.1233 -0.7587
  276MOL0     C37162   7.090   9.926  10.660 -0.7565 -0.6191 -0.7333
  276MOL0     C37163   7.038   9.801  10.585 -0.8829  0.1412 -0.2712
  276MOL0     C37164   6.949   9.709  10.664 -0.7317  0.2270 -0.2460
  276MOL0     C37165   6.804   9.761  10.687  0.3314  0.3671 -1.0578
  276MOL0     C37166   6.754   9.701  10.822  0.9579  1.1149  0.1326
  276MOL0     C37167   6.726   9.549  10.831  0.2361  0.4285  0.3912
  276MOL0     C37168   6.603   9.516  10.741 -0.3279 -0.0881 -0.0059
  276MOL0     C37169   6.651   9.423  10.634 -0.3095  0.5198  0.1361
  276MOL0    Cl37170   6.522   9.400  10.510  0.4240 -0.1603  0.6945
  276MOL0     C37171   7.437  10.059  10.616  0.1382 -1.0966 -0.0954
  276MOL0     C37172   7.534  10.148  10.666  0.4319  0.0588  1.7720
  276MOL0     O37173   7.716  10.136  10.878 -0.4559 -0.0559  0.4847
  276MOL0     C37174   7.800  10.475  10.974  0.7340  1.5712  0.0023
  276MOL0     C37175   7.898  10.549  11.040 -0.0636 -0.7664 -1.4074
  276MOL0     N37176   8.734  10.695  10.922  0.2860 -0.4529 -0.8011
  276MOL0     N37177   8.823  10.624  10.967  0.7777  0.4378  0.2745
  276MOL0     C37178   9.418   9.777  11.424  0.2084 -1.2521 -0.0559
  276MOL0     C37179   9.473   9.651  11.405 -0.4663 -0.3283  0.2165
  276MOL0     C37180   9.721   9.279  11.404  1.7709 -0.2209 -0.0424
  276MOL0     C37181   9.775   9.207  11.294 -0.1158  0.4545 -0.6962
  276MOL0     C37182   9.885   9.114  11.314  0.6721 -0.6423 -0.5279
  276MOL0     C37183   9.932   9.093  11.440 -1.7224  0.1441 -0.8802
  276MOL0     O37184  10.013   8.981  11.466 -0.7686 -0.7076 -0.2157
  276MOL0     C37185  10.114   8.938  11.378  0.5062  0.7368  0.7353
  276MOL0     C37186  10.238   9.017  11.383  0.1240 -0.1483 -0.1847
  276MOL0     C37187  10.347   8.969  11.290 -0.4288  0.5635  0.0716
  276MOL0     C37188  10.355   9.054  11.166 -0.1861  0.1668  0.2074
  276MOL0     C37189  10.233   9.056  11.085  0.4169 -0.6606 -0.0800
  276MOL0     C37190  10.128   9.066  11.025  0.6802 -0.1837  0.3956
  276MOL0     C37191   9.880   9.165  11.550 -0.4660 -0.5124  0.9754
  276MOL0     C37192   9.776   9.260  11.530 -0.2024 -1.1909  0.3604
  276MOL0     H37193   9.535   9.524  11.691  0.0522 -3.5170 -2.7680
  276MOL0     H37194   9.397   9.739  11.760  1.1021  0.1968 -0.3554
  276MOL0     H37195   9.383  10.051  11.452 -0.1942  0.3834 -0.7486
  276MOL0     H37196   9.217   9.994  11.457  0.7414 -0.0374 -0.2003
  276MOL0     H37197   9.190  10.124  11.690 -2.2641 -0.1364 -2.3511
  276MOL0     H37198   9.354  10.187  11.652 -0.0402  0.3251  0.6356
  276MOL0     H37199   9.084  10.241  11.524 -0.5696  2.0829 -1.6982
  276MOL0     H37200   9.180  10.342  11.623 -0.9297 -1.1203  1.3415
  276MOL0     H37201   9.356  10.335  11.422  0.9088  0.4995 -1.0076
  276MOL0     H37202   9.253  10.233  11.334  1.9797  2.1401 -2.7829
  276MOL0     H37203   9.193  10.520  11.412  2.0811  0.5530 -0.9585
  276MOL0     H37204   9.239  10.466  11.260 -1.0785  2.8128  0.7342
  276MOL0     H37205   9.007  10.318  11.277 -1.6073 -1.2880  3.7937
  276MOL0     H37206   8.968  10.424  11.411 -1.2646 -1.4316 -0.4817
  276MOL0     H37207   8.984  10.623  11.256  4.4754  0.5730 -0.6847
  276MOL0     H37208   9.050  10.516  11.133  4.1678 -0.8494  4.1607
  276MOL0     H37209   8.778  10.464  11.276  0.9166 -0.4213 -0.5799
  276MOL0     H37210   8.846  10.377  11.134  1.6159 -0.1842 -0.1564
  276MOL0     H37211   8.584  10.622  11.203 -3.1383 -3.6853 -2.0542
  276MOL0     H37212   8.456  10.817  11.085 -1.4022  0.4981 -1.4935
  276MOL0     H37213   8.484  10.831  10.909  0.9182 -0.1361 -1.0773
  276MOL0     H37214   8.400  10.587  11.068  1.5390  2.4125  0.8875
  276MOL0     H37215   8.420  10.576  10.894  0.9746 -1.4236  1.3474
  276MOL0     H37216   8.193  10.622  10.885  1.3696  1.1103 -2.5438
  276MOL0     H37217   8.243  10.786  10.895 -2.3317 -2.0875 -1.5679
  276MOL0     H37218   8.072  10.745  11.089 -0.5589 -2.0394  1.5218
  276MOL0     H37219   8.231  10.739  11.169 -2.4591  0.2920  2.1131
  276MOL0     H37220   8.133  10.305  11.053 -1.9222 -2.3454  0.2572
  276MOL0     H37221   7.907  10.073  11.003 -2.8400 -0.5371 -4.8582
  276MOL0     H37222   8.025  10.103  10.869  0.8875 -1.3066 -0.0067
  276MOL0     H37223   8.066  10.105  11.046 -3.2599  1.1247  2.5457
  276MOL0     H37224   7.322  10.348  10.848 -1.4064 -1.9667  0.3996
  276MOL0     H37225   7.162  10.189  10.739  0.5977 -1.2164 -1.6095
  276MOL0     H37226   7.101   9.898  10.765 -0.7079 -0.6657 -0.7505
  276MOL0     H37227   7.022  10.011  10.646 -0.6996 -0.6961 -1.5544
  276MOL0     H37228   6.980   9.833  10.498 -1.4365 -1.3415 -0.4766
  276MOL0     H37229   7.129   9.746  10.558 -0.2774  1.3567 -0.7627
  276MOL0     H37230   6.996   9.705  10.763 -0.5384  1.6742 -0.2527
  276MOL0     H37231   6.940   9.608  10.623 -0.4416 -1.2618  3.0554
  276MOL0     H37232   6.805   9.869  10.699 -3.1086  1.0416 -4.7497
  276MOL0     H37233   6.741   9.740  10.599  3.0514 -2.0685 -2.6134
  276MOL0     H37234   6.655   9.740  10.849  0.8588  0.9994 -0.0625
  276MOL0     H37235   6.822   9.727  10.904 -1.7336 -2.7410  4.0831
  276MOL0     H37236   6.816   9.488  10.812  1.4855  2.0319  0.9418
  276MOL0     H37237   6.694   9.525  10.933 -0.5544  1.8608  0.4984
  276MOL0     H37238   6.560   9.605  10.695 -1.6569 -0.7103 -0.0080
  276MOL0     H37239   6.522   9.469  10.798 -2.2478  2.0953 -0.7645
  276MOL0     H37240   6.660   9.319  10.666 -1.1345  0.4640  0.2004
  276MOL0     H37241   6.745   9.450  10.585 -0.3305 -2.0146 -1.5097
  276MOL0     H37242   7.458   9.961  10.576 -0.6495 -2.0960  1.7959
  276MOL0     H37243   7.635  10.120  10.639  0.0427  0.8929 -0.8788
  276MOL0     H37244   7.703  10.517  10.948  0.1649 -0.0579 -0.6669
  276MOL0     H37245   7.888  10.653  11.067  2.9521 -0.9719  1.0645
  276MOL0     H37246   9.383   9.832  11.337  1.0312 -0.3720  0.1506
  276MOL0     H37247   9.484   9.627  11.300 -1.0244 -0.1995  0.1223
  276MOL0     H37248   9.732   9.209  11.194  1.3670 -1.6086 -1.4408
  276MOL0     H37249   9.925   9.061  11.227  2.6739 -3.1087  1.7297
  276MOL0     H37250  10.138   8.839  11.419 -1.4141 -0.0597  0.0418
  276MOL0     H37251  10.071   8.932  11.278 -1.2700  0.0761  1.4948
  276MOL0     H37252  10.274   9.011  11.486 -1.3501 -0.9359  0.3074
  276MOL0     H37253  10.225   9.126  11.377 -2.1234 -0.3558  0.0482
  276MOL0     H37254  10.329   8.867  11.255  1.2587 -0.7881  2.8148
  276MOL0     H37255  10.441   8.975  11.345 -1.1949  5.0167  1.3291
  276MOL0     H37256  10.447   9.031  11.112  0.8820  3.6888  0.2278
  276MOL0     H37257  10.360   9.157  11.204 -1.6417 -0.6885  2.9607
  276MOL0     H37258  10.030   9.063  10.982  0.2542  1.8081  1.1450
  276MOL0     H37259   9.901   9.140  11.653 -3.0449  0.3282  1.7786
  276MOL0     H37260   9.721   9.284  11.620  0.6310  1.4881  0.2474
  277MOL0     O37261   0.064   8.641  11.341  0.1879  0.2791  0.3979
  277MOL0     C37262   0.043   8.540  11.267  0.0161  0.0027 -0.1702
  277MOL0     O37263   0.042   8.536  11.132 -0.0233  0.5002 -0.9603
  277MOL0     C37264   0.079   8.651  11.069  0.4165  0.0957 -0.4231
  277MOL0     C37265   0.208   8.684  11.076  0.6048 -0.8178  0.1376
  277MOL0     C37266   0.251   8.801  11.022  0.2558  0.3165  0.5425
  277MOL0     C37267   0.158   8.877  10.940 -0.0257 -0.0030 -0.1634
  277MOL0     O37268   0.190   9.007  10.903 -0.1179  0.3251  0.4134
  277MOL0     C37269   0.323   9.049  10.868 -0.0855 -0.4366 -0.0773
  277MOL0     C37270   0.318   9.191  10.826  0.5142  0.7628  0.6993
  277MOL0     C37271   0.460   9.236  10.766  0.1626 -0.4744 -0.3978
  277MOL0     C37272   0.469   9.387  10.753  0.4812  0.0367 -0.1899
  277MOL0     C37273   0.590   9.448  10.684 -1.0773 -0.8784  0.6805
  277MOL0     C37274   0.557   9.596  10.640 -0.5795  1.6692 -1.5117
  277MOL0     C37275   0.669   9.680  10.578 -0.1111 -0.0129 -0.1881
  277MOL0     C37276   0.699   9.624  10.443  0.9620  0.7706  0.5478
  277MOL0     N37277   0.697   9.730  10.344  0.0511  0.1813 -1.1153
  277MOL0     C37278   0.588   9.737  10.262 -0.4248 -0.4615  0.0373
  277MOL0     C37279   0.603   9.854  10.200 -1.3925 -0.2610  0.1790
  277MOL0     C37280   0.507   9.904  10.105  0.6132  0.2184  0.2386
  277MOL0     C37281   0.529  10.051  10.078  0.5851 -0.0256  0.3283
  277MOL0     C37282   0.414  10.116   9.994 -0.0965 -0.0278  0.9706
  277MOL0     C37283   0.374  10.049   9.856  0.2750  0.4998  0.4606
  277MOL0     O37284   0.485  10.059   9.763  1.2154 -0.0717 -0.4897
  277MOL0     C37285   0.487  10.166   9.676  0.0757 -0.2893 -0.6161
  277MOL0     C37286   0.388  10.268   9.671  0.2668  0.6920  0.6405
  277MOL0     C37287   0.386  10.370   9.565  0.0102 -0.2766  0.3921
  277MOL0     C37288   0.266  10.468   9.562 -0.6424 -0.0287  0.2157
  277MOL0     C37289   0.490  10.369   9.470 -0.7955  0.9139  0.3160
  277MOL0     C37290   0.504  10.461   9.351 -0.2017  1.8671 -0.8916
  277MOL0     O37291   0.605  10.440   9.270 -0.5059 -0.8017  0.7725
  277MOL0     C37292   0.610  10.530   9.162  0.6410 -0.6503 -0.1842
  277MOL0     C37293   0.598  10.487   9.036  0.2430  0.1612  0.4998
  277MOL0     C37294   0.609  10.568   8.922  1.0889  0.5962  0.4453
  277MOL0     C37295   0.655  10.700   8.943  0.2934  0.2712  1.0690
  277MOL0     O37296   0.670  10.770   8.822  0.0789 -0.4921  0.5515
  277MOL0     C37297   0.641  10.904   8.839 -0.1128 -0.6796  0.2463
  277MOL0     C37298   0.753  11.001   8.835 -0.3035 -0.1521  0.2991
  277MOL0     C37299   0.869  10.952   8.737 -0.7303  0.2235 -0.6181
  277MOL0     C37300   0.958  11.055   8.675  0.9628 -0.0662  0.3189
  277MOL0     C37301   1.052  11.132   8.768 -0.5788 -0.1100  1.0540
  277MOL0     C37302   1.125  11.261   8.717 -0.3234 -0.4066  0.1806
  277MOL0     C37303   1.252  11.249   8.636  0.0192  0.0415  0.2161
  277MOL0     C37304   1.276  11.366   8.552 -0.1732 -0.0521 -0.1638
  277MOL0    Cl37305   1.303  11.498   8.667 -0.1832 -0.2029  0.4522
  277MOL0     C37306   0.672  10.753   9.073 -0.7140 -0.8859  1.1154
  277MOL0     C37307   0.663  10.661   9.179 -0.2005 -0.2549  0.3886
  277MOL0     O37308   0.419  10.540   9.337  0.7145 -0.6293  0.4198
  277MOL0     C37309   0.589  10.273   9.484  0.3341  0.6059 -0.2424
  277MOL0     C37310   0.590  10.171   9.581  0.3903  0.4456 -0.2818
  277MOL0     N37311   0.720   9.923  10.252 -0.0606 -0.0936 -0.1025
  277MOL0     N37312   0.772   9.840  10.337  0.0385 -0.1704 -0.3996
  277MOL0     C37313   0.027   8.836  10.928 -0.3912 -0.4966  0.1547
  277MOL0     C37314  -0.016   8.725  10.994  0.7179 -0.7872 -0.2900
  277MOL0     C37315   0.026   8.400  11.341 -0.8709  0.4107 -0.0197
  277MOL0     C37316  -0.043   8.292  11.289 -1.4928 -0.4436  0.5383
  277MOL0     C37317  -0.036   8.164  11.348 -0.3138  0.2029 -1.3416
  277MOL0     C37318   0.019   8.145  11.475  0.1601 -0.1318  0.1706
  277MOL0     O37319   0.006   8.020  11.535  0.0027 -0.9189  0.4199
  277MOL0     C37320   0.050   7.989  11.668  0.2449  0.4488 -0.4689
  277MOL0     C37321  -0.045   8.024  11.782  0.5449 -1.4732  0.5515
  277MOL0     C37322   0.018   8.002  11.922 -0.7664 -0.3441  0.6669
  277MOL0     C37323   0.094   7.874  11.945 -0.2194 -0.3126  0.4348
  277MOL0     C37324   0.129   7.838  12.086 -0.2705  0.7292  0.2814
  277MOL0     C37325   0.169   7.806  12.192 -0.3637  0.7267 -0.8849
  277MOL0     C37326   0.078   8.262  11.534 -0.5667  1.4135 -0.7159
  277MOL0     C37327   0.091   8.381  11.469 -0.1006  0.1579 -0.1458
  277MOL0     H37328   0.285   8.627  11.127  1.9848  1.7411  1.0671
  277MOL0     H37329   0.357   8.820  11.038  0.7471 -3.0062  2.0527
  277MOL0     H37330   0.385   9.043  10.958 -2.9425 -0.3525  2.0526
  277MOL0     H37331   0.363   8.989  10.786 -2.2383  0.2400 -1.7069
  277MOL0     H37332   0.246   9.199  10.744 -1.0102  0.3421  1.9404
  277MOL0     H37333   0.281   9.242  10.915 -1.3296  0.4470  0.1630
  277MOL0     H37334   0.544   9.200  10.827  0.5194 -1.5809 -1.4941
  277MOL0     H37335   0.471   9.188  10.668 -0.6696 -0.1173 -0.6756
  277MOL0     H37336   0.380   9.414  10.695 -0.1766  1.4865  1.3961
  277MOL0     H37337   0.451   9.434  10.850 -3.0863 -0.2235 -0.6169
  277MOL0     H37338   0.686   9.425  10.730  0.7304  1.6202 -1.5840
  277MOL0     H37339   0.599   9.407  10.583  0.3139 -1.7149  1.1119
  277MOL0     H37340   0.459   9.607  10.594 -2.1006 -1.3037  0.6615
  277MOL0     H37341   0.522   9.645  10.731 -1.5022  2.3265 -2.1999
  277MOL0     H37342   0.629   9.781  10.574  0.5511  0.2099 -2.0088
  277MOL0     H37343   0.757   9.674  10.643  0.4113 -3.1737 -0.9862
  277MOL0     H37344   0.642   9.540  10.400  5.0416 -1.3361 -1.3125
  277MOL0     H37345   0.799   9.580  10.438  0.7092  0.2198  0.0670
  277MOL0     H37346   0.507   9.673  10.229 -1.1922  0.9466 -0.9302
  277MOL0     H37347   0.527   9.853  10.011 -2.0216 -1.2250  0.3935
  277MOL0     H37348   0.407   9.871  10.134  1.9208 -2.2680  2.3385
  277MOL0     H37349   0.628  10.067  10.034  0.6072  1.6686  0.9295
  277MOL0     H37350   0.526  10.103  10.174  0.9539 -1.3565  1.0836
  277MOL0     H37351   0.438  10.219   9.966  3.0282  0.1946  3.8994
  277MOL0     H37352   0.325  10.107  10.056 -1.5969 -0.0778 -1.0746
  277MOL0     H37353   0.281  10.090   9.818  0.0152 -0.1962  0.3436
  277MOL0     H37354   0.354   9.943   9.875  0.1828 -0.3284 -3.4431
  277MOL0     H37355   0.305  10.277   9.740  0.0750  0.8486  0.3909
  277MOL0     H37356   0.194  10.465   9.644 -1.6834 -0.1492 -0.6884
  277MOL0     H37357   0.298  10.572   9.552  1.8896 -0.8778 -1.3606
  277MOL0     H37358   0.213  10.437   9.471  0.2910 -2.4248  0.3987
  277MOL0     H37359   0.591  10.382   9.007 -1.6561  0.5429 -0.5389
  277MOL0     H37360   0.603  10.523   8.824  0.8605  1.9916 -0.1961
  277MOL0     H37361   0.569  10.930   8.761 -1.1248  5.5884  2.7222
  277MOL0     H37362   0.580  10.927   8.926  1.1032 -1.2240  1.2748
  277MOL0     H37363   0.711  11.101   8.820  0.5799  0.2026  0.1621
  277MOL0     H37364   0.803  11.011   8.932 -0.5803  0.8058  0.3503
  277MOL0     H37365   0.815  10.899   8.659 -0.9544 -1.7972  0.8221
  277MOL0     H37366   0.937  10.878   8.780 -0.5494 -0.0800 -1.4141
  277MOL0     H37367   1.015  11.015   8.591 -1.3457 -0.6583 -1.0508
  277MOL0     H37368   0.885  11.129   8.641  2.7520  1.0853 -1.2459
  277MOL0     H37369   1.132  11.065   8.802  0.0141  2.0973  4.5124
  277MOL0     H37370   0.987  11.171   8.847 -2.1548  0.1699 -0.3307
  277MOL0     H37371   1.048  11.328   8.678 -0.1809 -1.2576 -1.6909
  277MOL0     H37372   1.157  11.295   8.816  0.2306 -0.2212 -0.0621
  277MOL0     H37373   1.242  11.163   8.569 -0.2074  1.4589 -1.6436
  277MOL0     H37374   1.342  11.230   8.696 -0.1973 -0.5238  0.3690
  277MOL0     H37375   1.185  11.386   8.496 -2.7713 -0.4576  3.5546
  277MOL0     H37376   1.360  11.353   8.483  0.2618  0.0625  0.3316
  277MOL0     H37377   0.714  10.850   9.095  0.1359 -1.5056  2.3968
  277MOL0     H37378   0.693  10.694   9.279  0.6763  0.2053 -0.0088
  277MOL0     H37379   0.684  10.263   9.432  1.2343 -2.2156  1.6293
  277MOL0     H37380   0.676  10.105   9.585 -0.7747 -1.0840  2.5808
  277MOL0     H37381  -0.037   8.896  10.864  1.3891  0.6765 -0.6209
  277MOL0     H37382  -0.122   8.702  10.993  1.1296 -2.8406  0.0057
  277MOL0     H37383  -0.101   8.307  11.199 -1.3648 -3.4096 -0.1354
  277MOL0     H37384  -0.078   8.076  11.299 -1.6521 -0.7126  1.2280
  277MOL0     H37385   0.049   7.879  11.663 -2.2941  0.4611 -2.4696
  277MOL0     H37386   0.150   8.029  11.684  0.8705 -1.5262  0.8871
  277MOL0     H37387  -0.141   7.973  11.771 -0.7766  0.4728  2.2371
  277MOL0     H37388  -0.070   8.129  11.764 -0.7169 -2.0941 -1.7689
  277MOL0     H37389  -0.076   7.999  11.979 -1.9706 -1.3892 -1.2694
  277MOL0     H37390   0.079   8.091  11.942 -1.5998  0.2154  0.7896
  277MOL0     H37391   0.189   7.880  11.892 -0.3758 -0.9895  0.0650
  277MOL0     H37392   0.039   7.788  11.904 -1.7723  0.9479 -0.2808
  277MOL0     H37393   0.197   7.779  12.291 -2.0207  0.8185 -0.3756
  277MOL0     H37394   0.114   8.242  11.634  0.5826  1.7430 -1.0517
  277MOL0     H37395   0.146   8.460  11.520 -3.1687  1.6610  1.1186
  278MOL0     O37396   8.469   1.851   2.595 -0.2930  0.0223 -0.1937
  278MOL0     C37397   8.486   1.967   2.619 -0.4520 -0.1454  0.6585
  278MOL0     O37398   8.464   2.023   2.741 -0.4569 -0.3706 -0.2293
  278MOL0     C37399   8.377   1.966   2.826 -0.1011  0.0690 -1.3937
  278MOL0     C37400   8.409   1.848   2.896 -0.0722  0.0494  0.2406
  278MOL0     C37401   8.311   1.780   2.970 -0.4146 -0.2161  0.1060
  278MOL0     C37402   8.180   1.832   2.981 -0.7485 -0.8885  0.1142
  278MOL0     O37403   8.082   1.753   3.026 -0.1718 -0.4527  0.7029
  278MOL0     C37404   7.972   1.805   3.105 -0.9707  0.5810  0.2105
  278MOL0     C37405   7.910   1.679   3.164 -0.0082 -0.4920 -0.5909
  278MOL0     C37406   7.978   1.643   3.296 -0.3585  0.3646 -0.5961
  278MOL0     C37407   7.925   1.507   3.334 -0.1812 -0.0407  0.7822
  278MOL0     C37408   7.974   1.438   3.478 -0.2817 -0.0814 -0.1876
  278MOL0     C37409   8.116   1.374   3.475 -0.3842 -0.2682 -0.4207
  278MOL0     C37410   8.233   1.472   3.504 -0.4839  0.0967  0.1386
  278MOL0     C37411   8.230   1.549   3.639  0.0402  0.9861  0.0012
  278MOL0     N37412   8.227   1.444   3.750 -0.6687 -0.0187 -1.0146
  278MOL0     C37413   8.333   1.361   3.761  0.0630  0.3173 -0.2352
  278MOL0     C37414   8.306   1.281   3.877 -0.2253 -0.2090  0.7131
  278MOL0     C37415   8.400   1.195   3.953  0.2688 -1.0221  0.1397
  278MOL0     C37416   8.352   1.057   4.000 -0.2599  0.6649 -0.7959
  278MOL0     C37417   8.241   1.058   4.104  0.4173 -0.6848 -0.7297
  278MOL0     C37418   8.244   0.939   4.201  0.2349  0.2561  0.3890
  278MOL0     O37419   8.352   0.941   4.287 -0.4013  0.1560  0.2705
  278MOL0     C37420   8.353   0.844   4.383 -0.6060 -0.6514  0.2214
  278MOL0     C37421   8.298   0.714   4.383  0.0715  0.2650 -0.3998
  278MOL0     C37422   8.324   0.609   4.477 -0.3692  1.3838 -0.2854
  278MOL0     C37423   8.255   0.477   4.432  0.4009  0.1192 -0.1969
  278MOL0     C37424   8.419   0.639   4.583 -0.2003  0.9955 -0.2580
  278MOL0     C37425   8.457   0.536   4.683  0.7414 -0.7410 -0.0404
  278MOL0     O37426   8.540   0.581   4.785  0.2327  0.0989  0.2098
  278MOL0     C37427   8.605   0.483   4.856 -1.1321 -0.0318 -0.3645
  278MOL0     C37428   8.742   0.459   4.818 -0.6059  0.2748 -0.0539
  278MOL0     C37429   8.822   0.376   4.900  0.1955  1.3372  0.0269
  278MOL0     C37430   8.758   0.315   5.016  0.0595 -0.6846 -0.1508
  278MOL0     O37431   8.812   0.241   5.119 -0.5368 -0.1694  0.8523
  278MOL0     C37432   8.960   0.223   5.119  0.2536  0.0885 -0.3623
  278MOL0     C37433   9.008   0.102   5.026  0.5576  0.7038 -0.5016
  278MOL0     C37434   8.966  -0.029   5.082  0.6115  0.2210  0.5592
  278MOL0     C37435   8.946  -0.129   4.969 -0.3578 -0.8722 -0.2800
  278MOL0     C37436   8.940  -0.268   5.030  0.4967 -0.2550 -0.4220
  278MOL0     C37437   9.074  -0.330   5.059  0.3495  0.1170  0.0976
  278MOL0     C37438   9.053  -0.475   5.113  0.2867 -0.5030  0.7622
  278MOL0     C37439   9.193  -0.530   5.159 -0.1520 -1.0224 -0.0918
  278MOL0    Cl37440   9.171  -0.684   5.241  0.2700 -0.2744 -0.1743
  278MOL0     C37441   8.630   0.352   5.052 -1.2963  1.3583 -0.1921
  278MOL0     C37442   8.555   0.433   4.982 -0.0453 -1.0520 -0.0414
  278MOL0     O37443   8.425   0.425   4.674  0.1567  0.0127  0.3335
  278MOL0     C37444   8.470   0.772   4.586 -0.5307 -0.4791  0.2955
  278MOL0     C37445   8.434   0.874   4.493 -0.0395  0.7111  1.3509
  278MOL0     N37446   8.188   1.319   3.934 -0.0108 -0.5614  0.7883
  278MOL0     N37447   8.134   1.410   3.854  0.4478  0.0478  0.0139
  278MOL0     C37448   8.153   1.957   2.924 -0.5239  0.1676  0.5052
  278MOL0     C37449   8.254   2.025   2.849 -0.5463  0.8997  0.0206
  278MOL0     C37450   8.521   2.057   2.499  0.2934  0.4085 -0.7460
  278MOL0     C37451   8.571   1.999   2.384  0.4642 -0.1272 -0.9666
  278MOL0     C37452   8.607   2.071   2.271 -0.2826 -0.6962  0.1668
  278MOL0     C37453   8.580   2.213   2.273 -0.3953  0.1881 -0.6345
  278MOL0     O37454   8.608   2.290   2.168  0.3558  0.0209  0.1212
  278MOL0     C37455   8.749   2.275   2.133 -0.1744 -0.4572  0.0003
  278MOL0     C37456   8.750   2.231   1.986  1.0957 -0.2831  0.1926
  278MOL0     C37457   8.890   2.246   1.916  0.0543  0.8827  1.0179
  278MOL0     C37458   8.948   2.382   1.944 -0.3320 -0.1880 -0.6184
  278MOL0     C37459   9.062   2.397   1.855  0.6158 -0.2364  0.3155
  278MOL0     C37460   9.147   2.416   1.767 -0.0692 -1.0265 -0.8183
  278MOL0     C37461   8.539   2.274   2.389  0.1894 -0.0398 -0.4698
  278MOL0     C37462   8.519   2.200   2.498 -0.6416  1.2230 -0.4544
  278MOL0     H37463   8.510   1.809   2.886 -0.6122 -1.3697 -0.0154
  278MOL0     H37464   8.324   1.680   3.010 -3.6573 -0.7400  0.1253
  278MOL0     H37465   8.020   1.864   3.184 -1.4833 -0.4338  1.3157
  278MOL0     H37466   7.903   1.859   3.040 -0.4398 -0.5333 -1.3170
  278MOL0     H37467   7.803   1.697   3.175 -0.0554 -0.8915 -0.3744
  278MOL0     H37468   7.911   1.606   3.082  1.3391 -0.1285 -0.9228
  278MOL0     H37469   8.086   1.642   3.279 -0.4883  0.6962 -1.4625
  278MOL0     H37470   7.949   1.714   3.374 -0.2230 -0.9744  0.7272
  278MOL0     H37471   7.816   1.515   3.335 -0.1894  0.0946 -0.4203
  278MOL0     H37472   7.957   1.432   3.262 -1.9254  0.4848 -0.5898
  278MOL0     H37473   7.966   1.496   3.570  0.1886 -2.7608  1.6517
  278MOL0     H37474   7.910   1.352   3.494  0.6607 -0.4193  2.0994
  278MOL0     H37475   8.128   1.292   3.547  0.1145 -1.5266 -1.8962
  278MOL0     H37476   8.127   1.327   3.378 -0.3786  2.0664 -1.6296
  278MOL0     H37477   8.328   1.417   3.503 -0.6239 -0.2120 -1.9609
  278MOL0     H37478   8.238   1.534   3.414  2.3626 -1.9255 -1.2577
  278MOL0     H37479   8.137   1.606   3.640  0.5958  1.9645 -1.0916
  278MOL0     H37480   8.315   1.614   3.658 -0.5931  1.7405  0.3310
  278MOL0     H37481   8.429   1.360   3.711  0.9946 -0.0661  1.4499
  278MOL0     H37482   8.488   1.186   3.889  0.8058  0.2598  0.6565
  278MOL0     H37483   8.429   1.255   4.040 -1.8347 -0.2898  0.3892
  278MOL0     H37484   8.429   0.994   4.045 -3.9871 -3.4280  0.6520
  278MOL0     H37485   8.327   1.007   3.906 -0.0908  0.3649 -0.6829
  278MOL0     H37486   8.146   1.065   4.051  0.7436  0.7871 -1.1800
  278MOL0     H37487   8.250   1.147   4.167 -0.5429 -2.5676  2.2850
  278MOL0     H37488   8.245   0.846   4.144 -2.0608 -1.2223  2.5395
  278MOL0     H37489   8.151   0.933   4.257 -0.2827 -1.6690 -0.5821
  278MOL0     H37490   8.230   0.696   4.301 -0.4863  0.3422  0.0329
  278MOL0     H37491   8.316   0.392   4.463 -1.3259 -0.8780  0.5739
  278MOL0     H37492   8.158   0.450   4.476  2.3617 -4.2898  2.0214
  278MOL0     H37493   8.251   0.472   4.323 -1.1341  0.5115 -0.1754
  278MOL0     H37494   8.783   0.511   4.732 -0.2769 -0.4458 -0.3386
  278MOL0     H37495   8.927   0.356   4.879 -0.7533 -3.0586 -1.6079
  278MOL0     H37496   9.009   0.318   5.095  1.2744 -0.9158 -2.5185
  278MOL0     H37497   8.993   0.182   5.215 -1.1855 -0.0553  0.0873
  278MOL0     H37498   8.971   0.117   4.924  3.5127 -2.1574 -2.2003
  278MOL0     H37499   9.117   0.108   5.026  0.7578 -1.5401  1.2863
  278MOL0     H37500   8.881  -0.029   5.150  2.2133 -1.5043  2.6985
  278MOL0     H37501   9.045  -0.057   5.153  0.9879 -1.0181 -0.3098
  278MOL0     H37502   8.854  -0.116   4.910  0.1302  0.9767 -0.7147
  278MOL0     H37503   9.032  -0.130   4.901  1.0781  3.0615  1.2058
  278MOL0     H37504   8.884  -0.334   4.964  1.5992 -0.2350 -1.4058
  278MOL0     H37505   8.891  -0.258   5.127 -1.3042  0.5371 -1.3591
  278MOL0     H37506   9.142  -0.330   4.973 -0.0037 -1.0645 -0.2089
  278MOL0     H37507   9.119  -0.259   5.129 -1.7260 -1.4596  3.2550
  278MOL0     H37508   9.027  -0.526   5.020 -0.7149  1.8030 -0.2994
  278MOL0     H37509   8.967  -0.486   5.180  0.3381  1.4129  1.2022
  278MOL0     H37510   9.233  -0.451   5.224 -0.8000 -0.7902  0.0356
  278MOL0     H37511   9.261  -0.552   5.077 -2.7715 -1.1065 -2.4109
  278MOL0     H37512   8.587   0.330   5.149  0.3834 -0.0243  0.2795
  278MOL0     H37513   8.454   0.457   5.012  0.4634  0.0122  0.8877
  278MOL0     H37514   8.533   0.799   4.670 -1.3718  0.0829  0.7613
  278MOL0     H37515   8.484   0.969   4.509  2.0071 -0.8654  6.3437
  278MOL0     H37516   8.052   1.996   2.921 -0.4038  0.4151 -0.5401
  278MOL0     H37517   8.235   2.116   2.791  0.0256  1.3285  0.4954
  278MOL0     H37518   8.604   1.896   2.373  3.0129  0.4376  0.4887
  278MOL0     H37519   8.644   2.022   2.182  2.9052 -1.1205  1.6194
  278MOL0     H37520   8.781   2.379   2.147 -0.2961 -0.3251 -0.6746
  278MOL0     H37521   8.809   2.206   2.192 -1.5892 -1.2909  0.5114
  278MOL0     H37522   8.685   2.296   1.926  0.0834 -0.2988  1.2370
  278MOL0     H37523   8.710   2.132   1.965 -5.5509  2.0913 -0.6665
  278MOL0     H37524   8.870   2.231   1.809  1.4525 -0.3840  0.9021
  278MOL0     H37525   8.962   2.166   1.938 -2.0939 -2.0522 -1.6407
  278MOL0     H37526   8.984   2.391   2.047  1.3022 -1.3394 -1.0365
  278MOL0     H37527   8.883   2.464   1.913 -0.3939 -0.2362 -0.6163
  278MOL0     H37528   9.219   2.434   1.689 -0.5230 -1.2013 -1.2873
  278MOL0     H37529   8.527   2.382   2.386  1.7387  0.1694 -0.1399
  278MOL0     H37530   8.490   2.243   2.594  2.2658  2.0274  0.1847
  279MOL0     O37531   2.739   5.030   6.463  0.7863 -0.0009  0.7162
  279MOL0     C37532   2.656   5.031   6.371  0.4484  0.2407  0.3877
  279MOL0     O37533   2.561   4.934   6.363 -0.3116  0.6527  0.2985
  279MOL0     C37534   2.578   4.810   6.422 -0.8729  1.1854  0.0524
  279MOL0     C37535   2.553   4.703   6.342 -0.1143  0.1300 -1.2912
  279MOL0     C37536   2.568   4.570   6.396 -0.9552  0.7383  0.1189
  279MOL0     C37537   2.592   4.546   6.524 -0.6795  0.1479 -0.3488
  279MOL0     O37538   2.558   4.424   6.575  0.2010 -0.5465  0.4947
  279MOL0     C37539   2.482   4.418   6.693  0.0449 -0.6706 -0.1436
  279MOL0     C37540   2.386   4.291   6.691  0.1442 -0.7088  1.4648
  279MOL0     C37541   2.403   4.186   6.798 -1.1502 -0.3761  0.5732
  279MOL0     C37542   2.388   4.250   6.941 -0.1882 -0.3678 -0.7208
  279MOL0     C37543   2.262   4.329   6.965  0.3783 -0.7851 -0.5887
  279MOL0     C37544   2.128   4.253   6.961 -0.8775 -0.3486  0.6794
  279MOL0     C37545   2.117   4.163   7.088 -0.6392 -0.0770 -0.0584
  279MOL0     C37546   1.999   4.065   7.068 -0.4785  0.2505 -0.1777
  279MOL0     N37547   1.971   3.976   7.189  0.7621  0.2260 -0.1986
  279MOL0     C37548   2.053   3.955   7.293 -0.8139  0.3556 -0.2103
  279MOL0     C37549   1.988   3.858   7.362  0.0932  0.0453  0.5957
  279MOL0     C37550   2.032   3.820   7.495 -0.2070  0.2556 -0.4020
  279MOL0     C37551   1.953   3.890   7.605  0.6830  1.0454  0.3417
  279MOL0     C37552   2.025   4.028   7.643 -0.0163 -0.9965  0.8995
  279MOL0     C37553   1.936   4.110   7.730  0.1436  0.5208 -0.7986
  279MOL0     O37554   1.928   4.078   7.865  0.3054  0.2150  0.0812
  279MOL0     C37555   1.834   4.160   7.935  0.4999 -0.2049  0.1913
  279MOL0     C37556   1.707   4.208   7.897 -0.2585 -0.0002 -0.0094
  279MOL0     C37557   1.620   4.265   7.992  0.1540 -0.4229  0.1943
  279MOL0     C37558   1.482   4.308   7.933 -0.9722  0.0795 -0.7431
  279MOL0     C37559   1.664   4.300   8.123  1.0151 -1.0777  0.0699
  279MOL0     C37560   1.593   4.399   8.216  0.2068  0.2782  0.5941
  279MOL0     O37561   1.653   4.423   8.335 -0.8619  0.3642 -0.3236
  279MOL0     C37562   1.589   4.520   8.412 -1.0974 -0.0575  0.2496
  279MOL0     C37563   1.459   4.521   8.462 -0.9030  0.4868  0.6659
  279MOL0     C37564   1.416   4.607   8.556 -1.1118 -0.0323 -0.2743
  279MOL0     C37565   1.502   4.706   8.599  0.2838 -0.1590  0.0267
  279MOL0     O37566   1.443   4.792   8.688  0.0091 -0.1818  0.1246
  279MOL0     C37567   1.477   4.759   8.823 -0.7063 -0.0165 -0.9966
  279MOL0     C37568   1.420   4.876   8.903  0.3001  1.2181  0.2092
  279MOL0     C37569   1.463   4.886   9.048 -0.5433  0.9779  0.9440
  279MOL0     C37570   1.398   4.993   9.134  1.3468 -0.6326  0.0063
  279MOL0     C37571   1.453   5.011   9.267 -0.3295  0.8401 -0.4238
  279MOL0     C37572   1.398   5.143   9.313  0.4176 -0.3369 -0.4963
  279MOL0     C37573   1.426   5.167   9.459 -0.4171  0.4307  1.4232
  279MOL0     C37574   1.557   5.234   9.477 -0.0096 -0.7710 -0.2538
  279MOL0    Cl37575   1.566   5.277   9.648  0.1671  0.0791  0.0950
  279MOL0     C37576   1.640   4.701   8.564  0.0002 -0.3635  0.7938
  279MOL0     C37577   1.680   4.619   8.460  0.0049  0.5340 -0.0838
  279MOL0     O37578   1.481   4.448   8.185  0.1095 -0.5423  0.2991
  279MOL0     C37579   1.792   4.262   8.151  0.3245 -1.0901 -0.1002
  279MOL0     C37580   1.875   4.202   8.064 -0.6469  0.2462  0.4130
  279MOL0     N37581   1.875   3.813   7.288 -0.5745  0.5398  0.8511
  279MOL0     N37582   1.863   3.895   7.189 -0.9137 -0.4610 -0.5118
  279MOL0     C37583   2.613   4.653   6.607 -0.3951  0.6169  0.8857
  279MOL0     C37584   2.607   4.787   6.560 -1.1153  0.0994  1.0165
  279MOL0     C37585   2.640   5.153   6.283 -1.2946 -0.0169 -0.2139
  279MOL0     C37586   2.698   5.277   6.328  0.7209 -0.3654  0.7965
  279MOL0     C37587   2.665   5.388   6.255  0.2373 -0.6920 -0.7064
  279MOL0     C37588   2.587   5.397   6.153  0.0069  0.6414  0.2717
  279MOL0     O37589   2.582   5.519   6.081 -0.1156  0.0142 -0.5612
  279MOL0     C37590   2.487   5.508   5.980  0.3370  0.1700  0.3716
  279MOL0     C37591   2.444   5.642   5.932 -0.2787  0.7471  0.2798
  279MOL0     C37592   2.549   5.728   5.861 -0.1485 -0.5146  0.7008
  279MOL0     C37593   2.583   5.669   5.728 -0.6515  0.0237 -0.1927
  279MOL0     C37594   2.474   5.698   5.628 -0.3378 -0.1222 -0.4421
  279MOL0     C37595   2.395   5.721   5.542  0.8860 -0.9488 -0.5113
  279MOL0     C37596   2.530   5.267   6.113  0.5901 -0.2990 -0.5677
  279MOL0     C37597   2.557   5.150   6.176 -0.5204  0.0052 -0.8575
  279MOL0     H37598   2.521   4.713   6.239 -1.6338  0.1610 -0.8549
  279MOL0     H37599   2.540   4.486   6.333  0.2067 -1.8088  2.7291
  279MOL0     H37600   2.548   4.415   6.780  0.2722 -1.2261 -0.3295
  279MOL0     H37601   2.421   4.508   6.702  0.3634 -0.5693  1.1589
  279MOL0     H37602   2.281   4.324   6.690 -1.2655 -4.4230 -1.5562
  279MOL0     H37603   2.396   4.243   6.593  1.4168 -0.1475  1.3070
  279MOL0     H37604   2.327   4.107   6.793 -1.1513 -0.6335  3.2817
  279MOL0     H37605   2.508   4.153   6.790 -0.2366  2.3296  0.3368
  279MOL0     H37606   2.397   4.170   7.015 -3.3670  0.2663  0.5365
  279MOL0     H37607   2.467   4.324   6.960 -1.2082  0.8245 -0.9802
  279MOL0     H37608   2.261   4.383   7.060 -1.3529 -3.4408  1.0413
  279MOL0     H37609   2.261   4.407   6.889 -1.9993 -0.2644 -0.1138
  279MOL0     H37610   2.052   4.333   6.962  3.2735  4.0566 -0.0630
  279MOL0     H37611   2.130   4.199   6.866  2.9131  0.8026 -0.0606
  279MOL0     H37612   2.208   4.108   7.114 -1.4326 -0.7541  1.3975
  279MOL0     H37613   2.089   4.230   7.169  0.4008 -0.7607  0.8985
  279MOL0     H37614   2.022   4.003   6.981  7.5198 -0.9953  1.9940
  279MOL0     H37615   1.912   4.129   7.050 -0.1776  0.7590  0.1716
  279MOL0     H37616   2.143   4.008   7.324 -0.9118 -0.9594  2.6814
  279MOL0     H37617   2.033   3.711   7.499 -0.5608  0.2470 -0.5187
  279MOL0     H37618   2.133   3.862   7.501 -0.9053  2.3256 -2.0189
  279MOL0     H37619   1.943   3.813   7.682 -1.4386 -0.6870 -1.5127
  279MOL0     H37620   1.856   3.906   7.555  0.2353 -3.5956 -0.7433
  279MOL0     H37621   2.052   4.074   7.547 -1.9249 -0.7938  0.4178
  279MOL0     H37622   2.115   4.004   7.699  2.0342 -0.2406 -1.8277
  279MOL0     H37623   1.841   4.113   7.676 -0.8154  1.5542  0.8659
  279MOL0     H37624   1.970   4.214   7.723  2.9670 -0.4037 -2.6236
  279MOL0     H37625   1.679   4.191   7.793 -0.2030 -0.3631  0.0331
  279MOL0     H37626   1.468   4.265   7.833  1.3537 -2.5489 -0.0691
  279MOL0     H37627   1.405   4.267   8.000 -0.8642 -0.5493 -0.9948
  279MOL0     H37628   1.482   4.415   7.913 -1.9824 -0.0528 -1.5180
  279MOL0     H37629   1.393   4.448   8.418  2.5755 -0.2649 -4.1955
  279MOL0     H37630   1.317   4.590   8.595 -0.8930 -0.7276 -0.0169
  279MOL0     H37631   1.440   4.669   8.873  3.4987  1.1021  5.3430
  279MOL0     H37632   1.586   4.757   8.834 -0.8932  1.5373  2.4874
  279MOL0     H37633   1.452   4.969   8.854 -0.6608  0.9241 -1.0363
  279MOL0     H37634   1.311   4.870   8.892  0.2231  3.8940 -1.2954
  279MOL0     H37635   1.572   4.890   9.057 -0.4961 -0.7153  1.5697
  279MOL0     H37636   1.436   4.788   9.091 -2.7848  0.3440 -1.6431
  279MOL0     H37637   1.407   5.086   9.077 -3.9831  0.6385  0.6575
  279MOL0     H37638   1.291   4.981   9.155  1.2913  1.0475  0.8765
  279MOL0     H37639   1.562   5.022   9.259  0.2838 -3.7449 -0.9252
  279MOL0     H37640   1.439   4.927   9.335  2.5926 -2.2412 -3.2264
  279MOL0     H37641   1.432   5.225   9.248 -1.2232 -0.1017 -1.0991
  279MOL0     H37642   1.290   5.129   9.306  0.2734 -0.4515  1.3702
  279MOL0     H37643   1.419   5.072   9.514  2.1477  0.1611  1.3934
  279MOL0     H37644   1.334   5.218   9.490  0.3266  2.0546  1.0384
  279MOL0     H37645   1.557   5.328   9.421 -0.6428 -1.1960 -0.9955
  279MOL0     H37646   1.643   5.173   9.450 -0.5326 -2.0214  0.7887
  279MOL0     H37647   1.712   4.772   8.603  1.1169  0.1600 -2.0205
  279MOL0     H37648   1.773   4.605   8.405 -1.4402 -0.2644 -2.5308
  279MOL0     H37649   1.837   4.299   8.242  0.1220 -3.2207  0.9265
  279MOL0     H37650   1.971   4.160   8.093 -0.0610  3.0214  2.9899
  279MOL0     H37651   2.617   4.641   6.715 -0.4349 -1.0649  0.7255
  279MOL0     H37652   2.608   4.875   6.624 -0.0480  0.1149  0.9912
  279MOL0     H37653   2.770   5.289   6.408  2.1852  1.8792 -0.7444
  279MOL0     H37654   2.708   5.480   6.296 -1.2714 -0.8473  1.4002
  279MOL0     H37655   2.526   5.447   5.898 -2.6446  1.9831 -2.6322
  279MOL0     H37656   2.390   5.465   6.004  0.3020  0.0675  0.0615
  279MOL0     H37657   2.399   5.698   6.014 -2.1037  1.2471 -0.9948
  279MOL0     H37658   2.370   5.641   5.851 -1.3443  0.4589  1.2450
  279MOL0     H37659   2.639   5.742   5.922 -1.4145 -0.4933  2.6736
  279MOL0     H37660   2.501   5.826   5.856 -2.0119 -1.4004  0.5447
  279MOL0     H37661   2.606   5.562   5.731  2.9385  0.6992  1.9034
  279MOL0     H37662   2.675   5.710   5.686  0.8249 -3.9895 -1.3686
  279MOL0     H37663   2.345   5.762   5.457  0.0195 -0.0215  0.4213
  279MOL0     H37664   2.460   5.258   6.030  0.1815  1.7341 -0.4958
  279MOL0     H37665   2.508   5.059   6.144 -0.0637 -0.2134 -0.9510
  280MOL0     O37666   4.131  11.061   1.363 -0.0648 -0.3624  0.3315
  280MOL0     C37667   4.196  10.982   1.292  0.2384  0.7333  0.0161
  280MOL0     O37668   4.328  11.002   1.246  0.0936 -0.5511 -0.5944
  280MOL0     C37669   4.391  11.109   1.308 -0.1950  0.1302 -0.9844
  280MOL0     C37670   4.346  11.237   1.302 -0.0802  0.4945 -0.0808
  280MOL0     C37671   4.412  11.351   1.346 -0.8219 -0.1563  0.1892
  280MOL0     C37672   4.539  11.336   1.395  0.2225 -0.8596 -0.7908
  280MOL0     O37673   4.604  11.436   1.457 -0.1001  0.2181  0.4056
  280MOL0     C37674   4.557  11.569   1.434 -1.2138  0.4742  1.2634
  280MOL0     C37675   4.679  11.664   1.469 -0.1441  0.1116  0.3343
  280MOL0     C37676   4.711  11.669   1.613  0.1503  0.6005 -0.7303
  280MOL0     C37677   4.627  11.770   1.687 -0.8439  0.0216  0.2027
  280MOL0     C37678   4.655  11.758   1.839 -0.5326 -0.8422  0.3122
  280MOL0     C37679   4.536  11.817   1.924 -0.3755  0.5151  1.5805
  280MOL0     C37680   4.549  11.797   2.079 -0.4414 -0.3848  0.4381
  280MOL0     C37681   4.661  11.884   2.141  0.5985 -0.4962 -0.0709
  280MOL0     N37682   4.625  12.025   2.125 -0.5497 -0.3008 -0.5880
  280MOL0     C37683   4.709  12.125   2.073 -0.9347 -0.0830 -0.5173
  280MOL0     C37684   4.656  12.243   2.115  0.1566  0.1297 -0.7925
  280MOL0     C37685   4.724  12.376   2.088 -0.3923  0.8909 -0.5172
  280MOL0     C37686   4.626  12.491   2.071  0.3603 -0.1844 -0.3409
  280MOL0     C37687   4.709  12.618   2.052  0.2409  0.1961 -0.2925
  280MOL0     C37688   4.612  12.742   2.039  0.5878  0.2817  0.4990
  280MOL0     O37689   4.538  12.741   1.918  0.1051  0.4726 -0.3171
  280MOL0     C37690   4.488  12.855   1.861 -1.4531 -0.8160 -0.1232
  280MOL0     C37691   4.431  12.854   1.730  0.6890  0.3916 -0.5484
  280MOL0     C37692   4.392  12.970   1.664  0.2258 -0.2478  0.2857
  280MOL0     C37693   4.373  12.957   1.519  0.1603  0.4595  0.3745
  280MOL0     C37694   4.375  13.086   1.739  0.2770  0.3808  0.1266
  280MOL0     C37695   4.327  13.208   1.681 -0.0423  0.1022  0.4907
  280MOL0     O37696   4.208  13.216   1.626  0.5655  0.3091 -0.7464
  280MOL0     C37697   4.172  13.329   1.557 -0.6810  0.3940 -0.2463
  280MOL0     C37698   4.237  13.394   1.443 -0.0834 -0.2280 -0.7395
  280MOL0     C37699   4.189  13.516   1.393 -0.9338  0.0769  0.0176
  280MOL0     C37700   4.063  13.564   1.434 -1.2179 -0.3757 -1.1921
  280MOL0     O37701   4.022  13.674   1.373 -0.1721  0.4344 -0.0804
  280MOL0     C37702   3.910  13.751   1.425  0.1878 -0.3425 -0.4671
  280MOL0     C37703   3.913  13.894   1.363  0.5264  0.8757  0.7858
  280MOL0     C37704   3.868  13.894   1.212  0.5170  0.1537 -0.0071
  280MOL0     C37705   3.865  14.030   1.149 -0.4478 -0.4953 -0.2678
  280MOL0     C37706   3.774  14.145   1.209 -0.0054 -0.3785 -0.1445
  280MOL0     C37707   3.785  14.269   1.124 -0.3567 -0.2264 -0.1697
  280MOL0     C37708   3.735  14.398   1.204 -0.2427  0.0534 -0.4373
  280MOL0     C37709   3.712  14.526   1.136 -0.1679  0.3870 -0.2480
  280MOL0    Cl37710   3.851  14.571   1.044  0.4850 -0.4762 -0.2377
  280MOL0     C37711   3.990  13.493   1.528  1.1771 -0.4502  0.0341
  280MOL0     C37712   4.055  13.380   1.593  0.1302  0.1588  0.0140
  280MOL0     O37713   4.402  13.302   1.687 -0.1537 -0.3868  0.1234
  280MOL0     C37714   4.428  13.094   1.865  0.0187  0.4500  0.0924
  280MOL0     C37715   4.491  12.984   1.931 -0.1153 -0.3839 -0.0081
  280MOL0     N37716   4.534  12.215   2.183 -0.6342  0.1665 -0.2314
  280MOL0     N37717   4.525  12.089   2.187 -0.9016 -0.5718 -0.2620
  280MOL0     C37718   4.584  11.203   1.409 -0.3304 -1.4635 -0.2548
  280MOL0     C37719   4.513  11.092   1.369  0.0060 -0.3191  0.4492
  280MOL0     C37720   4.135  10.854   1.253 -0.0842 -0.5414  1.0498
  280MOL0     C37721   3.996  10.836   1.253 -0.4751 -0.0596 -0.5762
  280MOL0     C37722   3.935  10.720   1.205  0.7059 -0.0414  0.3331
  280MOL0     C37723   4.008  10.615   1.141  0.0477 -0.8007  0.0428
  280MOL0     O37724   3.969  10.496   1.095 -0.2116  0.4235  0.3261
  280MOL0     C37725   3.835  10.462   1.122 -0.2921 -1.9192  0.6834
  280MOL0     C37726   3.827  10.314   1.084 -0.0168  0.2574  0.0573
  280MOL0     C37727   3.687  10.248   1.095  0.9664 -0.5454  0.3152
  280MOL0     C37728   3.655  10.216   1.241  0.3267 -0.0153 -0.4111
  280MOL0     C37729   3.587  10.333   1.292  0.1008 -0.2102  0.3377
  280MOL0     C37730   3.536  10.439   1.314  0.1435 -0.3836  0.4665
  280MOL0     C37731   4.156  10.635   1.152  0.6603  0.1630 -0.5954
  280MOL0     C37732   4.218  10.752   1.201 -1.2886  0.6179 -0.9557
  280MOL0     H37733   4.250  11.270   1.264 -0.8388  2.2868  3.0382
  280MOL0     H37734   4.366  11.450   1.340 -1.0578 -0.0742  2.3408
  280MOL0     H37735   4.537  11.597   1.330  2.7589  1.4889  0.6152
  280MOL0     H37736   4.465  11.598   1.486 -1.8308 -0.8986  0.9911
  280MOL0     H37737   4.762  11.628   1.409  0.0334 -1.0741  1.2580
  280MOL0     H37738   4.653  11.768   1.445 -1.1404  0.9450  4.2210
  280MOL0     H37739   4.712  11.570   1.658 -0.3564  1.3675  1.0646
  280MOL0     H37740   4.814  11.701   1.627  0.3284  0.3620 -1.4696
  280MOL0     H37741   4.649  11.871   1.650 -0.1473 -0.6054 -1.1867
  280MOL0     H37742   4.520  11.746   1.677 -1.0840  0.7782  0.7732
  280MOL0     H37743   4.682  11.656   1.869 -2.1152 -0.9594  1.4808
  280MOL0     H37744   4.740  11.819   1.870 -2.2223  2.3180 -0.8554
  280MOL0     H37745   4.531  11.926   1.913 -2.7891  0.4408  1.3788
  280MOL0     H37746   4.449  11.762   1.888  0.3541 -0.2108  0.8723
  280MOL0     H37747   4.450  11.823   2.118 -1.6515 -2.5434 -0.9645
  280MOL0     H37748   4.571  11.690   2.093  2.5350  0.0873 -0.0178
  280MOL0     H37749   4.755  11.861   2.090 -0.1876 -2.2507 -0.8012
  280MOL0     H37750   4.665  11.848   2.244 -2.1210  3.1555  1.5317
  280MOL0     H37751   4.799  12.109   2.016  0.0038 -2.3324  1.4334
  280MOL0     H37752   4.785  12.391   2.178 -0.8561  2.8979 -0.4891
  280MOL0     H37753   4.799  12.365   2.009  3.4950  0.3624  2.8788
  280MOL0     H37754   4.552  12.503   2.150 -0.0159 -0.7410 -0.6032
  280MOL0     H37755   4.566  12.473   1.981 -0.6538  2.7242 -0.3461
  280MOL0     H37756   4.779  12.620   1.969  0.6795  1.7310  0.0780
  280MOL0     H37757   4.769  12.633   2.142 -2.1533  0.1466  1.4133
  280MOL0     H37758   4.671  12.833   2.027  0.8566  0.0644  0.1573
  280MOL0     H37759   4.542  12.752   2.122  0.7698  2.0156  0.4740
  280MOL0     H37760   4.426  12.756   1.684 -1.5531  0.3743 -0.3839
  280MOL0     H37761   4.412  13.041   1.461  0.4119  0.4130  0.4714
  280MOL0     H37762   4.434  12.876   1.477  0.4451  1.7196 -1.8220
  280MOL0     H37763   4.270  12.948   1.483  0.9531 -0.3578 -1.8847
  280MOL0     H37764   4.330  13.349   1.410  0.2513 -2.0287  2.2340
  280MOL0     H37765   4.253  13.569   1.323 -1.7399  0.2100 -0.6241
  280MOL0     H37766   3.808  13.713   1.412 -0.1074  0.0855  0.5218
  280MOL0     H37767   3.925  13.750   1.533 -3.6933  0.1354  0.2406
  280MOL0     H37768   3.830  13.946   1.413 -1.3285 -1.7387  0.6564
  280MOL0     H37769   4.012  13.939   1.369  0.0284  2.0161  0.8257
  280MOL0     H37770   3.768  13.850   1.208  0.4414  0.3892 -2.7572
  280MOL0     H37771   3.936  13.830   1.154  0.7785  0.0860  0.3743
  280MOL0     H37772   3.960  14.077   1.178  0.1795 -0.8060 -1.7303
  280MOL0     H37773   3.857  14.025   1.040 -2.4675  1.8050 -0.3069
  280MOL0     H37774   3.812  14.177   1.306  2.0140  1.1803 -1.3850
  280MOL0     H37775   3.668  14.117   1.204  0.0888 -0.7912  0.0883
  280MOL0     H37776   3.886  14.292   1.089 -0.6088  0.8987 -0.2014
  280MOL0     H37777   3.720  14.255   1.038 -0.4193  1.7308 -0.4685
  280MOL0     H37778   3.811  14.418   1.280 -2.1932  1.2711  1.2877
  280MOL0     H37779   3.641  14.374   1.256 -0.0555  1.4393  0.5769
  280MOL0     H37780   3.694  14.601   1.214  2.4680  0.0133  0.7901
  280MOL0     H37781   3.624  14.512   1.071 -1.9032 -0.4382  2.1514
  280MOL0     H37782   3.887  13.518   1.551  1.0153 -3.2441  3.1277
  280MOL0     H37783   4.002  13.325   1.670  0.0570  0.0276 -0.1285
  280MOL0     H37784   4.439  13.181   1.929 -0.5511 -0.1500  1.0466
  280MOL0     H37785   4.531  13.000   2.031 -2.5049 -1.2694  1.1711
  280MOL0     H37786   4.680  11.212   1.458 -0.0615  3.1894 -1.1843
  280MOL0     H37787   4.568  11.001   1.391 -0.8796 -0.5718  1.6994
  280MOL0     H37788   3.936  10.913   1.299 -1.5442 -0.4526 -1.2735
  280MOL0     H37789   3.827  10.705   1.214  1.1744 -2.6828  4.0672
  280MOL0     H37790   3.800  10.479   1.224  0.1759 -2.3528  0.9218
  280MOL0     H37791   3.782  10.520   1.046  2.6391  0.5952  0.3973
  280MOL0     H37792   3.896  10.253   1.143  4.5552  3.9336 -0.9236
  280MOL0     H37793   3.868  10.298   0.984  0.9442  0.2018  0.4526
  280MOL0     H37794   3.693  10.160   1.030  1.0287  0.3612 -0.9329
  280MOL0     H37795   3.612  10.315   1.053  1.3059 -0.5678 -0.3378
  280MOL0     H37796   3.740  10.182   1.301  0.2026 -0.0802 -0.2702
  280MOL0     H37797   3.591  10.128   1.246  1.9258 -1.1733  1.0293
  280MOL0     H37798   3.506  10.537   1.345  1.4988  0.2541 -0.1585
  280MOL0     H37799   4.210  10.555   1.102 -3.3141 -0.5362 -4.3311
  280MOL0     H37800   4.326  10.760   1.202 -1.3702  2.3426 -1.6752
  281MOL0     O37801   9.966   3.812   2.024  0.1073 -0.0025 -0.1822
  281MOL0     C37802   9.933   3.877   1.920  1.0394  0.1163 -0.6842
  281MOL0     O37803   9.838   3.980   1.913 -1.1399 -0.3444  0.6169
  281MOL0     C37804   9.767   4.018   2.021  0.2347 -0.2307  0.2065
  281MOL0     C37805   9.730   4.157   2.022  1.1034  0.1051 -0.0383
  281MOL0     C37806   9.635   4.204   2.118 -0.1312  0.0632 -0.2486
  281MOL0     C37807   9.591   4.116   2.213 -0.2373 -0.1438  0.0220
  281MOL0     O37808   9.494   4.164   2.308 -0.2297  0.9416  0.4279
  281MOL0     C37809   9.488   4.099   2.431  0.2420  0.0178  0.2048
  281MOL0     C37810   9.367   4.011   2.425  0.7279  1.1126  0.2042
  281MOL0     C37811   9.321   3.937   2.555 -0.1303  0.1505  0.7501
  281MOL0     C37812   9.428   3.834   2.598 -0.1823 -0.0370  0.0447
  281MOL0     C37813   9.374   3.720   2.692 -0.2142  0.3551 -0.3700
  281MOL0     C37814   9.329   3.775   2.826  0.5102 -0.2239 -0.3437
  281MOL0     C37815   9.426   3.786   2.942 -0.1066  0.1266  0.2996
  281MOL0     C37816   9.395   3.889   3.050 -1.0727 -0.0865  0.1347
  281MOL0     N37817   9.522   3.922   3.121 -0.4322  0.4247  0.6993
  281MOL0     C37818   9.591   3.838   3.201  0.0487  0.5879  0.1970
  281MOL0     C37819   9.716   3.906   3.208  0.7340  1.3519  0.2995
  281MOL0     C37820   9.824   3.822   3.268 -0.2957 -0.3848 -0.5870
  281MOL0     C37821   9.908   3.906   3.364  0.2474 -0.0639 -0.7649
  281MOL0     C37822  10.049   3.861   3.387  0.0210 -0.3300 -0.7964
  281MOL0     C37823  10.148   3.946   3.301 -0.1057 -0.7059  0.5020
  281MOL0     O37824  10.100   3.939   3.168  0.1872  0.6765  0.0366
  281MOL0     C37825  10.183   3.878   3.069  1.2396 -1.2328  0.8588
  281MOL0     C37826  10.316   3.901   3.045  1.0929  1.0907  0.2923
  281MOL0     C37827  10.398   3.844   2.944  0.3715 -0.0746  0.2671
  281MOL0     C37828  10.545   3.892   2.936  0.6708 -1.3802 -0.0376
  281MOL0     C37829  10.330   3.759   2.851  0.1089  0.0161 -0.4153
  281MOL0     C37830  10.395   3.666   2.751 -0.8323 -0.3338 -0.3719
  281MOL0     O37831  10.317   3.592   2.672 -0.4007 -0.5971  0.0924
  281MOL0     C37832  10.375   3.511   2.578 -1.0181  0.4455 -0.2574
  281MOL0     C37833  10.433   3.563   2.458 -1.1893 -0.5837  0.3245
  281MOL0     C37834  10.482   3.470   2.359 -0.6638 -0.4329  0.6320
  281MOL0     C37835  10.483   3.333   2.381 -1.1987 -0.4480  0.3001
  281MOL0     O37836  10.535   3.260   2.271  0.3592 -0.5121 -1.1322
  281MOL0     C37837  10.630   3.154   2.290  0.6515  0.4403 -0.4156
  281MOL0     C37838  10.605   3.033   2.203  1.2921  1.1795  0.0829
  281MOL0     C37839  10.699   2.918   2.249  0.3027  1.3844 -0.0062
  281MOL0     C37840  10.647   2.842   2.377  0.2659 -0.5791 -0.6110
  281MOL0     C37841  10.736   2.731   2.414  0.4064  0.0236  0.6535
  281MOL0     C37842  10.681   2.649   2.537  0.3519  0.8082 -0.3165
  281MOL0     C37843  10.769   2.526   2.548  0.1262 -0.0627  0.0524
  281MOL0     C37844  10.741   2.435   2.657 -0.4824 -0.5435 -0.7962
  281MOL0    Cl37845  10.618   2.308   2.624 -0.2556  0.1378 -0.8191
  281MOL0     C37846  10.428   3.286   2.498  0.6719  0.0605 -0.4268
  281MOL0     C37847  10.376   3.370   2.595 -0.5480  0.3346 -0.1492
  281MOL0     O37848  10.515   3.655   2.759  0.0749  0.7845  0.4131
  281MOL0     C37849  10.188   3.749   2.859 -0.2740 -0.3712 -0.1220
  281MOL0     C37850  10.116   3.800   2.964  0.6085 -1.3684 -0.8341
  281MOL0     N37851   9.708   4.028   3.150  0.0913  0.3287  0.3544
  281MOL0     N37852   9.590   4.029   3.096  1.1341 -0.0025 -0.0699
  281MOL0     C37853   9.639   3.982   2.222 -0.9465 -0.9003  0.0585
  281MOL0     C37854   9.716   3.928   2.118  0.0743 -0.7217 -0.5406
  281MOL0     C37855   9.973   3.814   1.798 -0.9788  0.5933 -0.4455
  281MOL0     C37856   9.975   3.890   1.674 -0.1581  0.7300  0.5012
  281MOL0     C37857  10.020   3.826   1.554 -0.3922  0.2494 -0.5272
  281MOL0     C37858  10.076   3.691   1.557 -0.1587 -0.1762 -0.1071
  281MOL0     O37859  10.145   3.643   1.444 -1.0505  0.3493 -0.2234
  281MOL0     C37860  10.149   3.506   1.411  0.3139 -0.0286  0.2160
  281MOL0     C37861  10.235   3.497   1.277  0.1873 -0.7659 -0.1422
  281MOL0     C37862  10.379   3.540   1.294  0.3384  0.3927 -0.1037
  281MOL0     C37863  10.407   3.690   1.298 -0.1122  0.7080 -0.4981
  281MOL0     C37864  10.336   3.780   1.198 -0.3545 -0.3152  0.9765
  281MOL0     C37865  10.275   3.852   1.123  0.2505  0.9457 -0.6792
  281MOL0     C37866  10.079   3.626   1.688 -1.1422 -0.2105  0.4304
  281MOL0     C37867  10.030   3.684   1.800 -0.2003  0.5619 -0.5519
  281MOL0     H37868   9.755   4.219   1.937  0.4678 -0.3238 -0.5555
  281MOL0     H37869   9.593   4.304   2.113 -0.2365  0.3317  3.5907
  281MOL0     H37870   9.582   4.047   2.455  1.6022  2.2339 -0.0750
  281MOL0     H37871   9.467   4.168   2.512 -1.7400 -0.4320  0.1386
  281MOL0     H37872   9.293   4.090   2.405  2.5476  3.3224  1.7162
  281MOL0     H37873   9.382   3.936   2.348 -0.4998  0.7671  0.2779
  281MOL0     H37874   9.294   4.000   2.640  1.1385  0.6102  0.8423
  281MOL0     H37875   9.223   3.896   2.530 -0.9232  1.7258  1.1792
  281MOL0     H37876   9.472   3.783   2.511  1.1260  1.4009 -0.1880
  281MOL0     H37877   9.519   3.878   2.639  0.3419 -0.5901 -0.4917
  281MOL0     H37878   9.298   3.661   2.639  1.9320 -3.1779  0.1244
  281MOL0     H37879   9.451   3.647   2.721 -1.5756 -1.6276 -1.4834
  281MOL0     H37880   9.283   3.874   2.821  0.8756  0.1948  2.6178
  281MOL0     H37881   9.248   3.709   2.857 -0.7130  0.4779 -1.9250
  281MOL0     H37882   9.432   3.688   2.989 -2.9301 -1.7207 -2.8063
  281MOL0     H37883   9.519   3.812   2.890  0.5587 -3.1354 -0.3172
  281MOL0     H37884   9.330   3.839   3.122  1.0407 -1.3142  1.2996
  281MOL0     H37885   9.361   3.978   2.995 -1.2113 -1.2332 -1.7263
  281MOL0     H37886   9.560   3.740   3.233  1.1102  0.2958  0.3788
  281MOL0     H37887   9.776   3.739   3.321  1.7056  0.0650  2.1684
  281MOL0     H37888   9.878   3.776   3.185  0.1321 -0.1761 -0.4278
  281MOL0     H37889   9.849   3.914   3.456 -1.2959  2.7983 -1.8771
  281MOL0     H37890   9.916   4.007   3.325 -0.2777  0.6610  0.9335
  281MOL0     H37891  10.070   3.755   3.367  0.0310 -0.5561  0.3372
  281MOL0     H37892  10.083   3.861   3.491 -0.7550 -0.5977 -0.5419
  281MOL0     H37893  10.250   3.909   3.310 -0.9217 -2.6090  6.0127
  281MOL0     H37894  10.161   4.051   3.326 -2.0831 -0.2245 -0.2474
  281MOL0     H37895  10.349   3.969   3.123  0.1550  1.0930  0.7080
  281MOL0     H37896  10.610   3.809   2.965 -0.4488 -2.6650 -1.0744
  281MOL0     H37897  10.565   3.916   2.831  3.4322  1.3086  0.9623
  281MOL0     H37898  10.551   3.983   2.997 -2.3240  1.3414 -3.4124
  281MOL0     H37899  10.431   3.668   2.430 -1.2666 -0.7185 -0.1689
  281MOL0     H37900  10.517   3.486   2.257  2.6737 -1.4346  1.4626
  281MOL0     H37901  10.731   3.197   2.278  0.2120  2.1603  1.4287
  281MOL0     H37902  10.622   3.123   2.395  2.4957  2.5336  0.4393
  281MOL0     H37903  10.502   2.997   2.209  2.2493 -1.4804  2.2618
  281MOL0     H37904  10.644   3.059   2.104 -2.0473  1.3030 -1.3465
  281MOL0     H37905  10.797   2.960   2.274  0.6480 -0.1343  1.4169
  281MOL0     H37906  10.715   2.844   2.170  3.9424  2.1400 -0.1800
  281MOL0     H37907  10.642   2.915   2.458 -1.0083  0.2361 -1.3950
  281MOL0     H37908  10.545   2.804   2.370 -0.7003  1.5202  1.1321
  281MOL0     H37909  10.838   2.767   2.430  0.1697  1.5058 -0.8779
  281MOL0     H37910  10.750   2.661   2.331  0.3719  0.9808 -0.1738
  281MOL0     H37911  10.655   2.712   2.623 -1.8057  1.1204 -1.1421
  281MOL0     H37912  10.591   2.595   2.509  0.2690  0.6044  0.3413
  281MOL0     H37913  10.874   2.555   2.555 -0.2439  0.9281  4.3977
  281MOL0     H37914  10.754   2.469   2.455 -0.9369  2.1287 -1.1884
  281MOL0     H37915  10.704   2.489   2.744 -1.3518 -1.9980 -0.2268
  281MOL0     H37916  10.839   2.388   2.670 -0.8886 -1.2188 -0.1254
  281MOL0     H37917  10.422   3.181   2.525  0.9780 -0.5670 -2.5774
  281MOL0     H37918  10.321   3.326   2.678 -1.7435  0.5163 -0.8137
  281MOL0     H37919  10.139   3.683   2.789  2.6745 -1.2303 -1.5557
  281MOL0     H37920  10.008   3.803   2.979  0.5727 -0.5289 -1.1827
  281MOL0     H37921   9.597   3.921   2.301 -1.9590  1.0418  1.0837
  281MOL0     H37922   9.732   3.821   2.104  1.3482 -0.6474  0.1452
  281MOL0     H37923   9.952   3.995   1.657 -0.2823  0.7054  0.5152
  281MOL0     H37924  10.028   3.887   1.465  2.3344  2.1181  0.8895
  281MOL0     H37925  10.189   3.447   1.495  5.3597 -2.0386 -3.1137
  281MOL0     H37926  10.048   3.472   1.383  0.1818 -0.2517  0.9363
  281MOL0     H37927  10.185   3.548   1.194  0.0126 -1.9615 -0.7999
  281MOL0     H37928  10.219   3.397   1.236  0.0198 -0.2734 -1.3325
  281MOL0     H37929  10.435   3.499   1.210 -2.0638 -3.4001 -0.0941
  281MOL0     H37930  10.416   3.483   1.380  3.8868 -0.5140 -2.0447
  281MOL0     H37931  10.515   3.709   1.307  0.6681 -3.0014 -0.2954
  281MOL0     H37932  10.382   3.727   1.398  0.7043  1.7680 -0.6677
  281MOL0     H37933  10.230   3.923   1.056  2.4429  2.5603 -0.5712
  281MOL0     H37934  10.127   3.534   1.719 -0.9077  0.7640  3.2152
  281MOL0     H37935  10.043   3.615   1.883  0.2603 -1.3678 -2.1537
  282MOL0     O37936   6.659   7.766   7.278 -0.8889  0.5405 -0.1085
  282MOL0     C37937   6.657   7.833   7.385 -0.2212 -0.0667  0.0503
  282MOL0     O37938   6.572   7.924   7.431  0.1730  0.6877  0.2785
  282MOL0     C37939   6.485   8.000   7.350  0.7456 -0.0587 -0.4037
  282MOL0     C37940   6.483   8.139   7.370 -0.0003  0.8096 -0.4984
  282MOL0     C37941   6.408   8.221   7.288 -0.2337  0.6960 -0.3286
  282MOL0     C37942   6.329   8.163   7.188 -0.4232  0.3673  0.7277
  282MOL0     O37943   6.263   8.256   7.118  0.7264  0.1925  0.5970
  282MOL0     C37944   6.259   8.241   6.969 -0.1636 -0.6300  0.0018
  282MOL0     C37945   6.176   8.354   6.900 -0.7300  0.1844  0.8603
  282MOL0     C37946   6.029   8.326   6.859 -0.0849  0.3591  0.2283
  282MOL0     C37947   6.014   8.217   6.758  0.1291  0.9939  0.5917
  282MOL0     C37948   5.867   8.186   6.723 -0.6240 -0.2005  0.8075
  282MOL0     C37949   5.837   8.167   6.575 -0.6919 -0.3574 -0.1328
  282MOL0     C37950   5.865   8.284   6.487  0.1334 -0.0175 -0.1007
  282MOL0     C37951   5.829   8.250   6.336  0.3323  0.9881  0.5615
  282MOL0     N37952   5.698   8.191   6.312 -0.8244  0.8567 -0.1660
  282MOL0     C37953   5.685   8.060   6.280  0.0812 -0.5466 -0.4437
  282MOL0     C37954   5.553   8.028   6.278  0.5176 -0.0913 -1.1595
  282MOL0     C37955   5.476   7.904   6.232 -0.2934 -0.4124 -0.2342
  282MOL0     C37956   5.401   7.836   6.354 -0.2585 -0.2969 -0.5388
  282MOL0     C37957   5.287   7.745   6.322  1.0920 -0.5356  0.4138
  282MOL0     C37958   5.185   7.831   6.243  0.3598  0.5040  0.5762
  282MOL0     O37959   5.055   7.761   6.241  0.1830 -0.2783  0.6527
  282MOL0     C37960   4.970   7.788   6.139 -0.3439  0.7908  0.3769
  282MOL0     C37961   4.964   7.895   6.056  0.7122 -0.0410 -0.2426
  282MOL0     C37962   4.867   7.910   5.963 -0.5665 -0.4204  0.9347
  282MOL0     C37963   4.877   8.041   5.881 -0.6358 -0.7493 -0.3792
  282MOL0     C37964   4.787   7.799   5.932 -0.1931  0.7750  0.3477
  282MOL0     C37965   4.688   7.783   5.825  1.1875  0.0899  0.0459
  282MOL0     O37966   4.588   7.693   5.831  0.0509 -0.1764  0.0737
  282MOL0     C37967   4.486   7.672   5.743 -0.2981  0.2181 -0.1115
  282MOL0     C37968   4.464   7.730   5.616 -0.5229  0.6924  0.1144
  282MOL0     C37969   4.352   7.704   5.542 -0.2825 -0.0423  0.1599
  282MOL0     C37970   4.247   7.617   5.589  1.0992  0.2855 -1.0331
  282MOL0     O37971   4.131   7.600   5.513 -0.2234  0.3609  0.7237
  282MOL0     C37972   4.151   7.469   5.463 -0.1670  0.3807  0.5738
  282MOL0     C37973   4.046   7.429   5.355 -0.7524  0.1317 -1.1406
  282MOL0     C37974   4.056   7.298   5.285  0.5742  0.8548  0.6621
  282MOL0     C37975   4.046   7.186   5.400 -0.6415  0.5166  0.3118
  282MOL0     C37976   4.061   7.051   5.330 -0.5726 -0.5659 -0.0204
  282MOL0     C37977   3.981   6.942   5.401 -0.3262 -1.1183  0.4874
  282MOL0     C37978   3.984   6.805   5.310 -0.6624 -0.1865  0.2944
  282MOL0     C37979   4.105   6.715   5.350 -0.0996 -0.4016  0.6768
  282MOL0    Cl37980   4.118   6.679   5.531  0.0748  0.1039 -0.2408
  282MOL0     C37981   4.274   7.551   5.709  0.2227 -0.2930  0.0449
  282MOL0     C37982   4.393   7.576   5.784  0.1573  0.9732  0.4619
  282MOL0     O37983   4.703   7.863   5.738  0.1809 -0.2521  0.8104
  282MOL0     C37984   4.789   7.688   6.015 -0.0683  0.2913 -0.1437
  282MOL0     C37985   4.885   7.676   6.119  0.1825 -1.0310 -0.8293
  282MOL0     N37986   5.484   8.142   6.301  0.4801  0.0023  0.0225
  282MOL0     N37987   5.570   8.237   6.329 -0.0407 -0.4312  0.2095
  282MOL0     C37988   6.323   8.023   7.163 -0.5176  0.3405  0.6245
  282MOL0     C37989   6.406   7.945   7.246 -0.2186 -0.4710 -0.2727
  282MOL0     C37990   6.755   7.790   7.490 -0.7293  0.3361  0.1638
  282MOL0     C37991   6.886   7.769   7.477  0.1150 -0.0704  0.2434
  282MOL0     C37992   6.969   7.752   7.596  0.2023  0.5519  0.5183
  282MOL0     C37993   6.920   7.752   7.721 -0.4899 -0.0497  0.0604
  282MOL0     O37994   6.995   7.730   7.840  0.6383  0.4411  0.3604
  282MOL0     C37995   7.098   7.628   7.834  0.1549 -0.1210  0.4952
  282MOL0     C37996   7.122   7.600   7.979 -0.6479  0.2481  0.8060
  282MOL0     C37997   7.021   7.517   8.055  0.3659  0.3454  0.6228
  282MOL0     C37998   6.927   7.613   8.136  0.2282  0.0542  0.2929
  282MOL0     C37999   6.830   7.516   8.185 -0.3771 -0.3249 -0.0630
  282MOL0     C38000   6.755   7.439   8.232  0.2959 -0.2489  0.0720
  282MOL0     C38001   6.781   7.766   7.729  0.0878  0.1504 -0.3857
  282MOL0     C38002   6.698   7.781   7.616  0.0462 -0.2052 -0.5974
  282MOL0     H38003   6.543   8.179   7.451  1.9281  1.3152 -2.0914
  282MOL0     H38004   6.395   8.328   7.301 -0.2474  0.4221  2.6919
  282MOL0     H38005   6.365   8.251   6.942  0.2894 -2.8399  0.7834
  282MOL0     H38006   6.224   8.140   6.947 -2.0591  0.3389 -1.8194
  282MOL0     H38007   6.179   8.430   6.980 -0.4823 -0.8838  1.8953
  282MOL0     H38008   6.226   8.389   6.809 -2.6077  0.8380  0.0367
  282MOL0     H38009   5.968   8.287   6.942  1.0730 -3.0890 -0.3787
  282MOL0     H38010   5.981   8.420   6.834 -1.9844 -0.7603 -0.5757
  282MOL0     H38011   6.082   8.234   6.675 -0.7633 -0.2838 -0.4533
  282MOL0     H38012   6.046   8.121   6.801 -0.2054  1.0036  0.8744
  282MOL0     H38013   5.827   8.101   6.779  1.7203 -2.2875 -0.4811
  282MOL0     H38014   5.814   8.278   6.750 -0.9746 -0.5220  1.2079
  282MOL0     H38015   5.902   8.089   6.536  0.5009 -0.1478  1.3306
  282MOL0     H38016   5.734   8.137   6.555 -1.1734 -0.9724  2.8194
  282MOL0     H38017   5.806   8.368   6.526 -0.5643  0.7785 -2.6757
  282MOL0     H38018   5.971   8.308   6.484 -0.0910  1.2869  1.3291
  282MOL0     H38019   5.904   8.183   6.292 -0.8334 -2.2648  3.1326
  282MOL0     H38020   5.841   8.351   6.294 -2.3285  0.6610 -1.2334
  282MOL0     H38021   5.762   7.985   6.266 -2.0232 -3.1522  0.7187
  282MOL0     H38022   5.411   7.941   6.152 -3.8357  1.8860  3.3347
  282MOL0     H38023   5.539   7.823   6.194 -2.1397 -0.6460 -3.0403
  282MOL0     H38024   5.357   7.917   6.413  1.7128 -0.0812  0.7025
  282MOL0     H38025   5.471   7.792   6.425 -0.4960  0.7311  0.3548
  282MOL0     H38026   5.238   7.704   6.411 -1.7293 -2.2690 -1.7639
  282MOL0     H38027   5.315   7.658   6.262  1.6232 -1.4516  1.9270
  282MOL0     H38028   5.207   7.838   6.137 -0.6084  1.7109  0.4279
  282MOL0     H38029   5.174   7.933   6.283  0.9735 -0.5439  3.7640
  282MOL0     H38030   5.038   7.970   6.082  3.3384 -1.9365 -1.6293
  282MOL0     H38031   4.933   8.018   5.790  1.6516 -3.7176  1.5719
  282MOL0     H38032   4.776   8.076   5.862 -0.3398 -0.7296 -2.0978
  282MOL0     H38033   4.916   8.131   5.930 -6.0182  3.0854 -2.1564
  282MOL0     H38034   4.530   7.807   5.576  0.1908  0.6755  1.1961
  282MOL0     H38035   4.340   7.752   5.445  0.2586  1.2817  0.7276
  282MOL0     H38036   4.250   7.456   5.419  0.2859  0.2753  1.5947
  282MOL0     H38037   4.156   7.386   5.535 -0.9261 -0.4498 -0.3021
  282MOL0     H38038   3.941   7.435   5.383 -0.8599  0.7490 -1.6368
  282MOL0     H38039   4.069   7.501   5.276  2.5767  0.2513 -0.2356
  282MOL0     H38040   4.145   7.286   5.222 -1.9443 -2.7443 -2.6751
  282MOL0     H38041   3.970   7.297   5.219  1.2263  0.5283 -0.1999
  282MOL0     H38042   4.133   7.179   5.465 -0.0655 -4.5475 -0.6109
  282MOL0     H38043   3.963   7.207   5.468  0.5897  0.2839  1.9315
  282MOL0     H38044   4.163   7.012   5.329 -0.4796 -0.6167 -3.9415
  282MOL0     H38045   4.035   7.065   5.224  0.2250 -1.8838 -0.4172
  282MOL0     H38046   4.033   6.927   5.495  4.7733  0.9315 -1.6374
  282MOL0     H38047   3.876   6.969   5.418 -0.6044 -2.0985  0.3605
  282MOL0     H38048   3.972   6.821   5.202 -1.6042  0.1213  0.4378
  282MOL0     H38049   3.895   6.746   5.331 -0.4396 -0.8720 -0.6100
  282MOL0     H38050   4.188   6.783   5.328 -1.9381  1.3469 -1.3356
  282MOL0     H38051   4.100   6.626   5.288 -2.2354  0.5705 -0.6741
  282MOL0     H38052   4.193   7.488   5.743 -0.8659  1.4374  0.8230
  282MOL0     H38053   4.392   7.527   5.881 -0.6250  2.0674  1.0300
  282MOL0     H38054   4.724   7.604   5.991 -0.7795  1.3691 -2.2517
  282MOL0     H38055   4.889   7.586   6.179 -1.8038  1.3564  3.3832
  282MOL0     H38056   6.253   7.975   7.095  2.7495 -2.4095 -1.1034
  282MOL0     H38057   6.408   7.838   7.226  0.4279 -0.5891  0.3776
  282MOL0     H38058   6.935   7.777   7.380 -0.8090 -3.6604 -0.6584
  282MOL0     H38059   7.076   7.748   7.575 -0.1656  1.9919 -1.9872
  282MOL0     H38060   7.059   7.544   7.777 -3.5314  2.8352 -1.8750
  282MOL0     H38061   7.181   7.673   7.778  0.8063  0.8217  2.1584
  282MOL0     H38062   7.139   7.696   8.029 -1.5042  1.0966 -0.4631
  282MOL0     H38063   7.216   7.545   7.989 -0.2887  0.7831  0.4278
  282MOL0     H38064   7.076   7.455   8.126  1.5391  2.8845  2.0320
  282MOL0     H38065   6.964   7.451   7.988 -0.6816  0.5713  1.2615
  282MOL0     H38066   6.866   7.677   8.073  0.8142  0.2404 -0.0842
  282MOL0     H38067   6.984   7.658   8.218  2.4233 -2.4431  0.2772
  282MOL0     H38068   6.690   7.363   8.271 -0.8321  1.1560  1.0287
  282MOL0     H38069   6.731   7.744   7.823  0.8660 -4.0386 -0.7374
  282MOL0     H38070   6.592   7.785   7.640  0.4590 -0.7861  1.5157
  283MOL0     O38071  11.199   2.227   6.550  0.2109 -0.4280 -0.1393
  283MOL0     C38072  11.241   2.245   6.668  0.2634  0.2535  1.3084
  283MOL0     O38073  11.181   2.315   6.761 -0.0044  0.3601 -1.1476
  283MOL0     C38074  11.100   2.423   6.719 -0.3220 -0.2094  0.3587
  283MOL0     C38075  11.012   2.423   6.606  0.2953  0.4848 -0.2442
  283MOL0     C38076  10.935   2.539   6.574 -0.1582  0.6970 -0.3391
  283MOL0     C38077  10.939   2.648   6.662  0.2337  0.6735  0.3464
  283MOL0     O38078  10.862   2.759   6.651  0.3236 -0.0826 -0.2106
  283MOL0     C38079  10.895   2.841   6.531  0.8555  0.4396  0.4572
  283MOL0     C38080  10.984   2.954   6.585  0.2272  0.1072 -0.2200
  283MOL0     C38081  10.895   3.043   6.670 -0.5553 -0.3404  0.6528
  283MOL0     C38082  10.971   3.167   6.714  0.7421 -0.5445  0.3522
  283MOL0     C38083  10.898   3.260   6.817 -0.5801 -0.1850 -1.0964
  283MOL0     C38084  10.997   3.374   6.857  0.4207  0.3403  0.8412
  283MOL0     C38085  10.931   3.469   6.954  0.4368  0.4873  0.8925
  283MOL0     C38086  11.026   3.589   6.976  0.2659  0.2213 -0.3677
  283MOL0     N38087  11.056   3.661   6.858 -0.1170 -0.3129  0.5684
  283MOL0     C38088  11.190   3.689   6.824  0.4577  0.4101 -0.4004
  283MOL0     C38089  11.177   3.763   6.712 -0.7551  0.1931 -0.6626
  283MOL0     C38090  11.297   3.826   6.652  1.1817  0.8173 -0.1798
  283MOL0     C38091  11.414   3.733   6.626 -0.6216  0.7020  0.4405
  283MOL0     C38092  11.502   3.792   6.522 -0.2515 -0.3894  0.4246
  283MOL0     C38093  11.652   3.756   6.521 -0.1768  0.1152 -0.7593
  283MOL0     O38094  11.698   3.763   6.653  0.6621  0.8261  0.0059
  283MOL0     C38095  11.702   3.886   6.706 -0.4230  0.3447 -0.0872
  283MOL0     C38096  11.627   3.921   6.825 -0.0747  0.3218  0.1395
  283MOL0     C38097  11.634   4.057   6.869 -0.2879 -0.3517 -0.6038
  283MOL0     C38098  11.543   4.071   6.983 -0.5011 -0.3631 -0.0752
  283MOL0     C38099  11.706   4.153   6.792 -0.1995 -0.2855 -0.8624
  283MOL0     C38100  11.707   4.305   6.817  0.7365  0.4859 -0.3667
  283MOL0     O38101  11.741   4.384   6.715 -0.7980 -0.3485  0.5419
  283MOL0     C38102  11.708   4.516   6.721 -0.9313 -0.6123 -0.6117
  283MOL0     C38103  11.814   4.612   6.725 -0.7197 -0.1186 -1.0979
  283MOL0     C38104  11.796   4.745   6.704 -0.4811  0.8286  0.0353
  283MOL0     C38105  11.665   4.786   6.674  0.7583 -0.1836  0.3587
  283MOL0     O38106  11.640   4.914   6.654 -0.5514  0.0836 -0.1075
  283MOL0     C38107  11.735   4.995   6.571 -0.1092  0.2840  0.0686
  283MOL0     C38108  11.667   5.123   6.507 -0.5549  1.2827 -0.9784
  283MOL0     C38109  11.562   5.070   6.398 -0.1674  0.3880  0.2766
  283MOL0     C38110  11.422   5.043   6.447 -0.2149 -0.6587 -0.7678
  283MOL0     C38111  11.316   5.089   6.339 -0.2722 -0.1943 -1.3591
  283MOL0     C38112  11.172   5.107   6.398  0.5717 -0.0959  0.2497
  283MOL0     C38113  11.067   5.082   6.291 -0.3030 -0.7961 -0.1782
  283MOL0     C38114  10.928   5.082   6.360  0.1290 -0.4079  0.0164
  283MOL0    Cl38115  10.880   5.253   6.343 -0.2870 -0.3237 -0.5965
  283MOL0     C38116  11.561   4.705   6.685  0.4981 -0.4499  0.9525
  283MOL0     C38117  11.581   4.566   6.702 -0.3471 -1.4919  0.3869
  283MOL0     O38118  11.676   4.346   6.929  0.1133  0.2610 -0.2446
  283MOL0     C38119  11.789   4.106   6.691 -1.1301 -0.1849  0.5936
  283MOL0     C38120  11.789   3.976   6.647  0.5743 -1.0688  0.1123
  283MOL0     N38121  11.044   3.786   6.688 -0.6991  0.3025  0.0174
  283MOL0     N38122  10.974   3.732   6.782  0.1486 -0.6588 -0.3287
  283MOL0     C38123  11.025   2.646   6.774  0.2707  0.0493  0.4571
  283MOL0     C38124  11.103   2.531   6.801  0.1256 -0.4636 -0.7105
  283MOL0     C38125  11.365   2.174   6.703  0.0337 -0.0087 -0.2436
  283MOL0     C38126  11.437   2.087   6.617  0.7659 -0.5008 -0.1451
  283MOL0     C38127  11.553   2.027   6.657 -0.4089 -0.2350  0.4701
  283MOL0     C38128  11.613   2.049   6.776 -0.2661 -0.1256  0.1535
  283MOL0     O38129  11.727   1.991   6.802  0.5482 -0.0910  0.6509
  283MOL0     C38130  11.783   1.999   6.935  0.2093 -0.2462 -0.3799
  283MOL0     C38131  11.892   2.104   6.950 -0.1422 -0.8036 -0.7088
  283MOL0     C38132  11.980   2.088   7.071 -0.1754 -0.3767 -0.3177
  283MOL0     C38133  12.087   2.195   7.074 -0.0241  0.0991  0.0917
  283MOL0     C38134  12.211   2.165   7.157 -0.1175 -0.2352  0.6862
  283MOL0     C38135  12.317   2.139   7.209  0.6775  0.8124  0.1739
  283MOL0     C38136  11.553   2.148   6.851  0.7295 -0.0819  0.0140
  283MOL0     C38137  11.432   2.206   6.818 -0.3441 -0.8753  0.3559
  283MOL0     H38138  11.010   2.333   6.545 -2.4747  0.3529 -0.0453
  283MOL0     H38139  10.870   2.532   6.488 -1.5537  0.7928  0.6588
  283MOL0     H38140  10.952   2.784   6.457  1.6408  3.0030 -1.0450
  283MOL0     H38141  10.806   2.881   6.481 -0.2652 -0.6627  1.5124
  283MOL0     H38142  11.078   2.917   6.628  0.7378  0.7158 -0.7786
  283MOL0     H38143  11.015   3.020   6.503 -0.7917  0.8348 -0.0363
  283MOL0     H38144  10.803   3.076   6.621 -2.0667 -2.2474  2.0720
  283MOL0     H38145  10.873   2.987   6.761 -1.0224  0.0052  0.7568
  283MOL0     H38146  11.067   3.133   6.753  0.0754 -1.3285  1.3831
  283MOL0     H38147  10.999   3.228   6.628  2.2645 -1.9656 -0.2108
  283MOL0     H38148  10.817   3.306   6.761 -0.6652 -0.8119 -1.4972
  283MOL0     H38149  10.859   3.209   6.906  1.2250  1.3209  0.6523
  283MOL0     H38150  11.085   3.328   6.904  0.1144 -0.3480  0.7539
  283MOL0     H38151  11.024   3.432   6.769 -1.2126 -1.5101 -1.0042
  283MOL0     H38152  10.843   3.501   6.898  2.3810  0.0549 -2.6952
  283MOL0     H38153  10.892   3.433   7.050 -2.3380  1.1406  0.1188
  283MOL0     H38154  11.118   3.556   7.024 -0.6140 -0.8404  0.6369
  283MOL0     H38155  10.982   3.658   7.048 -0.4946  0.6226 -1.1855
  283MOL0     H38156  11.281   3.668   6.881 -0.4824 -0.8507  0.7246
  283MOL0     H38157  11.265   3.872   6.558 -1.4827  0.4647  0.4622
  283MOL0     H38158  11.338   3.898   6.724 -1.3068 -0.6798  3.0148
  283MOL0     H38159  11.372   3.648   6.571  1.9127 -0.2106 -0.2372
  283MOL0     H38160  11.460   3.691   6.716  1.6263 -0.5325 -1.2049
  283MOL0     H38161  11.490   3.900   6.540 -5.6530 -0.6036 -0.2108
  283MOL0     H38162  11.464   3.770   6.422  0.3093  0.0831  0.0959
  283MOL0     H38163  11.701   3.826   6.453 -0.5611  0.5510 -0.5973
  283MOL0     H38164  11.660   3.654   6.483  0.7405  0.6493 -2.0936
  283MOL0     H38165  11.588   3.840   6.885  0.8362 -1.7920 -1.9432
  283MOL0     H38166  11.565   4.161   7.041 -0.2329 -1.6190  1.8450
  283MOL0     H38167  11.440   4.076   6.945  0.1518 -0.0860 -1.9127
  283MOL0     H38168  11.549   3.991   7.057 -1.6519  1.3959  2.0532
  283MOL0     H38169  11.917   4.579   6.739 -1.3399 -1.9563 -0.5566
  283MOL0     H38170  11.885   4.807   6.697 -0.3505  0.4537 -2.4332
  283MOL0     H38171  11.822   5.029   6.628 -0.6382 -0.2744  1.2395
  283MOL0     H38172  11.779   4.934   6.492 -1.0433 -1.6158  0.9617
  283MOL0     H38173  11.629   5.201   6.572 -0.8713  1.6490 -1.5929
  283MOL0     H38174  11.746   5.178   6.454 -0.1649  2.3661  0.6583
  283MOL0     H38175  11.603   4.977   6.356 -0.7885 -0.9697  2.5484
  283MOL0     H38176  11.550   5.138   6.313 -1.6187  0.6734  0.6832
  283MOL0     H38177  11.413   4.936   6.466  5.9537 -2.4182 -4.7318
  283MOL0     H38178  11.392   5.108   6.529  1.3991  3.1314 -2.8971
  283MOL0     H38179  11.304   5.015   6.260 -1.5708 -1.9523  0.3727
  283MOL0     H38180  11.350   5.183   6.293  0.8015 -0.5257 -1.2743
  283MOL0     H38181  11.143   5.044   6.483 -2.2875 -1.9623 -1.9447
  283MOL0     H38182  11.159   5.206   6.443 -0.2899 -0.0747 -0.0324
  283MOL0     H38183  11.076   4.982   6.247 -2.8018 -1.5900  0.9553
  283MOL0     H38184  11.075   5.162   6.218  1.7716 -1.3892 -0.6857
  283MOL0     H38185  10.937   5.061   6.467  0.8541 -0.9765 -0.1427
  283MOL0     H38186  10.863   5.013   6.306 -0.1788  0.2638 -0.4879
  283MOL0     H38187  11.461   4.739   6.660  0.9652 -0.4838 -1.1754
  283MOL0     H38188  11.489   4.509   6.693 -0.9562 -0.6310  0.9457
  283MOL0     H38189  11.863   4.159   6.632 -0.4937  0.2526  1.7557
  283MOL0     H38190  11.866   3.949   6.575  1.1148  2.5874 -0.8726
  283MOL0     H38191  11.031   2.730   6.842 -0.4502 -0.7353  1.5237
  283MOL0     H38192  11.168   2.530   6.888 -1.6154 -0.4465  0.6578
  283MOL0     H38193  11.405   2.089   6.514  2.1711  4.1966 -0.7406
  283MOL0     H38194  11.590   1.956   6.583  0.6747 -2.4509  2.9743
  283MOL0     H38195  11.692   2.015   6.993 -0.0928  1.3169 -1.2438
  283MOL0     H38196  11.814   1.897   6.961 -2.4325 -1.0748 -0.2305
  283MOL0     H38197  11.851   2.205   6.952  0.2904 -0.6075  2.2630
  283MOL0     H38198  11.956   2.091   6.863 -0.8092  2.2550 -1.7831
  283MOL0     H38199  12.029   1.991   7.057 -0.7959 -1.1504  2.3548
  283MOL0     H38200  11.917   2.092   7.160 -1.7498  1.8292 -1.4498
  283MOL0     H38201  12.042   2.279   7.128  0.4497  0.6952 -0.4194
  283MOL0     H38202  12.127   2.219   6.975  1.1253 -0.7927  0.3119
  283MOL0     H38203  12.408   2.134   7.265  0.2771 -2.3995  0.7696
  283MOL0     H38204  11.594   2.187   6.944 -3.4372  0.7251  1.7753
  283MOL0     H38205  11.386   2.286   6.875 -1.0685  0.6811 -2.2719
  284MOL0     O38206   6.200   2.935   0.150  0.2806  0.3655  0.9267
  284MOL0     C38207   6.245   2.956   0.031 -0.0920 -0.0517  0.4985
  284MOL0     O38208   6.370   3.013  -0.002  0.1123 -0.1334 -0.7966
  284MOL0     C38209   6.452   3.055   0.108  1.3226  0.0722  0.0691
  284MOL0     C38210   6.585   3.004   0.109 -0.0337 -0.2439 -0.9447
  284MOL0     C38211   6.675   3.050   0.216 -0.6085 -0.0207 -0.3661
  284MOL0     C38212   6.641   3.165   0.290 -0.5188 -1.7234  0.0062
  284MOL0     O38213   6.719   3.224   0.386 -1.0401 -0.3414  0.1663
  284MOL0     C38214   6.770   3.132   0.491 -0.3963 -0.9168 -0.1221
  284MOL0     C38215   6.728   3.201   0.630  0.4531  0.5529 -0.3674
  284MOL0     C38216   6.755   3.358   0.636  0.4604 -0.1590 -0.1630
  284MOL0     C38217   6.755   3.399   0.788 -0.3045 -0.2963  0.6076
  284MOL0     C38218   6.788   3.543   0.823 -0.0438 -0.0283  0.6973
  284MOL0     C38219   6.718   3.660   0.751 -1.1508  0.1620  0.6322
  284MOL0     C38220   6.810   3.789   0.751  0.9869  0.3924  0.9780
  284MOL0     C38221   6.830   3.854   0.888  0.9739 -0.4235  0.5676
  284MOL0     N38222   6.929   3.964   0.868 -0.3092  0.0907  0.0181
  284MOL0     C38223   7.023   3.982   0.767  0.4074 -0.1164  0.6517
  284MOL0     C38224   7.097   4.090   0.807  0.2564 -0.0867 -0.3359
  284MOL0     C38225   7.222   4.147   0.739  1.2706  0.4167 -0.0020
  284MOL0     C38226   7.194   4.264   0.648 -0.0249  0.7891  0.8779
  284MOL0     C38227   7.317   4.341   0.591  0.0664  0.3266  0.0753
  284MOL0     C38228   7.395   4.421   0.684 -0.3996  0.6757 -0.1750
  284MOL0     O38229   7.501   4.478   0.620 -0.5205  0.3013 -0.0345
  284MOL0     C38230   7.494   4.612   0.577 -0.9262 -0.2771  0.7709
  284MOL0     C38231   7.534   4.637   0.447  0.2140  0.2483 -0.3982
  284MOL0     C38232   7.556   4.762   0.401  0.7418 -0.2730 -0.7819
  284MOL0     C38233   7.609   4.775   0.253  0.3842 -0.0467 -0.3462
  284MOL0     C38234   7.535   4.876   0.490 -0.2740 -0.1706 -0.0559
  284MOL0     C38235   7.587   5.008   0.459  0.3400 -0.3253  0.0901
  284MOL0     O38236   7.677   5.025   0.365  0.3171 -1.0912  0.8903
  284MOL0     C38237   7.686   5.156   0.323  0.3451 -0.5102  0.1632
  284MOL0     C38238   7.772   5.246   0.388 -0.6394  0.8042 -0.2461
  284MOL0     C38239   7.773   5.376   0.348  0.8401 -0.3693  0.4560
  284MOL0     C38240   7.694   5.418   0.239 -0.0176  0.4779  0.2805
  284MOL0     O38241   7.703   5.540   0.173  0.5042 -0.3553 -0.3911
  284MOL0     C38242   7.830   5.595   0.145 -0.5377  0.1648 -1.3783
  284MOL0     C38243   7.821   5.748   0.158 -0.4167  0.2898  0.5296
  284MOL0     C38244   7.956   5.801   0.127  0.5902  0.3604  1.0712
  284MOL0     C38245   7.976   5.794  -0.022 -0.3734 -0.4273  0.3878
  284MOL0     C38246   8.108   5.881  -0.038 -0.5330 -1.1327 -0.3989
  284MOL0     C38247   8.104   5.924  -0.183 -1.1113 -0.5507 -0.6699
  284MOL0     C38248   8.238   5.992  -0.210 -0.2306  0.5171 -0.4135
  284MOL0     C38249   8.235   6.026  -0.356  0.3305  0.5137  0.1738
  284MOL0    Cl38250   8.299   5.887  -0.460  0.2912  0.6099 -0.7418
  284MOL0     C38251   7.604   5.327   0.185  0.0098 -0.0176  0.4528
  284MOL0     C38252   7.606   5.189   0.220  0.6905  0.3806 -0.8592
  284MOL0     O38253   7.533   5.101   0.519 -0.2201  0.5555  0.3674
  284MOL0     C38254   7.492   4.851   0.617  0.6361  0.5160  0.0385
  284MOL0     C38255   7.471   4.714   0.665  0.4296 -0.2200  1.0266
  284MOL0     N38256   7.063   4.128   0.929  0.8737  0.5725  0.1933
  284MOL0     N38257   6.965   4.051   0.967  0.5664  0.7764  0.0062
  284MOL0     C38258   6.514   3.219   0.271  0.4494  0.4232  0.7559
  284MOL0     C38259   6.417   3.164   0.186  0.2309  0.0267  0.6491
  284MOL0     C38260   6.168   2.901  -0.087 -0.3348  0.6696 -0.6596
  284MOL0     C38261   6.200   2.923  -0.220  0.1204  0.5931  0.0836
  284MOL0     C38262   6.137   2.848  -0.327 -1.0385 -0.2440 -0.1577
  284MOL0     C38263   6.019   2.776  -0.289 -0.5373 -0.0191 -0.0635
  284MOL0     O38264   5.954   2.708  -0.392  0.6489 -0.2455  0.4257
  284MOL0     C38265   5.815   2.691  -0.370  0.8397 -0.1315 -0.0689
  284MOL0     C38266   5.751   2.644  -0.499  0.2030  0.4386  1.0354
  284MOL0     C38267   5.594   2.622  -0.503 -1.0223 -0.6129 -0.3956
  284MOL0     C38268   5.536   2.583  -0.639  0.2761  0.0162  0.2665
  284MOL0     C38269   5.557   2.442  -0.652 -0.1672  0.2497  1.4663
  284MOL0     C38270   5.585   2.320  -0.669 -0.5060  0.2371  0.4809
  284MOL0     C38271   5.979   2.748  -0.154 -0.6390 -0.0837  0.4709
  284MOL0     C38272   6.053   2.817  -0.062 -0.2540 -0.6407 -1.3313
  284MOL0     H38273   6.601   2.926   0.035  0.0867 -1.7991  0.6430
  284MOL0     H38274   6.766   2.992   0.231 -1.1916 -0.8111  0.2088
  284MOL0     H38275   6.720   3.035   0.492 -1.4021 -0.5864 -3.8367
  284MOL0     H38276   6.877   3.123   0.469  0.1823  2.0255  1.0472
  284MOL0     H38277   6.621   3.183   0.641  0.6186  0.6741  1.8631
  284MOL0     H38278   6.771   3.147   0.715  2.9693  0.6810 -1.4560
  284MOL0     H38279   6.858   3.364   0.601  1.1435 -1.7963  1.3950
  284MOL0     H38280   6.679   3.413   0.579  0.2432 -0.8210 -0.5218
  284MOL0     H38281   6.652   3.387   0.821 -0.5536  0.7801  0.2761
  284MOL0     H38282   6.829   3.337   0.839  2.3258  1.2052 -1.1041
  284MOL0     H38283   6.761   3.545   0.928 -4.1311  0.2551 -0.1900
  284MOL0     H38284   6.894   3.559   0.801  0.0975  2.3327  2.6303
  284MOL0     H38285   6.732   3.615   0.652 -0.8247 -2.1067  1.6719
  284MOL0     H38286   6.610   3.672   0.766 -1.7698 -2.8872 -0.7682
  284MOL0     H38287   6.899   3.772   0.691 -1.2289  0.4738 -2.6108
  284MOL0     H38288   6.756   3.863   0.692  2.6330 -0.3943 -1.6901
  284MOL0     H38289   6.853   3.788   0.972  0.4852 -0.3016  0.7996
  284MOL0     H38290   6.746   3.914   0.924  2.3980  1.1102  1.4860
  284MOL0     H38291   7.040   3.943   0.667 -0.8878  0.9822 -0.0315
  284MOL0     H38292   7.286   4.171   0.825  1.7434 -3.5805  0.9575
  284MOL0     H38293   7.266   4.070   0.674 -1.8484 -0.7885 -0.8453
  284MOL0     H38294   7.134   4.338   0.702 -2.3684  1.4724 -2.3466
  284MOL0     H38295   7.133   4.228   0.565 -1.5435 -0.4005  2.4397
  284MOL0     H38296   7.283   4.416   0.519  0.6705 -1.1425 -1.8235
  284MOL0     H38297   7.392   4.268   0.561  0.3287 -0.9261  3.3636
  284MOL0     H38298   7.444   4.364   0.764 -0.0915 -0.0370 -0.8585
  284MOL0     H38299   7.331   4.497   0.730 -2.2764 -2.5521  3.0777
  284MOL0     H38300   7.547   4.540   0.399 -0.7841  1.1740 -2.6924
  284MOL0     H38301   7.576   4.690   0.192 -1.0372  0.5752 -0.4836
  284MOL0     H38302   7.570   4.866   0.206  0.0583 -0.6013 -1.1701
  284MOL0     H38303   7.718   4.777   0.261  0.2648  1.9568  2.0486
  284MOL0     H38304   7.840   5.205   0.462 -2.0029 -0.5872  0.3126
  284MOL0     H38305   7.847   5.437   0.399  2.8921 -1.2123 -1.3403
  284MOL0     H38306   7.899   5.575   0.227 -1.4652  0.9264 -0.3870
  284MOL0     H38307   7.868   5.545   0.055 -3.0861 -1.9200 -1.4180
  284MOL0     H38308   7.749   5.777   0.082 -1.1069 -1.0637  0.6362
  284MOL0     H38309   7.780   5.783   0.253  2.4150 -1.5879  2.6164
  284MOL0     H38310   8.032   5.738   0.173  1.9166 -0.1992 -1.6887
  284MOL0     H38311   7.971   5.901   0.169  0.8784  0.0741  1.6617
  284MOL0     H38312   7.988   5.695  -0.065  1.3251 -0.8273  1.6947
  284MOL0     H38313   7.884   5.836  -0.066  0.1190  2.1757  1.6611
  284MOL0     H38314   8.186   5.808  -0.015 -2.5047 -2.8850  1.1668
  284MOL0     H38315   8.117   5.966   0.031 -0.4046 -0.2124 -1.5187
  284MOL0     H38316   8.087   5.841  -0.251 -2.3250  0.1704 -1.2939
  284MOL0     H38317   8.015   5.985  -0.201 -0.6595  1.2102  2.3043
  284MOL0     H38318   8.328   5.938  -0.180 -0.0142  1.2918  0.3873
  284MOL0     H38319   8.236   6.075  -0.139 -3.6319 -0.4265  0.7937
  284MOL0     H38320   8.315   6.100  -0.367  1.9206 -1.5008 -4.1343
  284MOL0     H38321   8.143   6.063  -0.400  0.6432 -1.1586 -2.0866
  284MOL0     H38322   7.541   5.353   0.100  0.9049 -1.6592 -0.7627
  284MOL0     H38323   7.547   5.109   0.175 -0.7349 -0.2415  1.9133
  284MOL0     H38324   7.459   4.930   0.683 -1.5284 -0.4536  0.2335
  284MOL0     H38325   7.426   4.705   0.764  0.2165 -1.1875  0.8425
  284MOL0     H38326   6.486   3.305   0.330  0.9037  0.3305  1.1184
  284MOL0     H38327   6.321   3.214   0.197  0.4031  0.8145 -1.0994
  284MOL0     H38328   6.278   2.992  -0.253 -1.7986  3.8492  1.8088
  284MOL0     H38329   6.176   2.871  -0.426 -2.2011 -0.9721 -0.7997
  284MOL0     H38330   5.794   2.608  -0.301  2.4069 -3.0834 -2.8936
  284MOL0     H38331   5.765   2.784  -0.340 -0.2851 -1.3242  2.0264
  284MOL0     H38332   5.803   2.555  -0.533 -1.6420 -0.1336 -0.5208
  284MOL0     H38333   5.787   2.711  -0.578  1.6671 -0.9039  0.5227
  284MOL0     H38334   5.538   2.709  -0.466  0.3492  1.1448 -2.2581
  284MOL0     H38335   5.583   2.538  -0.434  3.1621  1.5472  3.4599
  284MOL0     H38336   5.594   2.636  -0.714  0.2086 -1.5998 -0.9795
  284MOL0     H38337   5.427   2.599  -0.638  0.0602 -1.3110  1.4105
  284MOL0     H38338   5.607   2.216  -0.676 -0.6520  0.0572  2.1844
  284MOL0     H38339   5.905   2.676  -0.120  0.7706 -1.3022  1.0912
  284MOL0     H38340   6.007   2.815   0.037 -0.9400 -0.7744 -1.6470
  285MOL0     O38341  10.703   2.616   5.518  0.2114 -0.1961 -0.2041
  285MOL0     C38342  10.629   2.620   5.610  0.5162 -0.1516 -0.0528
  285MOL0     O38343  10.661   2.652   5.736 -1.2774  0.7018 -0.5596
  285MOL0     C38344  10.800   2.664   5.771 -0.6582  0.0299  0.4053
  285MOL0     C38345  10.846   2.789   5.812 -0.0597  0.8884 -0.1396
  285MOL0     C38346  10.971   2.812   5.854  0.2433 -0.5915  0.7154
  285MOL0     C38347  11.074   2.721   5.832  0.0214  0.4311 -0.3471
  285MOL0     O38348  11.206   2.761   5.854 -0.1969 -0.2178  0.4005
  285MOL0     C38349  11.312   2.662   5.841 -0.3380 -0.4702 -0.1056
  285MOL0     C38350  11.443   2.733   5.889 -0.8158  0.8916  0.3216
  285MOL0     C38351  11.433   2.836   6.007 -1.0616  0.0100 -0.1900
  285MOL0     C38352  11.572   2.902   6.028 -0.5288 -0.5933  0.3981
  285MOL0     C38353  11.552   3.027   6.105 -0.1137 -0.1086  0.1388
  285MOL0     C38354  11.684   3.102   6.136  0.4898  0.3404  0.5990
  285MOL0     C38355  11.777   3.037   6.232  0.0916 -0.0936 -0.1310
  285MOL0     C38356  11.718   3.027   6.377 -0.4376 -0.6989 -0.0854
  285MOL0     N38357  11.822   3.014   6.481 -0.1407  0.8281 -0.0180
  285MOL0     C38358  11.947   3.065   6.487  0.7453  0.2294  1.2811
  285MOL0     C38359  12.012   2.989   6.578 -0.2808 -0.3322 -0.3991
  285MOL0     C38360  12.146   3.024   6.645  0.6825  0.6560  0.4718
  285MOL0     C38361  12.141   3.166   6.705  1.0522  0.2344 -0.7939
  285MOL0     C38362  12.088   3.154   6.848 -0.2180 -0.3158 -0.8091
  285MOL0     C38363  12.033   3.291   6.907 -0.0864  0.5610 -0.4057
  285MOL0     O38364  12.125   3.401   6.906 -0.4983 -0.5972 -0.4305
  285MOL0     C38365  12.106   3.525   6.965 -0.8731  0.3648 -0.6580
  285MOL0     C38366  11.987   3.584   6.988 -0.1731 -0.2585 -0.1069
  285MOL0     C38367  11.967   3.711   7.044 -0.0982 -0.1077  0.0100
  285MOL0     C38368  11.826   3.778   7.033 -0.0546  0.0408  0.7785
  285MOL0     C38369  12.085   3.762   7.112 -0.2667 -0.0647  0.8731
  285MOL0     C38370  12.057   3.885   7.188  1.1973  0.5117 -0.2375
  285MOL0     O38371  11.949   3.893   7.256 -0.2100  0.4371 -0.7968
  285MOL0     C38372  11.906   4.022   7.287  0.4210  0.2028  1.2927
  285MOL0     C38373  11.942   4.070   7.415  0.5044 -0.3176  0.0048
  285MOL0     C38374  11.927   4.208   7.445 -0.3419 -0.2724  0.7719
  285MOL0     C38375  11.873   4.288   7.338 -1.3087  0.7316 -0.2772
  285MOL0     O38376  11.834   4.418   7.347 -0.3498  0.0866 -0.2240
  285MOL0     C38377  11.857   4.492   7.471 -1.0509  0.8189 -0.3297
  285MOL0     C38378  11.786   4.622   7.456  0.5533 -0.1818 -0.0513
  285MOL0     C38379  11.633   4.602   7.422 -0.0586 -1.1756  0.4734
  285MOL0     C38380  11.582   4.746   7.386  0.5574 -0.2690 -0.2347
  285MOL0     C38381  11.433   4.760   7.402  0.6576 -0.4015 -0.1386
  285MOL0     C38382  11.387   4.783   7.542 -0.8736  0.4275 -0.1027
  285MOL0     C38383  11.426   4.912   7.600 -0.1984  0.2917 -0.0200
  285MOL0     C38384  11.361   4.942   7.730  0.0076 -0.1157  0.6505
  285MOL0    Cl38385  11.404   5.106   7.764  0.0049 -0.0415  0.4274
  285MOL0     C38386  11.826   4.223   7.220 -0.3095 -0.2053 -0.0502
  285MOL0     C38387  11.837   4.092   7.195 -0.0447 -0.6559  1.1348
  285MOL0     O38388  12.147   3.968   7.191  0.3208 -0.3585 -0.4157
  285MOL0     C38389  12.201   3.700   7.100  0.2245 -0.0878 -0.7339
  285MOL0     C38390  12.219   3.574   7.026  0.4518  0.6632  0.0466
  285MOL0     N38391  11.928   2.891   6.626  0.5730 -0.5033  0.0806
  285MOL0     N38392  11.815   2.908   6.567  0.0947  0.4072  0.1107
  285MOL0     C38393  11.038   2.601   5.783  1.0959  1.3753  0.0897
  285MOL0     C38394  10.901   2.566   5.756  0.5465  0.6556  0.1195
  285MOL0     C38395  10.483   2.595   5.572  0.2441  0.6871 -0.2778
  285MOL0     C38396  10.441   2.558   5.446  0.4870 -0.4320 -0.8218
  285MOL0     C38397  10.307   2.531   5.418  0.1267 -0.2664 -0.6327
  285MOL0     C38398  10.209   2.548   5.511  0.7602  0.4621  0.1545
  285MOL0     O38399  10.079   2.521   5.468  0.0781  0.3186  0.5196
  285MOL0     C38400   9.966   2.545   5.557 -0.0390 -0.1988 -0.1936
  285MOL0     C38401   9.928   2.693   5.543  0.4333  0.3753  0.6642
  285MOL0     C38402   9.849   2.722   5.411  0.7754  0.2184  0.1941
  285MOL0     C38403   9.783   2.857   5.411  1.2698 -0.5615  0.1481
  285MOL0     C38404   9.654   2.863   5.482  0.6235 -0.3695 -1.0315
  285MOL0     C38405   9.543   2.870   5.536 -0.1181  0.7079 -0.8544
  285MOL0     C38406  10.251   2.574   5.643 -1.4900  0.6146  0.0642
  285MOL0     C38407  10.389   2.595   5.675 -0.0132  0.2660 -0.7146
  285MOL0     H38408  10.768   2.864   5.818 -0.3504  0.4356  3.3425
  285MOL0     H38409  11.005   2.907   5.895 -0.6246 -0.6782  1.6911
  285MOL0     H38410  11.284   2.576   5.902 -0.1460  0.5443  1.4766
  285MOL0     H38411  11.324   2.624   5.740 -0.0290  0.5915 -0.4836
  285MOL0     H38412  11.511   2.652   5.919  0.0247  2.6422  3.5190
  285MOL0     H38413  11.497   2.778   5.806  3.7792 -1.1785  1.8656
  285MOL0     H38414  11.366   2.917   5.979 -1.6366 -0.7609 -1.1181
  285MOL0     H38415  11.405   2.784   6.099  1.6259  0.5914  1.0755
  285MOL0     H38416  11.636   2.838   6.091  0.8695  0.1752 -0.1904
  285MOL0     H38417  11.624   2.917   5.933 -0.6217 -0.4432  0.3705
  285MOL0     H38418  11.496   3.094   6.039 -0.5823 -1.5234 -0.9655
  285MOL0     H38419  11.504   3.014   6.203  1.1585  1.3486  0.9943
  285MOL0     H38420  11.735   3.129   6.043  0.1547  2.7190  1.0303
  285MOL0     H38421  11.646   3.198   6.174 -2.0482 -1.2166  2.3617
  285MOL0     H38422  11.812   2.938   6.201  0.2989 -0.6001  1.5844
  285MOL0     H38423  11.870   3.095   6.239  0.8844 -1.4949  2.4873
  285MOL0     H38424  11.641   2.949   6.375  1.5160 -2.8183  1.7347
  285MOL0     H38425  11.660   3.118   6.393 -3.2129 -2.5095  0.8010
  285MOL0     H38426  11.987   3.159   6.449  0.5040  0.3565  1.3438
  285MOL0     H38427  12.170   2.956   6.727 -0.7895 -0.2033  0.2342
  285MOL0     H38428  12.223   3.028   6.568 -1.2748  4.2874 -1.5905
  285MOL0     H38429  12.087   3.239   6.644  0.7140  1.3911  0.8116
  285MOL0     H38430  12.243   3.203   6.720  0.9459  1.7925 -3.2689
  285MOL0     H38431  12.164   3.112   6.914  1.0096 -1.5874 -2.9077
  285MOL0     H38432  12.000   3.089   6.857 -0.2388 -0.4922 -2.0767
  285MOL0     H38433  12.013   3.273   7.013 -1.5028 -2.9419 -1.1590
  285MOL0     H38434  11.934   3.311   6.864 -0.9827 -0.8039  0.9294
  285MOL0     H38435  11.897   3.532   6.958  1.1859 -2.9771  0.2062
  285MOL0     H38436  11.755   3.720   6.974  3.6988  0.7150 -5.2771
  285MOL0     H38437  11.785   3.787   7.134  1.4297  0.5814  1.3763
  285MOL0     H38438  11.844   3.876   6.987  0.5253 -2.0807 -4.1641
  285MOL0     H38439  11.966   4.008   7.501  0.2406  3.6604  3.2623
  285MOL0     H38440  11.966   4.246   7.539 -1.4980  1.3879  0.6281
  285MOL0     H38441  11.825   4.442   7.562  2.5064  0.2050  0.7278
  285MOL0     H38442  11.963   4.498   7.496 -1.1178 -1.3722  0.7172
  285MOL0     H38443  11.781   4.684   7.546  0.1833  1.9050 -1.4480
  285MOL0     H38444  11.841   4.669   7.374 -1.2693 -2.3780 -2.7127
  285MOL0     H38445  11.586   4.562   7.513  0.4417 -4.4850 -0.5960
  285MOL0     H38446  11.608   4.549   7.330 -1.3146 -1.9928  1.2554
  285MOL0     H38447  11.630   4.829   7.439 -2.0419  2.3927 -1.7273
  285MOL0     H38448  11.599   4.758   7.278  0.2313  1.3299 -0.1308
  285MOL0     H38449  11.381   4.673   7.361  0.8361 -0.6431  0.1405
  285MOL0     H38450  11.399   4.837   7.332  0.0089 -0.8934 -0.3725
  285MOL0     H38451  11.278   4.775   7.541 -0.9704  0.8838 -3.4652
  285MOL0     H38452  11.433   4.710   7.610  0.1132  1.8987  0.8583
  285MOL0     H38453  11.400   4.994   7.533  1.4471  0.8583 -0.0114
  285MOL0     H38454  11.535   4.917   7.607  0.0440  3.7126 -3.0191
  285MOL0     H38455  11.409   4.882   7.807  0.4151 -0.6808 -0.0315
  285MOL0     H38456  11.252   4.930   7.728 -0.0198  0.1353 -0.7163
  285MOL0     H38457  11.777   4.271   7.136 -1.8691 -3.1114 -0.9163
  285MOL0     H38458  11.787   4.059   7.105  0.8567  1.8391 -0.3765
  285MOL0     H38459  12.287   3.731   7.159  1.4536  0.7346 -2.8381
  285MOL0     H38460  12.310   3.517   7.011 -1.1841 -1.7926 -1.2798
  285MOL0     H38461  11.105   2.520   5.758 -0.7553 -0.7630  1.6810
  285MOL0     H38462  10.860   2.476   5.711 -1.2851  1.0749  0.8792
  285MOL0     H38463  10.513   2.565   5.366 -0.4805  0.1176 -1.6626
  285MOL0     H38464  10.282   2.499   5.317  0.9917 -1.1532 -0.5799
  285MOL0     H38465   9.889   2.474   5.527  0.2064 -0.0903 -1.1285
  285MOL0     H38466   9.983   2.524   5.663 -2.1145 -1.7237 -0.1011
  285MOL0     H38467  10.013   2.761   5.526  1.9459 -1.4203  0.7170
  285MOL0     H38468   9.865   2.721   5.628  0.8556 -1.1954  1.5427
  285MOL0     H38469   9.784   2.642   5.373 -0.0411  2.3563 -3.4208
  285MOL0     H38470   9.925   2.724   5.332 -0.5763  0.2510 -1.1389
  285MOL0     H38471   9.773   2.862   5.302 -0.1612  0.6728  0.3022
  285MOL0     H38472   9.859   2.927   5.448 -0.4905  2.5004 -1.5767
  285MOL0     H38473   9.445   2.878   5.579 -0.3425  1.1286 -1.4447
  285MOL0     H38474  10.184   2.549   5.725 -2.2971 -1.4143 -1.1374
  285MOL0     H38475  10.412   2.596   5.781 -2.6540 -3.5862  0.1030
  286MOL0     O38476   0.098   8.203   3.493  0.6168  0.3720  0.2082
  286MOL0     C38477  -0.010   8.151   3.476 -0.6017 -0.9054 -0.3470
  286MOL0     O38478  -0.129   8.190   3.538 -0.5428  0.1632  0.2584
  286MOL0     C38479  -0.148   8.286   3.634 -0.1670 -0.2690 -0.1210
  286MOL0     C38480  -0.279   8.281   3.707 -0.5209  0.2692 -0.2463
  286MOL0     C38481  -0.318   8.383   3.788 -0.4252  1.0058  0.4075
  286MOL0     C38482  -0.233   8.495   3.812 -0.1294 -0.1690 -0.1807
  286MOL0     O38483  -0.283   8.592   3.897 -0.2601  0.2726  0.4155
  286MOL0     C38484  -0.192   8.669   3.986  0.4900 -0.9853 -0.6543
  286MOL0     C38485  -0.119   8.579   4.076 -0.7791 -0.8491  0.2606
  286MOL0     C38486  -0.019   8.662   4.160 -1.1323 -0.9455 -0.7815
  286MOL0     C38487   0.121   8.655   4.088 -0.4934 -0.3550 -0.7040
  286MOL0     C38488   0.235   8.716   4.175 -0.1639  0.0498  0.2267
  286MOL0     C38489   0.383   8.696   4.124  0.2695 -0.2107 -0.4576
  286MOL0     C38490   0.495   8.750   4.218  0.2624 -0.4999  0.1089
  286MOL0     C38491   0.613   8.660   4.214  0.2225 -0.5380 -0.9337
  286MOL0     N38492   0.727   8.724   4.284 -0.6477  0.5358  0.0426
  286MOL0     C38493   0.729   8.804   4.403  0.5854 -0.2346 -0.3534
  286MOL0     C38494   0.868   8.832   4.425 -0.2499  0.1110  0.6912
  286MOL0     C38495   0.931   8.934   4.512 -0.2940  0.0161 -0.5283
  286MOL0     C38496   0.837   8.968   4.632 -0.8486 -0.0389  0.3625
  286MOL0     C38497   0.901   9.064   4.729  0.2502  0.0462 -0.1254
  286MOL0     C38498   0.802   9.101   4.848  0.4618  0.9499  0.1502
  286MOL0     O38499   0.668   9.146   4.808 -1.0881 -0.1005 -0.0779
  286MOL0     C38500   0.605   9.235   4.887  0.0810 -0.0349  0.1903
  286MOL0     C38501   0.616   9.371   4.853  0.1222  0.4999  0.0640
  286MOL0     C38502   0.595   9.474   4.947 -0.4490 -0.6533 -0.1294
  286MOL0     C38503   0.618   9.614   4.895  0.0910  0.0364 -0.5766
  286MOL0     C38504   0.570   9.438   5.086  0.0763  0.2262  0.7667
  286MOL0     C38505   0.540   9.539   5.189 -0.4930 -0.0196 -0.1437
  286MOL0     O38506   0.537   9.674   5.158 -0.1900  0.3186 -0.0386
  286MOL0     C38507   0.473   9.760   5.234  1.6237  1.0770 -0.4147
  286MOL0     C38508   0.370   9.839   5.192 -0.1299 -0.1532  0.6547
  286MOL0     C38509   0.313   9.940   5.262 -0.6430  0.3593  0.0826
  286MOL0     C38510   0.358   9.973   5.391  0.0780  0.3548  0.6048
  286MOL0     O38511   0.297  10.061   5.468  0.0863  0.1287 -0.6827
  286MOL0     C38512   0.373  10.176   5.482  0.1670 -0.0767 -0.4205
  286MOL0     C38513   0.309  10.255   5.598  0.1110 -0.2917  0.0612
  286MOL0     C38514   0.329  10.180   5.724  0.0104 -0.7345 -0.9910
  286MOL0     C38515   0.203  10.087   5.749  0.1127 -0.1412  0.3907
  286MOL0     C38516   0.220   9.992   5.869 -0.1366 -0.5770 -0.1614
  286MOL0     C38517   0.223  10.074   6.001  0.2706  0.5142  0.4026
  286MOL0     C38518   0.294   9.995   6.116  0.6298  0.3518 -0.7734
  286MOL0     C38519   0.449   9.997   6.119  0.2769 -0.5663  0.4434
  286MOL0    Cl38520   0.489  10.151   6.187 -0.0349  0.2823  0.1071
  286MOL0     C38521   0.481   9.923   5.431  0.1242  1.0309  0.0490
  286MOL0     C38522   0.531   9.807   5.356  0.3879  0.6844  0.5827
  286MOL0     O38523   0.510   9.492   5.303  0.0663 -1.0282  0.6771
  286MOL0     C38524   0.546   9.299   5.117  0.6145 -0.6569  0.5002
  286MOL0     C38525   0.568   9.198   5.019 -0.6821 -0.9579  0.5534
  286MOL0     N38526   0.933   8.750   4.334  0.6907  0.6122  0.1646
  286MOL0     N38527   0.856   8.684   4.254  0.5009  0.6310  0.0303
  286MOL0     C38528  -0.113   8.506   3.744  0.5338  0.1887  1.0913
  286MOL0     C38529  -0.072   8.406   3.655 -0.4439  0.4182  0.0910
  286MOL0     C38530  -0.005   8.033   3.393  0.0987 -0.0969  0.2055
  286MOL0     C38531  -0.121   7.968   3.358  0.1581 -0.6244 -0.1171
  286MOL0     C38532  -0.120   7.863   3.264 -0.4677 -0.1313  0.2153
  286MOL0     C38533  -0.002   7.811   3.212  0.1696  1.1228  0.2910
  286MOL0     O38534   0.010   7.704   3.129  0.4889 -0.5432 -0.0280
  286MOL0     C38535  -0.109   7.633   3.097 -0.8690 -0.2984  0.2347
  286MOL0     C38536  -0.111   7.491   3.040 -0.0234  0.6395  0.4835
  286MOL0     C38537  -0.069   7.389   3.149  0.5998 -0.9466 -0.1743
  286MOL0     C38538  -0.061   7.244   3.101 -0.0849 -0.5090  0.2934
  286MOL0     C38539  -0.067   7.129   3.199 -0.0038  0.7860  0.2347
  286MOL0     C38540  -0.064   7.039   3.280  0.5647 -0.3049 -0.7023
  286MOL0     C38541   0.113   7.878   3.240  0.2408 -0.4699 -0.4175
  286MOL0     C38542   0.116   7.993   3.326 -0.8307  0.1450  1.3655
  286MOL0     H38543  -0.330   8.186   3.697  2.1815 -1.1920 -1.3595
  286MOL0     H38544  -0.418   8.366   3.828 -1.4333 -0.6358 -2.5191
  286MOL0     H38545  -0.131   8.733   3.920 -1.0236  0.5957 -0.5872
  286MOL0     H38546  -0.249   8.736   4.051  0.2355 -0.2107 -1.6469
  286MOL0     H38547  -0.200   8.531   4.131 -1.0066  0.3373  0.9946
  286MOL0     H38548  -0.064   8.509   4.012  1.4905  0.7842  0.2968
  286MOL0     H38549  -0.037   8.770   4.171  1.5961 -0.2533 -2.0801
  286MOL0     H38550  -0.017   8.626   4.263 -0.6030 -0.0759 -0.4729
  286MOL0     H38551   0.147   8.549   4.077 -2.2646 -1.1386  1.8140
  286MOL0     H38552   0.134   8.710   3.994  0.9374 -1.6308 -1.3084
  286MOL0     H38553   0.222   8.825   4.169 -0.1557 -0.0181 -1.4497
  286MOL0     H38554   0.222   8.675   4.275  2.2710 -0.4569  0.3887
  286MOL0     H38555   0.385   8.591   4.095  0.1925 -0.8574  1.7147
  286MOL0     H38556   0.381   8.765   4.038 -1.8495  2.4750  1.5621
  286MOL0     H38557   0.526   8.849   4.182  1.7866 -1.5456 -1.5917
  286MOL0     H38558   0.453   8.761   4.319  1.7721 -2.3340  1.0025
  286MOL0     H38559   0.640   8.631   4.112  0.6445 -2.9930 -0.1777
  286MOL0     H38560   0.588   8.566   4.262  0.2547 -0.2397 -0.3226
  286MOL0     H38561   0.635   8.840   4.443  0.1424 -1.2396 -0.4393
  286MOL0     H38562   1.030   8.897   4.539 -0.5535  0.2746  0.8428
  286MOL0     H38563   0.959   9.030   4.468  1.1721 -0.9136 -1.7138
  286MOL0     H38564   0.809   8.876   4.683  3.3168 -2.9114 -1.9537
  286MOL0     H38565   0.754   9.012   4.576  0.4780 -0.7365 -2.2961
  286MOL0     H38566   0.933   9.150   4.669  0.5738 -0.1450 -0.2307
  286MOL0     H38567   0.991   9.021   4.773  0.6539  0.9968  0.0134
  286MOL0     H38568   0.838   9.193   4.895 -1.3713  0.5634  2.4939
  286MOL0     H38569   0.782   9.021   4.920 -2.4336 -0.9061 -2.4904
  286MOL0     H38570   0.644   9.380   4.749  0.8698 -1.4984  0.0497
  286MOL0     H38571   0.526   9.672   4.892  0.4968  0.6791 -3.2801
  286MOL0     H38572   0.689   9.663   4.963 -0.4143 -0.1913  0.1311
  286MOL0     H38573   0.650   9.617   4.791 -1.1769  0.0813 -0.9779
  286MOL0     H38574   0.332   9.821   5.091 -0.4493  1.0945  0.5355
  286MOL0     H38575   0.232  10.006   5.233 -0.8025  0.7874  1.4568
  286MOL0     H38576   0.477  10.156   5.509  1.2639  3.5890 -1.4318
  286MOL0     H38577   0.380  10.236   5.392 -1.0754 -1.8715 -1.7857
  286MOL0     H38578   0.359  10.350   5.621 -0.1983  0.3236 -1.6533
  286MOL0     H38579   0.204  10.276   5.576  0.0708  0.9188  1.2471
  286MOL0     H38580   0.350  10.251   5.805  0.3702 -2.5229  0.5398
  286MOL0     H38581   0.419  10.120   5.711  1.1647  0.5105  0.6974
  286MOL0     H38582   0.115  10.143   5.781  0.6808  1.3819 -0.6083
  286MOL0     H38583   0.183  10.013   5.672 -3.4103 -1.6058  2.4847
  286MOL0     H38584   0.311   9.934   5.854 -1.0049 -2.5738  1.8431
  286MOL0     H38585   0.134   9.925   5.879 -1.9244  1.7850  1.2106
  286MOL0     H38586   0.275  10.170   5.989  0.5909  0.1137 -1.8016
  286MOL0     H38587   0.121  10.108   6.020  0.1352  0.5625 -0.3938
  286MOL0     H38588   0.266   9.891   6.096  0.9252 -0.0124  0.6080
  286MOL0     H38589   0.263  10.036   6.213  1.4377  3.2656 -1.6594
  286MOL0     H38590   0.485   9.999   6.016 -3.3489  0.5889 -0.9538
  286MOL0     H38591   0.499   9.910   6.164  2.1325 -0.2340 -0.8420
  286MOL0     H38592   0.536   9.954   5.519 -3.4083  0.1081  2.8208
  286MOL0     H38593   0.631   9.776   5.385  0.9527  0.5401 -1.3766
  286MOL0     H38594   0.513   9.274   5.218  1.3084  5.8491  2.8063
  286MOL0     H38595   0.561   9.094   5.047  2.0014 -1.2563  0.4415
  286MOL0     H38596  -0.044   8.587   3.764  1.0217 -0.6657  3.0311
  286MOL0     H38597   0.026   8.412   3.609  0.3358 -3.4314  0.9180
  286MOL0     H38598  -0.210   8.002   3.409  0.1657 -3.7555  2.3268
  286MOL0     H38599  -0.213   7.809   3.247 -0.7314  1.4876 -6.3081
  286MOL0     H38600  -0.176   7.639   3.183 -0.9762  1.8061  0.0624
  286MOL0     H38601  -0.150   7.709   3.029  0.2934  1.3926  1.3316
  286MOL0     H38602  -0.032   7.486   2.964  0.4874 -0.1968  1.0561
  286MOL0     H38603  -0.204   7.459   2.992 -0.2817  2.5627 -0.3973
  286MOL0     H38604  -0.144   7.387   3.228  0.2153  0.3363 -0.4877
  286MOL0     H38605   0.021   7.430   3.196  0.1278 -0.3879  0.2510
  286MOL0     H38606   0.027   7.224   3.040 -1.8589 -1.2667 -2.1839
  286MOL0     H38607  -0.132   7.222   3.021  0.9917  1.1527 -1.1921
  286MOL0     H38608  -0.052   6.967   3.358  0.6273  1.6515  1.1653
  286MOL0     H38609   0.205   7.837   3.199 -0.4279 -1.8336 -0.5974
  286MOL0     H38610   0.213   8.037   3.347 -1.4431  2.5380 -0.4538
  287MOL0     O38611   8.010   0.645   8.560 -0.4795 -0.2694  0.3616
  287MOL0     C38612   8.021   0.529   8.517  0.5013 -0.1800 -0.5579
  287MOL0     O38613   8.068   0.426   8.592 -0.9583 -0.6361  0.9758
  287MOL0     C38614   8.122   0.459   8.713  0.2238  0.3183  0.9044
  287MOL0     C38615   8.255   0.451   8.730 -0.5377 -1.2721  0.3077
  287MOL0     C38616   8.319   0.476   8.846  0.1509 -0.6750 -0.3979
  287MOL0     C38617   8.247   0.516   8.965 -1.1192  0.1305 -0.0528
  287MOL0     O38618   8.306   0.544   9.094 -0.3966 -0.6668  0.6581
  287MOL0     C38619   8.430   0.493   9.131 -0.2841  0.3664  0.2972
  287MOL0     C38620   8.444   0.543   9.272 -0.9927  0.1902 -0.7139
  287MOL0     C38621   8.514   0.675   9.274  0.2261 -0.3669 -0.0707
  287MOL0     C38622   8.536   0.746   9.409 -0.0162  0.2803  0.2648
  287MOL0     C38623   8.457   0.880   9.423 -0.7681  0.0014 -0.3693
  287MOL0     C38624   8.312   0.858   9.467 -0.1037  0.3681  0.3034
  287MOL0     C38625   8.223   0.988   9.486  1.2610 -0.2464  0.4376
  287MOL0     C38626   8.275   1.102   9.575 -0.0184 -0.0491 -0.3831
  287MOL0     N38627   8.167   1.204   9.587  0.4566 -0.0445 -0.0488
  287MOL0     C38628   8.094   1.230   9.693 -0.1289  0.4510 -0.1932
  287MOL0     C38629   8.036   1.349   9.668 -0.2524 -0.2037  0.7168
  287MOL0     C38630   7.967   1.425   9.781 -0.3001  0.8630  0.6598
  287MOL0     C38631   7.826   1.376   9.789 -0.1142  0.2711 -0.4459
  287MOL0     C38632   7.730   1.450   9.694  0.0140 -0.3711  0.1085
  287MOL0     C38633   7.580   1.422   9.737 -0.8990  0.9409 -0.1733
  287MOL0     O38634   7.521   1.293   9.716 -0.1956 -0.9992  0.0271
  287MOL0     C38635   7.523   1.236   9.596  0.2124 -0.0472 -0.1505
  287MOL0     C38636   7.527   1.296   9.469  0.8400 -1.1365  0.4816
  287MOL0     C38637   7.540   1.209   9.351 -0.4677 -0.3410  0.5206
  287MOL0     C38638   7.554   1.285   9.224  0.1120  0.8015 -0.4629
  287MOL0     C38639   7.540   1.070   9.359  0.3262  0.1540 -0.0479
  287MOL0     C38640   7.527   0.978   9.243 -0.5890  0.3880 -0.2941
  287MOL0     O38641   7.518   0.847   9.287 -0.9358 -0.5462  0.2083
  287MOL0     C38642   7.484   0.751   9.195 -0.0215  0.2887  0.2931
  287MOL0     C38643   7.368   0.678   9.224 -0.4548 -0.0093 -1.4320
  287MOL0     C38644   7.319   0.577   9.145  0.5886  0.4676 -0.6987
  287MOL0     C38645   7.389   0.543   9.029  1.2092  0.6043 -0.1944
  287MOL0     O38646   7.335   0.449   8.938  0.3655 -0.2687 -0.0240
  287MOL0     C38647   7.308   0.322   8.977  0.8244  0.2111 -0.5329
  287MOL0     C38648   7.191   0.265   8.896  0.0753 -0.8694  0.3623
  287MOL0     C38649   7.194   0.106   8.873  0.6317 -0.5010 -0.4058
  287MOL0     C38650   7.181   0.073   8.716  0.2322 -0.9838  0.5028
  287MOL0     C38651   7.084  -0.036   8.683 -0.4010  0.4331 -0.6831
  287MOL0     C38652   7.049  -0.065   8.541  0.6090  0.4727  0.1083
  287MOL0     C38653   6.986   0.057   8.470  0.3535 -0.4528 -0.0486
  287MOL0     C38654   6.921   0.015   8.349 -0.2851  0.2959 -0.8332
  287MOL0    Cl38655   6.767  -0.069   8.376 -0.3844  0.3427 -0.3202
  287MOL0     C38656   7.509   0.614   9.006 -0.0581  0.0802  0.0413
  287MOL0     C38657   7.566   0.708   9.098  0.4457 -0.1509 -0.0829
  287MOL0     O38658   7.531   1.014   9.126  0.0720 -0.3946 -0.3058
  287MOL0     C38659   7.524   1.012   9.493  0.0794  0.3040 -0.1342
  287MOL0     C38660   7.511   1.102   9.601 -1.0692 -0.0718 -0.5205
  287MOL0     N38661   8.063   1.392   9.538  0.3093  0.3922  0.1505
  287MOL0     N38662   8.146   1.305   9.492  0.1348  0.5873  0.3528
  287MOL0     C38663   8.115   0.546   8.940  0.5920 -0.0946  0.5107
  287MOL0     C38664   8.048   0.511   8.822 -0.1927 -0.8502  0.5645
  287MOL0     C38665   7.959   0.489   8.376  0.4301 -0.5504 -0.0787
  287MOL0     C38666   7.909   0.591   8.288  0.6933  0.8645  0.4365
  287MOL0     C38667   7.894   0.563   8.155  0.1537  0.1931 -0.7766
  287MOL0     C38668   7.908   0.441   8.104  0.5718 -0.8196 -0.1907
  287MOL0     O38669   7.881   0.412   7.972  0.1874 -1.2009 -0.2707
  287MOL0     C38670   7.941   0.495   7.872  1.0212 -0.7914  0.3968
  287MOL0     C38671   8.008   0.403   7.762 -0.1927  0.8503 -0.9260
  287MOL0     C38672   7.902   0.308   7.700 -0.2012 -0.1175  0.1639
  287MOL0     C38673   7.966   0.211   7.601  0.1972 -0.0275 -0.1399
  287MOL0     C38674   8.035   0.270   7.481  0.1231 -0.1561 -0.0881
  287MOL0     C38675   8.100   0.322   7.395 -0.1185 -0.0980 -0.1376
  287MOL0     C38676   7.931   0.339   8.190 -0.4094 -0.6201  0.6555
  287MOL0     C38677   7.969   0.360   8.319 -0.1002 -0.5479  0.1300
  287MOL0     H38678   8.305   0.417   8.640 -1.0243  0.0115 -0.4817
  287MOL0     H38679   8.424   0.447   8.845  1.2088  2.5318  1.1919
  287MOL0     H38680   8.419   0.384   9.138  2.7014  0.0708  1.8237
  287MOL0     H38681   8.513   0.528   9.069  0.6607  0.2501  1.4686
  287MOL0     H38682   8.348   0.545   9.323  0.7175 -2.0139  3.0620
  287MOL0     H38683   8.493   0.476   9.343 -1.6945 -1.1848 -1.4753
  287MOL0     H38684   8.613   0.645   9.239 -0.0786 -0.3955 -0.9191
  287MOL0     H38685   8.466   0.737   9.198  2.0921 -0.3912 -1.3287
  287MOL0     H38686   8.513   0.689   9.499  1.1426  0.2841  0.5778
  287MOL0     H38687   8.643   0.770   9.412  0.7285 -2.4124 -1.6573
  287MOL0     H38688   8.505   0.929   9.508  2.5805 -0.0469 -2.1013
  287MOL0     H38689   8.472   0.950   9.340  0.1594  2.4471  1.7331
  287MOL0     H38690   8.267   0.790   9.395 -2.3604 -2.5811  4.0735
  287MOL0     H38691   8.314   0.801   9.561  2.1690  0.4015  0.3462
  287MOL0     H38692   8.201   1.029   9.387 -3.0762  2.2677  2.1461
  287MOL0     H38693   8.128   0.955   9.530  1.4713  1.4590  2.3105
  287MOL0     H38694   8.367   1.144   9.534  0.8914 -1.3612  0.2284
  287MOL0     H38695   8.310   1.066   9.672  1.1231 -3.2817 -1.8310
  287MOL0     H38696   8.101   1.180   9.789  3.1486  1.7405  0.3632
  287MOL0     H38697   8.025   1.395   9.869  3.4192  1.9049 -1.2109
  287MOL0     H38698   7.976   1.534   9.784  1.4046  0.7283  1.7805
  287MOL0     H38699   7.797   1.396   9.893 -1.2906 -2.1858 -0.2280
  287MOL0     H38700   7.826   1.267   9.779 -3.7949  0.1651 -0.4948
  287MOL0     H38701   7.752   1.414   9.593  0.9179 -0.4557  0.3333
  287MOL0     H38702   7.751   1.557   9.708 -0.3225 -0.4577  1.4181
  287MOL0     H38703   7.516   1.493   9.684 -2.5780 -2.9508 -4.0580
  287MOL0     H38704   7.571   1.447   9.843 -1.9448  0.0635 -0.0334
  287MOL0     H38705   7.533   1.404   9.459 -2.3807 -0.9384 -0.3831
  287MOL0     H38706   7.621   1.228   9.159 -1.3241 -0.2957 -1.0301
  287MOL0     H38707   7.453   1.296   9.182  0.7086  0.1265 -2.1409
  287MOL0     H38708   7.590   1.386   9.245 -0.8402  1.1392 -0.3778
  287MOL0     H38709   7.298   0.696   9.304  0.0705 -1.5336 -0.5738
  287MOL0     H38710   7.229   0.529   9.182  0.1323  0.7200 -1.4378
  287MOL0     H38711   7.384   0.247   8.953 -1.1381 -1.9928 -0.1808
  287MOL0     H38712   7.286   0.314   9.084  0.6887  2.9487 -0.2755
  287MOL0     H38713   7.101   0.291   8.952 -0.0829 -1.7950  0.5641
  287MOL0     H38714   7.186   0.313   8.798 -0.4980 -2.9047 -0.6717
  287MOL0     H38715   7.119   0.047   8.927  1.6258 -0.4756  1.0711
  287MOL0     H38716   7.283   0.055   8.912  0.0701 -1.8344 -0.7866
  287MOL0     H38717   7.153   0.163   8.660  1.0498 -0.5765  0.7336
  287MOL0     H38718   7.279   0.048   8.675  0.5494  0.2521  0.4792
  287MOL0     H38719   6.990  -0.014   8.735 -0.0672 -0.5133  0.3567
  287MOL0     H38720   7.126  -0.121   8.738  0.0631  1.1262  0.0453
  287MOL0     H38721   7.129  -0.105   8.478 -1.1103  0.4727 -2.2232
  287MOL0     H38722   6.979  -0.149   8.544 -0.6397  1.4300  4.3314
  287MOL0     H38723   7.058   0.131   8.433  0.7831 -2.2779 -3.1946
  287MOL0     H38724   6.925   0.116   8.539  0.8354  1.1093 -0.8976
  287MOL0     H38725   6.990  -0.038   8.282  1.9194  0.7440  0.9508
  287MOL0     H38726   6.891   0.101   8.289  2.1485  0.4102 -2.0176
  287MOL0     H38727   7.563   0.590   8.915  1.4011 -0.2934  0.9620
  287MOL0     H38728   7.663   0.755   9.088 -0.3436  1.9567  1.4794
  287MOL0     H38729   7.514   0.906   9.512 -1.2201  0.1037 -1.6496
  287MOL0     H38730   7.477   1.059   9.695 -1.0571  0.2656 -0.3605
  287MOL0     H38731   8.063   0.587   9.026  0.3933  2.5549 -0.7869
  287MOL0     H38732   7.941   0.522   8.805 -0.5037 -2.3701  1.4077
  287MOL0     H38733   7.904   0.692   8.328 -2.6061  0.2190  2.0358
  287MOL0     H38734   7.870   0.651   8.095  2.4338  1.9566  0.7069
  287MOL0     H38735   7.862   0.557   7.827  0.7627  0.0255  1.9141
  287MOL0     H38736   8.029   0.549   7.907  1.7044 -2.2321  0.9927
  287MOL0     H38737   8.077   0.342   7.822 -0.5452 -4.1260 -4.9254
  287MOL0     H38738   8.055   0.467   7.686 -0.4503  1.2577 -0.7440
  287MOL0     H38739   7.825   0.368   7.651 -1.2223 -0.1393  1.6639
  287MOL0     H38740   7.847   0.255   7.779  2.1599  1.7688  3.2907
  287MOL0     H38741   7.907   0.128   7.562  0.0018 -1.0927  2.2526
  287MOL0     H38742   8.044   0.168   7.665 -1.6447  0.6878  2.8143
  287MOL0     H38743   8.165   0.362   7.320 -1.8587  0.6115 -1.3364
  287MOL0     H38744   7.934   0.239   8.147  0.0564 -0.9288  1.3875
  287MOL0     H38745   8.006   0.272   8.371 -1.0762  0.0356  1.9026
  288MOL0     O38746  10.172   3.435  11.208 -0.0644 -0.6252  0.2672
  288MOL0     C38747  10.073   3.383  11.154 -0.0040 -0.3560  0.1419
  288MOL0     O38748   9.961   3.329  11.216  0.1490 -0.8000  0.8257
  288MOL0     C38749   9.943   3.336  11.352 -0.3703  0.6975  0.3587
  288MOL0     C38750   9.812   3.322  11.400 -1.0344 -0.4639  0.3134
  288MOL0     C38751   9.791   3.337  11.540 -0.0125  0.7487 -0.0190
  288MOL0     C38752   9.897   3.339  11.633  0.5610  0.3300 -0.1724
  288MOL0     O38753   9.880   3.337  11.766  0.3437  0.6406  0.1647
  288MOL0     C38754   9.748   3.290  11.823 -0.6530 -0.2545  0.6986
  288MOL0     C38755   9.769   3.247  11.969  0.3388 -0.3386 -0.0345
  288MOL0     C38756   9.707   3.114  11.989  0.0942 -0.1414  0.3591
  288MOL0     C38757   9.642   3.082  12.129 -0.3767 -0.5388  0.9925
  288MOL0     C38758   9.613   2.932  12.136  0.2728  0.4313 -0.7912
  288MOL0     C38759   9.587   2.871  12.277 -0.0509  0.2987 -0.8847
  288MOL0     C38760   9.542   2.721  12.259  0.7288  0.0293 -0.9675
  288MOL0     C38761   9.388   2.710  12.216  0.1432 -0.1648  0.1070
  288MOL0     N38762   9.336   2.574  12.221  0.6939 -0.8866 -0.3807
  288MOL0     C38763   9.405   2.458  12.211  0.1778  0.4600  0.3315
  288MOL0     C38764   9.305   2.367  12.190 -0.6114 -0.1512  0.3162
  288MOL0     C38765   9.332   2.216  12.167 -0.3251 -0.0777  0.5845
  288MOL0     C38766   9.385   2.133  12.283 -0.2592  0.1006  0.2874
  288MOL0     C38767   9.284   2.139  12.403  0.6072  0.3039  0.8871
  288MOL0     C38768   9.150   2.074  12.382 -0.2350  0.1650 -0.5273
  288MOL0     O38769   9.064   2.079  12.496  0.3015  0.4357  0.3179
  288MOL0     C38770   8.946   2.006  12.468 -0.1963  0.3685  0.1478
  288MOL0     C38771   8.929   1.906  12.370  0.8956 -0.3727 -0.0788
  288MOL0     C38772   8.799   1.857  12.342  0.4058 -0.4952  0.3734
  288MOL0     C38773   8.798   1.774  12.215 -0.2122  0.2474 -0.3336
  288MOL0     C38774   8.687   1.894  12.426  0.2939 -1.6832  0.6907
  288MOL0     C38775   8.548   1.842  12.405  0.8533 -1.0882 -0.6116
  288MOL0     O38776   8.440   1.914  12.464 -0.3896 -0.8341  0.3455
  288MOL0     C38777   8.315   1.878  12.419  0.8921 -0.8235 -0.5125
  288MOL0     C38778   8.226   1.841  12.523 -0.2678 -0.2132 -0.9958
  288MOL0     C38779   8.092   1.799  12.504 -0.6502 -0.5929 -0.3248
  288MOL0     C38780   8.051   1.782  12.374 -0.6294  1.0188  0.0065
  288MOL0     O38781   7.926   1.733  12.359 -0.3467  0.7924 -0.2264
  288MOL0     C38782   7.921   1.607  12.276  0.1877  0.3687  0.2288
  288MOL0     C38783   7.797   1.530  12.331 -0.4163 -0.2601 -0.3466
  288MOL0     C38784   7.802   1.381  12.284 -0.1371 -0.1126 -0.0595
  288MOL0     C38785   7.675   1.303  12.335 -0.1227 -0.4287  0.3927
  288MOL0     C38786   7.709   1.155  12.348  0.1570 -0.1442 -0.8969
  288MOL0     C38787   7.665   1.059  12.234 -0.1982  0.1794  0.9886
  288MOL0     C38788   7.695   0.914  12.272  0.3670  0.1591 -0.8549
  288MOL0     C38789   7.715   0.827  12.151 -0.6291 -0.7529 -0.8219
  288MOL0    Cl38790   7.878   0.837  12.078 -0.3361 -0.4618 -0.2242
  288MOL0     C38791   8.133   1.824  12.271  0.8704 -1.0268  0.0140
  288MOL0     C38792   8.254   1.880  12.290 -0.4502  0.6633  1.0768
  288MOL0     O38793   8.540   1.737  12.330 -0.0664 -0.4634 -0.1164
  288MOL0     C38794   8.712   1.996  12.525  0.3878 -0.5298 -0.7293
  288MOL0     C38795   8.838   2.037  12.556  0.4617 -0.2990 -0.4578
  288MOL0     N38796   9.183   2.434  12.189  0.3745 -0.6437  0.3466
  288MOL0     N38797   9.205   2.562  12.204 -0.3587  0.1425  0.0940
  288MOL0     C38798  10.021   3.311  11.580  0.0565 -0.1050 -0.9787
  288MOL0     C38799  10.042   3.324  11.440 -0.0311 -0.6853 -0.1878
  288MOL0     C38800  10.058   3.381  11.011 -0.1781 -0.5664  0.4810
  288MOL0     C38801   9.975   3.282  10.950  0.0691  0.0563 -0.3158
  288MOL0     C38802   9.963   3.264  10.809 -0.2293  0.5424  0.0176
  288MOL0     C38803  10.043   3.348  10.725 -0.9956  0.1696  0.5427
  288MOL0     O38804  10.020   3.330  10.588  0.1838 -0.4079 -0.0775
  288MOL0     C38805  10.093   3.417  10.502  1.1065  1.6587  0.0235
  288MOL0     C38806  10.242   3.378  10.474 -0.1023  1.1686 -0.0266
  288MOL0     C38807  10.317   3.470  10.380 -0.6454  0.3615  0.5322
  288MOL0     C38808  10.393   3.595  10.439 -0.5723 -0.3008  0.2520
  288MOL0     C38809  10.537   3.591  10.451 -0.4396  0.5002 -0.2797
  288MOL0     C38810  10.661   3.582  10.474  0.6280 -0.0716  0.3578
  288MOL0     C38811  10.135   3.436  10.785 -0.5190 -0.6630 -0.1865
  288MOL0     C38812  10.142   3.451  10.924 -0.1565  0.0594 -0.3835
  288MOL0     H38813   9.731   3.313  11.328 -2.3982 -0.6733  1.8105
  288MOL0     H38814   9.690   3.324  11.575 -0.3468 -5.1596 -2.1364
  288MOL0     H38815   9.677   3.373  11.827 -1.4143 -0.8189 -0.3471
  288MOL0     H38816   9.713   3.213  11.754  0.3174 -1.0247  1.0514
  288MOL0     H38817   9.876   3.240  11.991  0.4408 -0.6259 -0.5866
  288MOL0     H38818   9.719   3.314  12.039 -3.5059  0.3497 -3.0874
  288MOL0     H38819   9.627   3.096  11.916 -0.6613 -3.7733  1.8454
  288MOL0     H38820   9.781   3.036  11.968 -1.4379 -0.8624 -3.1857
  288MOL0     H38821   9.712   3.098  12.211  0.0323 -1.1445  0.7767
  288MOL0     H38822   9.554   3.145  12.140  0.3255  0.6216  0.1726
  288MOL0     H38823   9.527   2.922  12.069  0.2170 -1.3089 -0.5168
  288MOL0     H38824   9.695   2.877  12.089 -0.7715 -1.2151 -0.7765
  288MOL0     H38825   9.673   2.867  12.344 -2.1449 -2.1868  1.9129
  288MOL0     H38826   9.512   2.927  12.332 -2.4940 -1.7971 -1.8290
  288MOL0     H38827   9.600   2.672  12.180  0.7469 -0.6238 -0.5579
  288MOL0     H38828   9.548   2.677  12.359  1.7574  1.3440 -0.4107
  288MOL0     H38829   9.358   2.762  12.124 -0.4510  0.8378  0.8393
  288MOL0     H38830   9.319   2.763  12.283  0.1181 -1.1230  0.8539
  288MOL0     H38831   9.508   2.424  12.217  0.4408  1.0777 -0.5731
  288MOL0     H38832   9.249   2.156  12.128 -0.1107 -0.9512  1.4244
  288MOL0     H38833   9.417   2.218  12.098  0.6372 -1.7306  1.6565
  288MOL0     H38834   9.478   2.180  12.318 -1.3029 -0.3069  4.0814
  288MOL0     H38835   9.383   2.025  12.266  0.4117  0.3007 -1.1675
  288MOL0     H38836   9.275   2.247  12.420  6.1102  0.8909  1.9715
  288MOL0     H38837   9.329   2.100  12.494  4.9490  0.2826 -1.0043
  288MOL0     H38838   9.165   1.969  12.353 -1.7435 -1.1250  2.8529
  288MOL0     H38839   9.101   2.133  12.304 -3.9965  0.8888  2.1119
  288MOL0     H38840   9.006   1.881  12.297  0.2601  3.1415 -2.1603
  288MOL0     H38841   8.732   1.808  12.135  0.4558 -0.6925 -1.3077
  288MOL0     H38842   8.897   1.780  12.169  0.2525  1.2826  0.7116
  288MOL0     H38843   8.775   1.676  12.258  0.0123 -1.2338 -3.3378
  288MOL0     H38844   8.257   1.841  12.627  0.2416  3.1518 -1.0383
  288MOL0     H38845   8.034   1.763  12.589 -1.4241  0.8875 -0.1938
  288MOL0     H38846   7.900   1.623  12.170  0.1752 -1.3427 -0.0472
  288MOL0     H38847   8.009   1.542  12.287  1.5274  2.1897  0.7487
  288MOL0     H38848   7.806   1.514  12.439  2.9197  1.6531 -0.2442
  288MOL0     H38849   7.706   1.577  12.294 -0.0507 -0.4426 -1.4959
  288MOL0     H38850   7.894   1.331  12.315 -0.3446 -1.1517 -1.0612
  288MOL0     H38851   7.781   1.379  12.176 -0.0615 -1.2450 -0.0617
  288MOL0     H38852   7.638   1.343  12.430  0.2830 -1.4921  1.0182
  288MOL0     H38853   7.596   1.328  12.264  2.8074  3.9468 -1.7779
  288MOL0     H38854   7.662   1.107  12.434 -2.4444 -0.5249 -2.4217
  288MOL0     H38855   7.817   1.151  12.363 -0.1509 -1.2429  1.4963
  288MOL0     H38856   7.558   1.066  12.210  0.5081  0.7964 -2.6112
  288MOL0     H38857   7.712   1.091  12.140 -1.0918 -1.7668 -0.1824
  288MOL0     H38858   7.608   0.886  12.332  1.4875 -4.5777 -0.9670
  288MOL0     H38859   7.792   0.899  12.322 -0.5418 -1.3074  0.5605
  288MOL0     H38860   7.638   0.851  12.078  0.3230  3.2981 -0.7132
  288MOL0     H38861   7.707   0.719  12.169 -0.4776 -0.4338  1.5054
  288MOL0     H38862   8.094   1.827  12.170  0.7179 -1.2414  0.0661
  288MOL0     H38863   8.307   1.921  12.205  1.4724 -2.2036  0.7503
  288MOL0     H38864   8.639   2.029  12.599  0.3315 -2.0739 -0.0644
  288MOL0     H38865   8.862   2.092  12.646  0.8724  0.1271 -0.8161
  288MOL0     H38866  10.114   3.298  11.635  0.8800  0.7432 -2.1184
  288MOL0     H38867  10.145   3.307  11.411 -0.0240 -1.4285  0.2634
  288MOL0     H38868   9.917   3.212  11.009 -0.9796  1.3328  0.2266
  288MOL0     H38869   9.895   3.196  10.758 -1.2192 -0.5151  2.5682
  288MOL0     H38870  10.044   3.422  10.405  1.9648  1.4133 -0.4352
  288MOL0     H38871  10.103   3.520  10.539  2.1771  0.5498  3.1954
  288MOL0     H38872  10.230   3.276  10.435 -3.8143 -0.5702  4.6156
  288MOL0     H38873  10.292   3.362  10.570 -0.2719  0.8013  0.0054
  288MOL0     H38874  10.236   3.501  10.313 -1.2229  0.0508  1.0687
  288MOL0     H38875  10.386   3.406  10.324  2.1827  1.1182  2.9241
  288MOL0     H38876  10.353   3.618  10.538  0.4853  0.7282  0.4760
  288MOL0     H38877  10.369   3.676  10.369 -0.0159 -0.7181 -0.4361
  288MOL0     H38878  10.765   3.575  10.499  0.8643  1.1002 -0.2523
  288MOL0     H38879  10.206   3.491  10.724  2.2642 -2.1991  1.4061
  288MOL0     H38880  10.205   3.524  10.974 -3.1919  1.4592  1.6578
  289MOL0     O38881   2.794  10.581   8.520  0.0416  0.0309 -0.1772
  289MOL0     C38882   2.749  10.595   8.627  0.6839 -0.3078  0.4074
  289MOL0     O38883   2.628  10.552   8.669 -0.6568  0.1522  0.1472
  289MOL0     C38884   2.552  10.470   8.591 -0.1980 -0.5717  0.0400
  289MOL0     C38885   2.417  10.497   8.569 -0.6850 -0.4999  0.2449
  289MOL0     C38886   2.346  10.412   8.487 -0.9672  0.3183  0.0296
  289MOL0     C38887   2.397  10.300   8.434 -0.7894 -0.5164 -0.2385
  289MOL0     O38888   2.315  10.220   8.363 -0.1375  0.2742 -0.7553
  289MOL0     C38889   2.341  10.081   8.350 -0.1731  1.4772 -0.8076
  289MOL0     C38890   2.297  10.012   8.483  0.1859  0.1622  0.6133
  289MOL0     C38891   2.311   9.860   8.501 -0.1870  0.8444  0.1033
  289MOL0     C38892   2.254   9.773   8.392  0.2018 -0.3797  0.7329
  289MOL0     C38893   2.177   9.648   8.446 -0.2432 -0.1504 -0.0469
  289MOL0     C38894   2.105   9.578   8.331 -0.1842 -0.2629  0.0254
  289MOL0     C38895   1.987   9.512   8.394  0.1018 -0.1416  0.0818
  289MOL0     C38896   1.883   9.453   8.300  0.7548 -0.1776 -0.0089
  289MOL0     N38897   1.750   9.522   8.300 -1.0475  0.2943  0.1347
  289MOL0     C38898   1.624   9.477   8.297 -0.8806  0.0347  0.2949
  289MOL0     C38899   1.544   9.581   8.254 -0.2625 -0.3880  0.2071
  289MOL0     C38900   1.396   9.570   8.231  0.1307  0.0039 -0.5180
  289MOL0     C38901   1.345   9.495   8.108  0.7308  0.0826 -0.9949
  289MOL0     C38902   1.203   9.457   8.127 -0.3192  0.4859  0.3329
  289MOL0     C38903   1.107   9.580   8.164 -0.0550  0.5396 -0.2647
  289MOL0     O38904   0.972   9.531   8.133 -0.5795 -0.0051  0.2416
  289MOL0     C38905   0.861   9.599   8.158  0.6684 -0.2292  0.5139
  289MOL0     C38906   0.747   9.534   8.189 -0.8663 -0.1802 -0.4105
  289MOL0     C38907   0.631   9.603   8.230 -0.5912 -0.4556  0.5137
  289MOL0     C38908   0.516   9.521   8.269 -0.2549  0.3246  0.0129
  289MOL0     C38909   0.621   9.743   8.229  0.8985 -0.5910 -0.7456
  289MOL0     C38910   0.504   9.814   8.290 -0.4451  0.3979 -0.4482
  289MOL0     O38911   0.536   9.945   8.328  0.3246 -0.4082 -0.1255
  289MOL0     C38912   0.438  10.007   8.392 -0.3277 -1.1890 -0.5284
  289MOL0     C38913   0.382   9.953   8.515 -1.2456 -0.3404  0.2877
  289MOL0     C38914   0.269  10.009   8.571  1.0261 -0.1962  0.5809
  289MOL0     C38915   0.211  10.129   8.516  0.9937  0.3985 -0.2399
  289MOL0     O38916   0.108  10.199   8.571  0.1013 -0.4325  0.3441
  289MOL0     C38917   0.044  10.163   8.700 -0.0283 -0.1363  0.3342
  289MOL0     C38918  -0.067  10.261   8.729 -0.3119  0.4197 -1.2417
  289MOL0     C38919  -0.124  10.260   8.882  0.0461 -0.0007 -0.4040
  289MOL0     C38920  -0.100  10.123   8.956 -0.3661 -0.7460  0.5375
  289MOL0     C38921  -0.196  10.118   9.081  0.0538 -0.1307  0.2360
  289MOL0     C38922  -0.181   9.976   9.139 -0.2600 -0.4452  0.0642
  289MOL0     C38923  -0.269   9.946   9.253  0.7054 -0.1371  0.0930
  289MOL0     C38924  -0.248   9.803   9.299  0.4883  0.5482  0.4636
  289MOL0    Cl38925  -0.083   9.768   9.353  0.2361 -0.2299 -0.2617
  289MOL0     C38926   0.271  10.174   8.396  0.7020  0.3798 -0.5709
  289MOL0     C38927   0.378  10.110   8.332  0.5528 -0.0179  0.2398
  289MOL0     O38928   0.395   9.763   8.279  0.2794  0.2557  0.3174
  289MOL0     C38929   0.739   9.806   8.197 -0.5648 -1.1708 -0.0343
  289MOL0     C38930   0.853   9.735   8.171 -0.6274 -1.2000  0.6633
  289MOL0     N38931   1.620   9.693   8.243  0.0210  0.9959  0.8497
  289MOL0     N38932   1.747   9.652   8.260 -0.6433 -0.8020 -0.1397
  289MOL0     C38933   2.530  10.265   8.446 -0.2934 -0.2828 -1.2458
  289MOL0     C38934   2.605  10.354   8.521  0.0101 -0.0442  0.3404
  289MOL0     C38935   2.838  10.670   8.722  0.1769  1.2267 -0.4074
  289MOL0     C38936   2.974  10.698   8.692  1.6192  0.8760  0.2893
  289MOL0     C38937   3.043  10.767   8.787 -0.0238 -0.3640  0.2849
  289MOL0     C38938   2.986  10.830   8.901 -0.0934  0.1373 -0.8903
  289MOL0     O38939   3.057  10.920   8.981  0.1972 -0.0037 -0.3439
  289MOL0     C38940   3.134  11.016   8.912 -0.2840  0.0190  0.4774
  289MOL0     C38941   3.171  11.136   9.001  0.2616  1.4927 -0.1761
  289MOL0     C38942   3.045  11.230   9.024  0.0512  1.2572 -0.9274
  289MOL0     C38943   3.057  11.361   8.944  0.3601 -0.0873 -0.0944
  289MOL0     C38944   2.926  11.427   8.924 -0.3837 -0.1796  0.0649
  289MOL0     C38945   2.815  11.487   8.918 -0.1727  0.0653 -1.3202
  289MOL0     C38946   2.857  10.800   8.924  0.1421  0.4235 -0.1226
  289MOL0     C38947   2.784  10.714   8.841  0.6650  0.2479 -1.1349
  289MOL0     H38948   2.370  10.583   8.616 -0.6374 -1.2375  1.6959
  289MOL0     H38949   2.240  10.411   8.461 -0.2128  1.1548 -3.5588
  289MOL0     H38950   2.277  10.044   8.270  1.0687 -0.6083 -0.9058
  289MOL0     H38951   2.442  10.044   8.329 -0.0982 -0.0794  1.8270
  289MOL0     H38952   2.352  10.052   8.568  1.7940  2.3041 -1.2817
  289MOL0     H38953   2.192  10.035   8.502 -0.2133 -1.4491  0.4761
  289MOL0     H38954   2.416   9.837   8.523 -0.5852 -0.7267  0.4967
  289MOL0     H38955   2.272   9.846   8.602  1.8140 -0.0089  0.7996
  289MOL0     H38956   2.186   9.833   8.330  0.8777 -0.5556 -0.1975
  289MOL0     H38957   2.332   9.742   8.322 -0.0509  0.3409  0.1272
  289MOL0     H38958   2.239   9.573   8.495 -0.9414  0.0486  1.1854
  289MOL0     H38959   2.104   9.682   8.521 -2.7319 -2.8493 -1.0337
  289MOL0     H38960   2.059   9.645   8.258 -2.2091 -0.2515  1.2431
  289MOL0     H38961   2.172   9.504   8.285 -2.0735 -2.5420  0.7182
  289MOL0     H38962   2.018   9.429   8.458  0.7994  0.6982  0.8487
  289MOL0     H38963   1.931   9.576   8.463  0.0448 -1.3374  1.1849
  289MOL0     H38964   1.861   9.352   8.337 -0.3398  0.0642  0.0396
  289MOL0     H38965   1.918   9.466   8.198 -1.8393  2.9612 -0.6467
  289MOL0     H38966   1.582   9.380   8.320 -2.9511  0.6228 -0.6831
  289MOL0     H38967   1.351   9.531   8.323 -0.5887  2.5142  0.2829
  289MOL0     H38968   1.366   9.675   8.222  3.1662  0.9041 -1.1114
  289MOL0     H38969   1.398   9.401   8.097 -0.8068 -0.8198 -0.9849
  289MOL0     H38970   1.370   9.562   8.025  1.3844 -0.7861 -1.5054
  289MOL0     H38971   1.203   9.394   8.217  2.5394  2.8716  2.2193
  289MOL0     H38972   1.174   9.400   8.039 -1.3164 -0.2148  1.0993
  289MOL0     H38973   1.140   9.673   8.117 -1.2480  0.6872 -0.8525
  289MOL0     H38974   1.122   9.601   8.270  0.5081  0.7123 -0.3751
  289MOL0     H38975   0.744   9.427   8.169  1.6330 -0.4587  0.4111
  289MOL0     H38976   0.492   9.545   8.373  1.6985  2.5116  0.0680
  289MOL0     H38977   0.429   9.538   8.206  0.5174  2.4565 -0.5760
  289MOL0     H38978   0.537   9.414   8.270 -2.2308 -0.2061  3.5942
  289MOL0     H38979   0.427   9.879   8.581 -3.9374 -2.0818  0.3117
  289MOL0     H38980   0.225   9.976   8.665  1.7814  0.2860  1.1226
  289MOL0     H38981   0.013  10.058   8.706  1.7255 -0.6502  1.0907
  289MOL0     H38982   0.118  10.171   8.781  1.2553 -0.8572 -0.7164
  289MOL0     H38983  -0.043  10.365   8.705 -0.1973  0.7477  0.1714
  289MOL0     H38984  -0.146  10.241   8.655  1.2202 -3.1532 -2.1152
  289MOL0     H38985  -0.230  10.286   8.882 -0.4604 -1.7664  1.9839
  289MOL0     H38986  -0.085  10.339   8.946 -2.8714 -0.2025  1.8286
  289MOL0     H38987  -0.108  10.037   8.889  1.9108  1.0891 -2.3882
  289MOL0     H38988   0.005  10.124   8.989  0.2577  2.3050 -1.1241
  289MOL0     H38989  -0.298  10.137   9.046 -0.2475  1.6778  1.9638
  289MOL0     H38990  -0.167  10.191   9.156 -0.4672 -1.3990  1.7214
  289MOL0     H38991  -0.202   9.909   9.055  0.5918  0.8494 -1.2312
  289MOL0     H38992  -0.074   9.966   9.160 -0.3823  0.9532  1.5599
  289MOL0     H38993  -0.371   9.963   9.216  1.3076 -0.9096 -2.0451
  289MOL0     H38994  -0.248  10.020   9.331  1.3920  1.1686 -1.2680
  289MOL0     H38995  -0.270   9.729   9.222  1.5685 -1.1668  1.7287
  289MOL0     H38996  -0.323   9.787   9.377  0.4106  0.5555  0.3902
  289MOL0     H38997   0.226  10.263   8.352 -0.4722 -0.7370 -1.7003
  289MOL0     H38998   0.413  10.144   8.235 -1.1145  2.1107  0.3205
  289MOL0     H38999   0.747   9.914   8.192  0.1719 -1.1244  1.4086
  289MOL0     H39000   0.938   9.791   8.134 -1.8503  0.1913 -0.1669
  289MOL0     H39001   2.569  10.188   8.381 -1.7104 -1.1143 -1.1603
  289MOL0     H39002   2.712  10.333   8.526  0.0442 -0.1281 -0.4991
  289MOL0     H39003   3.010  10.669   8.594  0.7095  0.9827 -0.0855
  289MOL0     H39004   3.147  10.794   8.772 -0.6699  3.3773  1.3522
  289MOL0     H39005   3.226  10.963   8.886 -0.1339  0.4488  0.1160
  289MOL0     H39006   3.089  11.049   8.818  1.8600  1.1965 -0.2163
  289MOL0     H39007   3.248  11.198   8.954  0.4543  2.3007  1.1317
  289MOL0     H39008   3.212  11.106   9.098 -0.7397 -0.5206 -0.3272
  289MOL0     H39009   3.041  11.254   9.131 -0.0982 -1.8175 -0.1587
  289MOL0     H39010   2.953  11.178   8.998  0.2725  0.0765  0.5048
  289MOL0     H39011   3.098  11.337   8.846  0.3083  1.2599 -0.4611
  289MOL0     H39012   3.123  11.434   8.992 -1.2163  1.2214  0.1734
  289MOL0     H39013   2.718  11.532   8.921 -0.6242 -0.9007 -0.8286
  289MOL0     H39014   2.801  10.846   9.005  1.6965  1.5358  0.3525
  289MOL0     H39015   2.679  10.695   8.860  1.1846 -0.2413  1.7844
  290MOL0     O39016   6.813   2.937  11.386 -0.4296 -0.6777 -0.2127
  290MOL0     C39017   6.850   2.902  11.273  0.1908  0.8147 -0.1496
  290MOL0     O39018   6.978   2.899  11.240 -0.2156 -0.4926  0.3142
  290MOL0     C39019   7.079   2.907  11.335  1.0061 -0.0602  0.3010
  290MOL0     C39020   7.086   2.861  11.462  0.2000 -0.1790 -0.7492
  290MOL0     C39021   7.190   2.881  11.543 -1.4093 -0.1932 -0.5089
  290MOL0     C39022   7.300   2.958  11.505  0.2531 -0.2436  1.1739
  290MOL0     O39023   7.403   2.993  11.590  0.4746  0.4419 -0.0926
  290MOL0     C39024   7.467   2.885  11.663 -0.2202  0.2525 -1.1365
  290MOL0     C39025   7.573   2.958  11.742 -0.1899 -0.7700  0.0504
  290MOL0     C39026   7.644   2.856  11.832 -0.2461  0.1393 -0.3452
  290MOL0     C39027   7.771   2.915  11.887 -0.1430  0.5825 -0.7491
  290MOL0     C39028   7.879   2.978  11.784 -0.1682 -0.5259 -0.3605
  290MOL0     C39029   8.016   2.967  11.843 -1.0189  0.2197 -0.4903
  290MOL0     C39030   8.127   3.058  11.775  0.9790  0.5292  0.6136
  290MOL0     C39031   8.113   3.052  11.622  0.0471  1.0643  0.1972
  290MOL0     N39032   8.245   3.050  11.562  0.5365  1.1811  0.2879
  290MOL0     C39033   8.284   3.139  11.462 -0.3072 -0.4997 -0.3825
  290MOL0     C39034   8.413   3.101  11.423 -0.5768  0.4987  0.1119
  290MOL0     C39035   8.488   3.164  11.317 -0.9196 -0.0493 -0.0899
  290MOL0     C39036   8.583   3.277  11.359  0.6210  0.0525 -0.1289
  290MOL0     C39037   8.703   3.197  11.430 -0.2885 -0.1328  0.1809
  290MOL0     C39038   8.798   3.295  11.488 -0.0285  0.9293  0.1140
  290MOL0     O39039   8.906   3.217  11.535 -0.7044  0.8745  0.2249
  290MOL0     C39040   9.014   3.200  11.459  0.9373  0.2874  0.4624
  290MOL0     C39041   9.124   3.123  11.512  0.7201 -0.1693  0.9674
  290MOL0     C39042   9.247   3.100  11.454 -0.6034  0.7529 -0.1382
  290MOL0     C39043   9.335   3.013  11.538  0.5568 -0.0604  0.6854
  290MOL0     C39044   9.271   3.158  11.323  0.3449 -0.3188 -0.4240
  290MOL0     C39045   9.404   3.146  11.250 -0.0809 -0.5262  0.1012
  290MOL0     O39046   9.396   3.176  11.117 -0.3271 -0.6009  0.2843
  290MOL0     C39047   9.492   3.114  11.035 -0.9818  0.4901  0.7302
  290MOL0     C39048   9.507   3.178  10.905 -0.2240  0.1395 -0.0464
  290MOL0     C39049   9.592   3.117  10.814  1.0030  0.3767  0.4455
  290MOL0     C39050   9.655   2.995  10.842 -0.4084  0.6053  0.0680
  290MOL0     O39051   9.741   2.934  10.749  0.0848 -0.4553  0.4712
  290MOL0     C39052   9.701   2.929  10.616  0.1928 -0.5523  0.7489
  290MOL0     C39053   9.586   2.822  10.607  0.3350 -0.6775  0.1381
  290MOL0     C39054   9.435   2.867  10.611 -0.4795 -0.5614  0.6727
  290MOL0     C39055   9.392   2.965  10.489 -0.1366  1.0203 -1.4698
  290MOL0     C39056   9.234   2.996  10.492  1.6099 -0.2352  0.5602
  290MOL0     C39057   9.187   3.088  10.603 -0.6210  0.9811 -0.1119
  290MOL0     C39058   9.044   3.131  10.593 -0.6869  0.4230  0.6080
  290MOL0     C39059   8.996   3.203  10.721  1.0938  0.0380 -0.1234
  290MOL0    Cl39060   9.134   3.276  10.789 -0.5605 -0.3006 -0.1656
  290MOL0     C39061   9.628   2.927  10.962 -0.4392  0.5956 -0.3189
  290MOL0     C39062   9.546   2.983  11.061  0.3362 -0.4512 -0.3288
  290MOL0     O39063   9.498   3.108  11.312 -0.2394 -0.7944 -0.3821
  290MOL0     C39064   9.163   3.232  11.261  0.0664 -0.8351  0.4131
  290MOL0     C39065   9.036   3.264  11.330 -0.5733  0.7997  0.0495
  290MOL0     N39066   8.439   2.979  11.491  0.1881 -0.4703 -0.0806
  290MOL0     N39067   8.345   2.955  11.572  0.3107 -0.0786  0.2416
  290MOL0     C39068   7.294   3.019  11.385  1.0408  0.1094 -0.0430
  290MOL0     C39069   7.190   2.987  11.297 -0.2295 -0.0776  0.4871
  290MOL0     C39070   6.756   2.838  11.185 -0.8609  0.0560 -1.5110
  290MOL0     C39071   6.631   2.798  11.246 -0.5157  0.4760 -0.5010
  290MOL0     C39072   6.527   2.740  11.184 -0.2435 -0.1605 -0.1593
  290MOL0     C39073   6.538   2.721  11.048 -0.3629 -0.0894 -0.0707
  290MOL0     O39074   6.440   2.664  10.969  0.3490  0.4576  0.7055
  290MOL0     C39075   6.348   2.567  11.020  0.5395  0.6733 -0.4915
  290MOL0     C39076   6.264   2.510  10.898 -0.0704 -0.0457  0.1637
  290MOL0     C39077   6.173   2.618  10.832 -0.2786 -0.2517  0.2549
  290MOL0     C39078   6.132   2.597  10.681  0.7384 -0.2398  0.0362
  290MOL0     C39079   5.987   2.610  10.676 -0.2069  0.1093  0.9527
  290MOL0     C39080   5.871   2.612  10.653  0.6959  0.9617 -0.6367
  290MOL0     C39081   6.653   2.767  10.985 -0.7083 -0.4314  0.0030
  290MOL0     C39082   6.764   2.817  11.053 -0.3111  0.1299  0.5009
  290MOL0     H39083   7.007   2.796  11.498 -1.0979  0.5529 -2.1566
  290MOL0     H39084   7.199   2.817  11.630  2.2084  2.6539  1.5044
  290MOL0     H39085   7.409   2.834  11.740  0.6391  1.4625  0.3943
  290MOL0     H39086   7.495   2.806  11.593 -0.3684 -0.0945 -0.8062
  290MOL0     H39087   7.639   3.004  11.668 -0.5272 -0.4007 -0.0224
  290MOL0     H39088   7.518   3.027  11.807 -0.0478 -2.7081  2.3764
  290MOL0     H39089   7.578   2.832  11.916  1.4504  0.6140  1.1815
  290MOL0     H39090   7.691   2.770  11.782 -0.0680 -0.3945  0.7113
  290MOL0     H39091   7.747   3.000  11.952  0.9276 -0.6571  1.3801
  290MOL0     H39092   7.814   2.837  11.950  1.0796  1.1284 -0.8727
  290MOL0     H39093   7.881   2.931  11.686 -1.5840  1.2547 -1.3157
  290MOL0     H39094   7.856   3.084  11.771 -0.5663 -0.6709 -0.8676
  290MOL0     H39095   8.016   2.993  11.950 -0.7222 -1.4050 -0.0734
  290MOL0     H39096   8.041   2.862  11.826 -0.9535  0.3355 -1.1135
  290MOL0     H39097   8.117   3.161  11.810 -2.8371  0.7882 -0.7299
  290MOL0     H39098   8.227   3.021  11.799  0.3002 -0.9930  1.2448
  290MOL0     H39099   8.060   3.144  11.593 -0.0074  2.0561  3.1358
  290MOL0     H39100   8.054   2.963  11.599 -2.2692  1.7447  2.9862
  290MOL0     H39101   8.226   3.220  11.420  0.1845 -0.7814 -1.6709
  290MOL0     H39102   8.546   3.092  11.258 -1.5334  0.0162 -0.7902
  290MOL0     H39103   8.420   3.225  11.257  1.0582  2.9578  0.4475
  290MOL0     H39104   8.525   3.331  11.434 -0.3377  0.9590 -1.4907
  290MOL0     H39105   8.614   3.344  11.278  2.5893 -0.3599  0.2198
  290MOL0     H39106   8.753   3.124  11.365  0.0902  0.7689 -0.5587
  290MOL0     H39107   8.668   3.139  11.516  3.2208 -1.2972  0.9958
  290MOL0     H39108   8.765   3.351  11.575  4.0603  1.2107  1.7078
  290MOL0     H39109   8.824   3.371  11.414 -1.1377  0.7342 -0.5050
  290MOL0     H39110   9.098   3.092  11.613  0.8475 -0.9874  0.7589
  290MOL0     H39111   9.334   2.915  11.490 -2.3255 -1.2373  2.8277
  290MOL0     H39112   9.437   3.052  11.542 -0.4090  2.5533  2.6382
  290MOL0     H39113   9.310   2.993  11.642  2.4990 -2.7290  0.7472
  290MOL0     H39114   9.451   3.270  10.891  1.4130  0.9530 -1.4927
  290MOL0     H39115   9.609   3.179  10.727  0.6939 -1.3426 -0.8995
  290MOL0     H39116   9.661   3.020  10.570  0.9694  0.4092  1.9168
  290MOL0     H39117   9.786   2.910  10.550  0.4271 -1.5059  1.3037
  290MOL0     H39118   9.603   2.782  10.507 -0.5552  2.2566 -1.3102
  290MOL0     H39119   9.602   2.735  10.671 -0.0859 -0.6800  0.2431
  290MOL0     H39120   9.416   2.922  10.704 -0.6722 -1.9114  1.4578
  290MOL0     H39121   9.367   2.784  10.594  2.0895 -2.4110 -1.4775
  290MOL0     H39122   9.444   3.060  10.474  0.7652  1.1017  1.6004
  290MOL0     H39123   9.408   2.904  10.399 -1.6057 -2.1894  0.2751
  290MOL0     H39124   9.185   2.898  10.498  0.9971 -0.2050 -2.4024
  290MOL0     H39125   9.211   3.047  10.398 -3.3755 -1.4169  0.8673
  290MOL0     H39126   9.202   3.031  10.696 -0.0265  1.4635  0.0980
  290MOL0     H39127   9.252   3.176  10.601  0.8635  0.0039  1.6389
  290MOL0     H39128   8.982   3.042  10.579  2.1604 -1.6329  0.0813
  290MOL0     H39129   9.028   3.206  10.515  1.1313  1.0922  0.8371
  290MOL0     H39130   8.954   3.140  10.800 -0.5200  1.7913  0.4835
  290MOL0     H39131   8.910   3.268  10.701 -2.6574 -3.2581  3.3464
  290MOL0     H39132   9.678   2.832  10.979 -2.9002 -1.4078 -3.1215
  290MOL0     H39133   9.521   2.932  11.153  1.3764 -0.8063 -0.2340
  290MOL0     H39134   9.182   3.277  11.164 -3.7150 -1.0851 -0.6032
  290MOL0     H39135   8.965   3.335  11.288 -2.3175 -0.9824 -0.1664
  290MOL0     H39136   7.368   3.095  11.361  2.2841 -1.6096 -1.9397
  290MOL0     H39137   7.183   3.037  11.201  1.5407  0.2564  0.4969
  290MOL0     H39138   6.621   2.808  11.354  2.4903 -1.3960  0.0935
  290MOL0     H39139   6.431   2.713  11.226 -0.7636  3.1690  1.1200
  290MOL0     H39140   6.413   2.486  11.056 -0.1356  0.6115  0.6487
  290MOL0     H39141   6.277   2.611  11.090 -0.5324  0.3804 -1.3556
  290MOL0     H39142   6.199   2.431  10.937 -2.0829  1.4430  0.0393
  290MOL0     H39143   6.328   2.466  10.821 -0.5364 -0.4309 -0.0160
  290MOL0     H39144   6.201   2.724  10.833 -1.6393  0.1870 -1.8257
  290MOL0     H39145   6.079   2.621  10.888 -0.8106 -2.4449 -0.4417
  290MOL0     H39146   6.153   2.495  10.648 -0.7126  0.2729 -2.8338
  290MOL0     H39147   6.178   2.676  10.621 -0.0406  1.0902  1.1342
  290MOL0     H39148   5.766   2.629  10.638  1.3449  1.6198 -6.2726
  290MOL0     H39149   6.668   2.754  10.878  3.3343  0.3421  0.3290
  290MOL0     H39150   6.849   2.851  10.994 -0.4257  1.2395  0.9479
  291MOL0     O39151   9.583   7.981   9.599 -1.0018 -0.4379 -0.6352
  291MOL0     C39152   9.565   7.938   9.483  1.3751 -0.5079 -0.3079
  291MOL0     O39153   9.627   7.829   9.427 -0.2493  0.2695 -0.0154
  291MOL0     C39154   9.732   7.770   9.493 -0.8270  0.0258  0.0510
  291MOL0     C39155   9.719   7.662   9.571 -0.3575 -0.1056  0.4874
  291MOL0     C39156   9.826   7.583   9.607  0.5816 -0.4313 -0.4967
  291MOL0     C39157   9.957   7.620   9.571  0.5332  0.6273 -0.5494
  291MOL0     O39158  10.068   7.544   9.592 -0.1030 -0.2481 -0.0379
  291MOL0     C39159  10.110   7.511   9.724 -0.2065 -0.5242  0.1213
  291MOL0     C39160  10.218   7.394   9.737  0.2433 -0.3390 -0.3011
  291MOL0     C39161  10.368   7.428   9.694  1.0336 -0.0855 -0.2081
  291MOL0     C39162  10.448   7.295   9.710  0.0423  0.3334  0.3147
  291MOL0     C39163  10.605   7.320   9.694  0.7761 -0.0891 -0.0069
  291MOL0     C39164  10.653   7.350   9.557 -0.3350 -0.2445 -0.0502
  291MOL0     C39165  10.677   7.223   9.480 -0.5370  0.3491 -1.1090
  291MOL0     C39166  10.711   7.242   9.339 -0.7596 -0.4828  0.5169
  291MOL0     N39167  10.759   7.122   9.270 -0.9663 -0.2952  0.1712
  291MOL0     C39168  10.869   7.047   9.289 -0.3717 -0.6111 -0.0270
  291MOL0     C39169  10.865   6.954   9.192  0.9786 -0.2217 -0.5540
  291MOL0     C39170  10.965   6.850   9.169  0.8959  0.6024  0.4174
  291MOL0     C39171  11.084   6.898   9.085 -0.2473 -0.1812  0.7323
  291MOL0     C39172  11.184   6.784   9.066 -0.0016 -1.1296 -0.2580
  291MOL0     C39173  11.327   6.831   9.059  0.3351  0.5120 -0.4136
  291MOL0     O39174  11.352   6.912   8.949  0.2757 -0.0403 -0.3185
  291MOL0     C39175  11.467   6.978   8.941 -0.6583 -0.1598 -0.5008
  291MOL0     C39176  11.467   7.073   8.845 -0.1764  0.6343 -0.2240
  291MOL0     C39177  11.590   7.150   8.818 -0.3414  0.2762  0.6139
  291MOL0     C39178  11.568   7.259   8.715  0.2689  1.0610 -0.2451
  291MOL0     C39179  11.713   7.130   8.886 -0.1550 -0.3063 -0.1171
  291MOL0     C39180  11.839   7.203   8.864 -0.1588 -0.0328 -0.1479
  291MOL0     O39181  11.942   7.135   8.921  0.1634 -0.2472  0.2164
  291MOL0     C39182  12.071   7.143   8.865  0.8074  0.7669 -0.2833
  291MOL0     C39183  12.137   7.258   8.864 -0.0307  0.5215 -0.1821
  291MOL0     C39184  12.274   7.267   8.822  0.2507  0.4367 -0.0717
  291MOL0     C39185  12.333   7.150   8.777  0.6908  0.4002  0.6475
  291MOL0     O39186  12.465   7.161   8.737  0.0310  0.3652 -0.0431
  291MOL0     C39187  12.505   7.272   8.645 -0.1665  0.2295 -0.1794
  291MOL0     C39188  12.651   7.285   8.659  0.2347 -0.4273  0.6298
  291MOL0     C39189  12.696   7.409   8.586  0.3276 -0.6836 -0.8134
  291MOL0     C39190  12.709   7.523   8.689  0.3783 -0.9370 -0.4079
  291MOL0     C39191  12.711   7.655   8.611  0.5865  0.1865 -0.2289
  291MOL0     C39192  12.601   7.757   8.630  0.2623  0.2852  0.0001
  291MOL0     C39193  12.652   7.907   8.624 -0.8750  0.5218  0.5944
  291MOL0     C39194  12.551   8.007   8.663  0.1430 -0.8131 -0.1029
  291MOL0    Cl39195  12.541   7.972   8.846 -0.1676 -0.4486  0.4266
  291MOL0     C39196  12.264   7.024   8.772  0.3045  0.5148 -0.2029
  291MOL0     C39197  12.130   7.027   8.821 -0.1282  0.3702  0.6072
  291MOL0     O39198  11.843   7.310   8.804 -0.8141 -0.4116 -0.3461
  291MOL0     C39199  11.702   7.025   8.982 -0.7757  0.0037 -1.1036
  291MOL0     C39200  11.586   6.950   9.017 -0.0157  1.7302  0.3383
  291MOL0     N39201  10.749   6.965   9.111 -0.2805 -0.0816  0.4694
  291MOL0     N39202  10.687   7.072   9.169 -0.6789 -0.4450  0.4949
  291MOL0     C39203   9.983   7.745   9.509  0.5938  0.8826  0.4101
  291MOL0     C39204   9.870   7.812   9.464  0.0768  0.0261  0.0590
  291MOL0     C39205   9.460   8.018   9.415 -0.4338  0.1517  0.4613
  291MOL0     C39206   9.426   8.005   9.280 -0.7272 -0.0839  0.3285
  291MOL0     C39207   9.307   8.072   9.232 -0.5586 -0.0503  1.0917
  291MOL0     C39208   9.238   8.167   9.308  0.5212 -0.5605  0.4432
  291MOL0     O39209   9.143   8.251   9.257 -0.6501  0.8829  0.3529
  291MOL0     C39210   9.061   8.209   9.147  0.1325  0.1782  0.3237
  291MOL0     C39211   9.109   8.288   9.023 -0.1235 -0.4523  0.1586
  291MOL0     C39212   8.984   8.314   8.929 -0.5594 -0.0633 -0.1456
  291MOL0     C39213   9.019   8.419   8.827  0.0763  0.1402  0.0936
  291MOL0     C39214   8.927   8.412   8.712 -0.7582 -0.1135 -0.0842
  291MOL0     C39215   8.849   8.409   8.615 -0.5035  0.4824 -0.2966
  291MOL0     C39216   9.291   8.196   9.430  0.0817 -0.0180  0.6688
  291MOL0     C39217   9.390   8.118   9.483 -0.2634 -0.0299  0.5146
  291MOL0     H39218   9.623   7.636   9.616  0.5004  1.6124  3.6573
  291MOL0     H39219   9.809   7.492   9.665 -0.9350  1.7312  2.7478
  291MOL0     H39220  10.140   7.604   9.773 -0.1602  0.4297 -1.6297
  291MOL0     H39221  10.023   7.476   9.781 -1.2346  0.7909 -0.5770
  291MOL0     H39222  10.227   7.374   9.844  1.6771 -0.1145 -0.3721
  291MOL0     H39223  10.174   7.301   9.699 -1.1201  0.4008 -0.6016
  291MOL0     H39224  10.357   7.458   9.589 -0.3236 -0.5759 -0.2372
  291MOL0     H39225  10.413   7.510   9.749 -3.3309  0.3700  3.3223
  291MOL0     H39226  10.431   7.259   9.812 -1.6720 -2.4650 -0.8549
  291MOL0     H39227  10.411   7.216   9.644  2.0298  1.0964 -1.8831
  291MOL0     H39228  10.629   7.400   9.765  0.5864 -0.4388  0.4577
  291MOL0     H39229  10.654   7.231   9.733  1.0271 -1.3353 -2.9664
  291MOL0     H39230  10.577   7.412   9.508  0.2992  0.5420 -0.0445
  291MOL0     H39231  10.746   7.407   9.561 -0.2333 -0.0467 -3.0585
  291MOL0     H39232  10.755   7.165   9.530 -1.0992 -0.1365 -0.7807
  291MOL0     H39233  10.587   7.161   9.482  0.9628 -1.9542  0.3175
  291MOL0     H39234  10.799   7.307   9.335  0.8378 -2.5440  0.4338
  291MOL0     H39235  10.623   7.293   9.301  0.8725  3.3164  1.3532
  291MOL0     H39236  10.938   7.074   9.368  0.8296  1.1907 -1.6073
  291MOL0     H39237  10.990   6.804   9.265  2.5242 -1.5567 -0.9620
  291MOL0     H39238  10.919   6.771   9.108 -1.0684  1.1843  1.0546
  291MOL0     H39239  11.134   6.986   9.126  1.0663  0.9582 -2.9187
  291MOL0     H39240  11.050   6.915   8.982 -1.6949 -4.4767  0.3029
  291MOL0     H39241  11.156   6.727   8.977 -2.2021  3.3047 -2.7392
  291MOL0     H39242  11.160   6.722   9.153 -4.4913  1.0214  0.2902
  291MOL0     H39243  11.392   6.743   9.062 -0.0510  0.2476  0.4587
  291MOL0     H39244  11.328   6.882   9.156 -0.9800 -0.2888  0.0511
  291MOL0     H39245  11.371   7.072   8.794  0.0033  1.9602 -0.6363
  291MOL0     H39246  11.634   7.237   8.630  1.4555 -0.9097  1.1020
  291MOL0     H39247  11.466   7.249   8.678  0.0245  0.7473  0.4984
  291MOL0     H39248  11.605   7.352   8.759  1.6419  0.6008 -0.3691
  291MOL0     H39249  12.101   7.347   8.915  1.6455  0.7703  0.6235
  291MOL0     H39250  12.329   7.361   8.818  3.1066 -1.1796 -1.0432
  291MOL0     H39251  12.466   7.235   8.549  0.0794 -2.6709  0.7334
  291MOL0     H39252  12.455   7.368   8.660  0.2049  0.6792 -1.6422
  291MOL0     H39253  12.683   7.283   8.763 -1.4334 -0.2051  1.1869
  291MOL0     H39254  12.696   7.204   8.601 -1.2477 -0.2179 -0.9006
  291MOL0     H39255  12.624   7.432   8.506 -1.3544 -0.3479  0.7391
  291MOL0     H39256  12.790   7.399   8.532  0.0900  1.9279 -1.9130
  291MOL0     H39257  12.637   7.511   8.771  2.7868 -3.3573  1.5269
  291MOL0     H39258  12.809   7.515   8.731  0.2490 -2.2555 -0.3287
  291MOL0     H39259  12.734   7.637   8.506  0.3572 -2.6591  0.1511
  291MOL0     H39260  12.799   7.705   8.653  1.8606 -0.8883 -1.5475
  291MOL0     H39261  12.527   7.743   8.551 -1.4138 -1.9491  1.8185
  291MOL0     H39262  12.562   7.742   8.731  3.1789 -0.8788  1.0506
  291MOL0     H39263  12.684   7.916   8.519 -1.6758  1.2165  0.4008
  291MOL0     H39264  12.741   7.911   8.687 -1.1604 -2.3654  1.3604
  291MOL0     H39265  12.452   7.999   8.618 -0.6234 -0.3070  1.4044
  291MOL0     H39266  12.584   8.110   8.646  2.4692 -1.5231 -0.2263
  291MOL0     H39267  12.307   6.933   8.731 -1.0182 -0.6955  0.9683
  291MOL0     H39268  12.064   6.941   8.811  1.4113 -0.5575 -3.0665
  291MOL0     H39269  11.785   6.995   9.046  0.1765 -1.2253 -2.8078
  291MOL0     H39270  11.593   6.893   9.109  0.5516 -0.1040 -0.7887
  291MOL0     H39271  10.087   7.761   9.482  1.4466  1.6103  3.6726
  291MOL0     H39272   9.883   7.894   9.394  1.1971  0.9666  1.3192
  291MOL0     H39273   9.481   7.937   9.215  3.9781  0.6285  3.1401
  291MOL0     H39274   9.280   8.058   9.128  0.9503  2.3343  0.2824
  291MOL0     H39275   9.060   8.101   9.129  3.5188 -0.0489  0.8058
  291MOL0     H39276   8.957   8.235   9.170 -1.4371 -1.1792 -4.0811
  291MOL0     H39277   9.192   8.245   8.966  2.3917  1.5345  2.0739
  291MOL0     H39278   9.144   8.387   9.053  0.1313 -0.3305 -0.5090
  291MOL0     H39279   8.895   8.334   8.989 -0.5040 -0.0421 -0.0716
  291MOL0     H39280   8.967   8.226   8.867  2.1054 -2.1172  1.8107
  291MOL0     H39281   9.120   8.410   8.787 -0.0936 -0.5823 -0.1767
  291MOL0     H39282   9.015   8.522   8.865  0.8772  0.1880  0.0722
  291MOL0     H39283   8.788   8.383   8.531  0.0828 -2.6044  0.1084
  291MOL0     H39284   9.261   8.274   9.500 -2.0161 -0.8854  0.8323
  291MOL0     H39285   9.421   8.137   9.585  1.1687 -0.4455  0.1906
  292MOL0     O39286   9.111   0.395   6.983 -0.7425  0.4924  0.2021
  292MOL0     C39287   9.085   0.408   7.101  0.0580  0.0241  0.4126
  292MOL0     O39288   8.962   0.445   7.150  0.1719  0.7102 -0.3239
  292MOL0     C39289   8.870   0.513   7.073 -0.5645 -0.9036  0.9494
  292MOL0     C39290   8.898   0.597   6.963  0.3161 -0.0442  0.0637
  292MOL0     C39291   8.813   0.694   6.919  0.5470 -0.6007  0.2191
  292MOL0     C39292   8.685   0.705   6.966  0.2208 -0.0034  0.1973
  292MOL0     O39293   8.597   0.802   6.926  0.2719  0.4095 -0.3195
  292MOL0     C39294   8.460   0.807   6.950 -0.7755 -0.3054 -0.0753
  292MOL0     C39295   8.392   0.931   6.900  0.0590  0.1588 -0.1173
  292MOL0     C39296   8.246   0.947   6.942 -1.2482 -0.1751  0.4970
  292MOL0     C39297   8.173   1.023   6.834 -0.2281  0.7381 -1.5715
  292MOL0     C39298   8.057   1.091   6.896 -0.6896  0.2794  0.0682
  292MOL0     C39299   8.103   1.222   6.977 -0.6134 -0.1062 -0.0103
  292MOL0     C39300   8.191   1.320   6.909  0.5026 -0.7949  0.4429
  292MOL0     C39301   8.122   1.397   6.794  0.0089  0.2208  0.1219
  292MOL0     N39302   8.034   1.504   6.844 -0.4380  0.2519  0.5045
  292MOL0     C39303   8.077   1.632   6.839  0.7445 -0.0944 -1.0307
  292MOL0     C39304   7.964   1.700   6.871  0.4271 -0.0975 -0.1807
  292MOL0     C39305   7.954   1.854   6.867 -0.5993  0.6941 -0.7707
  292MOL0     C39306   7.872   1.893   6.738 -0.5519  1.1408  0.1643
  292MOL0     C39307   7.866   2.041   6.704  0.5231 -0.2295  0.2246
  292MOL0     C39308   7.816   2.064   6.565  0.1669 -0.0413  0.6374
  292MOL0     O39309   7.779   2.203   6.535  0.4049  0.1973 -0.5465
  292MOL0     C39310   7.764   2.237   6.401 -0.8996 -0.3687 -0.0217
  292MOL0     C39311   7.754   2.143   6.293 -0.1134  0.3112 -0.4476
  292MOL0     C39312   7.712   2.186   6.169  0.7247  0.4049  0.9156
  292MOL0     C39313   7.704   2.083   6.057 -0.3705  0.1190 -0.0558
  292MOL0     C39314   7.668   2.323   6.144 -0.1396 -0.4143 -1.2278
  292MOL0     C39315   7.597   2.367   6.016  0.6385 -1.2698  0.1174
  292MOL0     O39316   7.555   2.496   6.031 -0.4034  0.1238 -0.6403
  292MOL0     C39317   7.507   2.553   5.915  0.1293  0.9706  0.0464
  292MOL0     C39318   7.595   2.629   5.830  0.2307  0.2252  0.1600
  292MOL0     C39319   7.544   2.701   5.722  0.9569  0.4679 -0.5385
  292MOL0     C39320   7.398   2.695   5.696  0.3806 -0.8146 -0.6710
  292MOL0     O39321   7.353   2.777   5.588  0.0417 -0.7220  0.4640
  292MOL0     C39322   7.333   2.695   5.473 -0.2874  0.1587  0.5058
  292MOL0     C39323   7.290   2.769   5.355 -0.2016  1.0444 -0.4450
  292MOL0     C39324   7.334   2.707   5.224  0.0762 -0.2414  0.5344
  292MOL0     C39325   7.282   2.805   5.114 -0.1868  0.3299 -0.4268
  292MOL0     C39326   7.398   2.854   5.021  0.6351 -0.3521  0.6127
  292MOL0     C39327   7.351   2.947   4.919  0.4426 -0.7425  0.3707
  292MOL0     C39328   7.441   3.000   4.816  0.5216 -0.7622  0.4839
  292MOL0     C39329   7.527   2.893   4.739  0.1587 -0.6391 -0.1157
  292MOL0    Cl39330   7.642   2.963   4.626  0.2709  0.0886  0.2234
  292MOL0     C39331   7.310   2.614   5.776 -0.3613 -0.0055 -0.1344
  292MOL0     C39332   7.368   2.549   5.888  0.6700 -0.6087  0.4191
  292MOL0     O39333   7.604   2.312   5.905 -0.2811  0.1398  0.0357
  292MOL0     C39334   7.695   2.415   6.257  0.0635  0.9465 -0.8174
  292MOL0     C39335   7.731   2.369   6.380 -0.4643 -0.7409  0.2723
  292MOL0     N39336   7.861   1.606   6.877 -0.2557  0.1003 -0.4502
  292MOL0     N39337   7.899   1.492   6.852 -0.9622 -0.6931  0.3719
  292MOL0     C39338   8.648   0.611   7.065  0.1554  0.7965 -0.2194
  292MOL0     C39339   8.738   0.522   7.128  0.1009  0.1338  0.7261
  292MOL0     C39340   9.186   0.354   7.190  1.6882 -0.0970  0.2236
  292MOL0     C39341   9.145   0.340   7.331 -0.3929  0.5172 -0.1881
  292MOL0     C39342   9.245   0.290   7.421  0.8355 -0.2090 -1.5039
  292MOL0     C39343   9.370   0.259   7.375 -0.2124  0.1835  0.3668
  292MOL0     O39344   9.451   0.203   7.463 -0.0206 -0.1665 -0.2537
  292MOL0     C39345   9.593   0.197   7.451  0.1224  0.0419  0.1259
  292MOL0     C39346   9.654   0.113   7.568 -0.4898  0.2805  1.4241
  292MOL0     C39347   9.603   0.152   7.706 -0.1922 -0.8068 -0.2277
  292MOL0     C39348   9.631   0.039   7.815 -1.4098  0.0120  0.0883
  292MOL0     C39349   9.778  -0.008   7.813  0.0788  0.0582 -0.0510
  292MOL0     C39350   9.890  -0.046   7.793 -0.2140  0.0267  0.5010
  292MOL0     C39351   9.408   0.288   7.238 -0.0893 -0.1379  0.1378
  292MOL0     C39352   9.314   0.331   7.143  0.9285 -0.1147  0.3498
  292MOL0     H39353   9.001   0.609   6.931 -0.3620  0.8311 -1.8811
  292MOL0     H39354   8.844   0.760   6.838  1.3855 -0.4745  0.6354
  292MOL0     H39355   8.412   0.717   6.912 -1.2367 -1.2383  2.5407
  292MOL0     H39356   8.445   0.826   7.056  1.4894  4.8658 -0.3469
  292MOL0     H39357   8.442   1.022   6.935 -0.6493  0.1551  0.9558
  292MOL0     H39358   8.399   0.942   6.792  0.7082  0.0895 -0.0848
  292MOL0     H39359   8.208   0.845   6.950  1.1189 -0.9606  3.5892
  292MOL0     H39360   8.236   0.995   7.040 -0.7002  1.0548 -0.0226
  292MOL0     H39361   8.235   1.096   6.781 -0.4363  3.6325  1.8199
  292MOL0     H39362   8.138   0.951   6.759  0.3907  1.3048 -2.4222
  292MOL0     H39363   7.989   1.110   6.812  1.3403 -3.4801 -2.7671
  292MOL0     H39364   7.998   1.022   6.956 -1.6403  1.1789  0.2022
  292MOL0     H39365   8.008   1.265   7.010 -0.0590  1.0730  0.0914
  292MOL0     H39366   8.150   1.182   7.067  1.3876 -1.9500 -1.7649
  292MOL0     H39367   8.237   1.384   6.985 -0.7669 -2.1553  2.4486
  292MOL0     H39368   8.273   1.263   6.863 -0.1312 -0.5198 -1.0993
  292MOL0     H39369   8.057   1.329   6.738 -3.1685  1.7818  1.6372
  292MOL0     H39370   8.197   1.432   6.722  0.8592  1.3613  1.5176
  292MOL0     H39371   8.180   1.664   6.840  0.4987  0.7922  0.7579
  292MOL0     H39372   7.901   1.891   6.955  1.8574 -0.2311  1.2226
  292MOL0     H39373   8.055   1.895   6.872  0.1924 -1.3449  2.6999
  292MOL0     H39374   7.776   1.844   6.722 -0.0150  0.8493 -2.6701
  292MOL0     H39375   7.925   1.842   6.657 -1.1826 -0.6854  0.8681
  292MOL0     H39376   7.968   2.081   6.705  1.4252 -2.0631 -3.0971
  292MOL0     H39377   7.791   2.095   6.763  0.9239  0.7086 -0.0936
  292MOL0     H39378   7.724   2.005   6.557  1.9068 -2.6380 -3.2337
  292MOL0     H39379   7.879   2.007   6.497 -1.7537 -0.6751 -0.6995
  292MOL0     H39380   7.786   2.040   6.308  3.9105  1.1651 -1.7703
  292MOL0     H39381   7.606   2.076   6.007  0.3909 -0.6881 -1.4872
  292MOL0     H39382   7.774   2.121   5.982  1.3880  0.7775  1.8328
  292MOL0     H39383   7.740   1.987   6.095  3.9677  1.7731  0.5260
  292MOL0     H39384   7.697   2.626   5.865 -0.7537  1.1989  3.3946
  292MOL0     H39385   7.612   2.763   5.664  2.4244 -0.9712 -0.4378
  292MOL0     H39386   7.416   2.631   5.443 -1.7823 -0.7782 -1.9871
  292MOL0     H39387   7.256   2.620   5.495  2.4649 -3.0568  0.0144
  292MOL0     H39388   7.181   2.779   5.363 -0.2981  0.0135 -0.2483
  292MOL0     H39389   7.325   2.872   5.359 -1.2371  1.5665 -2.8453
  292MOL0     H39390   7.303   2.602   5.220  0.8707 -0.4548 -0.2502
  292MOL0     H39391   7.443   2.709   5.220  0.0189  1.1878 -1.7608
  292MOL0     H39392   7.213   2.746   5.052  0.4608 -1.1688  0.2325
  292MOL0     H39393   7.228   2.894   5.148  0.7422  0.6317  0.2752
  292MOL0     H39394   7.428   2.762   4.969 -2.6621 -1.6265  0.7013
  292MOL0     H39395   7.481   2.891   5.082  2.0835 -0.1471 -1.3542
  292MOL0     H39396   7.262   2.910   4.867  0.8127 -0.3608 -0.5403
  292MOL0     H39397   7.321   3.032   4.982 -0.5320 -0.1413 -0.8688
  292MOL0     H39398   7.505   3.072   4.867  2.4851 -3.0393  1.4452
  292MOL0     H39399   7.379   3.051   4.742  1.0357 -2.3866 -1.1534
  292MOL0     H39400   7.462   2.824   4.685  0.1868 -1.5255  0.9545
  292MOL0     H39401   7.588   2.825   4.799 -0.5414 -3.8658 -2.7923
  292MOL0     H39402   7.202   2.609   5.767 -0.4705  0.1392  0.9582
  292MOL0     H39403   7.308   2.497   5.962  2.5481 -0.4012  2.1692
  292MOL0     H39404   7.678   2.523   6.252  0.7308  1.0812 -0.3663
  292MOL0     H39405   7.714   2.435   6.465 -1.1271  1.0781 -1.2178
  292MOL0     H39406   8.544   0.620   7.095 -0.6482  3.2919 -3.1931
  292MOL0     H39407   8.712   0.461   7.213  2.0727 -0.3227  1.0527
  292MOL0     H39408   9.046   0.370   7.367 -1.9237 -1.0144 -2.8250
  292MOL0     H39409   9.220   0.282   7.526  0.5072  1.0949 -1.4580
  292MOL0     H39410   9.628   0.154   7.357  0.3931 -3.0328  1.5127
  292MOL0     H39411   9.643   0.294   7.460 -0.8282  0.6986 -1.4033
  292MOL0     H39412   9.763   0.103   7.565 -0.2915  2.2037  1.0249
  292MOL0     H39413   9.613   0.012   7.552  0.6363 -0.1864  1.4185
  292MOL0     H39414   9.496   0.176   7.702 -0.1380 -0.5096  0.0422
  292MOL0     H39415   9.649   0.246   7.740  0.4922 -1.1284 -0.2554
  292MOL0     H39416   9.560  -0.042   7.800  0.7084 -2.0199  0.3997
  292MOL0     H39417   9.604   0.081   7.912 -0.0428 -0.7509  0.8322
  292MOL0     H39418   9.992  -0.074   7.777 -0.9278 -2.1032 -0.7038
  292MOL0     H39419   9.509   0.258   7.211  0.3336  2.1835 -1.1904
  292MOL0     H39420   9.349   0.342   7.041 -1.8494  1.6512 -0.5354
  293MOL0     O39421   4.451   0.967   2.707 -0.0248 -0.7108 -0.3631
  293MOL0     C39422   4.515   0.910   2.622 -0.5215  0.6503  0.2297
  293MOL0     O39423   4.569   0.962   2.506 -0.6384 -0.1725 -0.4642
  293MOL0     C39424   4.521   1.082   2.457  0.0689 -0.6616 -0.3984
  293MOL0     C39425   4.385   1.101   2.433  0.4988 -0.0707 -0.4645
  293MOL0     C39426   4.337   1.226   2.393  0.6662  0.4117 -0.1192
  293MOL0     C39427   4.423   1.335   2.380  0.8210 -0.5298 -0.2467
  293MOL0     O39428   4.372   1.460   2.345 -0.5359 -0.2853  0.6483
  293MOL0     C39429   4.446   1.574   2.391  0.0784 -0.0668  0.6499
  293MOL0     C39430   4.373   1.712   2.360 -0.3643  0.2614 -0.4857
  293MOL0     C39431   4.434   1.826   2.439 -0.7746 -0.0570 -0.2911
  293MOL0     C39432   4.568   1.873   2.387 -0.1449  0.3372 -0.2937
  293MOL0     C39433   4.606   2.019   2.416  0.0793 -1.0057  0.3820
  293MOL0     C39434   4.739   2.057   2.360 -0.1520 -1.0710  0.4714
  293MOL0     C39435   4.775   2.200   2.400  0.2702  0.7840 -0.7225
  293MOL0     C39436   4.885   2.274   2.331  0.1516 -0.0264 -0.2607
  293MOL0     N39437   4.937   2.389   2.412  0.7161  0.0263 -1.3180
  293MOL0     C39438   4.962   2.399   2.548 -0.4981 -0.2047 -0.1322
  293MOL0     C39439   4.995   2.527   2.571  0.2389  0.4452 -0.1811
  293MOL0     C39440   5.058   2.583   2.698  1.2581 -0.7958 -1.2944
  293MOL0     C39441   5.147   2.709   2.692 -0.5742  0.7213  0.2024
  293MOL0     C39442   5.270   2.675   2.603  0.0715  0.5674 -0.3227
  293MOL0     C39443   5.348   2.815   2.598 -1.1188  0.7433  0.1667
  293MOL0     O39444   5.481   2.774   2.553 -0.2013 -0.3494  0.0071
  293MOL0     C39445   5.569   2.724   2.647 -0.2227  0.3236  0.9497
  293MOL0     C39446   5.688   2.680   2.598  0.6877 -0.0301  0.0318
  293MOL0     C39447   5.786   2.625   2.673  0.1205  0.4918 -0.6484
  293MOL0     C39448   5.917   2.609   2.597 -0.6126 -0.3406  0.3269
  293MOL0     C39449   5.764   2.608   2.812 -0.4701 -0.4070 -0.2570
  293MOL0     C39450   5.865   2.570   2.913  0.9949 -0.2525  0.3331
  293MOL0     O39451   5.813   2.502   3.016 -0.0155  0.7559  0.3362
  293MOL0     C39452   5.901   2.455   3.109 -0.0307 -0.9080  0.0754
  293MOL0     C39453   5.999   2.358   3.090  0.2586 -0.2947 -0.0120
  293MOL0     C39454   6.085   2.317   3.199 -0.2929 -0.6117 -0.1033
  293MOL0     C39455   6.050   2.350   3.334  2.1957 -0.5855  0.6968
  293MOL0     O39456   6.102   2.305   3.450  0.3131 -0.3998  0.4551
  293MOL0     C39457   6.163   2.176   3.455  0.8247 -1.2118 -0.0846
  293MOL0     C39458   6.287   2.181   3.535  0.5356 -0.1632 -0.6410
  293MOL0     C39459   6.270   2.236   3.691  0.8277  0.2388  0.5656
  293MOL0     C39460   6.407   2.223   3.762 -0.2583  0.0307  0.8746
  293MOL0     C39461   6.415   2.318   3.876  0.5033 -0.0928  0.1484
  293MOL0     C39462   6.558   2.332   3.925  0.0439 -0.0282  0.1079
  293MOL0     C39463   6.597   2.209   4.008  0.6950 -0.3778  0.2663
  293MOL0     C39464   6.731   2.150   3.957  0.3720  0.1611 -0.2769
  293MOL0    Cl39465   6.754   1.984   4.017  0.0647 -0.0446  0.3182
  293MOL0     C39466   5.953   2.450   3.345 -1.4893  0.2777 -0.4609
  293MOL0     C39467   5.880   2.509   3.238  0.1319 -0.5313 -0.2719
  293MOL0     O39468   5.983   2.581   2.892 -0.1764  0.0385 -0.3260
  293MOL0     C39469   5.634   2.633   2.861 -0.3817  0.4583 -0.0482
  293MOL0     C39470   5.535   2.693   2.785  0.1221  0.1053  1.0101
  293MOL0     N39471   4.996   2.592   2.449  0.3347  0.7092 -0.4493
  293MOL0     N39472   4.955   2.514   2.354  0.0011  0.7727 -0.2631
  293MOL0     C39473   4.562   1.315   2.391  0.1172 -0.3574 -0.4786
  293MOL0     C39474   4.612   1.187   2.426  0.2471 -0.1169 -0.7170
  293MOL0     C39475   4.524   0.760   2.640 -0.1607 -0.3541 -0.0743
  293MOL0     C39476   4.459   0.696   2.750 -0.1814 -0.5447  1.4335
  293MOL0     C39477   4.469   0.556   2.761  0.1939  0.1107 -0.1263
  293MOL0     C39478   4.523   0.486   2.652  0.6445 -0.3975 -1.2234
  293MOL0     O39479   4.554   0.350   2.664  0.8208 -0.1040  0.1637
  293MOL0     C39480   4.548   0.288   2.793 -0.4496  0.8917  0.2755
  293MOL0     C39481   4.628   0.157   2.772 -0.2474  0.6306  1.1613
  293MOL0     C39482   4.625   0.075   2.890  0.3092 -0.0642 -0.2901
  293MOL0     C39483   4.717  -0.044   2.873 -0.4132  1.1075 -0.5125
  293MOL0     C39484   4.739  -0.117   3.003 -0.2048  0.5755 -0.3215
  293MOL0     C39485   4.764  -0.168   3.116 -0.3920 -0.1046  0.3052
  293MOL0     C39486   4.554   0.542   2.533 -0.4496 -0.5827 -0.5484
  293MOL0     C39487   4.575   0.686   2.533  0.6831  0.0863 -0.4074
  293MOL0     H39488   4.316   1.021   2.460  3.9845 -2.8122  1.0629
  293MOL0     H39489   4.228   1.233   2.392  0.7571  2.2107 -1.2296
  293MOL0     H39490   4.472   1.574   2.497  3.3548 -0.3150 -0.0411
  293MOL0     H39491   4.542   1.581   2.339  0.4096  0.7144  1.3360
  293MOL0     H39492   4.396   1.749   2.260  3.2884 -0.5694 -0.0935
  293MOL0     H39493   4.267   1.704   2.383 -0.7901  0.0914 -2.4052
  293MOL0     H39494   4.361   1.906   2.423 -0.4539  0.0309 -1.3873
  293MOL0     H39495   4.430   1.812   2.548  1.5205  0.4598 -0.0804
  293MOL0     H39496   4.643   1.803   2.425 -0.5322  0.5804  0.9672
  293MOL0     H39497   4.574   1.850   2.281  3.1786  0.0344 -0.1452
  293MOL0     H39498   4.527   2.077   2.368  0.6322 -1.4207 -1.0852
  293MOL0     H39499   4.626   2.026   2.523  4.2005 -2.4710 -0.0836
  293MOL0     H39500   4.825   1.996   2.388  2.6831  1.2058 -2.4969
  293MOL0     H39501   4.734   2.050   2.250 -3.0569  2.0489  0.2331
  293MOL0     H39502   4.686   2.264   2.400  1.9088  3.2116 -1.5174
  293MOL0     H39503   4.793   2.186   2.507 -3.4013  0.6701  0.0251
  293MOL0     H39504   4.845   2.303   2.234  0.3716  0.4733 -0.2016
  293MOL0     H39505   4.966   2.202   2.318  0.3889  0.4546 -1.5920
  293MOL0     H39506   4.961   2.314   2.616  2.7941 -1.3419 -1.3049
  293MOL0     H39507   4.972   2.605   2.762  2.6106 -1.6643  0.9495
  293MOL0     H39508   5.113   2.509   2.757  0.2602  0.2065  1.0115
  293MOL0     H39509   5.170   2.721   2.798 -2.3243  0.5698  0.6143
  293MOL0     H39510   5.090   2.790   2.647 -5.6066 -2.3960  0.2371
  293MOL0     H39511   5.245   2.628   2.507  2.2594 -0.2866 -0.5412
  293MOL0     H39512   5.347   2.608   2.643  1.1519  1.3074 -1.0956
  293MOL0     H39513   5.354   2.851   2.701 -1.3527  1.5286 -0.0895
  293MOL0     H39514   5.305   2.892   2.534  2.6059  2.1782 -0.8433
  293MOL0     H39515   5.711   2.693   2.493  2.3593 -0.0224  0.3765
  293MOL0     H39516   5.906   2.567   2.497  2.0594  1.5404 -0.9053
  293MOL0     H39517   5.965   2.708   2.595 -1.6116  0.2624  2.7155
  293MOL0     H39518   5.995   2.550   2.646  0.7252  1.1898  0.1254
  293MOL0     H39519   6.012   2.301   2.999 -0.2329 -3.6559  1.8821
  293MOL0     H39520   6.176   2.262   3.178  1.0340  1.7930 -1.0245
  293MOL0     H39521   6.098   2.099   3.498  0.8642 -2.3226 -1.9412
  293MOL0     H39522   6.180   2.143   3.353 -1.0768  1.1275 -1.2867
  293MOL0     H39523   6.322   2.077   3.539 -2.2218 -1.1644  2.7777
  293MOL0     H39524   6.361   2.245   3.487 -0.6790 -0.7439 -3.4698
  293MOL0     H39525   6.183   2.189   3.738  0.7569 -0.8451 -0.5785
  293MOL0     H39526   6.239   2.340   3.678 -2.6907 -1.0341 -3.6236
  293MOL0     H39527   6.437   2.122   3.794 -3.2677 -1.0716  0.5596
  293MOL0     H39528   6.471   2.244   3.677 -1.5096  0.0469 -0.0933
  293MOL0     H39529   6.355   2.289   3.963 -1.0672 -0.8796 -1.1410
  293MOL0     H39530   6.375   2.414   3.841  1.5234 -0.4999 -2.3214
  293MOL0     H39531   6.611   2.331   3.830 -1.7120 -6.5874 -1.3352
  293MOL0     H39532   6.573   2.425   3.980 -0.8458  0.5135 -0.5423
  293MOL0     H39533   6.525   2.126   4.007  1.9030 -1.4532 -0.4994
  293MOL0     H39534   6.609   2.240   4.112  0.2472  1.3224 -0.1655
  293MOL0     H39535   6.817   2.206   3.995  0.5536  0.1683 -0.7014
  293MOL0     H39536   6.742   2.152   3.849  0.2220  1.2343 -0.2821
  293MOL0     H39537   5.948   2.496   3.444  2.2157  0.4210 -0.2102
  293MOL0     H39538   5.798   2.570   3.274  1.0064  0.2387  0.4738
  293MOL0     H39539   5.623   2.630   2.968 -2.5966  1.3795 -0.2087
  293MOL0     H39540   5.446   2.727   2.838  0.4203  2.5042  0.0981
  293MOL0     H39541   4.629   1.400   2.384 -2.1840  1.6841  0.8382
  293MOL0     H39542   4.716   1.188   2.460 -0.1388  0.4776  0.4993
  293MOL0     H39543   4.411   0.747   2.833 -2.5305 -1.0158  0.4437
  293MOL0     H39544   4.429   0.510   2.851 -0.2218  0.2826 -0.2203
  293MOL0     H39545   4.600   0.347   2.869  1.4922 -0.3612 -0.0140
  293MOL0     H39546   4.445   0.266   2.826  0.9887 -2.3540  3.2815
  293MOL0     H39547   4.734   0.170   2.749  0.2702 -3.9841  0.0063
  293MOL0     H39548   4.575   0.094   2.699 -0.0680  0.8065  0.8755
  293MOL0     H39549   4.525   0.033   2.908  0.6256 -0.2412  1.2102
  293MOL0     H39550   4.644   0.138   2.978 -1.4113  0.5492 -0.3056
  293MOL0     H39551   4.816  -0.010   2.841 -0.7375  0.6734 -2.0889
  293MOL0     H39552   4.680  -0.108   2.792 -1.6079 -1.2871  1.7795
  293MOL0     H39553   4.797  -0.206   3.211 -0.8695  0.9664  0.9166
  293MOL0     H39554   4.582   0.486   2.444 -0.1778 -0.4055 -0.5786
  293MOL0     H39555   4.598   0.737   2.440 -3.8904  2.0633 -0.7341
  294MOL0     O39556   6.487   5.757   0.121  0.0356 -0.7238  0.2447
  294MOL0     C39557   6.605   5.723   0.151  0.8725 -0.0350 -0.2764
  294MOL0     O39558   6.705   5.804   0.214 -0.4119 -0.6798  0.7534
  294MOL0     C39559   6.659   5.929   0.245 -0.2283  0.4057 -0.3510
  294MOL0     C39560   6.649   6.025   0.142 -0.4480  0.1973  0.3048
  294MOL0     C39561   6.609   6.152   0.168 -0.3792 -0.8316 -0.1683
  294MOL0     C39562   6.562   6.188   0.294  0.6735 -0.3498  1.8557
  294MOL0     O39563   6.523   6.325   0.289 -0.0868  0.8092 -0.5084
  294MOL0     C39564   6.540   6.407   0.403 -0.2223 -0.3908 -0.5799
  294MOL0     C39565   6.603   6.543   0.368  0.8071 -0.3471 -0.2434
  294MOL0     C39566   6.525   6.637   0.280 -0.2215 -0.8831 -0.3923
  294MOL0     C39567   6.582   6.776   0.282 -0.0555  0.2723  1.0588
  294MOL0     C39568   6.522   6.869   0.183 -0.4775 -0.3843 -0.1767
  294MOL0     C39569   6.390   6.916   0.214  0.2542 -0.8594  0.1780
  294MOL0     C39570   6.318   6.973   0.095 -1.0860  0.3130 -0.8987
  294MOL0     C39571   6.206   7.078   0.103 -0.0865 -0.9043  0.0646
  294MOL0     N39572   6.263   7.202   0.159  0.4869  0.3032 -0.0252
  294MOL0     C39573   6.283   7.232   0.287 -0.4256 -1.2596 -0.5976
  294MOL0     C39574   6.348   7.349   0.288 -0.1920 -0.7218 -0.1564
  294MOL0     C39575   6.383   7.443   0.408  0.5402 -0.2251 -0.2054
  294MOL0     C39576   6.452   7.358   0.520  0.2951 -0.1390  0.8584
  294MOL0     C39577   6.583   7.285   0.476 -0.4330  0.9551 -0.5153
  294MOL0     C39578   6.669   7.209   0.580  0.0055  0.4674 -0.8218
  294MOL0     O39579   6.655   7.058   0.567  0.1332 -1.0120  0.2528
  294MOL0     C39580   6.557   6.996   0.640  0.7352  0.3145  0.4311
  294MOL0     C39581   6.551   6.860   0.627 -0.1967 -0.3875 -0.2874
  294MOL0     C39582   6.455   6.784   0.690 -0.6210  0.5225 -0.6348
  294MOL0     C39583   6.471   6.635   0.686  0.2610  0.2212  0.4224
  294MOL0     C39584   6.368   6.842   0.783  0.4583  0.1581  0.5128
  294MOL0     C39585   6.279   6.771   0.873 -0.0536  0.3821 -0.0713
  294MOL0     O39586   6.251   6.821   1.000  0.0715 -0.1957 -0.5084
  294MOL0     C39587   6.183   6.738   1.089  1.2186 -0.1334  0.6495
  294MOL0     C39588   6.048   6.753   1.116  0.5032  1.6229 -0.3414
  294MOL0     C39589   5.979   6.664   1.201  0.6381 -0.3496  1.0416
  294MOL0     C39590   6.043   6.556   1.260  0.0311  0.9349 -0.5519
  294MOL0     O39591   5.994   6.478   1.371 -0.3676 -0.1084 -0.0251
  294MOL0     C39592   5.876   6.531   1.423  0.0714  0.6962  1.1049
  294MOL0     C39593   5.845   6.468   1.565  0.1495 -0.1542  0.1293
  294MOL0     C39594   5.740   6.564   1.629 -0.6924 -0.0679 -0.2438
  294MOL0     C39595   5.675   6.489   1.745  0.8783 -0.6832 -0.9738
  294MOL0     C39596   5.605   6.587   1.849  0.3577 -0.4186  0.5361
  294MOL0     C39597   5.532   6.503   1.954  0.3866  0.4985 -0.2383
  294MOL0     C39598   5.442   6.593   2.042 -0.6970 -1.5699 -1.2105
  294MOL0     C39599   5.360   6.521   2.152 -0.7407 -0.0734 -1.3541
  294MOL0    Cl39600   5.471   6.458   2.282 -0.1645 -0.5976 -0.0099
  294MOL0     C39601   6.179   6.536   1.233 -0.0510  0.5123  0.7761
  294MOL0     C39602   6.246   6.629   1.146 -0.3428  0.7638  0.1258
  294MOL0     O39603   6.221   6.674   0.820  0.4894  0.9086 -0.3834
  294MOL0     C39604   6.369   6.982   0.782  0.7818 -0.4091 -0.3326
  294MOL0     C39605   6.462   7.061   0.716  0.3441  0.0090  0.2269
  294MOL0     N39606   6.357   7.396   0.158 -0.5302  0.5971  0.0748
  294MOL0     N39607   6.317   7.298   0.080  1.2093 -0.0337 -0.2024
  294MOL0     C39608   6.564   6.097   0.400 -0.2498  0.5146  0.0608
  294MOL0     C39609   6.614   5.968   0.375  0.6241  0.3359  0.2734
  294MOL0     C39610   6.631   5.574   0.137 -0.0042 -0.1911 -0.4838
  294MOL0     C39611   6.521   5.488   0.095 -0.1635 -0.3244  0.3834
  294MOL0     C39612   6.550   5.353   0.068  0.1454  0.1484 -0.0048
  294MOL0     C39613   6.667   5.295   0.092 -1.3277  0.2829 -0.2702
  294MOL0     O39614   6.693   5.160   0.068  0.1859 -0.0385  0.2766
  294MOL0     C39615   6.830   5.118   0.035 -0.3017 -0.6838 -0.8776
  294MOL0     C39616   6.825   5.009  -0.063  0.8014  0.4124  0.3666
  294MOL0     C39617   6.753   4.881  -0.020  0.8471 -0.9413  1.3676
  294MOL0     C39618   6.807   4.753  -0.075 -0.1240  0.0525 -0.9163
  294MOL0     C39619   6.816   4.768  -0.219 -0.5067 -0.4849 -0.3883
  294MOL0     C39620   6.828   4.775  -0.342 -0.1527  0.0652 -1.0212
  294MOL0     C39621   6.766   5.374   0.153  0.6167  0.6808  0.9863
  294MOL0     C39622   6.753   5.512   0.162  1.2171 -0.0488 -0.2757
  294MOL0     H39623   6.672   5.995   0.041 -2.1451  2.3480 -0.8065
  294MOL0     H39624   6.595   6.225   0.089 -1.4286 -0.9616 -0.1084
  294MOL0     H39625   6.443   6.412   0.455 -0.6733 -0.2155 -1.4238
  294MOL0     H39626   6.607   6.377   0.484  0.9188  3.1804 -0.0053
  294MOL0     H39627   6.620   6.602   0.459 -0.9147 -0.4800  0.2041
  294MOL0     H39628   6.697   6.522   0.316  0.4859 -2.3861 -0.0748
  294MOL0     H39629   6.523   6.602   0.176  0.7650 -0.2738 -0.6326
  294MOL0     H39630   6.421   6.635   0.311  0.1678  0.2284  1.0811
  294MOL0     H39631   6.559   6.813   0.383 -0.8452 -2.0132  1.7804
  294MOL0     H39632   6.690   6.764   0.270  0.3525  2.4945  1.9708
  294MOL0     H39633   6.588   6.956   0.174 -1.3087  0.2492 -0.3128
  294MOL0     H39634   6.525   6.814   0.088  4.3894 -0.9918  0.1058
  294MOL0     H39635   6.320   6.849   0.265 -0.8000 -2.0784 -2.6609
  294MOL0     H39636   6.397   7.000   0.284 -2.0613  0.5457 -1.1426
  294MOL0     H39637   6.399   7.019   0.037 -0.3324 -0.5161 -0.5160
  294MOL0     H39638   6.269   6.886   0.050  0.1795 -1.0597  0.2857
  294MOL0     H39639   6.120   7.046   0.164  0.1183 -0.1811  0.7516
  294MOL0     H39640   6.176   7.092  -0.001  1.2812  1.2227 -0.0848
  294MOL0     H39641   6.259   7.180   0.379 -0.5622  2.3195  1.6157
  294MOL0     H39642   6.435   7.536   0.384 -3.5592  1.7553 -2.4893
  294MOL0     H39643   6.286   7.472   0.449  0.8928  0.0424  0.4517
  294MOL0     H39644   6.380   7.286   0.560 -0.9800  0.7169  0.1674
  294MOL0     H39645   6.479   7.439   0.588  2.6042  1.5531 -1.8533
  294MOL0     H39646   6.653   7.362   0.440  3.5321 -1.1971  1.8101
  294MOL0     H39647   6.561   7.211   0.399  3.9924 -2.0099  0.6286
  294MOL0     H39648   6.664   7.241   0.685 -2.5893  1.2136 -1.1037
  294MOL0     H39649   6.768   7.232   0.540  0.4599 -0.0448 -0.0380
  294MOL0     H39650   6.638   6.806   0.589  2.6971  3.0292  0.8568
  294MOL0     H39651   6.575   6.607   0.665 -0.6053 -3.5147  0.3737
  294MOL0     H39652   6.451   6.571   0.772 -0.5783  0.0251  0.0873
  294MOL0     H39653   6.406   6.597   0.606  0.5063 -1.1167  0.8333
  294MOL0     H39654   5.996   6.842   1.081 -2.7795 -0.1478 -0.3978
  294MOL0     H39655   5.880   6.698   1.228  0.5088 -0.8886  1.2801
  294MOL0     H39656   5.883   6.639   1.431  0.7192  1.0114 -2.0733
  294MOL0     H39657   5.782   6.518   1.369  0.5626  4.3257 -0.9322
  294MOL0     H39658   5.800   6.368   1.559 -2.2478  0.9333 -3.7835
  294MOL0     H39659   5.932   6.471   1.631 -1.0820 -0.5796  1.8615
  294MOL0     H39660   5.658   6.587   1.560  0.1671  2.7019 -0.4636
  294MOL0     H39661   5.790   6.654   1.665 -1.5324  1.5823 -2.8723
  294MOL0     H39662   5.586   6.438   1.706 -2.1292 -0.3886  4.5116
  294MOL0     H39663   5.737   6.416   1.799 -1.8951 -3.4097 -1.2055
  294MOL0     H39664   5.532   6.654   1.804 -0.0983 -0.7819  0.7267
  294MOL0     H39665   5.681   6.640   1.907  1.8921 -2.0299  0.1173
  294MOL0     H39666   5.459   6.442   1.900  0.0679  1.8248 -1.3750
  294MOL0     H39667   5.588   6.436   2.019 -0.9771 -0.7591 -0.2950
  294MOL0     H39668   5.376   6.649   1.975  2.0945  1.9434 -1.3172
  294MOL0     H39669   5.502   6.671   2.091 -3.1911 -1.6844  2.3818
  294MOL0     H39670   5.314   6.431   2.112 -1.2686 -0.8376  0.8370
  294MOL0     H39671   5.280   6.580   2.197 -0.5917 -0.6566 -0.2783
  294MOL0     H39672   6.225   6.453   1.285 -2.4630 -1.0397  0.6182
  294MOL0     H39673   6.354   6.615   1.145 -0.5192 -2.3445  3.7186
  294MOL0     H39674   6.296   7.043   0.836 -1.3554 -1.4560 -1.8916
  294MOL0     H39675   6.467   7.170   0.718  0.9188  0.3474 -5.2904
  294MOL0     H39676   6.523   6.113   0.499  2.0245  0.6227  1.0507
  294MOL0     H39677   6.619   5.889   0.449  0.5864 -2.8169 -2.8086
  294MOL0     H39678   6.419   5.519   0.074 -0.3062  0.9755  2.6520
  294MOL0     H39679   6.480   5.273   0.044  2.6578 -3.5639  3.7712
  294MOL0     H39680   6.896   5.197  -0.002 -1.6831  1.6975  1.4221
  294MOL0     H39681   6.878   5.073   0.123 -3.2635 -4.4191 -0.8937
  294MOL0     H39682   6.932   4.994  -0.081  0.2979 -0.1400 -2.6171
  294MOL0     H39683   6.775   5.046  -0.152 -0.0749  1.6422  1.3364
  294MOL0     H39684   6.646   4.885  -0.045  0.2480  0.9125  3.8037
  294MOL0     H39685   6.737   4.873   0.088 -1.1494 -2.4272  1.0292
  294MOL0     H39686   6.748   4.668  -0.041 -0.1246  0.5057  0.2629
  294MOL0     H39687   6.906   4.737  -0.033  0.1262 -0.8643 -1.8228
  294MOL0     H39688   6.839   4.777  -0.448 -0.6990  0.1224 -1.0824
  294MOL0     H39689   6.860   5.331   0.188  0.5394 -0.7047 -0.4322
  294MOL0     H39690   6.839   5.563   0.206  1.5467  0.4305 -1.4216
  295MOL0     O39691   0.978   5.589   0.653 -0.3402  0.4276  0.1391
  295MOL0     C39692   0.895   5.495   0.643 -0.0833  0.2801 -0.5484
  295MOL0     O39693   0.776   5.499   0.571  0.4897  0.2471 -0.3524
  295MOL0     C39694   0.768   5.586   0.463 -0.6177 -0.0823  0.2224
  295MOL0     C39695   0.644   5.646   0.443  0.6271 -0.0051 -0.3691
  295MOL0     C39696   0.621   5.746   0.342  0.6343 -0.1669 -0.8494
  295MOL0     C39697   0.724   5.782   0.255  0.1787 -0.2035 -0.9479
  295MOL0     O39698   0.709   5.866   0.147 -1.1715  0.3002 -0.2790
  295MOL0     C39699   0.587   5.861   0.072  0.0997 -0.0550  0.1539
  295MOL0     C39700   0.599   5.917  -0.074 -0.0152 -0.4809 -0.4114
  295MOL0     C39701   0.657   5.809  -0.165 -0.2500  0.8594  1.5830
  295MOL0     C39702   0.543   5.727  -0.220  0.7208  0.9238 -0.5700
  295MOL0     C39703   0.596   5.620  -0.311  0.3873  0.0978 -0.1264
  295MOL0     C39704   0.587   5.659  -0.466  0.2084  0.1787  0.2247
  295MOL0     C39705   0.632   5.541  -0.549 -0.2102  0.1412  0.5995
  295MOL0     C39706   0.648   5.556  -0.698  0.2771  0.5469  0.9558
  295MOL0     N39707   0.533   5.502  -0.768  0.3818  0.1819 -0.2125
  295MOL0     C39708   0.413   5.569  -0.806 -0.6436  0.3571  0.6446
  295MOL0     C39709   0.346   5.466  -0.880  0.1566  0.3482  0.0339
  295MOL0     C39710   0.215   5.473  -0.950  1.7505  0.1089  0.1398
  295MOL0     C39711   0.202   5.486  -1.104  0.1118 -0.6402 -0.2894
  295MOL0     C39712   0.272   5.366  -1.175  0.3533 -0.0383 -0.0853
  295MOL0     C39713   0.241   5.378  -1.327  0.1303 -0.5079 -0.3668
  295MOL0     O39714   0.296   5.497  -1.383 -0.2607  0.6112  0.9485
  295MOL0     C39715   0.431   5.505  -1.404  0.4340 -0.1794 -0.0760
  295MOL0     C39716   0.480   5.628  -1.447 -0.6192  0.0094 -0.3877
  295MOL0     C39717   0.614   5.636  -1.486  0.5196 -0.7903  0.5264
  295MOL0     C39718   0.634   5.772  -1.554 -0.1364  0.1870  0.3166
  295MOL0     C39719   0.704   5.526  -1.494  0.3401  0.7324  0.3691
  295MOL0     C39720   0.834   5.537  -1.549 -0.9416  0.1020  0.3506
  295MOL0     O39721   0.897   5.660  -1.539 -0.2267  0.8941 -0.2672
  295MOL0     C39722   1.039   5.654  -1.520  1.5753 -0.5435 -0.4233
  295MOL0     C39723   1.102   5.568  -1.430  0.7006  1.0108 -0.0645
  295MOL0     C39724   1.236   5.579  -1.419 -0.5469  0.0025 -0.2779
  295MOL0     C39725   1.314   5.658  -1.492  0.3200  0.8896  0.2293
  295MOL0     O39726   1.453   5.645  -1.482 -0.2282 -0.3765  0.3256
  295MOL0     C39727   1.524   5.655  -1.609  0.4112  0.0804 -0.0097
  295MOL0     C39728   1.645   5.564  -1.593 -0.0165 -0.3146  0.0166
  295MOL0     C39729   1.620   5.413  -1.546  0.4283 -0.2729 -0.6545
  295MOL0     C39730   1.670   5.394  -1.398 -0.7829 -0.7114  0.5733
  295MOL0     C39731   1.668   5.253  -1.335  0.7326  0.6063  0.1573
  295MOL0     C39732   1.715   5.247  -1.188  0.4870 -0.2033  0.1371
  295MOL0     C39733   1.700   5.100  -1.144  0.0013  0.7441  0.4800
  295MOL0     C39734   1.664   5.101  -0.998  0.2641 -0.9107 -0.3919
  295MOL0    Cl39735   1.674   4.926  -0.950  0.4381 -0.3476 -0.0134
  295MOL0     C39736   1.254   5.731  -1.591  0.1372 -0.6467 -0.1435
  295MOL0     C39737   1.116   5.739  -1.595 -0.7767  0.0249 -0.1521
  295MOL0     O39738   0.889   5.439  -1.588 -0.2359 -0.0641 -0.6912
  295MOL0     C39739   0.642   5.403  -1.460  0.3507 -0.8192  0.2816
  295MOL0     C39740   0.517   5.395  -1.410  0.1705 -0.2693 -0.0792
  295MOL0     N39741   0.425   5.357  -0.879  0.0164 -0.0110 -1.6798
  295MOL0     N39742   0.535   5.374  -0.821 -0.0771 -0.1734  0.3363
  295MOL0     C39743   0.851   5.729   0.273  0.4425  0.6181 -0.0102
  295MOL0     C39744   0.870   5.630   0.377 -0.0303  1.2247  0.8341
  295MOL0     C39745   0.908   5.372   0.726 -0.6617 -0.7043 -0.2300
  295MOL0     C39746   1.013   5.381   0.824 -0.6079  0.2268 -0.6090
  295MOL0     C39747   1.037   5.263   0.899  0.0441 -0.2711 -0.7471
  295MOL0     C39748   0.960   5.146   0.888 -0.6022  0.7065  1.2855
  295MOL0     O39749   1.009   5.046   0.968 -0.1270 -0.3648  0.0731
  295MOL0     C39750   0.948   4.916   0.974  0.4930 -0.8308 -0.0860
  295MOL0     C39751   1.058   4.821   0.998 -0.1658 -0.1687 -0.1023
  295MOL0     C39752   1.131   4.855   1.138  0.1717 -0.1712 -0.3885
  295MOL0     C39753   1.248   4.753   1.150 -0.4668  0.6653 -1.0756
  295MOL0     C39754   1.363   4.776   1.057 -0.0647 -1.1370 -0.2563
  295MOL0     C39755   1.447   4.792   0.970  0.0579  0.1233  0.2981
  295MOL0     C39756   0.861   5.140   0.792 -0.6039 -0.2524 -0.8833
  295MOL0     C39757   0.843   5.249   0.709 -0.2834 -1.2855  0.3597
  295MOL0     H39758   0.564   5.612   0.508  0.9454 -0.4748 -0.2191
  295MOL0     H39759   0.522   5.789   0.336  0.2382 -0.4784  1.9261
  295MOL0     H39760   0.520   5.776   0.092 -1.5613  1.6867  2.5954
  295MOL0     H39761   0.528   5.937   0.124  0.9082  0.6282  0.0929
  295MOL0     H39762   0.508   5.961  -0.116  1.0411  1.9914 -0.2890
  295MOL0     H39763   0.668   6.001  -0.070  0.7410 -1.0581  3.9229
  295MOL0     H39764   0.717   5.856  -0.243  1.6085 -1.0898  1.7510
  295MOL0     H39765   0.718   5.740  -0.106 -2.3382 -0.4863  2.2837
  295MOL0     H39766   0.482   5.686  -0.139 -1.4538  2.0087 -1.5606
  295MOL0     H39767   0.475   5.798  -0.268 -0.0677  1.0001  0.6220
  295MOL0     H39768   0.696   5.589  -0.280  0.0231  2.0598  3.5258
  295MOL0     H39769   0.538   5.530  -0.289 -0.3147  0.0857 -1.8606
  295MOL0     H39770   0.486   5.679  -0.504  1.5641  1.3441 -3.1112
  295MOL0     H39771   0.654   5.745  -0.473 -1.7378  1.9207  1.6678
  295MOL0     H39772   0.729   5.511  -0.510  1.2949  3.3893 -0.2253
  295MOL0     H39773   0.560   5.460  -0.533  2.6516 -2.4712  1.1347
  295MOL0     H39774   0.736   5.501  -0.732 -2.1145 -3.6997  1.0402
  295MOL0     H39775   0.666   5.660  -0.728 -0.3761  0.3154 -0.3227
  295MOL0     H39776   0.405   5.677  -0.813  1.8369  0.5535 -0.2537
  295MOL0     H39777   0.145   5.391  -0.932 -1.9907  2.0672 -3.7429
  295MOL0     H39778   0.166   5.555  -0.897 -1.5750  0.5849 -3.2538
  295MOL0     H39779   0.237   5.584  -1.138 -2.2907 -0.4770 -2.5664
  295MOL0     H39780   0.095   5.475  -1.123  0.6066 -0.0479 -4.0089
  295MOL0     H39781   0.230   5.272  -1.140 -4.4360  1.7704 -0.2092
  295MOL0     H39782   0.380   5.372  -1.158  0.5609 -1.0858 -0.9264
  295MOL0     H39783   0.134   5.380  -1.351  0.1949 -0.6611 -0.6742
  295MOL0     H39784   0.284   5.289  -1.374 -0.0492  1.1025 -3.8897
  295MOL0     H39785   0.405   5.706  -1.442  0.1192  0.6734  0.9374
  295MOL0     H39786   0.698   5.837  -1.492  0.2652  2.0576 -1.9290
  295MOL0     H39787   0.678   5.770  -1.654  2.4569 -3.4065  1.3233
  295MOL0     H39788   0.540   5.826  -1.566  0.1006  0.5256 -0.0289
  295MOL0     H39789   1.054   5.506  -1.355  4.2035 -0.2367  1.3492
  295MOL0     H39790   1.286   5.523  -1.340  0.4232 -0.4571 -1.1992
  295MOL0     H39791   1.474   5.621  -1.701  0.6438  1.2065 -0.5738
  295MOL0     H39792   1.556   5.757  -1.635  0.6539 -0.0456 -0.2180
  295MOL0     H39793   1.691   5.560  -1.692 -1.3819 -2.4191 -0.5910
  295MOL0     H39794   1.720   5.609  -1.526  0.8102  1.5625 -2.0439
  295MOL0     H39795   1.678   5.347  -1.611 -0.7666 -0.4617 -1.5807
  295MOL0     H39796   1.513   5.389  -1.551 -0.0307  1.6058 -1.0315
  295MOL0     H39797   1.774   5.427  -1.395 -0.6920 -0.3576 -2.7240
  295MOL0     H39798   1.605   5.463  -1.343 -0.9747 -0.1728 -0.3079
  295MOL0     H39799   1.750   5.214  -1.396 -0.2547 -2.1681  0.4322
  295MOL0     H39800   1.573   5.202  -1.352  0.3826  0.4315  2.3501
  295MOL0     H39801   1.817   5.284  -1.176  0.4399 -0.3485  1.1198
  295MOL0     H39802   1.650   5.317  -1.134  1.3243  0.3146  0.4928
  295MOL0     H39803   1.786   5.036  -1.166 -0.5250 -0.3440  1.5664
  295MOL0     H39804   1.614   5.054  -1.193  0.5888 -2.8273  2.4916
  295MOL0     H39805   1.566   5.148  -0.986  0.3876  0.0490 -2.6943
  295MOL0     H39806   1.720   5.161  -0.926 -3.1112  2.2772 -0.1246
  295MOL0     H39807   1.320   5.783  -1.659  1.2658 -0.5403  1.0137
  295MOL0     H39808   1.076   5.813  -1.663  1.9283  2.2051  0.4549
  295MOL0     H39809   0.703   5.313  -1.465  1.0057 -0.4253  1.0323
  295MOL0     H39810   0.481   5.302  -1.368 -2.4492  0.9905  0.6840
  295MOL0     H39811   0.936   5.770   0.220  0.1319  1.6770  0.3032
  295MOL0     H39812   0.965   5.587   0.407  0.7627  2.2481 -0.1247
  295MOL0     H39813   1.062   5.477   0.832 -2.8716  1.7693 -3.6498
  295MOL0     H39814   1.122   5.267   0.967 -1.3589 -0.4408  1.0908
  295MOL0     H39815   0.873   4.906   1.052  0.0764 -0.3842 -0.4219
  295MOL0     H39816   0.898   4.896   0.879 -1.5296  3.5132 -0.1633
  295MOL0     H39817   1.131   4.820   0.916 -0.3710 -1.3103 -0.2817
  295MOL0     H39818   1.015   4.721   0.998 -0.3180 -0.3449 -4.9880
  295MOL0     H39819   1.050   4.843   1.210  2.0597  1.4410  2.1807
  295MOL0     H39820   1.163   4.958   1.157  1.9277 -0.9581  1.1503
  295MOL0     H39821   1.214   4.649   1.155  3.5245 -0.7895 -0.6675
  295MOL0     H39822   1.281   4.764   1.254 -0.3032  1.1368 -1.1761
  295MOL0     H39823   1.528   4.784   0.900 -0.1316 -2.4947  0.2777
  295MOL0     H39824   0.801   5.051   0.777  3.0949 -2.5993 -3.5837
  295MOL0     H39825   0.782   5.236   0.620  3.0278  0.7342 -2.5256
  296MOL0     O39826   8.352  10.100   9.712 -0.2312  0.7523 -0.0009
  296MOL0     C39827   8.473  10.117   9.704 -0.2312  0.0052 -0.7039
  296MOL0     O39828   8.531  10.232   9.716 -1.5054 -0.7468 -0.9202
  296MOL0     C39829   8.467  10.324   9.792 -0.4650  0.0901  0.0856
  296MOL0     C39830   8.465  10.451   9.736 -0.0089 -0.3253 -0.0142
  296MOL0     C39831   8.404  10.564   9.803  0.8081 -0.4199  0.1995
  296MOL0     C39832   8.351  10.544   9.923  0.5561  0.3463 -0.2065
  296MOL0     O39833   8.276  10.646   9.980 -0.1327  0.5772 -0.5503
  296MOL0     C39834   8.145  10.607  10.001  0.7208  0.3675  0.6618
  296MOL0     C39835   8.057  10.726   9.993  0.1346  0.2207  0.3347
  296MOL0     C39836   8.064  10.799   9.859  0.7252 -0.6738  0.1032
  296MOL0     C39837   7.968  10.727   9.759 -0.4589 -0.0486  0.8401
  296MOL0     C39838   8.016  10.767   9.608  0.7629  0.0697  0.0833
  296MOL0     C39839   7.941  10.678   9.510  0.1803 -0.1454  0.3488
  296MOL0     C39840   7.957  10.698   9.357  0.1199  0.3605 -0.7904
  296MOL0     C39841   7.863  10.596   9.289 -0.4209 -0.0550  0.0334
  296MOL0     N39842   7.893  10.585   9.147  0.4255 -0.2075  0.4730
  296MOL0     C39843   7.793  10.597   9.057  0.5024  0.1530  0.3274
  296MOL0     C39844   7.851  10.574   8.939  0.7264  0.0198 -0.4130
  296MOL0     C39845   7.798  10.563   8.799 -0.0806 -0.7752 -0.6163
  296MOL0     C39846   7.781  10.414   8.766  0.5673 -0.6231 -0.8856
  296MOL0     C39847   7.777  10.393   8.612 -0.2993  0.3883 -0.0590
  296MOL0     C39848   7.840  10.252   8.579  0.4248  0.4815 -0.3526
  296MOL0     O39849   7.978  10.244   8.613 -0.0025  0.7679 -0.8168
  296MOL0     C39850   8.048  10.339   8.552  0.7471  0.2374  0.4242
  296MOL0     C39851   8.140  10.413   8.629  0.0989 -0.3252 -0.2400
  296MOL0     C39852   8.227  10.505   8.567  0.0757 -0.6129 -0.8626
  296MOL0     C39853   8.327  10.574   8.661  0.2374  0.4988  0.0267
  296MOL0     C39854   8.221  10.524   8.422 -0.6895  0.5957 -1.0509
  296MOL0     C39855   8.305  10.624   8.337  0.1225  1.8675 -0.7068
  296MOL0     O39856   8.290  10.604   8.204  1.1703  0.3537  0.8196
  296MOL0     C39857   8.359  10.686   8.116 -1.0224  0.5234 -0.5290
  296MOL0     C39858   8.382  10.649   7.984 -0.3334  0.3052  0.7402
  296MOL0     C39859   8.454  10.724   7.892 -0.2195 -0.3130  0.0477
  296MOL0     C39860   8.486  10.850   7.912 -0.1969  0.5352  0.7363
  296MOL0     O39861   8.569  10.917   7.831  0.8136  0.0582  0.3151
  296MOL0     C39862   8.619  10.867   7.714 -0.7094  0.0415  0.1656
  296MOL0     C39863   8.714  10.958   7.637  0.2628 -0.5628  0.0393
  296MOL0     C39864   8.660  11.105   7.624  0.0625 -0.2231  0.1370
  296MOL0     C39865   8.771  11.194   7.560  0.5804 -0.2338  0.0005
  296MOL0     C39866   8.735  11.337   7.535  0.3090 -0.7994  0.0911
  296MOL0     C39867   8.827  11.426   7.452  0.7939 -1.1851 -0.4836
  296MOL0     C39868   8.760  11.559   7.435 -1.4210  0.2502  0.5158
  296MOL0     C39869   8.841  11.673   7.367  1.0046  0.0830  0.0541
  296MOL0    Cl39870   8.963  11.601   7.249 -0.0125  0.2353 -0.2038
  296MOL0     C39871   8.457  10.901   8.037 -0.0949 -0.1326  0.9262
  296MOL0     C39872   8.389  10.821   8.136  0.0571 -0.0314  0.5741
  296MOL0     O39873   8.391  10.686   8.390  0.5264  0.6418 -0.0512
  296MOL0     C39874   8.124  10.458   8.354  0.5743 -0.3647 -0.3985
  296MOL0     C39875   8.040  10.363   8.412 -1.0183 -0.1119 -1.1989
  296MOL0     N39876   7.984  10.530   8.963  0.5823 -0.7964 -0.5151
  296MOL0     N39877   8.012  10.548   9.087  0.7833  0.1056 -0.1382
  296MOL0     C39878   8.339  10.414   9.966  0.7066 -0.1224 -0.2893
  296MOL0     C39879   8.401  10.304   9.908 -0.0353  0.1535 -0.0212
  296MOL0     C39880   8.546  10.007   9.631 -0.1399 -0.4793 -0.0096
  296MOL0     C39881   8.496   9.872   9.622  0.0440 -0.3155  0.6925
  296MOL0     C39882   8.566   9.759   9.584 -0.8303 -0.2074 -0.3647
  296MOL0     C39883   8.691   9.777   9.518 -0.0881  0.2938  0.4523
  296MOL0     O39884   8.777   9.684   9.458  0.1133 -0.9725  0.0858
  296MOL0     C39885   8.771   9.547   9.500 -1.7359  0.4327 -0.9849
  296MOL0     C39886   8.736   9.439   9.391  0.2315  0.6961 -0.2333
  296MOL0     C39887   8.808   9.455   9.250 -0.2057  0.6695  0.1942
  296MOL0     C39888   8.956   9.410   9.256  0.4001 -0.5755  0.7154
  296MOL0     C39889   9.032   9.478   9.145  0.3746 -0.5962  0.2720
  296MOL0     C39890   9.113   9.524   9.066  0.6394 -0.6521 -0.8986
  296MOL0     C39891   8.737   9.906   9.513  1.0087 -0.4455 -0.0678
  296MOL0     C39892   8.672  10.017   9.569  0.0260 -0.5196  0.0188
  296MOL0     H39893   8.515  10.448   9.639 -0.1591 -2.1268 -0.0656
  296MOL0     H39894   8.398  10.664   9.760 -1.8513 -1.4691 -2.2188
  296MOL0     H39895   8.122  10.539   9.918  2.1964  1.3065 -0.5830
  296MOL0     H39896   8.127  10.555  10.095  2.0061  0.5625  1.0335
  296MOL0     H39897   7.957  10.689  10.020 -0.5749  1.6539 -0.2551
  296MOL0     H39898   8.094  10.788  10.075  0.7569 -0.9251  0.9479
  296MOL0     H39899   8.017  10.894   9.883 -2.7678 -1.8944 -1.3091
  296MOL0     H39900   8.166  10.804   9.819  0.5270  1.1306 -0.2166
  296MOL0     H39901   7.982  10.618   9.767 -2.0467 -0.2334  1.3552
  296MOL0     H39902   7.868  10.761   9.784 -1.8030 -2.8767 -0.2552
  296MOL0     H39903   7.993  10.873   9.589 -2.9360 -0.9489 -2.2955
  296MOL0     H39904   8.123  10.750   9.599  0.4154 -1.3719 -2.5412
  296MOL0     H39905   7.947  10.572   9.537  3.1988 -0.0615  0.4261
  296MOL0     H39906   7.837  10.702   9.532 -0.5146 -3.3269  1.0551
  296MOL0     H39907   7.928  10.801   9.335  1.1970  1.1776  1.3383
  296MOL0     H39908   8.063  10.695   9.330 -0.1447  2.4820 -2.2933
  296MOL0     H39909   7.758  10.622   9.305 -1.2802 -3.2074  0.2174
  296MOL0     H39910   7.882  10.495   9.328  1.0985  0.6443  1.2147
  296MOL0     H39911   7.685  10.598   9.065  0.2333  2.9681 -2.0753
  296MOL0     H39912   7.710  10.624   8.779  0.7088  0.1742 -1.2599
  296MOL0     H39913   7.871  10.603   8.728  1.7477 -4.3112 -0.9664
  296MOL0     H39914   7.687  10.376   8.808 -0.3845  2.7992  0.3875
  296MOL0     H39915   7.869  10.361   8.804  0.8131  0.9015  0.7926
  296MOL0     H39916   7.826  10.474   8.558  2.0969  0.9206  2.6778
  296MOL0     H39917   7.670  10.393   8.587 -0.4393 -1.2965  0.4065
  296MOL0     H39918   7.815  10.231   8.474  3.5438 -2.3578 -0.6982
  296MOL0     H39919   7.778  10.189   8.644 -0.5422 -0.0933 -1.7845
  296MOL0     H39920   8.135  10.389   8.735 -2.4369  0.3879 -0.1274
  296MOL0     H39921   8.316  10.545   8.765  0.7726  1.4900  0.3735
  296MOL0     H39922   8.427  10.537   8.637  0.6105  0.2069  1.9183
  296MOL0     H39923   8.326  10.682   8.641  1.4256  0.6527  0.7156
  296MOL0     H39924   8.351  10.547   7.964 -0.3921  0.0829  1.8835
  296MOL0     H39925   8.466  10.685   7.791 -0.0871  3.0773 -1.3575
  296MOL0     H39926   8.677  10.777   7.737 -3.1884 -1.5452  0.6160
  296MOL0     H39927   8.540  10.835   7.645  0.4327 -2.9906  0.1023
  296MOL0     H39928   8.808  10.945   7.691 -1.5581 -3.0693  2.9248
  296MOL0     H39929   8.722  10.909   7.539  1.6083  3.2487 -1.9595
  296MOL0     H39930   8.640  11.138   7.727  0.6543 -0.3772  0.3091
  296MOL0     H39931   8.574  11.107   7.557  0.6834 -0.3803 -0.6691
  296MOL0     H39932   8.859  11.192   7.625  2.8123  1.8887 -2.7142
  296MOL0     H39933   8.803  11.147   7.467 -1.3942  0.9225 -1.3302
  296MOL0     H39934   8.705  11.372   7.634  2.7515 -0.5067  0.8127
  296MOL0     H39935   8.644  11.337   7.474  1.2356 -0.1972 -1.3600
  296MOL0     H39936   8.916  11.435   7.515 -0.6427  1.6050  1.3437
  296MOL0     H39937   8.858  11.387   7.354  0.9500  0.5588 -1.1618
  296MOL0     H39938   8.730  11.596   7.533 -3.0104  0.9685 -0.2123
  296MOL0     H39939   8.667  11.534   7.385 -0.2001 -1.6385 -0.9782
  296MOL0     H39940   8.893  11.729   7.445  3.4057 -0.8754 -0.7891
  296MOL0     H39941   8.785  11.747   7.310  3.0051  1.1048 -0.6568
  296MOL0     H39942   8.497  11.002   8.042 -1.0197  0.4690 -1.9454
  296MOL0     H39943   8.343  10.865   8.224 -0.3120  1.2657 -0.2276
  296MOL0     H39944   8.115  10.456   8.245  2.2460  3.0969 -0.7443
  296MOL0     H39945   7.999  10.287   8.346  0.6453 -2.3653  0.2066
  296MOL0     H39946   8.286  10.415  10.061 -0.7429  0.6933 -1.0652
  296MOL0     H39947   8.390  10.204   9.949 -0.0078 -0.4155 -1.3572
  296MOL0     H39948   8.390   9.870   9.645 -0.2152  4.0541  0.7616
  296MOL0     H39949   8.534   9.656   9.596  2.7070 -1.1732  2.2825
  296MOL0     H39950   8.866   9.521   9.547 -0.8030  3.2672 -1.1589
  296MOL0     H39951   8.706   9.522   9.584 -0.5249  0.8516  0.1069
  296MOL0     H39952   8.629   9.451   9.370  0.5502  1.7901 -1.4256
  296MOL0     H39953   8.758   9.341   9.433 -1.7433 -0.1493 -1.0611
  296MOL0     H39954   8.788   9.559   9.223 -0.7569  0.5153  0.0163
  296MOL0     H39955   8.762   9.391   9.175 -0.1413  0.4611  0.3295
  296MOL0     H39956   8.961   9.300   9.255 -2.3492 -0.7745  1.4407
  296MOL0     H39957   8.995   9.453   9.349 -0.4932  2.7861 -0.3354
  296MOL0     H39958   9.159   9.588   8.994  6.4513 -1.4600  1.5376
  296MOL0     H39959   8.843   9.927   9.503  1.4187 -1.6096  1.3373
  296MOL0     H39960   8.726  10.111   9.567  1.6240 -1.4050  0.2095
  297MOL0     O39961   5.924   6.026   0.936  0.2352 -0.2288  0.6561
  297MOL0     C39962   5.970   6.139   0.967 -0.2219  0.0043 -1.1704
  297MOL0     O39963   5.913   6.230   1.059 -0.2992  0.5088 -0.2708
  297MOL0     C39964   5.811   6.187   1.142  0.0211  0.6105 -0.4587
  297MOL0     C39965   5.833   6.205   1.274 -0.6271 -0.6530 -0.0146
  297MOL0     C39966   5.729   6.162   1.362 -0.1756 -0.4153  0.4763
  297MOL0     C39967   5.618   6.097   1.315 -0.1429  0.0658 -0.1642
  297MOL0     O39968   5.537   6.054   1.408 -0.4839 -0.4240  0.7050
  297MOL0     C39969   5.440   5.948   1.390 -0.3232 -0.0142  0.1463
  297MOL0     C39970   5.509   5.811   1.352  0.1310 -0.4722 -1.5093
  297MOL0     C39971   5.410   5.704   1.327  0.4201  0.0763  0.9728
  297MOL0     C39972   5.458   5.559   1.311 -0.3254  0.7110 -0.2649
  297MOL0     C39973   5.427   5.484   1.442  0.2961 -0.9860  0.0355
  297MOL0     C39974   5.485   5.349   1.457 -0.3828  0.3135 -0.5918
  297MOL0     C39975   5.428   5.259   1.350  0.6404 -0.2150  0.4147
  297MOL0     C39976   5.449   5.112   1.383 -1.0504 -0.1793 -0.3204
  297MOL0     N39977   5.395   5.033   1.271 -0.8739 -0.3122 -0.3562
  297MOL0     C39978   5.264   5.003   1.250 -0.5673  0.0709 -0.3134
  297MOL0     C39979   5.261   4.936   1.139  0.0995 -0.6482  0.3759
  297MOL0     C39980   5.130   4.907   1.080  0.6497  0.5786  0.8159
  297MOL0     C39981   5.137   4.922   0.920  0.1332 -0.4455 -0.2761
  297MOL0     C39982   5.002   4.918   0.861 -0.4188 -0.7990  0.5813
  297MOL0     C39983   4.990   4.947   0.711  0.0315 -0.6932  0.2955
  297MOL0     O39984   5.084   5.050   0.654  0.9636  0.3837  0.8839
  297MOL0     C39985   5.080   5.072   0.513 -0.7777 -0.6942 -1.1621
  297MOL0     C39986   5.143   5.185   0.453 -0.4299  0.1939 -0.1992
  297MOL0     C39987   5.139   5.227   0.319 -0.0232 -0.0506  0.3151
  297MOL0     C39988   5.225   5.349   0.275  0.8178 -0.0484 -0.8536
  297MOL0     C39989   5.058   5.148   0.238  0.3131  1.0132 -0.1909
  297MOL0     C39990   5.012   5.179   0.101 -0.5216 -0.0465 -0.9741
  297MOL0     O39991   4.925   5.100   0.040 -0.4259  0.8872 -0.0050
  297MOL0     C39992   4.855   5.152  -0.067  0.0616  0.1579  0.5079
  297MOL0     C39993   4.799   5.046  -0.143 -0.4521  0.0978 -0.0507
  297MOL0     C39994   4.724   5.081  -0.262 -0.7369  0.5486 -0.2767
  297MOL0     C39995   4.725   5.212  -0.316  0.7615  0.4464  0.6739
  297MOL0     O39996   4.668   5.243  -0.439  0.2827  0.3474  0.1331
  297MOL0     C39997   4.632   5.143  -0.532 -0.4037  0.8779  0.5175
  297MOL0     C39998   4.593   5.189  -0.672  0.1255 -0.5585 -0.4306
  297MOL0     C39999   4.642   5.089  -0.779  0.0125 -0.1601 -0.0081
  297MOL0     C40000   4.625   5.164  -0.918 -1.0065 -0.8099 -1.1591
  297MOL0     C40001   4.687   5.096  -1.041 -0.1621  0.0089  0.2097
  297MOL0     C40002   4.680   5.185  -1.164 -0.4628 -0.5003  0.2296
  297MOL0     C40003   4.772   5.145  -1.274  0.4612  0.5983 -0.1181
  297MOL0     C40004   4.786   4.997  -1.323 -0.7550 -0.4428  0.1469
  297MOL0    Cl40005   4.648   4.971  -1.432 -0.1111  0.1892  0.1896
  297MOL0     C40006   4.771   5.319  -0.245 -0.6325  0.3967 -1.4229
  297MOL0     C40007   4.833   5.282  -0.118 -0.2769  0.0023  1.4504
  297MOL0     O40008   5.065   5.270   0.049 -0.2835 -0.6761  0.4012
  297MOL0     C40009   5.012   5.028   0.289 -0.1211 -0.1872 -0.1158
  297MOL0     C40010   5.014   4.994   0.425  0.1001  0.1773 -0.0151
  297MOL0     N40011   5.396   4.920   1.086  0.1082 -0.4175  0.0561
  297MOL0     N40012   5.471   4.983   1.170  0.9538 -0.1194  0.5372
  297MOL0     C40013   5.603   6.072   1.173  0.1428  0.0992 -1.1996
  297MOL0     C40014   5.695   6.128   1.090 -0.1464 -0.1651  0.0349
  297MOL0     C40015   6.113   6.165   0.925  0.4302  0.6104 -0.2024
  297MOL0     C40016   6.178   6.279   0.971  0.1975 -0.2304 -0.6443
  297MOL0     C40017   6.311   6.308   0.929 -0.5721  0.1158 -0.0848
  297MOL0     C40018   6.378   6.221   0.843  0.2210  0.0920  0.3100
  297MOL0     O40019   6.495   6.255   0.789  0.0829 -0.1265 -0.1339
  297MOL0     C40020   6.610   6.195   0.836  0.1734  0.5042 -1.5834
  297MOL0     C40021   6.750   6.229   0.773  0.0729 -0.0299 -0.7678
  297MOL0     C40022   6.868   6.126   0.820  0.0745 -1.2695  1.2384
  297MOL0     C40023   6.859   5.981   0.773  0.1306  0.3553 -0.3000
  297MOL0     C40024   6.982   5.900   0.772  0.0342 -0.8856  0.8530
  297MOL0     C40025   7.076   5.830   0.768 -0.1722 -0.9068  0.5151
  297MOL0     C40026   6.320   6.109   0.791  0.9798  0.7123 -0.6664
  297MOL0     C40027   6.192   6.078   0.836  0.3818 -0.3412 -0.4438
  297MOL0     H40028   5.919   6.255   1.318 -1.1696  3.3012 -2.9654
  297MOL0     H40029   5.748   6.170   1.469 -0.8932 -5.3336  1.2055
  297MOL0     H40030   5.390   5.940   1.487  1.7253  1.3182  1.3798
  297MOL0     H40031   5.376   5.985   1.309  0.7899  1.7189  0.0108
  297MOL0     H40032   5.565   5.823   1.259  0.2349 -1.0747 -1.5329
  297MOL0     H40033   5.572   5.785   1.438 -0.7024 -1.4069 -1.1508
  297MOL0     H40034   5.330   5.704   1.402 -0.3381  4.0678  0.4088
  297MOL0     H40035   5.361   5.735   1.234  0.0560 -0.5551  0.9440
  297MOL0     H40036   5.418   5.504   1.226  1.3811 -3.9472  1.6367
  297MOL0     H40037   5.568   5.565   1.310  0.0705 -3.5183 -0.5816
  297MOL0     H40038   5.456   5.545   1.529 -0.6896 -0.7432  0.2115
  297MOL0     H40039   5.318   5.476   1.449  0.4907 -3.3846  1.4343
  297MOL0     H40040   5.593   5.347   1.472 -0.2923 -0.6420 -1.2820
  297MOL0     H40041   5.447   5.317   1.555 -1.1457 -0.1017 -1.0049
  297MOL0     H40042   5.322   5.275   1.328  0.3964 -2.4899 -0.2573
  297MOL0     H40043   5.478   5.278   1.255 -0.5090 -4.1535 -1.1605
  297MOL0     H40044   5.390   5.084   1.470 -3.6843  1.9861 -1.2808
  297MOL0     H40045   5.556   5.089   1.388 -1.4363 -2.8572 -2.1757
  297MOL0     H40046   5.181   5.050   1.303  0.6592  1.2855  0.6084
  297MOL0     H40047   5.120   4.799   1.096  2.0778  0.2526 -0.2552
  297MOL0     H40048   5.047   4.957   1.130  0.7998  2.6777 -0.8776
  297MOL0     H40049   5.183   4.829   0.885 -2.2183 -0.6983 -3.0989
  297MOL0     H40050   5.203   5.008   0.901 -0.7757 -0.3933 -3.9139
  297MOL0     H40051   4.947   5.002   0.906  2.3009  1.0235  0.7004
  297MOL0     H40052   4.944   4.828   0.884  0.1344 -0.9747  1.3303
  297MOL0     H40053   4.891   4.981   0.678  0.3888 -2.4478 -3.1244
  297MOL0     H40054   5.004   4.850   0.661  1.1091  0.3609 -1.5289
  297MOL0     H40055   5.199   5.235   0.531 -0.0761  2.0845 -1.6015
  297MOL0     H40056   5.281   5.313   0.188 -3.7885  0.3569 -4.3950
  297MOL0     H40057   5.163   5.438   0.259 -2.1696 -1.9251 -0.6551
  297MOL0     H40058   5.299   5.383   0.347 -1.0037  4.3163 -0.7408
  297MOL0     H40059   4.824   4.947  -0.105  1.7696  1.1259  1.3939
  297MOL0     H40060   4.685   4.999  -0.323 -1.2683 -0.2629  1.1014
  297MOL0     H40061   4.722   5.082  -0.540  2.5676  4.7456  1.7504
  297MOL0     H40062   4.564   5.066  -0.494  2.9916 -1.6699  1.9501
  297MOL0     H40063   4.484   5.204  -0.669  0.3315  0.9112  1.1941
  297MOL0     H40064   4.651   5.280  -0.688  1.7825 -1.1847  1.6328
  297MOL0     H40065   4.569   5.008  -0.784 -1.2336  0.9786 -1.2903
  297MOL0     H40066   4.744   5.051  -0.776  0.2378 -0.3867 -4.0300
  297MOL0     H40067   4.524   5.198  -0.946  0.1566  1.7308 -2.6597
  297MOL0     H40068   4.674   5.262  -0.908 -1.8857 -0.2749 -1.8976
  297MOL0     H40069   4.624   5.008  -1.056 -0.2385 -0.2759  1.9770
  297MOL0     H40070   4.790   5.063  -1.026  0.7643  2.7516  0.5013
  297MOL0     H40071   4.580   5.174  -1.207  0.5079 -3.9119 -1.5039
  297MOL0     H40072   4.687   5.293  -1.146 -3.5765 -0.1101 -0.3219
  297MOL0     H40073   4.865   5.185  -1.232  0.5111 -0.7587  1.1583
  297MOL0     H40074   4.743   5.207  -1.359  0.4603  1.8858  0.7851
  297MOL0     H40075   4.778   4.930  -1.237 -2.5796 -1.4220 -0.7122
  297MOL0     H40076   4.881   4.977  -1.372  0.6753 -0.3583  2.7386
  297MOL0     H40077   4.775   5.419  -0.286 -0.7170  0.6628 -0.7862
  297MOL0     H40078   4.875   5.356  -0.051  1.3544 -1.6529  2.3332
  297MOL0     H40079   4.964   4.949   0.231 -2.0192  1.7573 -1.3259
  297MOL0     H40080   4.954   4.911   0.460 -1.3997  1.5400  0.7572
  297MOL0     H40081   5.519   6.018   1.132 -2.2449  1.6102  1.3053
  297MOL0     H40082   5.679   6.125   0.983 -2.9815  0.1410  0.3629
  297MOL0     H40083   6.132   6.353   1.036 -2.5622 -0.0594 -2.6261
  297MOL0     H40084   6.355   6.393   0.980  1.8499 -1.0923 -0.0345
  297MOL0     H40085   6.628   6.233   0.937  1.5814  0.5240 -1.8313
  297MOL0     H40086   6.598   6.087   0.845  0.9198  0.5647  0.8631
  297MOL0     H40087   6.777   6.330   0.806  0.0881 -0.8020  1.8167
  297MOL0     H40088   6.748   6.220   0.664  2.4344 -1.4398 -0.7591
  297MOL0     H40089   6.861   6.125   0.929 -0.5090  1.6299  1.3024
  297MOL0     H40090   6.965   6.170   0.796 -1.9596  2.1054 -1.7070
  297MOL0     H40091   6.832   5.981   0.667 -2.1316 -1.7480  0.1769
  297MOL0     H40092   6.774   5.945   0.832  1.1600 -0.5190  0.6938
  297MOL0     H40093   7.160   5.764   0.759  0.4474 -0.0327 -0.3909
  297MOL0     H40094   6.355   6.037   0.718 -0.9516 -2.2599  1.1544
  297MOL0     H40095   6.129   6.000   0.794 -0.4233  2.2988 -4.6236
  298MOL0     O40096   1.056   9.398   4.453 -0.4641 -0.2525 -0.1017
  298MOL0     C40097   0.944   9.394   4.495 -0.2102 -0.8257 -0.2936
  298MOL0     O40098   0.910   9.452   4.610  0.3301 -0.1340 -0.1992
  298MOL0     C40099   0.998   9.527   4.677 -0.4508 -0.1084  0.5501
  298MOL0     C40100   1.062   9.642   4.617  0.5282 -0.3030 -0.1343
  298MOL0     C40101   1.134   9.729   4.702 -0.4728  0.5544 -0.2137
  298MOL0     C40102   1.163   9.679   4.839 -0.0290 -0.2550 -0.2790
  298MOL0     O40103   1.275   9.740   4.891  1.2719  0.0274  0.0314
  298MOL0     C40104   1.320   9.700   5.026 -0.7747  0.1660 -0.3783
  298MOL0     C40105   1.404   9.571   5.010 -0.1203  0.6933  1.0483
  298MOL0     C40106   1.415   9.497   5.144 -0.0181  0.6029 -0.6843
  298MOL0     C40107   1.460   9.582   5.260 -0.1328 -0.1865  0.4326
  298MOL0     C40108   1.495   9.487   5.375  0.5556  0.3369 -0.8524
  298MOL0     C40109   1.552   9.559   5.504 -1.1651  0.9156 -0.5651
  298MOL0     C40110   1.602   9.469   5.625  0.4344  0.1270 -0.4125
  298MOL0     C40111   1.498   9.374   5.690 -0.4981  0.0521  0.0270
  298MOL0     N40112   1.558   9.302   5.811  0.2837  0.4322  0.3753
  298MOL0     C40113   1.556   9.350   5.938 -0.7172  0.8467 -0.7944
  298MOL0     C40114   1.599   9.247   6.013 -0.5335 -0.0522  0.2270
  298MOL0     C40115   1.628   9.251   6.161  0.5547  0.5748  0.5299
  298MOL0     C40116   1.516   9.279   6.244  0.0012 -0.4556 -0.3587
  298MOL0     C40117   1.445   9.161   6.293  0.1448  0.0795  0.1109
  298MOL0     C40118   1.327   9.192   6.396  0.3423  0.9749 -0.4287
  298MOL0     O40119   1.274   9.066   6.456  0.0744 -0.1951 -0.1937
  298MOL0     C40120   1.200   8.973   6.383  0.1250  0.6139 -0.0561
  298MOL0     C40121   1.175   8.846   6.443  0.0420 -1.2626  0.5734
  298MOL0     C40122   1.116   8.731   6.378  0.2384 -1.4730 -0.1774
  298MOL0     C40123   1.104   8.602   6.453  0.0641  0.3896  0.7767
  298MOL0     C40124   1.074   8.757   6.240 -0.1564  0.0862 -1.2746
  298MOL0     C40125   1.006   8.661   6.146  0.7024  0.3290 -0.7329
  298MOL0     O40126   1.036   8.656   6.017  0.0606 -0.3762  1.0737
  298MOL0     C40127   0.943   8.599   5.928  0.1286  1.0903  0.1398
  298MOL0     C40128   0.982   8.510   5.833 -0.8956 -0.4480 -0.1472
  298MOL0     C40129   0.892   8.478   5.728  0.2349  0.2579 -0.6250
  298MOL0     C40130   0.762   8.521   5.729  1.0488  0.8101 -0.4077
  298MOL0     O40131   0.659   8.486   5.635  0.2378  1.2896 -0.1970
  298MOL0     C40132   0.521   8.527   5.652  0.0439  0.8113  1.1171
  298MOL0     C40133   0.502   8.678   5.602 -0.5660  0.3568  0.3112
  298MOL0     C40134   0.358   8.721   5.651  0.0258 -0.0717 -0.5100
  298MOL0     C40135   0.243   8.639   5.584 -0.2571  0.4562  1.3923
  298MOL0     C40136   0.111   8.721   5.613 -0.4679 -0.5104  0.0160
  298MOL0     C40137  -0.011   8.631   5.589 -0.2318 -0.4319  0.6377
  298MOL0     C40138  -0.061   8.564   5.723  0.4188 -0.2347  0.4072
  298MOL0     C40139  -0.129   8.434   5.702 -0.6449  0.5668 -0.0965
  298MOL0    Cl40140  -0.202   8.381   5.862 -0.2602  0.1364  0.1869
  298MOL0     C40141   0.722   8.610   5.830  0.6398  0.7235 -1.2543
  298MOL0     C40142   0.820   8.656   5.911  0.2505 -0.5070 -0.1311
  298MOL0     O40143   0.928   8.585   6.197  0.6311  0.0677 -0.0903
  298MOL0     C40144   1.077   8.882   6.182  0.1330 -0.5021 -1.4382
  298MOL0     C40145   1.140   8.986   6.251 -0.5325  0.1425  0.9141
  298MOL0     N40146   1.635   9.138   5.938  0.1532  0.0869 -0.0946
  298MOL0     N40147   1.589   9.166   5.820 -0.3223 -0.3048  0.5289
  298MOL0     C40148   1.112   9.559   4.882 -0.3006  0.2852 -0.9927
  298MOL0     C40149   1.010   9.502   4.816  0.1868  0.5271  0.0022
  298MOL0     C40150   0.851   9.314   4.408 -0.2250  0.7750  0.0394
  298MOL0     C40151   0.717   9.270   4.454  0.2805  0.5460 -0.2546
  298MOL0     C40152   0.636   9.199   4.356 -0.2516 -0.0163  0.1270
  298MOL0     C40153   0.689   9.157   4.231  0.1583 -0.1291 -0.1164
  298MOL0     O40154   0.602   9.080   4.154 -0.2539  0.2071  0.0489
  298MOL0     C40155   0.629   9.039   4.016  0.7496 -0.4743 -0.3780
  298MOL0     C40156   0.734   8.938   3.979 -0.2949 -0.5109 -0.0033
  298MOL0     C40157   0.830   8.998   3.867 -0.3266 -0.5216  1.0798
  298MOL0     C40158   0.948   8.906   3.848  0.3476 -0.1224 -0.5253
  298MOL0     C40159   1.041   8.949   3.745 -0.6781 -0.0272 -0.2271
  298MOL0     C40160   1.132   8.989   3.669  1.0288  0.0024  0.8474
  298MOL0     C40161   0.822   9.188   4.201  0.4008 -0.2029 -0.3673
  298MOL0     C40162   0.896   9.273   4.276 -0.6637  0.1851 -0.3569
  298MOL0     H40163   1.044   9.662   4.512  2.4397 -0.2535 -0.4840
  298MOL0     H40164   1.183   9.816   4.659  0.7313  0.3555  0.6817
  298MOL0     H40165   1.378   9.790   5.052 -0.1173  0.2871 -2.1210
  298MOL0     H40166   1.229   9.692   5.086 -0.3017 -0.4295  0.2756
  298MOL0     H40167   1.353   9.508   4.937  1.1862  0.2165  0.5097
  298MOL0     H40168   1.503   9.599   4.975 -1.8451  1.5375 -3.8436
  298MOL0     H40169   1.315   9.457   5.160  0.2268 -0.3110 -1.3659
  298MOL0     H40170   1.483   9.411   5.143 -0.5925 -0.1667  3.8796
  298MOL0     H40171   1.548   9.645   5.241  0.8237 -0.7544  2.6700
  298MOL0     H40172   1.371   9.638   5.288 -0.8786 -0.7225 -0.7957
  298MOL0     H40173   1.408   9.423   5.390 -1.0875  1.4587 -4.3767
  298MOL0     H40174   1.565   9.408   5.345  0.2325 -0.7881  1.1583
  298MOL0     H40175   1.643   9.616   5.478  1.8858 -4.0650 -2.3297
  298MOL0     H40176   1.475   9.623   5.548  0.3117  1.7166  0.9751
  298MOL0     H40177   1.685   9.408   5.589 -0.3666  0.0557 -2.2333
  298MOL0     H40178   1.646   9.533   5.701  2.7811 -1.5258 -0.2860
  298MOL0     H40179   1.443   9.311   5.619 -1.2795  0.0886  0.5844
  298MOL0     H40180   1.406   9.422   5.726 -2.9151 -3.5395 -0.7992
  298MOL0     H40181   1.520   9.445   5.977 -3.5607 -0.7391  0.6876
  298MOL0     H40182   1.666   9.152   6.186 -0.7589 -0.1691 -0.3501
  298MOL0     H40183   1.714   9.318   6.179  1.3416 -0.8333  2.4089
  298MOL0     H40184   1.451   9.352   6.193  2.2743  2.0727  0.1418
  298MOL0     H40185   1.557   9.342   6.323  0.3494  1.1872 -1.7659
  298MOL0     H40186   1.520   9.098   6.342  1.3003  0.0355 -1.6266
  298MOL0     H40187   1.406   9.113   6.203 -0.0322  1.6308 -0.6685
  298MOL0     H40188   1.248   9.253   6.352  0.8318  2.4621  0.6763
  298MOL0     H40189   1.360   9.258   6.477  2.0855 -0.3883  0.0334
  298MOL0     H40190   1.223   8.825   6.538  0.3501 -1.0710  0.4590
  298MOL0     H40191   1.185   8.581   6.524  1.7962  0.2246 -1.1599
  298MOL0     H40192   1.010   8.587   6.507 -0.8621 -1.5839 -1.2176
  298MOL0     H40193   1.099   8.521   6.380 -2.3731  1.6154 -0.5100
  298MOL0     H40194   1.080   8.464   5.834 -1.8233 -2.5359  0.3202
  298MOL0     H40195   0.926   8.411   5.649  0.0542 -0.9980  0.3406
  298MOL0     H40196   0.466   8.465   5.581  1.5101 -3.7114  3.5099
  298MOL0     H40197   0.480   8.509   5.752  0.4158 -0.1075  1.1164
  298MOL0     H40198   0.581   8.739   5.646 -2.9510  1.4283  3.4081
  298MOL0     H40199   0.509   8.673   5.493 -2.5833 -1.9738  0.2135
  298MOL0     H40200   0.347   8.828   5.635 -0.0156 -0.5000 -4.3343
  298MOL0     H40201   0.363   8.698   5.758  3.3305 -2.0895 -0.9411
  298MOL0     H40202   0.254   8.620   5.477 -0.5440  1.5753  1.1508
  298MOL0     H40203   0.245   8.541   5.634 -2.1196 -0.1789  0.3054
  298MOL0     H40204   0.117   8.805   5.544 -0.4153 -0.9450 -0.5190
  298MOL0     H40205   0.108   8.752   5.717 -1.0827 -0.3657 -0.0456
  298MOL0     H40206  -0.087   8.704   5.561 -0.6386 -1.3130 -0.6239
  298MOL0     H40207   0.015   8.566   5.505  0.5048 -0.1266  0.6209
  298MOL0     H40208  -0.125   8.627   5.785  1.2226 -1.2454  2.3482
  298MOL0     H40209   0.025   8.536   5.785  0.6447  2.1172  1.2436
  298MOL0     H40210  -0.058   8.355   5.676 -1.9243 -1.1556  1.3836
  298MOL0     H40211  -0.203   8.443   5.622 -0.5944  2.9439  0.0323
  298MOL0     H40212   0.620   8.648   5.833 -0.1068 -1.2248  1.4039
  298MOL0     H40213   0.799   8.735   5.982  4.7958  1.7819 -0.9266
  298MOL0     H40214   1.022   8.883   6.089 -3.3894 -3.7751  0.3534
  298MOL0     H40215   1.153   9.076   6.192  0.6026  0.3984  1.5410
  298MOL0     H40216   1.136   9.533   4.985  1.1368 -4.0378 -2.2303
  298MOL0     H40217   0.952   9.426   4.867 -0.7605  2.0156  1.2465
  298MOL0     H40218   0.686   9.294   4.555 -0.3963 -3.6900  0.7144
  298MOL0     H40219   0.533   9.171   4.375 -0.3607 -0.0590 -0.4790
  298MOL0     H40220   0.538   8.986   3.988 -0.8114  2.3335 -1.0632
  298MOL0     H40221   0.644   9.123   3.948  1.0872 -1.1530 -1.1589
  298MOL0     H40222   0.674   8.850   3.952 -2.5677  0.5585  1.2350
  298MOL0     H40223   0.796   8.910   4.064 -1.5802  0.1135  1.1822
  298MOL0     H40224   0.866   9.098   3.891  3.1439 -1.0140 -1.3446
  298MOL0     H40225   0.773   9.002   3.774 -0.2497 -1.7493  0.9539
  298MOL0     H40226   0.907   8.806   3.832 -0.7730  0.3534 -0.7423
  298MOL0     H40227   1.003   8.898   3.942 -0.0207 -0.5593 -0.3456
  298MOL0     H40228   1.205   9.024   3.599  0.4111  1.5021  0.9025
  298MOL0     H40229   0.865   9.148   4.109  0.3842 -2.0215  0.3754
  298MOL0     H40230   0.990   9.297   4.228  1.0856  0.2289  2.7836
  299MOL0     O40231   2.556   4.176   9.770  1.0608  0.0843  0.0648
  299MOL0     C40232   2.538   4.116   9.875  0.9413 -0.3517 -0.4565
  299MOL0     O40233   2.419   4.061   9.912 -0.0217 -0.2724  0.3598
  299MOL0     C40234   2.317   4.063   9.826  0.3404  0.2276  0.3808
  299MOL0     C40235   2.268   3.939   9.782 -0.3719 -0.2376  0.3389
  299MOL0     C40236   2.150   3.937   9.697 -0.2908  0.2380 -0.3465
  299MOL0     C40237   2.072   4.050   9.682 -0.0308 -0.0692 -0.5904
  299MOL0     O40238   1.951   4.034   9.617 -0.0089  0.4234  0.9251
  299MOL0     C40239   1.851   4.128   9.639  0.0561  0.1873 -0.4610
  299MOL0     C40240   1.729   4.093   9.559  1.3435 -0.2743 -0.2293
  299MOL0     C40241   1.615   4.144   9.644 -0.6451 -0.3610 -1.0754
  299MOL0     C40242   1.493   4.152   9.550 -0.1645 -0.6421 -1.1105
  299MOL0     C40243   1.360   4.198   9.610 -0.0017 -0.2782 -0.3647
  299MOL0     C40244   1.236   4.199   9.527  0.5202 -0.2346 -0.4450
  299MOL0     C40245   1.168   4.056   9.496  0.0021 -0.2811  0.0342
  299MOL0     C40246   1.154   3.973   9.627  0.3384  0.1130  1.3969
  299MOL0     N40247   1.268   3.876   9.647  0.5766  0.1129  0.9376
  299MOL0     C40248   1.297   3.767   9.571  0.4112 -0.5571 -0.3647
  299MOL0     C40249   1.399   3.706   9.645  0.1420 -0.8806 -0.7405
  299MOL0     C40250   1.446   3.563   9.617 -0.2667 -0.2880  0.1843
  299MOL0     C40251   1.551   3.563   9.505  0.8667  0.5078 -0.4485
  299MOL0     C40252   1.645   3.438   9.508  0.7049 -0.3358 -1.0253
  299MOL0     C40253   1.729   3.433   9.382 -0.8401  0.3024  0.3388
  299MOL0     O40254   1.829   3.538   9.400  0.3330 -0.0820  0.5134
  299MOL0     C40255   1.955   3.505   9.434 -0.0500  0.8600  0.8033
  299MOL0     C40256   2.034   3.417   9.353 -0.3369  0.5131  0.3387
  299MOL0     C40257   2.174   3.420   9.351  0.0792  0.8689 -0.1168
  299MOL0     C40258   2.246   3.322   9.270  0.0297  0.4857  0.0403
  299MOL0     C40259   2.246   3.500   9.447  0.0413  0.3491 -0.0138
  299MOL0     C40260   2.391   3.522   9.457  1.1376 -0.7584 -0.0881
  299MOL0     O40261   2.435   3.629   9.536  0.4609  0.1435  0.3727
  299MOL0     C40262   2.554   3.684   9.503 -0.3021  0.5754 -0.7869
  299MOL0     C40263   2.677   3.616   9.497 -0.0391  0.2556 -0.9247
  299MOL0     C40264   2.788   3.692   9.475  0.5171 -0.5932 -0.4090
  299MOL0     C40265   2.785   3.833   9.467 -0.5418  0.1976 -0.0018
  299MOL0     O40266   2.917   3.879   9.438 -0.8195  0.5449 -0.2142
  299MOL0     C40267   2.957   4.010   9.488  0.4214 -0.1165  0.4590
  299MOL0     C40268   3.063   4.058   9.413 -0.4566  0.3402  0.0025
  299MOL0     C40269   3.015   4.066   9.267  0.0751 -0.6517 -0.3894
  299MOL0     C40270   3.106   4.157   9.182 -0.5605  0.6034  0.3007
  299MOL0     C40271   3.220   4.067   9.130  0.5453 -0.6201 -0.4821
  299MOL0     C40272   3.321   4.153   9.064 -0.1302  1.1622  0.1251
  299MOL0     C40273   3.454   4.079   9.036  0.4375  0.4311  0.6188
  299MOL0     C40274   3.567   4.160   8.980 -0.6387 -0.2144  0.4927
  299MOL0    Cl40275   3.714   4.056   8.964  0.2481 -0.1453 -0.3514
  299MOL0     C40276   2.666   3.904   9.477  0.3657  0.8722  1.3706
  299MOL0     C40277   2.551   3.823   9.497  0.4121 -0.5374  0.4954
  299MOL0     O40278   2.468   3.453   9.389  0.9427 -0.2153  0.8211
  299MOL0     C40279   2.162   3.566   9.543 -0.2328  0.6796  0.2640
  299MOL0     C40280   2.025   3.573   9.530 -0.4179  1.3763 -0.7785
  299MOL0     N40281   1.439   3.788   9.752  0.1898  0.6167 -0.0058
  299MOL0     N40282   1.352   3.881   9.753 -0.6910 -0.0048  0.1233
  299MOL0     C40283   2.122   4.180   9.721  0.0647 -0.4556  0.2411
  299MOL0     C40284   2.249   4.183   9.796  0.4054  0.8286 -0.2663
  299MOL0     C40285   2.660   4.078   9.954  0.1424 -0.4108  0.2776
  299MOL0     C40286   2.661   3.967  10.043  0.1366 -0.1408 -0.4860
  299MOL0     C40287   2.776   3.928  10.113  0.7318 -0.3999  0.2510
  299MOL0     C40288   2.894   4.002  10.087 -1.6191  0.3055  0.0638
  299MOL0     O40289   3.018   3.956  10.129  0.1566  0.0172  0.1333
  299MOL0     C40290   3.073   4.032  10.233  0.4964 -0.0633  0.3588
  299MOL0     C40291   3.193   4.121  10.194  0.0483 -0.1839  0.1179
  299MOL0     C40292   3.233   4.234  10.296 -0.7457 -0.1618  0.5778
  299MOL0     C40293   3.372   4.303  10.270  0.6401 -0.2244 -0.5835
  299MOL0     C40294   3.366   4.377  10.142 -0.6770  0.7834 -0.2087
  299MOL0     C40295   3.368   4.434  10.030  0.4130  0.4568  0.5066
  299MOL0     C40296   2.892   4.112   9.999 -1.1730  0.1078 -0.3186
  299MOL0     C40297   2.775   4.153   9.939  0.2143 -0.8463 -0.8445
  299MOL0     H40298   2.315   3.846   9.810  2.1314  0.6166 -0.6975
  299MOL0     H40299   2.122   3.848   9.642 -0.3372  1.3871 -2.2861
  299MOL0     H40300   1.821   4.118   9.744 -0.6772  2.1858 -0.4378
  299MOL0     H40301   1.877   4.234   9.640 -1.0989  0.6985  4.7753
  299MOL0     H40302   1.727   4.139   9.460 -2.1334 -1.8835 -1.0775
  299MOL0     H40303   1.717   3.984   9.553 -0.6523 -0.1623  0.7747
  299MOL0     H40304   1.605   4.080   9.732  3.6147 -1.8688 -1.4582
  299MOL0     H40305   1.641   4.242   9.687 -0.3196 -0.6086 -0.6937
  299MOL0     H40306   1.521   4.222   9.471  3.6563  0.1652  0.7146
  299MOL0     H40307   1.473   4.053   9.507 -0.4853 -0.0739 -2.3042
  299MOL0     H40308   1.337   4.143   9.702 -0.2603 -1.2477 -0.9938
  299MOL0     H40309   1.369   4.301   9.647 -0.6127 -0.5022  0.4461
  299MOL0     H40310   1.170   4.257   9.592  2.5575  0.0498  1.4815
  299MOL0     H40311   1.241   4.252   9.431 -0.6168 -0.4388 -0.6307
  299MOL0     H40312   1.070   4.088   9.460 -0.3428  1.7567  2.5031
  299MOL0     H40313   1.222   3.988   9.429  2.0467  1.1143  0.1777
  299MOL0     H40314   1.060   3.918   9.617  1.4399 -1.4544 -1.4024
  299MOL0     H40315   1.154   4.039   9.714  2.1457  0.9129  0.8453
  299MOL0     H40316   1.249   3.732   9.481 -0.8991 -1.5542  0.6673
  299MOL0     H40317   1.483   3.524   9.712  1.2104 -0.3726 -0.3998
  299MOL0     H40318   1.361   3.503   9.584  0.0374  0.2429 -1.7088
  299MOL0     H40319   1.614   3.652   9.514 -0.6843  1.7920 -1.5795
  299MOL0     H40320   1.496   3.573   9.411  0.2830 -1.0100 -0.3016
  299MOL0     H40321   1.588   3.345   9.499 -1.9176  1.3467 -3.8169
  299MOL0     H40322   1.698   3.434   9.604 -2.9451 -3.5165  1.1688
  299MOL0     H40323   1.689   3.448   9.282  0.1180  0.7175  0.0090
  299MOL0     H40324   1.786   3.339   9.374  1.0831  1.1517  2.7242
  299MOL0     H40325   1.978   3.369   9.274 -1.8212 -0.4959  1.9202
  299MOL0     H40326   2.319   3.371   9.205 -0.0620  0.9606  0.2868
  299MOL0     H40327   2.303   3.257   9.336  2.3730  0.2395 -2.0794
  299MOL0     H40328   2.180   3.253   9.216  0.2415  1.8085 -2.0164
  299MOL0     H40329   2.675   3.510   9.522  0.3254 -0.1402 -2.4824
  299MOL0     H40330   2.885   3.645   9.488  1.2592  0.9909  0.1079
  299MOL0     H40331   2.875   4.082   9.502 -1.1195 -2.0189  1.7831
  299MOL0     H40332   3.007   3.997   9.584 -0.3363 -0.2984  0.8425
  299MOL0     H40333   3.112   4.152   9.442  0.9011  0.0194 -1.1518
  299MOL0     H40334   3.147   3.989   9.424 -0.4207  0.6373  1.9145
  299MOL0     H40335   2.918   4.117   9.266 -1.0672 -2.4159  3.2010
  299MOL0     H40336   3.000   3.967   9.223  1.3230 -0.6907 -0.7555
  299MOL0     H40337   3.054   4.205   9.099 -0.4640  1.1915  0.5743
  299MOL0     H40338   3.156   4.242   9.228  0.2356  1.3923 -1.9098
  299MOL0     H40339   3.182   3.997   9.056 -2.1622  2.3709 -2.1702
  299MOL0     H40340   3.261   4.018   9.220 -0.8221 -2.0356 -0.6002
  299MOL0     H40341   3.279   4.186   8.969 -1.4894  1.7437  0.9035
  299MOL0     H40342   3.357   4.235   9.128  4.2995  0.1268 -0.6533
  299MOL0     H40343   3.435   3.991   8.974 -1.3588  1.0124  0.2899
  299MOL0     H40344   3.478   4.044   9.137  0.2836  2.0219  1.2381
  299MOL0     H40345   3.595   4.245   9.044  0.5106 -0.0817 -0.1662
  299MOL0     H40346   3.552   4.193   8.877  3.0101 -0.1094 -0.1232
  299MOL0     H40347   2.658   4.012   9.484 -2.7054  0.9065 -0.6987
  299MOL0     H40348   2.456   3.862   9.530  0.1871 -1.4422  0.9446
  299MOL0     H40349   2.208   3.625   9.622  2.3583 -1.4835  0.4954
  299MOL0     H40350   1.966   3.645   9.584 -0.8908  2.2416 -2.3669
  299MOL0     H40351   2.063   4.270   9.731 -0.4494 -0.8634  0.9642
  299MOL0     H40352   2.281   4.270   9.852  0.3011 -0.0592  1.2285
  299MOL0     H40353   2.577   3.899  10.049  1.1022 -1.4266 -1.2001
  299MOL0     H40354   2.781   3.840  10.176 -1.5138  1.0729  2.6748
  299MOL0     H40355   2.992   4.091  10.275 -1.7564 -3.3027  0.9337
  299MOL0     H40356   3.104   3.962  10.311 -2.4341 -1.7669  0.1240
  299MOL0     H40357   3.155   4.168  10.103 -1.6240 -0.7061  0.5218
  299MOL0     H40358   3.274   4.054  10.163  2.2513  2.1763  0.3998
  299MOL0     H40359   3.219   4.196  10.397 -0.6191 -0.9558  0.3006
  299MOL0     H40360   3.158   4.313  10.290 -0.6364 -0.1627 -2.1201
  299MOL0     H40361   3.450   4.226  10.271  2.7916  1.8095 -2.1773
  299MOL0     H40362   3.388   4.375  10.351 -3.4535 -0.2802  0.4981
  299MOL0     H40363   3.385   4.499   9.946  0.2614  1.4078  1.1966
  299MOL0     H40364   2.984   4.161   9.968 -0.2439 -2.4569 -1.8774
  299MOL0     H40365   2.775   4.236   9.869 -1.7437  1.5266  1.7324
  300MOL0     O40366   8.047   7.130   0.332  0.0145  0.3074  0.3381
  300MOL0     C40367   8.013   7.033   0.256 -0.0994  0.2768  0.5575
  300MOL0     O40368   8.056   7.011   0.133 -0.2296 -0.9489  0.0087
  300MOL0     C40369   8.187   7.067   0.102 -0.4867  0.7125  0.1274
  300MOL0     C40370   8.200   7.122  -0.026 -0.1452 -0.1105 -1.3578
  300MOL0     C40371   8.318   7.172  -0.080 -0.2776  0.3605  0.1927
  300MOL0     C40372   8.437   7.180   0.009 -0.1620 -1.3623  0.2692
  300MOL0     O40373   8.564   7.233  -0.020  0.7018 -1.0746 -0.0572
  300MOL0     C40374   8.583   7.240  -0.160  1.4205 -0.6759  0.3988
  300MOL0     C40375   8.717   7.308  -0.182  0.5793  0.4205  0.7884
  300MOL0     C40376   8.726   7.373  -0.314  0.8202 -0.3304  0.2570
  300MOL0     C40377   8.877   7.399  -0.337  0.6227 -1.5114  0.7194
  300MOL0     C40378   8.909   7.461  -0.467  0.3540 -0.0210 -0.9416
  300MOL0     C40379   8.878   7.382  -0.595  1.7470 -0.3325 -0.2177
  300MOL0     C40380   8.863   7.462  -0.724 -0.3219  0.4062  0.0401
  300MOL0     C40381   8.867   7.378  -0.859 -0.9968 -1.0546 -0.1850
  300MOL0     N40382   8.754   7.285  -0.874  0.8097 -0.7516 -0.3032
  300MOL0     C40383   8.767   7.152  -0.870 -0.3638  0.7370  0.3686
  300MOL0     C40384   8.661   7.093  -0.932  1.8978 -0.5386  0.7211
  300MOL0     C40385   8.651   6.943  -0.952  0.4313  0.6407 -0.1778
  300MOL0     C40386   8.539   6.909  -1.041  0.3651 -0.1388 -0.1463
  300MOL0     C40387   8.510   6.755  -1.051 -0.0339 -1.2956 -0.3813
  300MOL0     C40388   8.622   6.692  -1.140 -0.9634 -0.2827  0.0326
  300MOL0     O40389   8.558   6.591  -1.209  0.0129  0.1175  0.5439
  300MOL0     C40390   8.503   6.613  -1.333 -0.3257  0.6730  0.6086
  300MOL0     C40391   8.465   6.737  -1.402  0.6615 -0.5874 -0.3027
  300MOL0     C40392   8.404   6.739  -1.532  0.6364 -0.9204  0.2786
  300MOL0     C40393   8.342   6.872  -1.578 -0.2867  0.2296  0.2011
  300MOL0     C40394   8.386   6.620  -1.601  0.1334  0.3000 -0.4639
  300MOL0     C40395   8.324   6.614  -1.736 -0.3341  0.2294  1.7833
  300MOL0     O40396   8.316   6.723  -1.818 -0.6284 -0.2874 -0.2458
  300MOL0     C40397   8.311   6.733  -1.955 -0.7684  0.1733  0.0525
  300MOL0     C40398   8.294   6.866  -1.996 -1.1814  0.0136 -0.5046
  300MOL0     C40399   8.275   6.896  -2.134  0.5802 -0.6888  0.6069
  300MOL0     C40400   8.287   6.786  -2.228  0.8621  0.1679 -0.4843
  300MOL0     O40401   8.282   6.817  -2.356  0.0518  0.5363  0.4600
  300MOL0     C40402   8.354   6.726  -2.439 -0.1973  0.6828  0.2385
  300MOL0     C40403   8.361   6.780  -2.575  0.0129  0.2239 -0.3871
  300MOL0     C40404   8.428   6.678  -2.670  0.3930 -0.1402 -0.1489
  300MOL0     C40405   8.440   6.727  -2.813  0.0922 -0.3356  0.2705
  300MOL0     C40406   8.486   6.632  -2.921  0.0336  0.9304  0.3885
  300MOL0     C40407   8.629   6.590  -2.912  0.0981 -0.0439  0.7117
  300MOL0     C40408   8.657   6.469  -2.999 -0.0039  0.9762  0.3812
  300MOL0     C40409   8.630   6.348  -2.908  0.1115  1.0688 -0.5324
  300MOL0    Cl40410   8.740   6.324  -2.775  0.1335  0.3446 -0.0369
  300MOL0     C40411   8.295   6.653  -2.174 -0.3882 -0.4862 -0.1359
  300MOL0     C40412   8.312   6.625  -2.042 -0.5915 -0.6586 -0.1844
  300MOL0     O40413   8.277   6.510  -1.772  0.8853  0.2345  0.0525
  300MOL0     C40414   8.418   6.491  -1.537 -0.0025  0.4573 -0.3218
  300MOL0     C40415   8.469   6.491  -1.399 -0.9010 -0.1123  0.6449
  300MOL0     N40416   8.573   7.202  -0.975 -0.0661  0.4907  0.0895
  300MOL0     N40417   8.642   7.308  -0.946  0.3223  0.3668 -0.1000
  300MOL0     C40418   8.421   7.121   0.143  0.7769 -0.4269  0.0224
  300MOL0     C40419   8.300   7.064   0.185  0.1739  0.5523 -0.7190
  300MOL0     C40420   7.922   6.929   0.311 -0.5629  0.0127 -0.4734
  300MOL0     C40421   7.849   6.963   0.436 -0.1432 -0.1570 -0.1292
  300MOL0     C40422   7.752   6.874   0.490 -0.8546 -0.0889 -0.6052
  300MOL0     C40423   7.725   6.752   0.435  0.8494  0.1200 -0.4952
  300MOL0     O40424   7.632   6.659   0.473  0.6708  0.4083 -0.3442
  300MOL0     C40425   7.566   6.671   0.605 -0.5690  1.1667  0.0479
  300MOL0     C40426   7.477   6.553   0.632  0.2125 -0.1528 -0.9884
  300MOL0     C40427   7.430   6.553   0.778  0.2213 -0.1984  0.8437
  300MOL0     C40428   7.524   6.453   0.851  0.5078 -1.2511 -0.8753
  300MOL0     C40429   7.452   6.339   0.897  0.4251  1.0930  1.0269
  300MOL0     C40430   7.377   6.252   0.922 -0.7521  0.3169  0.2670
  300MOL0     C40431   7.791   6.726   0.313  1.4341 -0.2681 -0.1369
  300MOL0     C40432   7.891   6.801   0.251  0.5480  0.7666 -0.8583
  300MOL0     H40433   8.111   7.115  -0.087 -0.2625  2.4008 -1.5736
  300MOL0     H40434   8.300   7.213  -0.178 -2.0306  1.8283  1.0580
  300MOL0     H40435   8.584   7.137  -0.196 -2.2321 -1.5023  2.2151
  300MOL0     H40436   8.515   7.305  -0.214  1.4648 -0.1698  0.9391
  300MOL0     H40437   8.732   7.388  -0.109 -0.1976 -0.7101  2.2365
  300MOL0     H40438   8.798   7.236  -0.163  0.9500  1.1564  2.1388
  300MOL0     H40439   8.684   7.305  -0.388  0.4239  1.0120 -0.8034
  300MOL0     H40440   8.670   7.467  -0.311  0.1299 -0.6884 -0.7947
  300MOL0     H40441   8.908   7.468  -0.258 -1.7774  0.6756 -0.0872
  300MOL0     H40442   8.936   7.308  -0.324  1.5523 -1.6588 -3.2131
  300MOL0     H40443   8.863   7.560  -0.473  0.4228  0.4105  3.1900
  300MOL0     H40444   9.015   7.485  -0.478  0.0355  1.9444 -0.0952
  300MOL0     H40445   8.959   7.309  -0.607  1.8268 -0.1798 -0.6440
  300MOL0     H40446   8.785   7.326  -0.579 -0.0847  2.6813  0.3322
  300MOL0     H40447   8.768   7.510  -0.700  0.2308  0.6538  1.8631
  300MOL0     H40448   8.941   7.538  -0.730  0.2713  0.0395  2.2784
  300MOL0     H40449   8.959   7.319  -0.862 -1.6516 -2.1719 -4.0730
  300MOL0     H40450   8.869   7.447  -0.944  0.6976  0.1094  0.7439
  300MOL0     H40451   8.861   7.103  -0.849  0.7149  1.9024 -1.4170
  300MOL0     H40452   8.747   6.908  -0.991  0.4546  0.1545  0.3026
  300MOL0     H40453   8.643   6.899  -0.853  4.7166 -1.3719 -0.5042
  300MOL0     H40454   8.552   6.950  -1.142 -1.6276 -0.5200 -0.6184
  300MOL0     H40455   8.448   6.954  -1.000  1.2229  1.3094  0.2051
  300MOL0     H40456   8.409   6.749  -1.094  0.2508 -3.1988 -0.8488
  300MOL0     H40457   8.518   6.707  -0.953  2.1304  1.4719  0.9276
  300MOL0     H40458   8.698   6.646  -1.076 -1.1051 -3.1086 -1.6723
  300MOL0     H40459   8.665   6.759  -1.215 -0.4660 -1.6352 -0.9263
  300MOL0     H40460   8.469   6.828  -1.344 -0.8722 -0.2095 -0.7658
  300MOL0     H40461   8.233   6.874  -1.589 -0.2576 -0.7348 -0.4383
  300MOL0     H40462   8.364   6.954  -1.510  0.4591 -0.6092  0.9891
  300MOL0     H40463   8.379   6.898  -1.678 -0.6327 -1.7020 -0.4785
  300MOL0     H40464   8.293   6.957  -1.937 -0.1532  0.5203 -1.2373
  300MOL0     H40465   8.265   6.997  -2.173 -0.2285 -1.6362 -1.8317
  300MOL0     H40466   8.455   6.728  -2.398  1.7736  0.7763 -4.1389
  300MOL0     H40467   8.308   6.627  -2.448 -1.6891  1.3532  0.1668
  300MOL0     H40468   8.259   6.792  -2.613  0.8735  0.0335 -2.9099
  300MOL0     H40469   8.418   6.873  -2.565 -2.5337  1.6288  3.1037
  300MOL0     H40470   8.375   6.584  -2.684  4.1940 -2.4285 -0.7715
  300MOL0     H40471   8.528   6.653  -2.633  0.1434  1.1900  1.5922
  300MOL0     H40472   8.337   6.753  -2.838  0.2119 -0.5234 -0.4714
  300MOL0     H40473   8.488   6.826  -2.811 -1.9800  0.8150 -1.8462
  300MOL0     H40474   8.469   6.681  -3.018  0.4491 -0.4768 -0.4305
  300MOL0     H40475   8.426   6.541  -2.912  0.8574  0.3359  0.0205
  300MOL0     H40476   8.684   6.678  -2.947 -2.1262  1.0034 -0.3765
  300MOL0     H40477   8.661   6.573  -2.809  2.0459 -0.5397  0.0712
  300MOL0     H40478   8.763   6.464  -3.026 -0.0683 -0.2638  0.2965
  300MOL0     H40479   8.595   6.455  -3.087 -0.3008 -2.6805  1.0110
  300MOL0     H40480   8.621   6.255  -2.964  1.7523  1.0171 -0.7321
  300MOL0     H40481   8.530   6.354  -2.863 -0.1002 -0.4826 -0.7572
  300MOL0     H40482   8.316   6.568  -2.238  1.2097  1.4704 -2.3616
  300MOL0     H40483   8.331   6.525  -2.003  2.9775 -0.9877 -2.2989
  300MOL0     H40484   8.389   6.396  -1.580  0.2418 -1.2111  2.9163
  300MOL0     H40485   8.476   6.399  -1.340 -3.3596  1.0607  2.9780
  300MOL0     H40486   8.509   7.110   0.205  0.3692 -4.8516  0.1548
  300MOL0     H40487   8.291   7.014   0.280 -2.1730 -4.6524 -3.2758
  300MOL0     H40488   7.870   7.058   0.483 -0.2031  0.8421 -2.0343
  300MOL0     H40489   7.713   6.901   0.588 -0.7758  1.0616 -0.8689
  300MOL0     H40490   7.646   6.676   0.679  0.5004  0.7598 -1.0405
  300MOL0     H40491   7.514   6.767   0.603  1.9912  2.6257 -1.2481
  300MOL0     H40492   7.522   6.465   0.586  0.7803  1.4739 -3.7855
  300MOL0     H40493   7.396   6.586   0.565  2.4797 -0.4338 -4.0851
  300MOL0     H40494   7.324   6.525   0.779  0.6039 -1.8766 -0.9688
  300MOL0     H40495   7.443   6.654   0.819 -3.9734  1.8285 -2.0467
  300MOL0     H40496   7.565   6.506   0.937 -2.4503 -3.3426  2.0440
  300MOL0     H40497   7.602   6.411   0.786  1.5851 -1.2170  0.3521
  300MOL0     H40498   7.302   6.178   0.945  0.4663 -1.7234 -1.9050
  300MOL0     H40499   7.761   6.638   0.256 -0.3085 -0.5650  1.1377
  300MOL0     H40500   7.945   6.760   0.167 -0.9229 -1.7403 -0.6911
  301MOL0     O40501   0.147  10.655  10.423  0.1012 -0.1501 -0.1755
  301MOL0     C40502   0.194  10.727  10.335 -0.2990 -1.0718 -0.2816
  301MOL0     O40503   0.166  10.857  10.319  0.0200 -0.3340  1.0074
  301MOL0     C40504   0.052  10.914  10.366  0.2218  0.5884 -0.1877
  301MOL0     C40505  -0.071  10.857  10.333 -0.6590  0.1019 -0.2820
  301MOL0     C40506  -0.189  10.924  10.364 -0.7795 -0.0351 -1.0500
  301MOL0     C40507  -0.180  11.046  10.426 -0.2989 -0.7913  0.3799
  301MOL0     O40508  -0.302  11.100  10.451 -0.8570  0.2148 -0.7611
  301MOL0     C40509  -0.315  11.224  10.535 -0.3229  0.2507  0.6145
  301MOL0     C40510  -0.455  11.259  10.578  0.0245 -0.1046  0.7811
  301MOL0     C40511  -0.553  11.294  10.467  1.0650 -0.1013  0.3168
  301MOL0     C40512  -0.568  11.447  10.452 -0.7670 -0.2519  0.4394
  301MOL0     C40513  -0.661  11.465  10.322  0.1984  0.7968 -1.1004
  301MOL0     C40514  -0.693  11.616  10.308 -0.8468 -0.7020 -0.9735
  301MOL0     C40515  -0.568  11.704  10.259 -0.3070  0.5435 -0.0772
  301MOL0     C40516  -0.607  11.844  10.237 -0.2483  0.1920 -0.6196
  301MOL0     N40517  -0.597  11.917  10.364  0.1106  0.4796  0.5953
  301MOL0     C40518  -0.476  11.964  10.421  1.4140  0.3328  0.6472
  301MOL0     C40519  -0.524  12.003  10.543  0.7335  0.3161 -1.1518
  301MOL0     C40520  -0.456  12.092  10.635 -0.2551 -0.2683  0.3821
  301MOL0     C40521  -0.464  12.246  10.605 -0.1536  0.8377  0.2717
  301MOL0     C40522  -0.447  12.294  10.455  0.1219 -0.2956 -0.1391
  301MOL0     C40523  -0.574  12.302  10.372  0.1574  0.4288  0.4724
  301MOL0     O40524  -0.542  12.324  10.233  0.5042 -0.3189  0.1104
  301MOL0     C40525  -0.525  12.453  10.198 -0.2321 -0.2440 -0.6286
  301MOL0     C40526  -0.392  12.498  10.194  0.9837  0.7128  0.7808
  301MOL0     C40527  -0.368  12.624  10.142 -0.3614 -0.8771 -0.0762
  301MOL0     C40528  -0.224  12.657  10.111 -0.0959 -0.7738 -0.5190
  301MOL0     C40529  -0.479  12.716  10.136  0.3952 -0.7713 -2.0996
  301MOL0     C40530  -0.465  12.863  10.110  0.8404  0.3363  0.6085
  301MOL0     O40531  -0.341  12.915  10.074 -0.7265 -0.3536 -1.0229
  301MOL0     C40532  -0.303  13.049  10.062  0.3648  0.4487 -0.2783
  301MOL0     C40533  -0.186  13.072   9.992  0.0319  1.0602 -0.8116
  301MOL0     C40534  -0.126  13.194   9.972 -0.2763  0.1707  0.9689
  301MOL0     C40535  -0.198  13.302  10.012  0.1094 -0.0979 -0.5499
  301MOL0     O40536  -0.138  13.425   9.975  0.1254  0.3229 -1.0902
  301MOL0     C40537  -0.105  13.494  10.103 -0.0155 -0.0151 -0.7274
  301MOL0     C40538  -0.025  13.611  10.066 -1.0017 -0.5740 -0.9679
  301MOL0     C40539   0.022  13.696  10.181 -1.0123  0.4976 -0.1813
  301MOL0     C40540  -0.083  13.778  10.259 -0.5913  0.1833 -0.3159
  301MOL0     C40541  -0.032  13.852  10.378 -0.2066  0.5016 -0.6286
  301MOL0     C40542  -0.132  13.948  10.435 -0.2385 -1.2512  0.0197
  301MOL0     C40543  -0.280  13.913  10.469 -0.8160 -0.0288  0.1532
  301MOL0     C40544  -0.327  14.007  10.577  0.1748  0.5135  0.3667
  301MOL0    Cl40545  -0.503  13.986  10.595 -0.4353  0.2997  0.1414
  301MOL0     C40546  -0.318  13.286  10.080  0.0763 -0.9789  0.2564
  301MOL0     C40547  -0.370  13.162  10.106  0.0083  0.6332  0.3037
  301MOL0     O40548  -0.569  12.934  10.135  0.1654  0.2665 -0.2254
  301MOL0     C40549  -0.619  12.663  10.149 -0.6744  0.1156 -0.3240
  301MOL0     C40550  -0.637  12.530  10.178  0.3882 -0.6960 -0.4347
  301MOL0     N40551  -0.662  11.982  10.558 -0.3064 -0.6772 -0.0247
  301MOL0     N40552  -0.700  11.933  10.451  0.1911  0.3716  0.1490
  301MOL0     C40553  -0.054  11.101  10.463  0.2037  0.3430  0.6218
  301MOL0     C40554   0.062  11.029  10.435  0.7498 -0.1723  0.5552
  301MOL0     C40555   0.288  10.659  10.242  0.0719 -0.8971 -0.7454
  301MOL0     C40556   0.400  10.725  10.193  0.1353  0.0314 -0.5258
  301MOL0     C40557   0.493  10.660  10.116  0.7473 -0.6864  0.8119
  301MOL0     C40558   0.479  10.520  10.106  0.3632  1.1721  1.0170
  301MOL0     O40559   0.564  10.439  10.023 -0.0780  0.1579 -0.2940
  301MOL0     C40560   0.631  10.496   9.917  0.5561 -1.0181  1.1286
  301MOL0     C40561   0.728  10.403   9.841  0.0929  1.0184  0.0843
  301MOL0     C40562   0.849  10.346   9.926 -0.4251  0.4317  0.1576
  301MOL0     C40563   0.943  10.271   9.829  0.4625 -0.4994  0.2953
  301MOL0     C40564   0.909  10.135   9.794  0.5992 -0.2399  1.6061
  301MOL0     C40565   0.915  10.017   9.770  0.0008 -0.2280  0.3835
  301MOL0     C40566   0.380  10.452  10.163  0.4528 -0.2046 -1.0799
  301MOL0     C40567   0.269  10.521  10.221 -0.0745  0.1122 -0.2002
  301MOL0     H40568  -0.075  10.770  10.268  0.8081  0.9370 -1.5425
  301MOL0     H40569  -0.287  10.884  10.338 -0.9572 -0.1816 -0.1690
  301MOL0     H40570  -0.253  11.217  10.625 -2.9663  1.3332  2.6718
  301MOL0     H40571  -0.273  11.306  10.475 -0.3185  0.4935  0.9449
  301MOL0     H40572  -0.492  11.173  10.635 -1.1098 -0.9265 -1.0849
  301MOL0     H40573  -0.441  11.337  10.652 -2.1426  0.4491  0.6957
  301MOL0     H40574  -0.525  11.252  10.370 -3.5608 -0.6391 -1.0593
  301MOL0     H40575  -0.650  11.252  10.495 -0.6172  3.7036  0.7908
  301MOL0     H40576  -0.614  11.505  10.532 -0.1622 -0.7156  1.1274
  301MOL0     H40577  -0.473  11.496  10.430 -0.7085  0.1144  1.4771
  301MOL0     H40578  -0.598  11.437  10.237  3.6321  0.8436  1.2167
  301MOL0     H40579  -0.754  11.407  10.319 -1.3270  3.1438 -1.1542
  301MOL0     H40580  -0.764  11.618  10.225 -0.5859  0.1087 -1.1786
  301MOL0     H40581  -0.740  11.660  10.397  0.9631 -2.5386  0.9979
  301MOL0     H40582  -0.491  11.695  10.336  1.5536  0.9354 -1.7911
  301MOL0     H40583  -0.528  11.654  10.170  3.9339  1.9495  0.8035
  301MOL0     H40584  -0.708  11.850  10.196 -0.7357 -3.0208 -0.1670
  301MOL0     H40585  -0.547  11.887  10.155  2.1248  0.9218  1.3837
  301MOL0     H40586  -0.386  11.980  10.363  0.3519 -1.9336 -1.8227
  301MOL0     H40587  -0.491  12.069  10.736 -1.4612  0.7356  0.2197
  301MOL0     H40588  -0.350  12.067  10.621 -0.8097 -1.7865 -1.5522
  301MOL0     H40589  -0.380  12.288  10.661  1.6311  0.8360 -2.2327
  301MOL0     H40590  -0.560  12.282  10.641 -1.5377 -1.6962 -0.6076
  301MOL0     H40591  -0.378  12.230  10.399 -1.2095 -0.0371 -2.1985
  301MOL0     H40592  -0.403  12.394  10.457  0.3324 -0.3958  0.4230
  301MOL0     H40593  -0.625  12.392  10.409 -1.3890 -0.0144 -0.5292
  301MOL0     H40594  -0.640  12.216  10.383  2.3148 -1.4334 -0.4287
  301MOL0     H40595  -0.313  12.425  10.206 -0.0435 -0.5970 -0.1101
  301MOL0     H40596  -0.159  12.579  10.152 -1.8344 -0.3907  3.3707
  301MOL0     H40597  -0.215  12.676  10.003 -3.1866  3.3540 -0.2715
  301MOL0     H40598  -0.184  12.736  10.175  0.0298 -1.4265  0.2246
  301MOL0     H40599  -0.147  12.981   9.947 -1.9234  0.6614 -1.7809
  301MOL0     H40600  -0.036  13.207   9.913 -0.4613 -1.6165  0.2345
  301MOL0     H40601  -0.189  13.516  10.169  1.4570 -0.5672  1.4372
  301MOL0     H40602  -0.038  13.435  10.166  1.6303  2.1155 -0.3696
  301MOL0     H40603   0.059  13.575  10.005  1.0691 -1.6716  2.2929
  301MOL0     H40604  -0.090  13.673  10.003 -0.8448  0.6514  0.0478
  301MOL0     H40605   0.088  13.765  10.127  3.0149 -4.9355 -3.2736
  301MOL0     H40606   0.083  13.637  10.251  0.7646  0.3747 -1.7431
  301MOL0     H40607  -0.110  13.859  10.190  0.6541 -0.2582 -1.3586
  301MOL0     H40608  -0.170  13.713  10.274 -1.8657  1.9186  0.1204
  301MOL0     H40609   0.052  13.910  10.339 -1.2394  0.8974 -2.3875
  301MOL0     H40610   0.004  13.785  10.456  2.3519 -1.2312 -3.1011
  301MOL0     H40611  -0.086  13.977  10.530  0.8096 -1.2490 -0.4659
  301MOL0     H40612  -0.131  14.037  10.371 -0.6198 -0.1366  1.5111
  301MOL0     H40613  -0.279  13.813  10.514 -0.2238  0.9502  2.4575
  301MOL0     H40614  -0.346  13.908  10.383 -0.9958  0.9135  0.2277
  301MOL0     H40615  -0.307  14.112  10.552 -1.9570  1.0044  0.4996
  301MOL0     H40616  -0.277  13.977  10.669 -1.1907  3.2030  2.1222
  301MOL0     H40617  -0.374  13.366  10.126 -0.7166 -2.4413  1.9614
  301MOL0     H40618  -0.466  13.149  10.155  1.5893  1.1834  3.8730
  301MOL0     H40619  -0.711  12.721  10.150 -0.9167 -0.2533  1.4972
  301MOL0     H40620  -0.735  12.487  10.197  0.3500 -0.2308  0.4335
  301MOL0     H40621  -0.039  11.191  10.522 -0.9790 -2.0039  4.9748
  301MOL0     H40622   0.161  11.068  10.453  0.2394  0.8219  1.3002
  301MOL0     H40623   0.400  10.834  10.195 -1.3573  0.0400  1.3866
  301MOL0     H40624   0.570  10.711  10.058 -1.6789  1.1873 -1.0017
  301MOL0     H40625   0.554  10.545   9.857 -0.7581  1.8621  4.7735
  301MOL0     H40626   0.692  10.579   9.953 -2.0320  2.1581 -1.1570
  301MOL0     H40627   0.778  10.458   9.761  4.3678  0.8485  2.3423
  301MOL0     H40628   0.667  10.322   9.799 -1.9547  1.7372  1.4539
  301MOL0     H40629   0.795  10.290  10.003 -0.8357  1.0395  0.3234
  301MOL0     H40630   0.901  10.428   9.976 -0.6041  0.8344 -0.3129
  301MOL0     H40631   1.040  10.266   9.879  0.9859  0.7997 -0.5469
  301MOL0     H40632   0.955  10.329   9.737 -0.2331 -3.8954 -2.1682
  301MOL0     H40633   0.915   9.909   9.767  2.0398 -0.2598 -2.6544
  301MOL0     H40634   0.361  10.345  10.164 -3.4466  0.3419 -0.9942
  301MOL0     H40635   0.196  10.451  10.263  1.0148 -1.0428 -0.1888
  302MOL0     O40636   5.160   9.126  10.206 -0.9066  0.0418 -0.2727
  302MOL0     C40637   5.126   9.185  10.100  0.0020  0.1543 -0.7416
  302MOL0     O40638   5.027   9.279  10.093 -0.7492  0.1759  0.4658
  302MOL0     C40639   4.946   9.306  10.196  0.2297  0.0015 -0.2006
  302MOL0     C40640   4.875   9.206  10.273  1.2131  0.4508 -0.0782
  302MOL0     C40641   4.769   9.233  10.360  1.0923 -0.1327  0.0728
  302MOL0     C40642   4.757   9.363  10.398  1.1802 -0.8085  0.0707
  302MOL0     O40643   4.665   9.390  10.500 -0.7434  0.8746 -0.0820
  302MOL0     C40644   4.574   9.501  10.489 -0.2528  0.2280  0.5915
  302MOL0     C40645   4.453   9.459  10.579 -0.3386  0.1985  0.8761
  302MOL0     C40646   4.341   9.573  10.561 -0.1618 -0.8887 -0.9074
  302MOL0     C40647   4.227   9.562  10.660  0.0564  0.6506  0.1226
  302MOL0     C40648   4.133   9.688  10.643  0.3897  0.1391 -0.6090
  302MOL0     C40649   4.013   9.662  10.741  0.2410  0.2517 -0.1252
  302MOL0     C40650   3.895   9.756  10.729 -0.4714  0.0913  1.5258
  302MOL0     C40651   3.761   9.698  10.766 -0.3426 -0.3758  0.3200
  302MOL0     N40652   3.655   9.797  10.738  0.8847 -0.3457  0.5530
  302MOL0     C40653   3.597   9.883  10.830  0.2273  0.3112  1.1006
  302MOL0     C40654   3.517   9.968  10.758  0.3470  0.3744 -0.1027
  302MOL0     C40655   3.447  10.096  10.796  0.4941  0.5856  0.1430
  302MOL0     C40656   3.309  10.074  10.871 -0.2841 -0.4988  0.4653
  302MOL0     C40657   3.327  10.065  11.024 -1.3138  0.4393 -0.4796
  302MOL0     C40658   3.365  10.213  11.070 -0.2578 -0.1244  0.8543
  302MOL0     O40659   3.344  10.234  11.210 -0.4177 -0.2144 -0.4762
  302MOL0     C40660   3.350  10.354  11.271 -0.2303 -0.5051 -0.1524
  302MOL0     C40661   3.324  10.350  11.413 -0.0367 -0.2709 -0.3208
  302MOL0     C40662   3.320  10.464  11.488 -0.4106 -0.2175 -0.7567
  302MOL0     C40663   3.314  10.449  11.630 -0.3576 -0.3682  1.0342
  302MOL0     C40664   3.322  10.595  11.427  0.2860 -0.0423 -0.2170
  302MOL0     C40665   3.289  10.714  11.507 -0.0124 -1.2552 -0.3326
  302MOL0     O40666   3.365  10.828  11.476  0.0733  0.8253 -0.9277
  302MOL0     C40667   3.342  10.947  11.537 -0.7683 -0.3455  0.3455
  302MOL0     C40668   3.217  11.012  11.523 -0.1220 -0.3354 -0.7336
  302MOL0     C40669   3.194  11.121  11.610 -0.7481  0.0139  0.3686
  302MOL0     C40670   3.290  11.171  11.697  0.8314  0.1059  0.2110
  302MOL0     O40671   3.246  11.269  11.789 -0.2353  0.1220  0.1606
  302MOL0     C40672   3.352  11.363  11.823  2.1303  0.6353 -0.6966
  302MOL0     C40673   3.288  11.495  11.876  0.1898  0.7390  0.9605
  302MOL0     C40674   3.405  11.583  11.916  0.0908 -0.2205  0.5483
  302MOL0     C40675   3.357  11.712  11.987 -0.6419  0.0562  0.7996
  302MOL0     C40676   3.444  11.836  11.951 -0.6927  0.0394 -0.6381
  302MOL0     C40677   3.369  11.966  11.984  0.2753 -0.2446  0.2503
  302MOL0     C40678   3.436  12.087  11.915  0.1477  0.0853 -0.6281
  302MOL0     C40679   3.324  12.195  11.894 -0.0257 -0.1340 -0.2611
  302MOL0    Cl40680   3.193  12.133  11.781 -0.0720 -0.0392 -0.0829
  302MOL0     C40681   3.417  11.120  11.684 -0.2243  0.0373 -0.2720
  302MOL0     C40682   3.446  11.007  11.614  0.0854  0.5836  1.4131
  302MOL0     O40683   3.185  10.714  11.573 -1.0233  0.1103 -0.1014
  302MOL0     C40684   3.365  10.601  11.292  0.0256  0.1514  0.6333
  302MOL0     C40685   3.376  10.480  11.217  0.9810 -0.1336  0.1342
  302MOL0     N40686   3.529   9.929  10.630  0.2177  0.2594  0.8894
  302MOL0     N40687   3.618   9.836  10.613 -0.4041  0.9339 -0.2609
  302MOL0     C40688   4.820   9.470  10.325 -0.0351  0.3514  1.1117
  302MOL0     C40689   4.925   9.444  10.232 -1.4066  0.8625 -0.5634
  302MOL0     C40690   5.174   9.143   9.971 -0.1911  0.3388  0.4154
  302MOL0     C40691   5.106   9.173   9.849 -0.2469  0.3359 -0.1870
  302MOL0     C40692   5.132   9.110   9.727 -0.8260  0.4607 -0.9242
  302MOL0     C40693   5.248   9.028   9.713  0.2634  0.4872 -0.7010
  302MOL0     O40694   5.266   8.957   9.601 -0.4285  0.4885 -0.7763
  302MOL0     C40695   5.398   8.946   9.562 -0.0363 -0.3827 -1.5445
  302MOL0     C40696   5.424   8.918   9.422 -0.7123 -0.3753 -0.5237
  302MOL0     C40697   5.570   8.848   9.399  1.1528  0.8362  0.3319
  302MOL0     C40698   5.694   8.926   9.444  0.1130 -0.4060 -1.1760
  302MOL0     C40699   5.699   9.063   9.383 -0.3273 -0.0122  0.1797
  302MOL0     C40700   5.722   9.187   9.371  0.3295  0.0397  0.3040
  302MOL0     C40701   5.326   9.005   9.830 -1.1022 -0.2134  0.0023
  302MOL0     C40702   5.284   9.055   9.957  0.4597 -0.3506  0.0268
  302MOL0     H40703   4.885   9.103  10.242 -0.4136  0.4312 -0.5863
  302MOL0     H40704   4.716   9.162  10.422 -0.1021  0.4731 -0.2212
  302MOL0     H40705   4.620   9.591  10.530 -1.3644  2.2634 -2.2995
  302MOL0     H40706   4.542   9.521  10.386  0.5804  0.7273  0.4203
  302MOL0     H40707   4.416   9.366  10.536 -4.2015  2.2311 -0.6226
  302MOL0     H40708   4.481   9.436  10.683 -0.0243  0.8188  0.9360
  302MOL0     H40709   4.383   9.671  10.584 -0.2830 -0.8530 -0.8324
  302MOL0     H40710   4.304   9.576  10.458  0.3768 -0.2159 -1.0825
  302MOL0     H40711   4.183   9.466  10.631  0.8449 -0.3062  1.9002
  302MOL0     H40712   4.265   9.559  10.763  3.9781 -3.7888 -1.0791
  302MOL0     H40713   4.179   9.773  10.695  0.8424 -0.9632  0.8490
  302MOL0     H40714   4.115   9.714  10.538  2.3432  1.2185 -0.7269
  302MOL0     H40715   3.976   9.562  10.719  2.8160 -1.0307  0.8948
  302MOL0     H40716   4.045   9.666  10.846  2.9858  0.4137 -0.8736
  302MOL0     H40717   3.918   9.839  10.797  1.3219 -0.3612  1.5071
  302MOL0     H40718   3.876   9.783  10.625 -0.2896 -2.4138  0.7875
  302MOL0     H40719   3.751   9.639  10.857 -3.7294  0.3094  0.5114
  302MOL0     H40720   3.758   9.625  10.685  1.7548 -1.7233  1.3456
  302MOL0     H40721   3.609   9.883  10.938 -2.3839  2.1456  1.4838
  302MOL0     H40722   3.523  10.142  10.859  1.2128  1.1511 -1.1059
  302MOL0     H40723   3.417  10.152  10.707  0.4050 -1.2153 -1.0189
  302MOL0     H40724   3.271   9.983  10.823 -0.3813  0.6016 -1.6356
  302MOL0     H40725   3.245  10.159  10.849 -3.4679 -3.4335 -2.9560
  302MOL0     H40726   3.415  10.003  11.039 -0.2359  1.7006 -1.3075
  302MOL0     H40727   3.233  10.035  11.072 -0.9409  0.5251  0.3144
  302MOL0     H40728   3.307  10.292  11.020  0.2594  0.8520  1.7595
  302MOL0     H40729   3.470  10.236  11.052  0.2499 -1.6599  1.7108
  302MOL0     H40730   3.294  10.258  11.462  1.8085  0.8345  3.2447
  302MOL0     H40731   3.360  10.361  11.674 -0.5203 -1.5079 -0.9451
  302MOL0     H40732   3.362  10.531  11.684  1.5891 -1.3864  0.9434
  302MOL0     H40733   3.212  10.448  11.669 -0.0580  0.8591  1.9194
  302MOL0     H40734   3.144  10.997  11.444 -1.6303  2.2097  0.0415
  302MOL0     H40735   3.091  11.157  11.611 -0.2101  1.6130  0.7974
  302MOL0     H40736   3.413  11.325  11.906 -1.6837  0.6562  2.4055
  302MOL0     H40737   3.419  11.374  11.737  0.6156 -2.4897 -2.4100
  302MOL0     H40738   3.231  11.551  11.801  2.6549  3.1410  0.7070
  302MOL0     H40739   3.222  11.462  11.956 -2.8378 -0.0803 -1.6688
  302MOL0     H40740   3.463  11.618  11.830 -2.6948  2.1087 -0.5903
  302MOL0     H40741   3.475  11.517  11.968  3.1179  0.5040 -2.2381
  302MOL0     H40742   3.262  11.727  11.934 -1.3083 -1.0152  1.6360
  302MOL0     H40743   3.343  11.700  12.095 -0.3218 -0.8210  0.7548
  302MOL0     H40744   3.477  11.831  11.847 -1.8551 -2.3925 -0.9638
  302MOL0     H40745   3.543  11.830  11.997 -1.2833  1.6490  0.9860
  302MOL0     H40746   3.269  11.965  11.940  0.2304  4.1857 -0.1919
  302MOL0     H40747   3.366  11.985  12.092 -1.4818  3.6143 -0.2945
  302MOL0     H40748   3.482  12.068  11.817 -1.7540  0.9968 -1.7409
  302MOL0     H40749   3.524  12.111  11.975 -1.4023 -0.1220  1.8503
  302MOL0     H40750   3.369  12.285  11.852  0.6970 -0.5267 -0.3369
  302MOL0     H40751   3.280  12.225  11.990 -1.2639  1.1613 -1.1871
  302MOL0     H40752   3.506  11.155  11.735 -0.1252 -2.8153  1.7280
  302MOL0     H40753   3.543  10.959  11.602 -1.2119 -1.5843 -1.4165
  302MOL0     H40754   3.389  10.695  11.245 -0.5467 -0.3386 -0.6811
  302MOL0     H40755   3.406  10.496  11.113 -2.4304  1.2627 -0.7804
  302MOL0     H40756   4.795   9.573  10.345  0.2164  0.1129  2.8799
  302MOL0     H40757   4.965   9.524  10.171  2.8553  1.3712  2.4935
  302MOL0     H40758   5.018   9.236   9.839  2.5186  4.1223 -4.4402
  302MOL0     H40759   5.083   9.129   9.633 -2.1593  1.8442  0.0017
  302MOL0     H40760   5.457   9.035   9.587 -0.1137 -0.6118 -0.4977
  302MOL0     H40761   5.448   8.861   9.609  3.5985  1.0036 -2.6018
  302MOL0     H40762   5.413   9.011   9.366 -0.1784 -0.8889 -1.5020
  302MOL0     H40763   5.348   8.852   9.380  1.2751 -2.6703 -0.7849
  302MOL0     H40764   5.591   8.842   9.292  2.1008  1.8091  0.4491
  302MOL0     H40765   5.567   8.746   9.440 -1.4267 -0.1525 -1.9557
  302MOL0     H40766   5.789   8.877   9.426  1.0226  0.0388  1.7793
  302MOL0     H40767   5.685   8.934   9.553  2.9127  2.0196 -0.9961
  302MOL0     H40768   5.736   9.292   9.354  0.3533 -0.0681 -0.3815
  302MOL0     H40769   5.415   8.944   9.823 -0.2086  0.8058  1.9729
  302MOL0     H40770   5.328   9.029  10.053 -2.0299 -0.4960  1.2270
  303MOL0     O40771   7.922   4.811   2.251 -0.1492  0.1371  0.1539
  303MOL0     C40772   7.916   4.923   2.289  0.5559  0.4237 -0.1835
  303MOL0     O40773   7.895   5.029   2.200 -1.2364 -0.4988 -0.0962
  303MOL0     C40774   7.894   5.004   2.067  0.5296 -0.0414  0.3775
  303MOL0     C40775   8.004   4.968   1.989 -0.4592  0.0524 -0.1985
  303MOL0     C40776   7.987   4.951   1.851 -0.2281 -1.1158 -0.6053
  303MOL0     C40777   7.867   4.970   1.789  0.2689  0.6892 -0.0077
  303MOL0     O40778   7.853   4.937   1.656 -0.1997 -0.3093  0.1351
  303MOL0     C40779   7.769   4.829   1.608  0.7059  0.5538 -1.1262
  303MOL0     C40780   7.795   4.803   1.455  0.1626  0.6421 -0.2110
  303MOL0     C40781   7.939   4.767   1.439 -1.1339 -0.3814  0.9981
  303MOL0     C40782   7.968   4.723   1.301  0.0319 -0.7203 -0.2135
  303MOL0     C40783   8.120   4.690   1.283  0.5943  0.3370  1.0653
  303MOL0     C40784   8.190   4.617   1.396 -0.1046 -1.1023  0.7118
  303MOL0     C40785   8.127   4.478   1.405 -0.0777  0.0096  0.0563
  303MOL0     C40786   8.176   4.390   1.521  0.2128 -0.1672 -0.1743
  303MOL0     N40787   8.085   4.372   1.633 -0.2356  0.9688 -0.0759
  303MOL0     C40788   8.068   4.462   1.734 -0.1882 -0.7908 -0.8611
  303MOL0     C40789   7.989   4.402   1.824  0.5353  0.3828  0.0134
  303MOL0     C40790   7.940   4.450   1.954  0.2591  0.3560 -0.4165
  303MOL0     C40791   8.051   4.456   2.051  0.7218  0.5864  0.7254
  303MOL0     C40792   8.109   4.322   2.100  0.5529  0.1082  0.2925
  303MOL0     C40793   8.133   4.319   2.259 -0.2557  0.1086  0.5072
  303MOL0     O40794   8.245   4.395   2.284  0.2655  0.4795  0.2139
  303MOL0     C40795   8.290   4.382   2.421 -0.4894 -0.1954  0.6645
  303MOL0     C40796   8.198   4.362   2.529 -0.4450 -0.0391  0.0392
  303MOL0     C40797   8.237   4.357   2.662 -1.1268 -0.3367  0.2186
  303MOL0     C40798   8.137   4.313   2.768 -0.1704 -0.4317 -0.3336
  303MOL0     C40799   8.372   4.379   2.696 -0.3246  0.9382  0.2105
  303MOL0     C40800   8.430   4.384   2.830 -0.2277 -0.4070 -0.2877
  303MOL0     O40801   8.541   4.452   2.837 -0.2978  0.1312  0.0757
  303MOL0     C40802   8.612   4.457   2.954 -1.4261 -0.4187 -1.1262
  303MOL0     C40803   8.681   4.573   2.988 -0.2076  0.0896  0.2573
  303MOL0     C40804   8.764   4.574   3.100 -0.7339  0.7293 -0.1213
  303MOL0     C40805   8.778   4.459   3.183  0.4158 -1.0515  1.1736
  303MOL0     O40806   8.845   4.470   3.296  0.4583 -0.7595 -0.1978
  303MOL0     C40807   8.989   4.483   3.267  0.9029  0.4870  1.0509
  303MOL0     C40808   9.060   4.491   3.394 -0.2456 -0.3211 -0.2447
  303MOL0     C40809   9.053   4.629   3.467 -0.8914  0.8994 -0.0623
  303MOL0     C40810   8.924   4.721   3.449  0.3483  0.5126  0.4225
  303MOL0     C40811   8.937   4.859   3.522  0.2597  0.8595  0.2908
  303MOL0     C40812   8.800   4.939   3.542  0.1214 -0.4984  0.2517
  303MOL0     C40813   8.750   5.012   3.415 -0.5231 -0.0923 -0.1501
  303MOL0     C40814   8.598   5.017   3.414 -0.4226  0.4517 -0.4165
  303MOL0    Cl40815   8.528   5.131   3.533  0.0526 -0.3116  0.3274
  303MOL0     C40816   8.707   4.346   3.142 -0.0299  0.3281 -0.2945
  303MOL0     C40817   8.633   4.337   3.026 -0.3151 -0.7750 -0.0825
  303MOL0     O40818   8.375   4.329   2.926  0.0808 -0.1690  0.3618
  303MOL0     C40819   8.460   4.394   2.592  0.1967 -0.4491 -0.2198
  303MOL0     C40820   8.424   4.402   2.455  0.1423 -0.4820 -0.9226
  303MOL0     N40821   7.979   4.271   1.777  0.5351  0.4338  0.2452
  303MOL0     N40822   8.035   4.255   1.670 -0.2061 -0.1046  0.6910
  303MOL0     C40823   7.759   4.997   1.870  0.2078 -0.1903  0.7343
  303MOL0     C40824   7.772   5.024   2.007  0.0190 -0.4601 -0.1527
  303MOL0     C40825   7.881   4.946   2.434 -0.7580 -0.4553 -0.1601
  303MOL0     C40826   7.892   5.079   2.481  0.6126  0.4522  0.3148
  303MOL0     C40827   7.849   5.110   2.602  0.8324 -0.1122 -0.0665
  303MOL0     C40828   7.804   5.006   2.691 -0.0998  0.6446  0.6733
  303MOL0     O40829   7.762   5.022   2.817  0.4006  0.1298 -0.1260
  303MOL0     C40830   7.660   5.122   2.850  0.0127  0.8811 -0.4148
  303MOL0     C40831   7.534   5.057   2.808 -0.5003  0.2097  0.2612
  303MOL0     C40832   7.415   5.121   2.884  0.4082 -0.4837 -0.1409
  303MOL0     C40833   7.289   5.038   2.862 -0.2076  0.4534  0.7350
  303MOL0     C40834   7.194   5.065   2.963 -0.1671  0.2099 -0.0234
  303MOL0     C40835   7.120   5.090   3.061  0.5908 -0.0095 -0.6365
  303MOL0     C40836   7.798   4.869   2.655 -0.9608 -0.2036 -0.0508
  303MOL0     C40837   7.841   4.843   2.522  0.0790 -0.5007  0.1373
  303MOL0     H40838   8.104   4.949   2.027 -1.2224 -0.0575  1.8845
  303MOL0     H40839   8.070   4.925   1.787  0.8224 -1.6337  0.9064
  303MOL0     H40840   7.791   4.735   1.661 -1.5906  0.2454 -0.6185
  303MOL0     H40841   7.663   4.845   1.628  0.6335 -1.5475  0.6306
  303MOL0     H40842   7.724   4.732   1.412  0.4033 -0.5225  1.2574
  303MOL0     H40843   7.771   4.891   1.394 -0.0634  0.4274 -0.4337
  303MOL0     H40844   8.003   4.847   1.476 -0.1130 -0.8373  0.2544
  303MOL0     H40845   7.955   4.683   1.508  2.5683 -1.5312 -0.9888
  303MOL0     H40846   7.910   4.634   1.277 -2.4790  0.8204 -0.2372
  303MOL0     H40847   7.930   4.804   1.238  2.1730  3.6427  3.5351
  303MOL0     H40848   8.113   4.617   1.202 -1.1945  1.8125 -0.1907
  303MOL0     H40849   8.178   4.774   1.246  1.7527 -1.1554 -0.6639
  303MOL0     H40850   8.298   4.614   1.378 -0.1890 -1.1588  0.2139
  303MOL0     H40851   8.174   4.678   1.486 -2.6706 -1.0035  0.2754
  303MOL0     H40852   8.020   4.495   1.415  0.1492  0.1861  4.0942
  303MOL0     H40853   8.148   4.423   1.313 -1.8824 -2.6590  1.1160
  303MOL0     H40854   8.269   4.434   1.558  0.4642  0.1441 -1.1630
  303MOL0     H40855   8.201   4.291   1.479  4.9119  0.7098 -0.0023
  303MOL0     H40856   8.107   4.563   1.741 -1.1418 -0.5152  1.5857
  303MOL0     H40857   7.913   4.554   1.937 -0.8697  0.0121 -0.7879
  303MOL0     H40858   7.848   4.396   1.977  0.7072 -0.1245  0.3000
  303MOL0     H40859   8.018   4.515   2.137 -0.6478 -1.2615  1.5468
  303MOL0     H40860   8.129   4.515   2.002 -0.5275  1.9184  0.2929
  303MOL0     H40861   8.203   4.309   2.047 -0.3527 -0.8394 -1.1599
  303MOL0     H40862   8.046   4.237   2.072 -0.4193  1.0116 -0.3817
  303MOL0     H40863   8.149   4.220   2.302 -1.9940  0.1337  1.2641
  303MOL0     H40864   8.051   4.362   2.317  2.7185  2.2598  3.4946
  303MOL0     H40865   8.091   4.353   2.515 -0.0419 -2.8177 -2.1241
  303MOL0     H40866   8.130   4.372   2.860  3.2169  0.6003 -0.5799
  303MOL0     H40867   8.042   4.313   2.715  0.1464  0.8797 -0.9444
  303MOL0     H40868   8.170   4.213   2.797  1.0904 -1.0304 -3.3934
  303MOL0     H40869   8.665   4.659   2.924 -0.9437 -1.3474 -1.5797
  303MOL0     H40870   8.816   4.665   3.130  0.3257  0.6435 -1.5995
  303MOL0     H40871   9.020   4.392   3.215  2.0382  0.9412  0.9216
  303MOL0     H40872   9.015   4.580   3.222 -3.5470  2.5167  2.2451
  303MOL0     H40873   8.998   4.426   3.457 -3.7073  2.0572 -0.8951
  303MOL0     H40874   9.166   4.465   3.389  0.2161  1.5459 -0.9101
  303MOL0     H40875   9.141   4.688   3.442  0.1535 -0.7680 -0.5259
  303MOL0     H40876   9.076   4.611   3.572 -0.4680  1.6688 -0.0188
  303MOL0     H40877   8.917   4.740   3.342 -2.1291 -2.0664 -0.0098
  303MOL0     H40878   8.829   4.668   3.465 -0.5209  2.1166  0.7953
  303MOL0     H40879   9.015   4.926   3.485  3.9435 -2.0949  1.9985
  303MOL0     H40880   8.971   4.824   3.621 -2.1741 -3.2363 -0.0932
  303MOL0     H40881   8.725   4.862   3.567 -0.8456 -1.1912 -3.9029
  303MOL0     H40882   8.808   5.019   3.616  3.3078 -0.2074 -0.2988
  303MOL0     H40883   8.781   4.950   3.331 -0.9644 -2.6657  1.4773
  303MOL0     H40884   8.805   5.104   3.395  2.0671 -1.8081 -1.4832
  303MOL0     H40885   8.569   4.911   3.420  0.8003 -0.1130 -3.0423
  303MOL0     H40886   8.565   5.053   3.316  0.6002  0.4515 -0.7690
  303MOL0     H40887   8.712   4.257   3.204  0.6844  0.5020 -0.0934
  303MOL0     H40888   8.594   4.241   2.992 -3.9873  0.0638  1.2931
  303MOL0     H40889   8.565   4.404   2.618 -0.5163  0.0385  2.8681
  303MOL0     H40890   8.504   4.425   2.385 -0.5762 -0.9576 -1.9297
  303MOL0     H40891   7.659   5.004   1.829 -0.0603  1.6978  1.6072
  303MOL0     H40892   7.677   5.052   2.050 -0.9118 -0.7040 -1.9236
  303MOL0     H40893   7.919   5.158   2.411 -1.2466  1.8542  1.0797
  303MOL0     H40894   7.854   5.215   2.627  3.2468  0.4187 -2.4081
  303MOL0     H40895   7.658   5.128   2.960  0.4262 -0.6633 -0.2950
  303MOL0     H40896   7.670   5.221   2.804  2.0512  1.1400  0.4502
  303MOL0     H40897   7.544   4.952   2.835 -1.6680 -0.0216 -0.1411
  303MOL0     H40898   7.512   5.084   2.704 -2.9385 -0.2813  0.5962
  303MOL0     H40899   7.392   5.223   2.849 -2.5125 -1.8869 -2.8493
  303MOL0     H40900   7.437   5.112   2.990 -1.9697 -2.4470  0.2662
  303MOL0     H40901   7.308   4.930   2.863 -1.2175  0.2685  1.3128
  303MOL0     H40902   7.248   5.066   2.764  3.5939  2.8387 -0.3669
  303MOL0     H40903   7.049   5.103   3.140 -0.1063  0.5608 -1.3396
  303MOL0     H40904   7.770   4.791   2.725  0.9881 -0.4201  0.5652
  303MOL0     H40905   7.846   4.740   2.488  1.1832 -0.0529 -1.1473
  304MOL0     O40906   8.786  11.044   4.003  0.6312 -0.2736 -0.0585
  304MOL0     C40907   8.852  10.964   4.064 -0.0431 -0.3221 -0.2780
  304MOL0     O40908   8.830  10.934   4.192  0.1760  0.7826  0.0436
  304MOL0     C40909   8.719  10.965   4.264 -0.2141  0.5554 -0.0122
  304MOL0     C40910   8.659  10.857   4.334 -1.0870 -0.4774  0.4426
  304MOL0     C40911   8.556  10.879   4.430  0.3948 -0.1289  0.6635
  304MOL0     C40912   8.517  11.011   4.466 -0.1075  0.2337  0.0799
  304MOL0     O40913   8.431  11.035   4.569  0.2121 -0.0399 -0.8367
  304MOL0     C40914   8.297  11.001   4.527 -0.3865 -0.5340 -0.4725
  304MOL0     C40915   8.197  11.055   4.635  0.5940 -0.1305  0.3760
  304MOL0     C40916   8.216  10.999   4.774 -1.0775  0.1932  0.3363
  304MOL0     C40917   8.113  11.063   4.874  0.7441 -0.2855 -0.2453
  304MOL0     C40918   7.972  10.993   4.844  0.1995 -0.5272  0.3779
  304MOL0     C40919   7.964  10.859   4.910 -0.0014  0.6533  0.1907
  304MOL0     C40920   7.824  10.789   4.872 -0.4180 -0.6692  0.5618
  304MOL0     C40921   7.793  10.750   4.725  0.4835  0.2790 -0.1678
  304MOL0     N40922   7.911  10.687   4.654  0.6311 -0.1309  0.1708
  304MOL0     C40923   7.976  10.574   4.701 -0.3046 -0.4422  0.1990
  304MOL0     C40924   8.030  10.512   4.588 -0.4641  0.3257  0.6105
  304MOL0     C40925   8.145  10.414   4.587 -0.3944  0.4096  0.4362
  304MOL0     C40926   8.283  10.466   4.530 -0.1864 -0.5535 -0.9263
  304MOL0     C40927   8.403  10.428   4.617 -0.0367  0.1660 -0.1180
  304MOL0     C40928   8.417  10.490   4.754  0.6478  0.0052 -0.1669
  304MOL0     O40929   8.443  10.630   4.740 -0.1560 -0.3738 -0.3474
  304MOL0     C40930   8.482  10.698   4.850  0.0144 -0.1891 -0.9324
  304MOL0     C40931   8.511  10.832   4.839 -0.1101 -0.3860  0.5512
  304MOL0     C40932   8.560  10.909   4.950  0.0162  0.4529  0.0391
  304MOL0     C40933   8.588  11.071   4.932  0.2575  0.3454 -0.0749
  304MOL0     C40934   8.587  10.847   5.075  0.9052  0.2052  0.1400
  304MOL0     C40935   8.650  10.916   5.195  0.7767 -0.1582 -0.2240
  304MOL0     O40936   8.656  10.845   5.307  0.4262  0.4977 -0.3337
  304MOL0     C40937   8.718  10.908   5.415 -1.1708  1.4123  0.6792
  304MOL0     C40938   8.859  10.925   5.417  0.1603  0.5999  0.5573
  304MOL0     C40939   8.916  10.979   5.529 -0.0144  0.2950  0.1865
  304MOL0     C40940   8.840  11.016   5.640  0.8152 -0.5923  0.8419
  304MOL0     O40941   8.899  11.091   5.737 -0.1738 -0.0308 -0.3336
  304MOL0     C40942   8.861  11.073   5.875  1.0112 -0.0661  0.3776
  304MOL0     C40943   8.894  10.929   5.925 -0.8083  1.7393 -0.8402
  304MOL0     C40944   8.930  10.921   6.076 -0.7533 -0.5982  0.5207
  304MOL0     C40945   8.959  10.782   6.124 -0.6245 -0.1756 -1.2698
  304MOL0     C40946   9.036  10.796   6.264  0.1197 -0.4660 -0.6854
  304MOL0     C40947   9.045  10.667   6.340 -0.3483  0.2271 -0.3282
  304MOL0     C40948   9.119  10.691   6.469 -0.4721  0.4830 -0.3662
  304MOL0     C40949   9.183  10.558   6.525 -0.1645 -0.5877  1.5677
  304MOL0    Cl40950   9.063  10.426   6.534  0.5718 -0.6460 -0.7302
  304MOL0     C40951   8.695  11.018   5.620  0.4179  0.4354  0.2791
  304MOL0     C40952   8.638  10.959   5.508 -1.0326 -0.0130  0.7162
  304MOL0     O40953   8.696  11.026   5.179  0.0450  0.0295 -0.8093
  304MOL0     C40954   8.554  10.705   5.084 -0.1614  0.4162 -0.6659
  304MOL0     C40955   8.514  10.634   4.971 -0.0504  0.5176 -0.1115
  304MOL0     N40956   7.987  10.588   4.473 -0.0726  0.0108 -0.5828
  304MOL0     N40957   7.923  10.689   4.519  0.1668  0.3587 -0.0234
  304MOL0     C40958   8.589  11.119   4.406 -0.3731 -0.7702  0.2633
  304MOL0     C40959   8.680  11.096   4.302 -0.6265 -0.2725 -0.9563
  304MOL0     C40960   8.971  10.913   3.995 -0.0399  0.0587 -0.2127
  304MOL0     C40961   8.999  10.955   3.863  0.3529  0.7750 -0.1026
  304MOL0     C40962   9.101  10.895   3.788  0.4006  0.9903 -0.4738
  304MOL0     C40963   9.189  10.795   3.848  0.5823 -0.9272 -0.0711
  304MOL0     O40964   9.302  10.741   3.786 -0.4558 -0.3823 -0.0391
  304MOL0     C40965   9.297  10.707   3.649  0.5900  0.4481 -0.0718
  304MOL0     C40966   9.218  10.584   3.624  0.0889  0.3587  0.2543
  304MOL0     C40967   9.177  10.580   3.476 -0.5531  0.6181 -0.7266
  304MOL0     C40968   9.057  10.488   3.443  0.3338 -1.3617 -0.1419
  304MOL0     C40969   9.062  10.416   3.313  0.2093 -0.4005  0.5238
  304MOL0     C40970   9.070  10.360   3.205 -0.3949 -0.1602 -0.1247
  304MOL0     C40971   9.164  10.766   3.982  0.1554  1.2277 -1.3608
  304MOL0     C40972   9.059  10.826   4.054 -0.9212 -0.0723 -0.0118
  304MOL0     H40973   8.683  10.754   4.312  0.5045 -0.3183  1.3123
  304MOL0     H40974   8.510  10.796   4.484 -3.9841 -0.0392 -2.4434
  304MOL0     H40975   8.271  11.039   4.428 -3.0015 -2.3728 -0.5799
  304MOL0     H40976   8.278  10.894   4.520  0.6644 -0.6224 -3.5191
  304MOL0     H40977   8.203  11.164   4.643 -1.0429  0.1536 -1.4276
  304MOL0     H40978   8.103  11.020   4.591  1.0830 -1.9593  0.6945
  304MOL0     H40979   8.204  10.891   4.783 -1.3819  0.1710 -0.2905
  304MOL0     H40980   8.316  11.028   4.807  0.3406 -2.0466 -1.6400
  304MOL0     H40981   8.148  11.050   4.977  1.5668  2.1903 -0.1584
  304MOL0     H40982   8.101  11.171   4.868 -0.9082 -0.2804  1.8045
  304MOL0     H40983   7.892  11.049   4.893  0.8680 -0.4411  1.3831
  304MOL0     H40984   7.934  10.994   4.741  0.5905  2.3591  0.1808
  304MOL0     H40985   8.043  10.791   4.879  0.5615  1.2079  0.3867
  304MOL0     H40986   7.972  10.858   5.019 -2.6104  2.1445  0.4770
  304MOL0     H40987   7.810  10.694   4.925  1.2598 -2.1831 -1.5578
  304MOL0     H40988   7.748  10.861   4.905  0.5011  2.5699 -3.5260
  304MOL0     H40989   7.788  10.839   4.662  1.0619 -0.1572 -0.8456
  304MOL0     H40990   7.696  10.699   4.720 -1.0392  3.0061 -0.1805
  304MOL0     H40991   7.974  10.553   4.807 -4.0781  1.9898  0.8204
  304MOL0     H40992   8.161  10.365   4.684  2.3132  0.8526  0.2954
  304MOL0     H40993   8.105  10.338   4.519 -1.8606  2.3548 -0.9947
  304MOL0     H40994   8.292  10.572   4.503  3.8002 -0.3653  0.4690
  304MOL0     H40995   8.306  10.419   4.434  1.8552 -0.7936 -0.3604
  304MOL0     H40996   8.500  10.451   4.570 -0.0358  0.7075  0.1493
  304MOL0     H40997   8.398  10.319   4.627 -0.1592  0.0129 -1.5322
  304MOL0     H40998   8.498  10.435   4.802  2.4403  0.2436 -2.6747
  304MOL0     H40999   8.339  10.464   4.826  2.4014 -1.3680  1.3262
  304MOL0     H41000   8.483  10.883   4.748 -0.5838 -0.0898  0.8557
  304MOL0     H41001   8.543  11.106   4.839 -0.5382  1.3518  0.6711
  304MOL0     H41002   8.550  11.140   5.008  2.2455  0.2464  1.1053
  304MOL0     H41003   8.697  11.079   4.924  0.4525 -0.4335  1.3265
  304MOL0     H41004   8.909  10.904   5.323  1.2923  3.5705  0.3888
  304MOL0     H41005   9.024  10.987   5.543  0.0218 -2.3494  2.2944
  304MOL0     H41006   8.908  11.153   5.932  0.4028  1.7737 -1.5654
  304MOL0     H41007   8.755  11.095   5.889  1.4128  0.8662  2.2902
  304MOL0     H41008   8.813  10.860   5.900  0.9738 -0.6180 -0.4452
  304MOL0     H41009   8.982  10.880   5.883 -0.2745 -0.7499  2.7182
  304MOL0     H41010   8.851  10.968   6.135 -0.0301 -1.1017  1.9195
  304MOL0     H41011   9.017  10.987   6.077 -1.1834  0.3140 -3.2837
  304MOL0     H41012   8.871  10.716   6.127  0.6113 -1.8757 -1.0755
  304MOL0     H41013   9.021  10.722   6.058 -1.5480 -1.1605 -1.2783
  304MOL0     H41014   8.991  10.877   6.322  0.8724  1.5641 -2.7618
  304MOL0     H41015   9.138  10.832   6.245  1.0826 -3.5497 -1.9908
  304MOL0     H41016   8.944  10.629   6.357  0.6574 -1.8164  1.5053
  304MOL0     H41017   9.101  10.605   6.269 -1.4720  0.5132 -1.4933
  304MOL0     H41018   9.043  10.724   6.541  0.6633 -1.0440  1.6515
  304MOL0     H41019   9.192  10.771   6.458  0.9111 -0.8733 -1.4075
  304MOL0     H41020   9.234  10.569   6.621  1.5463  0.8667  0.5348
  304MOL0     H41021   9.254  10.511   6.457 -3.9358 -1.9706 -1.7843
  304MOL0     H41022   8.627  11.071   5.686 -2.1875 -1.0989 -1.0194
  304MOL0     H41023   8.532  10.955   5.489 -0.8611  0.8148 -0.5576
  304MOL0     H41024   8.579  10.644   5.170 -1.6528 -1.1291 -1.2759
  304MOL0     H41025   8.507  10.526   4.973  0.9348  0.3886 -1.5514
  304MOL0     H41026   8.567  11.215   4.452  0.8524 -1.1386  1.7090
  304MOL0     H41027   8.741  11.179   4.268  1.9370 -1.7891 -0.3489
  304MOL0     H41028   8.958  11.034   3.801 -1.3241 -1.5790 -2.2472
  304MOL0     H41029   9.116  10.914   3.682  2.2362 -3.1289 -1.1351
  304MOL0     H41030   9.260  10.786   3.582 -1.5187  0.0995  0.6106
  304MOL0     H41031   9.401  10.706   3.617 -0.1041 -0.9843 -2.5078
  304MOL0     H41032   9.140  10.564   3.698  1.2889 -0.5787  1.3167
  304MOL0     H41033   9.286  10.498   3.627  1.2095  1.2377  0.5740
  304MOL0     H41034   9.272  10.563   3.425 -0.3382  0.9878 -0.4560
  304MOL0     H41035   9.142  10.682   3.457 -2.9417  0.1393  0.7146
  304MOL0     H41036   8.961  10.537   3.426  1.7108  0.8534 -2.0165
  304MOL0     H41037   9.047  10.413   3.523 -1.9580 -0.5617  0.3952
  304MOL0     H41038   9.084  10.309   3.112 -3.7094  0.0681 -0.8910
  304MOL0     H41039   9.232  10.691   4.020  1.4971  2.3405 -1.5054
  304MOL0     H41040   9.038  10.803   4.157  3.6534  2.1491  1.6908
  305MOL0     O41041   5.566   2.614   8.621 -0.5204 -0.6315 -0.1933
  305MOL0     C41042   5.588   2.689   8.715  0.5199 -0.2381 -0.3672
  305MOL0     O41043   5.612   2.819   8.716 -0.0643  0.0377  0.4274
  305MOL0     C41044   5.578   2.906   8.615 -0.0646  0.0702  0.1263
  305MOL0     C41045   5.607   3.049   8.632  0.3132  0.3155 -0.7117
  305MOL0     C41046   5.570   3.147   8.544  0.6025 -0.1569 -0.1079
  305MOL0     C41047   5.496   3.109   8.425 -0.6133 -0.5265 -0.0203
  305MOL0     O41048   5.461   3.210   8.348  0.3260  0.1379  0.8126
  305MOL0     C41049   5.360   3.300   8.397 -0.9006 -0.1053  0.3221
  305MOL0     C41050   5.312   3.400   8.287 -0.9872 -0.2136  0.9083
  305MOL0     C41051   5.414   3.520   8.281  0.7805 -0.2970  0.7238
  305MOL0     C41052   5.399   3.636   8.380  0.0305 -0.1845  0.5964
  305MOL0     C41053   5.496   3.752   8.341  0.3516  0.9179  0.6177
  305MOL0     C41054   5.475   3.868   8.432 -0.2290 -1.4425 -0.4273
  305MOL0     C41055   5.583   3.984   8.410 -0.0230  0.3536  0.3112
  305MOL0     C41056   5.553   4.105   8.496  0.2501  1.2673  0.7585
  305MOL0     N41057   5.437   4.187   8.471  0.0509  0.2542 -0.4633
  305MOL0     C41058   5.302   4.169   8.502  0.0689  1.2342  0.5256
  305MOL0     C41059   5.241   4.285   8.473 -0.6819  0.1483 -0.4669
  305MOL0     C41060   5.101   4.320   8.512 -0.1006 -0.1728 -0.6326
  305MOL0     C41061   5.038   4.242   8.627  0.0101 -0.1876 -1.2424
  305MOL0     C41062   4.893   4.288   8.643 -0.6012 -1.2069  0.1573
  305MOL0     C41063   4.829   4.234   8.770 -0.0176 -0.6843  0.1344
  305MOL0     O41064   4.707   4.306   8.775  0.5718  0.7415  0.3808
  305MOL0     C41065   4.613   4.276   8.876  0.1674 -0.2287 -0.3091
  305MOL0     C41066   4.646   4.214   8.994 -0.1064  0.0248 -1.0703
  305MOL0     C41067   4.554   4.202   9.099  0.2133  0.2964 -0.6912
  305MOL0     C41068   4.603   4.127   9.221 -0.2125 -0.5142  0.3809
  305MOL0     C41069   4.426   4.248   9.089  0.1522  0.8487  0.2410
  305MOL0     C41070   4.330   4.250   9.199  0.0125  0.7753 -0.8589
  305MOL0     O41071   4.197   4.255   9.163  0.1306 -0.3757 -0.4449
  305MOL0     C41072   4.108   4.322   9.240  0.5266 -0.2101  0.2099
  305MOL0     C41073   3.974   4.266   9.241  0.6567 -0.1524 -0.1320
  305MOL0     C41074   3.869   4.344   9.295  0.6727  0.0034 -0.9920
  305MOL0     C41075   3.901   4.464   9.360 -0.1170 -0.2566  0.1910
  305MOL0     O41076   3.798   4.523   9.413  0.0068  0.4039 -0.1247
  305MOL0     C41077   3.817   4.589   9.542 -0.7018 -0.0614  0.0286
  305MOL0     C41078   3.708   4.578   9.645 -0.6762 -0.1611  0.9889
  305MOL0     C41079   3.753   4.632   9.781 -0.2626  0.5964  0.6644
  305MOL0     C41080   3.644   4.668   9.883 -0.3309  0.8089  1.1666
  305MOL0     C41081   3.697   4.720  10.019 -0.6946  0.0473  0.1357
  305MOL0     C41082   3.581   4.752  10.111 -0.2692 -0.4306 -0.1575
  305MOL0     C41083   3.633   4.821  10.243  1.2873 -0.2347  0.5262
  305MOL0     C41084   3.526   4.897  10.325  0.3222 -0.1683  0.0803
  305MOL0    Cl41085   3.456   5.032  10.240 -0.2435  0.3059  0.3237
  305MOL0     C41086   4.027   4.523   9.364  0.5093  0.5012 -0.0412
  305MOL0     C41087   4.124   4.449   9.298 -1.3298 -0.0057  0.0971
  305MOL0     O41088   4.372   4.290   9.306  0.3081  0.1964  0.3647
  305MOL0     C41089   4.382   4.309   8.962  1.1422  0.2960 -0.5243
  305MOL0     C41090   4.481   4.323   8.859 -0.0946 -0.8940 -0.3663
  305MOL0     N41091   5.333   4.370   8.417  0.1291 -0.4040 -0.5437
  305MOL0     N41092   5.445   4.312   8.408  0.4814  0.1281 -1.0423
  305MOL0     C41093   5.471   2.970   8.398  0.9377 -0.1461  0.3676
  305MOL0     C41094   5.515   2.871   8.495 -0.4478 -0.3445  0.3545
  305MOL0     C41095   5.569   2.621   8.850  1.1398  0.8221  0.3533
  305MOL0     C41096   5.540   2.480   8.858  0.0419 -0.7968 -0.0827
  305MOL0     C41097   5.499   2.415   8.969 -0.9666 -1.1528  0.1854
  305MOL0     C41098   5.506   2.484   9.088  0.0617  0.1703  0.3251
  305MOL0     O41099   5.487   2.421   9.208  0.8078  0.2460  0.6889
  305MOL0     C41100   5.420   2.487   9.318 -0.0843  0.0458 -0.0376
  305MOL0     C41101   5.400   2.388   9.428  0.4833  0.5116 -0.3728
  305MOL0     C41102   5.533   2.333   9.479  0.2524 -0.0926 -0.0742
  305MOL0     C41103   5.633   2.437   9.530  0.6206  1.6412  0.3819
  305MOL0     C41104   5.723   2.375   9.623 -0.6337  0.2868 -0.0648
  305MOL0     C41105   5.809   2.330   9.701 -0.3011 -0.4910 -0.4010
  305MOL0     C41106   5.532   2.622   9.092  0.6598 -0.0111 -0.2704
  305MOL0     C41107   5.550   2.692   8.971 -0.3094 -1.3236  0.5304
  305MOL0     H41108   5.666   3.056   8.723  0.4508 -1.2892 -0.6486
  305MOL0     H41109   5.587   3.249   8.577 -2.7911  0.1411  1.1741
  305MOL0     H41110   5.272   3.241   8.424 -0.4397 -1.3556 -0.7607
  305MOL0     H41111   5.387   3.341   8.494 -3.0917 -1.1501  1.4256
  305MOL0     H41112   5.317   3.347   8.192 -1.5278  1.2027  0.0578
  305MOL0     H41113   5.207   3.428   8.301 -1.0390 -0.0445  0.1994
  305MOL0     H41114   5.514   3.478   8.294  1.0155 -0.2627 -0.8185
  305MOL0     H41115   5.422   3.565   8.182  2.8166 -2.3879 -0.1446
  305MOL0     H41116   5.291   3.654   8.371 -0.2108 -2.0091 -0.8549
  305MOL0     H41117   5.428   3.610   8.482  2.4380  1.0514  0.3088
  305MOL0     H41118   5.600   3.722   8.350  0.1633  0.2955  0.8103
  305MOL0     H41119   5.479   3.791   8.240 -1.3160  1.5035  1.0946
  305MOL0     H41120   5.371   3.896   8.412 -0.0598  0.4626  1.1538
  305MOL0     H41121   5.483   3.843   8.538  0.8211 -2.7834 -0.7912
  305MOL0     H41122   5.683   3.949   8.437  0.4492  2.0125  0.8233
  305MOL0     H41123   5.577   4.033   8.312 -1.2806  0.1343  0.2712
  305MOL0     H41124   5.640   4.170   8.484  0.3974  0.9914  0.3268
  305MOL0     H41125   5.543   4.068   8.599 -3.6900 -1.3978 -0.3397
  305MOL0     H41126   5.257   4.078   8.542 -0.1420  0.4571 -1.3546
  305MOL0     H41127   5.107   4.423   8.550 -0.1940  0.0220 -1.1372
  305MOL0     H41128   5.034   4.312   8.426 -1.3006  1.4294  0.0904
  305MOL0     H41129   5.095   4.266   8.718  2.6324  1.6172 -3.2107
  305MOL0     H41130   5.026   4.137   8.598  0.3600  0.1526 -2.6643
  305MOL0     H41131   4.832   4.252   8.560 -0.7811 -0.9228  0.1645
  305MOL0     H41132   4.882   4.397   8.643 -3.4084 -1.3990  1.1478
  305MOL0     H41133   4.883   4.260   8.861 -2.3501  1.4619  1.0085
  305MOL0     H41134   4.820   4.125   8.776  0.9355 -0.7811 -0.0076
  305MOL0     H41135   4.740   4.168   9.024 -1.0202  0.3720  3.0587
  305MOL0     H41136   4.534   4.042   9.229  0.5720 -1.3375 -1.1645
  305MOL0     H41137   4.704   4.088   9.209  0.4244  0.7810  1.2456
  305MOL0     H41138   4.607   4.199   9.304  1.1862  0.5049 -0.5315
  305MOL0     H41139   3.952   4.166   9.205  2.5939 -2.5197  4.3965
  305MOL0     H41140   3.765   4.312   9.296  0.9798 -1.0596  0.3092
  305MOL0     H41141   3.909   4.551   9.586 -0.1675 -0.4499 -1.3841
  305MOL0     H41142   3.839   4.693   9.513  0.2674  0.0003  0.9374
  305MOL0     H41143   3.617   4.626   9.608 -0.0068  0.2283 -0.2460
  305MOL0     H41144   3.688   4.472   9.660  2.0876 -0.9631 -0.2963
  305MOL0     H41145   3.809   4.725   9.767 -0.3304  1.2114  3.8764
  305MOL0     H41146   3.815   4.551   9.821  0.6483  0.4711 -0.9019
  305MOL0     H41147   3.584   4.749   9.840  1.4051  0.2094 -2.7579
  305MOL0     H41148   3.578   4.582   9.895 -1.6897  1.3247 -1.8075
  305MOL0     H41149   3.755   4.813  10.015 -0.6950  0.5145  4.8069
  305MOL0     H41150   3.763   4.647  10.067 -1.1045 -0.9874 -0.8514
  305MOL0     H41151   3.527   4.827  10.053  3.7221  2.9717  0.0692
  305MOL0     H41152   3.515   4.668  10.132  0.7853 -1.6867 -1.5880
  305MOL0     H41153   3.722   4.878  10.216  0.1114  1.1461 -0.6456
  305MOL0     H41154   3.658   4.742  10.314 -0.3250 -2.4134 -1.1746
  305MOL0     H41155   3.568   4.926  10.422 -0.1502 -1.0644  0.5680
  305MOL0     H41156   3.447   4.826  10.349  0.9286 -0.3031  1.7792
  305MOL0     H41157   4.062   4.610   9.421  2.4377 -0.8093  0.8931
  305MOL0     H41158   4.219   4.501   9.290 -2.8647  3.6543  2.5469
  305MOL0     H41159   4.280   4.338   8.937  0.0993 -1.0339  1.8380
  305MOL0     H41160   4.448   4.366   8.765 -6.0250 -4.3542 -0.3902
  305MOL0     H41161   5.409   2.944   8.313 -1.6059  1.2682  1.6536
  305MOL0     H41162   5.491   2.767   8.475  0.0029 -0.8068  2.0751
  305MOL0     H41163   5.550   2.413   8.774 -2.9674  0.4613 -1.5880
  305MOL0     H41164   5.477   2.308   8.972  0.1625 -1.4221 -0.4839
  305MOL0     H41165   5.476   2.573   9.355  0.1094  0.8369 -2.0273
  305MOL0     H41166   5.327   2.531   9.279  0.4018  0.1314 -1.1441
  305MOL0     H41167   5.328   2.314   9.395  1.0415 -0.1721 -0.0774
  305MOL0     H41168   5.344   2.437   9.508  1.0261  3.5854 -1.7092
  305MOL0     H41169   5.577   2.266   9.404 -4.7230 -4.1518  0.0935
  305MOL0     H41170   5.508   2.258   9.555 -0.7435 -2.8216 -2.8823
  305MOL0     H41171   5.591   2.527   9.575  2.2821  2.2762  0.7322
  305MOL0     H41172   5.689   2.479   9.447  2.2019 -0.2162  0.4289
  305MOL0     H41173   5.875   2.295   9.777 -1.0204 -0.4169  0.2771
  305MOL0     H41174   5.527   2.678   9.185  2.2188  0.5894 -0.5304
  305MOL0     H41175   5.563   2.799   8.966  0.7418 -1.4827 -0.9901
  306MOL0     O41176   7.495   3.804   6.323 -0.3603 -0.2438  0.2914
  306MOL0     C41177   7.445   3.693   6.333 -0.3944 -0.4246  0.4463
  306MOL0     O41178   7.313   3.670   6.309 -0.8875 -0.5194 -0.2288
  306MOL0     C41179   7.242   3.782   6.254  0.2669 -0.4717 -0.9358
  306MOL0     C41180   7.253   3.818   6.123  0.2181  0.0319 -0.3422
  306MOL0     C41181   7.192   3.934   6.077  0.3713  1.5228 -0.1012
  306MOL0     C41182   7.105   4.006   6.157  0.2811 -0.2559 -0.2245
  306MOL0     O41183   7.035   4.109   6.097  0.0711 -0.4782 -0.4205
  306MOL0     C41184   6.952   4.181   6.187 -0.2179  0.0941 -0.3101
  306MOL0     C41185   6.893   4.311   6.127 -0.4051 -0.6077  0.6711
  306MOL0     C41186   6.944   4.359   5.994 -0.2524 -0.3119 -0.3761
  306MOL0     C41187   6.898   4.496   5.936  0.9702  0.7633 -1.0289
  306MOL0     C41188   6.950   4.524   5.793  0.0716  0.2555  0.4824
  306MOL0     C41189   6.908   4.659   5.725 -0.2808 -0.0354  0.0451
  306MOL0     C41190   7.019   4.753   5.734 -0.7597 -1.0616  0.5998
  306MOL0     C41191   6.987   4.891   5.666  0.2968 -0.2055 -0.5418
  306MOL0     N41192   7.102   4.980   5.648 -0.5420  0.7354 -1.0498
  306MOL0     C41193   7.167   5.042   5.749  0.3144 -0.2083  1.0686
  306MOL0     C41194   7.256   5.127   5.703 -0.2326 -0.8554  0.4445
  306MOL0     C41195   7.332   5.224   5.774 -1.1564 -0.1002 -0.9525
  306MOL0     C41196   7.417   5.173   5.890  0.2315 -0.8194 -0.0196
  306MOL0     C41197   7.460   5.285   6.000 -0.9585  1.3342 -0.1506
  306MOL0     C41198   7.532   5.215   6.117 -0.2592  0.1670  0.5067
  306MOL0     O41199   7.648   5.134   6.063 -0.1155  0.3883  0.3345
  306MOL0     C41200   7.764   5.199   6.043  0.5024  0.1889 -0.7603
  306MOL0     C41201   7.799   5.219   5.912  0.4787  0.2573 -0.0130
  306MOL0     C41202   7.914   5.292   5.878  0.1590 -0.2124 -0.2534
  306MOL0     C41203   7.938   5.313   5.734  0.9837 -0.0138  0.0249
  306MOL0     C41204   7.996   5.361   5.975  0.9776 -0.2222 -0.5074
  306MOL0     C41205   8.114   5.459   5.962  0.8153  0.4250  0.6276
  306MOL0     O41206   8.202   5.484   6.068  0.9283  0.0588  0.4465
  306MOL0     C41207   8.305   5.577   6.072  0.0094 -0.6181  0.7198
  306MOL0     C41208   8.304   5.694   6.000  0.0365  0.1497 -0.5239
  306MOL0     C41209   8.412   5.789   6.019  1.0713  0.2170 -0.9772
  306MOL0     C41210   8.522   5.749   6.084  0.3927  0.5684 -0.1372
  306MOL0     O41211   8.631   5.833   6.065  0.2641 -0.2674 -0.0067
  306MOL0     C41212   8.772   5.804   6.095  0.9480  0.4946  0.3057
  306MOL0     C41213   8.864   5.910   6.030  0.4088  0.6304  0.3366
  306MOL0     C41214   8.900   5.885   5.880 -0.1506  0.1160 -0.1491
  306MOL0     C41215   8.775   5.888   5.796  0.0522  0.3248  0.0897
  306MOL0     C41216   8.691   6.020   5.801  0.2278 -0.6453 -0.8188
  306MOL0     C41217   8.566   6.013   5.714  0.1493  0.4041 -0.5668
  306MOL0     C41218   8.449   6.105   5.738 -0.0551  0.4824  0.5451
  306MOL0     C41219   8.325   6.062   5.653 -0.0657  0.2481 -0.2372
  306MOL0    Cl41220   8.185   6.161   5.725 -0.1287 -0.3490  0.1251
  306MOL0     C41221   8.528   5.624   6.144  0.0986  0.9611 -0.0271
  306MOL0     C41222   8.428   5.535   6.138  1.2444 -0.8097  0.2155
  306MOL0     O41223   8.116   5.518   5.855  0.3750 -0.0168  0.4490
  306MOL0     C41224   7.964   5.327   6.106 -0.1088  0.9626 -0.2556
  306MOL0     C41225   7.844   5.261   6.146  0.2606  0.7371  0.1609
  306MOL0     N41226   7.258   5.109   5.570 -0.3268 -0.3336  1.0105
  306MOL0     N41227   7.173   5.013   5.533 -0.2881 -0.4829 -1.1969
  306MOL0     C41228   7.092   3.971   6.299 -0.0805  0.3392  0.7329
  306MOL0     C41229   7.158   3.860   6.336  0.7803 -1.0295 -0.6419
  306MOL0     C41230   7.541   3.587   6.373 -0.2580  0.4051 -0.3438
  306MOL0     C41231   7.682   3.607   6.373  0.4058 -0.4763 -0.7777
  306MOL0     C41232   7.769   3.505   6.415 -0.5352  0.7561  0.9535
  306MOL0     C41233   7.715   3.374   6.427 -0.9736 -0.3730 -1.2888
  306MOL0     O41234   7.790   3.261   6.461  0.4202 -0.1794 -0.0826
  306MOL0     C41235   7.937   3.273   6.466  0.6204 -0.2855 -0.1406
  306MOL0     C41236   8.012   3.135   6.459  0.9196 -0.9652 -0.1996
  306MOL0     C41237   8.163   3.150   6.485  0.2410  0.6239  0.9216
  306MOL0     C41238   8.243   3.016   6.483  0.0405  0.0777  1.0080
  306MOL0     C41239   8.201   2.944   6.359  0.3371  0.2396  1.5335
  306MOL0     C41240   8.147   2.878   6.268 -0.4352 -0.3151  0.2586
  306MOL0     C41241   7.575   3.354   6.436 -0.1357 -0.3060 -0.3791
  306MOL0     C41242   7.488   3.461   6.404  0.2236  0.2272  0.5596
  306MOL0     H41243   7.308   3.757   6.052  0.2430 -1.6496  1.0809
  306MOL0     H41244   7.207   3.956   5.972  1.3396  0.5869 -0.1798
  306MOL0     H41245   6.863   4.127   6.220 -0.3141  0.3094 -0.2159
  306MOL0     H41246   7.011   4.207   6.276  0.3300  2.2212 -1.2257
  306MOL0     H41247   6.785   4.304   6.117 -0.5793 -1.5611  2.6509
  306MOL0     H41248   6.920   4.388   6.201 -1.0160 -1.5429  1.9013
  306MOL0     H41249   7.053   4.353   5.999 -0.4029 -4.3229  2.0249
  306MOL0     H41250   6.929   4.280   5.919 -1.4665 -1.1535  0.7102
  306MOL0     H41251   6.789   4.491   5.933  0.8783  1.4753  0.3145
  306MOL0     H41252   6.919   4.571   6.014 -0.3852 -0.1765  0.2934
  306MOL0     H41253   7.057   4.522   5.812 -0.3710 -1.1706  3.4527
  306MOL0     H41254   6.937   4.441   5.724 -1.5052 -1.1070  2.3153
  306MOL0     H41255   6.878   4.646   5.620 -1.9397  3.9205 -0.1434
  306MOL0     H41256   6.817   4.689   5.778 -0.7930 -3.6237  1.4811
  306MOL0     H41257   7.048   4.764   5.839  1.0068  2.2291 -0.1013
  306MOL0     H41258   7.105   4.715   5.678 -1.1781  0.7006 -1.3285
  306MOL0     H41259   6.908   4.943   5.719 -0.4980 -2.0307  0.1435
  306MOL0     H41260   6.944   4.863   5.569  1.3110  0.9594 -1.3706
  306MOL0     H41261   7.119   5.040   5.847 -0.4600  2.4683  0.8434
  306MOL0     H41262   7.407   5.276   5.714  2.2736 -3.5262 -0.0905
  306MOL0     H41263   7.259   5.295   5.812  0.5572  2.2071 -1.7641
  306MOL0     H41264   7.502   5.128   5.836  0.0562  1.6644 -2.5741
  306MOL0     H41265   7.353   5.101   5.941 -0.7973  0.5287  0.6496
  306MOL0     H41266   7.365   5.331   6.027 -0.5306  3.0545 -1.4064
  306MOL0     H41267   7.526   5.357   5.951 -1.5053  1.1447 -1.1945
  306MOL0     H41268   7.456   5.160   6.174  0.0666 -2.1330 -1.1283
  306MOL0     H41269   7.582   5.295   6.174  1.3514  0.4469 -1.2159
  306MOL0     H41270   7.724   5.178   5.844 -2.6096  0.3815  3.0499
  306MOL0     H41271   7.909   5.414   5.702  1.4672  0.4098  0.8816
  306MOL0     H41272   8.045   5.308   5.714  0.9980 -1.1114  0.3549
  306MOL0     H41273   7.898   5.233   5.672  3.2184  1.4057 -3.5696
  306MOL0     H41274   8.217   5.709   5.938  1.5720  0.5587 -2.6961
  306MOL0     H41275   8.408   5.891   5.981  2.7011  0.8860  0.4824
  306MOL0     H41276   8.795   5.787   6.200 -0.4613 -1.5875  0.3491
  306MOL0     H41277   8.803   5.703   6.063  1.2520  0.6171  0.2085
  306MOL0     H41278   8.819   6.009   6.044  1.2077  0.8846  1.2414
  306MOL0     H41279   8.961   5.909   6.081 -0.3335  0.3791  1.7762
  306MOL0     H41280   8.954   5.792   5.858 -0.0200  0.1849 -0.1186
  306MOL0     H41281   8.970   5.961   5.845 -0.3511  0.4261  0.1216
  306MOL0     H41282   8.807   5.884   5.691 -1.4021  0.2601 -0.3722
  306MOL0     H41283   8.706   5.804   5.807  2.7095 -2.3502 -1.9815
  306MOL0     H41284   8.749   6.109   5.777  2.4770 -1.1150  2.3802
  306MOL0     H41285   8.650   6.036   5.901 -1.5510 -0.9309 -1.4660
  306MOL0     H41286   8.604   6.042   5.616 -0.0894  3.2876  0.1172
  306MOL0     H41287   8.519   5.916   5.697 -2.2378  1.4817 -0.5605
  306MOL0     H41288   8.472   6.205   5.701  3.8532 -1.6558 -3.7395
  306MOL0     H41289   8.422   6.090   5.843  0.5434 -4.9649  0.2037
  306MOL0     H41290   8.311   5.958   5.682  3.4628  0.4414  2.9498
  306MOL0     H41291   8.344   6.089   5.549 -0.3719  1.0047 -0.1028
  306MOL0     H41292   8.621   5.591   6.188  0.8090  0.8579 -1.5673
  306MOL0     H41293   8.424   5.430   6.166 -0.3731 -1.5273 -2.3988
  306MOL0     H41294   8.022   5.367   6.189 -1.2598 -2.7303  2.6049
  306MOL0     H41295   7.816   5.241   6.249 -2.1022 -1.6331 -0.8182
  306MOL0     H41296   7.021   4.009   6.371  0.2415 -0.6751  1.6085
  306MOL0     H41297   7.155   3.841   6.443 -1.4114  0.7367 -0.3212
  306MOL0     H41298   7.720   3.707   6.354  2.0345 -0.7680  0.7141
  306MOL0     H41299   7.874   3.528   6.425  0.2537 -2.7582  2.2296
  306MOL0     H41300   7.980   3.338   6.388  1.2701 -0.1909  0.2931
  306MOL0     H41301   7.951   3.333   6.556 -1.0958  1.6054 -1.0158
  306MOL0     H41302   7.996   3.102   6.356  0.3126 -3.3041  0.5991
  306MOL0     H41303   7.962   3.063   6.524 -3.4112  2.1855  0.4534
  306MOL0     H41304   8.174   3.181   6.590 -3.6314 -1.1216  2.0466
  306MOL0     H41305   8.208   3.225   6.421 -2.7519  1.6425 -0.1524
  306MOL0     H41306   8.227   2.955   6.573 -3.0585 -0.2843  0.3095
  306MOL0     H41307   8.349   3.042   6.474 -0.2980  2.2664  2.6021
  306MOL0     H41308   8.100   2.813   6.197  0.9774  0.7258 -1.7252
  306MOL0     H41309   7.536   3.258   6.467 -0.6216 -0.0677 -0.2449
  306MOL0     H41310   7.382   3.435   6.403  0.0773  0.8130 -1.2080
  307MOL0     O41311   1.054   0.344   4.564 -0.5439 -0.1284 -0.2726
  307MOL0     C41312   1.124   0.311   4.656 -0.5078  0.2287 -0.8942
  307MOL0     O41313   1.087   0.230   4.763  0.4003 -0.1969  0.2644
  307MOL0     C41314   0.962   0.191   4.799 -0.6087  0.0772  0.5162
  307MOL0     C41315   0.839   0.239   4.756  0.3241  0.6681 -0.3066
  307MOL0     C41316   0.718   0.177   4.785  0.5492 -0.5694  0.1908
  307MOL0     C41317   0.716   0.054   4.852  0.1375  0.2105 -1.1488
  307MOL0     O41318   0.596   0.003   4.889 -0.9216 -0.6420 -0.2002
  307MOL0     C41319   0.593  -0.123   4.954 -0.4247  0.2167  0.2557
  307MOL0     C41320   0.445  -0.147   5.000  0.0447  0.5846  0.2459
  307MOL0     C41321   0.405  -0.291   5.036 -0.4356 -0.4723 -0.5399
  307MOL0     C41322   0.256  -0.306   5.061  0.3501  0.8096 -0.4075
  307MOL0     C41323   0.210  -0.436   5.128 -0.1295 -0.3322  1.2508
  307MOL0     C41324   0.061  -0.437   5.162  0.2825  0.2267  0.0671
  307MOL0     C41325   0.021  -0.563   5.243 -0.0970  0.4598 -0.4899
  307MOL0     C41326  -0.133  -0.585   5.251  1.4780  0.6204 -0.8588
  307MOL0     N41327  -0.206  -0.468   5.306  1.4021 -0.6249 -0.9662
  307MOL0     C41328  -0.228  -0.442   5.442  0.2684 -0.6167 -0.4218
  307MOL0     C41329  -0.315  -0.339   5.444  0.3183  0.3055 -0.1242
  307MOL0     C41330  -0.376  -0.284   5.565  0.0178  0.0797 -0.5356
  307MOL0     C41331  -0.518  -0.330   5.579 -0.1063 -0.6166 -0.9850
  307MOL0     C41332  -0.568  -0.283   5.716  0.8769  0.3961  0.8490
  307MOL0     C41333  -0.698  -0.372   5.759 -0.1347  0.0877 -0.0696
  307MOL0     O41334  -0.767  -0.310   5.871  0.5683  0.1826  0.0596
  307MOL0     C41335  -0.852  -0.200   5.851 -0.1215  0.6862  0.6368
  307MOL0     C41336  -0.879  -0.129   5.730  0.8056 -0.6187  0.0561
  307MOL0     C41337  -0.949  -0.003   5.743 -0.3007 -0.7819 -0.1690
  307MOL0     C41338  -0.978   0.070   5.612 -0.3047 -0.0928 -0.6905
  307MOL0     C41339  -0.996   0.043   5.875  1.1239  0.1567  0.4479
  307MOL0     C41340  -1.061   0.175   5.889  0.7529 -0.2707  0.1279
  307MOL0     O41341  -1.180   0.168   5.958 -0.7125 -0.7183  0.9774
  307MOL0     C41342  -1.242   0.288   5.999 -0.3214  0.7766  0.7186
  307MOL0     C41343  -1.256   0.323   6.138 -0.4090  0.4384 -0.2991
  307MOL0     C41344  -1.306   0.440   6.175  0.0074  0.1328  0.0034
  307MOL0     C41345  -1.378   0.515   6.078 -0.1206 -0.6148 -1.0387
  307MOL0     O41346  -1.440   0.644   6.097  0.0854 -1.4279 -0.1398
  307MOL0     C41347  -1.397   0.725   6.198  0.1455  0.3161 -0.3089
  307MOL0     C41348  -1.470   0.851   6.202 -0.1715 -0.0459  1.1030
  307MOL0     C41349  -1.606   0.820   6.258 -0.7227 -0.8602  0.2231
  307MOL0     C41350  -1.598   0.785   6.414  1.5068 -0.3716  0.0946
  307MOL0     C41351  -1.705   0.687   6.447  0.2154  0.4668 -0.6913
  307MOL0     C41352  -1.715   0.645   6.599 -0.1046 -0.2912  0.5216
  307MOL0     C41353  -1.681   0.759   6.694 -0.2129  0.1485  0.0599
  307MOL0     C41354  -1.689   0.690   6.836  0.9213  0.3129 -1.1712
  307MOL0    Cl41355  -1.616   0.533   6.865  0.0695 -0.1206 -0.2861
  307MOL0     C41356  -1.393   0.465   5.946 -0.4315  0.7475 -0.0877
  307MOL0     C41357  -1.315   0.357   5.909  0.0583 -0.3632  0.2322
  307MOL0     O41358  -1.015   0.271   5.821 -0.2329  0.8106  0.1903
  307MOL0     C41359  -0.991  -0.044   5.979 -0.0803 -0.4023  0.4666
  307MOL0     C41360  -0.916  -0.164   5.965  0.7808 -0.5748 -0.7105
  307MOL0     N41361  -0.320  -0.290   5.322 -0.7402 -0.8022 -0.3227
  307MOL0     N41362  -0.251  -0.357   5.242 -0.4692  0.3895  0.3783
  307MOL0     C41363   0.836  -0.002   4.897 -0.2435 -0.3862  0.2232
  307MOL0     C41364   0.959   0.067   4.867  0.2955 -0.4150 -0.4993
  307MOL0     C41365   1.274   0.344   4.649 -0.3786 -1.6027  0.4230
  307MOL0     C41366   1.326   0.405   4.534  0.2029 -0.1519 -0.4437
  307MOL0     C41367   1.455   0.448   4.522 -1.1927 -0.3396 -0.2985
  307MOL0     C41368   1.546   0.431   4.630 -0.2691  0.7303  0.5782
  307MOL0     O41369   1.678   0.455   4.635  0.1681  0.5377  0.0228
  307MOL0     C41370   1.742   0.530   4.527  0.6607  0.8623 -0.4775
  307MOL0     C41371   1.873   0.594   4.586 -0.1951  0.1863 -0.7469
  307MOL0     C41372   2.001   0.505   4.557  0.5712  0.5683 -0.1602
  307MOL0     C41373   2.122   0.584   4.598  0.2748  0.1785  0.1448
  307MOL0     C41374   2.150   0.629   4.739  0.2981  0.2862  0.1613
  307MOL0     C41375   2.173   0.656   4.854  0.4180 -0.9083 -0.4997
  307MOL0     C41376   1.498   0.360   4.735  0.5409 -0.9845  0.3282
  307MOL0     C41377   1.369   0.308   4.744  0.3684  0.0818 -0.7236
  307MOL0     H41378   0.838   0.338   4.713  1.4073 -0.0006 -1.9938
  307MOL0     H41379   0.627   0.224   4.750  1.8715  1.1632 -1.0771
  307MOL0     H41380   0.630  -0.196   4.881 -0.2742 -0.2568  0.7919
  307MOL0     H41381   0.643  -0.120   5.051 -0.3247  2.0104  0.1703
  307MOL0     H41382   0.420  -0.081   5.083 -0.4623 -0.1488  0.6936
  307MOL0     H41383   0.380  -0.112   4.920 -0.2196 -1.0042 -0.2752
  307MOL0     H41384   0.444  -0.353   4.955 -2.4371 -2.6344  0.0399
  307MOL0     H41385   0.459  -0.311   5.129  0.1301  1.6761 -0.3466
  307MOL0     H41386   0.233  -0.214   5.116  1.1848  2.1504 -2.2003
  307MOL0     H41387   0.198  -0.292   4.970  1.2455  2.6772 -0.7380
  307MOL0     H41388   0.233  -0.531   5.078 -0.0749  0.5167 -0.4257
  307MOL0     H41389   0.266  -0.449   5.221  3.5247  0.9837 -0.5917
  307MOL0     H41390   0.040  -0.343   5.215  4.1218  2.7677 -2.3478
  307MOL0     H41391   0.000  -0.437   5.071  2.3959 -4.7807 -1.7172
  307MOL0     H41392   0.069  -0.644   5.188 -1.8396 -0.8598 -0.1580
  307MOL0     H41393   0.081  -0.562   5.334 -0.1664 -0.0554 -0.4338
  307MOL0     H41394  -0.157  -0.671   5.314 -1.4017 -1.6279 -4.5537
  307MOL0     H41395  -0.168  -0.616   5.152  1.0108  0.2421 -0.5831
  307MOL0     H41396  -0.204  -0.505   5.527 -2.2918 -0.9343  0.1587
  307MOL0     H41397  -0.321  -0.314   5.655  0.9609 -0.3252 -1.2366
  307MOL0     H41398  -0.374  -0.175   5.573 -4.0651  0.2246  0.6659
  307MOL0     H41399  -0.523  -0.439   5.572  4.1580 -1.2732  1.9742
  307MOL0     H41400  -0.575  -0.280   5.501  1.3336  2.1165 -0.4160
  307MOL0     H41401  -0.588  -0.176   5.719 -2.1542  0.1004 -2.3507
  307MOL0     H41402  -0.497  -0.305   5.797  0.2510 -1.6356  0.9051
  307MOL0     H41403  -0.681  -0.476   5.789 -2.6020  0.3050  2.6084
  307MOL0     H41404  -0.761  -0.366   5.670 -0.1977 -0.2048 -0.0440
  307MOL0     H41405  -0.838  -0.170   5.638  2.5510  2.7312 -0.8286
  307MOL0     H41406  -0.886   0.110   5.569 -0.2858 -0.7479 -1.2634
  307MOL0     H41407  -1.010  -0.006   5.541 -2.9942  0.3129 -0.0182
  307MOL0     H41408  -1.052   0.150   5.620 -1.2983 -1.1571  1.6270
  307MOL0     H41409  -1.215   0.265   6.220  2.1715  0.3221 -1.5817
  307MOL0     H41410  -1.316   0.473   6.278 -1.8520  0.3280 -0.2063
  307MOL0     H41411  -1.415   0.669   6.290  0.0163  2.6337  1.1624
  307MOL0     H41412  -1.295   0.758   6.176 -0.7869  1.7636 -2.9703
  307MOL0     H41413  -1.419   0.925   6.264  2.5075 -0.5112 -0.3981
  307MOL0     H41414  -1.476   0.891   6.100  3.1463 -0.1454  0.7369
  307MOL0     H41415  -1.654   0.746   6.194 -1.7744  1.5250 -1.9681
  307MOL0     H41416  -1.666   0.912   6.258  0.2691 -0.1617  2.2783
  307MOL0     H41417  -1.505   0.745   6.455  1.0434  0.4490  2.0686
  307MOL0     H41418  -1.613   0.877   6.471  0.1020 -2.0724  2.6614
  307MOL0     H41419  -1.701   0.590   6.396 -0.3091 -0.7223  1.3902
  307MOL0     H41420  -1.805   0.718   6.418  0.7790  1.0573 -2.0680
  307MOL0     H41421  -1.820   0.619   6.619 -0.6000  1.6432  0.6744
  307MOL0     H41422  -1.649   0.559   6.611 -1.7336 -1.5166  1.0831
  307MOL0     H41423  -1.751   0.838   6.668 -2.8075 -1.5066  1.6624
  307MOL0     H41424  -1.581   0.798   6.670  0.4565 -0.9068  0.9951
  307MOL0     H41425  -1.797   0.685   6.855  1.1836 -0.1624  0.3348
  307MOL0     H41426  -1.644   0.750   6.916  0.2794  1.5676 -1.7215
  307MOL0     H41427  -1.456   0.518   5.876 -0.0846  0.6042 -0.5110
  307MOL0     H41428  -1.318   0.339   5.802  3.0822  5.0961 -1.1343
  307MOL0     H41429  -1.034  -0.003   6.069  1.1903  2.2481 -0.0293
  307MOL0     H41430  -0.915  -0.223   6.055 -5.2334 -0.7177 -0.3655
  307MOL0     H41431   0.840  -0.086   4.966 -2.1048 -1.3358 -0.7468
  307MOL0     H41432   1.053   0.039   4.914 -1.1805  0.9113  3.6763
  307MOL0     H41433   1.267   0.429   4.445 -0.9655 -0.6622  0.1656
  307MOL0     H41434   1.490   0.492   4.429  1.6321 -2.3630 -0.3254
  307MOL0     H41435   1.762   0.457   4.448 -3.2375 -0.3587 -0.5558
  307MOL0     H41436   1.677   0.601   4.476  2.9824  2.8698 -0.8012
  307MOL0     H41437   1.867   0.592   4.695  2.2400 -0.0152 -0.5552
  307MOL0     H41438   1.884   0.693   4.541 -0.3229  0.2919 -0.5483
  307MOL0     H41439   2.010   0.483   4.450 -4.2170 -0.6800 -0.5183
  307MOL0     H41440   1.994   0.413   4.615  5.1039  0.9586  1.3810
  307MOL0     H41441   2.125   0.673   4.534 -1.9782  0.3028  0.1366
  307MOL0     H41442   2.217   0.537   4.572  1.1797  2.5488 -1.2253
  307MOL0     H41443   2.200   0.672   4.956 -0.0845 -3.6136  0.1390
  307MOL0     H41444   1.565   0.338   4.818 -0.0025 -2.9814  0.2806
  307MOL0     H41445   1.351   0.240   4.826  0.9573 -0.3711 -0.9579
  308MOL0     O41446   7.872   4.105   8.938  0.0822 -0.1461  0.5102
  308MOL0     C41447   7.847   4.219   8.965 -0.1746  0.4359 -0.8349
  308MOL0     O41448   7.719   4.268   8.971  0.6403  0.2783 -0.0184
  308MOL0     C41449   7.613   4.205   8.906 -0.3327  0.2247  0.6251
  308MOL0     C41450   7.486   4.235   8.953  0.3390 -0.0876 -0.3838
  308MOL0     C41451   7.374   4.187   8.884 -1.0548 -0.6041  0.3095
  308MOL0     C41452   7.385   4.110   8.768 -0.2671 -0.3444 -0.3137
  308MOL0     O41453   7.282   4.111   8.675  0.2286  0.3422 -0.0750
  308MOL0     C41454   7.284   4.031   8.560 -0.5706  0.1440 -0.8980
  308MOL0     C41455   7.175   4.071   8.462 -0.5901  0.2521 -0.0998
  308MOL0     C41456   7.177   3.995   8.332  0.9764 -0.1992  1.2808
  308MOL0     C41457   7.087   3.870   8.351  0.5806 -0.3886 -0.3736
  308MOL0     C41458   7.052   3.791   8.220  1.3339 -0.9109 -0.0216
  308MOL0     C41459   6.938   3.848   8.143 -0.3978 -0.1695 -0.3751
  308MOL0     C41460   6.887   3.780   8.009 -1.1025  0.5008 -0.6149
  308MOL0     C41461   6.790   3.666   8.027 -0.3339 -0.5148 -0.7105
  308MOL0     N41462   6.857   3.546   8.078 -0.6592 -0.0279  0.3738
  308MOL0     C41463   6.982   3.491   8.044  0.7405 -0.2234 -0.7793
  308MOL0     C41464   7.005   3.386   8.119 -0.7913 -0.6380 -0.3924
  308MOL0     C41465   7.133   3.317   8.146  0.6405 -0.4198  0.5655
  308MOL0     C41466   7.224   3.402   8.230 -0.6715 -0.4958 -0.1433
  308MOL0     C41467   7.168   3.414   8.380  0.3553  0.0628 -0.1418
  308MOL0     C41468   7.266   3.497   8.469 -0.3779  0.3661 -0.6064
  308MOL0     O41469   7.304   3.610   8.401  0.4524  0.4387  0.7154
  308MOL0     C41470   7.424   3.675   8.422  0.6560  0.6808  0.1558
  308MOL0     C41471   7.460   3.763   8.320 -0.0768 -0.2031  0.6045
  308MOL0     C41472   7.586   3.828   8.315 -1.1131 -0.2394 -1.0759
  308MOL0     C41473   7.603   3.915   8.202 -0.9946 -0.3737  1.0408
  308MOL0     C41474   7.669   3.826   8.433  0.3212  0.5788  0.0600
  308MOL0     C41475   7.802   3.887   8.439 -0.2052  0.3199 -0.3339
  308MOL0     O41476   7.825   4.024   8.406  0.0026  0.5518 -0.1712
  308MOL0     C41477   7.937   4.081   8.465 -0.2402  0.2621  0.2012
  308MOL0     C41478   7.955   4.096   8.602  0.0274  0.4366 -0.1792
  308MOL0     C41479   8.059   4.174   8.644 -1.3412 -0.5331  0.2221
  308MOL0     C41480   8.141   4.251   8.557 -0.6255 -0.2768  0.2613
  308MOL0     O41481   8.237   4.341   8.604 -0.3642 -0.4110  0.9573
  308MOL0     C41482   8.190   4.436   8.698 -0.0679 -0.1873 -0.5150
  308MOL0     C41483   8.316   4.529   8.723  0.4784 -0.3050  0.4262
  308MOL0     C41484   8.369   4.578   8.591 -0.0824 -0.8331 -0.2233
  308MOL0     C41485   8.266   4.637   8.490 -0.3722  0.2954  0.3126
  308MOL0     C41486   8.275   4.608   8.334 -1.1908  1.7658 -0.1486
  308MOL0     C41487   8.401   4.641   8.258  1.4253  0.5420 -0.4422
  308MOL0     C41488   8.397   4.768   8.183 -0.4743 -0.4742 -0.1443
  308MOL0     C41489   8.518   4.777   8.094 -0.1967 -0.0133  0.3084
  308MOL0    Cl41490   8.481   4.872   7.948 -0.4319  0.1075  0.0364
  308MOL0     C41491   8.116   4.238   8.427 -0.6792 -0.7506  0.7531
  308MOL0     C41492   8.018   4.154   8.379 -0.6520  0.1428  0.4877
  308MOL0     O41493   7.889   3.807   8.463 -0.4606 -1.1525  0.3313
  308MOL0     C41494   7.618   3.752   8.547 -0.3196 -0.4654  0.5510
  308MOL0     C41495   7.503   3.669   8.526 -0.4705 -0.2820 -1.4835
  308MOL0     N41496   6.888   3.375   8.197  0.6685 -0.3814  0.5350
  308MOL0     N41497   6.796   3.469   8.178 -0.0223 -0.0423  0.1235
  308MOL0     C41498   7.516   4.069   8.733  0.2542 -0.2731  0.1105
  308MOL0     C41499   7.627   4.112   8.801 -0.3746  0.0505 -0.3624
  308MOL0     C41500   7.965   4.308   9.017 -0.3258  0.5621  1.2499
  308MOL0     C41501   8.094   4.269   9.001  0.8601  0.5822 -1.2393
  308MOL0     C41502   8.197   4.347   9.047  0.3910  0.0644 -0.1421
  308MOL0     C41503   8.165   4.464   9.115 -0.8584  0.1390  0.6339
  308MOL0     O41504   8.256   4.556   9.158 -0.3675  0.3123  0.2665
  308MOL0     C41505   8.396   4.517   9.150  0.3917 -1.1029 -0.5899
  308MOL0     C41506   8.461   4.443   9.274 -1.4560  0.6024  0.2372
  308MOL0     C41507   8.389   4.308   9.291  0.3714  0.2519 -0.9700
  308MOL0     C41508   8.434   4.246   9.425 -0.2137 -0.4791  0.4136
  308MOL0     C41509   8.378   4.112   9.425 -0.5660 -0.0851  0.4666
  308MOL0     C41510   8.338   3.996   9.407 -0.5559  0.0673  0.2641
  308MOL0     C41511   8.033   4.498   9.147 -0.1589  0.2420  0.1323
  308MOL0     C41512   7.931   4.424   9.089 -0.3364  0.8397 -1.0981
  308MOL0     H41513   7.476   4.306   9.035  0.7223 -0.2869 -0.1598
  308MOL0     H41514   7.278   4.237   8.885  0.0724  1.7237 -1.1307
  308MOL0     H41515   7.378   4.033   8.505 -0.8004 -1.1318 -1.3614
  308MOL0     H41516   7.261   3.927   8.587 -1.1183  0.4413 -0.1776
  308MOL0     H41517   7.077   4.076   8.510  0.2444  2.4408  1.5612
  308MOL0     H41518   7.196   4.175   8.435 -1.2392  1.5049  3.5776
  308MOL0     H41519   7.137   4.065   8.258  3.0812 -0.4172 -0.1639
  308MOL0     H41520   7.271   3.962   8.286  0.5476 -1.3977  1.2134
  308MOL0     H41521   7.136   3.798   8.416  1.5527  2.1550  1.8814
  308MOL0     H41522   6.997   3.908   8.400  1.6494  0.6149  0.8552
  308MOL0     H41523   7.142   3.789   8.158  0.7929  1.2974 -0.9762
  308MOL0     H41524   7.021   3.688   8.239 -0.4270 -0.1834  1.3063
  308MOL0     H41525   6.851   3.863   8.208  0.5034 -0.7047  0.9722
  308MOL0     H41526   6.969   3.952   8.123  0.2101 -0.3714 -0.4961
  308MOL0     H41527   6.842   3.853   7.941  3.2732  2.5036 -1.7051
  308MOL0     H41528   6.972   3.749   7.948  0.6216  1.1770  1.2782
  308MOL0     H41529   6.743   3.637   7.932  1.0403  0.8699 -1.8417
  308MOL0     H41530   6.709   3.701   8.093 -0.0365 -0.0730 -0.5757
  308MOL0     H41531   7.044   3.537   7.968  1.9898  0.3164  0.5333
  308MOL0     H41532   7.105   3.229   8.206 -0.1050 -0.7950 -0.3029
  308MOL0     H41533   7.166   3.283   8.047 -1.6236  1.5033 -0.9806
  308MOL0     H41534   7.239   3.504   8.194  3.2638 -0.5505  0.8915
  308MOL0     H41535   7.324   3.359   8.233  0.0936  1.0404 -1.6565
  308MOL0     H41536   7.140   3.317   8.422  1.6110 -0.5270 -0.6229
  308MOL0     H41537   7.075   3.473   8.374  0.6825  0.6042  0.0183
  308MOL0     H41538   7.352   3.434   8.492 -0.3125 -0.9575 -3.9673
  308MOL0     H41539   7.206   3.525   8.556  0.9185  0.0725  0.4135
  308MOL0     H41540   7.392   3.789   8.240 -1.3738 -0.5863  1.5467
  308MOL0     H41541   7.674   3.997   8.214 -3.3063  1.8895  0.3254
  308MOL0     H41542   7.633   3.853   8.118  3.1362 -1.0044  2.7566
  308MOL0     H41543   7.504   3.951   8.174 -0.3596  0.3617 -0.3312
  308MOL0     H41544   7.902   4.036   8.675  3.2889 -0.8182  1.3862
  308MOL0     H41545   8.068   4.201   8.749  0.9627 -0.2624  0.0033
  308MOL0     H41546   8.103   4.497   8.669 -0.9683 -1.9981 -1.8758
  308MOL0     H41547   8.168   4.391   8.795  2.1499 -2.2699 -0.9052
  308MOL0     H41548   8.288   4.620   8.778  1.3593  0.9426 -1.1175
  308MOL0     H41549   8.397   4.469   8.765  1.6106 -1.4107 -3.0501
  308MOL0     H41550   8.411   4.490   8.541  0.5772 -0.0406 -1.1072
  308MOL0     H41551   8.445   4.655   8.608 -2.5128  2.4909 -2.9204
  308MOL0     H41552   8.163   4.607   8.510  0.5414 -2.5368  1.0963
  308MOL0     H41553   8.265   4.744   8.516 -3.9857  0.3653  0.3525
  308MOL0     H41554   8.189   4.660   8.292 -2.9949 -0.3409  0.7501
  308MOL0     H41555   8.265   4.500   8.324  2.2537  1.3841 -0.5948
  308MOL0     H41556   8.486   4.640   8.327 -0.2892  0.5484  1.8068
  308MOL0     H41557   8.415   4.561   8.186 -0.5103  0.8682 -1.2325
  308MOL0     H41558   8.391   4.853   8.252  0.2191  0.8814 -1.6639
  308MOL0     H41559   8.311   4.768   8.114 -0.6111 -1.7884  0.0127
  308MOL0     H41560   8.561   4.679   8.073 -1.5165 -0.8956  1.5832
  308MOL0     H41561   8.596   4.830   8.149  1.1295  0.6395 -2.0207
  308MOL0     H41562   8.174   4.308   8.367  0.9846 -1.3137  1.6403
  308MOL0     H41563   7.993   4.137   8.274  0.5054  0.0230  0.2137
  308MOL0     H41564   7.681   3.754   8.635 -0.3664  1.3854  0.5909
  308MOL0     H41565   7.468   3.610   8.611 -0.3918 -0.1922 -1.3886
  308MOL0     H41566   7.546   4.027   8.638 -1.9163  0.0505 -0.7761
  308MOL0     H41567   7.722   4.100   8.749  0.1275  6.9294 -1.9557
  308MOL0     H41568   8.104   4.174   8.949 -2.1731 -0.7806  0.4629
  308MOL0     H41569   8.299   4.313   9.028  0.1946 -2.6329  2.7673
  308MOL0     H41570   8.426   4.476   9.054 -0.9061 -1.5420 -0.8281
  308MOL0     H41571   8.441   4.616   9.150  0.2886 -1.0534 -1.5710
  308MOL0     H41572   8.459   4.508   9.362 -3.4456 -1.2548  1.6565
  308MOL0     H41573   8.565   4.424   9.248 -1.3775  1.8431 -0.4442
  308MOL0     H41574   8.416   4.230   9.219  1.6280 -2.2411  1.9879
  308MOL0     H41575   8.282   4.326   9.299  0.3517  0.3111 -1.3696
  308MOL0     H41576   8.405   4.302   9.514  0.0312  0.5100 -0.1027
  308MOL0     H41577   8.544   4.247   9.428 -0.1477  0.8084 -0.9088
  308MOL0     H41578   8.316   3.894   9.383 -3.0076  0.6817 -0.4299
  308MOL0     H41579   8.026   4.593   9.199  1.6354  1.3254 -1.4338
  308MOL0     H41580   7.826   4.452   9.094 -0.5668 -0.0430 -0.8056
  309MOL0     O41581   2.018   1.512  10.622 -0.3770 -0.0373  0.0121
  309MOL0     C41582   2.047   1.418  10.544 -0.5746  1.0076 -0.2851
  309MOL0     O41583   1.983   1.296  10.543 -0.7787  0.0902 -0.1793
  309MOL0     C41584   1.868   1.284  10.614  0.9254 -0.3325  0.8161
  309MOL0     C41585   1.862   1.301  10.752 -0.0754 -1.1225  0.2036
  309MOL0     C41586   1.748   1.259  10.822  0.2165  0.8999 -0.5280
  309MOL0     C41587   1.640   1.201  10.755 -0.6206  0.4888  0.8560
  309MOL0     O41588   1.527   1.161  10.814  0.9510  0.8855 -0.0913
  309MOL0     C41589   1.545   1.102  10.938 -0.1361  0.1476  1.0348
  309MOL0     C41590   1.469   1.189  11.031 -0.2886  0.2505  0.0709
  309MOL0     C41591   1.523   1.161  11.177 -0.0777 -0.3127  0.2013
  309MOL0     C41592   1.618   1.281  11.221  0.4030 -0.1199  0.5947
  309MOL0     C41593   1.548   1.419  11.218 -0.6084 -0.5316  0.3982
  309MOL0     C41594   1.618   1.523  11.315 -0.0841  0.4404 -0.4843
  309MOL0     C41595   1.558   1.663  11.297  0.6727 -0.1155  0.2660
  309MOL0     C41596   1.605   1.754  11.409 -0.3280  0.3342  0.5798
  309MOL0     N41597   1.593   1.891  11.384  0.1382 -0.5576 -0.3528
  309MOL0     C41598   1.666   1.955  11.280 -0.0548  0.1646 -0.8644
  309MOL0     C41599   1.611   2.081  11.273 -0.4818 -1.3115  1.2654
  309MOL0     C41600   1.655   2.183  11.172  0.0013 -0.0527  0.1991
  309MOL0     C41601   1.663   2.330  11.207  0.4285 -0.4361 -0.7179
  309MOL0     C41602   1.772   2.397  11.113 -0.5553 -0.3796 -0.5623
  309MOL0     C41603   1.746   2.548  11.098  0.3705 -0.2929 -0.9927
  309MOL0     O41604   1.728   2.608  11.232  0.5523  0.6876 -0.5946
  309MOL0     C41605   1.631   2.713  11.246 -0.0442  0.5923 -0.7158
  309MOL0     C41606   1.611   2.800  11.138 -0.0734 -0.0052  0.3609
  309MOL0     C41607   1.527   2.914  11.144 -0.3512 -0.0409  1.0824
  309MOL0     C41608   1.521   3.004  11.018  0.2688  0.4660 -0.7830
  309MOL0     C41609   1.469   2.944  11.265  0.1787  0.0908  1.4675
  309MOL0     C41610   1.387   3.066  11.277  0.7337  0.2740  0.5859
  309MOL0     O41611   1.458   3.175  11.300 -0.6258  0.6149 -0.0144
  309MOL0     C41612   1.399   3.296  11.300  1.3446 -0.4701  0.3372
  309MOL0     C41613   1.422   3.374  11.413  0.2145  0.8575  0.8517
  309MOL0     C41614   1.379   3.508  11.408 -0.4290 -0.2000  0.8080
  309MOL0     C41615   1.304   3.565  11.304  0.1638 -0.2601 -0.3967
  309MOL0     O41616   1.277   3.700  11.293 -0.1225 -0.4379 -0.1026
  309MOL0     C41617   1.223   3.771  11.408  0.6625 -0.6389  0.0751
  309MOL0     C41618   1.194   3.917  11.369 -0.5050 -0.1004  0.3027
  309MOL0     C41619   1.308   3.980  11.287 -1.0003 -0.1787 -0.1907
  309MOL0     C41620   1.454   3.959  11.334  0.2189 -0.0112 -0.6373
  309MOL0     C41621   1.546   4.062  11.261 -0.3092  1.0988 -0.6849
  309MOL0     C41622   1.691   4.034  11.282 -0.1064 -0.9520  0.3263
  309MOL0     C41623   1.731   4.059  11.429 -0.5659 -0.6024  0.3553
  309MOL0     C41624   1.878   4.031  11.449  0.2191 -0.2116 -0.6502
  309MOL0    Cl41625   1.917   3.861  11.430  0.2776 -0.1040 -0.0260
  309MOL0     C41626   1.269   3.479  11.195 -0.3223 -0.0658 -0.5260
  309MOL0     C41627   1.315   3.350  11.199 -0.3478  1.8405  0.1098
  309MOL0     O41628   1.268   3.063  11.275  0.5097 -0.0289  0.6190
  309MOL0     C41629   1.500   2.866  11.378  0.7455  0.1622 -0.2904
  309MOL0     C41630   1.587   2.751  11.369  1.3750 -0.2795  0.6235
  309MOL0     N41631   1.502   2.080  11.360  0.0706 -0.2054  0.4614
  309MOL0     N41632   1.495   1.974  11.426  0.1517 -0.6121  0.2595
  309MOL0     C41633   1.646   1.179  10.615 -0.3644 -0.7321  0.2724
  309MOL0     C41634   1.763   1.216  10.541 -0.1007 -1.3497 -0.5769
  309MOL0     C41635   2.170   1.433  10.465  0.1794 -0.0332  0.0655
  309MOL0     C41636   2.256   1.539  10.482  0.0837 -0.1835  0.7238
  309MOL0     C41637   2.367   1.537  10.405 -0.4999  0.4633 -0.5888
  309MOL0     C41638   2.386   1.440  10.302 -1.1082  0.0785 -0.0965
  309MOL0     O41639   2.511   1.453  10.241 -0.2374 -0.2275 -0.2052
  309MOL0     C41640   2.539   1.562  10.148  1.2936 -0.5708  1.0569
  309MOL0     C41641   2.546   1.511  10.001  0.2003 -0.6921 -0.2143
  309MOL0     C41642   2.421   1.447   9.941 -0.6012  1.0447  0.3448
  309MOL0     C41643   2.412   1.422   9.787 -0.2392 -1.3695  1.1642
  309MOL0     C41644   2.273   1.390   9.771 -0.0326  0.0944  0.1229
  309MOL0     C41645   2.155   1.368   9.781 -0.6056 -0.0895 -0.1370
  309MOL0     C41646   2.286   1.345  10.277 -1.1757  1.0943 -0.3795
  309MOL0     C41647   2.179   1.334  10.357  0.5544  0.1213  0.0182
  309MOL0     H41648   1.946   1.332  10.813 -0.1259  2.5021 -1.2849
  309MOL0     H41649   1.729   1.279  10.928  0.6144 -4.0989  0.7220
  309MOL0     H41650   1.493   1.006  10.941 -0.4022  0.1943 -0.6917
  309MOL0     H41651   1.649   1.096  10.969 -0.1234  0.5552  1.0840
  309MOL0     H41652   1.475   1.293  10.996 -0.1321  0.1978 -0.0583
  309MOL0     H41653   1.363   1.168  11.019 -0.5378  1.9034 -0.8998
  309MOL0     H41654   1.437   1.148  11.243 -0.3819  1.2844  0.1660
  309MOL0     H41655   1.579   1.068  11.194  1.3155  0.5441  0.5300
  309MOL0     H41656   1.659   1.269  11.321  0.1284  0.0737  0.7299
  309MOL0     H41657   1.709   1.285  11.159 -0.4311 -0.8361 -0.7355
  309MOL0     H41658   1.569   1.452  11.116  1.7204 -2.2352  0.2508
  309MOL0     H41659   1.439   1.411  11.230 -0.7684  2.0599  1.3185
  309MOL0     H41660   1.610   1.490  11.419 -0.3875 -1.1141 -0.9729
  309MOL0     H41661   1.722   1.510  11.284 -0.4255 -2.1965 -0.7130
  309MOL0     H41662   1.580   1.703  11.198 -0.8948 -0.3536 -0.2065
  309MOL0     H41663   1.449   1.660  11.303  0.7291  0.1381  1.8454
  309MOL0     H41664   1.704   1.722  11.443  0.3797  3.2579  1.5144
  309MOL0     H41665   1.537   1.736  11.493 -0.9050  3.2210  0.8130
  309MOL0     H41666   1.757   1.925  11.229  2.5911  2.6099  2.0046
  309MOL0     H41667   1.756   2.152  11.141  0.2573  0.7252  0.2222
  309MOL0     H41668   1.582   2.171  11.091 -1.2764 -0.5188  1.3924
  309MOL0     H41669   1.674   2.341  11.315  2.7726 -5.2130 -0.2441
  309MOL0     H41670   1.565   2.376  11.190  1.6511  2.2255 -1.1682
  309MOL0     H41671   1.790   2.357  11.012  0.4723 -0.6874 -0.2618
  309MOL0     H41672   1.867   2.375  11.161  0.1751  1.0224 -1.3216
  309MOL0     H41673   1.649   2.536  11.048 -0.0534 -4.8917  0.4525
  309MOL0     H41674   1.830   2.595  11.046  1.1003 -1.8647 -1.2930
  309MOL0     H41675   1.640   2.773  11.037 -2.7103 -0.4385 -0.3722
  309MOL0     H41676   1.622   3.002  10.976  1.4673  3.5359  1.6243
  309MOL0     H41677   1.445   2.989  10.940 -0.2473  0.4649 -0.2878
  309MOL0     H41678   1.508   3.107  11.052  1.0020 -0.0096  1.0677
  309MOL0     H41679   1.476   3.340  11.501  2.7815 -1.0278 -1.2832
  309MOL0     H41680   1.420   3.559  11.495  0.9646  0.7737 -0.3663
  309MOL0     H41681   1.130   3.726  11.443 -0.0361  0.9105  0.3228
  309MOL0     H41682   1.286   3.746  11.494  0.9678  0.6085  0.2323
  309MOL0     H41683   1.097   3.941  11.325 -1.2809  1.4819  2.7078
  309MOL0     H41684   1.195   3.990  11.450  0.4829  1.5791 -1.1323
  309MOL0     H41685   1.280   4.085  11.275  2.5436  0.7484 -1.6720
  309MOL0     H41686   1.284   3.934  11.190 -0.1873 -3.3628  1.0119
  309MOL0     H41687   1.450   3.984  11.440 -1.1574  1.2899 -0.9593
  309MOL0     H41688   1.480   3.854  11.318 -0.8439 -0.3234 -0.3742
  309MOL0     H41689   1.516   4.155  11.312 -0.1430 -0.0072  1.5743
  309MOL0     H41690   1.517   4.054  11.156  3.6749  2.8725 -2.1084
  309MOL0     H41691   1.721   3.934  11.252 -0.2717 -1.4058  1.5903
  309MOL0     H41692   1.737   4.105  11.213 -0.4678 -2.9197 -2.0399
  309MOL0     H41693   1.668   4.002  11.497  1.2712 -1.9369  1.0362
  309MOL0     H41694   1.707   4.163  11.455 -2.8041 -1.4065  1.7619
  309MOL0     H41695   1.915   4.075  11.542  1.4093  0.2266 -1.3090
  309MOL0     H41696   1.934   4.086  11.372 -1.7931  1.3786 -1.0651
  309MOL0     H41697   1.221   3.519  11.106 -0.0331 -1.4824 -1.3344
  309MOL0     H41698   1.286   3.287  11.115  1.7139  3.6714 -2.1286
  309MOL0     H41699   1.452   2.879  11.475  1.1141  0.5048 -0.1484
  309MOL0     H41700   1.603   2.703  11.465 -0.6194  0.0197  1.1705
  309MOL0     H41701   1.567   1.125  10.564 -1.6225  1.4486 -0.2255
  309MOL0     H41702   1.761   1.207  10.433 -3.2126 -0.8833 -0.6540
  309MOL0     H41703   2.234   1.622  10.549 -1.0939  0.7676 -0.7691
  309MOL0     H41704   2.439   1.618  10.403  1.5559 -1.2576 -0.2963
  309MOL0     H41705   2.455   1.631  10.136  1.5180 -0.2044  1.5845
  309MOL0     H41706   2.619   1.626  10.185  1.1986  0.6689 -0.7743
  309MOL0     H41707   2.631   1.443  10.010 -1.2284 -2.6257 -0.7003
  309MOL0     H41708   2.579   1.597   9.941  2.6314  0.6483  2.7399
  309MOL0     H41709   2.340   1.517   9.962 -1.1729  0.6114 -0.3659
  309MOL0     H41710   2.399   1.356   9.999 -1.2768  0.4889 -0.7466
  309MOL0     H41711   2.466   1.332   9.757  0.2375 -0.7501  0.1477
  309MOL0     H41712   2.442   1.511   9.731  0.3298 -1.1316  1.8281
  309MOL0     H41713   2.055   1.338   9.805 -0.5143  0.8278  1.6130
  309MOL0     H41714   2.287   1.287  10.185 -0.7026 -0.1977  0.4105
  309MOL0     H41715   2.096   1.269  10.331  0.4214  0.7350 -1.1588
  310MOL0     O41716   5.368   0.908   8.160  0.8404  0.1728 -0.3469
  310MOL0     C41717   5.367   0.788   8.173  0.0769  0.4874 -0.6852
  310MOL0     O41718   5.456   0.700   8.112 -0.0616  0.4673  0.8891
  310MOL0     C41719   5.565   0.761   8.050 -0.0994 -0.2112 -0.3876
  310MOL0     C41720   5.565   0.846   7.946 -0.8358 -0.4137  0.6066
  310MOL0     C41721   5.678   0.915   7.900  0.4894  0.2869  0.4157
  310MOL0     C41722   5.802   0.888   7.961 -0.0199  0.2883 -0.3446
  310MOL0     O41723   5.910   0.952   7.903  0.1741  0.9726  0.3685
  310MOL0     C41724   6.032   0.955   7.973  0.7050  0.2541  0.3527
  310MOL0     C41725   6.148   1.026   7.894  0.1888 -0.2126 -0.3675
  310MOL0     C41726   6.259   1.075   7.984 -0.3181  0.6645  0.6575
  310MOL0     C41727   6.355   1.174   7.918 -0.4725  0.0151  0.6643
  310MOL0     C41728   6.500   1.162   7.967 -0.2063 -0.1671 -0.1283
  310MOL0     C41729   6.597   1.275   7.913  0.5575 -0.2958 -0.2844
  310MOL0     C41730   6.562   1.420   7.975 -0.8108  0.6122  0.6146
  310MOL0     C41731   6.621   1.548   7.913 -0.1000  0.3630  0.1129
  310MOL0     N41732   6.768   1.551   7.885 -0.4602  0.4545 -0.0586
  310MOL0     C41733   6.853   1.455   7.833 -0.2903  1.1032 -0.8469
  310MOL0     C41734   6.976   1.510   7.832  0.2690 -0.2018  0.1109
  310MOL0     C41735   7.097   1.446   7.770  0.4284 -0.2031  0.8427
  310MOL0     C41736   7.239   1.518   7.799  0.4245  0.6380  0.2214
  310MOL0     C41737   7.272   1.510   7.942  0.2048  0.2776 -0.6259
  310MOL0     C41738   7.360   1.619   7.997 -0.1036  0.5077  0.3621
  310MOL0     O41739   7.371   1.571   8.134 -0.8682  0.2248  0.4929
  310MOL0     C41740   7.496   1.602   8.183  0.5041 -0.0681  0.2681
  310MOL0     C41741   7.589   1.692   8.135 -0.2490 -0.2844 -0.0044
  310MOL0     C41742   7.708   1.728   8.204  0.9519  0.4558 -0.5717
  310MOL0     C41743   7.808   1.840   8.151  0.9857  0.0250  0.7417
  310MOL0     C41744   7.739   1.665   8.331 -1.0503  0.3830  0.3171
  310MOL0     C41745   7.869   1.678   8.410 -0.2521 -0.1430  0.6978
  310MOL0     O41746   8.001   1.656   8.353 -0.4418 -0.7984  0.6521
  310MOL0     C41747   8.102   1.708   8.419 -1.1037  0.1917 -0.3727
  310MOL0     C41748   8.208   1.620   8.443  0.0306  0.8832 -0.1206
  310MOL0     C41749   8.327   1.666   8.501  0.0842  0.0220  0.7220
  310MOL0     C41750   8.340   1.801   8.535  0.4559 -0.0705 -0.0570
  310MOL0     O41751   8.459   1.851   8.593 -0.6840 -0.2159 -0.6949
  310MOL0     C41752   8.589   1.783   8.584  0.5054 -0.4363 -0.1997
  310MOL0     C41753   8.657   1.738   8.710 -0.8876  0.3669  0.4466
  310MOL0     C41754   8.588   1.626   8.774  0.8156 -0.2069 -0.3148
  310MOL0     C41755   8.610   1.496   8.693 -0.7948  0.5509  1.2934
  310MOL0     C41756   8.538   1.376   8.759 -0.7504  0.8199 -0.0191
  310MOL0     C41757   8.582   1.244   8.687 -0.0916 -0.7255  0.1248
  310MOL0     C41758   8.717   1.196   8.732 -0.0639  0.2722 -0.1308
  310MOL0     C41759   8.761   1.058   8.679  0.3623  0.1188  0.1035
  310MOL0    Cl41760   8.918   1.027   8.753  0.1357  0.0080 -0.6386
  310MOL0     C41761   8.233   1.884   8.506 -0.1674 -0.6685 -0.7949
  310MOL0     C41762   8.108   1.839   8.461  0.1495 -0.7016  0.6145
  310MOL0     O41763   7.844   1.709   8.528 -0.2152  0.4996  0.0118
  310MOL0     C41764   7.648   1.570   8.369 -0.1868 -0.7260 -0.8681
  310MOL0     C41765   7.530   1.539   8.302 -0.3838  0.6087  0.0742
  310MOL0     N41766   6.956   1.642   7.871 -0.1311 -0.2205 -0.9276
  310MOL0     N41767   6.836   1.663   7.893  0.8331 -0.4295 -0.7839
  310MOL0     C41768   5.813   0.794   8.062 -0.2053  0.3755  0.6492
  310MOL0     C41769   5.692   0.734   8.102 -0.1421 -0.1666 -0.3622
  310MOL0     C41770   5.266   0.723   8.255 -0.3160  0.0164 -0.3022
  310MOL0     C41771   5.147   0.791   8.302  0.1155 -0.0440  0.4795
  310MOL0     C41772   5.042   0.726   8.373 -0.1781 -0.8821  0.2511
  310MOL0     C41773   5.044   0.586   8.387 -0.3563  0.7063 -0.1448
  310MOL0     O41774   4.927   0.522   8.444  0.0319 -1.1088  0.3181
  310MOL0     C41775   4.919   0.383   8.422  0.6600 -0.0595  0.2906
  310MOL0     C41776   4.890   0.353   8.277 -0.2177 -0.0299 -0.0974
  310MOL0     C41777   4.754   0.411   8.231  0.4803  0.3547 -0.5791
  310MOL0     C41778   4.702   0.365   8.094 -0.6852  0.0560  0.6856
  310MOL0     C41779   4.684   0.224   8.096 -0.0239 -0.6350 -0.1797
  310MOL0     C41780   4.680   0.101   8.089  0.2378 -0.0569 -0.0861
  310MOL0     C41781   5.162   0.520   8.346 -0.3525  0.2008 -0.0407
  310MOL0     C41782   5.269   0.585   8.280  0.6064  0.4284 -0.5344
  310MOL0     H41783   5.469   0.860   7.897 -0.6611 -1.0057  0.0820
  310MOL0     H41784   5.664   0.983   7.816  1.5886  0.1042  0.0657
  310MOL0     H41785   6.014   1.013   8.064 -4.9657 -0.2373 -0.1040
  310MOL0     H41786   6.071   0.857   8.002 -1.9567 -1.3713 -1.2090
  310MOL0     H41787   6.183   0.956   7.817  1.1666 -2.6887  2.1415
  310MOL0     H41788   6.114   1.112   7.835 -1.5992 -0.7047 -0.1311
  310MOL0     H41789   6.216   1.115   8.077 -1.3014 -3.5332  2.2349
  310MOL0     H41790   6.320   0.988   8.009 -0.7850 -0.7442 -2.7055
  310MOL0     H41791   6.350   1.146   7.812 -1.2746 -2.4251  1.2764
  310MOL0     H41792   6.309   1.273   7.928  1.5291  0.9327  1.2725
  310MOL0     H41793   6.499   1.143   8.075  0.1174  0.2706 -0.0457
  310MOL0     H41794   6.536   1.068   7.925  0.0988  0.8033 -2.1527
  310MOL0     H41795   6.700   1.248   7.936  0.1378 -3.0505 -1.2720
  310MOL0     H41796   6.586   1.286   7.805  4.8049  2.3305 -0.6728
  310MOL0     H41797   6.454   1.438   7.970 -0.4446  2.9530 -0.0453
  310MOL0     H41798   6.581   1.417   8.082  1.2348 -0.7976  0.2685
  310MOL0     H41799   6.593   1.619   7.992 -1.1374 -0.8548  0.8754
  310MOL0     H41800   6.561   1.577   7.827 -0.2186 -0.1117  0.0364
  310MOL0     H41801   6.828   1.357   7.794 -1.1144  1.3812 -1.0377
  310MOL0     H41802   7.104   1.342   7.804 -0.0734 -0.2666  0.7557
  310MOL0     H41803   7.078   1.449   7.663 -0.5758 -2.6629  0.8905
  310MOL0     H41804   7.223   1.623   7.771 -2.4065 -0.2904 -2.1188
  310MOL0     H41805   7.325   1.475   7.745  2.0267  0.9994  2.3491
  310MOL0     H41806   7.331   1.418   7.948 -2.4123 -1.6269 -1.9050
  310MOL0     H41807   7.179   1.496   7.998  0.6614 -1.4903 -0.2512
  310MOL0     H41808   7.309   1.716   7.990  1.6456  1.5703  1.4356
  310MOL0     H41809   7.449   1.624   7.934  0.8929  4.0198  1.7846
  310MOL0     H41810   7.570   1.751   8.046  1.3744 -1.7076 -1.3662
  310MOL0     H41811   7.814   1.820   8.044 -0.2730 -1.7551  0.9658
  310MOL0     H41812   7.779   1.941   8.181  1.1861  0.4773 -0.5170
  310MOL0     H41813   7.911   1.827   8.186  1.9384  1.9613 -1.1554
  310MOL0     H41814   8.218   1.519   8.404  1.6355  0.9161  0.1281
  310MOL0     H41815   8.403   1.592   8.523 -1.5379 -0.8030  4.2554
  310MOL0     H41816   8.579   1.696   8.519  2.3164 -2.2326  1.7705
  310MOL0     H41817   8.647   1.859   8.531 -1.7484  1.2728 -0.3446
  310MOL0     H41818   8.764   1.720   8.693 -0.5724 -2.9099  4.4014
  310MOL0     H41819   8.659   1.819   8.783  2.9896  1.1173 -0.2442
  310MOL0     H41820   8.484   1.649   8.799  0.6229 -1.2292 -0.1253
  310MOL0     H41821   8.645   1.624   8.868 -0.5618 -1.4299  0.5366
  310MOL0     H41822   8.586   1.498   8.587 -0.6663  2.7416  1.2729
  310MOL0     H41823   8.717   1.481   8.708 -0.9311 -1.0848  0.8246
  310MOL0     H41824   8.431   1.399   8.765 -0.8089  0.5703 -0.1213
  310MOL0     H41825   8.570   1.372   8.863  0.4333  0.0701 -0.3937
  310MOL0     H41826   8.507   1.166   8.700 -0.4485 -0.2894  0.7621
  310MOL0     H41827   8.599   1.271   8.583 -0.0447  4.5444  1.2095
  310MOL0     H41828   8.720   1.187   8.841 -1.5024 -2.0023 -0.2243
  310MOL0     H41829   8.797   1.263   8.699  1.9154 -1.5104  0.7795
  310MOL0     H41830   8.761   1.062   8.569 -1.1014 -2.2955 -0.0670
  310MOL0     H41831   8.692   0.976   8.702 -0.6518  0.5033 -1.3586
  310MOL0     H41832   8.257   1.986   8.536 -1.9060  0.2967 -2.4200
  310MOL0     H41833   8.024   1.904   8.437 -0.0785 -1.8863 -2.1127
  310MOL0     H41834   7.675   1.529   8.466 -1.7603 -2.5819 -1.1323
  310MOL0     H41835   7.469   1.462   8.348  2.2125 -3.2216 -2.2556
  310MOL0     H41836   5.901   0.769   8.121 -0.4696 -0.6331  0.6385
  310MOL0     H41837   5.698   0.662   8.184  1.9978 -3.3773 -3.0604
  310MOL0     H41838   5.129   0.898   8.289 -0.2366 -0.1177  0.3627
  310MOL0     H41839   4.962   0.791   8.406 -1.7449 -3.0449  0.9153
  310MOL0     H41840   5.013   0.333   8.445 -0.2457 -2.2522 -0.5167
  310MOL0     H41841   4.829   0.352   8.476 -0.5461 -2.2008 -2.6643
  310MOL0     H41842   4.902   0.245   8.265  3.3402  0.3602 -1.0637
  310MOL0     H41843   4.970   0.396   8.216  3.0544  2.3122  5.1276
  310MOL0     H41844   4.749   0.520   8.225 -0.9838  0.4741  1.6110
  310MOL0     H41845   4.677   0.384   8.304 -1.1545 -0.8484 -2.6624
  310MOL0     H41846   4.773   0.394   8.016  3.4478 -3.0241  2.8926
  310MOL0     H41847   4.609   0.412   8.062  0.5763  0.4962 -2.7245
  310MOL0     H41848   4.659  -0.003   8.080 -1.3898 -0.0983  3.0078
  310MOL0     H41849   5.173   0.412   8.358 -0.7833  0.2873  1.3373
  310MOL0     H41850   5.357   0.533   8.243 -0.5264  0.7941 -4.1207
  311MOL0     O41851   9.956   4.274   6.427  0.3912  0.7729  0.3662
  311MOL0     C41852  10.073   4.301   6.421 -0.4094  1.6434 -0.3410
  311MOL0     O41853  10.176   4.222   6.375  0.6870  0.5536 -0.5513
  311MOL0     C41854  10.153   4.090   6.342  0.3045  0.5314  0.2687
  311MOL0     C41855  10.134   4.067   6.204 -0.6004  0.7187  0.7868
  311MOL0     C41856  10.114   3.938   6.153  0.1570  1.0956  0.0066
  311MOL0     C41857  10.106   3.830   6.237 -0.1968  0.1413 -0.4586
  311MOL0     O41858  10.087   3.710   6.179 -0.2750  0.7857  0.7938
  311MOL0     C41859  10.210   3.636   6.167  0.4681 -0.4537 -0.0879
  311MOL0     C41860  10.186   3.519   6.080 -0.3234 -0.6377 -0.1034
  311MOL0     C41861  10.052   3.458   6.113 -0.0377 -0.4664 -0.9854
  311MOL0     C41862  10.026   3.326   6.042  0.4215  0.4511  0.3409
  311MOL0     C41863   9.910   3.327   5.926  0.1332 -0.7495  0.1787
  311MOL0     C41864   9.891   3.206   5.858 -0.7148 -0.0992 -0.8365
  311MOL0     C41865   9.961   3.193   5.726  0.2163  0.2848 -0.0400
  311MOL0     C41866   9.969   3.048   5.673  0.6622 -0.0110 -0.1581
  311MOL0     N41867  10.034   2.961   5.773  0.1339 -0.5271 -0.2050
  311MOL0     C41868  10.158   2.966   5.829  0.3005 -0.4618 -0.4132
  311MOL0     C41869  10.173   2.846   5.899 -1.0621 -0.5898  1.3729
  311MOL0     C41870  10.301   2.795   5.955 -0.7065 -0.2263 -0.8113
  311MOL0     C41871  10.339   2.864   6.092  0.6720  0.1211  0.0280
  311MOL0     C41872  10.439   2.977   6.076 -0.1152 -0.6251  0.9020
  311MOL0     C41873  10.472   3.021   6.218 -0.0268 -0.4487  0.5825
  311MOL0     O41874  10.368   3.111   6.256 -0.0461  0.0038  0.2166
  311MOL0     C41875  10.353   3.169   6.378  0.3126 -0.5815 -0.0511
  311MOL0     C41876  10.454   3.211   6.455  0.1760  0.6433  0.6323
  311MOL0     C41877  10.432   3.292   6.569  0.2137  2.3654 -0.8368
  311MOL0     C41878  10.553   3.333   6.652  0.6187  0.1248  0.3489
  311MOL0     C41879  10.292   3.331   6.592 -0.6139  0.1570 -0.1542
  311MOL0     C41880  10.253   3.442   6.683 -0.8911 -0.4063  0.7503
  311MOL0     O41881  10.350   3.534   6.708 -0.2668 -0.4560 -0.1760
  311MOL0     C41882  10.319   3.657   6.757  0.2807 -1.0293  0.2835
  311MOL0     C41883  10.269   3.686   6.887  0.4487  0.0701 -0.8643
  311MOL0     C41884  10.254   3.813   6.927  0.2610 -0.1060 -0.5292
  311MOL0     C41885  10.299   3.925   6.858 -0.2209  0.3651  0.1386
  311MOL0     O41886  10.267   4.049   6.907 -0.5968  0.0279  0.6282
  311MOL0     C41887  10.317   4.165   6.832 -0.1799 -0.4524 -0.0399
  311MOL0     C41888  10.280   4.284   6.924 -0.0129 -0.3081  0.8450
  311MOL0     C41889  10.328   4.266   7.072 -0.7895  0.0727  0.1867
  311MOL0     C41890  10.355   4.404   7.142  1.4640 -0.1518  0.1165
  311MOL0     C41891  10.221   4.463   7.192 -0.2521 -0.1462  0.6863
  311MOL0     C41892  10.238   4.593   7.271  0.2089 -0.2705 -0.1895
  311MOL0     C41893  10.113   4.681   7.253 -0.3507  0.0149  0.2927
  311MOL0     C41894  10.124   4.834   7.277  0.1635  0.9429 -0.1922
  311MOL0    Cl41895  10.139   4.901   7.118 -0.4325 -0.7775  0.1372
  311MOL0     C41896  10.352   3.897   6.734 -0.3944 -0.9328 -0.3935
  311MOL0     C41897  10.361   3.769   6.692 -1.1488  0.5896  0.5455
  311MOL0     O41898  10.144   3.447   6.735  0.1223  0.0669 -0.5232
  311MOL0     C41899  10.193   3.282   6.511  0.2937  0.3420 -0.2005
  311MOL0     C41900  10.226   3.203   6.398  0.4335 -0.6448  0.9775
  311MOL0     N41901  10.048   2.776   5.896  0.0740 -0.7568 -0.3329
  311MOL0     N41902   9.976   2.839   5.811 -0.6881 -0.9308  0.1695
  311MOL0     C41903  10.129   3.851   6.373 -0.2315 -0.1484  0.2323
  311MOL0     C41904  10.144   3.983   6.420  0.5160  0.4221 -0.2486
  311MOL0     C41905  10.105   4.438   6.442 -0.0050 -0.5872  0.1012
  311MOL0     C41906  10.235   4.485   6.466  0.4856 -0.1158 -0.0983
  311MOL0     C41907  10.248   4.623   6.513 -0.5188 -0.1058  0.4545
  311MOL0     C41908  10.138   4.711   6.530  0.2796 -0.2614  1.0711
  311MOL0     O41909  10.162   4.832   6.581  0.5258 -0.5062 -0.3060
  311MOL0     C41910  10.051   4.910   6.632  0.5079 -0.6328 -0.2573
  311MOL0     C41911  10.094   5.038   6.705 -0.0247  0.5168 -0.1463
  311MOL0     C41912  10.228   5.041   6.790 -0.0492  0.0764 -0.1827
  311MOL0     C41913  10.296   5.176   6.808  0.9026 -0.1214  0.5840
  311MOL0     C41914  10.194   5.264   6.871  0.1440 -0.3938 -0.7217
  311MOL0     C41915  10.098   5.336   6.899 -0.4905 -0.4949  0.1738
  311MOL0     C41916  10.008   4.658   6.514 -0.3073 -0.3778  0.3025
  311MOL0     C41917   9.991   4.525   6.465 -0.2498 -0.6373  0.0663
  311MOL0     H41918  10.151   4.150   6.136  0.4657 -0.6739 -0.7145
  311MOL0     H41919  10.120   3.914   6.047  1.6639  1.0733  0.0821
  311MOL0     H41920  10.288   3.696   6.118 -0.6319 -1.0386 -2.7093
  311MOL0     H41921  10.242   3.604   6.266 -2.3652  0.8312  1.3668
  311MOL0     H41922  10.179   3.563   5.980 -0.3345  1.5497  0.8088
  311MOL0     H41923  10.266   3.447   6.101  0.1063  0.2626  1.4527
  311MOL0     H41924  10.055   3.448   6.222 -0.9201  1.5421 -0.7235
  311MOL0     H41925   9.966   3.521   6.090 -0.0687 -0.8534 -1.9722
  311MOL0     H41926  10.126   3.300   6.007  0.8922  1.1896  1.0865
  311MOL0     H41927  10.003   3.260   6.126  0.2406  1.9359  1.5068
  311MOL0     H41928   9.814   3.354   5.971  0.8730  0.4742  1.1000
  311MOL0     H41929   9.933   3.406   5.854 -0.0277  0.6493  1.5933
  311MOL0     H41930   9.907   3.124   5.928 -1.2737  1.1745  0.8493
  311MOL0     H41931   9.786   3.202   5.826 -0.3977 -0.0472 -1.9241
  311MOL0     H41932   9.898   3.234   5.646  0.0184 -2.4990 -1.4392
  311MOL0     H41933  10.062   3.234   5.716  0.4447 -0.5643 -1.6186
  311MOL0     H41934  10.017   3.041   5.575 -3.1846  1.3094 -2.3164
  311MOL0     H41935   9.870   3.002   5.673  2.0045 -3.3737  1.9381
  311MOL0     H41936  10.233   3.044   5.812  0.1299  0.0685  1.1216
  311MOL0     H41937  10.285   2.687   5.960 -0.9869 -0.3827 -3.6253
  311MOL0     H41938  10.388   2.796   5.889 -0.5891 -2.4156 -0.7693
  311MOL0     H41939  10.388   2.793   6.160  1.9647  1.4754  0.5650
  311MOL0     H41940  10.246   2.895   6.141  0.7825 -1.6941  1.5091
  311MOL0     H41941  10.396   3.063   6.024 -4.6331 -2.0182  1.9319
  311MOL0     H41942  10.525   2.945   6.016 -1.2283  0.5511 -1.4500
  311MOL0     H41943  10.571   3.067   6.215  1.3877 -3.3277 -1.5728
  311MOL0     H41944  10.482   2.941   6.292  1.2927 -3.1964 -2.3129
  311MOL0     H41945  10.550   3.179   6.415 -0.1450 -1.1066  1.2108
  311MOL0     H41946  10.607   3.417   6.606  0.9269  0.3806  1.1664
  311MOL0     H41947  10.520   3.358   6.753  0.0353 -1.1956  0.5019
  311MOL0     H41948  10.626   3.252   6.652  0.0385 -0.4162 -0.3405
  311MOL0     H41949  10.219   3.602   6.935 -0.3784  0.9343 -0.1742
  311MOL0     H41950  10.198   3.824   7.019 -1.0477 -0.0398 -1.3076
  311MOL0     H41951  10.426   4.162   6.824 -0.1589 -0.4517  0.2395
  311MOL0     H41952  10.271   4.165   6.733 -2.8742  1.0514  1.1190
  311MOL0     H41953  10.318   4.379   6.886 -0.4185 -1.2181 -2.0188
  311MOL0     H41954  10.171   4.297   6.915 -0.0375 -1.6941 -1.7538
  311MOL0     H41955  10.417   4.203   7.069 -2.4663 -2.3536 -1.6016
  311MOL0     H41956  10.251   4.201   7.115  2.5423 -2.3000  3.2534
  311MOL0     H41957  10.412   4.394   7.235  2.8130 -0.5643 -0.7284
  311MOL0     H41958  10.407   4.472   7.074 -1.6758  0.1664 -2.2288
  311MOL0     H41959  10.158   4.386   7.237  0.1268 -0.2014  1.1208
  311MOL0     H41960  10.175   4.491   7.097  0.6217  1.8284  0.7876
  311MOL0     H41961  10.261   4.573   7.376  0.7009  2.8873  0.4031
  311MOL0     H41962  10.315   4.655   7.225 -1.8179  2.0287 -0.7277
  311MOL0     H41963  10.053   4.645   7.337 -0.2551  0.1904  0.4375
  311MOL0     H41964  10.052   4.672   7.162 -2.6027  0.5421  1.6614
  311MOL0     H41965  10.209   4.861   7.339 -0.4830  2.2256  0.1703
  311MOL0     H41966  10.036   4.867   7.333 -1.5126  1.7002 -3.0702
  311MOL0     H41967  10.381   3.970   6.659  0.6937  1.0880  1.8257
  311MOL0     H41968  10.431   3.753   6.610  3.0119  1.1142  3.6943
  311MOL0     H41969  10.088   3.290   6.537  1.2287  0.0056  4.6369
  311MOL0     H41970  10.150   3.174   6.326 -1.2539  2.1161  1.4691
  311MOL0     H41971  10.150   3.765   6.435  1.4181  0.8945  1.2057
  311MOL0     H41972  10.169   3.993   6.526 -0.2971 -0.3082  0.0210
  311MOL0     H41973  10.331   4.434   6.462  0.1053 -1.6778  4.5517
  311MOL0     H41974  10.353   4.645   6.531 -0.3600  1.1787 -1.7513
  311MOL0     H41975   9.992   4.955   6.551  2.0192  1.7188 -0.1501
  311MOL0     H41976   9.980   4.859   6.697 -1.0963 -1.8589 -2.8120
  311MOL0     H41977  10.012   5.076   6.766  0.4341  1.7513 -0.2699
  311MOL0     H41978  10.101   5.117   6.630 -1.9125  0.3762 -0.5276
  311MOL0     H41979  10.297   4.962   6.760 -1.5430  0.2854 -4.8172
  311MOL0     H41980  10.227   5.017   6.897 -1.9905  1.9496  0.2967
  311MOL0     H41981  10.318   5.214   6.708 -3.5252  2.0906  0.1970
  311MOL0     H41982  10.384   5.174   6.873 -0.8348  0.0160  3.0857
  311MOL0     H41983  10.025   5.412   6.915  2.2120  2.2204  0.5343
  311MOL0     H41984   9.928   4.728   6.532  0.7158  0.9636 -0.1960
  311MOL0     H41985   9.896   4.485   6.431  1.6011 -2.5310 -3.4983
  312MOL0     O41986   5.089   9.866   8.047 -0.9700 -0.1043 -0.2318
  312MOL0     C41987   5.071   9.750   8.015  1.3180  0.0394 -0.0176
  312MOL0     O41988   5.021   9.655   8.092 -0.3492  0.6837 -0.0010
  312MOL0     C41989   5.058   9.649   8.224 -0.9941  0.2084 -0.0785
  312MOL0     C41990   5.184   9.675   8.268  0.6736  0.3310  0.5731
  312MOL0     C41991   5.225   9.660   8.400 -0.2277  0.1683  0.0617
  312MOL0     C41992   5.139   9.609   8.501  0.4681 -0.6710  0.7525
  312MOL0     O41993   5.147   9.594   8.633 -0.0137 -0.6864 -0.4055
  312MOL0     C41994   5.272   9.586   8.702  0.4623 -0.5198 -0.1152
  312MOL0     C41995   5.340   9.451   8.666 -0.0145  0.3761  0.2734
  312MOL0     C41996   5.458   9.427   8.760 -0.8962 -0.4298 -0.2092
  312MOL0     C41997   5.583   9.507   8.706 -0.2478  0.1274 -0.4006
  312MOL0     C41998   5.685   9.547   8.821  1.3814  0.0835 -0.6750
  312MOL0     C41999   5.810   9.622   8.775 -0.1089  0.0380  1.1236
  312MOL0     C42000   5.909   9.526   8.704  0.4692  0.2664 -0.1015
  312MOL0     C42001   6.006   9.441   8.788  0.4985 -0.4680 -0.4694
  312MOL0     N42002   6.121   9.537   8.815 -0.0044  1.0735  1.0837
  312MOL0     C42003   6.229   9.529   8.733 -0.4599 -0.3991 -0.3616
  312MOL0     C42004   6.308   9.629   8.794 -0.0493 -0.7583  0.6356
  312MOL0     C42005   6.443   9.681   8.762 -0.8407  0.4719 -0.6122
  312MOL0     C42006   6.547   9.590   8.815 -0.0603  0.5359  0.7027
  312MOL0     C42007   6.558   9.466   8.733  0.0211  0.0632  0.0521
  312MOL0     C42008   6.676   9.379   8.777  0.5605  1.8018 -0.5044
  312MOL0     O42009   6.797   9.453   8.767 -0.5817 -0.3215 -0.1877
  312MOL0     C42010   6.890   9.447   8.869  0.2962  0.1148  0.0041
  312MOL0     C42011   6.873   9.416   9.007  0.7343  0.4175 -0.2464
  312MOL0     C42012   6.977   9.429   9.105  0.4586 -0.6684  0.3681
  312MOL0     C42013   6.945   9.387   9.247  0.4702  0.6076  0.6741
  312MOL0     C42014   7.099   9.477   9.068  0.4438 -0.0444  0.9307
  312MOL0     C42015   7.203   9.501   9.163  0.2734  0.6868  0.0507
  312MOL0     O42016   7.166   9.587   9.267  0.0757 -0.2601  0.3479
  312MOL0     C42017   7.243   9.634   9.371 -0.1167  0.4760  0.1820
  312MOL0     C42018   7.370   9.585   9.392 -0.3532  0.5142  0.2929
  312MOL0     C42019   7.448   9.633   9.497  0.2983  1.5095  0.0024
  312MOL0     C42020   7.401   9.728   9.573 -0.3214  0.6020 -0.1377
  312MOL0     O42021   7.476   9.807   9.653 -0.0020 -0.3585  0.1027
  312MOL0     C42022   7.532   9.748   9.776  0.3370  0.1017  1.4491
  312MOL0     C42023   7.601   9.852   9.864  0.2575 -0.8748 -0.3152
  312MOL0     C42024   7.523   9.984   9.895  0.2896  0.9135  0.2754
  312MOL0     C42025   7.547  10.048  10.030 -0.2203  0.1258 -0.3064
  312MOL0     C42026   7.436  10.137  10.065 -0.0265  0.0911  0.9138
  312MOL0     C42027   7.437  10.160  10.217 -0.2741 -0.3840  0.0077
  312MOL0     C42028   7.328  10.261  10.266 -0.0799  0.3916  0.5177
  312MOL0     C42029   7.185  10.219  10.229  0.8814 -0.7390  0.3321
  312MOL0    Cl42030   7.069  10.351  10.283 -0.0444 -0.1287 -0.1840
  312MOL0     C42031   7.267   9.777   9.560 -0.1487 -0.1160 -0.0022
  312MOL0     C42032   7.191   9.728   9.448 -0.7027 -1.2540 -0.2582
  312MOL0     O42033   7.308   9.441   9.154 -0.2650  0.0024 -0.5224
  312MOL0     C42034   7.122   9.490   8.926 -0.8492  0.1080  0.0619
  312MOL0     C42035   7.026   9.473   8.838  0.1084  0.0841 -0.1945
  312MOL0     N42036   6.243   9.682   8.905  0.4430  0.3756 -0.8177
  312MOL0     N42037   6.131   9.620   8.917 -0.8750 -0.3021 -0.2649
  312MOL0     C42038   5.000   9.581   8.448 -0.4266  0.5852  0.0510
  312MOL0     C42039   4.965   9.602   8.313  0.1193 -0.5391  0.2286
  312MOL0     C42040   5.115   9.702   7.881 -0.6058 -0.3485 -0.1224
  312MOL0     C42041   5.140   9.796   7.780  0.2881  1.1158  0.2724
  312MOL0     C42042   5.185   9.754   7.653 -0.3189 -0.1010 -0.4882
  312MOL0     C42043   5.185   9.624   7.624  0.4820  1.3781 -0.2969
  312MOL0     O42044   5.191   9.578   7.501  0.8353 -0.9536  0.6513
  312MOL0     C42045   5.305   9.619   7.420 -0.9245 -0.4977 -0.5416
  312MOL0     C42046   5.333   9.483   7.335 -0.6544 -0.0600 -0.5597
  312MOL0     C42047   5.372   9.360   7.430 -1.1268  1.0082  0.8415
  312MOL0     C42048   5.243   9.282   7.486  0.6112  0.3604 -0.5650
  312MOL0     C42049   5.244   9.133   7.466  0.1856 -0.0729  0.4299
  312MOL0     C42050   5.262   9.013   7.456  0.7029  0.5878  0.3224
  312MOL0     C42051   5.145   9.530   7.716  0.0570 -0.0960 -0.9031
  312MOL0     C42052   5.122   9.568   7.850 -0.4155 -0.1757  0.1579
  312MOL0     H42053   5.268   9.703   8.205 -0.6812  1.0171 -0.9928
  312MOL0     H42054   5.323   9.699   8.426  0.7240 -1.8884 -0.2426
  312MOL0     H42055   5.334   9.671   8.671  2.1360 -1.6467  0.0643
  312MOL0     H42056   5.254   9.609   8.807  3.8784  0.4235  0.3780
  312MOL0     H42057   5.277   9.368   8.697  1.5319 -0.7014  0.6781
  312MOL0     H42058   5.367   9.438   8.561 -3.7030 -0.7287 -0.6893
  312MOL0     H42059   5.435   9.468   8.859 -0.3180 -0.6823  0.0382
  312MOL0     H42060   5.475   9.320   8.778  0.4898  0.2263  3.0951
  312MOL0     H42061   5.630   9.438   8.636  0.7954  0.5207 -0.0984
  312MOL0     H42062   5.544   9.594   8.653 -2.5175 -2.3543 -3.2214
  312MOL0     H42063   5.633   9.624   8.879 -1.1808  0.6377 -3.4550
  312MOL0     H42064   5.707   9.453   8.873  1.0801 -0.3198 -1.2659
  312MOL0     H42065   5.773   9.707   8.717 -1.7021 -0.7449  0.9600
  312MOL0     H42066   5.869   9.663   8.858  1.0661  3.2981 -1.1129
  312MOL0     H42067   5.851   9.453   8.647 -0.3694  1.1854 -0.4653
  312MOL0     H42068   5.972   9.589   8.640 -0.4400 -0.3425 -1.6654
  312MOL0     H42069   6.035   9.346   8.744  3.2471 -0.8685  1.8863
  312MOL0     H42070   5.958   9.421   8.884  0.0348  2.7045  0.0831
  312MOL0     H42071   6.255   9.467   8.648  1.4210  0.6705 -0.6250
  312MOL0     H42072   6.453   9.695   8.654  0.8277 -0.1188 -0.5650
  312MOL0     H42073   6.461   9.783   8.796 -0.1541 -0.4573  2.0842
  312MOL0     H42074   6.533   9.561   8.920  1.2881  0.4189  0.8697
  312MOL0     H42075   6.640   9.645   8.797 -0.7433  1.0904 -1.4300
  312MOL0     H42076   6.565   9.475   8.625  2.3397 -0.0053  0.1386
  312MOL0     H42077   6.462   9.416   8.749 -1.2394  2.1766 -0.4082
  312MOL0     H42078   6.677   9.285   8.720 -0.6812 -0.9768  3.6062
  312MOL0     H42079   6.652   9.343   8.877 -5.1936 -0.8346 -2.3745
  312MOL0     H42080   6.780   9.374   9.045  1.0111 -0.2313 -0.2853
  312MOL0     H42081   7.025   9.385   9.321  0.4232  2.5045  0.8117
  312MOL0     H42082   6.857   9.445   9.276  0.6876  1.2960 -0.0075
  312MOL0     H42083   6.918   9.281   9.236 -1.8014  1.1408  0.5833
  312MOL0     H42084   7.414   9.495   9.350  0.4892  0.3164  1.5379
  312MOL0     H42085   7.551   9.599   9.500 -1.1601 -4.3995 -2.4476
  312MOL0     H42086   7.453   9.701   9.836 -0.6469 -0.7256 -0.4277
  312MOL0     H42087   7.602   9.670   9.745 -1.7324 -1.5937  0.7880
  312MOL0     H42088   7.623   9.812   9.963  2.4941  2.1224  0.5729
  312MOL0     H42089   7.696   9.876   9.813  0.0277 -0.4191 -0.5365
  312MOL0     H42090   7.419   9.951   9.897  0.9418 -1.3543 -0.4206
  312MOL0     H42091   7.515  10.066   9.823 -2.6913  1.0172  0.6140
  312MOL0     H42092   7.556   9.974  10.111 -0.1535 -0.6206 -0.9876
  312MOL0     H42093   7.639  10.104  10.045 -0.6393  0.6692  0.3141
  312MOL0     H42094   7.336  10.096  10.049 -0.5306  0.7012  2.2812
  312MOL0     H42095   7.446  10.234  10.016  0.8380 -0.2325  0.4448
  312MOL0     H42096   7.436  10.066  10.273  3.4349  1.1537  3.0649
  312MOL0     H42097   7.530  10.196  10.260 -2.2930  2.2318  2.6353
  312MOL0     H42098   7.349  10.359  10.223 -2.5979  1.3244  1.2094
  312MOL0     H42099   7.323  10.282  10.373  2.2705  3.6408  0.1264
  312MOL0     H42100   7.160  10.124  10.277  1.6531 -0.8465  0.5323
  312MOL0     H42101   7.175  10.204  10.121  2.6793 -2.0885  0.3069
  312MOL0     H42102   7.228   9.845   9.635 -1.2587 -1.7923  1.0286
  312MOL0     H42103   7.093   9.771   9.428 -0.1547  0.3417  0.2858
  312MOL0     H42104   7.227   9.515   8.917 -0.5804 -0.7513  0.7176
  312MOL0     H42105   7.052   9.498   8.736  0.1939 -1.9701 -0.7211
  312MOL0     H42106   4.924   9.554   8.521 -1.9005  1.6989 -1.0106
  312MOL0     H42107   4.867   9.594   8.266 -0.9601  0.8795  2.0932
  312MOL0     H42108   5.138   9.904   7.794  1.0832  1.2961 -0.9107
  312MOL0     H42109   5.222   9.827   7.582  1.1897  3.1431  3.2610
  312MOL0     H42110   5.286   9.704   7.355  1.6388 -1.2992 -2.5233
  312MOL0     H42111   5.390   9.644   7.485 -3.1244  1.3684  1.8290
  312MOL0     H42112   5.418   9.512   7.273 -1.0779 -0.6122 -1.4247
  312MOL0     H42113   5.248   9.463   7.269 -0.4173 -3.3149 -0.0500
  312MOL0     H42114   5.417   9.404   7.519  0.3913  0.9695  0.1204
  312MOL0     H42115   5.453   9.305   7.382 -2.0667  3.3230 -4.0410
  312MOL0     H42116   5.145   9.330   7.477 -0.6314 -2.2613 -2.8248
  312MOL0     H42117   5.268   9.285   7.592  1.0365 -0.4102 -0.6380
  312MOL0     H42118   5.272   8.907   7.441  1.0100  0.8929 -1.9846
  312MOL0     H42119   5.125   9.428   7.687 -3.2827  0.6745 -1.7552
  312MOL0     H42120   5.091   9.490   7.920 -1.1877 -0.5968 -0.6400
  313MOL0     O42121   3.558   7.771   7.764  0.7860  0.2996 -0.1338
  313MOL0     C42122   3.595   7.660   7.803 -0.1940  0.0859  0.3864
  313MOL0     O42123   3.713   7.631   7.871 -0.8560 -0.4573  0.0905
  313MOL0     C42124   3.803   7.725   7.909 -0.5672  0.0811  1.1240
  313MOL0     C42125   3.844   7.837   7.835 -0.1179 -0.2839 -0.4744
  313MOL0     C42126   3.926   7.928   7.897 -0.2183 -0.5188  0.4952
  313MOL0     C42127   3.992   7.898   8.020  1.0625  0.6970 -0.4155
  313MOL0     O42128   4.097   7.958   8.089  0.6636 -0.2723  0.0943
  313MOL0     C42129   4.158   8.077   8.038  0.2937 -0.3434 -0.0607
  313MOL0     C42130   4.167   8.174   8.162 -0.3099  0.6960  0.3864
  313MOL0     C42131   4.209   8.313   8.118 -0.7127  1.0029 -0.1058
  313MOL0     C42132   4.174   8.430   8.224  0.1137  0.1626 -0.1500
  313MOL0     C42133   4.214   8.553   8.141  0.5292  0.5201 -0.7733
  313MOL0     C42134   4.188   8.682   8.229  0.1062  0.2482  0.8160
  313MOL0     C42135   4.048   8.711   8.247  0.8986  0.1517  0.3928
  313MOL0     C42136   4.030   8.822   8.347 -0.2310  0.8099  0.6052
  313MOL0     N42137   3.900   8.885   8.344 -0.0612  0.3028 -0.4947
  313MOL0     C42138   3.797   8.826   8.408 -0.7410 -0.4846  1.1905
  313MOL0     C42139   3.698   8.902   8.363  1.3695 -0.5240  0.1257
  313MOL0     C42140   3.559   8.863   8.404 -0.2344  0.4290 -0.2725
  313MOL0     C42141   3.506   8.765   8.298 -1.6340 -0.8014  0.6570
  313MOL0     C42142   3.367   8.704   8.344 -0.1041 -0.7473  0.3795
  313MOL0     C42143   3.269   8.673   8.234 -0.7299 -0.0471 -0.1332
  313MOL0     O42144   3.217   8.791   8.169  0.8700  0.6742 -0.1656
  313MOL0     C42145   3.084   8.790   8.135  0.3494  0.6316 -0.6146
  313MOL0     C42146   3.025   8.908   8.092  0.7550 -0.1657  0.1275
  313MOL0     C42147   2.887   8.915   8.062 -0.4176  0.5183 -0.0309
  313MOL0     C42148   2.823   9.048   8.038 -0.1384 -0.0565 -0.3307
  313MOL0     C42149   2.802   8.792   8.073 -0.3313 -0.7762 -0.2645
  313MOL0     C42150   2.649   8.784   8.060  0.0695  0.0848 -0.5421
  313MOL0     O42151   2.592   8.663   8.080  0.0185  0.5486 -0.7743
  313MOL0     C42152   2.459   8.653   8.096  0.0184 -1.1670 -0.4139
  313MOL0     C42153   2.390   8.716   8.199 -0.2924 -0.7799  0.2848
  313MOL0     C42154   2.256   8.702   8.213  0.6835  0.0835 -1.0119
  313MOL0     C42155   2.175   8.629   8.113 -0.4010 -0.0603 -0.4083
  313MOL0     O42156   2.042   8.610   8.118 -1.1453 -0.0727 -0.1834
  313MOL0     C42157   1.978   8.604   8.246 -0.8387  1.1848 -0.6878
  313MOL0     C42158   2.014   8.479   8.330  0.2458  0.4055 -0.4931
  313MOL0     C42159   1.947   8.355   8.271  0.0142 -0.7240  0.1067
  313MOL0     C42160   1.836   8.307   8.355  0.0292  1.0356  0.5063
  313MOL0     C42161   1.747   8.203   8.286 -0.2035  0.0859  0.3789
  313MOL0     C42162   1.624   8.167   8.375  0.9036  0.5333 -1.2412
  313MOL0     C42163   1.506   8.118   8.301 -0.7656 -0.1993 -0.4097
  313MOL0     C42164   1.381   8.109   8.397  0.0590 -0.4077  0.0549
  313MOL0    Cl42165   1.413   7.972   8.504 -0.5268  0.1259 -0.1787
  313MOL0     C42166   2.243   8.574   8.000  0.2030 -0.7524 -0.0358
  313MOL0     C42167   2.384   8.590   7.997 -0.5951 -0.1274  0.1666
  313MOL0     O42168   2.586   8.884   8.034  0.5950  0.4406 -0.4624
  313MOL0     C42169   2.869   8.671   8.109 -0.3596 -0.4532 -0.8917
  313MOL0     C42170   3.007   8.668   8.130 -0.8154  0.5600 -0.0724
  313MOL0     N42171   3.728   9.000   8.271 -0.1667 -1.4199 -0.2809
  313MOL0     N42172   3.855   8.979   8.253 -0.5841  0.1768  0.2196
  313MOL0     C42173   3.956   7.789   8.088  0.2976  0.5672 -0.5567
  313MOL0     C42174   3.863   7.698   8.029  0.8983  0.5861 -0.4717
  313MOL0     C42175   3.509   7.540   7.782 -0.0252  0.1973 -1.1697
  313MOL0     C42176   3.386   7.547   7.717 -0.6149 -0.5911  0.5943
  313MOL0     C42177   3.305   7.431   7.707  0.5187 -0.4103 -0.3716
  313MOL0     C42178   3.321   7.324   7.784 -0.7321  0.5635 -0.5719
  313MOL0     O42179   3.245   7.208   7.784  0.1799 -1.0021 -0.0639
  313MOL0     C42180   3.102   7.227   7.769 -0.6462  0.0674 -0.3732
  313MOL0     C42181   3.043   7.081   7.802 -0.6358 -0.3852  0.2451
  313MOL0     C42182   3.028   7.052   7.955  0.5105 -0.3738  0.4841
  313MOL0     C42183   2.980   6.906   7.995 -0.0096  0.2451  0.3071
  313MOL0     C42184   2.975   6.902   8.137  0.1187  0.9461 -0.2166
  313MOL0     C42185   2.998   6.923   8.253 -1.1215 -0.0799 -0.2443
  313MOL0     C42186   3.443   7.309   7.847  0.2681  0.2069 -1.2271
  313MOL0     C42187   3.537   7.421   7.855 -0.1876 -0.5639 -0.1554
  313MOL0     H42188   3.802   7.847   7.735  1.1746 -0.8944 -1.1041
  313MOL0     H42189   3.942   8.015   7.834  5.5461 -0.8923  0.8871
  313MOL0     H42190   4.249   8.065   7.977  1.5379  1.1129  1.4239
  313MOL0     H42191   4.090   8.126   7.968 -0.8653 -0.9378  0.6124
  313MOL0     H42192   4.067   8.171   8.207 -0.1617 -1.2033  0.6542
  313MOL0     H42193   4.245   8.132   8.226  0.0412  0.3024 -0.2938
  313MOL0     H42194   4.315   8.299   8.094 -0.2659 -1.1736  2.5539
  313MOL0     H42195   4.157   8.323   8.023 -0.9603 -0.0786 -0.0951
  313MOL0     H42196   4.071   8.424   8.260 -0.3879 -1.5393 -1.6992
  313MOL0     H42197   4.236   8.428   8.313  0.6711  1.2654 -0.4883
  313MOL0     H42198   4.315   8.531   8.103  1.1840  0.8367  0.7024
  313MOL0     H42199   4.152   8.566   8.053 -0.6336  4.0707  0.3966
  313MOL0     H42200   4.238   8.660   8.324 -1.2946  1.8559  1.9771
  313MOL0     H42201   4.231   8.773   8.186 -1.5080  0.6341 -0.1033
  313MOL0     H42202   4.018   8.755   8.152  2.3507 -0.2564 -0.2954
  313MOL0     H42203   3.979   8.627   8.260 -0.9905  0.9481 -3.1076
  313MOL0     H42204   4.095   8.897   8.300 -1.2723 -0.8384 -3.9995
  313MOL0     H42205   4.046   8.771   8.442  0.2131 -0.8672 -0.3398
  313MOL0     H42206   3.803   8.743   8.478  0.0140  0.5010  2.3282
  313MOL0     H42207   3.559   8.813   8.501  2.9039 -1.0224 -0.8988
  313MOL0     H42208   3.506   8.958   8.417  0.7086  0.8430  0.7075
  313MOL0     H42209   3.583   8.687   8.289 -0.7445  0.2339 -1.5060
  313MOL0     H42210   3.494   8.827   8.208 -0.9174 -0.7186  0.6094
  313MOL0     H42211   3.319   8.774   8.414  1.6250  1.5772 -0.6164
  313MOL0     H42212   3.377   8.609   8.397 -1.7197 -0.9480  0.3653
  313MOL0     H42213   3.194   8.608   8.279 -1.0365 -1.1554 -2.1299
  313MOL0     H42214   3.327   8.614   8.162  1.4989  0.8742  0.8246
  313MOL0     H42215   3.074   9.004   8.100  2.0128 -0.9062  2.0042
  313MOL0     H42216   2.765   9.053   7.946  2.7991  0.7780 -2.2941
  313MOL0     H42217   2.746   9.073   8.112 -1.5169 -1.3164 -1.3073
  313MOL0     H42218   2.893   9.132   8.038  1.9054 -1.6769 -1.0287
  313MOL0     H42219   2.442   8.778   8.271 -2.4488  1.2337  0.2291
  313MOL0     H42220   2.204   8.764   8.286 -1.0757  0.9338 -2.8697
  313MOL0     H42221   1.988   8.690   8.312 -2.2840  2.7639 -2.4427
  313MOL0     H42222   1.875   8.614   8.213  0.3533  1.6743 -4.8855
  313MOL0     H42223   2.120   8.454   8.328  0.9432  3.0140  0.5093
  313MOL0     H42224   1.983   8.496   8.434  0.5171  1.2099 -0.5418
  313MOL0     H42225   2.018   8.272   8.260 -0.9096 -1.3413 -1.5204
  313MOL0     H42226   1.908   8.381   8.172  1.0132  1.3751  0.2243
  313MOL0     H42227   1.873   8.267   8.450 -0.3797 -1.5361 -0.3291
  313MOL0     H42228   1.763   8.387   8.372 -3.8140 -1.0060 -4.0486
  313MOL0     H42229   1.801   8.110   8.266  0.1850  0.9950 -3.6572
  313MOL0     H42230   1.714   8.244   8.190 -3.1019  5.8148  3.2900
  313MOL0     H42231   1.659   8.086   8.440  2.1068  0.7451 -1.5984
  313MOL0     H42232   1.599   8.253   8.438  2.9183  1.4478 -1.6064
  313MOL0     H42233   1.529   8.020   8.258 -0.7788 -0.4912  0.2257
  313MOL0     H42234   1.491   8.175   8.209 -0.9596 -0.2599 -0.4166
  313MOL0     H42235   1.285   8.072   8.361  0.7443 -2.2259 -0.0038
  313MOL0     H42236   1.364   8.202   8.453 -1.0969 -0.5944  0.0343
  313MOL0     H42237   2.190   8.548   7.909 -1.1238  1.7003 -0.0346
  313MOL0     H42238   2.425   8.556   7.902 -3.2718 -1.6742 -0.5403
  313MOL0     H42239   2.823   8.573   8.114 -2.1066  0.3186 -0.6814
  313MOL0     H42240   3.049   8.568   8.132 -0.4367  0.6945 -1.1403
  313MOL0     H42241   3.998   7.777   8.187 -0.6762 -3.3217 -0.4406
  313MOL0     H42242   3.829   7.606   8.075 -1.2747  1.1073 -0.9466
  313MOL0     H42243   3.366   7.634   7.655  0.6391 -2.0510 -2.0151
  313MOL0     H42244   3.237   7.427   7.623  0.1287 -0.3627 -0.0600
  313MOL0     H42245   3.078   7.304   7.842  1.8351  0.5358  0.0446
  313MOL0     H42246   3.068   7.256   7.669 -0.6650 -2.0373 -1.0425
  313MOL0     H42247   3.120   7.010   7.769  0.1062  0.1162  0.8554
  313MOL0     H42248   2.957   7.054   7.740  0.2174 -0.7228 -0.8271
  313MOL0     H42249   2.958   7.131   7.981  0.5566  0.3187 -1.3280
  313MOL0     H42250   3.127   7.065   8.001 -0.8406  1.6464  3.0470
  313MOL0     H42251   3.053   6.830   7.964  3.5915  3.0354  1.1940
  313MOL0     H42252   2.879   6.890   7.957 -1.1288  4.7448  0.7966
  313MOL0     H42253   3.011   6.919   8.359 -0.6648 -2.8450 -0.3272
  313MOL0     H42254   3.462   7.216   7.900 -0.0208  1.0895  0.4844
  313MOL0     H42255   3.618   7.415   7.927 -1.4027  0.7604  1.3739
  314MOL0     O42256   7.933   3.649   2.631 -0.3571 -0.3387  0.0643
  314MOL0     C42257   8.039   3.591   2.636 -1.0024  0.2911  0.6528
  314MOL0     O42258   8.159   3.625   2.568  0.2849  0.0042 -0.0154
  314MOL0     C42259   8.134   3.705   2.457  0.3452 -0.5127 -0.3131
  314MOL0     C42260   8.086   3.839   2.459  0.5028 -0.5267 -0.3547
  314MOL0     C42261   8.045   3.899   2.335  0.6255  0.4383 -0.6810
  314MOL0     C42262   8.050   3.833   2.223 -0.1597 -0.6098  1.0201
  314MOL0     O42263   8.024   3.920   2.116  1.0172  0.3403 -1.7698
  314MOL0     C42264   8.044   3.879   1.979 -0.5591 -0.3372 -0.2275
  314MOL0     C42265   7.928   3.793   1.932  0.0442 -0.2665 -1.2733
  314MOL0     C42266   7.928   3.787   1.780  0.0765  0.3333  0.1565
  314MOL0     C42267   7.850   3.900   1.699  0.1996  0.4312 -0.1433
  314MOL0     C42268   7.815   3.849   1.556 -0.3957  0.5516 -0.1035
  314MOL0     C42269   7.812   3.962   1.453  1.0840 -0.2792 -0.6414
  314MOL0     C42270   7.711   4.078   1.481 -0.2018  0.6737 -0.1958
  314MOL0     C42271   7.773   4.215   1.447  1.0412  0.0177 -0.2098
  314MOL0     N42272   7.667   4.315   1.427 -0.2051 -0.1500  0.3820
  314MOL0     C42273   7.553   4.332   1.492 -0.1381 -0.2422  0.5183
  314MOL0     C42274   7.503   4.452   1.443 -0.7373  0.1213  0.0645
  314MOL0     C42275   7.384   4.514   1.504 -0.6623  0.2470  0.4420
  314MOL0     C42276   7.377   4.515   1.668 -0.2571 -0.3210  0.1688
  314MOL0     C42277   7.476   4.619   1.728  0.4154  0.5940  0.0285
  314MOL0     C42278   7.484   4.603   1.881 -0.1757  0.0221 -0.4076
  314MOL0     O42279   7.357   4.645   1.921  0.1694  0.6204 -0.7820
  314MOL0     C42280   7.319   4.595   2.045 -0.2254 -0.0207  0.0982
  314MOL0     C42281   7.177   4.597   2.070  0.3839  0.5674 -0.1902
  314MOL0     C42282   7.120   4.541   2.182  0.2918  0.9228 -0.1830
  314MOL0     C42283   6.976   4.574   2.223 -0.3682  0.2560  0.3265
  314MOL0     C42284   7.202   4.457   2.264  0.5517 -0.6352 -0.8761
  314MOL0     C42285   7.154   4.404   2.401  0.0333 -0.1793  0.4789
  314MOL0     O42286   7.026   4.351   2.410 -0.1135  0.6992  0.4645
  314MOL0     C42287   6.980   4.321   2.537 -0.3088  1.0095  0.0761
  314MOL0     C42288   6.955   4.190   2.588  0.7415 -0.3644  0.1929
  314MOL0     C42289   6.904   4.175   2.716  0.5016 -0.0184  0.3418
  314MOL0     C42290   6.868   4.284   2.796  0.0504  0.5514  0.3013
  314MOL0     O42291   6.832   4.287   2.930  0.2410 -0.6552 -0.1536
  314MOL0     C42292   6.760   4.178   2.983  0.0118  0.0690 -1.0387
  314MOL0     C42293   6.694   4.214   3.106 -0.4427  0.2488 -0.1384
  314MOL0     C42294   6.562   4.142   3.122  1.1267 -0.3968 -0.2166
  314MOL0     C42295   6.484   4.187   3.246  0.4940 -0.2167  0.1552
  314MOL0     C42296   6.550   4.143   3.379  0.0562  0.4694  0.3715
  314MOL0     C42297   6.526   3.995   3.405  0.4008  0.6510 -0.7642
  314MOL0     C42298   6.593   3.945   3.532  0.4447  0.6951  0.0202
  314MOL0     C42299   6.523   3.998   3.668 -0.5177  0.1164 -0.5119
  314MOL0    Cl42300   6.582   3.900   3.808  0.2291  0.3824  0.5043
  314MOL0     C42301   6.880   4.411   2.740  1.0642  0.5887 -0.9484
  314MOL0     C42302   6.935   4.430   2.611 -0.4779 -0.6693  0.3006
  314MOL0     O42303   7.235   4.413   2.496  0.1783  0.1865  0.5731
  314MOL0     C42304   7.340   4.456   2.243  0.2883  0.3686  0.5904
  314MOL0     C42305   7.403   4.525   2.143 -0.5895 -0.4674  0.7510
  314MOL0     N42306   7.593   4.510   1.349 -0.0779  0.3933 -0.3155
  314MOL0     N42307   7.689   4.429   1.345 -0.1264  0.4069 -0.3797
  314MOL0     C42308   8.089   3.693   2.219  1.2711 -0.2771 -0.4634
  314MOL0     C42309   8.132   3.634   2.338  0.2119  0.2828  0.5353
  314MOL0     C42310   8.045   3.500   2.747 -0.4514 -0.4608  0.3405
  314MOL0     C42311   8.167   3.457   2.798  0.1788 -0.5849 -0.1195
  314MOL0     C42312   8.168   3.357   2.894  0.1242  0.8359 -0.4670
  314MOL0     C42313   8.051   3.304   2.947 -0.1314  0.3733  0.4587
  314MOL0     O42314   8.055   3.224   3.056  0.1678  0.7180  0.0267
  314MOL0     C42315   7.944   3.123   3.069 -0.1583 -1.2690 -0.6390
  314MOL0     C42316   7.962   3.013   2.975 -0.2525  0.9547 -0.4283
  314MOL0     C42317   8.088   2.934   2.983  0.0163 -0.3084 -0.7327
  314MOL0     C42318   8.104   2.830   2.875 -0.3423  0.1316  0.5681
  314MOL0     C42319   8.244   2.798   2.865  0.0726  0.3224 -0.6468
  314MOL0     C42320   8.359   2.763   2.848  0.8317  0.2218  0.0244
  314MOL0     C42321   7.929   3.341   2.893  0.6126 -0.9727 -0.1479
  314MOL0     C42322   7.925   3.441   2.793  0.5146  0.5145 -1.5715
  314MOL0     H42323   8.078   3.886   2.557 -3.1564 -1.9085  0.1896
  314MOL0     H42324   8.014   4.002   2.321 -1.0949 -0.0581 -0.6618
  314MOL0     H42325   8.032   3.961   1.908  1.3437 -1.2854 -1.7354
  314MOL0     H42326   8.143   3.834   1.967  0.6644  1.4646  2.2186
  314MOL0     H42327   7.927   3.691   1.972 -0.0317  0.5208  0.8427
  314MOL0     H42328   7.832   3.837   1.960 -1.4400 -0.1455 -5.6965
  314MOL0     H42329   8.033   3.790   1.750  0.9083 -3.6657  1.9837
  314MOL0     H42330   7.881   3.693   1.750 -4.1988  2.4434 -0.4399
  314MOL0     H42331   7.749   3.910   1.742 -0.0693 -2.8901  0.2927
  314MOL0     H42332   7.900   3.997   1.696  0.0498  0.6271  1.9219
  314MOL0     H42333   7.900   3.787   1.527  1.0711  2.2731  0.2732
  314MOL0     H42334   7.731   3.779   1.556 -1.5135  1.7928  1.7490
  314MOL0     H42335   7.909   4.012   1.451  2.6845 -2.8468  2.6932
  314MOL0     H42336   7.793   3.912   1.357  0.1756  2.0040 -1.7245
  314MOL0     H42337   7.613   4.053   1.440  0.2032  0.4188 -1.0199
  314MOL0     H42338   7.690   4.081   1.588 -1.4535  2.6792 -0.4325
  314MOL0     H42339   7.848   4.213   1.368  2.0156 -0.2681  0.6938
  314MOL0     H42340   7.828   4.247   1.536  1.9658 -0.9599 -0.4120
  314MOL0     H42341   7.514   4.277   1.577  1.2113 -2.2161 -0.0730
  314MOL0     H42342   7.378   4.618   1.471  1.4860 -0.4463 -2.5089
  314MOL0     H42343   7.296   4.462   1.464 -0.6872  1.4948 -1.2478
  314MOL0     H42344   7.406   4.415   1.703 -2.5171 -0.3985  2.1141
  314MOL0     H42345   7.284   4.541   1.720  0.7020 -0.8063  2.2190
  314MOL0     H42346   7.446   4.722   1.707 -0.4984  0.2726 -0.3092
  314MOL0     H42347   7.580   4.606   1.699 -0.8086 -0.4906 -4.6909
  314MOL0     H42348   7.569   4.658   1.923 -0.8375 -1.6097  3.5137
  314MOL0     H42349   7.501   4.496   1.891  3.2760  0.3321 -1.5116
  314MOL0     H42350   7.115   4.664   2.012 -0.2193  1.3035  1.2611
  314MOL0     H42351   6.918   4.491   2.181 -1.1744 -0.0567  1.9787
  314MOL0     H42352   6.950   4.578   2.329 -1.1182 -0.3426  0.1759
  314MOL0     H42353   6.940   4.668   2.180 -0.0706  0.4200  0.4354
  314MOL0     H42354   6.964   4.103   2.524  4.9044 -0.5622  0.7556
  314MOL0     H42355   6.893   4.072   2.749  1.3612 -0.5853 -1.0484
  314MOL0     H42356   6.681   4.145   2.915 -1.3076  1.9072 -0.4736
  314MOL0     H42357   6.823   4.091   3.001 -1.6648 -1.0450 -0.3545
  314MOL0     H42358   6.767   4.189   3.184  0.9033 -0.8505 -1.6730
  314MOL0     H42359   6.668   4.320   3.113 -2.0276 -0.1879  1.1643
  314MOL0     H42360   6.570   4.033   3.111  1.0325 -0.3565 -0.7009
  314MOL0     H42361   6.498   4.184   3.044  1.6901  2.6184  0.8315
  314MOL0     H42362   6.462   4.293   3.238 -0.5990 -0.5369 -1.7735
  314MOL0     H42363   6.388   4.135   3.232  0.9597 -1.7933  2.2299
  314MOL0     H42364   6.501   4.193   3.463 -1.7406 -1.0472  0.2998
  314MOL0     H42365   6.656   4.164   3.395  0.9233 -1.9554 -1.6367
  314MOL0     H42366   6.420   3.971   3.419  0.3355  1.4310  0.2828
  314MOL0     H42367   6.550   3.927   3.323 -1.1711 -2.8699  1.4631
  314MOL0     H42368   6.702   3.960   3.532  0.9368 -2.1620  1.4275
  314MOL0     H42369   6.571   3.838   3.531 -1.5849  1.0805 -0.4977
  314MOL0     H42370   6.414   4.010   3.668 -0.5787  0.6816  3.0608
  314MOL0     H42371   6.550   4.103   3.687  1.0893  0.1883 -2.8341
  314MOL0     H42372   6.855   4.496   2.802  0.9138  0.1273 -0.3599
  314MOL0     H42373   6.943   4.530   2.568  0.6444 -0.9761 -0.2440
  314MOL0     H42374   7.393   4.394   2.315  2.4400  3.3860  1.8000
  314MOL0     H42375   7.510   4.531   2.124 -0.6586  2.8579  0.9212
  314MOL0     H42376   8.107   3.635   2.128  1.3120 -1.2029  0.1179
  314MOL0     H42377   8.177   3.536   2.347  0.1736  0.2599  0.4799
  314MOL0     H42378   8.260   3.506   2.772  0.5958 -1.0082  0.5410
  314MOL0     H42379   8.259   3.330   2.947  0.2583  4.5134  1.5361
  314MOL0     H42380   7.957   3.100   3.175  0.0371  0.7416 -0.1830
  314MOL0     H42381   7.845   3.169   3.062  0.8704  0.8672 -2.2338
  314MOL0     H42382   7.951   3.047   2.871  1.1587  0.6290 -0.7046
  314MOL0     H42383   7.891   2.937   3.008  2.4809 -1.9524 -0.8135
  314MOL0     H42384   8.094   2.900   3.087  0.4737 -0.7753 -0.9061
  314MOL0     H42385   8.167   3.009   2.979  2.0749 -2.0695  2.2496
  314MOL0     H42386   8.073   2.869   2.777 -4.4682 -1.4779  0.9991
  314MOL0     H42387   8.058   2.732   2.887  0.5943 -0.3813  0.1013
  314MOL0     H42388   8.463   2.741   2.837  0.9597 -0.3939  1.9931
  314MOL0     H42389   7.837   3.299   2.931  0.5268  0.9752  2.0302
  314MOL0     H42390   7.839   3.473   2.736  0.9954  0.2341 -2.4818
  315MOL0     O42391   2.464  11.266   6.488 -0.1824  0.8327  0.0176
  315MOL0     C42392   2.525  11.160   6.479  0.5639 -0.3541 -0.0549
  315MOL0     O42393   2.533  11.063   6.574 -0.0421 -0.6543 -0.2360
  315MOL0     C42394   2.447  11.068   6.681 -0.8976 -0.3438  0.2502
  315MOL0     C42395   2.314  11.123   6.684  0.2656 -0.0257  0.4594
  315MOL0     C42396   2.234  11.084   6.791  0.8871 -0.0899 -0.1874
  315MOL0     C42397   2.289  11.020   6.902 -0.5429 -0.0612 -0.2536
  315MOL0     O42398   2.230  11.015   7.025 -0.0789  0.1569 -0.0408
  315MOL0     C42399   2.278  11.124   7.107  0.3992 -0.0572 -0.5693
  315MOL0     C42400   2.276  11.074   7.255  0.1695 -0.5224  0.2409
  315MOL0     C42401   2.393  10.973   7.316  0.2990  0.1619  0.4355
  315MOL0     C42402   2.382  10.974   7.466  0.3118  0.5429 -0.3451
  315MOL0     C42403   2.470  10.876   7.544  0.1392 -0.3604 -0.3445
  315MOL0     C42404   2.423  10.855   7.681  0.1847 -0.5200 -0.9326
  315MOL0     C42405   2.430  10.981   7.776 -0.0952 -0.3562 -0.2055
  315MOL0     C42406   2.364  10.966   7.919 -0.1212  1.0178  0.0498
  315MOL0     N42407   2.406  10.838   7.989 -0.3114 -1.0212 -0.7023
  315MOL0     C42408   2.518  10.824   8.071  0.3342 -0.4215  0.7456
  315MOL0     C42409   2.493  10.703   8.129 -0.4233 -0.7463  1.3346
  315MOL0     C42410   2.556  10.629   8.243  0.3577 -0.0753  0.0520
  315MOL0     C42411   2.617  10.498   8.188 -0.3831  0.6754  0.2782
  315MOL0     C42412   2.713  10.518   8.068  0.6848 -0.2523 -0.3453
  315MOL0     C42413   2.844  10.592   8.109 -0.6254  0.1413  0.5651
  315MOL0     O42414   2.857  10.702   8.016  0.1118 -0.3878  0.0155
  315MOL0     C42415   2.876  10.689   7.881  1.2871 -0.6445  0.5519
  315MOL0     C42416   2.970  10.607   7.834 -0.9283  0.4570  0.0777
  315MOL0     C42417   2.994  10.594   7.689  0.3563 -0.0248  0.8096
  315MOL0     C42418   3.089  10.495   7.645 -0.6471 -0.8945  0.0547
  315MOL0     C42419   2.910  10.672   7.597  0.8348 -0.0661 -0.5106
  315MOL0     C42420   2.911  10.671   7.453 -0.3592 -0.4903 -0.5001
  315MOL0     O42421   2.814  10.740   7.391 -0.4877 -0.0098  0.5973
  315MOL0     C42422   2.805  10.755   7.253 -0.4766  1.3266 -0.1518
  315MOL0     C42423   2.868  10.671   7.160  0.0895  0.7957 -0.2693
  315MOL0     C42424   2.868  10.704   7.026  0.0568 -0.2708  0.0260
  315MOL0     C42425   2.815  10.824   6.976 -0.0369  0.4543  0.2886
  315MOL0     O42426   2.829  10.868   6.846  0.3283 -0.1157 -0.1469
  315MOL0     C42427   2.840  11.011   6.820 -0.2647  1.0024  0.1531
  315MOL0     C42428   2.849  11.028   6.671  0.7248  0.3625 -0.4069
  315MOL0     C42429   2.985  10.985   6.626 -0.3638  0.0272  1.0670
  315MOL0     C42430   2.996  10.977   6.468  0.3824  0.1288  0.2194
  315MOL0     C42431   3.133  10.903   6.433  0.7795  0.5570  0.0220
  315MOL0     C42432   3.139  10.912   6.283 -0.0211 -0.4231 -0.5069
  315MOL0     C42433   3.229  10.808   6.241 -0.4515 -0.0092  1.0678
  315MOL0     C42434   3.272  10.815   6.088  0.5334  0.3203 -0.9730
  315MOL0    Cl42435   3.436  10.876   6.068  0.2407  0.3451 -0.7876
  315MOL0     C42436   2.757  10.903   7.068  0.2795  0.0203 -0.3177
  315MOL0     C42437   2.750  10.867   7.212  1.3952 -0.0832 -1.1795
  315MOL0     O42438   2.999  10.603   7.401 -0.0890  0.8390  0.5952
  315MOL0     C42439   2.824  10.757   7.659 -0.7252  0.2290  1.2565
  315MOL0     C42440   2.806  10.768   7.793 -0.3878  0.1412  0.1219
  315MOL0     N42441   2.384  10.649   8.069 -0.2725  0.8909  0.3249
  315MOL0     N42442   2.333  10.724   7.991 -0.1534  0.1914  0.3554
  315MOL0     C42443   2.416  10.964   6.894  0.5427 -0.3771 -0.2127
  315MOL0     C42444   2.493  10.990   6.779 -0.9753 -0.3751 -0.0368
  315MOL0     C42445   2.588  11.128   6.348 -0.0612 -0.0230 -0.4158
  315MOL0     C42446   2.614  11.242   6.263 -0.4061 -0.2875 -0.1952
  315MOL0     C42447   2.664  11.224   6.131  0.3705  0.9351  0.9143
  315MOL0     C42448   2.722  11.096   6.099 -0.3806 -0.8433 -0.2203
  315MOL0     O42449   2.787  11.075   5.977 -0.2902  0.1407 -0.3050
  315MOL0     C42450   2.748  10.958   5.912  0.1231  0.8175 -0.3892
  315MOL0     C42451   2.744  10.990   5.767 -0.2003  0.0273 -0.0659
  315MOL0     C42452   2.671  10.882   5.693  0.2905 -0.6005 -0.0975
  315MOL0     C42453   2.721  10.737   5.713 -1.0431  0.2334 -0.1988
  315MOL0     C42454   2.848  10.710   5.649 -0.8620 -0.8880 -0.0761
  315MOL0     C42455   2.957  10.685   5.603 -0.3588 -0.8656  0.1883
  315MOL0     C42456   2.702  10.980   6.185 -0.7922 -0.0362 -0.2172
  315MOL0     C42457   2.631  10.997   6.305 -0.5109  0.4726  1.8119
  315MOL0     H42458   2.263  11.163   6.597 -1.1322 -0.2923  1.1129
  315MOL0     H42459   2.131  11.119   6.800 -0.4287 -3.1214 -1.9174
  315MOL0     H42460   2.380  11.154   7.082  0.8288 -0.8817  0.1309
  315MOL0     H42461   2.205  11.203   7.084 -3.0246 -2.0983  2.2254
  315MOL0     H42462   2.274  11.160   7.322  0.5153  0.5123 -1.0385
  315MOL0     H42463   2.184  11.018   7.271 -0.7080  1.3777  2.4290
  315MOL0     H42464   2.382  10.870   7.279 -2.7626  0.4588  0.2418
  315MOL0     H42465   2.493  11.006   7.286  0.6689 -3.0899 -2.5581
  315MOL0     H42466   2.418  11.070   7.504  4.7450 -0.7547 -0.6855
  315MOL0     H42467   2.277  10.963   7.492  0.1010 -1.2103 -1.7372
  315MOL0     H42468   2.463  10.777   7.497 -0.1327 -1.6268  2.2137
  315MOL0     H42469   2.574  10.909   7.554 -0.3184  1.6958 -1.6469
  315MOL0     H42470   2.319  10.822   7.677  0.0933 -0.5950  1.1085
  315MOL0     H42471   2.482  10.781   7.736  0.4086 -0.3386 -0.9262
  315MOL0     H42472   2.536  11.004   7.787 -0.1119  0.2446 -1.1361
  315MOL0     H42473   2.385  11.067   7.726  1.3438  0.3854 -0.2809
  315MOL0     H42474   2.255  10.962   7.907  0.0818  1.4123 -2.4552
  315MOL0     H42475   2.404  11.053   7.970  2.6298  1.5837 -2.8129
  315MOL0     H42476   2.602  10.892   8.083  0.7682 -0.5972 -1.0497
  315MOL0     H42477   2.628  10.692   8.296  1.6645 -1.3725 -0.1193
  315MOL0     H42478   2.476  10.616   8.317 -0.1269 -0.9788 -0.6142
  315MOL0     H42479   2.535  10.430   8.163 -0.6291  0.7607  0.8501
  315MOL0     H42480   2.671  10.443   8.265  0.3040 -1.0367 -1.3490
  315MOL0     H42481   2.664  10.560   7.979 -1.1452 -0.3715  0.5745
  315MOL0     H42482   2.748  10.416   8.051 -0.3540 -1.2165  2.7513
  315MOL0     H42483   2.927  10.522   8.115  0.1384  1.1278  2.6766
  315MOL0     H42484   2.824  10.630   8.210 -2.7934  1.4201 -0.2562
  315MOL0     H42485   3.031  10.547   7.900  0.5975  5.0746  3.4267
  315MOL0     H42486   3.033  10.410   7.606 -1.1256 -0.0769 -1.0791
  315MOL0     H42487   3.168  10.529   7.578 -1.0572  0.1607  0.0842
  315MOL0     H42488   3.146  10.433   7.715  0.2198 -3.5728 -2.8037
  315MOL0     H42489   2.910  10.574   7.182  1.4516  1.7122  1.4030
  315MOL0     H42490   2.925  10.638   6.961  2.2872  1.6561 -0.1147
  315MOL0     H42491   2.749  11.065   6.847 -0.3588  1.0982 -0.3514
  315MOL0     H42492   2.921  11.065   6.869  0.5173  0.5928 -0.6504
  315MOL0     H42493   2.774  10.961   6.628  0.2972 -0.8712  2.1082
  315MOL0     H42494   2.826  11.134   6.654 -2.7416 -0.1708  0.1206
  315MOL0     H42495   3.013  10.889   6.670 -0.7060 -0.4910  0.1537
  315MOL0     H42496   3.061  11.056   6.662  0.3689  0.7952 -1.7247
  315MOL0     H42497   2.916  10.916   6.424 -1.0325  1.2434  1.1589
  315MOL0     H42498   3.002  11.078   6.425 -1.1178  0.2707  0.2904
  315MOL0     H42499   3.131  10.798   6.464 -1.6659  0.1436 -1.3237
  315MOL0     H42500   3.213  10.959   6.483  1.9074  1.1343 -2.3061
  315MOL0     H42501   3.041  10.894   6.237 -0.9793  2.1271  0.3403
  315MOL0     H42502   3.168  11.013   6.252  0.4450 -0.5467 -0.4821
  315MOL0     H42503   3.179  10.713   6.265  2.1391 -1.2590  1.8086
  315MOL0     H42504   3.327  10.824   6.286  0.1219  0.9326 -0.4250
  315MOL0     H42505   3.199  10.884   6.044 -0.6351  0.2801  0.8048
  315MOL0     H42506   3.255  10.726   6.026  0.1533  0.5265 -1.1695
  315MOL0     H42507   2.723  11.002   7.039 -0.4610 -1.1520 -3.9582
  315MOL0     H42508   2.696  10.917   7.292  1.9849 -0.1401 -0.7419
  315MOL0     H42509   2.772  10.834   7.603  1.2657 -0.1295 -1.2686
  315MOL0     H42510   2.732  10.835   7.835 -0.2521 -0.3871  1.2263
  315MOL0     H42511   2.456  10.903   6.975 -0.9655 -0.6003  0.3829
  315MOL0     H42512   2.595  10.954   6.774 -0.9474 -0.1652 -1.9835
  315MOL0     H42513   2.571  11.337   6.290 -0.0781 -0.4468  0.9224
  315MOL0     H42514   2.666  11.294   6.048 -2.2149 -0.3412 -0.3572
  315MOL0     H42515   2.811  10.871   5.934 -0.1701  0.7665  0.2536
  315MOL0     H42516   2.647  10.936   5.947  1.5310  0.6855  4.2542
  315MOL0     H42517   2.847  11.000   5.731 -0.6250  2.3388 -0.8264
  315MOL0     H42518   2.689  11.084   5.756 -1.6577 -0.7393  0.3789
  315MOL0     H42519   2.664  10.908   5.587  1.2287  1.3447  0.2701
  315MOL0     H42520   2.567  10.890   5.727  0.3857  0.1491  0.0410
  315MOL0     H42521   2.644  10.670   5.673  0.7194 -1.7571 -0.3965
  315MOL0     H42522   2.735  10.703   5.816  1.9860  0.3601 -0.4913
  315MOL0     H42523   3.055  10.668   5.563  0.8708  1.9684  1.7289
  315MOL0     H42524   2.759  10.889   6.172  0.6663  0.9219 -0.6976
  315MOL0     H42525   2.625  10.919   6.381  0.9420 -2.0663 -0.5076
  316MOL0     O42526  10.317  10.561   3.496  0.0471 -0.2309  0.2465
  316MOL0     C42527  10.200  10.583   3.465  0.1157 -0.1576  0.3653
  316MOL0     O42528  10.116  10.682   3.530 -1.0606 -0.2085 -0.3735
  316MOL0     C42529  10.155  10.720   3.658  0.5505  0.2459  0.5214
  316MOL0     C42530  10.055  10.706   3.754  0.1101  1.0682  1.1029
  316MOL0     C42531  10.069  10.765   3.880  1.7352 -0.2117  0.6355
  316MOL0     C42532  10.182  10.847   3.918  0.6722  0.4500  1.0256
  316MOL0     O42533  10.183  10.925   4.031 -0.1886  1.2476 -0.3060
  316MOL0     C42534  10.065  10.931   4.117 -0.9095 -0.2242 -0.8405
  316MOL0     C42535  10.079  11.050   4.209 -0.4987  0.1636 -1.1067
  316MOL0     C42536  10.040  11.029   4.360 -0.2490  0.1208  1.0625
  316MOL0     C42537  10.137  10.936   4.438 -0.2222 -0.5496  0.6100
  316MOL0     C42538  10.076  10.915   4.575  0.5922 -0.5328 -0.1800
  316MOL0     C42539  10.185  10.834   4.656 -0.0669 -0.8107 -0.2685
  316MOL0     C42540  10.113  10.753   4.764 -0.0066  0.5198  0.2057
  316MOL0     C42541  10.221  10.691   4.858  0.6155  0.3694  0.8902
  316MOL0     N42542  10.309  10.599   4.784 -0.6883 -0.4215  1.1244
  316MOL0     C42543  10.445  10.619   4.741  1.0341 -1.1864 -0.5500
  316MOL0     C42544  10.489  10.491   4.714 -0.2703  0.1315 -0.1885
  316MOL0     C42545  10.621  10.458   4.647  0.4782 -0.0223 -0.8816
  316MOL0     C42546  10.656  10.533   4.520  0.0633  0.2362 -0.0232
  316MOL0     C42547  10.814  10.559   4.489  1.2999 -0.2410  0.3667
  316MOL0     C42548  10.892  10.662   4.562 -0.2159  0.6140 -0.2115
  316MOL0     O42549  11.031  10.640   4.560  0.0920 -0.3602 -0.1689
  316MOL0     C42550  11.117  10.742   4.518 -0.3094  0.3910 -1.6674
  316MOL0     C42551  11.083  10.878   4.514  0.0937  0.0562  0.2938
  316MOL0     C42552  11.170  10.983   4.487 -0.2567  0.0080  0.8210
  316MOL0     C42553  11.128  11.128   4.475  0.7945  0.0402  1.0900
  316MOL0     C42554  11.304  10.936   4.449  0.6209 -0.2624 -1.1554
  316MOL0     C42555  11.413  11.036   4.410 -0.7447  0.1784  0.2049
  316MOL0     O42556  11.524  11.007   4.477 -0.4820  0.9732 -0.9604
  316MOL0     C42557  11.627  11.096   4.468 -0.6108  0.7020  0.2007
  316MOL0     C42558  11.658  11.159   4.590 -0.0395 -0.0363 -0.0933
  316MOL0     C42559  11.773  11.243   4.596  0.7943 -0.2419  0.1911
  316MOL0     C42560  11.840  11.275   4.473  0.3553  0.0034  0.2536
  316MOL0     O42561  11.944  11.353   4.469  0.1547 -0.2005 -0.1230
  316MOL0     C42562  11.914  11.477   4.529 -0.7905  0.3912  0.1714
  316MOL0     C42563  12.013  11.581   4.464 -0.1501 -0.2584  0.2357
  316MOL0     C42564  12.025  11.568   4.313  0.5876  0.4179  0.0303
  316MOL0     C42565  11.899  11.593   4.245  1.0824  0.8179  0.3282
  316MOL0     C42566  11.913  11.597   4.081 -0.2102 -0.1314 -0.4320
  316MOL0     C42567  11.860  11.469   4.022  0.4078  0.4229  0.5572
  316MOL0     C42568  11.910  11.443   3.882 -0.0009 -0.2053 -0.3707
  316MOL0     C42569  11.890  11.568   3.792 -1.4143  0.1598 -0.0581
  316MOL0    Cl42570  11.935  11.526   3.623 -0.6261 -0.2423 -0.1293
  316MOL0     C42571  11.810  11.207   4.358  0.0538  0.0221  0.0571
  316MOL0     C42572  11.703  11.118   4.358  0.6129  1.0119  0.2408
  316MOL0     O42573  11.396  11.132   4.337  0.0145 -0.6389 -0.5154
  316MOL0     C42574  11.331  10.799   4.450  0.6465 -0.4569  0.6493
  316MOL0     C42575  11.242  10.702   4.481  0.2823  0.3141  0.4715
  316MOL0     N42576  10.385  10.403   4.736 -0.5769  0.2728  0.8951
  316MOL0     N42577  10.282  10.465   4.780 -0.5817 -0.0638 -0.5988
  316MOL0     C42578  10.279  10.856   3.817  0.0141 -0.5748  1.1093
  316MOL0     C42579  10.264  10.796   3.681 -0.2342 -0.1086 -1.5508
  316MOL0     C42580  10.144  10.521   3.335  0.1835  0.4983  0.3056
  316MOL0     C42581  10.013  10.556   3.294 -0.3064 -0.4628  0.1251
  316MOL0     C42582   9.964  10.496   3.183  0.9160  0.3979  0.1388
  316MOL0     C42583  10.029  10.392   3.116  0.0143 -0.7941  0.4620
  316MOL0     O42584   9.989  10.313   3.013 -0.4002 -0.2921 -0.2744
  316MOL0     C42585   9.861  10.259   3.043 -0.2010 -0.0296 -0.3073
  316MOL0     C42586   9.859  10.106   3.020 -0.5681 -0.2465 -0.0889
  316MOL0     C42587   9.980  10.026   3.075 -0.1963  0.2868 -0.1189
  316MOL0     C42588  10.089   9.996   2.974 -0.3188  0.5876  0.3232
  316MOL0     C42589  10.215   9.943   3.040 -0.2494 -0.1219  0.1231
  316MOL0     C42590  10.327   9.899   3.078 -0.1128 -0.2974 -0.2635
  316MOL0     C42591  10.148  10.348   3.157 -0.5210 -0.0132 -0.3580
  316MOL0     C42592  10.208  10.416   3.268  0.3185  0.1465 -1.2508
  316MOL0     H42593   9.958  10.668   3.725  0.3944  1.7292 -0.9167
  316MOL0     H42594   9.989  10.739   3.948  0.2400 -0.8174 -1.2627
  316MOL0     H42595   9.968  10.940   4.067 -3.9443  0.3653  4.4980
  316MOL0     H42596  10.054  10.837   4.172  1.8307 -0.9181 -1.3046
  316MOL0     H42597  10.184  11.081   4.208 -0.6969  1.0114  0.5715
  316MOL0     H42598  10.022  11.132   4.165 -0.1043 -0.4412 -2.8574
  316MOL0     H42599  10.039  11.122   4.416 -0.7959  0.2023  0.9175
  316MOL0     H42600   9.935  11.001   4.370 -0.7151  1.8540  1.2926
  316MOL0     H42601  10.163  10.837   4.398  1.0096  0.8437 -2.2497
  316MOL0     H42602  10.235  10.984   4.433 -0.5871  0.0492 -1.6158
  316MOL0     H42603  10.075  11.015   4.621  0.9803  0.5617 -2.4120
  316MOL0     H42604   9.974  10.879   4.587  0.9644 -1.0091  1.9241
  316MOL0     H42605  10.246  10.774   4.588  3.5098  1.6444  0.5116
  316MOL0     H42606  10.258  10.901   4.703 -0.3887 -0.5231 -0.1725
  316MOL0     H42607  10.037  10.813   4.814  1.7448  3.5968 -0.5474
  316MOL0     H42608  10.056  10.678   4.708  3.1145 -0.4334 -1.9835
  316MOL0     H42609  10.160  10.626   4.921 -1.5709 -2.7254 -3.7899
  316MOL0     H42610  10.281  10.768   4.905 -0.2074  1.0849  0.7935
  316MOL0     H42611  10.492  10.715   4.725  0.3439 -1.0111 -1.5725
  316MOL0     H42612  10.696  10.485   4.722 -0.5837  2.8546 -0.7553
  316MOL0     H42613  10.616  10.351   4.625 -4.7839  0.6104 -4.6061
  316MOL0     H42614  10.600  10.627   4.526 -0.6309 -0.2430  2.0492
  316MOL0     H42615  10.618  10.480   4.433 -1.0744  1.6743 -0.4398
  316MOL0     H42616  10.807  10.584   4.382 -0.3558 -2.4568 -0.1386
  316MOL0     H42617  10.866  10.463   4.489  5.6893  1.8288 -1.9632
  316MOL0     H42618  10.861  10.662   4.667  0.9535  0.4357  0.1515
  316MOL0     H42619  10.865  10.762   4.527 -1.8626  1.3453  2.7883
  316MOL0     H42620  10.988  10.912   4.554 -0.4235  0.3019 -1.0776
  316MOL0     H42621  11.194  11.199   4.526  1.6364 -0.0200  0.1083
  316MOL0     H42622  11.116  11.150   4.369 -0.8492 -5.1770 -0.1237
  316MOL0     H42623  11.033  11.139   4.528  0.0542 -2.7283  0.5300
  316MOL0     H42624  11.586  11.139   4.669  0.7941  2.3784  1.4055
  316MOL0     H42625  11.785  11.298   4.688 -1.5103  0.4800  0.1031
  316MOL0     H42626  11.812  11.514   4.515  0.0146  1.9217 -2.4102
  316MOL0     H42627  11.950  11.469   4.632  4.4870  0.9710 -1.3414
  316MOL0     H42628  11.973  11.678   4.495 -1.1698 -0.4374 -0.4578
  316MOL0     H42629  12.115  11.564   4.499  0.9180  0.7514 -2.1846
  316MOL0     H42630  12.070  11.471   4.290 -0.1061  0.3110 -0.9636
  316MOL0     H42631  12.102  11.642   4.288  0.5198  0.3883 -0.2770
  316MOL0     H42632  11.830  11.513   4.276  1.2669  2.0799  4.6736
  316MOL0     H42633  11.857  11.683   4.291  0.4867 -0.0412  1.5049
  316MOL0     H42634  12.019  11.609   4.057  0.3237  2.7306  2.5831
  316MOL0     H42635  11.871  11.693   4.049  1.8044  1.4240  1.2061
  316MOL0     H42636  11.896  11.381   4.076  0.6849 -0.0194 -0.3213
  316MOL0     H42637  11.751  11.477   4.017  0.1094 -0.5223  3.6028
  316MOL0     H42638  11.874  11.349   3.839  1.6963 -0.6706 -0.8738
  316MOL0     H42639  12.017  11.422   3.895 -0.6746 -1.8170  5.3646
  316MOL0     H42640  11.955  11.651   3.820 -0.0069 -1.0381  0.3278
  316MOL0     H42641  11.783  11.594   3.794 -1.4942 -0.1780  0.1342
  316MOL0     H42642  11.870  11.211   4.268 -1.5067  0.5985 -0.9862
  316MOL0     H42643  11.657  11.060   4.279 -5.3911 -0.7846  4.3807
  316MOL0     H42644  11.424  10.768   4.402  0.1784 -0.9247  0.0439
  316MOL0     H42645  11.265  10.596   4.481 -4.9096 -1.1425  2.6026
  316MOL0     H42646  10.372  10.910   3.831  1.2275 -1.9137 -1.2383
  316MOL0     H42647  10.339  10.805   3.603  1.0164 -4.2122 -1.0264
  316MOL0     H42648   9.956  10.635   3.342 -0.1744  0.3898 -1.0832
  316MOL0     H42649   9.864  10.516   3.145  1.2943  0.7047 -0.7094
  316MOL0     H42650   9.836  10.274   3.148  1.4199  3.0726 -0.2629
  316MOL0     H42651   9.778  10.299   2.984 -3.1236 -0.2214  3.3055
  316MOL0     H42652   9.847  10.092   2.912  0.7963 -1.4901 -0.1082
  316MOL0     H42653   9.766  10.065   3.061  0.5724 -1.3105  1.5633
  316MOL0     H42654   9.937   9.927   3.093 -0.7682  0.7872  1.3938
  316MOL0     H42655  10.019  10.067   3.169  2.5481  0.9839 -1.4465
  316MOL0     H42656  10.121  10.082   2.916  0.5399 -0.0704 -0.2093
  316MOL0     H42657  10.051   9.920   2.905  2.5385 -1.0399  0.4036
  316MOL0     H42658  10.421   9.857   3.109  0.3169  2.4663  2.6847
  316MOL0     H42659  10.191  10.265   3.103  0.3045 -1.1788  1.9524
  316MOL0     H42660  10.297  10.377   3.315 -2.4632 -0.2878  4.5121
  317MOL0     O42661   1.084   2.619   0.359 -1.0736 -0.6583  0.4834
  317MOL0     C42662   1.167   2.593   0.267  0.6083 -0.9468 -0.3144
  317MOL0     O42663   1.272   2.513   0.289 -0.6029 -0.3516  0.1305
  317MOL0     C42664   1.284   2.456   0.414  0.1305  0.7772 -0.0163
  317MOL0     C42665   1.401   2.501   0.485  0.4654  0.0138  1.0123
  317MOL0     C42666   1.437   2.434   0.595  0.8133  0.8179 -0.7237
  317MOL0     C42667   1.361   2.317   0.645  0.3651  0.6118  0.5914
  317MOL0     O42668   1.412   2.243   0.749 -0.0476 -0.1172 -0.7693
  317MOL0     C42669   1.490   2.126   0.707  0.5364 -0.1773 -0.3054
  317MOL0     C42670   1.466   2.001   0.796  0.8393  0.3233  0.5278
  317MOL0     C42671   1.529   1.882   0.719  0.2800 -0.3610 -0.0452
  317MOL0     C42672   1.684   1.872   0.731  0.5804  0.5834 -0.1028
  317MOL0     C42673   1.732   1.744   0.663 -0.8748  0.4114  0.5320
  317MOL0     C42674   1.881   1.727   0.678  0.1902  0.4477 -0.3869
  317MOL0     C42675   1.925   1.608   0.593  0.2033 -0.2105  0.1065
  317MOL0     C42676   2.070   1.573   0.615  0.0009 -0.1023  0.0050
  317MOL0     N42677   2.113   1.465   0.514 -0.1750 -0.4051 -0.0115
  317MOL0     C42678   2.088   1.328   0.508 -0.4413 -0.3451 -0.4874
  317MOL0     C42679   2.194   1.281   0.437 -0.5420 -0.8636  0.5198
  317MOL0     C42680   2.233   1.139   0.417  0.3094  0.8111  0.4442
  317MOL0     C42681   2.358   1.093   0.499 -0.5866  0.4719 -0.6612
  317MOL0     C42682   2.395   0.942   0.469 -0.1173 -0.8509  0.1081
  317MOL0     C42683   2.319   0.826   0.519  0.2664 -0.5084 -0.4369
  317MOL0     O42684   2.396   0.710   0.516 -0.0371  0.4790 -0.9205
  317MOL0     C42685   2.335   0.595   0.569 -1.1743  0.6658 -1.7395
  317MOL0     C42686   2.243   0.588   0.672 -0.6036 -0.3825  1.1759
  317MOL0     C42687   2.193   0.467   0.718  0.8905  0.7284  0.3013
  317MOL0     C42688   2.071   0.472   0.806  0.1904 -0.5880 -0.3184
  317MOL0     C42689   2.239   0.348   0.645 -0.3134 -0.6214 -1.0619
  317MOL0     C42690   2.186   0.214   0.682 -0.1260  1.0392 -0.0588
  317MOL0     O42691   2.113   0.206   0.804 -0.3405  0.4985  0.1428
  317MOL0     C42692   2.063   0.083   0.840  0.4459  0.6323 -0.4836
  317MOL0     C42693   2.146  -0.003   0.914 -0.3654 -0.6068  0.1695
  317MOL0     C42694   2.105  -0.127   0.954  1.4613 -0.1354 -0.9496
  317MOL0     C42695   1.970  -0.168   0.936 -0.0587 -0.5162  0.0856
  317MOL0     O42696   1.924  -0.290   0.983 -0.3871  0.0902 -0.5830
  317MOL0     C42697   2.000  -0.400   1.030  0.7197  1.4772  0.3427
  317MOL0     C42698   1.969  -0.524   0.953 -0.2310 -0.0773 -0.9825
  317MOL0     C42699   2.042  -0.639   1.019  0.0086 -0.0132  0.1020
  317MOL0     C42700   2.003  -0.769   0.954 -0.4490  0.9770  0.7193
  317MOL0     C42701   2.089  -0.883   1.026  0.4945 -0.1685 -0.2191
  317MOL0     C42702   2.231  -0.904   0.965 -0.1366 -0.1464 -0.1483
  317MOL0     C42703   2.258  -1.004   0.846  0.2314  0.5829 -0.5294
  317MOL0     C42704   2.230  -1.158   0.889 -0.0535 -0.4544 -0.2781
  317MOL0    Cl42705   2.341  -1.225   1.014  0.2958  0.5550  0.2337
  317MOL0     C42706   1.883  -0.088   0.863 -0.2967 -0.4147 -0.7837
  317MOL0     C42707   1.933   0.041   0.817  0.3822 -0.2673  0.3763
  317MOL0     O42708   2.212   0.124   0.611 -0.8875  0.2019 -0.4071
  317MOL0     C42709   2.337   0.354   0.541  0.1679  0.9400 -0.0778
  317MOL0     C42710   2.383   0.481   0.512  0.1667  0.3905 -0.1434
  317MOL0     N42711   2.274   1.391   0.398 -0.1257  0.2725  0.5979
  317MOL0     N42712   2.223   1.503   0.436 -0.1914  0.2107  0.2999
  317MOL0     C42713   1.239   2.281   0.583 -0.4945 -0.4368  0.6424
  317MOL0     C42714   1.200   2.350   0.468  0.1645 -0.9211  0.4580
  317MOL0     C42715   1.142   2.644   0.130 -0.9945  0.1130 -0.4758
  317MOL0     C42716   1.238   2.616   0.028  0.4104 -0.5059 -0.2476
  317MOL0     C42717   1.194   2.661  -0.102 -0.0142 -0.4347 -0.0307
  317MOL0     C42718   1.068   2.712  -0.137 -1.3511  0.7769  0.6109
  317MOL0     O42719   1.035   2.743  -0.273 -0.0865 -0.3326 -0.4893
  317MOL0     C42720   0.903   2.741  -0.310  0.1376 -0.1714 -0.3334
  317MOL0     C42721   0.898   2.751  -0.461 -0.4210  0.5528 -0.5270
  317MOL0     C42722   0.960   2.882  -0.521 -0.5722 -0.7476  0.3215
  317MOL0     C42723   0.895   2.924  -0.647  0.5031  0.7165 -0.0505
  317MOL0     C42724   0.967   3.028  -0.713  0.2469  0.5288  0.4711
  317MOL0     C42725   1.010   3.121  -0.784 -0.8900 -0.4590 -0.1898
  317MOL0     C42726   0.984   2.736  -0.029 -0.1720  0.8943  0.0310
  317MOL0     C42727   1.019   2.695   0.101  0.3450  0.4063 -0.4939
  317MOL0     H42728   1.460   2.572   0.429  0.5077 -0.9775 -0.2595
  317MOL0     H42729   1.526   2.461   0.651  0.6098 -1.4310  0.8029
  317MOL0     H42730   1.456   2.103   0.606  1.9057  0.5541 -0.9485
  317MOL0     H42731   1.596   2.151   0.698  0.1030  3.4859  2.4764
  317MOL0     H42732   1.510   2.008   0.896 -0.0158  1.1106  0.8607
  317MOL0     H42733   1.360   1.975   0.796  0.6865  0.7819  2.4531
  317MOL0     H42734   1.490   1.789   0.762  0.4903 -0.6735 -0.5189
  317MOL0     H42735   1.500   1.887   0.614  1.5161  2.8603 -0.3520
  317MOL0     H42736   1.733   1.965   0.700  0.9158  1.2035  2.1618
  317MOL0     H42737   1.716   1.856   0.834  0.3644  1.4803  0.1116
  317MOL0     H42738   1.669   1.661   0.696  1.1873 -1.9033 -1.0273
  317MOL0     H42739   1.720   1.748   0.554 -0.4504  0.5428  0.4900
  317MOL0     H42740   1.934   1.821   0.658 -1.0053  1.0524 -0.8266
  317MOL0     H42741   1.900   1.714   0.785 -2.9569  2.1490  0.4978
  317MOL0     H42742   1.871   1.523   0.635 -1.9745  1.0297 -0.0614
  317MOL0     H42743   1.905   1.619   0.486  0.2639  0.5548  0.1714
  317MOL0     H42744   2.084   1.551   0.721 -1.0940 -1.1478 -0.0314
  317MOL0     H42745   2.123   1.667   0.597  0.9723 -0.7897 -0.7846
  317MOL0     H42746   2.007   1.273   0.556 -0.3777  0.7883  0.9625
  317MOL0     H42747   2.148   1.073   0.436  0.7402  0.5938  1.7056
  317MOL0     H42748   2.254   1.130   0.310 -1.3289 -1.0701  0.2113
  317MOL0     H42749   2.339   1.108   0.606 -1.1405  2.0236 -0.9594
  317MOL0     H42750   2.447   1.151   0.473 -0.2754  1.3383  2.0520
  317MOL0     H42751   2.499   0.927   0.501 -0.9568 -2.6559  2.2267
  317MOL0     H42752   2.386   0.940   0.360 -0.8130 -0.6993  0.1585
  317MOL0     H42753   2.222   0.820   0.469 -0.9314 -3.2094  1.9287
  317MOL0     H42754   2.307   0.841   0.626  1.0494  2.7894 -0.7136
  317MOL0     H42755   2.201   0.680   0.711 -1.9180 -0.8284  0.8774
  317MOL0     H42756   1.979   0.446   0.753  0.9718  0.1322 -2.1163
  317MOL0     H42757   2.080   0.412   0.897  0.2389 -0.8606 -0.5018
  317MOL0     H42758   2.061   0.576   0.840 -1.0403  0.8276 -4.3769
  317MOL0     H42759   2.246   0.036   0.926  0.7163 -1.9155 -3.4621
  317MOL0     H42760   2.171  -0.202   0.996 -1.0161 -0.4954  2.7402
  317MOL0     H42761   2.107  -0.381   1.024  0.8233  0.5064 -2.5169
  317MOL0     H42762   1.959  -0.419   1.130 -0.8756 -1.1888 -0.7124
  317MOL0     H42763   1.860  -0.532   0.956 -0.1595 -1.6672  2.2126
  317MOL0     H42764   2.001  -0.505   0.850  2.2271  0.1273 -0.2561
  317MOL0     H42765   2.034  -0.643   1.128 -0.7158 -2.6116  0.0228
  317MOL0     H42766   2.147  -0.624   0.992  0.3591 -1.7994  0.3760
  317MOL0     H42767   1.894  -0.770   0.964 -0.6942 -0.0811 -1.6017
  317MOL0     H42768   2.025  -0.770   0.847  0.5456  0.4111  0.9188
  317MOL0     H42769   2.032  -0.976   1.036 -2.3311  1.6420  2.2830
  317MOL0     H42770   2.089  -0.862   1.134 -3.0939 -1.6822  0.2139
  317MOL0     H42771   2.277  -0.811   0.930  0.6920 -1.5338 -3.0885
  317MOL0     H42772   2.295  -0.927   1.051 -3.5434 -1.8907  2.1503
  317MOL0     H42773   2.363  -0.990   0.819  0.6028  0.9809  1.0214
  317MOL0     H42774   2.184  -0.973   0.771 -0.9009 -2.0267 -0.6004
  317MOL0     H42775   2.231  -1.220   0.799 -1.3536  0.4977 -0.9967
  317MOL0     H42776   2.127  -1.156   0.928  0.3818  1.3521  0.9149
  317MOL0     H42777   1.784  -0.122   0.835 -0.3623 -0.8734 -0.0278
  317MOL0     H42778   1.883   0.103   0.744  0.4607 -2.4660 -1.6735
  317MOL0     H42779   2.362   0.260   0.493 -2.4738  0.1345 -0.0106
  317MOL0     H42780   2.452   0.486   0.428 -0.0965  1.8297 -0.3010
  317MOL0     H42781   1.184   2.190   0.605 -1.8154 -0.6417 -2.8481
  317MOL0     H42782   1.111   2.327   0.411  0.8879  0.2805 -1.2386
  317MOL0     H42783   1.333   2.568   0.050  3.2237  3.8637 -1.5206
  317MOL0     H42784   1.267   2.647  -0.181  1.1935  1.5249  0.6463
  317MOL0     H42785   0.846   2.653  -0.277 -2.1276  1.2594 -0.2105
  317MOL0     H42786   0.850   2.826  -0.267 -1.5766 -0.2342 -2.1947
  317MOL0     H42787   0.792   2.754  -0.488 -0.1075  4.0047 -1.8361
  317MOL0     H42788   0.941   2.668  -0.517 -0.0667  2.9436 -4.1060
  317MOL0     H42789   1.068   2.876  -0.530 -0.5813 -0.0546 -0.2553
  317MOL0     H42790   0.938   2.962  -0.450 -2.1474 -1.5429  0.7952
  317MOL0     H42791   0.796   2.965  -0.625  0.1083  0.1789 -0.7500
  317MOL0     H42792   0.881   2.840  -0.716  3.3747 -0.9748  1.2340
  317MOL0     H42793   1.059   3.203  -0.832 -0.4458  0.2356  1.3621
  317MOL0     H42794   0.881   2.767  -0.042  0.5179  4.1997  1.5131
  317MOL0     H42795   0.942   2.712   0.176  0.4266  2.1098 -0.7670
  318MOL0     O42796   3.012   2.668   6.593 -0.1305 -0.0738 -0.2832
  318MOL0     C42797   3.040   2.751   6.508  0.0280 -1.0204 -0.2614
  318MOL0     O42798   3.028   2.888   6.516 -0.0158  0.6726  0.3432
  318MOL0     C42799   2.948   2.959   6.606  0.6566  0.0728  0.0262
  318MOL0     C42800   2.960   3.099   6.604  0.4999 -0.4691 -0.0221
  318MOL0     C42801   2.913   3.177   6.710 -0.2830  0.4572 -0.0313
  318MOL0     C42802   2.824   3.114   6.800 -0.3480 -0.5398 -0.6604
  318MOL0     O42803   2.779   3.185   6.909 -0.5824  0.6544  0.8009
  318MOL0     C42804   2.869   3.281   6.964 -1.0207  0.1199 -0.4824
  318MOL0     C42805   2.811   3.323   7.098  0.5706 -0.4022 -0.1776
  318MOL0     C42806   2.678   3.396   7.098  0.1120  0.7751  0.2591
  318MOL0     C42807   2.650   3.485   7.227  0.1847 -0.1787 -0.7111
  318MOL0     C42808   2.648   3.407   7.350  0.2658 -0.2060 -0.2166
  318MOL0     C42809   2.602   3.499   7.466 -0.2041 -0.2486  0.8539
  318MOL0     C42810   2.629   3.433   7.604 -0.5138 -0.6680 -0.0851
  318MOL0     C42811   2.610   3.546   7.717  0.0170 -0.4275  0.6085
  318MOL0     N42812   2.468   3.580   7.729  0.6588 -0.6592  0.6247
  318MOL0     C42813   2.388   3.537   7.829 -0.3509  0.6335 -1.5258
  318MOL0     C42814   2.268   3.585   7.803 -0.5600  0.4110  0.3087
  318MOL0     C42815   2.148   3.579   7.893  0.2514 -0.5896  0.3884
  318MOL0     C42816   2.135   3.437   7.958 -0.0656 -0.8614 -0.8486
  318MOL0     C42817   2.007   3.414   8.047  1.3721 -0.0561 -0.7341
  318MOL0     C42818   1.869   3.389   7.982  0.7143  0.4845 -0.3042
  318MOL0     O42819   1.823   3.515   7.921  0.2503 -0.1924 -0.5652
  318MOL0     C42820   1.740   3.594   7.990 -0.6057 -0.4768 -0.3309
  318MOL0     C42821   1.631   3.529   8.058  0.2425 -0.5425 -1.5917
  318MOL0     C42822   1.543   3.608   8.137  0.6844  0.1310  0.0930
  318MOL0     C42823   1.439   3.535   8.217 -0.8029 -0.2280 -0.5464
  318MOL0     C42824   1.566   3.752   8.145  0.7568  0.0072  0.9528
  318MOL0     C42825   1.481   3.826   8.230  0.2644 -0.9370 -0.5222
  318MOL0     O42826   1.524   3.951   8.289  0.3939  0.5652 -0.2366
  318MOL0     C42827   1.438   4.015   8.373 -0.0666  0.5072  0.1718
  318MOL0     C42828   1.452   3.979   8.506  0.8266 -0.7529 -0.4822
  318MOL0     C42829   1.359   4.030   8.603 -0.0370 -0.2266  0.7631
  318MOL0     C42830   1.274   4.138   8.564 -0.0818  0.6695 -0.2928
  318MOL0     O42831   1.190   4.182   8.667 -0.3581  0.3991  0.5263
  318MOL0     C42832   1.111   4.302   8.636  0.0036  1.2105 -0.1857
  318MOL0     C42833   1.031   4.325   8.770 -0.7368 -0.4603  1.0669
  318MOL0     C42834   0.931   4.438   8.765 -0.0490  0.8599  0.0688
  318MOL0     C42835   0.893   4.485   8.909  0.4849 -0.3406  0.3144
  318MOL0     C42836   0.792   4.606   8.907  0.5337 -0.2492 -0.6443
  318MOL0     C42837   0.741   4.643   9.053 -0.9784 -0.4154 -0.6900
  318MOL0     C42838   0.629   4.748   9.055  0.6858 -0.1218 -0.3628
  318MOL0     C42839   0.583   4.773   9.200  0.9367  0.3307  0.7148
  318MOL0    Cl42840   0.468   4.636   9.239 -0.2312  0.1842 -0.0973
  318MOL0     C42841   1.274   4.180   8.432 -0.9577  0.1594 -0.2386
  318MOL0     C42842   1.349   4.117   8.336 -0.6825  0.3168 -0.1308
  318MOL0     O42843   1.364   3.782   8.234 -0.3923 -0.7663 -0.3230
  318MOL0     C42844   1.679   3.805   8.083 -0.0140  0.4579  0.1750
  318MOL0     C42845   1.767   3.728   8.005  1.1723 -0.4332 -0.2220
  318MOL0     N42846   2.287   3.676   7.693  0.3023  0.3458 -0.2097
  318MOL0     N42847   2.413   3.674   7.647  0.4165 -0.2967 -0.1260
  318MOL0     C42848   2.807   2.979   6.803  0.1533  0.3995 -0.5312
  318MOL0     C42849   2.859   2.903   6.701 -0.4538 -0.5321  0.4023
  318MOL0     C42850   3.118   2.698   6.398  0.4819 -0.1915  0.8031
  318MOL0     C42851   3.145   2.561   6.385 -0.2737  0.0133  0.2886
  318MOL0     C42852   3.224   2.507   6.284  0.0366 -0.3950  0.2007
  318MOL0     C42853   3.293   2.595   6.199  0.5407  0.3514  0.6869
  318MOL0     O42854   3.366   2.537   6.101 -0.7990 -0.5003 -0.0850
  318MOL0     C42855   3.439   2.612   6.003  0.7234 -0.0544  0.2432
  318MOL0     C42856   3.550   2.523   5.935  0.4974  0.0894 -0.0448
  318MOL0     C42857   3.659   2.492   6.047 -0.3597  0.7021  0.4110
  318MOL0     C42858   3.775   2.421   5.993  0.4333 -0.2310 -0.8042
  318MOL0     C42859   3.843   2.489   5.885 -0.8517 -0.4157 -1.0565
  318MOL0     C42860   3.872   2.526   5.771 -0.0072 -0.7843  0.0569
  318MOL0     C42861   3.275   2.732   6.218  0.5390 -0.1602  0.8562
  318MOL0     C42862   3.186   2.773   6.312  0.6846 -0.4411 -0.9232
  318MOL0     H42863   3.008   3.142   6.517  5.2642  0.0154  2.5445
  318MOL0     H42864   2.908   3.285   6.713 -1.2959  0.4652 -1.1031
  318MOL0     H42865   2.966   3.238   6.990 -1.0243  0.3359 -0.1036
  318MOL0     H42866   2.893   3.367   6.900  0.3670  1.0367  1.1995
  318MOL0     H42867   2.801   3.234   7.161 -2.8432  1.1405  1.6940
  318MOL0     H42868   2.888   3.388   7.142  1.0282 -2.3065  2.0249
  318MOL0     H42869   2.658   3.451   7.006 -0.1286 -0.5027 -0.4708
  318MOL0     H42870   2.598   3.322   7.110  0.3812  0.6443  1.4532
  318MOL0     H42871   2.731   3.558   7.239  1.0452 -0.8939 -1.8589
  318MOL0     H42872   2.550   3.523   7.207  1.2182  2.4980 -1.1897
  318MOL0     H42873   2.596   3.313   7.329  1.8973 -1.1101 -0.3154
  318MOL0     H42874   2.750   3.372   7.367 -1.0567 -4.0852  0.6373
  318MOL0     H42875   2.644   3.600   7.463  0.9421 -0.7431 -1.0894
  318MOL0     H42876   2.496   3.524   7.450  0.0901  0.6231  0.1788
  318MOL0     H42877   2.575   3.339   7.623 -0.3810 -0.5653  0.8431
  318MOL0     H42878   2.732   3.395   7.603 -0.5011 -0.6604 -1.1472
  318MOL0     H42879   2.662   3.638   7.689 -1.2812  0.3300  0.5544
  318MOL0     H42880   2.638   3.507   7.816 -1.4307  1.3573  1.8003
  318MOL0     H42881   2.416   3.477   7.915 -5.2153  2.7600  2.0118
  318MOL0     H42882   2.154   3.657   7.969 -2.5000 -1.0514  1.1671
  318MOL0     H42883   2.060   3.602   7.832  0.2278  1.2146  1.0493
  318MOL0     H42884   2.218   3.428   8.029 -0.8464  2.6441  0.6851
  318MOL0     H42885   2.148   3.345   7.900  5.3314 -1.6947  1.0573
  318MOL0     H42886   1.997   3.488   8.126  0.4488 -1.1846  0.2399
  318MOL0     H42887   2.025   3.321   8.102 -3.6964 -1.4499 -0.9555
  318MOL0     H42888   1.806   3.349   8.062 -1.9077  3.7173 -0.5038
  318MOL0     H42889   1.882   3.314   7.904 -1.5149  0.8247 -1.0952
  318MOL0     H42890   1.605   3.423   8.055 -0.7068 -0.3255 -1.3187
  318MOL0     H42891   1.467   3.429   8.214  1.1056  0.2617 -1.5617
  318MOL0     H42892   1.432   3.566   8.322  4.5366  2.4603 -0.6817
  318MOL0     H42893   1.343   3.548   8.167  0.6076 -3.0665 -4.4914
  318MOL0     H42894   1.515   3.892   8.524 -1.8151 -2.7670 -0.4402
  318MOL0     H42895   1.365   4.002   8.708 -2.5685  2.4348  1.7599
  318MOL0     H42896   1.185   4.380   8.616  3.8080 -1.5747  1.8510
  318MOL0     H42897   1.048   4.284   8.548 -0.6803  1.2206  0.2878
  318MOL0     H42898   0.984   4.231   8.799 -1.7834 -0.8332 -1.5857
  318MOL0     H42899   1.109   4.353   8.843  0.5054 -1.0630  0.0138
  318MOL0     H42900   0.840   4.403   8.716  0.3096  0.6465 -0.4415
  318MOL0     H42901   0.970   4.527   8.715  1.8181  1.5563  2.5211
  318MOL0     H42902   0.845   4.412   8.975 -4.1318 -0.6821 -2.9565
  318MOL0     H42903   0.994   4.507   8.946  1.8722 -3.3767 -1.3184
  318MOL0     H42904   0.706   4.594   8.841 -1.0288  0.7284  1.1042
  318MOL0     H42905   0.838   4.700   8.876 -2.3919  0.4981 -3.1187
  318MOL0     H42906   0.706   4.548   9.096  0.6770 -1.8485 -2.3685
  318MOL0     H42907   0.831   4.669   9.109 -0.8128 -0.2578 -1.0276
  318MOL0     H42908   0.546   4.728   8.987 -0.0272  2.8601 -0.5416
  318MOL0     H42909   0.674   4.842   9.020  3.1613 -1.0072  0.2951
  318MOL0     H42910   0.536   4.867   9.231  2.6553  1.3760  0.3287
  318MOL0     H42911   0.675   4.776   9.258  2.7190  1.9980 -1.9489
  318MOL0     H42912   1.206   4.256   8.395  3.3670  3.1046 -2.9519
  318MOL0     H42913   1.364   4.155   8.236 -0.5987 -0.1752 -0.3111
  318MOL0     H42914   1.694   3.912   8.096 -0.9317  0.9397 -2.2514
  318MOL0     H42915   1.847   3.770   7.944 -0.6275  4.3973  0.3203
  318MOL0     H42916   2.744   2.926   6.875  0.0190  0.8317 -0.3310
  318MOL0     H42917   2.825   2.801   6.706 -0.7571 -0.3629  2.7889
  318MOL0     H42918   3.099   2.478   6.437 -1.6290 -0.8470 -2.1361
  318MOL0     H42919   3.239   2.400   6.272  2.6756 -0.3709  2.5193
  318MOL0     H42920   3.366   2.643   5.928  0.7477 -0.1024  0.2001
  318MOL0     H42921   3.493   2.700   6.041  2.2636 -1.3585  1.2192
  318MOL0     H42922   3.592   2.577   5.850 -0.1420 -0.5723 -0.8045
  318MOL0     H42923   3.508   2.435   5.884 -0.9692  1.8410 -2.0581
  318MOL0     H42924   3.618   2.423   6.121  0.3762 -1.9515 -1.5150
  318MOL0     H42925   3.693   2.584   6.095  4.4747 -1.4439  1.6610
  318MOL0     H42926   3.739   2.324   5.958 -0.8791 -0.0839  0.0646
  318MOL0     H42927   3.844   2.396   6.073  0.4012  1.7860 -0.0944
  318MOL0     H42928   3.900   2.549   5.670 -1.2985 -0.1810 -0.1753
  318MOL0     H42929   3.319   2.813   6.160 -2.4000  0.4711 -0.7363
  318MOL0     H42930   3.171   2.880   6.324 -2.8902 -0.4079 -3.8144
  319MOL0     O42931   1.680   1.197  10.109  1.0272 -1.6477  0.0994
  319MOL0     C42932   1.599   1.189  10.205  0.3600 -0.8868  0.1343
  319MOL0     O42933   1.583   1.070  10.277 -0.2128  0.1696  0.7384
  319MOL0     C42934   1.632   0.954  10.226 -0.4439  0.5964  0.2975
  319MOL0     C42935   1.714   0.864  10.306 -0.0565  0.1778 -0.8517
  319MOL0     C42936   1.755   0.744  10.247 -0.4464 -0.6375  0.2106
  319MOL0     C42937   1.736   0.706  10.116  1.1038 -1.0537 -0.4225
  319MOL0     O42938   1.799   0.596  10.067  0.4230 -0.2340  0.1420
  319MOL0     C42939   1.748   0.529   9.958  0.1414 -0.0808  0.1728
  319MOL0     C42940   1.621   0.458   9.987 -0.2980 -0.3111 -0.0830
  319MOL0     C42941   1.552   0.397   9.866  0.3286  0.5937 -0.6794
  319MOL0     C42942   1.629   0.274   9.820 -0.4144  0.2028 -0.3083
  319MOL0     C42943   1.546   0.217   9.699 -0.7365 -0.5674 -0.7301
  319MOL0     C42944   1.425   0.131   9.729  1.4368 -0.8090  0.0678
  319MOL0     C42945   1.379   0.045   9.606 -0.0228 -0.3962 -0.2349
  319MOL0     C42946   1.314   0.140   9.503  0.4490 -0.0550 -0.2116
  319MOL0     N42947   1.272   0.081   9.384 -0.1645 -0.2984  0.3947
  319MOL0     C42948   1.263   0.145   9.259  0.0603  0.2967 -0.9027
  319MOL0     C42949   1.255   0.050   9.164  0.1198  0.2502 -0.7344
  319MOL0     C42950   1.250   0.084   9.018  0.2522 -0.7107  0.4822
  319MOL0     C42951   1.121   0.149   8.958 -0.4824  0.4213  0.9329
  319MOL0     C42952   1.091   0.283   9.014 -0.3816 -0.3301 -0.2021
  319MOL0     C42953   0.947   0.339   9.001 -0.7930  0.5776 -0.0812
  319MOL0     O42954   0.860   0.266   9.091  0.0727  0.0382  0.2715
  319MOL0     C42955   0.876   0.275   9.224 -0.3784 -0.9168  1.0814
  319MOL0     C42956   0.889   0.403   9.278 -0.8523  0.5840 -0.0024
  319MOL0     C42957   0.919   0.414   9.416  0.2151 -0.3964 -0.5531
  319MOL0     C42958   0.911   0.561   9.474 -0.8967 -0.5708 -0.4319
  319MOL0     C42959   0.948   0.300   9.495  0.6898  0.3056 -0.1410
  319MOL0     C42960   1.000   0.315   9.631  0.9002  0.6106  0.7623
  319MOL0     O42961   0.996   0.203   9.715 -0.2388  0.7732  0.4070
  319MOL0     C42962   1.072   0.202   9.832  0.7571  0.5779  0.9280
  319MOL0     C42963   1.124   0.080   9.865  0.1838  0.3022 -0.0346
  319MOL0     C42964   1.214   0.058   9.970  0.5099 -0.2832  0.6649
  319MOL0     C42965   1.257   0.155  10.051  0.1257 -0.7683  0.5393
  319MOL0     O42966   1.320   0.128  10.171  0.9489 -0.0788  0.2460
  319MOL0     C42967   1.447   0.180  10.195  0.0641  0.3287 -0.6115
  319MOL0     C42968   1.502   0.150  10.331 -0.4787 -0.2662  0.8130
  319MOL0     C42969   1.545  -0.000  10.349 -0.5263 -1.0791 -0.0211
  319MOL0     C42970   1.691  -0.019  10.305  0.4328  0.1357 -1.1327
  319MOL0     C42971   1.726  -0.166  10.287  0.0389  0.2462 -0.2333
  319MOL0     C42972   1.871  -0.183  10.243  0.3067 -0.0372 -0.6548
  319MOL0     C42973   1.990  -0.161  10.343 -0.3305 -0.1540 -0.6184
  319MOL0     C42974   2.048  -0.022  10.333  0.7290  0.1628 -0.4016
  319MOL0    Cl42975   2.172  -0.005  10.446  0.4824 -0.4062 -0.4294
  319MOL0     C42976   1.215   0.285  10.014 -0.1969  0.5519  0.9242
  319MOL0     C42977   1.129   0.311   9.900 -0.6514  0.2738  0.2403
  319MOL0     O42978   1.081   0.402   9.638  0.4892  0.0790 -0.4965
  319MOL0     C42979   0.942   0.174   9.428 -0.4486  0.3594  0.3375
  319MOL0     C42980   0.905   0.165   9.297 -0.9757  0.8122 -0.1100
  319MOL0     N42981   1.250  -0.078   9.224 -0.0594 -1.0811 -0.0959
  319MOL0     N42982   1.255  -0.059   9.354 -0.4512 -0.0734 -0.4151
  319MOL0     C42983   1.650   0.789  10.044 -0.1912  0.1091  0.1247
  319MOL0     C42984   1.595   0.912  10.095 -0.0492 -0.3443  0.5273
  319MOL0     C42985   1.517   1.303  10.251 -0.1561  0.0043 -0.1686
  319MOL0     C42986   1.510   1.409  10.167  0.2254 -0.2459 -0.3001
  319MOL0     C42987   1.430   1.515  10.196  0.4867  0.0685 -0.0303
  319MOL0     C42988   1.346   1.520  10.305  0.0864 -0.1823 -0.3298
  319MOL0     O42989   1.258   1.622  10.327  0.5074  0.1614  0.4228
  319MOL0     C42990   1.173   1.657  10.223 -0.1568 -1.2315  0.0069
  319MOL0     C42991   1.018   1.643  10.254 -1.2087 -0.0288  0.0467
  319MOL0     C42992   0.969   1.705  10.379  0.9372 -0.7511 -0.0997
  319MOL0     C42993   0.966   1.595  10.482 -0.3538  0.5360  0.0614
  319MOL0     C42994   0.959   1.644  10.617 -0.0021  0.7112  0.0261
  319MOL0     C42995   0.929   1.682  10.726 -0.3558  0.5088 -0.6422
  319MOL0     C42996   1.332   1.409  10.391 -0.6264 -0.0591  0.4123
  319MOL0     C42997   1.415   1.299  10.360 -0.3329 -0.2880 -0.1527
  319MOL0     H42998   1.742   0.904  10.403  1.8175 -2.1755 -0.3371
  319MOL0     H42999   1.836   0.683  10.284  4.4414  2.2599 -4.2458
  319MOL0     H43000   1.732   0.602   9.878 -2.7497  0.7145  1.3385
  319MOL0     H43001   1.814   0.454   9.914 -0.7116  0.5590 -2.4099
  319MOL0     H43002   1.637   0.381  10.063 -2.0492  0.9913  1.7228
  319MOL0     H43003   1.554   0.527  10.039  1.0955 -0.7378  2.4461
  319MOL0     H43004   1.449   0.380   9.897  1.6121 -2.1581  2.7372
  319MOL0     H43005   1.554   0.470   9.784 -2.4068 -1.9041 -3.2214
  319MOL0     H43006   1.729   0.304   9.788 -0.2942  0.1769  0.0422
  319MOL0     H43007   1.659   0.199   9.894 -2.0500  0.3732  0.5708
  319MOL0     H43008   1.507   0.292   9.629  2.0938  1.5827 -0.2221
  319MOL0     H43009   1.602   0.139   9.646 -1.6356 -2.6590  1.2659
  319MOL0     H43010   1.447   0.075   9.820 -0.0921 -2.6408 -0.6304
  319MOL0     H43011   1.341   0.199   9.749  1.6363 -1.0682  1.9570
  319MOL0     H43012   1.463  -0.005   9.556 -1.1609 -3.0658  0.3616
  319MOL0     H43013   1.310  -0.033   9.638 -1.8586  2.4490  3.6564
  319MOL0     H43014   1.390   0.216   9.485  2.7348 -2.3594 -0.9935
  319MOL0     H43015   1.226   0.186   9.549  1.0628 -0.6787  1.6813
  319MOL0     H43016   1.276   0.251   9.243 -1.1534  0.5223 -0.4399
  319MOL0     H43017   1.332   0.154   9.000 -0.2434 -0.7392 -2.2407
  319MOL0     H43018   1.260  -0.007   8.958 -0.9643 -1.4903  1.4177
  319MOL0     H43019   1.031   0.090   8.975 -0.2698  0.1338  1.0786
  319MOL0     H43020   1.141   0.147   8.850 -0.0312  0.1420  1.0185
  319MOL0     H43021   1.157   0.355   8.964 -3.5853  1.4834 -2.1702
  319MOL0     H43022   1.121   0.297   9.119 -3.8184  2.7131  0.5822
  319MOL0     H43023   0.908   0.327   8.900  2.4053 -2.5475 -1.1187
  319MOL0     H43024   0.939   0.447   9.016 -1.0527  0.4352  0.8910
  319MOL0     H43025   0.872   0.488   9.213 -0.8367  1.9277  1.6500
  319MOL0     H43026   0.879   0.567   9.578 -4.5047 -0.6614 -1.4138
  319MOL0     H43027   1.005   0.617   9.469 -0.0543 -1.7928  0.8105
  319MOL0     H43028   0.832   0.612   9.419  0.1978 -0.4734 -1.9641
  319MOL0     H43029   1.109  -0.002   9.794  3.5031 -0.8059  0.3395
  319MOL0     H43030   1.255  -0.041   9.989 -1.4759 -0.9983  1.4605
  319MOL0     H43031   1.506   0.132  10.117 -1.5620 -4.0486  0.5557
  319MOL0     H43032   1.444   0.289  10.203 -2.8626  0.5221 -2.8359
  319MOL0     H43033   1.581   0.226  10.335 -1.0482  0.5363 -1.6065
  319MOL0     H43034   1.433   0.186  10.408 -3.0210  0.8027 -1.7870
  319MOL0     H43035   1.479  -0.061  10.286  0.3098 -1.2788 -0.7167
  319MOL0     H43036   1.546  -0.029  10.455  0.1062 -3.0854 -0.5232
  319MOL0     H43037   1.690   0.033  10.209 -3.0554  0.7984 -0.8552
  319MOL0     H43038   1.758   0.029  10.377 -0.9998 -1.7089  1.6473
  319MOL0     H43039   1.660  -0.208  10.211 -1.0786  1.6996 -0.1166
  319MOL0     H43040   1.712  -0.214  10.384 -2.2322  0.2258 -0.5325
  319MOL0     H43041   1.880  -0.284  10.202  3.6600  1.2373 -3.5146
  319MOL0     H43042   1.869  -0.117  10.156  0.2299  0.0767 -0.5661
  319MOL0     H43043   2.077  -0.220  10.315 -0.5556 -1.6229  1.5696
  319MOL0     H43044   1.956  -0.178  10.446 -0.8999  0.4679 -0.6957
  319MOL0     H43045   1.965   0.046  10.357  1.4363  1.3918 -1.3431
  319MOL0     H43046   2.085  -0.004  10.232 -1.1799 -2.9637 -1.8081
  319MOL0     H43047   1.237   0.370  10.079 -0.4266 -0.5631  2.5113
  319MOL0     H43048   1.088   0.410   9.887  2.2326  1.6161  0.7518
  319MOL0     H43049   0.990   0.089   9.477  0.5935 -0.8892 -2.5996
  319MOL0     H43050   0.897   0.069   9.246 -0.1055  1.3636 -1.3417
  319MOL0     H43051   1.630   0.778   9.937  2.0031 -1.8564 -0.1507
  319MOL0     H43052   1.537   0.979  10.031  0.1451 -1.4549 -0.8412
  319MOL0     H43053   1.583   1.418  10.087  0.2491 -2.0505 -0.5280
  319MOL0     H43054   1.437   1.596  10.124 -1.6350  0.5623  0.2420
  319MOL0     H43055   1.198   1.751  10.174  0.0178 -2.0152 -1.4923
  319MOL0     H43056   1.197   1.592  10.138  0.2371  1.3425 -1.9755
  319MOL0     H43057   0.995   1.536  10.249  0.4782 -0.4373  0.6218
  319MOL0     H43058   0.971   1.703  10.175  1.4628  3.0218  0.5685
  319MOL0     H43059   0.867   1.733  10.354  0.7423  1.4811  2.6513
  319MOL0     H43060   1.015   1.799  10.410 -2.5679  1.2441 -0.5013
  319MOL0     H43061   1.058   1.535  10.478 -1.4364 -1.4084  2.0828
  319MOL0     H43062   0.893   1.517  10.458  0.4813 -0.9666  2.0621
  319MOL0     H43063   0.918   1.720  10.826 -1.3970  3.3043 -1.7224
  319MOL0     H43064   1.251   1.404  10.464 -0.1340 -0.6192  0.9419
  319MOL0     H43065   1.419   1.211  10.422  1.1972 -0.2990 -0.2298
  320MOL0     O43066   0.183   1.880   5.183  0.0817 -0.4188  0.7076
  320MOL0     C43067   0.235   1.986   5.183  0.4517  0.2941 -0.2740
  320MOL0     O43068   0.184   2.095   5.120  0.1592 -0.5973  0.2419
  320MOL0     C43069   0.057   2.091   5.068  0.5047  0.5799  0.2532
  320MOL0     C43070   0.041   2.065   4.930  0.6659 -0.5298  0.4666
  320MOL0     C43071  -0.079   2.038   4.885  0.8961  0.0814  0.4590
  320MOL0     C43072  -0.199   2.037   4.964 -0.3415 -0.0156 -0.4733
  320MOL0     O43073  -0.321   2.016   4.898 -0.8659 -1.2683 -0.1033
  320MOL0     C43074  -0.341   1.878   4.848  0.0205  0.7185  0.1563
  320MOL0     C43075  -0.323   1.874   4.696 -0.4392 -0.3132  0.4861
  320MOL0     C43076  -0.372   1.761   4.620  0.0845 -0.3296 -0.2216
  320MOL0     C43077  -0.273   1.643   4.611 -0.3025 -0.3901  0.6225
  320MOL0     C43078  -0.340   1.541   4.519 -0.4786 -0.3720  0.0317
  320MOL0     C43079  -0.255   1.412   4.525  0.6280  0.8217 -0.0840
  320MOL0     C43080  -0.325   1.303   4.447  0.0857  0.0066 -0.2535
  320MOL0     C43081  -0.309   1.313   4.296  0.1400  1.3355 -0.5503
  320MOL0     N43082  -0.375   1.201   4.222  1.2109  0.6887  1.0747
  320MOL0     C43083  -0.512   1.167   4.230 -0.2495 -0.3299  0.2634
  320MOL0     C43084  -0.535   1.085   4.122  0.5102  0.2739  0.4762
  320MOL0     C43085  -0.660   1.018   4.089  0.6574  0.2763 -1.1533
  320MOL0     C43086  -0.775   1.109   4.058  0.1218  0.1965 -0.6057
  320MOL0     C43087  -0.755   1.220   3.950  0.4132 -0.6047  0.4306
  320MOL0     C43088  -0.722   1.158   3.808  0.4135  0.5806 -0.6923
  320MOL0     O43089  -0.728   1.241   3.691  0.2070 -0.0088  0.8401
  320MOL0     C43090  -0.632   1.329   3.657  0.5505  0.6238  0.0762
  320MOL0     C43091  -0.514   1.336   3.732 -0.3593  0.1849 -0.5230
  320MOL0     C43092  -0.413   1.435   3.702 -0.7725 -0.2791 -0.3963
  320MOL0     C43093  -0.300   1.439   3.806  0.5969  0.5113  0.4321
  320MOL0     C43094  -0.428   1.507   3.577 -0.3600 -0.1402  0.6156
  320MOL0     C43095  -0.321   1.602   3.525  0.2379 -0.8082 -0.0401
  320MOL0     O43096  -0.329   1.653   3.400  0.4802  0.3529  0.2739
  320MOL0     C43097  -0.241   1.734   3.331 -0.4103 -0.7957  0.0830
  320MOL0     C43098  -0.173   1.847   3.392  1.0415 -0.3732  0.7691
  320MOL0     C43099  -0.112   1.941   3.306 -0.6976 -0.0757 -0.1720
  320MOL0     C43100  -0.111   1.931   3.169 -0.5353  0.2603  0.6821
  320MOL0     O43101  -0.064   2.040   3.099  0.0786  0.2736  0.4602
  320MOL0     C43102  -0.060   2.026   2.953  0.5388  0.5771 -0.6493
  320MOL0     C43103   0.068   1.954   2.905  0.5132 -0.4078  0.0870
  320MOL0     C43104   0.188   2.022   2.984  0.4982  0.1085  0.0593
  320MOL0     C43105   0.326   1.967   2.928  0.1239 -0.3188 -0.4214
  320MOL0     C43106   0.436   2.027   3.015 -0.2318 -0.4477 -0.4557
  320MOL0     C43107   0.583   1.986   2.988 -0.3351 -0.3305 -0.7490
  320MOL0     C43108   0.636   2.020   2.848 -0.1932  0.8067 -1.1276
  320MOL0     C43109   0.696   1.908   2.767 -0.6590  0.8647 -0.0962
  320MOL0    Cl43110   0.564   1.778   2.758  0.0359 -0.1618  0.1428
  320MOL0     C43111  -0.167   1.816   3.114 -0.3663 -0.2488 -0.1170
  320MOL0     C43112  -0.230   1.714   3.197  0.0282 -0.4186 -0.3038
  320MOL0     O43113  -0.230   1.634   3.603  0.2641  0.0257  0.4299
  320MOL0     C43114  -0.547   1.485   3.498  0.3511  0.1526  0.3932
  320MOL0     C43115  -0.647   1.396   3.535 -0.6901 -0.0869 -0.2914
  320MOL0     N43116  -0.422   1.075   4.047 -0.6418 -0.0412  0.2584
  320MOL0     N43117  -0.328   1.140   4.109  1.2612 -0.8703 -0.1340
  320MOL0     C43118  -0.189   2.074   5.104 -0.7197  0.0376  0.2369
  320MOL0     C43119  -0.058   2.092   5.162 -0.3676  1.3992 -0.1887
  320MOL0     C43120   0.357   2.004   5.263  0.5873 -0.0650 -0.5589
  320MOL0     C43121   0.431   2.121   5.259  0.3037  0.3925 -0.9585
  320MOL0     C43122   0.551   2.137   5.329 -0.2567  0.1149 -0.3634
  320MOL0     C43123   0.614   2.038   5.393  0.0666  0.2427  0.4881
  320MOL0     O43124   0.737   2.050   5.445 -0.0313 -0.6996 -0.3002
  320MOL0     C43125   0.840   1.945   5.426  0.4309  0.0874  0.0811
  320MOL0     C43126   0.982   2.001   5.449 -0.2806 -0.2906 -0.0954
  320MOL0     C43127   1.101   1.909   5.414 -0.3284  0.2001 -0.2709
  320MOL0     C43128   1.236   1.981   5.390 -0.0409  0.4498  0.3006
  320MOL0     C43129   1.293   2.033   5.511  1.1838  0.3559 -0.3791
  320MOL0     C43130   1.320   2.071   5.624 -0.7146  1.0362  0.5370
  320MOL0     C43131   0.533   1.915   5.403  0.0137  0.0947 -0.7096
  320MOL0     C43132   0.411   1.901   5.338 -0.0297 -0.4259  0.6946
  320MOL0     H43133   0.127   2.056   4.864  2.0504  0.0389  2.1401
  320MOL0     H43134  -0.087   2.024   4.777  1.8575  3.2543 -0.1205
  320MOL0     H43135  -0.269   1.805   4.886  0.0677  1.7290  2.1953
  320MOL0     H43136  -0.441   1.840   4.873  0.2264 -1.1687 -1.6428
  320MOL0     H43137  -0.380   1.962   4.666 -0.1540 -0.3983 -0.3298
  320MOL0     H43138  -0.215   1.879   4.683 -0.5178  0.1331 -0.0051
  320MOL0     H43139  -0.466   1.727   4.664  1.8342 -1.8935  2.6371
  320MOL0     H43140  -0.385   1.800   4.519  1.9528  1.9838  0.3262
  320MOL0     H43141  -0.168   1.669   4.594  0.8736 -4.5676  0.3011
  320MOL0     H43142  -0.270   1.590   4.707  1.3741 -2.7406 -0.6053
  320MOL0     H43143  -0.443   1.508   4.533  0.4134 -4.9818 -2.2550
  320MOL0     H43144  -0.330   1.589   4.421  0.7764 -0.6997 -0.0094
  320MOL0     H43145  -0.154   1.426   4.487  2.0013  1.9764  3.5146
  320MOL0     H43146  -0.226   1.386   4.627 -0.6257 -0.9121 -0.1299
  320MOL0     H43147  -0.296   1.202   4.479 -1.1623 -0.8252 -1.6729
  320MOL0     H43148  -0.432   1.302   4.466 -0.2717  1.9007 -1.9924
  320MOL0     H43149  -0.202   1.305   4.274  0.6543  0.6334  1.9333
  320MOL0     H43150  -0.351   1.406   4.258 -0.4613  0.7776 -1.2771
  320MOL0     H43151  -0.581   1.190   4.311 -0.6370 -0.0201 -0.1521
  320MOL0     H43152  -0.641   0.949   4.007  1.9329 -2.9940  1.6592
  320MOL0     H43153  -0.693   0.951   4.169 -0.0396 -0.9594 -2.4429
  320MOL0     H43154  -0.824   1.146   4.149  1.0079  1.2927 -0.5444
  320MOL0     H43155  -0.854   1.049   4.012 -1.3845  2.4392 -1.1139
  320MOL0     H43156  -0.676   1.292   3.976 -1.4414  0.9066  2.1565
  320MOL0     H43157  -0.853   1.268   3.943  1.0134  0.8358  1.5024
  320MOL0     H43158  -0.802   1.086   3.790  2.1305 -0.8892 -3.1444
  320MOL0     H43159  -0.624   1.110   3.819 -0.6316 -0.9946  4.6669
  320MOL0     H43160  -0.496   1.275   3.820  2.1129  2.9217  1.0286
  320MOL0     H43161  -0.302   1.353   3.874 -0.0205  0.1544 -0.0265
  320MOL0     H43162  -0.201   1.447   3.762 -0.2790  2.2189 -1.3856
  320MOL0     H43163  -0.323   1.532   3.860 -0.1140  1.6411 -1.7198
  320MOL0     H43164  -0.188   1.858   3.499  0.2906 -0.1808  0.6495
  320MOL0     H43165  -0.068   2.035   3.339  0.2748  0.7839 -3.5836
  320MOL0     H43166  -0.152   1.977   2.920  0.3170  0.9916 -0.6519
  320MOL0     H43167  -0.061   2.127   2.909  0.4378 -0.1892 -2.4986
  320MOL0     H43168   0.066   1.847   2.927  0.0273 -0.1886  1.2048
  320MOL0     H43169   0.082   1.970   2.798  3.1881  5.7006  0.9168
  320MOL0     H43170   0.180   2.016   3.093  1.4149  3.1543  0.3877
  320MOL0     H43171   0.179   2.129   2.960 -0.4486  0.8165  3.1531
  320MOL0     H43172   0.337   1.860   2.947 -0.2716 -0.0772  1.3630
  320MOL0     H43173   0.346   1.997   2.825  1.5023 -2.6442 -0.9234
  320MOL0     H43174   0.414   2.028   3.122  2.0395  3.3309  0.1898
  320MOL0     H43175   0.438   2.130   2.976  0.3135 -1.2748 -2.7926
  320MOL0     H43176   0.649   2.022   3.067 -1.3240 -3.0821  1.5071
  320MOL0     H43177   0.586   1.879   3.010  1.5123 -0.0721  0.4413
  320MOL0     H43178   0.726   2.081   2.864 -0.6067  1.5039 -1.3802
  320MOL0     H43179   0.560   2.079   2.797 -1.0901  0.8612  0.2230
  320MOL0     H43180   0.785   1.862   2.810 -0.4748  3.1822  2.2358
  320MOL0     H43181   0.713   1.931   2.662  1.7947  0.3684  0.1307
  320MOL0     H43182  -0.149   1.795   3.009  2.3164  1.5013 -0.1025
  320MOL0     H43183  -0.277   1.632   3.143 -0.1707 -1.0673  0.8087
  320MOL0     H43184  -0.553   1.521   3.396  1.0374  1.2081  0.7133
  320MOL0     H43185  -0.725   1.387   3.461  0.3245 -0.0090 -1.4067
  320MOL0     H43186  -0.272   2.085   5.173  2.5580 -0.2645  4.7016
  320MOL0     H43187  -0.039   2.074   5.268 -1.3196  0.6837 -0.1279
  320MOL0     H43188   0.377   2.204   5.213  1.4481  0.6670 -1.8432
  320MOL0     H43189   0.596   2.236   5.340 -2.6299  1.2947 -0.6569
  320MOL0     H43190   0.824   1.858   5.490 -1.7562  0.1175 -0.3603
  320MOL0     H43191   0.839   1.905   5.324  1.9878 -1.2452  0.5461
  320MOL0     H43192   0.991   2.046   5.548 -1.5666  0.8365 -0.4777
  320MOL0     H43193   0.994   2.090   5.387 -0.5740 -0.1547  0.0484
  320MOL0     H43194   1.068   1.857   5.323 -0.2761  1.2457 -0.8954
  320MOL0     H43195   1.122   1.825   5.482 -2.3476 -0.2447 -0.1233
  320MOL0     H43196   1.215   2.051   5.308 -0.3670  0.6048  0.5155
  320MOL0     H43197   1.296   1.909   5.335 -0.9974  0.6912 -1.1232
  320MOL0     H43198   1.337   2.097   5.727  1.0906 -3.1759  1.5049
  320MOL0     H43199   0.573   1.828   5.454  0.5609  1.8885  2.1261
  320MOL0     H43200   0.363   1.803   5.342  2.1069 -1.5302  0.8618
  321MOL0     O43201   6.785   0.664   7.901  0.3784 -0.1993  0.2554
  321MOL0     C43202   6.764   0.765   7.834  0.0924  1.0096 -0.1306
  321MOL0     O43203   6.641   0.802   7.783  0.0913  0.1653  0.2268
  321MOL0     C43204   6.517   0.747   7.822 -0.5002  0.4628  0.0786
  321MOL0     C43205   6.410   0.751   7.738  0.6720 -0.1004  0.0020
  321MOL0     C43206   6.283   0.707   7.780 -0.0709 -0.6046 -0.4592
  321MOL0     C43207   6.262   0.652   7.907  0.8950 -1.1866  0.0962
  321MOL0     O43208   6.144   0.600   7.960 -0.9013  0.4021 -0.4240
  321MOL0     C43209   6.056   0.519   7.877 -0.5140 -0.2922 -0.2869
  321MOL0     C43210   5.966   0.450   7.974  1.3622  1.2330 -0.2665
  321MOL0     C43211   6.030   0.360   8.079 -0.2000 -0.7596  0.1626
  321MOL0     C43212   6.069   0.222   8.018  0.6248 -0.2481  0.1218
  321MOL0     C43213   6.176   0.144   8.104  0.1630  0.7617  0.1455
  321MOL0     C43214   6.268   0.060   8.010  0.1339 -0.6354 -0.2760
  321MOL0     C43215   6.329  -0.060   8.075  0.0662 -0.1411  0.0735
  321MOL0     C43216   6.225  -0.173   8.099  0.1469  0.1275 -0.3346
  321MOL0     N43217   6.178  -0.253   7.984 -0.3153 -0.5094 -0.3694
  321MOL0     C43218   6.254  -0.273   7.867 -0.0973 -0.6467 -0.4002
  321MOL0     C43219   6.161  -0.320   7.780 -0.0336 -0.2741  0.0276
  321MOL0     C43220   6.182  -0.315   7.628 -1.0487  0.2097  0.8887
  321MOL0     C43221   6.330  -0.377   7.590  0.1161 -0.8205  0.6805
  321MOL0     C43222   6.339  -0.532   7.616  0.0728 -0.4017  0.0715
  321MOL0     C43223   6.426  -0.611   7.519  0.0877  0.2639  0.0628
  321MOL0     O43224   6.361  -0.646   7.399 -0.6837  0.5774 -0.7887
  321MOL0     C43225   6.446  -0.730   7.325 -0.1168 -0.3141 -0.1997
  321MOL0     C43226   6.532  -0.674   7.230  0.3165  0.4904  0.3358
  321MOL0     C43227   6.624  -0.749   7.153  0.1392  0.2008 -0.8669
  321MOL0     C43228   6.687  -0.679   7.041  0.2632 -0.5425 -0.2488
  321MOL0     C43229   6.632  -0.886   7.184  0.9129  0.1457  0.2792
  321MOL0     C43230   6.737  -0.978   7.125  0.5577 -1.0494  0.6979
  321MOL0     O43231   6.724  -1.108   7.165 -0.0452  0.4954 -0.2698
  321MOL0     C43232   6.785  -1.213   7.096  1.3675 -0.5126 -0.5073
  321MOL0     C43233   6.780  -1.219   6.951 -0.1514  0.4583  0.1216
  321MOL0     C43234   6.831  -1.341   6.894  0.4968 -0.5682 -0.1843
  321MOL0     C43235   6.879  -1.445   6.973  0.1566 -0.1660 -0.4581
  321MOL0     O43236   6.906  -1.560   6.904  1.3371 -0.8711  0.2964
  321MOL0     C43237   6.920  -1.688   6.972  0.2496 -0.3963 -0.7643
  321MOL0     C43238   6.915  -1.802   6.873 -0.3835  0.2649 -0.2380
  321MOL0     C43239   6.898  -1.929   6.961 -1.0657  0.4727  0.4651
  321MOL0     C43240   6.892  -2.060   6.879 -0.1700 -0.1794  0.2387
  321MOL0     C43241   6.867  -2.171   6.974 -0.4506 -0.7965  1.9199
  321MOL0     C43242   6.882  -2.314   6.913  0.9799 -0.8914 -1.5121
  321MOL0     C43243   6.765  -2.341   6.820  0.3387 -0.5850  0.5761
  321MOL0     C43244   6.632  -2.396   6.875 -0.0808  0.4835  0.3076
  321MOL0    Cl43245   6.647  -2.569   6.936 -0.5277 -0.0160 -0.3922
  321MOL0     C43246   6.899  -1.430   7.112  0.3612 -0.4168  0.4697
  321MOL0     C43247   6.854  -1.313   7.170  0.3038  0.4627  0.7393
  321MOL0     O43248   6.817  -0.934   7.042  0.2350  0.3413  0.6934
  321MOL0     C43249   6.555  -0.944   7.286 -0.1874  0.6952 -0.3576
  321MOL0     C43250   6.463  -0.863   7.358  0.5295  0.2328  0.4773
  321MOL0     N43251   6.049  -0.334   7.834 -0.0869 -0.0702 -0.3454
  321MOL0     N43252   6.050  -0.291   7.952  0.0424  0.3458 -0.2755
  321MOL0     C43253   6.367   0.633   7.995 -0.0727 -1.0362 -0.7515
  321MOL0     C43254   6.490   0.690   7.951 -0.1514 -0.6763 -0.2905
  321MOL0     C43255   6.871   0.841   7.759  0.4295 -1.0881  0.1568
  321MOL0     C43256   7.000   0.789   7.743 -0.9901 -0.3639  0.1354
  321MOL0     C43257   7.104   0.860   7.674 -0.0921 -0.2092  0.5792
  321MOL0     C43258   7.081   0.993   7.638  0.6793  0.0052  0.3390
  321MOL0     O43259   7.174   1.067   7.578  0.1372 -0.0280 -0.2698
  321MOL0     C43260   7.314   1.027   7.579 -0.3082  0.2236  0.4261
  321MOL0     C43261   7.392   1.151   7.548  1.4148 -0.1878  0.2869
  321MOL0     C43262   7.375   1.205   7.404 -0.1562  0.1269 -0.2623
  321MOL0     C43263   7.441   1.343   7.397  0.2211 -0.0572  0.2868
  321MOL0     C43264   7.584   1.327   7.357 -0.3094  0.0187  0.6444
  321MOL0     C43265   7.701   1.324   7.328  0.5389  0.5391  0.6105
  321MOL0     C43266   6.954   1.041   7.647  0.4166  0.7194 -0.1491
  321MOL0     C43267   6.846   0.970   7.702  0.4713 -0.3751  0.1278
  321MOL0     H43268   6.421   0.791   7.638  1.0670 -0.3137 -0.0416
  321MOL0     H43269   6.219   0.711   7.692 -2.9193  2.9080  1.4814
  321MOL0     H43270   6.007   0.564   7.790 -1.9212 -1.5722 -0.1999
  321MOL0     H43271   6.117   0.443   7.828  2.4954 -0.1836  2.9085
  321MOL0     H43272   5.899   0.522   8.022  1.1479  1.5809 -1.0847
  321MOL0     H43273   5.891   0.397   7.914  2.5183 -0.6173 -0.1599
  321MOL0     H43274   6.116   0.411   8.124  0.0537 -3.0164  2.4609
  321MOL0     H43275   5.961   0.333   8.160 -4.2539 -0.9436 -3.0388
  321MOL0     H43276   5.982   0.158   8.006 -1.3636  2.1916  0.7703
  321MOL0     H43277   6.117   0.250   7.924  3.8980 -2.0000  1.0867
  321MOL0     H43278   6.248   0.205   8.159 -0.9741 -0.3606  3.0754
  321MOL0     H43279   6.117   0.084   8.173 -1.0080  2.8916  1.1038
  321MOL0     H43280   6.212   0.030   7.921  0.7252 -2.7787  0.0172
  321MOL0     H43281   6.343   0.115   7.952  0.2185 -1.6819 -1.1848
  321MOL0     H43282   6.402  -0.104   8.006 -0.0638  3.1762 -2.4486
  321MOL0     H43283   6.388  -0.040   8.164  2.3160 -0.0133 -1.3799
  321MOL0     H43284   6.138  -0.155   8.163 -0.5180 -0.0047 -1.1862
  321MOL0     H43285   6.284  -0.246   8.156 -4.3240 -2.8044  1.0278
  321MOL0     H43286   6.356  -0.249   7.840 -1.0402  0.8439 -2.9468
  321MOL0     H43287   6.105  -0.370   7.573  0.0216  0.7916 -1.3088
  321MOL0     H43288   6.183  -0.211   7.594 -0.8613  0.2816  1.1107
  321MOL0     H43289   6.418  -0.334   7.639 -0.2002 -0.8792  1.3156
  321MOL0     H43290   6.352  -0.344   7.488 -1.5420  0.2581  0.6479
  321MOL0     H43291   6.235  -0.560   7.596  0.9280 -3.0299 -1.1041
  321MOL0     H43292   6.361  -0.555   7.721 -1.2834 -1.6851  0.1193
  321MOL0     H43293   6.443  -0.706   7.571  1.4135  1.4108  1.8300
  321MOL0     H43294   6.529  -0.577   7.511  1.7863 -4.3308 -1.0250
  321MOL0     H43295   6.530  -0.566   7.220  2.3855  0.4818 -0.7676
  321MOL0     H43296   6.793  -0.656   7.053  0.2208  0.9313 -2.3363
  321MOL0     H43297   6.661  -0.736   6.951 -3.3782  1.3010 -0.5250
  321MOL0     H43298   6.653  -0.576   7.026  3.0145  0.7984  1.7859
  321MOL0     H43299   6.722  -1.144   6.897  1.4887  0.5809 -1.5749
  321MOL0     H43300   6.825  -1.368   6.789 -1.4838  0.6024 -0.4344
  321MOL0     H43301   7.017  -1.690   7.023 -0.4507 -1.8387  0.5778
  321MOL0     H43302   6.833  -1.694   7.037 -0.0254  0.5282 -1.0300
  321MOL0     H43303   6.857  -1.791   6.781 -1.2174  0.0372  0.2443
  321MOL0     H43304   7.019  -1.806   6.839 -0.8652  0.3373 -1.7869
  321MOL0     H43305   6.810  -1.926   7.027  0.5742  1.4135  2.7612
  321MOL0     H43306   6.990  -1.928   7.021  0.8504  0.6313 -2.3057
  321MOL0     H43307   6.818  -2.052   6.799  2.0913  2.2402 -1.7977
  321MOL0     H43308   6.991  -2.070   6.833 -0.9710 -0.4035 -1.4996
  321MOL0     H43309   6.770  -2.152   7.021  0.3336  2.0166  2.6018
  321MOL0     H43310   6.945  -2.170   7.050 -1.3863 -5.9159  3.3400
  321MOL0     H43311   6.973  -2.325   6.855  1.7731  0.3739 -0.5679
  321MOL0     H43312   6.872  -2.388   6.993 -0.4830  1.2290  0.3908
  321MOL0     H43313   6.796  -2.410   6.742 -2.1670 -1.4279  0.2200
  321MOL0     H43314   6.735  -2.242   6.785  4.0483  0.1284 -1.0307
  321MOL0     H43315   6.560  -2.387   6.793  0.8428  0.4089 -0.5175
  321MOL0     H43316   6.598  -2.339   6.963  2.3530  3.2010 -0.3659
  321MOL0     H43317   6.956  -1.500   7.172 -0.0180 -0.7666  0.4263
  321MOL0     H43318   6.870  -1.288   7.274  0.3783  2.6559  0.2577
  321MOL0     H43319   6.561  -1.047   7.320 -0.6593  1.5149  2.4297
  321MOL0     H43320   6.397  -0.900   7.436  1.2585 -0.6608  0.6883
  321MOL0     H43321   6.334   0.603   8.094 -0.5482  4.5134  1.1327
  321MOL0     H43322   6.556   0.683   8.037 -2.6433 -0.7226  1.7224
  321MOL0     H43323   7.017   0.691   7.787  2.0719  1.0077  2.3687
  321MOL0     H43324   7.202   0.816   7.659 -0.0869 -1.2248  3.0596
  321MOL0     H43325   7.352   0.994   7.676 -0.2350  1.6995  0.9215
  321MOL0     H43326   7.332   0.942   7.512  1.5561 -1.3956  2.7756
  321MOL0     H43327   7.493   1.115   7.568  1.4061 -0.0140  0.6423
  321MOL0     H43328   7.346   1.218   7.621  2.3287 -0.2375  0.9204
  321MOL0     H43329   7.269   1.204   7.375  0.1487  0.0602 -1.3963
  321MOL0     H43330   7.428   1.148   7.327 -0.3208 -1.3008  0.6271
  321MOL0     H43331   7.437   1.398   7.492  2.0883  1.4131 -0.4235
  321MOL0     H43332   7.389   1.402   7.321 -1.3587 -0.0785  1.3029
  321MOL0     H43333   7.806   1.326   7.303  0.4280 -2.2642 -0.4459
  321MOL0     H43334   6.939   1.146   7.624  3.0805  1.0469 -0.6734
  321MOL0     H43335   6.749   1.019   7.692  0.8015  0.4180  0.6706
  322MOL0     O43336   1.611   1.200   7.920 -0.8870  0.5683 -0.0675
  322MOL0     C43337   1.602   1.124   8.019 -0.9358  1.1001  0.6968
  322MOL0     O43338   1.612   0.995   8.010  0.2817 -0.7424  0.8577
  322MOL0     C43339   1.658   0.936   7.891 -0.3423  1.0091 -0.3074
  322MOL0     C43340   1.592   0.835   7.815  0.2502  0.6030 -1.3837
  322MOL0     C43341   1.639   0.777   7.701 -0.4263  0.5711  0.5039
  322MOL0     C43342   1.766   0.821   7.663 -0.0313  0.7133 -0.4805
  322MOL0     O43343   1.832   0.781   7.549 -0.4102  0.5906  0.3595
  322MOL0     C43344   1.757   0.719   7.435  0.4800 -0.5007 -1.3996
  322MOL0     C43345   1.855   0.697   7.325 -0.4401  0.0251  0.3943
  322MOL0     C43346   1.806   0.609   7.203  0.2283 -0.2408 -0.0039
  322MOL0     C43347   1.920   0.598   7.102  0.6549  0.2600 -0.1860
  322MOL0     C43348   1.880   0.504   6.982  0.2943 -0.8557 -0.3379
  322MOL0     C43349   1.974   0.516   6.864  0.1213 -0.7431 -0.1068
  322MOL0     C43350   1.933   0.635   6.775  0.3477 -0.5280 -0.2229
  322MOL0     C43351   2.004   0.624   6.645 -0.2817 -0.1723 -0.0641
  322MOL0     N43352   1.961   0.504   6.568 -0.5216 -0.2505 -0.4553
  322MOL0     C43353   1.846   0.512   6.501  0.2921  0.1674 -0.6177
  322MOL0     C43354   1.824   0.387   6.454 -0.1641 -0.6835 -1.8574
  322MOL0     C43355   1.698   0.338   6.389 -0.9025  0.5263 -0.1851
  322MOL0     C43356   1.655   0.197   6.441  0.1790  0.3876  0.5193
  322MOL0     C43357   1.593   0.208   6.576  0.2215  0.5960  0.7412
  322MOL0     C43358   1.687   0.239   6.683  1.2390  0.1685  1.1173
  322MOL0     O43359   1.632   0.216   6.805 -0.0587 -0.3897 -0.4830
  322MOL0     C43360   1.578   0.322   6.876 -0.4823 -0.0248  0.4755
  322MOL0     C43361   1.541   0.441   6.818  1.2776 -0.5058 -0.3350
  322MOL0     C43362   1.478   0.550   6.890 -0.3226 -0.0419  0.8617
  322MOL0     C43363   1.412   0.659   6.814 -0.0005 -0.3045 -0.3036
  322MOL0     C43364   1.464   0.535   7.033  0.0936 -0.9435  0.4568
  322MOL0     C43365   1.367   0.619   7.114  0.2327  0.3790 -0.4886
  322MOL0     O43366   1.319   0.734   7.060  0.0662 -0.4689 -0.7899
  322MOL0     C43367   1.240   0.810   7.145 -0.1285 -0.2920  0.8730
  322MOL0     C43368   1.278   0.866   7.269 -0.0906 -0.4540 -0.1247
  322MOL0     C43369   1.195   0.939   7.340  0.9067 -0.5085 -0.3858
  322MOL0     C43370   1.068   0.965   7.295 -0.5156  0.2271  0.7731
  322MOL0     O43371   0.971   1.015   7.364 -0.0447 -0.5345 -0.3791
  322MOL0     C43372   0.975   0.983   7.507  0.1968 -0.1973 -0.4362
  322MOL0     C43373   0.830   0.995   7.558  0.0438  0.2609  0.9810
  322MOL0     C43374   0.762   1.135   7.531 -0.1892 -0.0158  0.4274
  322MOL0     C43375   0.807   1.252   7.612 -0.5951 -0.1466 -0.1686
  322MOL0     C43376   0.696   1.362   7.601 -0.0841  0.2415  0.1948
  322MOL0     C43377   0.749   1.478   7.696  0.2241  0.5597 -0.7161
  322MOL0     C43378   0.642   1.584   7.722  0.6514  0.1461 -0.4676
  322MOL0     C43379   0.663   1.688   7.833 -0.3658 -0.8347  0.9853
  322MOL0    Cl43380   0.612   1.848   7.774  0.4142 -0.6718 -0.2035
  322MOL0     C43381   1.025   0.910   7.167  0.0746  0.6990 -0.6562
  322MOL0     C43382   1.112   0.837   7.092  0.7076 -0.0837 -0.3090
  322MOL0     O43383   1.335   0.570   7.221  0.0720  0.2491 -0.5327
  322MOL0     C43384   1.511   0.413   7.092 -0.0089 -0.6702 -0.0618
  322MOL0     C43385   1.557   0.308   7.012 -0.7798 -0.3855  0.0568
  322MOL0     N43386   1.945   0.318   6.484  0.1672 -0.5988 -0.3346
  322MOL0     N43387   2.025   0.390   6.558 -0.2458  0.2144  0.4687
  322MOL0     C43388   1.841   0.905   7.742  0.4440  0.1511 -0.9290
  322MOL0     C43389   1.793   0.963   7.855  0.6027  0.2785 -0.0599
  322MOL0     C43390   1.583   1.188   8.155 -0.0950  0.9381  0.5288
  322MOL0     C43391   1.556   1.116   8.272 -0.4574  0.3313  0.2097
  322MOL0     C43392   1.534   1.175   8.391  0.4356 -0.0050  0.2242
  322MOL0     C43393   1.543   1.310   8.408  0.2631  0.4256 -0.3180
  322MOL0     O43394   1.538   1.373   8.528 -0.0175  0.1210  0.2578
  322MOL0     C43395   1.592   1.316   8.646 -0.6287 -0.6044 -0.6826
  322MOL0     C43396   1.569   1.419   8.756 -0.7699 -0.3592  0.0022
  322MOL0     C43397   1.661   1.544   8.742 -0.2038 -0.0568 -1.2595
  322MOL0     C43398   1.690   1.623   8.867 -0.4575  0.4495  0.7335
  322MOL0     C43399   1.748   1.539   8.970  0.5132  0.1936 -0.2158
  322MOL0     C43400   1.784   1.441   9.043  0.5344 -0.0913  0.3994
  322MOL0     C43401   1.560   1.385   8.299 -0.3974 -0.3364  0.4573
  322MOL0     C43402   1.580   1.326   8.169  0.6921 -0.6770  0.0506
  322MOL0     H43403   1.502   0.798   7.863 -0.3929  4.5181  0.8384
  322MOL0     H43404   1.601   0.696   7.640  1.3853  2.2057 -3.1463
  322MOL0     H43405   1.722   0.621   7.467  2.4649 -1.1500 -1.0391
  322MOL0     H43406   1.666   0.772   7.408 -0.9545 -0.0812  3.4117
  322MOL0     H43407   1.879   0.791   7.275  1.1421 -0.9234 -0.7357
  322MOL0     H43408   1.952   0.664   7.363  0.8457  1.9192 -1.0539
  322MOL0     H43409   1.768   0.514   7.242 -1.6496  0.8592  1.0374
  322MOL0     H43410   1.734   0.671   7.149 -1.2211 -1.6995  0.1668
  322MOL0     H43411   1.937   0.698   7.063  0.0840 -0.1797 -1.6401
  322MOL0     H43412   2.013   0.557   7.144  0.1571 -0.1862  0.4981
  322MOL0     H43413   1.888   0.399   7.011  0.9528 -0.7774 -0.2059
  322MOL0     H43414   1.773   0.507   6.962 -0.2904 -2.5888  2.1188
  322MOL0     H43415   2.081   0.524   6.883  0.5519 -3.0480 -1.2844
  322MOL0     H43416   1.954   0.428   6.801 -0.0665  1.8865 -4.1344
  322MOL0     H43417   1.824   0.639   6.770  0.2801  2.6938  1.1251
  322MOL0     H43418   1.950   0.730   6.828  0.1699 -0.4930 -0.2261
  322MOL0     H43419   2.112   0.613   6.659 -0.1785 -1.8194 -1.7872
  322MOL0     H43420   1.987   0.719   6.594  3.9377 -0.0623 -1.7156
  322MOL0     H43421   1.769   0.589   6.500  0.2979  0.1856 -0.1175
  322MOL0     H43422   1.625   0.416   6.412 -1.8439  0.3350 -2.3318
  322MOL0     H43423   1.705   0.325   6.281 -1.9189 -0.5257 -0.1460
  322MOL0     H43424   1.751   0.145   6.444  0.6935  1.3195  0.8626
  322MOL0     H43425   1.583   0.153   6.372 -0.2941  1.1532  0.5102
  322MOL0     H43426   1.551   0.110   6.603 -0.0893  0.7200  0.7149
  322MOL0     H43427   1.513   0.282   6.584 -1.8165 -1.4147  0.0189
  322MOL0     H43428   1.717   0.344   6.678 -1.4434  0.9263 -0.7083
  322MOL0     H43429   1.784   0.190   6.664  1.5169  0.6772  1.2061
  322MOL0     H43430   1.539   0.461   6.711 -1.4601 -1.0725 -0.4401
  322MOL0     H43431   1.446   0.761   6.833 -1.4587  0.1784 -0.1679
  322MOL0     H43432   1.415   0.637   6.707 -0.8808  0.5523 -0.5112
  322MOL0     H43433   1.308   0.653   6.849 -0.0141  0.9697 -0.0828
  322MOL0     H43434   1.373   0.837   7.311 -0.4222  2.4647  3.1539
  322MOL0     H43435   1.235   0.972   7.435 -1.0844 -0.8282  0.6127
  322MOL0     H43436   1.026   0.888   7.523  0.4791  0.0038 -0.0901
  322MOL0     H43437   1.034   1.061   7.557 -0.4789 -1.1500  2.0015
  322MOL0     H43438   0.765   0.912   7.526 -1.2385  1.4152  0.5024
  322MOL0     H43439   0.831   0.978   7.666  0.5277 -0.9885  0.8068
  322MOL0     H43440   0.657   1.110   7.548 -0.8245  1.2140 -1.3748
  322MOL0     H43441   0.776   1.171   7.429  0.4906  1.2561  0.9421
  322MOL0     H43442   0.817   1.212   7.713 -1.1786 -1.8901 -0.7621
  322MOL0     H43443   0.904   1.294   7.581 -2.1878  4.5556  0.3430
  322MOL0     H43444   0.601   1.329   7.642 -1.5376  2.6193 -0.9898
  322MOL0     H43445   0.663   1.405   7.506 -2.5801 -0.9642  0.4433
  322MOL0     H43446   0.783   1.436   7.791 -0.4648 -0.6241 -0.9629
  322MOL0     H43447   0.834   1.527   7.650 -1.8129  3.6694 -1.4737
  322MOL0     H43448   0.550   1.532   7.748  0.0421  1.3478 -0.1613
  322MOL0     H43449   0.644   1.651   7.635  4.5845  0.2766 -0.4631
  322MOL0     H43450   0.769   1.696   7.858 -0.2026 -1.7941  0.6746
  322MOL0     H43451   0.612   1.655   7.924 -0.0640 -2.9614  0.4499
  322MOL0     H43452   0.924   0.918   7.129 -0.8438 -3.0467  0.5675
  322MOL0     H43453   1.063   0.800   7.003 -2.8460  1.4978  0.7907
  322MOL0     H43454   1.494   0.398   7.198 -1.0044 -2.0620 -0.3831
  322MOL0     H43455   1.590   0.212   7.052 -0.8955 -0.7930 -0.8010
  322MOL0     H43456   1.937   0.943   7.709 -1.1516  3.7262 -2.0640
  322MOL0     H43457   1.857   1.026   7.916  0.3665  0.2620  0.2045
  322MOL0     H43458   1.533   1.014   8.246  1.2425  0.7902 -3.9806
  322MOL0     H43459   1.512   1.128   8.487 -1.6922 -0.4603 -0.4352
  322MOL0     H43460   1.534   1.226   8.670  0.1292 -0.9620 -0.1582
  322MOL0     H43461   1.698   1.293   8.636 -0.3143  0.6013 -0.3636
  322MOL0     H43462   1.587   1.361   8.847 -2.1329 -3.2261 -1.4091
  322MOL0     H43463   1.471   1.465   8.770  0.3115  2.1920 -0.2457
  322MOL0     H43464   1.618   1.612   8.668  0.0310  2.5556  0.8403
  322MOL0     H43465   1.763   1.517   8.714  0.9399  2.9723 -0.3754
  322MOL0     H43466   1.592   1.655   8.905 -1.8774  0.2672 -2.4820
  322MOL0     H43467   1.744   1.716   8.846 -3.6611  1.8564 -2.2413
  322MOL0     H43468   1.831   1.368   9.105  1.0904 -1.4560 -1.5504
  322MOL0     H43469   1.571   1.492   8.306  1.3975 -0.5437  1.3698
  322MOL0     H43470   1.588   1.398   8.089 -1.1858 -2.0738 -1.4958
  323MOL0     O43471   6.114   8.233   0.500 -0.0934  0.1394  0.1285
  323MOL0     C43472   6.022   8.266   0.572  0.7760 -0.8765  0.1350
  323MOL0     O43473   5.985   8.399   0.583 -0.2813 -0.5365 -0.4603
  323MOL0     C43474   6.059   8.502   0.522 -0.3819 -0.8158  0.8122
  323MOL0     C43475   6.056   8.623   0.589  0.8313  0.4906 -0.8264
  323MOL0     C43476   6.107   8.732   0.539 -0.6027  0.6044  0.4244
  323MOL0     C43477   6.162   8.738   0.407 -0.2454  0.5272 -0.6650
  323MOL0     O43478   6.218   8.854   0.364 -0.7709 -0.5383  0.0982
  323MOL0     C43479   6.156   8.976   0.402 -0.1734  0.3296  1.2280
  323MOL0     C43480   6.141   9.052   0.270  0.1203 -1.3623 -0.1370
  323MOL0     C43481   6.053   8.975   0.176 -0.5271  0.6873 -0.0452
  323MOL0     C43482   6.057   9.054   0.045  0.8201  0.8102  0.5106
  323MOL0     C43483   5.969   8.995  -0.056  0.4438  0.2421  1.0094
  323MOL0     C43484   6.017   9.037  -0.198  0.2939 -0.1804 -0.2322
  323MOL0     C43485   5.917   8.997  -0.311 -0.3443 -0.6625  0.3926
  323MOL0     C43486   5.969   9.042  -0.452 -0.3255 -0.4747  0.6444
  323MOL0     N43487   5.952   9.181  -0.495  0.7692 -0.4897 -0.4781
  323MOL0     C43488   5.846   9.262  -0.484  0.3214  0.0023 -0.3924
  323MOL0     C43489   5.877   9.377  -0.540 -0.9661 -1.2429 -0.3603
  323MOL0     C43490   5.776   9.487  -0.566 -0.4874  0.0522  0.6516
  323MOL0     C43491   5.785   9.578  -0.441  0.3656 -0.2320 -0.4542
  323MOL0     C43492   5.897   9.685  -0.443  0.4503  0.2324  0.8682
  323MOL0     C43493   5.838   9.808  -0.513 -0.9849  0.2611 -0.3720
  323MOL0     O43494   5.743   9.887  -0.439  0.5811 -0.2902 -1.1477
  323MOL0     C43495   5.655   9.975  -0.500 -0.3102 -0.4830 -0.2028
  323MOL0     C43496   5.552  10.021  -0.434 -0.1149  0.8477  0.1850
  323MOL0     C43497   5.462  10.111  -0.495 -0.2188 -0.8441  0.0616
  323MOL0     C43498   5.323  10.116  -0.423  0.1324 -0.9512  0.1751
  323MOL0     C43499   5.501  10.173  -0.611  0.7060 -0.9915 -0.0297
  323MOL0     C43500   5.415  10.288  -0.672  0.3077 -0.3973 -0.8795
  323MOL0     O43501   5.437  10.331  -0.801 -1.1694  0.2503 -0.3584
  323MOL0     C43502   5.374  10.442  -0.851 -1.1748 -0.0823  0.7617
  323MOL0     C43503   5.346  10.562  -0.785 -0.3547 -0.7247  1.1167
  323MOL0     C43504   5.283  10.668  -0.853  0.3401 -0.3337  0.5226
  323MOL0     C43505   5.237  10.653  -0.990  0.0311 -0.1204 -0.6145
  323MOL0     O43506   5.170  10.747  -1.065  0.2492 -0.4375 -0.6020
  323MOL0     C43507   5.101  10.855  -0.985 -0.0794 -0.0539  0.4958
  323MOL0     C43508   4.970  10.896  -1.058 -0.5861 -0.6668 -0.2202
  323MOL0     C43509   4.882  10.994  -0.968 -0.3910  1.0949 -0.1294
  323MOL0     C43510   4.761  11.059  -1.041 -0.2709 -0.3933  0.2862
  323MOL0     C43511   4.628  11.064  -0.961  0.6934 -0.0459 -0.6670
  323MOL0     C43512   4.623  11.129  -0.824  0.1994 -0.3487  0.3050
  323MOL0     C43513   4.614  11.284  -0.853  0.4453 -1.2189  0.2414
  323MOL0     C43514   4.468  11.341  -0.873  0.2374  0.3346 -0.7511
  323MOL0    Cl43515   4.353  11.264  -0.756  0.0084  0.0718 -0.4736
  323MOL0     C43516   5.262  10.534  -1.051  0.2545  0.3924 -0.4910
  323MOL0     C43517   5.322  10.427  -0.985  0.3251  0.4298  0.0618
  323MOL0     O43518   5.327  10.323  -0.599 -0.1220 -0.2203 -0.4923
  323MOL0     C43519   5.621  10.131  -0.672  0.2709  0.3455 -0.1842
  323MOL0     C43520   5.686  10.021  -0.627 -0.8241 -0.5102  1.1294
  323MOL0     N43521   6.003   9.371  -0.592  0.4429  0.4101 -0.9656
  323MOL0     N43522   6.052   9.262  -0.549 -0.1920  0.7810 -0.0478
  323MOL0     C43523   6.162   8.622   0.336 -0.9389  0.2120 -0.4980
  323MOL0     C43524   6.097   8.506   0.386  0.7661  0.5069  0.4219
  323MOL0     C43525   5.973   8.173   0.673 -0.5240  1.1516 -0.0068
  323MOL0     C43526   6.009   8.035   0.671 -0.8151 -0.6144  0.8881
  323MOL0     C43527   5.955   7.944   0.755 -0.0275 -1.2029  0.5921
  323MOL0     C43528   5.855   7.979   0.840 -0.8729 -1.8554 -1.3009
  323MOL0     O43529   5.795   7.889   0.924 -0.3496  0.1685 -0.5911
  323MOL0     C43530   5.798   7.746   0.890  0.5726 -0.4270  0.8616
  323MOL0     C43531   5.744   7.653   0.997  0.4243 -0.1214 -0.8228
  323MOL0     C43532   5.599   7.677   1.043  0.2941  0.3186 -0.6125
  323MOL0     C43533   5.491   7.652   0.930 -0.7719 -0.3178 -0.4764
  323MOL0     C43534   5.524   7.537   0.840  0.0785  0.7132  0.1382
  323MOL0     C43535   5.550   7.442   0.764 -0.6328  0.8092 -0.5909
  323MOL0     C43536   5.809   8.111   0.848  1.8189  0.4776  0.1243
  323MOL0     C43537   5.871   8.204   0.763 -0.8290  0.4652  0.9543
  323MOL0     H43538   6.018   8.631   0.690  2.9693  2.2803 -0.0831
  323MOL0     H43539   6.120   8.819   0.603 -2.6474  0.3131  1.3024
  323MOL0     H43540   6.059   8.967   0.451  0.1745  0.4479  1.9474
  323MOL0     H43541   6.225   9.034   0.464  0.9741  0.2159  0.1039
  323MOL0     H43542   6.090   9.147   0.288  0.1350 -0.6063 -3.4084
  323MOL0     H43543   6.238   9.081   0.227  2.2632 -1.4981  4.1089
  323MOL0     H43544   6.093   8.878   0.146 -3.7408 -0.5577 -0.7177
  323MOL0     H43545   5.949   8.969   0.210 -0.3315  0.3408  0.4976
  323MOL0     H43546   6.010   9.150   0.068  0.6332  0.0316  3.8225
  323MOL0     H43547   6.159   9.072   0.009 -0.3714  0.6583 -3.3218
  323MOL0     H43548   5.978   8.886  -0.056  1.8064  0.3186  2.2530
  323MOL0     H43549   5.868   9.035  -0.041 -1.2923 -2.4235 -2.1832
  323MOL0     H43550   6.035   9.145  -0.206  1.2752 -0.3362 -0.2250
  323MOL0     H43551   6.116   8.997  -0.222  0.1157 -1.5268  1.0856
  323MOL0     H43552   5.907   8.888  -0.317 -1.2007 -0.6147  0.7697
  323MOL0     H43553   5.818   9.041  -0.293 -0.5276  0.1668 -2.3306
  323MOL0     H43554   5.919   8.979  -0.527 -0.8720 -1.6488  1.9308
  323MOL0     H43555   6.074   9.013  -0.455 -0.6778 -1.9206  1.1255
  323MOL0     H43556   5.762   9.231  -0.423  2.7117 -2.2717  2.0410
  323MOL0     H43557   5.801   9.547  -0.654 -4.8190  2.3553  0.7158
  323MOL0     H43558   5.673   9.456  -0.586 -1.0241  3.6381 -3.5749
  323MOL0     H43559   5.798   9.517  -0.352  0.2057 -1.5949 -1.3408
  323MOL0     H43560   5.682   9.616  -0.437  0.9995  1.4925  0.3693
  323MOL0     H43561   5.983   9.638  -0.490  2.4014  0.1349  4.2722
  323MOL0     H43562   5.927   9.724  -0.346  1.5754  4.1546 -0.8604
  323MOL0     H43563   5.786   9.779  -0.604  0.6882  2.7333 -2.2458
  323MOL0     H43564   5.920   9.871  -0.548 -1.5349  0.1670 -1.8723
  323MOL0     H43565   5.500   9.963  -0.358 -0.1576  3.0882  1.9839
  323MOL0     H43566   5.299  10.220  -0.399  1.9363 -0.2990 -0.6614
  323MOL0     H43567   5.252  10.087  -0.502 -1.1947  2.3484 -0.0219
  323MOL0     H43568   5.327  10.055  -0.332  0.0088  1.0653  1.5900
  323MOL0     H43569   5.376  10.584  -0.683  2.4876  2.0375 -0.1266
  323MOL0     H43570   5.267  10.763  -0.804  2.6234 -0.2712  1.2410
  323MOL0     H43571   5.074  10.824  -0.884  1.3747  6.3482  3.3797
  323MOL0     H43572   5.154  10.950  -0.971 -2.4416  1.4513 -0.0559
  323MOL0     H43573   4.995  10.952  -1.149  1.4041  2.1772  1.9308
  323MOL0     H43574   4.910  10.808  -1.085 -2.5945  0.1168  1.4741
  323MOL0     H43575   4.930  11.079  -0.920 -0.8116  2.2924 -1.7316
  323MOL0     H43576   4.839  10.934  -0.887 -0.9042 -0.8495 -1.7480
  323MOL0     H43577   4.791  11.160  -1.071 -1.0628 -0.8690 -2.4346
  323MOL0     H43578   4.741  10.993  -1.126 -0.7797  1.1160 -0.8168
  323MOL0     H43579   4.595  10.962  -0.943  0.9869  0.1708  1.2753
  323MOL0     H43580   4.561  11.120  -1.027  1.4873  1.4272 -0.2874
  323MOL0     H43581   4.541  11.089  -0.765  1.4061 -0.9107  1.6372
  323MOL0     H43582   4.720  11.103  -0.780 -0.6743  0.8908  3.1699
  323MOL0     H43583   4.681  11.321  -0.930 -1.1900 -0.6649 -0.9729
  323MOL0     H43584   4.647  11.325  -0.757 -0.6347 -0.7134  0.4109
  323MOL0     H43585   4.444  11.325  -0.979  0.5399 -2.0947 -0.5085
  323MOL0     H43586   4.466  11.445  -0.842 -1.1118 -0.2198  1.2025
  323MOL0     H43587   5.241  10.536  -1.157 -1.0063  1.3334 -0.2574
  323MOL0     H43588   5.323  10.329  -1.033 -1.6940  0.0163  0.7665
  323MOL0     H43589   5.662  10.174  -0.763 -0.2800  0.0625 -0.5755
  323MOL0     H43590   5.773   9.982  -0.679 -0.4624  0.3095  1.1083
  323MOL0     H43591   6.203   8.630   0.235 -1.6757  1.3950 -0.7202
  323MOL0     H43592   6.093   8.418   0.323 -0.1342  0.9987 -0.2395
  323MOL0     H43593   6.079   7.989   0.602 -0.3920 -0.7865  1.4295
  323MOL0     H43594   5.992   7.846   0.728  0.7712 -0.4815 -1.0426
  323MOL0     H43595   5.738   7.721   0.802  2.8939 -3.6608  0.0076
  323MOL0     H43596   5.897   7.703   0.868  0.5717 -0.3155  0.6340
  323MOL0     H43597   5.804   7.668   1.087 -0.9476 -2.3731  0.5727
  323MOL0     H43598   5.753   7.551   0.959 -1.8223  0.1670 -2.3639
  323MOL0     H43599   5.593   7.780   1.080  4.0513  0.5081 -0.1669
  323MOL0     H43600   5.577   7.610   1.127 -0.3425  1.9628  0.6048
  323MOL0     H43601   5.493   7.750   0.882 -4.6927  0.8117  1.2845
  323MOL0     H43602   5.394   7.652   0.980 -0.2917 -1.2681  0.4937
  323MOL0     H43603   5.584   7.359   0.707  2.3054 -0.1294  2.1998
  323MOL0     H43604   5.740   8.125   0.931 -0.6712 -3.8813 -0.8925
  323MOL0     H43605   5.829   8.304   0.773  0.3281  1.0317  0.3271
  324MOL0     O43606   3.291   6.939  10.377  0.6363 -0.0188 -0.1780
  324MOL0     C43607   3.270   6.954  10.251 -0.1865  0.4132 -0.2069
  324MOL0     O43608   3.171   7.029  10.198 -0.3517  0.3856  0.1084
  324MOL0     C43609   3.098   7.104  10.290 -0.2597  0.5859 -0.0736
  324MOL0     C43610   3.139   7.225  10.337  0.1890 -1.2548 -0.1914
  324MOL0     C43611   3.049   7.298  10.412  0.4479 -0.8213  0.2821
  324MOL0     C43612   2.933   7.253  10.461 -0.9303  1.0899 -0.0928
  324MOL0     O43613   2.867   7.328  10.559  0.0894  0.6688  0.1375
  324MOL0     C43614   2.922   7.337  10.693 -0.0771 -0.5734  0.3248
  324MOL0     C43615   2.908   7.485  10.738 -0.9157 -0.4008  0.0591
  324MOL0     C43616   2.993   7.587  10.649  0.6055  0.8496  0.4002
  324MOL0     C43617   3.140   7.545  10.658  0.1205 -0.0806 -0.2074
  324MOL0     C43618   3.221   7.663  10.594  0.1079 -0.3717  0.5866
  324MOL0     C43619   3.361   7.621  10.537  1.0829  0.1204 -0.3598
  324MOL0     C43620   3.357   7.533  10.404  0.0570 -0.4193 -0.2112
  324MOL0     C43621   3.499   7.479  10.396 -0.5264 -0.0488  0.0755
  324MOL0     N43622   3.528   7.423  10.260 -1.1142  0.3560  0.6890
  324MOL0     C43623   3.525   7.293  10.221  0.4582 -0.2051 -0.2462
  324MOL0     C43624   3.567   7.287  10.097  0.1360  0.3733  0.1170
  324MOL0     C43625   3.568   7.172   9.993  0.5684 -0.7752 -0.3985
  324MOL0     C43626   3.481   7.190   9.874 -0.3329  1.0945  0.4651
  324MOL0     C43627   3.540   7.286   9.764  1.4653 -0.4843 -1.0103
  324MOL0     C43628   3.415   7.348   9.689  0.1435 -1.3627  0.1335
  324MOL0     O43629   3.318   7.435   9.746 -0.1778  0.1965  0.3166
  324MOL0     C43630   3.353   7.548   9.814 -0.1282  0.2032  0.4448
  324MOL0     C43631   3.255   7.581   9.900 -0.1491  0.9161 -0.6267
  324MOL0     C43632   3.270   7.683   9.984 -0.3198  0.6302 -0.5733
  324MOL0     C43633   3.161   7.721  10.072  0.8548  0.0576  0.4905
  324MOL0     C43634   3.395   7.757   9.994  0.1526  0.2268  0.0427
  324MOL0     C43635   3.429   7.863  10.098 -0.2884  0.4087  0.3228
  324MOL0     O43636   3.540   7.942  10.059  0.1482 -0.9214 -0.5960
  324MOL0     C43637   3.570   8.066  10.113  0.5063 -0.2240 -0.7428
  324MOL0     C43638   3.706   8.100  10.122 -0.0548 -0.5434  0.3076
  324MOL0     C43639   3.757   8.212  10.189  0.3939  0.4351  0.3214
  324MOL0     C43640   3.657   8.300  10.246 -0.1292 -0.0630  1.0807
  324MOL0     O43641   3.694   8.417  10.314  0.3898 -0.3803  0.6952
  324MOL0     C43642   3.626   8.537  10.254 -0.4469 -0.4695 -0.3831
  324MOL0     C43643   3.707   8.668  10.275 -0.2762 -0.7219 -0.2393
  324MOL0     C43644   3.679   8.711  10.420  0.3516  0.8189 -1.2623
  324MOL0     C43645   3.758   8.832  10.456 -0.5411 -0.1769  0.4313
  324MOL0     C43646   3.717   8.887  10.611 -0.5241  0.3475 -0.2325
  324MOL0     C43647   3.732   8.784  10.730  0.6158  0.4377  0.6115
  324MOL0     C43648   3.691   8.845  10.866  0.7059 -0.4827 -0.2077
  324MOL0     C43649   3.643   8.743  10.964 -0.5462 -0.1724  0.5087
  324MOL0    Cl43650   3.796   8.637  10.998 -0.0239  0.0956  0.0502
  324MOL0     C43651   3.520   8.265  10.240 -0.6615  0.0013 -0.2039
  324MOL0     C43652   3.469   8.154  10.165 -0.5551  0.2376  0.3960
  324MOL0     O43653   3.370   7.873  10.205 -0.6037  0.1488  1.1142
  324MOL0     C43654   3.494   7.720   9.899 -0.1066  0.2364  0.2740
  324MOL0     C43655   3.478   7.620   9.804  0.5178 -0.4075 -0.4680
  324MOL0     N43656   3.603   7.423  10.056  0.3591  0.2645  0.1702
  324MOL0     N43657   3.572   7.504  10.156 -0.6080  0.5927  0.0009
  324MOL0     C43658   2.897   7.122  10.427  1.1664 -0.4245  0.1939
  324MOL0     C43659   2.972   7.057  10.337  0.0832 -0.2543  0.4330
  324MOL0     C43660   3.359   6.875  10.155 -0.1501 -0.5349 -0.1101
  324MOL0     C43661   3.333   6.881  10.019  0.2063  0.4145 -0.2796
  324MOL0     C43662   3.397   6.806   9.924 -0.1940 -0.0722  0.7949
  324MOL0     C43663   3.504   6.718   9.970 -0.0022  0.0868 -0.1052
  324MOL0     O43664   3.571   6.639   9.867 -0.8494 -0.6721 -0.6171
  324MOL0     C43665   3.656   6.530   9.917  0.5398  0.4254  0.5441
  324MOL0     C43666   3.724   6.471   9.794 -0.7361  0.9238 -0.2114
  324MOL0     C43667   3.836   6.371   9.839  1.6458  0.0163  0.2548
  324MOL0     C43668   3.928   6.358   9.719 -0.2440  0.7558  0.1000
  324MOL0     C43669   4.036   6.259   9.756 -0.3100 -0.0030  0.5098
  324MOL0     C43670   4.133   6.198   9.796  0.7224  0.4450 -1.0406
  324MOL0     C43671   3.527   6.706  10.107  0.3280  0.1633 -0.1229
  324MOL0     C43672   3.454   6.782  10.194  1.1479 -0.2778 -0.6194
  324MOL0     H43673   3.231   7.281  10.320 -0.6360  0.0824 -0.4269
  324MOL0     H43674   3.079   7.388  10.463 -0.7662 -0.5802  0.5966
  324MOL0     H43675   2.871   7.277  10.769  2.1408 -4.3437 -0.9225
  324MOL0     H43676   3.026   7.304  10.690 -0.6979 -3.1117  2.9224
  324MOL0     H43677   2.801   7.508  10.742 -0.9805 -0.8370  2.7208
  324MOL0     H43678   2.936   7.493  10.844 -3.9032  0.6895  0.8582
  324MOL0     H43679   2.961   7.575  10.545 -1.6621 -0.2491  1.1524
  324MOL0     H43680   2.983   7.691  10.683 -0.2879  0.4931  1.2650
  324MOL0     H43681   3.171   7.551  10.762  1.4260 -2.9905 -0.3203
  324MOL0     H43682   3.162   7.443  10.624 -3.4439 -1.0963  0.0889
  324MOL0     H43683   3.159   7.714  10.519  1.3794  1.7505  0.9062
  324MOL0     H43684   3.229   7.740  10.672 -0.5091 -0.3942  0.6770
  324MOL0     H43685   3.419   7.712  10.520  2.2012 -0.3398  0.8305
  324MOL0     H43686   3.408   7.570  10.621 -1.9931  2.4517  3.1055
  324MOL0     H43687   3.279   7.456  10.409  1.2592 -1.5889  1.4304
  324MOL0     H43688   3.332   7.587  10.312  0.8539  2.2618  1.0508
  324MOL0     H43689   3.507   7.391  10.461  0.2959  0.7532  1.1093
  324MOL0     H43690   3.569   7.555  10.433 -1.2680  1.2690 -1.1331
  324MOL0     H43691   3.500   7.206  10.282  2.3119 -0.0807  0.7529
  324MOL0     H43692   3.671   7.155   9.960  1.1604 -0.2579  1.1197
  324MOL0     H43693   3.537   7.082  10.047 -0.6602  0.0630  0.3397
  324MOL0     H43694   3.383   7.232   9.900 -1.9616 -1.9586 -0.2211
  324MOL0     H43695   3.466   7.089   9.833 -0.7878  0.5120  1.9830
  324MOL0     H43696   3.595   7.229   9.690 -0.7521  0.5326 -3.6140
  324MOL0     H43697   3.598   7.372   9.797  0.8571 -0.7860  0.9842
  324MOL0     H43698   3.363   7.262   9.645 -0.3634 -0.5119 -0.9797
  324MOL0     H43699   3.447   7.407   9.603 -0.5479  0.5197  1.1202
  324MOL0     H43700   3.172   7.510   9.902  0.4520  0.2075 -0.4097
  324MOL0     H43701   3.151   7.826  10.098 -1.5094  0.5471 -1.9104
  324MOL0     H43702   3.068   7.689  10.025  1.9710 -0.1356 -1.7081
  324MOL0     H43703   3.176   7.665  10.165 -1.4280 -1.1389  0.2071
  324MOL0     H43704   3.782   8.031  10.086 -0.4439 -0.7250 -0.1853
  324MOL0     H43705   3.858   8.243  10.214  0.3343  0.7279  0.2001
  324MOL0     H43706   3.626   8.522  10.145 -0.7318  4.4527 -1.3039
  324MOL0     H43707   3.521   8.543  10.285 -1.2283  0.5102 -2.9479
  324MOL0     H43708   3.809   8.634  10.256  0.7374  1.5473  0.7486
  324MOL0     H43709   3.697   8.757  10.212  2.0359  0.7563  1.3412
  324MOL0     H43710   3.693   8.623  10.484 -1.2980  0.4610 -1.3565
  324MOL0     H43711   3.573   8.731  10.437 -0.3632 -2.2851 -1.5088
  324MOL0     H43712   3.863   8.810  10.436 -1.0911 -0.4723 -2.4400
  324MOL0     H43713   3.746   8.921  10.394  4.6116 -0.7958 -2.0002
  324MOL0     H43714   3.615   8.925  10.606 -1.6696 -2.5446 -4.4175
  324MOL0     H43715   3.781   8.971  10.639  0.6187 -1.2240  2.3263
  324MOL0     H43716   3.679   8.692  10.703  1.8440 -0.1954  0.2419
  324MOL0     H43717   3.835   8.748  10.715  0.3285  0.4804 -1.8175
  324MOL0     H43718   3.609   8.914  10.845  1.0357 -0.1889 -0.5427
  324MOL0     H43719   3.770   8.901  10.918  0.1974  0.1679 -0.1222
  324MOL0     H43720   3.559   8.686  10.924  0.5249 -1.2061 -0.3742
  324MOL0     H43721   3.613   8.793  11.056  2.5835 -0.2749  1.7302
  324MOL0     H43722   3.450   8.316  10.305 -2.1887 -2.0143 -0.1541
  324MOL0     H43723   3.365   8.126  10.154  0.2919 -3.9834  1.4856
  324MOL0     H43724   3.593   7.763   9.906  0.1133  0.0880 -1.3800
  324MOL0     H43725   3.553   7.585   9.733 -0.8409 -0.2852 -2.0248
  324MOL0     H43726   2.805   7.069  10.453  1.9310 -1.3793  1.0539
  324MOL0     H43727   2.932   6.959  10.311  0.3225  0.2176 -1.8804
  324MOL0     H43728   3.257   6.950   9.983 -0.3875  0.4147  0.9013
  324MOL0     H43729   3.351   6.815   9.826  1.6906 -1.3353 -0.2872
  324MOL0     H43730   3.735   6.566   9.985  2.0156 -0.7112 -0.4963
  324MOL0     H43731   3.608   6.445   9.966 -1.6433  1.2808 -0.0078
  324MOL0     H43732   3.768   6.557   9.742 -0.4424 -0.3392 -2.1138
  324MOL0     H43733   3.649   6.420   9.733 -1.2604  3.2583 -1.6536
  324MOL0     H43734   3.774   6.284   9.863  2.6568 -0.2792  1.9402
  324MOL0     H43735   3.893   6.404   9.926  0.8626  1.5816  0.2084
  324MOL0     H43736   3.969   6.454   9.687 -2.7294  1.4083 -1.4987
  324MOL0     H43737   3.874   6.322   9.631  0.4521  2.9038 -1.2969
  324MOL0     H43738   4.223   6.156   9.833  1.5006  1.9330 -1.1532
  324MOL0     H43739   3.594   6.637  10.155 -0.6080  0.5040  1.7448
  324MOL0     H43740   3.474   6.770  10.300  0.5513  0.0274 -0.4646
  325MOL0     O43741  10.842   0.367   4.066 -0.1240 -0.2146  0.0659
  325MOL0     C43742  10.852   0.445   3.966 -0.2912 -0.2731 -0.4532
  325MOL0     O43743  10.955   0.543   3.947 -0.3547 -0.9856  0.0581
  325MOL0     C43744  11.052   0.552   4.036  0.7402  0.7445 -1.6477
  325MOL0     C43745  11.028   0.639   4.143  0.6060 -0.1476 -0.0548
  325MOL0     C43746  11.123   0.652   4.243  0.4288  0.2377  0.7874
  325MOL0     C43747  11.243   0.583   4.227  0.3476  0.6514  0.0403
  325MOL0     O43748  11.343   0.612   4.331  0.3896  0.2734  0.9067
  325MOL0     C43749  11.479   0.547   4.318  0.4275 -0.3176  0.0922
  325MOL0     C43750  11.572   0.599   4.440  1.1397 -0.9400 -0.1100
  325MOL0     C43751  11.662   0.703   4.394 -0.3534 -0.1834 -0.5656
  325MOL0     C43752  11.719   0.776   4.516  0.7272 -1.1692  1.3526
  325MOL0     C43753  11.847   0.866   4.504  0.0602 -0.2791  0.4701
  325MOL0     C43754  11.914   0.885   4.636 -0.5076  0.7102  0.1775
  325MOL0     C43755  11.974   0.757   4.692 -0.0875  0.4685 -0.1693
  325MOL0     C43756  12.066   0.784   4.810 -0.7622 -0.3307 -0.1159
  325MOL0     N43757  12.019   0.874   4.913  0.4576  0.4758  0.5098
  325MOL0     C43758  12.041   1.005   4.921 -0.4909 -0.1854  0.7707
  325MOL0     C43759  12.040   1.036   5.051 -0.4131  0.8681 -0.4643
  325MOL0     C43760  12.063   1.176   5.116 -0.4246  0.2326  0.3125
  325MOL0     C43761  11.929   1.248   5.150  0.9452 -0.1662 -0.6214
  325MOL0     C43762  11.961   1.378   5.234  0.6041  0.3013  0.6116
  325MOL0     C43763  11.935   1.509   5.154  0.7115 -0.1437  0.1030
  325MOL0     O43764  12.010   1.504   5.032 -0.2897 -0.0654  0.4479
  325MOL0     C43765  12.104   1.599   5.018 -0.1173 -0.7500  1.1537
  325MOL0     C43766  12.231   1.587   4.975  0.2996  0.0293 -0.3425
  325MOL0     C43767  12.321   1.688   4.978 -0.9894 -0.2021  0.2017
  325MOL0     C43768  12.474   1.659   4.961 -0.6288 -0.7812 -1.0422
  325MOL0     C43769  12.276   1.826   4.985 -0.4832  0.2045 -0.1580
  325MOL0     C43770  12.364   1.938   4.966  0.3794  0.4974  0.2924
  325MOL0     O43771  12.329   2.056   5.023 -0.5333  0.2949 -0.6730
  325MOL0     C43772  12.395   2.175   4.989  0.1194 -0.0757 -0.5480
  325MOL0     C43773  12.321   2.266   4.904 -1.0925  1.2685 -0.4850
  325MOL0     C43774  12.392   2.370   4.855 -0.2985  0.4331  0.3487
  325MOL0     C43775  12.530   2.393   4.883  0.2323 -0.0058  0.1638
  325MOL0     O43776  12.590   2.510   4.833  0.5230  0.2302 -0.1900
  325MOL0     C43777  12.529   2.608   4.742 -0.5858  0.7074 -0.1385
  325MOL0     C43778  12.514   2.548   4.602 -0.4968 -0.0443 -0.0838
  325MOL0     C43779  12.538   2.645   4.484 -0.0399 -0.1351 -0.0847
  325MOL0     C43780  12.537   2.554   4.350  0.4794 -1.4585  0.1980
  325MOL0     C43781  12.539   2.646   4.225  1.1749  0.0582 -0.0952
  325MOL0     C43782  12.544   2.572   4.093 -0.4777 -0.4411  0.2417
  325MOL0     C43783  12.574   2.667   3.975  0.2570  0.0958 -0.7849
  325MOL0     C43784  12.447   2.736   3.927  0.0044 -0.3334  0.8744
  325MOL0    Cl43785  12.479   2.806   3.770 -0.2858 -0.1812 -0.2656
  325MOL0     C43786  12.591   2.308   4.983  0.3648 -1.6037  0.3757
  325MOL0     C43787  12.518   2.205   5.046 -0.3919 -0.7574  0.0608
  325MOL0     O43788  12.436   1.916   4.874 -0.5983 -0.4163  0.2054
  325MOL0     C43789  12.147   1.848   5.026  0.0966  0.5130 -0.5196
  325MOL0     C43790  12.060   1.737   5.033 -1.2841 -0.0654 -0.5020
  325MOL0     N43791  12.020   0.923   5.131  0.1458 -0.0765 -0.8285
  325MOL0     N43792  12.002   0.820   5.040 -0.5827 -0.5969  0.5158
  325MOL0     C43793  11.258   0.484   4.135  0.3912 -0.2111  0.3584
  325MOL0     C43794  11.164   0.471   4.036 -0.7078 -0.4544 -1.2467
  325MOL0     C43795  10.746   0.453   3.860 -0.3756 -1.0834 -0.5339
  325MOL0     C43796  10.637   0.379   3.879  0.2715 -1.2049 -0.2505
  325MOL0     C43797  10.540   0.369   3.778  0.3720  0.0563 -0.9189
  325MOL0     C43798  10.550   0.449   3.663  0.1616 -0.1727  0.4775
  325MOL0     O43799  10.458   0.449   3.554  0.1300 -0.6888  0.5399
  325MOL0     C43800  10.332   0.378   3.565  0.6676 -0.2142 -0.7482
  325MOL0     C43801  10.246   0.392   3.442  0.3694 -0.2761 -0.5714
  325MOL0     C43802  10.256   0.534   3.379 -0.8431 -0.4514 -0.9904
  325MOL0     C43803  10.158   0.551   3.265 -0.1751 -0.1427 -0.2841
  325MOL0     C43804  10.151   0.697   3.231 -1.1875 -0.1335  0.2763
  325MOL0     C43805  10.166   0.817   3.211 -0.0463  0.4531  0.1211
  325MOL0     C43806  10.660   0.526   3.646  0.6087 -0.1551 -0.6894
  325MOL0     C43807  10.763   0.534   3.746 -0.6699  1.4866 -0.4964
  325MOL0     H43808  10.936   0.692   4.162  0.9158  0.5480 -0.4579
  325MOL0     H43809  11.103   0.714   4.329  0.6611  2.0327 -0.3961
  325MOL0     H43810  11.459   0.439   4.321  2.4661 -0.7558 -0.3003
  325MOL0     H43811  11.527   0.581   4.226  0.1267  5.4016  1.6985
  325MOL0     H43812  11.506   0.649   4.512  2.3087  0.6665 -0.1239
  325MOL0     H43813  11.637   0.521   4.480  3.5133  1.5238  1.1130
  325MOL0     H43814  11.741   0.658   4.333 -1.7672 -0.6351 -2.1564
  325MOL0     H43815  11.620   0.790   4.344 -1.5892 -0.8611 -0.7616
  325MOL0     H43816  11.637   0.842   4.547  1.4308  0.8158 -0.6945
  325MOL0     H43817  11.733   0.703   4.597  0.0677 -1.4478  1.2195
  325MOL0     H43818  11.918   0.815   4.438  3.4264 -1.5885  4.6345
  325MOL0     H43819  11.819   0.960   4.457 -1.1395 -1.2013 -0.7356
  325MOL0     H43820  11.999   0.951   4.616  2.9110 -2.6771  2.2241
  325MOL0     H43821  11.850   0.944   4.703  1.7619  0.4322  2.7590
  325MOL0     H43822  11.895   0.689   4.727  0.2778 -1.3220 -2.5293
  325MOL0     H43823  12.027   0.702   4.614 -0.2345  0.9841 -0.6442
  325MOL0     H43824  12.150   0.836   4.761 -0.5571 -1.9273 -1.5419
  325MOL0     H43825  12.099   0.689   4.851  0.5023  0.8999  1.8959
  325MOL0     H43826  12.035   1.073   4.837 -0.3059  0.6556  1.4256
  325MOL0     H43827  12.133   1.160   5.199  3.1370  2.7794 -1.8923
  325MOL0     H43828  12.126   1.238   5.051  2.9151 -1.3991  1.7395
  325MOL0     H43829  11.866   1.195   5.221 -0.3166  1.0596 -0.7822
  325MOL0     H43830  11.876   1.287   5.062 -1.5980  0.7959  1.2334
  325MOL0     H43831  12.061   1.386   5.278  0.3318  1.5200  1.0688
  325MOL0     H43832  11.891   1.386   5.318 -2.3784 -3.6804 -1.1787
  325MOL0     H43833  11.957   1.589   5.225  1.0753  0.6211 -0.8395
  325MOL0     H43834  11.827   1.522   5.143  0.5647 -0.9747  0.5462
  325MOL0     H43835  12.261   1.487   4.944 -2.0875 -0.5027 -1.1724
  325MOL0     H43836  12.492   1.560   5.005 -0.9817  0.0356  1.0726
  325MOL0     H43837  12.518   1.667   4.862 -1.5062 -1.4350 -1.4993
  325MOL0     H43838  12.528   1.727   5.028  1.1796 -2.9354 -0.1912
  325MOL0     H43839  12.218   2.254   4.872 -0.4307 -0.9924 -1.9680
  325MOL0     H43840  12.336   2.437   4.791  0.7430 -2.4871 -4.0557
  325MOL0     H43841  12.432   2.643   4.777 -0.0010  1.1860  1.0579
  325MOL0     H43842  12.598   2.693   4.739  1.5041 -0.9206 -2.3156
  325MOL0     H43843  12.600   2.480   4.597 -1.9998 -1.9813 -1.2508
  325MOL0     H43844  12.422   2.488   4.605  1.2333 -3.2115 -3.0711
  325MOL0     H43845  12.630   2.703   4.484 -1.5886  2.5536  1.6014
  325MOL0     H43846  12.456   2.718   4.478 -1.7938 -2.0269 -0.2915
  325MOL0     H43847  12.616   2.479   4.351  3.0796  1.1287  1.3204
  325MOL0     H43848  12.436   2.510   4.348 -0.5523  0.2667 -5.4539
  325MOL0     H43849  12.627   2.711   4.224  0.5784  0.8659 -0.5895
  325MOL0     H43850  12.450   2.708   4.225  1.2947  0.2291  0.2669
  325MOL0     H43851  12.614   2.488   4.093 -0.5584 -0.5130 -0.5798
  325MOL0     H43852  12.448   2.521   4.078  0.0863 -0.9741 -1.8110
  325MOL0     H43853  12.637   2.606   3.910  0.0369  0.2983 -1.1918
  325MOL0     H43854  12.637   2.743   4.022  0.4624 -1.7975  2.2893
  325MOL0     H43855  12.420   2.812   4.000  0.7804 -1.6703  2.6426
  325MOL0     H43856  12.361   2.667   3.932  1.0124 -1.6519  0.6793
  325MOL0     H43857  12.696   2.331   5.000  0.8527 -1.5416 -2.2647
  325MOL0     H43858  12.570   2.129   5.104 -1.4627 -2.1814 -0.7516
  325MOL0     H43859  12.102   1.945   5.044  1.9072  1.1504  0.8961
  325MOL0     H43860  11.960   1.752   5.070 -0.4470  3.9935  0.6346
  325MOL0     H43861  11.349   0.426   4.123  0.8087  0.1235  1.6470
  325MOL0     H43862  11.160   0.407   3.949  0.1278 -0.0259 -1.6101
  325MOL0     H43863  10.628   0.335   3.978  2.9087  0.2803  0.7677
  325MOL0     H43864  10.476   0.285   3.800 -3.5597  2.1078 -3.5113
  325MOL0     H43865  10.356   0.272   3.582  0.0611 -0.6655 -2.4498
  325MOL0     H43866  10.273   0.408   3.652  0.5817 -3.1264  0.3347
  325MOL0     H43867  10.144   0.359   3.464  1.7637 -3.7462  1.5499
  325MOL0     H43868  10.288   0.323   3.369  3.2013  0.2068  0.4889
  325MOL0     H43869  10.355   0.555   3.338 -0.6459 -0.0475 -0.3250
  325MOL0     H43870  10.234   0.614   3.450 -2.3176 -0.7497 -1.0678
  325MOL0     H43871  10.057   0.518   3.292 -0.0856 -1.2021 -1.1855
  325MOL0     H43872  10.186   0.496   3.175 -0.7632  1.5904 -1.5874
  325MOL0     H43873  10.178   0.923   3.203  1.0478  0.1967 -2.9322
  325MOL0     H43874  10.673   0.591   3.560 -1.1147  0.1320 -0.7637
  325MOL0     H43875  10.840   0.610   3.737 -2.0486  2.8938 -0.8627
  326MOL0     O43876   6.382   1.794  10.561 -1.1417  0.3715  0.1360
  326MOL0     C43877   6.451   1.740  10.642  0.0414 -0.3739 -0.3720
  326MOL0     O43878   6.465   1.781  10.768  0.4305 -0.3390  0.5482
  326MOL0     C43879   6.392   1.892  10.818 -0.9407  0.6371  0.4833
  326MOL0     C43880   6.392   2.024  10.777  0.6304 -0.1974 -0.2440
  326MOL0     C43881   6.333   2.128  10.853  0.3083  0.3461  0.7490
  326MOL0     C43882   6.277   2.108  10.981 -0.2981  1.1649  0.2218
  326MOL0     O43883   6.253   2.210  11.084 -0.2871  0.9951  0.2842
  326MOL0     C43884   6.222   2.147  11.210 -0.0286  0.6674  0.0299
  326MOL0     C43885   6.207   2.260  11.310  0.9968 -0.5293  0.0573
  326MOL0     C43886   6.091   2.354  11.275 -0.2461 -0.4869 -0.6214
  326MOL0     C43887   5.951   2.327  11.333  0.7111  0.3521 -0.6642
  326MOL0     C43888   5.912   2.381  11.475 -0.6914 -0.2880 -0.8600
  326MOL0     C43889   6.020   2.384  11.581 -0.7416 -1.0634 -0.2935
  326MOL0     C43890   5.975   2.426  11.726 -0.8414 -0.2029  0.1468
  326MOL0     C43891   5.898   2.550  11.747 -0.9892  0.4423 -0.7975
  326MOL0     N43892   5.750   2.541  11.738 -0.5176 -0.1196  0.1624
  326MOL0     C43893   5.667   2.652  11.716 -0.2753 -0.5366 -1.2687
  326MOL0     C43894   5.548   2.595  11.699  0.2496  0.3860  0.2175
  326MOL0     C43895   5.416   2.656  11.660 -0.7256 -0.6608 -0.8746
  326MOL0     C43896   5.337   2.698  11.783 -0.3486 -0.1949 -0.6124
  326MOL0     C43897   5.384   2.835  11.840  0.7198 -0.2156  0.4415
  326MOL0     C43898   5.309   2.878  11.956  0.1421 -0.4041  0.4857
  326MOL0     O43899   5.390   2.909  12.065  1.2458  0.0147 -0.1097
  326MOL0     C43900   5.437   3.034  12.066 -0.1919  0.5790  0.2893
  326MOL0     C43901   5.491   3.071  12.193 -0.8721  0.0773 -0.0377
  326MOL0     C43902   5.566   3.195  12.215  1.1153  0.6270  0.3559
  326MOL0     C43903   5.614   3.216  12.359 -0.2904 -0.6191 -0.2610
  326MOL0     C43904   5.569   3.284  12.112 -0.6981  0.7463 -0.3787
  326MOL0     C43905   5.636   3.410  12.132 -0.0486 -0.9350  0.5826
  326MOL0     O43906   5.574   3.504  12.205  0.0080  0.1963 -0.5231
  326MOL0     C43907   5.619   3.627  12.229 -0.3733  0.2230  0.0590
  326MOL0     C43908   5.527   3.702  12.305  1.1128 -0.5312 -0.2517
  326MOL0     C43909   5.540   3.844  12.320 -0.3937 -0.1877  0.9051
  326MOL0     C43910   5.648   3.909  12.266  0.0668 -0.5938  0.0786
  326MOL0     O43911   5.652   4.041  12.293  0.4578  0.4135 -0.0915
  326MOL0     C43912   5.701   4.125  12.184  0.2671  0.1898 -0.5340
  326MOL0     C43913   5.674   4.275  12.219 -0.8550  0.8875 -0.2207
  326MOL0     C43914   5.744   4.324  12.340 -1.2076  0.3166 -0.5114
  326MOL0     C43915   5.685   4.459  12.382  0.4167  0.6273  0.7313
  326MOL0     C43916   5.768   4.496  12.509 -0.2679 -0.5074  0.7502
  326MOL0     C43917   5.754   4.646  12.519 -0.3018  0.5963  0.0435
  326MOL0     C43918   5.842   4.689  12.639  0.3365 -0.1168  0.5863
  326MOL0     C43919   5.992   4.697  12.586 -0.9564  0.0587  0.2654
  326MOL0    Cl43920   6.069   4.801  12.723 -0.3448  0.2392 -0.2523
  326MOL0     C43921   5.750   3.829  12.213 -0.5269  0.8529  0.2698
  326MOL0     C43922   5.741   3.685  12.191  0.1730  0.5921 -0.3061
  326MOL0     O43923   5.738   3.434  12.068 -0.5679  0.5398 -0.5625
  326MOL0     C43924   5.519   3.247  11.983  0.1856  0.0596  0.1680
  326MOL0     C43925   5.460   3.127  11.960  0.3035  0.6900 -0.2236
  326MOL0     N43926   5.555   2.459  11.707 -0.0388 -0.4074  0.2058
  326MOL0     N43927   5.678   2.425  11.727 -1.2731 -0.6400  0.6946
  326MOL0     C43928   6.242   1.972  11.005  0.0271  0.7945  0.6600
  326MOL0     C43929   6.301   1.864  10.923  1.0142 -0.5690 -0.3911
  326MOL0     C43930   6.539   1.634  10.582  1.2467  0.0296  0.1821
  326MOL0     C43931   6.529   1.606  10.445 -0.4198 -0.4019  0.2636
  326MOL0     C43932   6.601   1.500  10.387  0.1356 -0.3562 -0.2899
  326MOL0     C43933   6.697   1.435  10.463 -0.3827 -0.2870  0.2606
  326MOL0     O43934   6.769   1.333  10.398  0.0218 -0.4262 -0.7124
  326MOL0     C43935   6.846   1.246  10.477 -1.0421 -0.2428 -0.7939
  326MOL0     C43936   6.891   1.140  10.375 -1.2899  0.4702 -0.3399
  326MOL0     C43937   7.008   1.056  10.434 -1.5990  0.3041  0.5217
  326MOL0     C43938   6.960   0.944  10.531 -0.7353 -0.1661 -0.4863
  326MOL0     C43939   6.907   0.833  10.462  0.6208  1.0604  0.2655
  326MOL0     C43940   6.887   0.735  10.386 -0.4018  0.4749 -0.6010
  326MOL0     C43941   6.708   1.469  10.597 -0.8834 -1.4532 -0.1139
  326MOL0     C43942   6.631   1.562  10.659  0.3587 -0.8562  0.2185
  326MOL0     H43943   6.456   2.051  10.694 -1.1399 -1.2766 -2.0556
  326MOL0     H43944   6.364   2.227  10.823  1.9289 -0.7198 -1.3981
  326MOL0     H43945   6.126   2.095  11.208  0.0692  0.3759  1.4957
  326MOL0     H43946   6.303   2.082  11.245 -1.0315  0.5528  2.4018
  326MOL0     H43947   6.183   2.215  11.407  0.4915 -0.7016 -0.1449
  326MOL0     H43948   6.303   2.309  11.330  0.7410 -0.3954  1.0637
  326MOL0     H43949   6.116   2.460  11.285 -0.3894 -0.0514 -3.8047
  326MOL0     H43950   6.079   2.348  11.167 -0.5069 -0.9081 -0.5697
  326MOL0     H43951   5.873   2.372  11.271  0.6042  2.3718  0.8486
  326MOL0     H43952   5.926   2.221  11.342 -0.1738  0.6635  0.9264
  326MOL0     H43953   5.871   2.483  11.470  0.8030  0.3996  0.3048
  326MOL0     H43954   5.831   2.321  11.519 -0.3560 -0.5956 -0.6572
  326MOL0     H43955   6.057   2.281  11.582  1.4342 -0.3402  1.1248
  326MOL0     H43956   6.099   2.455  11.557 -0.3544 -1.8183 -1.3236
  326MOL0     H43957   5.911   2.347  11.769  0.0684 -0.2837  1.4079
  326MOL0     H43958   6.068   2.430  11.783 -0.5960 -0.1141 -0.2612
  326MOL0     H43959   5.935   2.626  11.678 -1.9793  0.5833 -1.1876
  326MOL0     H43960   5.928   2.596  11.842  0.4731  1.0946 -1.5546
  326MOL0     H43961   5.691   2.757  11.727 -0.6920 -0.6709  2.0543
  326MOL0     H43962   5.423   2.744  11.596 -1.7985  1.6074  1.8998
  326MOL0     H43963   5.360   2.582  11.603  2.4467 -2.1235 -2.3692
  326MOL0     H43964   5.342   2.625  11.864  1.0318  0.7200  0.1807
  326MOL0     H43965   5.231   2.706  11.760 -0.3653  1.2641 -0.1070
  326MOL0     H43966   5.378   2.910  11.761  1.9253  1.5141  1.8989
  326MOL0     H43967   5.486   2.828  11.879  0.4782 -1.5290  0.8962
  326MOL0     H43968   5.242   2.799  11.990 -0.1623 -0.4052 -0.1085
  326MOL0     H43969   5.244   2.961  11.926 -0.1267 -0.3429  1.2177
  326MOL0     H43970   5.467   3.014  12.282  3.2044  0.9717  1.8925
  326MOL0     H43971   5.549   3.294  12.399 -2.0606 -1.8985 -0.4895
  326MOL0     H43972   5.615   3.127  12.422  0.1443  0.9083  1.9799
  326MOL0     H43973   5.715   3.257  12.355 -1.3392  2.4876  1.9074
  326MOL0     H43974   5.430   3.664  12.336 -1.3500  4.1751 -1.1616
  326MOL0     H43975   5.468   3.902  12.377  2.5780  2.6192  2.1289
  326MOL0     H43976   5.804   4.089  12.174  0.2189 -0.1668  0.2081
  326MOL0     H43977   5.646   4.107  12.091  0.4710 -1.1851 -0.4134
  326MOL0     H43978   5.700   4.333  12.130  1.0096  0.3045 -0.0899
  326MOL0     H43979   5.568   4.294  12.238 -0.8384 -1.4272  2.9450
  326MOL0     H43980   5.850   4.337  12.313 -0.7932  1.2622  1.4229
  326MOL0     H43981   5.745   4.236  12.405  4.7162 -3.0737 -4.1574
  326MOL0     H43982   5.701   4.535  12.305 -0.6460  0.5117  0.3822
  326MOL0     H43983   5.577   4.449  12.398  0.4909 -1.4878  0.2124
  326MOL0     H43984   5.876   4.480  12.505  0.1942  1.9027  1.5538
  326MOL0     H43985   5.734   4.440  12.596  0.7557  1.1624  2.2846
  326MOL0     H43986   5.779   4.693  12.424  0.0123  2.7860  1.1132
  326MOL0     H43987   5.648   4.660  12.542 -0.0230 -1.2684  2.9707
  326MOL0     H43988   5.823   4.629  12.728 -2.1246  0.2618  0.3817
  326MOL0     H43989   5.826   4.794  12.666  5.2706  0.8180  0.9126
  326MOL0     H43990   6.008   4.763  12.500  1.3609  2.4769  2.3222
  326MOL0     H43991   6.044   4.604  12.560 -2.7547 -0.1265 -3.1551
  326MOL0     H43992   5.820   3.892  12.159 -3.4006  4.8929  0.8053
  326MOL0     H43993   5.808   3.645  12.115  0.1172  1.6677 -0.9447
  326MOL0     H43994   5.507   3.329  11.913  1.5036 -0.2396 -0.4453
  326MOL0     H43995   5.427   3.098  11.861 -0.1832 -0.0075  0.1304
  326MOL0     H43996   6.182   1.948  11.093 -2.0015  0.9614 -0.6036
  326MOL0     H43997   6.267   1.764  10.945 -2.1466  0.4835 -0.0463
  326MOL0     H43998   6.474   1.673  10.380  0.5264  0.0974 -0.0472
  326MOL0     H43999   6.589   1.490  10.280  3.2130  2.1015 -0.9990
  326MOL0     H44000   6.933   1.304  10.508  2.3860 -4.5381 -1.3563
  326MOL0     H44001   6.795   1.191  10.556  1.3793 -2.1079 -0.3957
  326MOL0     H44002   6.928   1.190  10.285 -1.0799 -1.1621 -1.2023
  326MOL0     H44003   6.799   1.086  10.353 -1.7505  1.5887 -1.3042
  326MOL0     H44004   7.084   1.118  10.481 -1.6934  0.7502  0.0968
  326MOL0     H44005   7.055   1.003  10.350  0.7431  1.0634  1.2758
  326MOL0     H44006   6.880   0.987  10.591 -0.1961 -0.1158  0.2137
  326MOL0     H44007   7.040   0.909  10.596 -0.8649 -0.7521 -0.6338
  326MOL0     H44008   6.861   0.657  10.317  0.2460  0.3860 -0.7542
  326MOL0     H44009   6.793   1.431  10.653 -1.8295 -0.1117  2.3673
  326MOL0     H44010   6.650   1.589  10.762  2.1894  1.1863 -0.5817
  327MOL0     O44011   2.043   3.531   5.367  1.7452  0.1866 -1.0213
  327MOL0     C44012   2.017   3.423   5.305 -1.0362 -0.4558  0.5644
  327MOL0     O44013   1.921   3.339   5.340 -0.6942  0.1118  0.0326
  327MOL0     C44014   1.817   3.388   5.416 -0.0055  0.1400  0.2866
  327MOL0     C44015   1.822   3.375   5.553  0.8139 -0.4247  0.4582
  327MOL0     C44016   1.709   3.394   5.638  0.9813 -0.7605 -0.0127
  327MOL0     C44017   1.593   3.457   5.577 -0.1673  0.9937 -0.0893
  327MOL0     O44018   1.489   3.507   5.642 -0.0341  0.1758 -0.3299
  327MOL0     C44019   1.490   3.530   5.781 -0.1001  0.2306 -0.3216
  327MOL0     C44020   1.361   3.612   5.824  0.2370  0.6633  0.4735
  327MOL0     C44021   1.235   3.535   5.805  0.6032  0.3630 -0.8448
  327MOL0     C44022   1.096   3.613   5.818 -0.1054 -0.0929  0.2919
  327MOL0     C44023   0.989   3.506   5.786  0.0158  0.3497 -0.8452
  327MOL0     C44024   0.844   3.564   5.795  0.1870  0.7585 -0.4335
  327MOL0     C44025   0.742   3.444   5.751 -0.4504 -0.7051 -0.0163
  327MOL0     C44026   0.716   3.345   5.862 -0.2544  0.2815 -0.4802
  327MOL0     N44027   0.598   3.380   5.939 -0.0098  0.3369 -0.1824
  327MOL0     C44028   0.565   3.475   6.034  0.2350  0.1726  0.4671
  327MOL0     C44029   0.451   3.439   6.099 -0.8904  0.1697 -0.6062
  327MOL0     C44030   0.372   3.520   6.207 -0.7288  0.7442 -0.6598
  327MOL0     C44031   0.283   3.614   6.135  0.7676  0.0099  0.4397
  327MOL0     C44032   0.135   3.591   6.130  0.4787  0.2859 -0.0930
  327MOL0     C44033   0.064   3.698   6.042 -0.3387 -0.2185  0.5276
  327MOL0     O44034   0.088   3.835   6.080  0.0766  1.0474  0.6675
  327MOL0     C44035  -0.022   3.915   6.065 -0.5049 -1.0797  0.1915
  327MOL0     C44036  -0.038   4.020   6.161 -0.4633  0.9685 -0.2484
  327MOL0     C44037  -0.135   4.133   6.145 -0.1879  0.0807 -1.2015
  327MOL0     C44038  -0.123   4.250   6.247  0.6072 -0.0259 -0.4043
  327MOL0     C44039  -0.223   4.130   6.039 -0.3514 -0.4789 -1.3863
  327MOL0     C44040  -0.332   4.225   6.017 -0.3790 -0.8659  0.5896
  327MOL0     O44041  -0.404   4.206   5.902 -0.7290  0.4890 -0.0795
  327MOL0     C44042  -0.494   4.295   5.859  0.1201  0.5750 -0.1364
  327MOL0     C44043  -0.444   4.410   5.807 -0.2376  0.0358  0.0436
  327MOL0     C44044  -0.523   4.522   5.783  0.8737  0.0834 -0.1595
  327MOL0     C44045  -0.661   4.514   5.814  0.2012 -0.3845  0.7745
  327MOL0     O44046  -0.738   4.617   5.774 -0.4356  0.6713 -0.1690
  327MOL0     C44047  -0.859   4.644   5.847 -0.0182  0.1086  0.4225
  327MOL0     C44048  -0.904   4.786   5.840 -0.3018 -0.1021  1.2456
  327MOL0     C44049  -0.793   4.881   5.884 -0.1056 -0.2342  0.0088
  327MOL0     C44050  -0.858   5.017   5.907  0.6679 -0.2983 -0.5981
  327MOL0     C44051  -0.763   5.103   6.004  0.7169 -0.2205 -0.2470
  327MOL0     C44052  -0.674   5.193   5.932  0.4792 -0.0454  0.0999
  327MOL0     C44053  -0.742   5.312   5.855 -0.7093  0.1866  0.1774
  327MOL0     C44054  -0.651   5.387   5.765 -1.4737  0.3131 -0.2545
  327MOL0    Cl44055  -0.587   5.273   5.641  0.0783  0.1012 -0.3767
  327MOL0     C44056  -0.715   4.386   5.855 -0.1862 -2.1089  0.1266
  327MOL0     C44057  -0.629   4.279   5.878  0.4742 -0.4688 -0.7975
  327MOL0     O44058  -0.353   4.309   6.105 -0.3352 -0.1929  0.0665
  327MOL0     C44059  -0.202   4.030   5.937 -0.4432  0.5032  0.7301
  327MOL0     C44060  -0.107   3.930   5.952 -0.3107  0.3474  0.1788
  327MOL0     N44061   0.423   3.310   6.050 -0.2195  0.5800 -0.1320
  327MOL0     N44062   0.503   3.285   5.954  0.6654  0.1399 -0.3256
  327MOL0     C44063   1.586   3.464   5.434 -0.2199 -0.8650  0.5046
  327MOL0     C44064   1.699   3.434   5.358 -0.0393 -0.4323 -0.5290
  327MOL0     C44065   2.116   3.381   5.212 -0.5756  0.3179 -0.9588
  327MOL0     C44066   2.115   3.252   5.157  0.2780 -1.0929  0.8300
  327MOL0     C44067   2.203   3.207   5.056  0.5601 -0.2673  0.5282
  327MOL0     C44068   2.309   3.294   5.015 -0.4970 -0.5495 -0.4514
  327MOL0     O44069   2.394   3.279   4.908  0.5173 -0.5819  0.0165
  327MOL0     C44070   2.383   3.167   4.816  0.1319 -0.4344 -1.4255
  327MOL0     C44071   2.390   3.192   4.671  0.4737  0.1910 -0.2836
  327MOL0     C44072   2.282   3.279   4.625  0.3820 -1.2282  0.3186
  327MOL0     C44073   2.266   3.273   4.479 -0.7620  0.0549  0.1336
  327MOL0     C44074   2.380   3.314   4.396 -0.3313 -0.2293 -0.5077
  327MOL0     C44075   2.469   3.359   4.331  0.0494 -0.1762 -0.1986
  327MOL0     C44076   2.315   3.420   5.079 -0.8361  0.1587  0.5173
  327MOL0     C44077   2.221   3.459   5.171 -0.1416 -0.2431 -0.6692
  327MOL0     H44078   1.910   3.335   5.602  1.2308 -0.5447 -0.3580
  327MOL0     H44079   1.723   3.387   5.745 -0.8792 -0.8928  0.2523
  327MOL0     H44080   1.487   3.439   5.842  0.6407 -0.4067 -1.2090
  327MOL0     H44081   1.576   3.588   5.815 -1.3034  1.7682  0.2476
  327MOL0     H44082   1.371   3.647   5.927 -1.0660  1.1638  0.4474
  327MOL0     H44083   1.359   3.706   5.767 -1.2450 -0.3406 -1.2491
  327MOL0     H44084   1.239   3.479   5.711 -0.2624 -1.3511  0.0930
  327MOL0     H44085   1.230   3.459   5.883  0.2898  1.8378  0.6227
  327MOL0     H44086   1.073   3.661   5.913  0.7796  1.4971 -0.2610
  327MOL0     H44087   1.101   3.703   5.757  1.9001  0.2652  0.9310
  327MOL0     H44088   1.017   3.466   5.688  0.8743 -2.1852  0.3481
  327MOL0     H44089   1.000   3.415   5.845  3.5789  1.2722  0.1281
  327MOL0     H44090   0.828   3.601   5.897  0.6589 -0.1227 -0.0329
  327MOL0     H44091   0.850   3.648   5.725 -1.3726  1.2142 -0.0503
  327MOL0     H44092   0.647   3.489   5.722 -0.0353  0.8061  0.8415
  327MOL0     H44093   0.788   3.394   5.665  0.6467 -1.3262  0.8912
  327MOL0     H44094   0.793   3.328   5.938  0.6631 -0.6549 -1.5934
  327MOL0     H44095   0.696   3.248   5.817  1.4527 -0.2479 -0.1690
  327MOL0     H44096   0.622   3.566   6.049  0.2673  0.4485 -1.1358
  327MOL0     H44097   0.311   3.450   6.265 -1.9868  1.9502 -0.4516
  327MOL0     H44098   0.425   3.589   6.273  0.1023  0.0331 -0.5698
  327MOL0     H44099   0.319   3.621   6.032 -1.8871  0.4153 -0.5403
  327MOL0     H44100   0.297   3.714   6.179  0.7164  1.4668 -2.6366
  327MOL0     H44101   0.096   3.582   6.232 -0.4036  2.5498 -0.1646
  327MOL0     H44102   0.106   3.496   6.086 -1.0089  0.0180  1.3471
  327MOL0     H44103  -0.045   3.693   6.043 -0.4842  1.3905 -1.4207
  327MOL0     H44104   0.085   3.686   5.936 -2.2257 -0.2267  0.1270
  327MOL0     H44105   0.007   4.011   6.259  0.2019 -0.2117 -0.6303
  327MOL0     H44106  -0.048   4.220   6.319 -0.2865  1.3992  1.1988
  327MOL0     H44107  -0.094   4.337   6.187 -2.3228 -0.3673 -2.5828
  327MOL0     H44108  -0.215   4.273   6.302  0.3182 -1.3289 -0.3040
  327MOL0     H44109  -0.338   4.417   5.782  0.5432 -0.6568  2.8880
  327MOL0     H44110  -0.471   4.613   5.755  0.3394 -0.3175 -2.7804
  327MOL0     H44111  -0.939   4.574   5.820 -0.9862  0.2660  2.6410
  327MOL0     H44112  -0.828   4.608   5.946 -1.7611 -1.1018  0.5690
  327MOL0     H44113  -0.938   4.823   5.743 -3.5202  1.4902  2.8063
  327MOL0     H44114  -0.990   4.791   5.908 -0.0157 -3.2975  2.0127
  327MOL0     H44115  -0.724   4.866   5.801 -1.4289 -0.1305 -1.1309
  327MOL0     H44116  -0.749   4.840   5.976 -2.8206 -4.8198 -0.4472
  327MOL0     H44117  -0.869   5.074   5.814  1.5565 -0.5842 -0.8959
  327MOL0     H44118  -0.953   5.017   5.960  0.4013 -2.8228 -0.9664
  327MOL0     H44119  -0.696   5.036   6.059  0.2996 -0.9387 -0.6024
  327MOL0     H44120  -0.820   5.156   6.081  0.3290 -2.5628  1.1635
  327MOL0     H44121  -0.620   5.227   6.021 -2.7650 -2.0350  3.0775
  327MOL0     H44122  -0.618   5.135   5.859 -3.2415 -0.4084 -2.7642
  327MOL0     H44123  -0.774   5.392   5.923  0.8657  0.9740  0.0297
  327MOL0     H44124  -0.826   5.283   5.791  0.8528 -1.5564 -1.1996
  327MOL0     H44125  -0.567   5.430   5.821 -0.0313 -2.7855  0.1500
  327MOL0     H44126  -0.700   5.473   5.718 -0.5482  1.3614  0.6323
  327MOL0     H44127  -0.822   4.395   5.871  0.4174  0.4554  4.1038
  327MOL0     H44128  -0.666   4.186   5.919 -0.1199  0.0816 -0.0413
  327MOL0     H44129  -0.268   4.030   5.851  3.1501  2.4628 -2.3247
  327MOL0     H44130  -0.106   3.852   5.877 -1.1590 -1.1454  1.6322
  327MOL0     H44131   1.495   3.511   5.398 -0.1468 -1.2335 -0.1794
  327MOL0     H44132   1.678   3.436   5.252  1.3460  0.6395 -0.8149
  327MOL0     H44133   2.034   3.185   5.186  1.0852 -2.0249  0.9818
  327MOL0     H44134   2.185   3.114   5.003  0.7225 -0.2024  0.3583
  327MOL0     H44135   2.465   3.103   4.850  1.8122  1.1549 -2.2926
  327MOL0     H44136   2.289   3.118   4.845  0.6073  0.9417  3.2540
  327MOL0     H44137   2.382   3.095   4.621 -3.7081  0.7504 -1.0070
  327MOL0     H44138   2.486   3.236   4.641  0.4150 -1.6711 -3.7096
  327MOL0     H44139   2.289   3.384   4.656 -2.7550 -1.8426  3.9677
  327MOL0     H44140   2.184   3.247   4.663  0.7416 -0.2497  2.2072
  327MOL0     H44141   2.184   3.338   4.449  0.3835  0.9900 -1.0731
  327MOL0     H44142   2.240   3.169   4.458 -0.0103  0.1226 -1.2458
  327MOL0     H44143   2.554   3.386   4.272 -1.9648  0.8256 -2.8017
  327MOL0     H44144   2.405   3.477   5.062 -0.4583  0.1039  2.1662
  327MOL0     H44145   2.240   3.559   5.208 -2.0872  1.6158 -4.1632
  328MOL0     O44146   2.771   1.790   6.261  0.3693  0.2202 -0.2148
  328MOL0     C44147   2.842   1.765   6.165  0.4241 -0.5052 -0.1052
  328MOL0     O44148   2.851   1.834   6.049 -0.3089 -0.0417  0.2066
  328MOL0     C44149   2.775   1.937   5.991 -0.7209 -1.2319  0.9274
  328MOL0     C44150   2.757   1.941   5.849 -0.1216  0.3591  0.0070
  328MOL0     C44151   2.686   2.043   5.782 -0.2932  0.1340 -0.3322
  328MOL0     C44152   2.635   2.151   5.854 -0.2358  0.1317  0.5848
  328MOL0     O44153   2.584   2.265   5.790  0.9767 -0.5263  0.0798
  328MOL0     C44154   2.447   2.271   5.821  0.6138  0.0827  0.9369
  328MOL0     C44155   2.386   2.397   5.769 -0.2325 -0.3024  0.3462
  328MOL0     C44156   2.242   2.384   5.746 -0.7908  0.3405  0.1652
  328MOL0     C44157   2.162   2.366   5.877 -0.3950 -0.8167  0.7300
  328MOL0     C44158   2.010   2.347   5.860  0.3108  0.4126  0.0975
  328MOL0     C44159   1.924   2.330   5.991 -0.3523 -0.2378 -0.0482
  328MOL0     C44160   1.902   2.479   6.040 -0.2581  0.3926  0.2940
  328MOL0     C44161   1.806   2.493   6.164 -0.1940  0.4128 -0.0683
  328MOL0     N44162   1.791   2.631   6.210 -0.7181 -0.8023  0.2350
  328MOL0     C44163   1.820   2.665   6.335  0.1363 -0.3577 -0.6279
  328MOL0     C44164   1.819   2.802   6.345  0.2857 -0.1066 -0.4470
  328MOL0     C44165   1.812   2.902   6.460 -0.7835  0.8449  0.1113
  328MOL0     C44166   1.896   3.030   6.441  0.8214 -0.3382 -0.0223
  328MOL0     C44167   2.037   3.001   6.407 -0.9119 -0.2513  0.5356
  328MOL0     C44168   2.108   3.131   6.368  0.0841  0.6235 -0.4580
  328MOL0     O44169   2.140   3.196   6.490  0.3899  0.2207 -0.1443
  328MOL0     C44170   2.217   3.310   6.502  0.4950  0.2325  0.3249
  328MOL0     C44171   2.300   3.318   6.611 -0.0621 -0.4698 -1.2444
  328MOL0     C44172   2.397   3.428   6.621  0.2816  0.4922 -0.3201
  328MOL0     C44173   2.498   3.418   6.738  0.0797  0.4544  0.7276
  328MOL0     C44174   2.423   3.513   6.506 -0.3019  0.3212 -0.0893
  328MOL0     C44175   2.534   3.621   6.485  0.4882  0.2993  0.5759
  328MOL0     O44176   2.510   3.716   6.390  0.1645 -0.1614 -0.8014
  328MOL0     C44177   2.592   3.827   6.383  0.4525  0.2767 -0.1514
  328MOL0     C44178   2.610   3.934   6.484 -0.3457 -0.0273 -0.3009
  328MOL0     C44179   2.691   4.045   6.456 -0.2146 -0.6013  0.8793
  328MOL0     C44180   2.774   4.046   6.339  0.7348 -0.5501 -0.4623
  328MOL0     O44181   2.856   4.158   6.318 -0.8375 -0.1978  0.3091
  328MOL0     C44182   2.849   4.279   6.400  0.1805  0.4000 -0.3869
  328MOL0     C44183   2.922   4.383   6.323  0.3884  1.2502  0.3082
  328MOL0     C44184   2.997   4.483   6.411  0.3927  0.1519 -0.4175
  328MOL0     C44185   3.065   4.597   6.341 -0.2890 -0.4638  0.0962
  328MOL0     C44186   3.118   4.704   6.434 -0.6041  0.6294 -0.3862
  328MOL0     C44187   3.009   4.812   6.444 -0.3465  0.4632  0.0245
  328MOL0     C44188   3.016   4.890   6.572 -0.3927  0.2624 -0.6464
  328MOL0     C44189   2.937   4.830   6.695  0.9591 -0.3950 -0.4922
  328MOL0    Cl44190   2.975   4.656   6.738 -0.3387  0.0460 -0.1031
  328MOL0     C44191   2.762   3.946   6.243  0.7706 -0.4166  1.2159
  328MOL0     C44192   2.675   3.834   6.267  0.8983  0.3404  0.8883
  328MOL0     O44193   2.625   3.622   6.564 -0.2397  0.2985  0.1193
  328MOL0     C44194   2.327   3.512   6.406  0.1265  1.0239  0.0077
  328MOL0     C44195   2.228   3.407   6.401  0.4186 -0.3688 -0.4976
  328MOL0     N44196   1.767   2.843   6.224  0.5558 -0.5167  0.0165
  328MOL0     N44197   1.750   2.740   6.141  0.7343 -0.3699 -0.2880
  328MOL0     C44198   2.649   2.152   5.993  0.2254  0.4418 -0.5763
  328MOL0     C44199   2.697   2.037   6.063 -0.5549  0.8908  0.5253
  328MOL0     C44200   2.937   1.656   6.180 -0.2079  0.4280 -0.4607
  328MOL0     C44201   2.955   1.575   6.298 -0.4527 -0.3629  0.4537
  328MOL0     C44202   3.048   1.470   6.301  1.0821 -1.2513  0.0087
  328MOL0     C44203   3.132   1.444   6.197  0.3447 -0.0689 -0.1731
  328MOL0     O44204   3.217   1.342   6.184  0.2893 -0.0151 -0.0105
  328MOL0     C44205   3.220   1.221   6.266  0.0905  0.1892  0.4795
  328MOL0     C44206   3.108   1.128   6.226 -0.0215 -0.0512  1.4582
  328MOL0     C44207   3.097   1.003   6.313 -0.4221  1.6285  1.3083
  328MOL0     C44208   3.215   0.910   6.300 -0.2702 -0.0854 -0.6470
  328MOL0     C44209   3.233   0.846   6.171  0.1718  0.4541  0.5929
  328MOL0     C44210   3.235   0.802   6.061  0.1009 -0.2087  1.3207
  328MOL0     C44211   3.114   1.521   6.083  0.7294 -0.3090  0.3329
  328MOL0     C44212   3.026   1.626   6.075 -0.2145  0.0661 -0.2980
  328MOL0     H44213   2.808   1.859   5.800 -0.6286 -1.0454  1.7333
  328MOL0     H44214   2.665   2.052   5.676 -4.1149 -0.8890  0.1967
  328MOL0     H44215   2.401   2.190   5.764  0.5385  1.1768 -0.6185
  328MOL0     H44216   2.424   2.248   5.926  2.9452 -0.3693  1.4014
  328MOL0     H44217   2.396   2.469   5.852 -1.9604  1.4642 -0.8989
  328MOL0     H44218   2.434   2.443   5.682 -0.6513 -0.3977  0.0660
  328MOL0     H44219   2.208   2.477   5.700 -0.8026 -0.1170 -0.7908
  328MOL0     H44220   2.226   2.305   5.672  2.4913  0.9732 -1.3941
  328MOL0     H44221   2.203   2.274   5.919 -0.1750 -1.2149 -0.3407
  328MOL0     H44222   2.180   2.450   5.945  0.1685 -3.5729  4.2959
  328MOL0     H44223   1.970   2.432   5.804  1.8806  2.6127  2.1088
  328MOL0     H44224   1.999   2.258   5.798  4.6227 -1.6465  1.8434
  328MOL0     H44225   1.828   2.284   5.968 -0.0412 -0.5677 -0.7260
  328MOL0     H44226   1.984   2.272   6.062  2.2534 -1.6469 -3.1615
  328MOL0     H44227   1.993   2.525   6.080  0.1722 -1.1687  1.2219
  328MOL0     H44228   1.858   2.541   5.962 -2.0674 -0.5053  0.5424
  328MOL0     H44229   1.843   2.438   6.251 -0.3696  0.1403 -0.1617
  328MOL0     H44230   1.704   2.459   6.142  0.8388 -1.6937 -2.0999
  328MOL0     H44231   1.854   2.603   6.418  0.3082  1.0569  0.4048
  328MOL0     H44232   1.710   2.930   6.485 -1.3968  0.3998 -1.7085
  328MOL0     H44233   1.852   2.856   6.551 -2.0160 -0.8019 -0.1404
  328MOL0     H44234   1.903   3.078   6.539  1.6899 -1.9111  0.7164
  328MOL0     H44235   1.851   3.091   6.362 -0.8154 -3.0288 -1.3269
  328MOL0     H44236   2.051   2.924   6.330 -1.4953 -0.4876  0.6583
  328MOL0     H44237   2.098   2.960   6.488  0.9326  2.0735  0.4126
  328MOL0     H44238   2.056   3.202   6.303  3.0198  1.6126 -1.9149
  328MOL0     H44239   2.204   3.105   6.323  0.5145  3.8436 -1.7144
  328MOL0     H44240   2.294   3.238   6.684 -0.5806  0.3278 -0.3933
  328MOL0     H44241   2.505   3.318   6.782  0.1472 -0.4762 -1.2702
  328MOL0     H44242   2.601   3.441   6.707 -0.3165 -0.5489 -1.5186
  328MOL0     H44243   2.483   3.478   6.828 -1.2961 -0.8678  1.4251
  328MOL0     H44244   2.549   3.928   6.574 -1.2966 -2.7063 -1.0354
  328MOL0     H44245   2.701   4.118   6.537  2.0174  0.3858 -0.2021
  328MOL0     H44246   2.746   4.306   6.426  0.8981  0.5582  2.5497
  328MOL0     H44247   2.911   4.270   6.489  0.5074  0.4566 -0.6088
  328MOL0     H44248   2.994   4.330   6.259 -0.9549  0.3275 -0.4963
  328MOL0     H44249   2.837   4.424   6.267 -2.2650 -3.2935  0.4459
  328MOL0     H44250   3.078   4.432   6.464 -0.2280 -1.3951 -0.8957
  328MOL0     H44251   2.922   4.527   6.478 -2.3749 -0.5627 -2.8169
  328MOL0     H44252   3.152   4.561   6.285 -0.8766 -3.4502  0.9441
  328MOL0     H44253   2.999   4.637   6.263 -1.3778 -0.9505  0.7338
  328MOL0     H44254   3.213   4.750   6.405 -1.1629  0.1890 -3.1818
  328MOL0     H44255   3.138   4.654   6.530 -1.3227 -0.4969 -0.7947
  328MOL0     H44256   3.022   4.872   6.353  2.1049  2.7765  1.7254
  328MOL0     H44257   2.910   4.767   6.448  0.0908 -0.5737  4.5505
  328MOL0     H44258   2.968   4.987   6.556  3.5596  2.5055 -0.1495
  328MOL0     H44259   3.120   4.910   6.597 -0.4741 -0.8489  0.7058
  328MOL0     H44260   2.830   4.837   6.673  0.6514  0.6507  1.1783
  328MOL0     H44261   2.974   4.880   6.785 -0.0856 -1.6448  0.6723
  328MOL0     H44262   2.827   3.962   6.158 -1.1188  1.4393  0.0171
  328MOL0     H44263   2.663   3.752   6.198  2.0512  2.1411 -1.6106
  328MOL0     H44264   2.331   3.574   6.316 -0.8771 -0.7110 -1.3073
  328MOL0     H44265   2.151   3.401   6.325  0.1186 -2.9465 -0.0797
  328MOL0     H44266   2.630   2.241   6.052 -1.6368 -1.8519  2.6418
  328MOL0     H44267   2.711   2.042   6.171  0.0090 -0.5034  0.5346
  328MOL0     H44268   2.886   1.583   6.382  0.4611  2.1710  1.0675
  328MOL0     H44269   3.042   1.428   6.401  1.4739 -1.0489  0.1219
  328MOL0     H44270   3.319   1.177   6.276 -0.3075 -0.3139  3.0594
  328MOL0     H44271   3.199   1.255   6.368  0.2543  0.5161  0.4046
  328MOL0     H44272   3.103   1.126   6.116  0.8716  3.0308  1.2531
  328MOL0     H44273   3.014   1.176   6.254 -1.0078  0.2081 -1.8038
  328MOL0     H44274   3.004   0.957   6.278  0.6124 -0.2544  0.8905
  328MOL0     H44275   3.068   1.032   6.415 -1.1140  0.5538  1.4316
  328MOL0     H44276   3.205   0.843   6.386  0.5320 -1.1482 -1.3587
  328MOL0     H44277   3.307   0.968   6.317  0.6225  0.0356 -4.8330
  328MOL0     H44278   3.204   0.786   5.960 -1.1249  4.7282  0.6568
  328MOL0     H44279   3.174   1.497   5.996 -0.9751  0.9524 -1.2704
  328MOL0     H44280   3.034   1.687   5.985 -1.2149  3.8105  1.9129
  329MOL0     O44281   9.045   6.036   0.642  0.0228  0.1847 -0.1957
  329MOL0     C44282   9.136   6.013   0.564  0.6566 -0.1983 -0.6379
  329MOL0     O44283   9.118   5.981   0.435 -0.4666 -0.4433  0.0016
  329MOL0     C44284   9.017   5.898   0.404 -0.8154  0.5615  0.2901
  329MOL0     C44285   9.036   5.756   0.380  0.4128  0.7376  0.5342
  329MOL0     C44286   8.917   5.678   0.364 -0.4733  0.0465 -0.9707
  329MOL0     C44287   8.791   5.739   0.334  0.5551 -0.4024 -0.3465
  329MOL0     O44288   8.671   5.666   0.313 -0.0042  0.1081 -0.7325
  329MOL0     C44289   8.662   5.533   0.279 -0.2380  0.0155 -0.8225
  329MOL0     C44290   8.646   5.434   0.395  0.2649  0.0360 -0.6373
  329MOL0     C44291   8.573   5.304   0.343 -1.5275  0.6700 -0.9129
  329MOL0     C44292   8.537   5.214   0.459 -0.0064  0.1191 -0.4819
  329MOL0     C44293   8.645   5.123   0.494  0.0632  0.7666  0.6141
  329MOL0     C44294   8.625   5.073   0.635  0.8448  0.6337 -0.0988
  329MOL0     C44295   8.726   4.972   0.670  0.1586 -0.0705 -0.0477
  329MOL0     C44296   8.862   5.035   0.676  0.6785 -0.5501  0.8196
  329MOL0     N44297   8.877   5.163   0.760 -0.1869 -0.0175  0.6697
  329MOL0     C44298   8.851   5.180   0.889  0.3082  0.3632  0.0889
  329MOL0     C44299   8.894   5.308   0.920 -0.7695  0.5141 -1.1848
  329MOL0     C44300   8.910   5.391   1.044  0.0739  0.2565  1.0110
  329MOL0     C44301   8.769   5.437   1.111 -1.1638 -0.2715  1.1024
  329MOL0     C44302   8.782   5.565   1.177  0.8306 -0.7308  0.3967
  329MOL0     C44303   8.839   5.560   1.323 -0.7236 -0.7831  0.2458
  329MOL0     O44304   8.734   5.533   1.410  0.3445  0.1659  0.0691
  329MOL0     C44305   8.728   5.592   1.541  0.0362  0.1663  0.5609
  329MOL0     C44306   8.603   5.598   1.598  0.6506 -0.9201  0.1465
  329MOL0     C44307   8.578   5.672   1.713  0.0933 -1.0360  0.1614
  329MOL0     C44308   8.433   5.692   1.762  0.0870 -0.9879  0.3940
  329MOL0     C44309   8.684   5.720   1.785 -0.3774 -0.5153  0.0762
  329MOL0     C44310   8.666   5.769   1.926 -1.2052  0.5126 -0.7942
  329MOL0     O44311   8.594   5.677   2.006  0.0874  0.1849  0.6766
  329MOL0     C44312   8.559   5.704   2.138  0.1677 -0.0381 -0.2299
  329MOL0     C44313   8.499   5.602   2.211  0.1872 -1.1144  0.2134
  329MOL0     C44314   8.445   5.619   2.339 -0.1592 -0.8378 -0.1235
  329MOL0     C44315   8.454   5.746   2.401 -0.9268  0.6040 -0.6497
  329MOL0     O44316   8.398   5.775   2.527 -0.7711  0.4500  0.4180
  329MOL0     C44317   8.255   5.772   2.514 -0.2481  0.4827 -0.6288
  329MOL0     C44318   8.188   5.826   2.632 -0.1009  0.1299 -0.3267
  329MOL0     C44319   8.269   5.855   2.759 -0.4235 -0.1974  0.9791
  329MOL0     C44320   8.198   5.893   2.887  0.9884 -0.5546  0.0907
  329MOL0     C44321   8.120   5.782   2.953 -0.6969  0.0811  0.7888
  329MOL0     C44322   8.056   5.823   3.090 -0.8485 -0.4228 -0.0447
  329MOL0     C44323   7.953   5.926   3.069 -0.3121  0.1643  0.1439
  329MOL0     C44324   7.878   5.975   3.195 -0.7847 -1.1607  0.7954
  329MOL0    Cl44325   7.989   6.092   3.274 -0.2223  0.1222  0.0200
  329MOL0     C44326   8.523   5.842   2.337  0.2838  0.6734  0.6571
  329MOL0     C44327   8.578   5.831   2.208  0.5688  0.4158  0.3777
  329MOL0     O44328   8.720   5.879   1.957  0.6091 -0.1927 -0.2910
  329MOL0     C44329   8.822   5.701   1.738 -0.6632 -0.0635 -0.5078
  329MOL0     C44330   8.833   5.640   1.611 -0.9292  0.7954  0.5123
  329MOL0     N44331   8.956   5.358   0.816 -0.1330 -0.0942  0.7112
  329MOL0     N44332   8.927   5.280   0.714  0.9903 -0.2113 -0.0670
  329MOL0     C44333   8.778   5.877   0.355  0.1585  0.1727 -0.1187
  329MOL0     C44334   8.892   5.952   0.382 -0.2345 -0.8120 -0.4198
  329MOL0     C44335   9.269   6.037   0.613 -0.5674  0.8247 -0.8178
  329MOL0     C44336   9.302   6.058   0.744 -0.0393 -0.2777  0.2351
  329MOL0     C44337   9.428   6.036   0.793  0.6240 -0.9191 -0.0432
  329MOL0     C44338   9.535   6.001   0.707 -0.2945  0.8188 -0.1194
  329MOL0     O44339   9.662   5.969   0.755  0.0702  0.5643 -0.2728
  329MOL0     C44340   9.715   6.044   0.872  0.8599 -0.0404 -0.6227
  329MOL0     C44341   9.858   6.014   0.903  0.2185 -0.6809 -0.1643
  329MOL0     C44342   9.964   6.112   0.843  0.4396  0.2879  0.1269
  329MOL0     C44343  10.097   6.041   0.819  0.0353 -1.6675  0.4536
  329MOL0     C44344  10.181   6.141   0.749 -0.1788  0.5125  0.3874
  329MOL0     C44345  10.212   6.243   0.690 -0.3419  0.3443  0.4491
  329MOL0     C44346   9.508   5.995   0.571  0.0290  0.2514  0.3965
  329MOL0     C44347   9.375   6.016   0.522  0.3301 -0.0137 -0.0107
  329MOL0     H44348   9.132   5.705   0.386  0.9764  1.8070  1.0178
  329MOL0     H44349   8.912   5.574   0.334 -2.9708  0.3651 -1.9299
  329MOL0     H44350   8.578   5.518   0.211 -0.2609  0.0211 -0.7952
  329MOL0     H44351   8.755   5.521   0.223 -0.0039 -1.4883 -0.1528
  329MOL0     H44352   8.746   5.400   0.422  0.5512  1.1104 -0.2901
  329MOL0     H44353   8.602   5.480   0.484  3.7721 -0.5618  1.6061
  329MOL0     H44354   8.473   5.335   0.313 -1.4045  2.3250  0.2393
  329MOL0     H44355   8.627   5.253   0.263 -3.1126 -1.4921 -0.6854
  329MOL0     H44356   8.528   5.276   0.548 -0.1491 -0.8883  0.2202
  329MOL0     H44357   8.439   5.170   0.436  0.0928 -0.0594 -0.5680
  329MOL0     H44358   8.643   5.037   0.426  0.0512  0.4390  1.0240
  329MOL0     H44359   8.741   5.174   0.480  0.1681  1.2142  2.6785
  329MOL0     H44360   8.612   5.154   0.707  1.0903 -0.3889  1.1219
  329MOL0     H44361   8.529   5.020   0.635  2.4779 -2.6510 -1.8669
  329MOL0     H44362   8.709   4.925   0.767  2.1247 -0.1795  0.2856
  329MOL0     H44363   8.723   4.886   0.602 -0.2743 -0.4212  0.4036
  329MOL0     H44364   8.910   5.042   0.578  0.3913  1.7753  0.7956
  329MOL0     H44365   8.935   4.969   0.726  0.9579 -2.3458 -1.7548
  329MOL0     H44366   8.798   5.114   0.957 -0.6444 -1.5497 -2.3670
  329MOL0     H44367   8.962   5.328   1.116 -1.6291 -2.2371  0.2077
  329MOL0     H44368   8.969   5.478   1.013  0.1021 -0.0022  0.3071
  329MOL0     H44369   8.736   5.367   1.188 -3.4315  1.9010  2.2409
  329MOL0     H44370   8.686   5.454   1.042  0.9615  0.2185 -1.5232
  329MOL0     H44371   8.687   5.617   1.188  1.5896  0.3924  2.1586
  329MOL0     H44372   8.835   5.620   1.099 -0.8622 -2.3237 -2.0079
  329MOL0     H44373   8.870   5.664   1.336 -4.7465  0.4060  1.9879
  329MOL0     H44374   8.927   5.496   1.334  2.8761  2.7104 -3.9608
  329MOL0     H44375   8.524   5.543   1.549 -0.3058  0.1142  0.4944
  329MOL0     H44376   8.411   5.792   1.800  1.5338 -0.9643  1.2347
  329MOL0     H44377   8.357   5.675   1.685 -1.2137 -0.4740  1.5282
  329MOL0     H44378   8.425   5.619   1.843 -0.7685 -1.2333  0.0975
  329MOL0     H44379   8.484   5.508   2.160 -1.2668  0.0942 -1.7323
  329MOL0     H44380   8.388   5.540   2.386 -0.4857 -0.9070 -0.6233
  329MOL0     H44381   8.223   5.824   2.423  0.4983  0.1951 -1.0667
  329MOL0     H44382   8.239   5.664   2.515  2.1074  0.0755 -0.1159
  329MOL0     H44383   8.140   5.922   2.609  3.5395  2.8485  2.1882
  329MOL0     H44384   8.099   5.768   2.657 -0.9590  1.1027 -1.0066
  329MOL0     H44385   8.350   5.924   2.734  2.6503 -2.4635  3.7997
  329MOL0     H44386   8.337   5.773   2.784  0.8565  0.5775  0.1643
  329MOL0     H44387   8.266   5.945   2.954  0.2430  2.4670 -1.3101
  329MOL0     H44388   8.136   5.982   2.873  0.0873 -1.0911  0.5909
  329MOL0     H44389   8.180   5.692   2.966  0.7390 -0.4626 -5.9822
  329MOL0     H44390   8.048   5.752   2.876 -0.5624 -0.2071  0.7734
  329MOL0     H44391   8.009   5.737   3.138 -1.0993 -1.0536 -1.3584
  329MOL0     H44392   8.132   5.866   3.156 -0.8973 -0.7107  0.2025
  329MOL0     H44393   7.885   5.877   2.999 -1.0514  3.8029 -1.9702
  329MOL0     H44394   7.993   6.009   3.009 -1.0430 -0.8277 -1.8078
  329MOL0     H44395   7.853   5.893   3.263 -0.1762 -3.1081 -1.1691
  329MOL0     H44396   7.792   6.031   3.157 -0.6630 -2.3309 -1.3697
  329MOL0     H44397   8.543   5.927   2.402 -1.5993 -0.1939  2.5169
  329MOL0     H44398   8.621   5.920   2.163 -1.5899  2.1188  1.4962
  329MOL0     H44399   8.907   5.723   1.802 -0.9552  4.7880 -1.3984
  329MOL0     H44400   8.932   5.621   1.570 -0.0237  0.6876  2.6281
  329MOL0     H44401   8.680   5.921   0.347  0.2263  0.6065  1.1645
  329MOL0     H44402   8.895   6.059   0.395  3.0717 -1.1259  3.3343
  329MOL0     H44403   9.215   6.083   0.804 -0.1342 -6.3945  3.4114
  329MOL0     H44404   9.439   6.053   0.900  0.0657 -1.8824  0.1770
  329MOL0     H44405   9.696   6.146   0.837 -1.7177  0.1766  1.1496
  329MOL0     H44406   9.655   6.013   0.958 -0.4661 -1.4572 -1.9881
  329MOL0     H44407   9.877   5.910   0.877  1.9178 -0.4815  0.1413
  329MOL0     H44408   9.864   6.015   1.013 -3.0610  0.5257  0.1176
  329MOL0     H44409   9.967   6.194   0.914  0.2238  0.9222 -0.5793
  329MOL0     H44410   9.934   6.164   0.751  4.4316  1.6644 -0.6081
  329MOL0     H44411  10.085   5.953   0.754  0.5963 -1.0679 -0.4770
  329MOL0     H44412  10.155   6.023   0.910 -1.8349  0.6174  2.2025
  329MOL0     H44413  10.246   6.335   0.649  0.1329  1.3032  2.8442
  329MOL0     H44414   9.585   5.971   0.498  0.7573 -0.6521  1.4323
  329MOL0     H44415   9.363   5.997   0.415  1.0543  1.2611 -0.3333
  330MOL0     O44416   5.476   8.402  10.549  0.4997 -0.3438 -1.2707
  330MOL0     C44417   5.412   8.378  10.450  0.8576 -0.3573 -0.3917
  330MOL0     O44418   5.460   8.352  10.328  0.1251 -0.5040  0.8654
  330MOL0     C44419   5.587   8.380  10.309 -0.1880 -0.0549  0.5804
  330MOL0     C44420   5.637   8.512  10.323 -0.1799 -0.6772 -0.8708
  330MOL0     C44421   5.767   8.541  10.270 -0.7979  1.0419  0.4438
  330MOL0     C44422   5.846   8.445  10.206 -0.2451  0.7316  0.1587
  330MOL0     O44423   5.960   8.466  10.142  0.2277 -0.1846  0.7189
  330MOL0     C44424   6.019   8.592  10.131  0.4682 -0.1843  0.2277
  330MOL0     C44425   6.148   8.565  10.056  0.1302  0.5400 -0.0522
  330MOL0     C44426   6.229   8.457  10.118  0.4816  0.8953  0.3212
  330MOL0     C44427   6.371   8.453  10.069 -0.7077 -0.0849 -0.2047
  330MOL0     C44428   6.453   8.341  10.126 -0.8448  0.4072  0.0259
  330MOL0     C44429   6.561   8.385  10.235  0.8109  0.4079  1.1838
  330MOL0     C44430   6.623   8.274  10.315  0.3872  0.5566 -0.3780
  330MOL0     C44431   6.530   8.182  10.401 -0.1792  0.2556 -0.5764
  330MOL0     N44432   6.549   8.246  10.538  0.3928  0.4240  0.7025
  330MOL0     C44433   6.661   8.225  10.615 -0.4316  0.0704 -0.4908
  330MOL0     C44434   6.634   8.284  10.734  0.2247  1.2083 -0.8553
  330MOL0     C44435   6.728   8.281  10.859  0.9041  0.3614  0.7276
  330MOL0     C44436   6.874   8.337  10.835 -0.3760 -0.2173  0.3576
  330MOL0     C44437   6.963   8.348  10.951 -0.3426  0.3697 -0.3065
  330MOL0     C44438   7.086   8.445  10.914 -0.6008  0.2226 -0.3636
  330MOL0     O44439   7.208   8.383  10.957  0.4283  0.0724 -0.3130
  330MOL0     C44440   7.262   8.287  10.885  0.0688  0.5291 -1.0274
  330MOL0     C44441   7.377   8.231  10.939 -0.1280  1.2820 -1.0095
  330MOL0     C44442   7.455   8.137  10.866  0.4498 -0.9347  0.4072
  330MOL0     C44443   7.586   8.094  10.933 -0.5601 -0.8204 -0.0720
  330MOL0     C44444   7.416   8.101  10.737  0.8660  0.1299  0.4617
  330MOL0     C44445   7.488   8.003  10.657  0.3362 -0.4396  0.0771
  330MOL0     O44446   7.482   8.025  10.524  0.1702 -0.5084 -0.6825
  330MOL0     C44447   7.574   7.976  10.444 -0.9625  0.1734 -0.5298
  330MOL0     C44448   7.714   7.975  10.472  0.2466 -0.0248 -0.4357
  330MOL0     C44449   7.801   7.941  10.367  0.1118 -0.0686 -0.5086
  330MOL0     C44450   7.754   7.891  10.244 -0.4004 -0.4808  0.2290
  330MOL0     O44451   7.828   7.845  10.137 -1.1898 -0.4353 -0.5781
  330MOL0     C44452   7.931   7.747  10.175  0.0423  0.2085 -0.3373
  330MOL0     C44453   7.984   7.689  10.045  0.6459  0.3557 -0.6995
  330MOL0     C44454   7.905   7.582   9.981 -0.6722  0.3344 -0.0041
  330MOL0     C44455   7.966   7.551   9.844  0.8600  0.8379 -0.6054
  330MOL0     C44456   7.860   7.488   9.759  0.1780 -0.0479  0.2485
  330MOL0     C44457   7.799   7.356   9.823  0.1508  0.7284  0.1589
  330MOL0     C44458   7.913   7.261   9.861  0.0829 -0.0107  0.5914
  330MOL0     C44459   8.003   7.221   9.745 -0.2467  0.2378 -0.6517
  330MOL0    Cl44460   8.076   7.061   9.782  0.2002  0.0647  0.0689
  330MOL0     C44461   7.622   7.900  10.221 -0.8763  0.0345  0.3907
  330MOL0     C44462   7.528   7.940  10.318 -0.7904  0.7093  0.8144
  330MOL0     O44463   7.544   7.906  10.712 -0.8407 -0.6667  0.6702
  330MOL0     C44464   7.289   8.147  10.690 -0.4861  0.3479  0.2551
  330MOL0     C44465   7.214   8.235  10.762 -0.3236  0.9852  0.1867
  330MOL0     N44466   6.508   8.328  10.732 -0.2511  0.0658  0.3551
  330MOL0     N44467   6.465   8.324  10.608  0.2218  0.3071 -0.1396
  330MOL0     C44468   5.797   8.312  10.204 -0.0778  0.8443  0.7513
  330MOL0     C44469   5.669   8.280  10.247  0.1907 -0.6184  0.5257
  330MOL0     C44470   5.257   8.375  10.454  0.2629 -0.5336 -0.5510
  330MOL0     C44471   5.191   8.368  10.331  0.0964  0.0965  0.9185
  330MOL0     C44472   5.048   8.385  10.327 -0.2460 -0.4337 -0.6891
  330MOL0     C44473   4.971   8.409  10.451 -0.0432 -0.2558 -0.6897
  330MOL0     O44474   4.832   8.426  10.460 -0.4986 -0.0435 -0.0188
  330MOL0     C44475   4.735   8.427  10.347 -0.7980 -0.7632 -0.4253
  330MOL0     C44476   4.597   8.431  10.402 -0.4260 -0.3277  0.3215
  330MOL0     C44477   4.581   8.318  10.511  0.1438 -0.2633 -0.5979
  330MOL0     C44478   4.433   8.330  10.553 -0.8916  0.1198 -0.0592
  330MOL0     C44479   4.404   8.253  10.675  0.2338  0.2701  0.5355
  330MOL0     C44480   4.356   8.200  10.778  0.1933 -1.0175  0.6057
  330MOL0     C44481   5.043   8.413  10.575 -1.2719 -0.1356  1.0031
  330MOL0     C44482   5.190   8.403  10.572  0.4225  0.0371  0.7965
  330MOL0     H44483   5.576   8.594  10.360 -0.4864 -2.1723  2.2743
  330MOL0     H44484   5.800   8.644  10.260 -0.5916  1.2336  2.6327
  330MOL0     H44485   5.951   8.660  10.077  0.1516  0.7981  1.8120
  330MOL0     H44486   6.047   8.630  10.229  2.0796 -0.4070 -0.1213
  330MOL0     H44487   6.117   8.528   9.958 -1.1849 -3.6323  1.6981
  330MOL0     H44488   6.198   8.661  10.050 -1.9064  1.6132 -0.6705
  330MOL0     H44489   6.223   8.462  10.227  1.6765 -0.8777  0.5034
  330MOL0     H44490   6.181   8.364  10.088 -1.5470  2.5718 -2.0265
  330MOL0     H44491   6.382   8.444   9.960 -1.1477 -0.4765 -0.2204
  330MOL0     H44492   6.432   8.543  10.082  0.2921  0.1938 -4.9530
  330MOL0     H44493   6.399   8.253  10.162 -0.2943 -0.7561 -1.8821
  330MOL0     H44494   6.510   8.301  10.042  3.7509  1.6443  2.2510
  330MOL0     H44495   6.644   8.433  10.183 -2.1458  0.6443 -4.0568
  330MOL0     H44496   6.529   8.467  10.299  3.2695  1.5695  1.0036
  330MOL0     H44497   6.673   8.205  10.246  0.6024 -0.2942  0.6129
  330MOL0     H44498   6.716   8.304  10.364  0.6157 -1.4561  0.5158
  330MOL0     H44499   6.582   8.086  10.388  1.8095  1.1961  0.0754
  330MOL0     H44500   6.425   8.190  10.371  0.6434 -1.5265 -4.6352
  330MOL0     H44501   6.755   8.187  10.576  0.5181  1.0665  0.7545
  330MOL0     H44502   6.675   8.349  10.927 -0.6835  3.9134 -3.5446
  330MOL0     H44503   6.733   8.180  10.900  2.5120  0.1162  0.0092
  330MOL0     H44504   6.854   8.432  10.786  4.1172 -1.1021 -4.0505
  330MOL0     H44505   6.926   8.288  10.751  2.3244  0.1124  1.7282
  330MOL0     H44506   7.015   8.252  10.951  2.9459  2.0019 -1.4878
  330MOL0     H44507   6.920   8.383  11.045  0.3977  3.1161 -0.9127
  330MOL0     H44508   7.063   8.539  10.965 -0.1614 -1.2348  2.6997
  330MOL0     H44509   7.098   8.468  10.807  1.9658 -1.8559 -0.6240
  330MOL0     H44510   7.403   8.244  11.043 -2.9431 -0.1579 -0.0285
  330MOL0     H44511   7.603   7.987  10.946 -1.2238 -0.7504  1.5735
  330MOL0     H44512   7.663   8.143  10.873 -2.1925 -0.4475 -1.9899
  330MOL0     H44513   7.596   8.136  11.034 -2.3052  0.8131 -0.5112
  330MOL0     H44514   7.761   8.020  10.559 -0.5820 -0.7464  0.4015
  330MOL0     H44515   7.908   7.945  10.386  0.5884  4.2107 -2.8735
  330MOL0     H44516   8.014   7.800  10.222 -1.7782  4.1837 -1.2123
  330MOL0     H44517   7.893   7.667  10.239  0.9447 -0.4739 -0.6301
  330MOL0     H44518   8.011   7.766   9.971  0.4170  1.2582  0.1330
  330MOL0     H44519   8.080   7.647  10.076  1.8639  3.3899 -0.0022
  330MOL0     H44520   7.803   7.620   9.969  0.5414  3.5057 -1.5720
  330MOL0     H44521   7.909   7.484  10.030 -1.3120  0.6018  0.5942
  330MOL0     H44522   8.003   7.637   9.788  0.6076  0.8159 -0.8065
  330MOL0     H44523   8.055   7.496   9.876  1.2346  3.7496  4.4694
  330MOL0     H44524   7.917   7.464   9.669  1.4453 -1.4067  1.3570
  330MOL0     H44525   7.789   7.569   9.738  1.3179  0.6725 -0.9752
  330MOL0     H44526   7.743   7.387   9.911  0.3269 -0.9516  0.8980
  330MOL0     H44527   7.721   7.321   9.755 -1.8211  4.4117  0.2537
  330MOL0     H44528   7.864   7.173   9.903  0.7965  0.3641  2.3179
  330MOL0     H44529   7.973   7.302   9.943  0.2588  2.3046 -0.6053
  330MOL0     H44530   8.085   7.291   9.729  0.5305 -0.8975 -1.7909
  330MOL0     H44531   7.948   7.203   9.652 -0.9779  0.2867 -0.2387
  330MOL0     H44532   7.594   7.869  10.121 -2.4756  0.8082  0.5584
  330MOL0     H44533   7.422   7.956  10.300 -1.3877  3.4015  5.2099
  330MOL0     H44534   7.252   8.119  10.592  2.7142  1.2419 -1.3446
  330MOL0     H44535   7.124   8.275  10.717  0.5113  1.8860 -0.7242
  330MOL0     H44536   5.850   8.226  10.163  0.0748  0.3983  1.8456
  330MOL0     H44537   5.633   8.178  10.238 -3.1331  0.5466 -1.4415
  330MOL0     H44538   5.240   8.378  10.234 -0.3255 -0.8544  0.5917
  330MOL0     H44539   5.016   8.404  10.225  0.8997  0.1408 -0.9593
  330MOL0     H44540   4.738   8.519  10.289 -2.2329  0.0348  0.7088
  330MOL0     H44541   4.749   8.338  10.285  2.2108  0.7920 -2.1849
  330MOL0     H44542   4.525   8.423  10.320  0.9158  0.1120 -0.9608
  330MOL0     H44543   4.580   8.526  10.452  0.3390 -1.0729  2.0794
  330MOL0     H44544   4.634   8.338  10.604 -2.1554 -1.8046  1.1850
  330MOL0     H44545   4.610   8.223  10.464 -0.7006  0.1504 -2.0138
  330MOL0     H44546   4.367   8.300  10.471 -1.4672  1.0079  0.0625
  330MOL0     H44547   4.420   8.435  10.582 -1.1166  0.6336 -1.8936
  330MOL0     H44548   4.316   8.148  10.862 -2.2500  0.2403  0.2991
  330MOL0     H44549   4.984   8.426  10.665 -1.2268 -2.7495  1.4986
  330MOL0     H44550   5.247   8.401  10.664 -1.6074 -1.6891  2.1117
  331MOL0     O44551   6.468   0.402   4.740  1.3913  0.0014  0.2741
  331MOL0     C44552   6.580   0.371   4.783 -0.5648 -0.4175  0.0863
  331MOL0     O44553   6.627   0.250   4.822 -0.2063  0.0927 -0.0013
  331MOL0     C44554   6.548   0.137   4.832 -0.0473  0.4106  0.3595
  331MOL0     C44555   6.613   0.036   4.900 -0.3585 -0.0802 -0.6071
  331MOL0     C44556   6.548  -0.087   4.922 -0.6619 -0.4089  0.2538
  331MOL0     C44557   6.417  -0.118   4.872  0.2756  0.4962  0.0305
  331MOL0     O44558   6.355  -0.240   4.901 -0.3718 -0.3621 -0.4979
  331MOL0     C44559   6.215  -0.229   4.944 -0.8141 -0.4308  0.3009
  331MOL0     C44560   6.198  -0.276   5.084 -0.3301 -1.1173 -1.3702
  331MOL0     C44561   6.223  -0.424   5.098  0.5100 -0.3317 -0.3072
  331MOL0     C44562   6.199  -0.469   5.244  0.8712 -0.4017  0.9847
  331MOL0     C44563   6.189  -0.622   5.261 -0.4340 -0.6788  0.2165
  331MOL0     C44564   6.053  -0.672   5.219  0.6362 -0.0503  0.9942
  331MOL0     C44565   6.009  -0.815   5.257 -0.3717 -0.7499 -0.6797
  331MOL0     C44566   6.110  -0.914   5.206 -0.3864  1.0735  0.0975
  331MOL0     N44567   6.038  -1.036   5.168 -0.1020  0.6350 -0.3714
  331MOL0     C44568   5.934  -1.097   5.239  0.6509 -0.0638 -0.9651
  331MOL0     C44569   5.883  -1.187   5.153 -0.7883  0.8162 -0.2804
  331MOL0     C44570   5.766  -1.263   5.192  0.4843 -0.3410  0.3093
  331MOL0     C44571   5.799  -1.401   5.246 -0.4048  0.2991 -1.0196
  331MOL0     C44572   5.839  -1.502   5.143  0.5539  0.4541 -0.6627
  331MOL0     C44573   5.789  -1.484   4.996 -0.5249 -0.3232  0.0164
  331MOL0     O44574   5.647  -1.484   4.967 -0.2355 -0.8704  0.4130
  331MOL0     C44575   5.603  -1.440   4.844 -0.0848  0.4402 -0.5319
  331MOL0     C44576   5.683  -1.402   4.731 -0.2305  0.7764  0.3334
  331MOL0     C44577   5.623  -1.371   4.602 -0.3485 -1.2495  0.1723
  331MOL0     C44578   5.696  -1.325   4.480  0.4830 -0.4115  0.9315
  331MOL0     C44579   5.484  -1.376   4.596  0.3853 -0.3727  0.0535
  331MOL0     C44580   5.401  -1.345   4.479 -0.2672 -1.3227  0.5482
  331MOL0     O44581   5.413  -1.205   4.455  0.8456  0.0470 -0.1591
  331MOL0     C44582   5.374  -1.132   4.341 -0.0154  0.4323 -0.5957
  331MOL0     C44583   5.318  -1.190   4.219  0.4140 -0.9898  0.0964
  331MOL0     C44584   5.264  -1.119   4.115  0.7170 -0.0398  0.9223
  331MOL0     C44585   5.247  -0.984   4.130  0.0843 -0.1964  0.5779
  331MOL0     O44586   5.195  -0.919   4.025  0.5979 -0.5222  0.1027
  331MOL0     C44587   5.055  -0.894   4.061  0.2007 -1.0653  0.3519
  331MOL0     C44588   5.022  -0.813   4.188 -0.6511 -0.5308 -0.4093
  331MOL0     C44589   4.877  -0.761   4.177 -0.8178 -0.1314 -0.6022
  331MOL0     C44590   4.805  -0.751   4.309 -0.9587 -0.2012 -0.6897
  331MOL0     C44591   4.671  -0.670   4.315  0.0681  0.7389  0.3443
  331MOL0     C44592   4.626  -0.647   4.449  0.0454 -0.1036  0.2652
  331MOL0     C44593   4.553  -0.770   4.515 -0.7481 -0.1045 -0.0672
  331MOL0     C44594   4.477  -0.734   4.649  0.2900  0.2654  0.6939
  331MOL0    Cl44595   4.346  -0.605   4.622  0.0528  0.0379 -0.0172
  331MOL0     C44596   5.310  -0.917   4.241 -0.4272  0.7427 -0.4769
  331MOL0     C44597   5.372  -0.989   4.347  1.1707  0.0235  0.1170
  331MOL0     O44598   5.339  -1.418   4.411  0.3230  0.0638  0.4952
  331MOL0     C44599   5.410  -1.402   4.711  0.3258  0.1505  0.8894
  331MOL0     C44600   5.467  -1.435   4.838 -0.2628 -0.1732  0.0169
  331MOL0     N44601   5.967  -1.195   5.042  0.0757 -0.1464  0.0103
  331MOL0     N44602   6.051  -1.096   5.053 -0.4497  0.0323  0.9875
  331MOL0     C44603   6.354  -0.013   4.807  1.2170 -0.9552 -0.0719
  331MOL0     C44604   6.419   0.109   4.782 -0.0444 -0.3796  0.3600
  331MOL0     C44605   6.677   0.485   4.803  0.3667 -0.7208  0.4363
  331MOL0     C44606   6.637   0.609   4.837 -0.9433 -0.3704 -0.1112
  331MOL0     C44607   6.729   0.712   4.840 -0.0738  0.4407 -0.4266
  331MOL0     C44608   6.862   0.697   4.809 -0.3171 -0.0883 -0.3321
  331MOL0     O44609   6.955   0.791   4.794  0.0661  0.1961  0.0509
  331MOL0     C44610   6.933   0.918   4.864  0.2983 -0.6791  0.9150
  331MOL0     C44611   7.039   1.027   4.853  0.7291  0.0089 -0.1612
  331MOL0     C44612   7.043   1.085   4.721 -0.1999  0.0173  0.0714
  331MOL0     C44613   7.125   1.224   4.713  0.4075  0.3743 -0.4984
  331MOL0     C44614   7.092   1.301   4.591  0.0698  1.0342  1.2596
  331MOL0     C44615   7.054   1.365   4.495 -0.1121  0.6510 -0.4089
  331MOL0     C44616   6.900   0.569   4.783 -0.2250 -0.2151  1.2946
  331MOL0     C44617   6.816   0.462   4.785  1.0638 -0.4286  0.6599
  331MOL0     H44618   6.718   0.050   4.924 -0.3482 -0.7386 -0.2446
  331MOL0     H44619   6.608  -0.166   4.965  0.4645  0.6241  0.6349
  331MOL0     H44620   6.185  -0.124   4.945  0.6960  0.0397 -0.5912
  331MOL0     H44621   6.158  -0.288   4.872  1.4360  0.8800 -2.7651
  331MOL0     H44622   6.259  -0.224   5.159 -0.8390  0.7627 -2.1906
  331MOL0     H44623   6.094  -0.256   5.111 -0.5944  0.2649 -3.1895
  331MOL0     H44624   6.161  -0.467   5.019  5.0575 -5.0752 -1.8869
  331MOL0     H44625   6.322  -0.452   5.061  0.7955 -0.5807  0.6101
  331MOL0     H44626   6.267  -0.413   5.309 -1.0878  0.9460  1.9726
  331MOL0     H44627   6.105  -0.420   5.271  0.6661  1.5422 -2.6193
  331MOL0     H44628   6.277  -0.667   5.212 -0.3981 -1.7270  1.2068
  331MOL0     H44629   6.220  -0.652   5.361  1.9436 -0.9698 -0.5207
  331MOL0     H44630   5.969  -0.615   5.258 -2.2552 -0.9722 -3.1343
  331MOL0     H44631   6.051  -0.661   5.110  1.2391  2.0367  1.1610
  331MOL0     H44632   6.018  -0.822   5.366  0.3079  0.5379 -0.6279
  331MOL0     H44633   5.910  -0.825   5.211  1.1815 -1.5521 -4.1844
  331MOL0     H44634   6.186  -0.937   5.281 -2.1082  1.1460  1.9468
  331MOL0     H44635   6.171  -0.866   5.129  0.5400  0.3528  0.3635
  331MOL0     H44636   5.908  -1.076   5.343 -1.8317  0.6648 -1.6717
  331MOL0     H44637   5.714  -1.207   5.269  1.1192 -1.6000  1.7243
  331MOL0     H44638   5.703  -1.259   5.102 -1.0909  1.4713  1.4396
  331MOL0     H44639   5.715  -1.430   5.310  1.5573  0.3813  1.7419
  331MOL0     H44640   5.875  -1.395   5.324 -0.9314  2.8793 -0.5948
  331MOL0     H44641   5.812  -1.604   5.172  2.6858 -0.0429 -0.2657
  331MOL0     H44642   5.949  -1.504   5.139  0.6132 -1.9485  0.7266
  331MOL0     H44643   5.833  -1.568   4.942 -1.2455 -0.5133 -0.2892
  331MOL0     H44644   5.830  -1.392   4.952  0.4917 -0.3901  0.7884
  331MOL0     H44645   5.791  -1.386   4.737  0.0869 -0.4640 -1.4314
  331MOL0     H44646   5.676  -1.222   4.449 -4.0291 -1.3674 -0.0004
  331MOL0     H44647   5.805  -1.332   4.495  1.0333  1.1563 -1.6552
  331MOL0     H44648   5.678  -1.386   4.391 -0.2537  1.6568 -0.4096
  331MOL0     H44649   5.338  -1.297   4.217  3.4542 -0.5960  2.1762
  331MOL0     H44650   5.218  -1.172   4.032  0.4607  0.1786  0.9235
  331MOL0     H44651   5.022  -0.830   3.979  2.0853 -2.3763 -1.5290
  331MOL0     H44652   4.996  -0.985   4.053 -1.8172  0.3477 -4.9060
  331MOL0     H44653   5.032  -0.878   4.275  1.7616 -0.0622 -0.2546
  331MOL0     H44654   5.095  -0.734   4.207 -2.7086  1.1872  0.6648
  331MOL0     H44655   4.829  -0.834   4.112  0.2193 -0.6732 -0.7838
  331MOL0     H44656   4.866  -0.663   4.129 -5.6151  0.7313  1.7116
  331MOL0     H44657   4.793  -0.853   4.348  2.1351 -0.7281 -0.8931
  331MOL0     H44658   4.868  -0.707   4.387  2.3764 -2.3066 -1.9854
  331MOL0     H44659   4.596  -0.719   4.252  0.1338 -1.0419  1.5789
  331MOL0     H44660   4.692  -0.579   4.258  2.4291  1.1568  1.7631
  331MOL0     H44661   4.693  -0.601   4.523 -2.0160 -0.6940  2.6438
  331MOL0     H44662   4.545  -0.576   4.431 -0.0255 -1.0651 -4.3154
  331MOL0     H44663   4.634  -0.839   4.538 -0.3788  1.2066  3.1058
  331MOL0     H44664   4.494  -0.813   4.434  1.4291 -0.9727 -1.2900
  331MOL0     H44665   4.551  -0.695   4.719 -0.9106 -0.5953  2.5240
  331MOL0     H44666   4.427  -0.821   4.691  0.9196  0.1551  1.2297
  331MOL0     H44667   5.310  -0.809   4.252 -1.0605  0.7235 -0.2458
  331MOL0     H44668   5.410  -0.928   4.429 -0.0830 -1.8899  2.2227
  331MOL0     H44669   5.304  -1.416   4.693  0.7385  0.7147 -2.5281
  331MOL0     H44670   5.413  -1.454   4.930 -0.3827  1.2270  0.2701
  331MOL0     H44671   6.260  -0.007   4.754  0.3057  3.1271  1.6299
  331MOL0     H44672   6.388   0.182   4.708  1.8375  1.0483  0.8898
  331MOL0     H44673   6.537   0.637   4.869 -1.1825  0.3507 -1.4490
  331MOL0     H44674   6.686   0.808   4.867 -0.5166 -0.2315  1.3700
  331MOL0     H44675   6.842   0.966   4.828  2.2134  1.2603 -1.7965
  331MOL0     H44676   6.923   0.885   4.968  1.8769 -2.7218  0.4784
  331MOL0     H44677   7.138   0.984   4.868  0.4880 -1.1383 -1.5771
  331MOL0     H44678   7.034   1.097   4.937  0.7250 -2.3596  1.9107
  331MOL0     H44679   6.945   1.122   4.691 -0.2970 -1.5393 -1.6341
  331MOL0     H44680   7.067   1.005   4.651  0.2440 -1.1331  1.5082
  331MOL0     H44681   7.229   1.191   4.720  0.1744 -0.1105  1.6117
  331MOL0     H44682   7.098   1.286   4.799  2.7490 -0.5641  0.9944
  331MOL0     H44683   7.006   1.412   4.412 -0.7272  4.1420  1.6994
  331MOL0     H44684   7.006   0.562   4.760 -0.7906  0.3515 -2.1124
  331MOL0     H44685   6.828   0.358   4.755 -2.5065 -0.8474  0.2477
  332MOL0     O44686   8.638   6.168   0.249 -0.2995  0.3386  0.6043
  332MOL0     C44687   8.559   6.212   0.164  0.9056  0.2509 -0.7152
  332MOL0     O44688   8.416   6.191   0.172 -0.1613 -0.3966 -0.5400
  332MOL0     C44689   8.367   6.139   0.288 -0.1452  0.9746  0.3600
  332MOL0     C44690   8.316   6.220   0.388  0.3141 -0.4933 -0.2228
  332MOL0     C44691   8.258   6.167   0.497  0.3058  0.3747 -0.2532
  332MOL0     C44692   8.221   6.037   0.506  0.5726 -0.6526  0.5808
  332MOL0     O44693   8.167   5.971   0.612  0.0508  0.2165 -0.7077
  332MOL0     C44694   8.155   6.040   0.738  0.5064 -0.0618 -0.2722
  332MOL0     C44695   8.292   6.068   0.798 -1.4009 -1.1511  0.0421
  332MOL0     C44696   8.367   5.932   0.833  1.0005 -0.4219  0.5012
  332MOL0     C44697   8.516   5.948   0.844  0.3005 -0.4271  0.0669
  332MOL0     C44698   8.591   5.863   0.732  0.6202 -0.5836  0.6650
  332MOL0     C44699   8.750   5.868   0.741 -0.2490 -0.0251  0.5620
  332MOL0     C44700   8.821   5.889   0.877  0.4135  0.1268 -0.5887
  332MOL0     C44701   8.967   5.836   0.889 -0.0315  0.1191  0.0364
  332MOL0     N44702   9.020   5.868   1.023 -0.9240 -0.4711  0.1433
  332MOL0     C44703   9.084   5.983   1.059  0.0928 -0.0324 -0.6312
  332MOL0     C44704   9.138   5.969   1.179 -0.8861  1.2066  0.1068
  332MOL0     C44705   9.203   6.079   1.261 -1.3264  0.2684  0.0044
  332MOL0     C44706   9.317   6.137   1.176  0.0125 -0.3874  0.5397
  332MOL0     C44707   9.407   6.227   1.259 -0.4368  0.0607  1.0286
  332MOL0     C44708   9.527   6.269   1.172  0.3124  0.0504 -0.0457
  332MOL0     O44709   9.632   6.175   1.140 -0.2846 -0.1570  0.3363
  332MOL0     C44710   9.744   6.179   1.217  0.0091 -0.0750 -0.6119
  332MOL0     C44711   9.783   6.072   1.297  0.7093  0.7508  0.4109
  332MOL0     C44712   9.898   6.063   1.377 -0.5717  0.5652 -0.3755
  332MOL0     C44713   9.929   5.922   1.441 -0.3680 -0.4657 -0.1699
  332MOL0     C44714   9.980   6.177   1.382  0.5303 -0.3826 -0.7395
  332MOL0     C44715  10.091   6.197   1.473 -0.1593  0.2722 -0.3621
  332MOL0     O44716  10.071   6.145   1.597 -0.7131 -0.6490 -0.9730
  332MOL0     C44717  10.187   6.117   1.674  0.4453  0.5920 -0.0847
  332MOL0     C44718  10.280   6.210   1.718  0.2915  0.3388  0.7178
  332MOL0     C44719  10.400   6.169   1.782  1.0122 -1.0273  0.3021
  332MOL0     C44720  10.440   6.040   1.795  1.4842  0.2033  0.1331
  332MOL0     O44721  10.565   5.999   1.831 -0.4784 -0.2048  0.2557
  332MOL0     C44722  10.661   6.090   1.886  0.4396  0.2554  0.1633
  332MOL0     C44723  10.761   6.013   1.975 -0.3386  1.2005 -0.2812
  332MOL0     C44724  10.708   6.002   2.121 -0.5906 -0.3536 -0.6198
  332MOL0     C44725  10.813   5.929   2.201  0.1246  1.0692 -0.3444
  332MOL0     C44726  10.744   5.902   2.343  0.1852 -0.5707 -1.2190
  332MOL0     C44727  10.839   5.834   2.444 -0.3983 -0.0544  1.0386
  332MOL0     C44728  10.766   5.776   2.566 -0.5391  0.1750 -0.6750
  332MOL0     C44729  10.867   5.702   2.659 -1.3314 -0.2272  0.1482
  332MOL0    Cl44730  10.996   5.593   2.579 -0.2264 -0.2846 -0.0589
  332MOL0     C44731  10.346   5.942   1.748 -0.0810 -0.4386  0.4588
  332MOL0     C44732  10.226   5.986   1.692 -0.9455 -0.6273 -0.1990
  332MOL0     O44733  10.194   6.246   1.424 -0.2416  0.4635 -0.9928
  332MOL0     C44734   9.952   6.286   1.288 -0.4187  1.0889 -0.3839
  332MOL0     C44735   9.833   6.286   1.210 -0.6363 -0.1471 -0.1743
  332MOL0     N44736   9.114   5.837   1.213  0.0387  0.0503 -0.8436
  332MOL0     N44737   9.053   5.772   1.116  0.4407 -0.2222 -0.8110
  332MOL0     C44738   8.248   5.960   0.394 -0.1481  0.2079 -0.6412
  332MOL0     C44739   8.314   6.009   0.287 -0.8682 -1.1614  0.4197
  332MOL0     C44740   8.607   6.303   0.062 -0.1687 -0.1101 -0.5405
  332MOL0     C44741   8.519   6.350  -0.039 -0.8078  0.2782 -0.3489
  332MOL0     C44742   8.558   6.459  -0.125 -0.7415  1.1141 -0.9703
  332MOL0     C44743   8.688   6.514  -0.111 -0.1718 -0.1362 -0.2992
  332MOL0     O44744   8.711   6.619  -0.194  0.2066  0.2330  0.4417
  332MOL0     C44745   8.835   6.702  -0.186  0.8612 -0.1669 -0.7919
  332MOL0     C44746   8.867   6.787  -0.054  0.0857  0.5823  0.2154
  332MOL0     C44747   8.752   6.853   0.001  0.2024  0.7070 -0.3401
  332MOL0     C44748   8.803   6.984   0.077  0.4534  0.1729 -0.4847
  332MOL0     C44749   8.866   6.954   0.207  0.2615 -0.7466  0.2800
  332MOL0     C44750   8.908   6.943   0.321 -0.1623 -0.5178 -0.5442
  332MOL0     C44751   8.779   6.452  -0.026 -0.7285 -0.9248  0.1483
  332MOL0     C44752   8.745   6.353   0.061  1.3513 -0.0019  0.3374
  332MOL0     H44753   8.335   6.327   0.389 -1.6514 -0.0346  3.0472
  332MOL0     H44754   8.232   6.239   0.574 -2.4283 -0.3749 -0.3610
  332MOL0     H44755   8.107   6.137   0.722 -3.1857 -1.3454  1.8163
  332MOL0     H44756   8.081   5.989   0.800  0.8634 -0.5291 -0.2292
  332MOL0     H44757   8.352   6.113   0.719 -0.7163  0.0265  1.1960
  332MOL0     H44758   8.265   6.132   0.883 -2.7885  1.1372 -1.9708
  332MOL0     H44759   8.323   5.897   0.927  2.6014  0.5352  1.6520
  332MOL0     H44760   8.344   5.861   0.752  1.3782  0.8976 -0.7999
  332MOL0     H44761   8.555   6.049   0.830 -0.4570 -0.4748 -3.3554
  332MOL0     H44762   8.535   5.913   0.945 -1.8934  0.9995  1.0519
  332MOL0     H44763   8.561   5.760   0.755  0.5101 -0.5189  0.8204
  332MOL0     H44764   8.566   5.889   0.629  1.8820 -0.6173  0.3256
  332MOL0     H44765   8.787   5.780   0.687 -2.9904 -1.5467  1.0042
  332MOL0     H44766   8.782   5.955   0.684 -3.0548  2.3823  2.3937
  332MOL0     H44767   8.837   5.995   0.896 -2.8370  0.6365 -0.0614
  332MOL0     H44768   8.760   5.857   0.962 -0.2263  5.0563  1.1093
  332MOL0     H44769   9.030   5.881   0.812  1.3833 -3.4749 -1.1523
  332MOL0     H44770   8.967   5.727   0.884 -0.6367  0.1282 -0.2785
  332MOL0     H44771   9.074   6.080   1.012  0.2246 -0.9900 -2.7512
  332MOL0     H44772   9.139   6.164   1.285 -0.1051  0.5588  2.5419
  332MOL0     H44773   9.228   6.044   1.362 -2.3671  3.8172  1.6361
  332MOL0     H44774   9.278   6.182   1.084  0.0859 -1.6696 -0.1377
  332MOL0     H44775   9.376   6.048   1.152  1.6129  0.7323  0.1641
  332MOL0     H44776   9.442   6.176   1.349  2.1178 -2.2623 -1.0923
  332MOL0     H44777   9.345   6.311   1.291  0.9395  1.2641  0.6636
  332MOL0     H44778   9.558   6.363   1.220 -2.6494  1.3457 -0.4609
  332MOL0     H44779   9.480   6.293   1.076 -2.0381  4.2482  1.8819
  332MOL0     H44780   9.722   5.986   1.270 -0.6480  1.2607  1.7321
  332MOL0     H44781   9.883   5.838   1.387 -0.6434 -2.1148  2.4630
  332MOL0     H44782  10.034   5.899   1.421 -0.5377  1.1634 -3.7985
  332MOL0     H44783   9.898   5.928   1.545  2.1620 -0.6258  0.6640
  332MOL0     H44784  10.247   6.311   1.698 -2.1464  0.6160  4.8772
  332MOL0     H44785  10.482   6.237   1.800 -0.4086  0.8390 -0.0200
  332MOL0     H44786  10.716   6.132   1.802  0.4493 -1.1054 -0.5261
  332MOL0     H44787  10.609   6.159   1.954 -0.6625 -0.7447  0.3720
  332MOL0     H44788  10.784   5.914   1.934 -1.1339  0.7963  0.2149
  332MOL0     H44789  10.850   6.075   1.977 -1.1326  2.4238  2.5354
  332MOL0     H44790  10.607   5.960   2.127 -0.2536 -1.1408 -0.3473
  332MOL0     H44791  10.691   6.104   2.157 -1.0684  0.1840 -2.2618
  332MOL0     H44792  10.833   5.828   2.163 -1.0023  1.0807 -1.0095
  332MOL0     H44793  10.900   5.994   2.209  0.6750  0.2003  1.0506
  332MOL0     H44794  10.663   5.831   2.321 -1.3935 -0.3346  2.9679
  332MOL0     H44795  10.703   5.994   2.386 -1.8216 -1.2591 -1.5405
  332MOL0     H44796  10.894   5.760   2.384  0.8954  0.5306  1.4693
  332MOL0     H44797  10.915   5.908   2.469 -1.7354  0.8004  2.7984
  332MOL0     H44798  10.687   5.704   2.544 -0.5427 -0.2642  0.7193
  332MOL0     H44799  10.737   5.868   2.618  1.0081 -0.3146  1.1490
  332MOL0     H44800  10.795   5.648   2.720 -3.7248  2.8576  0.3150
  332MOL0     H44801  10.913   5.778   2.722 -1.1492  0.2986 -0.5963
  332MOL0     H44802  10.357   5.837   1.771 -1.2292  0.0447  3.6505
  332MOL0     H44803  10.147   5.915   1.668  0.1978 -1.7873 -0.6383
  332MOL0     H44804  10.014   6.374   1.282  0.6318  0.3912  0.0751
  332MOL0     H44805   9.808   6.359   1.134  2.2671  1.5943  0.4108
  332MOL0     H44806   8.227   5.854   0.405  0.2613  0.1047 -0.8507
  332MOL0     H44807   8.336   5.937   0.209  0.3341 -0.3813  0.0067
  332MOL0     H44808   8.417   6.316  -0.026 -1.1570  1.9582  1.9629
  332MOL0     H44809   8.497   6.509  -0.200 -0.8147  0.8281 -1.1054
  332MOL0     H44810   8.919   6.635  -0.207 -0.0863 -1.8627  0.6217
  332MOL0     H44811   8.843   6.778  -0.264  3.0835  2.9599  2.1870
  332MOL0     H44812   8.933   6.869  -0.084 -1.8313  1.7592 -0.9240
  332MOL0     H44813   8.921   6.731   0.023  0.7254  0.5354 -0.2543
  332MOL0     H44814   8.696   6.792   0.072  0.0632  1.6725  0.3985
  332MOL0     H44815   8.688   6.900  -0.075  0.7815  0.8481 -0.7574
  332MOL0     H44816   8.710   7.036   0.101 -0.8889 -3.0223  1.9459
  332MOL0     H44817   8.867   7.054   0.023 -0.6491  1.3749 -0.2707
  332MOL0     H44818   8.958   6.931   0.416 -2.6652  2.0563  1.2671
  332MOL0     H44819   8.871   6.507  -0.008 -0.3732 -0.8942 -1.6283
  332MOL0     H44820   8.819   6.311   0.128  1.4740 -0.6717 -0.2084
  333MOL0     O44821   6.819  11.220   6.086 -0.0116  0.3444 -0.6209
  333MOL0     C44822   6.925  11.280   6.116 -0.7361  0.1492 -0.4491
  333MOL0     O44823   7.047  11.220   6.144 -0.1404  0.5052 -0.1752
  333MOL0     C44824   7.039  11.100   6.211 -0.7299  0.7154 -1.1610
  333MOL0     C44825   7.005  11.084   6.346 -0.3548 -0.1144 -0.8395
  333MOL0     C44826   7.023  10.958   6.411  0.1235  0.5617  0.6813
  333MOL0     C44827   7.060  10.841   6.337 -1.0164  0.2964  0.9927
  333MOL0     O44828   7.065  10.724   6.411 -0.2478 -0.1795  0.6283
  333MOL0     C44829   7.055  10.594   6.345 -0.1974 -0.7157  0.5942
  333MOL0     C44830   7.058  10.479   6.450 -0.5999  0.2553 -0.2864
  333MOL0     C44831   7.071  10.334   6.384  0.5646 -0.2191 -1.2380
  333MOL0     C44832   7.097  10.231   6.501 -0.5344  0.0126  0.5032
  333MOL0     C44833   7.085  10.086   6.444  0.6592  0.3759 -0.6079
  333MOL0     C44834   7.117   9.977   6.548  0.1040 -0.0687 -0.6939
  333MOL0     C44835   7.166   9.846   6.473  0.6173 -0.7390 -0.2122
  333MOL0     C44836   7.242   9.758   6.570  0.4050  0.2725 -0.6708
  333MOL0     N44837   7.230   9.619   6.517  0.3708  0.1534 -0.5377
  333MOL0     C44838   7.114   9.545   6.544  0.0396 -0.4812  0.0077
  333MOL0     C44839   7.144   9.421   6.520 -0.2905  0.1440  1.1285
  333MOL0     C44840   7.052   9.305   6.517  0.4288 -0.3174  0.6925
  333MOL0     C44841   7.122   9.176   6.509  0.2094 -0.2850  0.7919
  333MOL0     C44842   7.019   9.069   6.543 -0.2010  0.0864 -0.0558
  333MOL0     C44843   7.091   8.934   6.525 -1.3898  0.2834 -1.1586
  333MOL0     O44844   7.204   8.915   6.619 -0.8246  0.3067 -0.3978
  333MOL0     C44845   7.175   8.851   6.739  0.0672  0.0167  0.0162
  333MOL0     C44846   7.278   8.786   6.812  0.6215  0.2779  0.0195
  333MOL0     C44847   7.258   8.692   6.919 -0.3548 -0.4767 -0.5458
  333MOL0     C44848   7.383   8.612   6.961  0.4999 -0.5371 -1.1229
  333MOL0     C44849   7.130   8.678   6.978  0.4608 -1.1013  0.0652
  333MOL0     C44850   7.096   8.579   7.087  0.2192 -0.5115  0.1448
  333MOL0     O44851   6.965   8.572   7.138 -0.6034  0.5900 -0.1302
  333MOL0     C44852   6.931   8.481   7.231 -0.2205 -0.4310 -1.0396
  333MOL0     C44853   6.874   8.508   7.355  0.9581  0.0286  0.1922
  333MOL0     C44854   6.838   8.408   7.452 -0.6531 -0.0313 -0.1529
  333MOL0     C44855   6.872   8.276   7.417 -0.2138 -0.6201 -0.3211
  333MOL0     O44856   6.860   8.163   7.499 -0.2169 -0.1861  1.4767
  333MOL0     C44857   6.829   8.176   7.638 -0.2703  0.0705  0.0005
  333MOL0     C44858   6.920   8.263   7.724 -1.2407 -0.0409  0.5013
  333MOL0     C44859   7.063   8.196   7.738 -1.2324  1.0987 -0.3065
  333MOL0     C44860   7.152   8.272   7.829  0.8765 -0.3382  0.4214
  333MOL0     C44861   7.276   8.206   7.880  0.4103  0.7500 -0.2353
  333MOL0     C44862   7.248   8.093   7.970 -0.2670  0.5106 -1.0412
  333MOL0     C44863   7.361   8.030   8.051  1.0614 -0.3182 -0.6504
  333MOL0     C44864   7.405   7.892   7.997 -0.4021  0.5783 -0.2282
  333MOL0    Cl44865   7.485   7.793   8.120  0.2263 -0.0479  0.2514
  333MOL0     C44866   6.947   8.249   7.302  0.2869  0.7359  0.5663
  333MOL0     C44867   6.964   8.347   7.210  0.5694  0.2761 -0.5752
  333MOL0     O44868   7.190   8.515   7.124  0.2443  0.2268 -0.0865
  333MOL0     C44869   7.027   8.751   6.905 -0.7697  0.0334 -0.3188
  333MOL0     C44870   7.049   8.840   6.795  0.5600 -0.1654  0.3491
  333MOL0     N44871   7.280   9.412   6.486 -0.0535 -0.0580  0.0883
  333MOL0     N44872   7.329   9.535   6.476  1.1775 -0.8922  0.2341
  333MOL0     C44873   7.090  10.861   6.206 -0.8570  0.0719  1.0944
  333MOL0     C44874   7.084  10.984   6.144 -0.2940  0.2325 -0.0377
  333MOL0     C44875   6.922  11.430   6.090  0.4620  0.6845 -0.1472
  333MOL0     C44876   7.026  11.509   6.136  0.1977  0.2632 -0.2528
  333MOL0     C44877   7.024  11.642   6.117 -0.4809  0.2322 -0.1498
  333MOL0     C44878   6.925  11.705   6.053  0.8765 -0.0086 -0.0928
  333MOL0     O44879   6.932  11.834   6.047 -0.4267 -0.4426  0.3424
  333MOL0     C44880   7.045  11.878   5.966  0.4900  0.2943 -0.9170
  333MOL0     C44881   7.112  11.996   6.027 -0.0241  0.1700 -0.0844
  333MOL0     C44882   7.033  12.122   6.024  0.7164  0.5391  0.1704
  333MOL0     C44883   7.057  12.223   6.130 -0.1819  0.4365  0.4157
  333MOL0     C44884   7.187  12.299   6.125 -0.1519  0.1507 -0.0485
  333MOL0     C44885   7.280  12.373   6.120  0.5692 -0.2635  0.6338
  333MOL0     C44886   6.822  11.638   6.002  0.5029 -1.2034 -0.8018
  333MOL0     C44887   6.816  11.501   6.016 -0.1600 -0.9869 -0.7706
  333MOL0     H44888   6.973  11.179   6.388 -3.1348 -0.4668 -1.9859
  333MOL0     H44889   6.987  10.944   6.512 -5.2343 -2.9087 -1.2190
  333MOL0     H44890   6.961  10.582   6.290  0.0698 -1.5856  0.3065
  333MOL0     H44891   7.139  10.578   6.278  1.8935  0.1888  2.8447
  333MOL0     H44892   7.140  10.495   6.522 -2.1671  1.8974  1.2479
  333MOL0     H44893   6.972  10.486   6.517  1.6847  2.2099  2.7297
  333MOL0     H44894   6.976  10.307   6.337  0.0929 -0.3248 -0.2522
  333MOL0     H44895   7.162  10.331   6.323  0.8314 -2.5955 -0.8195
  333MOL0     H44896   7.196  10.260   6.537  0.3690 -0.3919 -1.5055
  333MOL0     H44897   7.026  10.250   6.583  1.8340  3.8216  1.9395
  333MOL0     H44898   6.989  10.059   6.400 -0.0701 -0.9361  1.6600
  333MOL0     H44899   7.156  10.084   6.360  0.4484  2.0383 -0.8594
  333MOL0     H44900   7.196  10.015   6.614  0.3290  1.0437 -1.5858
  333MOL0     H44901   7.029   9.960   6.612  0.9628  0.6665  0.7319
  333MOL0     H44902   7.084   9.793   6.423 -1.0384 -0.7918  2.4182
  333MOL0     H44903   7.244   9.862   6.397 -1.2198  0.9193 -1.8557
  333MOL0     H44904   7.192   9.763   6.667  0.8660  1.7123 -0.4870
  333MOL0     H44905   7.338   9.798   6.603 -1.1513  1.8164  2.4287
  333MOL0     H44906   7.013   9.577   6.570 -0.5630 -2.0503 -0.3256
  333MOL0     H44907   7.001   9.332   6.610  1.0093  0.0468  0.9081
  333MOL0     H44908   6.980   9.313   6.435 -2.4663 -0.7831  2.9933
  333MOL0     H44909   7.199   9.158   6.585  1.5774 -1.9796 -0.8889
  333MOL0     H44910   7.171   9.158   6.412  0.2791  1.8806  0.3757
  333MOL0     H44911   6.929   9.074   6.481 -3.0313  0.9094  3.7176
  333MOL0     H44912   6.974   9.076   6.643  0.1541 -2.9397  0.3936
  333MOL0     H44913   7.125   8.923   6.421 -2.5340  5.2836 -2.3200
  333MOL0     H44914   7.020   8.852   6.539  1.1395 -1.7601  0.7789
  333MOL0     H44915   7.377   8.793   6.768  1.3853 -3.0785  0.9204
  333MOL0     H44916   7.390   8.616   7.070 -3.3000  2.0825 -0.7844
  333MOL0     H44917   7.363   8.508   6.936 -1.5191  0.1849 -2.8069
  333MOL0     H44918   7.468   8.650   6.903  1.2917 -2.4591 -1.3132
  333MOL0     H44919   6.844   8.611   7.372  1.1270 -0.2472  2.5440
  333MOL0     H44920   6.759   8.417   7.527  0.0110 -0.4191  0.6129
  333MOL0     H44921   6.730   8.220   7.653 -0.0845  2.7966 -4.7853
  333MOL0     H44922   6.826   8.080   7.690  3.3785 -1.7419 -2.7387
  333MOL0     H44923   6.928   8.366   7.689  0.0733 -0.4493 -0.4966
  333MOL0     H44924   6.874   8.259   7.823  0.4268 -0.5665  1.3078
  333MOL0     H44925   7.128   8.201   7.650  0.0141  1.7613  0.6243
  333MOL0     H44926   7.054   8.088   7.754 -1.4781  0.7873 -2.2136
  333MOL0     H44927   7.171   8.363   7.770  2.4571  0.7622  2.4760
  333MOL0     H44928   7.085   8.315   7.904 -1.8506  0.0687 -2.0836
  333MOL0     H44929   7.342   8.274   7.934  2.6918 -1.0236 -0.6588
  333MOL0     H44930   7.336   8.164   7.800  0.6036  1.5566 -0.5169
  333MOL0     H44931   7.166   8.126   8.033 -2.8115 -5.6811 -0.4174
  333MOL0     H44932   7.209   8.006   7.916  2.9844 -0.5532 -1.9350
  333MOL0     H44933   7.315   8.022   8.150 -1.3081 -0.6009 -1.7184
  333MOL0     H44934   7.447   8.097   8.060 -0.2402  1.5911 -1.8241
  333MOL0     H44935   7.458   7.908   7.903 -0.1482  0.1959 -0.1521
  333MOL0     H44936   7.319   7.828   7.973  1.0259 -1.8799  0.8701
  333MOL0     H44937   6.992   8.150   7.303 -0.4039  0.3594  3.7402
  333MOL0     H44938   7.012   8.324   7.116  0.5491  3.7204 -1.5659
  333MOL0     H44939   6.925   8.737   6.938  0.1683 -0.5594  2.6537
  333MOL0     H44940   6.966   8.887   6.744  0.2956  0.7718  1.6021
  333MOL0     H44941   7.115  10.776   6.143  0.9794  0.8197  0.7631
  333MOL0     H44942   7.103  10.988   6.037 -0.5048  2.5442 -0.0534
  333MOL0     H44943   7.117  11.464   6.174 -0.2648 -2.6602 -2.2097
  333MOL0     H44944   7.107  11.700   6.156  1.1688 -0.6543 -2.1532
  333MOL0     H44945   7.121  11.802   5.946 -1.3468 -0.6996 -5.1446
  333MOL0     H44946   7.024  11.909   5.863  4.2398  1.8622 -1.3967
  333MOL0     H44947   7.206  12.011   5.974  0.7308  2.0856  1.6543
  333MOL0     H44948   7.145  11.969   6.128  0.6612  3.4352  0.6895
  333MOL0     H44949   6.928  12.093   6.038  0.8430  1.0001  2.4194
  333MOL0     H44950   7.050  12.167   5.926  1.4866 -0.9534 -0.4172
  333MOL0     H44951   7.039  12.174   6.227  0.2799 -1.6636 -0.5036
  333MOL0     H44952   6.980  12.299   6.115 -0.7517 -0.1677  0.2585
  333MOL0     H44953   7.375  12.421   6.132  0.0328  0.7814  0.7481
  333MOL0     H44954   6.752  11.703   5.950  1.2530 -0.3262 -0.7238
  333MOL0     H44955   6.737  11.441   5.974 -1.1147 -0.8952  0.8204
  334MOL0     O44956   0.735  11.304  11.524  0.2644 -0.7502 -0.5678
  334MOL0     C44957   0.655  11.365  11.594  0.1356 -0.8916 -0.6546
  334MOL0     O44958   0.562  11.317  11.680 -0.6382  0.4473 -0.0295
  334MOL0     C44959   0.527  11.175  11.670  0.7271 -1.0536  0.2687
  334MOL0     C44960   0.453  11.141  11.556 -0.3583  0.4355 -0.9785
  334MOL0     C44961   0.409  11.013  11.539  0.4460 -0.0430 -0.4965
  334MOL0     C44962   0.422  10.918  11.634 -0.6928  0.1859 -0.1570
  334MOL0     O44963   0.375  10.790  11.610 -0.3531 -0.4832  0.9352
  334MOL0     C44964   0.422  10.680  11.687  0.5947  0.0975 -0.1147
  334MOL0     C44965   0.345  10.557  11.633  0.2366 -0.5125  0.3948
  334MOL0     C44966   0.406  10.510  11.500 -0.3739 -0.7266 -0.1554
  334MOL0     C44967   0.380  10.355  11.481  0.5765 -0.7015 -0.3102
  334MOL0     C44968   0.453  10.247  11.576 -0.0837 -0.6150 -0.8106
  334MOL0     C44969   0.607  10.256  11.591 -0.6722 -0.0332 -0.7554
  334MOL0     C44970   0.667  10.171  11.712 -0.1892  0.7779  0.1531
  334MOL0     C44971   0.812  10.139  11.691 -0.7531 -0.0910 -0.6559
  334MOL0     N44972   0.821  10.024  11.601  0.1955  0.0522  0.5542
  334MOL0     C44973   0.801   9.891  11.634 -0.2299 -0.8782 -0.4569
  334MOL0     C44974   0.805   9.809  11.518 -0.6880 -0.3845 -0.1773
  334MOL0     C44975   0.799   9.667  11.488 -0.5695 -0.5900  0.2772
  334MOL0     C44976   0.937   9.623  11.443 -0.0970 -0.3429  0.2541
  334MOL0     C44977   0.936   9.475  11.415 -0.5237  0.0299  0.2621
  334MOL0     C44978   0.905   9.392  11.539  0.6507  0.5534  0.0210
  334MOL0     O44979   0.946   9.256  11.509  0.0776 -0.3714  0.1381
  334MOL0     C44980   0.891   9.151  11.578  0.5067 -0.8787 -0.4542
  334MOL0     C44981   0.769   9.151  11.650  0.1368 -0.2053 -1.0963
  334MOL0     C44982   0.714   9.035  11.707  0.7952  0.1465 -0.0901
  334MOL0     C44983   0.571   9.039  11.733  0.4034 -0.2146 -0.1469
  334MOL0     C44984   0.803   8.920  11.701 -0.0128  0.1056 -0.6675
  334MOL0     C44985   0.764   8.788  11.752  0.0600  0.2657 -0.1425
  334MOL0     O44986   0.850   8.686  11.723  0.4561  0.1466  0.7524
  334MOL0     C44987   0.845   8.565  11.790 -0.3924 -0.6641 -0.3018
  334MOL0     C44988   0.949   8.519  11.873 -0.3421 -0.0175 -1.0039
  334MOL0     C44989   0.950   8.401  11.951  0.6325  0.0374  0.2228
  334MOL0     C44990   0.834   8.327  11.938  0.2145 -0.5441  0.7853
  334MOL0     O44991   0.831   8.217  12.015 -0.4214  0.6106 -0.3567
  334MOL0     C44992   0.735   8.229  12.119  0.7688 -0.4026  0.1515
  334MOL0     C44993   0.716   8.089  12.185 -0.4464  0.2694 -0.7868
  334MOL0     C44994   0.621   8.106  12.312 -0.7273 -0.1004  1.2579
  334MOL0     C44995   0.615   7.975  12.395 -0.4588 -0.1504 -0.6843
  334MOL0     C44996   0.543   8.011  12.522  0.1574 -0.1314 -0.2701
  334MOL0     C44997   0.528   7.887  12.619  0.3751 -0.6385  0.3771
  334MOL0     C44998   0.451   7.769  12.558  0.1776 -0.3296  0.0322
  334MOL0     C44999   0.412   7.657  12.654  0.2633 -0.5900 -0.8255
  334MOL0    Cl45000   0.273   7.575  12.586  0.0333 -0.0971 -0.1034
  334MOL0     C45001   0.724   8.373  11.868 -0.2541  0.5796 -0.8084
  334MOL0     C45002   0.733   8.486  11.797  0.1584  0.0508  0.1331
  334MOL0     O45003   0.673   8.782  11.824  0.4771  0.1061 -1.3644
  334MOL0     C45004   0.938   8.930  11.651  0.8612  0.5543  0.3583
  334MOL0     C45005   0.972   9.046  11.580  0.0913 -0.0819  0.7048
  334MOL0     N45006   0.843   9.896  11.420  0.3215  0.8253 -0.3724
  334MOL0     N45007   0.835  10.023  11.466  0.5863 -0.3771  0.7193
  334MOL0     C45008   0.485  10.956  11.754  0.0352  0.4740 -0.1256
  334MOL0     C45009   0.538  11.084  11.773  0.0311 -0.0977 -0.8589
  334MOL0     C45010   0.666  11.521  11.603  0.1075  0.6712 -0.0021
  334MOL0     C45011   0.598  11.586  11.706 -0.8789 -0.3367 -0.0470
  334MOL0     C45012   0.621  11.720  11.735 -0.5967  0.7627 -0.2840
  334MOL0     C45013   0.719  11.788  11.654  0.6997  0.3933 -0.1958
  334MOL0     O45014   0.737  11.932  11.656 -0.3918 -1.2170  0.4525
  334MOL0     C45015   0.628  12.012  11.695  0.9913 -0.5475 -0.3908
  334MOL0     C45016   0.606  12.135  11.601  0.1260  0.4096  1.0790
  334MOL0     C45017   0.679  12.256  11.661  0.1919 -0.6415 -0.1600
  334MOL0     C45018   0.726  12.336  11.541 -0.1187  0.3755 -0.4018
  334MOL0     C45019   0.839  12.421  11.571 -0.7963 -0.0236  0.3787
  334MOL0     C45020   0.935  12.492  11.586 -0.5577 -0.1895  0.1029
  334MOL0     C45021   0.779  11.719  11.551 -0.2395  0.1438 -0.5679
  334MOL0     C45022   0.752  11.588  11.521 -0.7294 -0.7356  0.4766
  334MOL0     H45023   0.460  11.201  11.466 -0.6555  2.5261  0.3187
  334MOL0     H45024   0.359  10.983  11.447 -0.5512  0.2912 -0.0807
  334MOL0     H45025   0.528  10.657  11.673  0.5045  0.5606 -1.8059
  334MOL0     H45026   0.396  10.714  11.788 -0.2106  4.0451 -1.4809
  334MOL0     H45027   0.356  10.476  11.705 -0.1398  1.5186  2.8883
  334MOL0     H45028   0.240  10.577  11.610  0.0979 -2.8831 -1.4591
  334MOL0     H45029   0.351  10.563  11.422 -1.0846 -1.5991 -0.2581
  334MOL0     H45030   0.512  10.536  11.493 -0.8792  2.2534  1.7094
  334MOL0     H45031   0.271  10.351  11.494  0.5606  1.7393  0.7427
  334MOL0     H45032   0.398  10.320  11.379 -1.5576 -3.6174  0.1929
  334MOL0     H45033   0.410  10.259  11.677 -1.0583 -2.8305 -0.8947
  334MOL0     H45034   0.422  10.149  11.539 -3.4158 -0.0053  0.0323
  334MOL0     H45035   0.641  10.219  11.494 -0.1633  0.3614 -0.7315
  334MOL0     H45036   0.640  10.359  11.605 -2.8726  1.1241 -3.1046
  334MOL0     H45037   0.651  10.223  11.808 -1.9664  2.5813 -1.0465
  334MOL0     H45038   0.601  10.085  11.724 -1.2184  1.8402  3.2444
  334MOL0     H45039   0.849  10.098  11.785  0.2246 -0.6112 -1.2534
  334MOL0     H45040   0.866  10.230  11.665  0.6814 -0.1126  1.9171
  334MOL0     H45041   0.771   9.850  11.730  1.6806 -2.4605 -0.4772
  334MOL0     H45042   0.765   9.616  11.578 -1.8734  2.4115  1.6190
  334MOL0     H45043   0.726   9.659  11.406 -2.5968  2.2333  1.6670
  334MOL0     H45044   1.022   9.644  11.508  1.9852  1.7492 -2.8741
  334MOL0     H45045   0.955   9.675  11.348 -1.3946  1.1802  0.8060
  334MOL0     H45046   1.041   9.467  11.384 -0.7887  1.1935 -1.0051
  334MOL0     H45047   0.879   9.447  11.326  1.0873  0.8758 -1.0912
  334MOL0     H45048   0.796   9.399  11.533  0.6838  0.9705 -0.0921
  334MOL0     H45049   0.948   9.417  11.636 -0.1827  2.1232  0.0085
  334MOL0     H45050   0.715   9.245  11.649 -0.7515 -0.6970 -0.6445
  334MOL0     H45051   0.518   9.127  11.697  1.4253  0.1981 -0.7046
  334MOL0     H45052   0.525   8.962  11.670  1.1735 -0.3372 -0.5732
  334MOL0     H45053   0.560   9.025  11.840  0.7769 -0.1761 -0.1013
  334MOL0     H45054   1.036   8.584  11.880  1.4155 -2.3777  0.3979
  334MOL0     H45055   1.034   8.375  12.015  0.4735  0.9030  0.8092
  334MOL0     H45056   0.766   8.299  12.196  0.4378 -0.9468  0.7947
  334MOL0     H45057   0.639   8.268  12.084  1.0826  0.2634  0.0149
  334MOL0     H45058   0.675   8.008  12.123 -1.6693  0.7170 -0.6064
  334MOL0     H45059   0.815   8.060  12.220 -1.0342  1.2053  1.8885
  334MOL0     H45060   0.522   8.137  12.275 -0.7511  0.0840  1.4719
  334MOL0     H45061   0.645   8.193  12.374  0.1141  0.0805  0.6960
  334MOL0     H45062   0.548   7.905  12.346 -2.4871 -0.1579  1.8704
  334MOL0     H45063   0.717   7.941  12.416 -0.2910  1.5209  1.6117
  334MOL0     H45064   0.441   8.043  12.503 -1.6859 -4.2630  1.4903
  334MOL0     H45065   0.604   8.093  12.561 -0.4883  2.7042 -4.4917
  334MOL0     H45066   0.630   7.870  12.653  0.8458  1.4608  0.1779
  334MOL0     H45067   0.460   7.925  12.696 -1.0605 -0.9428 -0.7024
  334MOL0     H45068   0.511   7.736  12.472 -1.8661 -0.4387 -1.4355
  334MOL0     H45069   0.352   7.801  12.524 -0.9628 -1.8443  1.7485
  334MOL0     H45070   0.380   7.703  12.748  0.7973  0.1526 -1.0010
  334MOL0     H45071   0.496   7.592  12.681 -0.0055  0.2059  2.3510
  334MOL0     H45072   0.638   8.308  11.867 -0.5143  0.9219 -0.9483
  334MOL0     H45073   0.653   8.501  11.726 -0.7888 -3.3305  0.3111
  334MOL0     H45074   1.005   8.845  11.653 -1.9828 -1.8694 -0.2190
  334MOL0     H45075   1.067   9.046  11.527 -1.0340  1.0343 -1.4342
  334MOL0     H45076   0.480  10.896  11.844 -2.6288  1.3234  0.3960
  334MOL0     H45077   0.598  11.110  11.860  0.2307  1.4044 -1.4285
  334MOL0     H45078   0.524  11.528  11.760 -3.8821  2.1206 -1.1991
  334MOL0     H45079   0.556  11.765  11.810  0.7343  3.1120 -0.4373
  334MOL0     H45080   0.536  11.953  11.696  0.0917  0.8175  0.9277
  334MOL0     H45081   0.655  12.041  11.797  2.7112 -0.3972 -0.8539
  334MOL0     H45082   0.500  12.163  11.597  0.2571  0.9017  1.0305
  334MOL0     H45083   0.642  12.104  11.502 -2.0386 -0.3137  0.4614
  334MOL0     H45084   0.757  12.209  11.722 -1.1017 -3.9042 -0.7701
  334MOL0     H45085   0.617  12.316  11.729 -0.9539 -0.8921 -0.9699
  334MOL0     H45086   0.643  12.392  11.497 -1.7883 -3.2899 -2.4789
  334MOL0     H45087   0.760  12.271  11.460  0.4969  2.5906 -2.0074
  334MOL0     H45088   1.014  12.563  11.605  1.2371 -2.3334  1.0817
  334MOL0     H45089   0.859  11.765  11.494  0.9088 -0.2440  0.6794
  334MOL0     H45090   0.814  11.548  11.441 -1.8852  2.8172 -2.4353
  335MOL0     O45091   7.199   4.119  10.515  0.5055  0.8723 -0.3736
  335MOL0     C45092   7.274   4.153  10.608  0.6282 -0.4093 -0.3250
  335MOL0     O45093   7.301   4.294  10.646 -0.3784  0.2673 -0.4108
  335MOL0     C45094   7.238   4.383  10.568  0.7920 -0.0912  1.2061
  335MOL0     C45095   7.102   4.381  10.563 -0.4499 -0.3993 -0.4834
  335MOL0     C45096   7.032   4.462  10.468 -0.4984  0.0019  0.1170
  335MOL0     C45097   7.099   4.563  10.389  0.3608 -1.0315  1.2461
  335MOL0     O45098   7.041   4.643  10.287  0.1435  0.2513 -0.0691
  335MOL0     C45099   6.892   4.652  10.287 -1.1321  0.0263  0.7557
  335MOL0     C45100   6.841   4.794  10.286  0.5178  0.0161 -0.0526
  335MOL0     C45101   6.905   4.887  10.180  0.2363  0.2011 -0.5295
  335MOL0     C45102   6.821   5.008  10.148  0.3259 -1.4716 -0.5240
  335MOL0     C45103   6.858   5.080  10.010 -1.2024 -0.6682 -0.3574
  335MOL0     C45104   7.002   5.157  10.017  0.3232  0.0808  0.1714
  335MOL0     C45105   7.004   5.234   9.884  0.5375  1.2206  0.2138
  335MOL0     C45106   7.140   5.299   9.861  0.1204 -1.0541  0.7862
  335MOL0     N45107   7.249   5.208   9.846  0.6916 -0.0773 -0.2902
  335MOL0     C45108   7.251   5.097   9.756  0.4925  0.0794  0.0512
  335MOL0     C45109   7.343   5.014   9.797  0.1338  0.8034 -0.2652
  335MOL0     C45110   7.350   4.875   9.744 -0.1314  0.3489 -0.7182
  335MOL0     C45111   7.240   4.801   9.826  0.0380  0.0005  0.3007
  335MOL0     C45112   7.196   4.667   9.760  0.3058  0.1189  0.3487
  335MOL0     C45113   7.103   4.681   9.637  0.0520  0.3293  0.9319
  335MOL0     O45114   7.165   4.712   9.509 -0.2538 -0.4775 -0.6580
  335MOL0     C45115   7.246   4.614   9.474  1.0303  0.5726  0.2240
  335MOL0     C45116   7.237   4.473   9.506  1.2853  0.3130 -0.2117
  335MOL0     C45117   7.337   4.382   9.468 -0.2477 -0.7106 -0.4166
  335MOL0     C45118   7.327   4.239   9.510 -0.5566 -0.2368 -0.4359
  335MOL0     C45119   7.442   4.428   9.387 -1.2656 -0.0603 -1.2766
  335MOL0     C45120   7.558   4.340   9.348  0.7512 -0.0390 -0.3606
  335MOL0     O45121   7.586   4.222   9.407  0.5928 -0.4322 -0.1047
  335MOL0     C45122   7.700   4.155   9.358  0.3397 -0.1244 -1.0626
  335MOL0     C45123   7.827   4.189   9.412 -0.1548 -0.2870  0.8890
  335MOL0     C45124   7.941   4.127   9.371  0.2086  0.0636  0.5214
  335MOL0     C45125   7.931   4.018   9.283  0.3896 -0.2674 -0.6454
  335MOL0     O45126   8.050   3.947   9.261  0.4290  0.1100  0.7733
  335MOL0     C45127   8.045   3.861   9.144  0.0707 -0.1070 -0.4659
  335MOL0     C45128   8.175   3.831   9.086  0.9019  0.0942  0.0367
  335MOL0     C45129   8.220   3.957   9.011 -0.0948 -0.6035  0.2037
  335MOL0     C45130   8.367   3.931   8.941  0.0882  0.0014 -0.1328
  335MOL0     C45131   8.399   4.042   8.848 -0.0035 -0.4360 -0.2347
  335MOL0     C45132   8.549   4.060   8.836 -0.2349  0.0983 -0.0125
  335MOL0     C45133   8.574   4.169   8.722 -0.2257 -0.6206  0.3611
  335MOL0     C45134   8.718   4.168   8.677  0.0597 -0.1985 -0.2758
  335MOL0    Cl45135   8.747   4.005   8.585 -0.2981  0.7674  0.3531
  335MOL0     C45136   7.804   3.987   9.225  0.0820  0.5009  0.0959
  335MOL0     C45137   7.693   4.057   9.259 -0.2395  0.1360 -0.2130
  335MOL0     O45138   7.628   4.390   9.259  0.0995 -0.5374 -0.3435
  335MOL0     C45139   7.452   4.566   9.354 -0.4843 -0.1954  0.4467
  335MOL0     C45140   7.356   4.652   9.401  0.6052 -0.6161  0.2948
  335MOL0     N45141   7.398   5.063   9.911 -0.7033  0.6175 -0.5291
  335MOL0     N45142   7.350   5.177   9.942  0.0634 -0.2540 -0.3691
  335MOL0     C45143   7.240   4.568  10.413 -0.5596 -0.6402  0.1670
  335MOL0     C45144   7.305   4.481  10.492  0.2656  0.4178 -0.1033
  335MOL0     C45145   7.322   4.048  10.693  0.3605 -0.1320  0.5784
  335MOL0     C45146   7.379   4.081  10.815 -0.2728 -0.5408  0.1086
  335MOL0     C45147   7.428   3.989  10.901  0.0853  0.7951 -0.4932
  335MOL0     C45148   7.412   3.854  10.879 -0.6518 -0.1736 -0.0675
  335MOL0     O45149   7.450   3.760  10.971  0.0609  0.4912  0.6424
  335MOL0     C45150   7.363   3.743  11.080  0.3368  0.7977 -0.2539
  335MOL0     C45151   7.396   3.607  11.150 -0.3651 -0.9145  0.2373
  335MOL0     C45152   7.355   3.499  11.052  0.6272  0.0758 -0.4465
  335MOL0     C45153   7.205   3.459  11.070 -0.1377  0.4908  0.3010
  335MOL0     C45154   7.184   3.379  11.201 -0.6380  0.3281  0.7462
  335MOL0     C45155   7.163   3.316  11.305  0.8582 -0.7355 -1.1521
  335MOL0     C45156   7.372   3.817  10.749  0.3520  0.3965  1.3178
  335MOL0     C45157   7.311   3.904  10.657 -0.1978 -0.5835  0.3370
  335MOL0     H45158   7.047   4.305  10.617  0.0139 -0.2105  0.2672
  335MOL0     H45159   6.930   4.426  10.457 -0.0694 -0.9093 -1.1422
  335MOL0     H45160   6.863   4.604  10.193  1.3046 -0.6327  0.2677
  335MOL0     H45161   6.850   4.580  10.358  1.1030 -1.7270  0.4171
  335MOL0     H45162   6.733   4.780  10.272  0.1925 -2.0257  3.4548
  335MOL0     H45163   6.879   4.835  10.379  0.0322  1.7598 -0.5912
  335MOL0     H45164   7.001   4.901  10.231 -1.9129  1.0821  3.7365
  335MOL0     H45165   6.921   4.824  10.092  1.1127 -0.2771 -0.0418
  335MOL0     H45166   6.713   4.990  10.142 -0.0181  0.4360 -0.5410
  335MOL0     H45167   6.843   5.081  10.227  2.6905 -0.0653 -2.3562
  335MOL0     H45168   6.864   5.007   9.929  0.1168 -0.7045 -0.2474
  335MOL0     H45169   6.779   5.154   9.990 -0.4150  0.7878  1.6344
  335MOL0     H45170   6.997   5.226  10.102 -3.6954 -1.9067  1.8409
  335MOL0     H45171   7.083   5.084  10.022  0.9774  0.7370 -0.5979
  335MOL0     H45172   6.993   5.160   9.805 -0.6435  1.6408 -0.0306
  335MOL0     H45173   6.932   5.315   9.873  2.2458  2.7954  0.1758
  335MOL0     H45174   7.164   5.366   9.944 -2.7549  2.8468 -1.2100
  335MOL0     H45175   7.130   5.350   9.765  3.3341 -1.1282  0.3139
  335MOL0     H45176   7.171   5.084   9.684  1.1144  1.8061 -1.0075
  335MOL0     H45177   7.354   4.863   9.635  2.8219  2.0879 -0.9105
  335MOL0     H45178   7.449   4.839   9.776 -0.9489  0.1334  1.7946
  335MOL0     H45179   7.152   4.860   9.854  2.1898  2.1681  3.2040
  335MOL0     H45180   7.293   4.777   9.919  0.1206 -0.0818  0.2330
  335MOL0     H45181   7.132   4.614   9.830 -0.8761  1.3936  0.2749
  335MOL0     H45182   7.281   4.600   9.742  0.4035 -0.0146  1.2655
  335MOL0     H45183   7.026   4.758   9.645  0.0314  0.1834  2.3292
  335MOL0     H45184   7.049   4.588   9.619  2.8344 -0.9170 -1.8896
  335MOL0     H45185   7.144   4.435   9.548  1.3975 -1.3706 -1.3830
  335MOL0     H45186   7.401   4.229   9.589 -0.0774  2.9054 -0.3910
  335MOL0     H45187   7.224   4.225   9.544 -0.6084  1.1172  0.0045
  335MOL0     H45188   7.354   4.172   9.427 -3.5138  0.6266 -2.2529
  335MOL0     H45189   7.833   4.260   9.494  2.9871 -0.5562  1.0116
  335MOL0     H45190   8.039   4.168   9.394 -0.4523  1.9552  0.1144
  335MOL0     H45191   7.996   3.769   9.177  1.6187  0.1865  3.1646
  335MOL0     H45192   7.979   3.899   9.066 -0.4028  0.6970  0.2997
  335MOL0     H45193   8.254   3.803   9.156 -1.3896  0.0972  2.7941
  335MOL0     H45194   8.173   3.745   9.019 -0.0689  0.1072  0.0331
  335MOL0     H45195   8.232   4.040   9.081  1.1450 -0.7630  0.1942
  335MOL0     H45196   8.149   3.976   8.930  2.1849  0.1660 -1.7264
  335MOL0     H45197   8.440   3.929   9.023  1.9984 -0.2786 -1.7722
  335MOL0     H45198   8.365   3.835   8.889 -1.9564  0.1074 -0.2995
  335MOL0     H45199   8.376   4.141   8.889  4.0716  1.4361 -1.9168
  335MOL0     H45200   8.361   4.023   8.747 -0.3605 -0.0691 -0.1695
  335MOL0     H45201   8.597   4.100   8.925 -1.9579 -0.5313  1.2691
  335MOL0     H45202   8.584   3.961   8.807 -2.6089 -0.8907  0.2607
  335MOL0     H45203   8.549   4.269   8.759  2.5087  0.8741 -1.4949
  335MOL0     H45204   8.519   4.133   8.635  0.0245 -1.2817  0.4718
  335MOL0     H45205   8.775   4.181   8.770 -2.0834 -0.3106  1.1182
  335MOL0     H45206   8.745   4.248   8.608  1.0083  3.5904  4.0330
  335MOL0     H45207   7.777   3.911   9.152 -5.8208  1.0978  1.1552
  335MOL0     H45208   7.598   4.032   9.211  0.8644 -2.1341 -1.3638
  335MOL0     H45209   7.516   4.603   9.275 -2.9423 -0.1343 -1.6792
  335MOL0     H45210   7.355   4.746   9.347  0.0596 -3.8070 -6.1692
  335MOL0     H45211   7.292   4.637  10.348 -2.9726 -0.3999 -1.6200
  335MOL0     H45212   7.412   4.490  10.507  1.2502 -3.3883 -3.2524
  335MOL0     H45213   7.369   4.182  10.853  0.2927 -0.2513 -0.4894
  335MOL0     H45214   7.468   4.026  10.995  0.4973  0.2526 -0.4472
  335MOL0     H45215   7.389   3.817  11.156  1.4001  0.5071 -0.3171
  335MOL0     H45216   7.257   3.742  11.053  0.2152 -3.4120 -0.3125
  335MOL0     H45217   7.334   3.603  11.239  2.1954  0.8258  2.2745
  335MOL0     H45218   7.503   3.591  11.166  0.2566  0.8810 -1.6696
  335MOL0     H45219   7.412   3.411  11.083  0.9967  0.1472 -0.9138
  335MOL0     H45220   7.369   3.529  10.948  1.7496  4.0006  0.6874
  335MOL0     H45221   7.164   3.415  10.979  0.1485  2.6440 -0.9366
  335MOL0     H45222   7.144   3.548  11.089 -0.7523  0.3049 -0.7228
  335MOL0     H45223   7.132   3.266  11.394  1.0589 -0.2521 -0.8039
  335MOL0     H45224   7.399   3.718  10.714 -0.2234  0.2171  1.3744
  335MOL0     H45225   7.266   3.880  10.562 -2.9523  1.5963  0.9664
  336MOL0     O45226   6.861   0.549   9.846  0.4577 -0.5761 -0.3792
  336MOL0     C45227   6.809   0.502   9.950 -0.8413  0.1414  0.5666
  336MOL0     O45228   6.680   0.483   9.985  0.7504  0.2668  0.0279
  336MOL0     C45229   6.572   0.525   9.898 -0.0259 -1.0588 -0.1832
  336MOL0     C45230   6.570   0.482   9.769 -0.4987  1.0630 -0.0507
  336MOL0     C45231   6.453   0.511   9.694  0.1323  0.0451 -0.3143
  336MOL0     C45232   6.351   0.591   9.754  0.2409 -0.8720 -0.2974
  336MOL0     O45233   6.238   0.632   9.693 -0.1316  0.5052  0.0690
  336MOL0     C45234   6.256   0.734   9.594  1.0009 -0.8560  0.8911
  336MOL0     C45235   6.148   0.706   9.487 -0.0444  0.3674  0.1339
  336MOL0     C45236   6.081   0.836   9.435 -0.3472  0.7139  0.6584
  336MOL0     C45237   6.042   0.812   9.291 -0.6616  0.3404  0.4537
  336MOL0     C45238   5.996   0.951   9.240 -0.5284 -0.2213  1.0922
  336MOL0     C45239   5.967   0.963   9.093  0.7001  0.1778  0.3006
  336MOL0     C45240   5.854   1.074   9.077 -0.1893  0.3995  0.4191
  336MOL0     C45241   5.836   1.139   8.944  0.7066  0.2987  0.7080
  336MOL0     N45242   5.702   1.202   8.934  0.2390  0.1647  0.8434
  336MOL0     C45243   5.576   1.136   8.962 -0.3147  0.5695  0.8322
  336MOL0     C45244   5.493   1.226   8.989 -0.1146 -0.3799 -0.8241
  336MOL0     C45245   5.350   1.202   9.034  0.3957 -0.3380  0.5660
  336MOL0     C45246   5.309   1.065   9.110  0.4105 -0.0005 -0.4544
  336MOL0     C45247   5.166   1.051   9.183 -0.5885  0.8944 -0.3511
  336MOL0     C45248   5.166   0.916   9.246  0.5602 -0.1362  0.1729
  336MOL0     O45249   5.268   0.905   9.349 -0.4218  0.7124  0.0522
  336MOL0     C45250   5.338   0.782   9.371 -0.1070 -0.4753  0.3043
  336MOL0     C45251   5.315   0.655   9.307 -0.6912 -0.3820  0.2682
  336MOL0     C45252   5.399   0.542   9.329 -0.4815  0.1545  0.8138
  336MOL0     C45253   5.367   0.424   9.255  0.2623  1.0313  0.0731
  336MOL0     C45254   5.505   0.559   9.420  0.9575  0.5626  0.2579
  336MOL0     C45255   5.598   0.443   9.460  0.0301  0.9259 -1.0433
  336MOL0     O45256   5.709   0.471   9.536  0.0266 -0.3172  0.1898
  336MOL0     C45257   5.824   0.397   9.554  0.5362 -0.3758  0.1147
  336MOL0     C45258   5.910   0.425   9.649  0.2881 -0.0987  0.0231
  336MOL0     C45259   6.034   0.364   9.656 -1.8441 -0.6109 -0.0708
  336MOL0     C45260   6.071   0.265   9.568  0.3979  0.7208 -0.6171
  336MOL0     O45261   6.195   0.207   9.579 -1.0208 -0.2380 -0.3928
  336MOL0     C45262   6.225   0.080   9.515  0.0128 -0.1486 -0.7652
  336MOL0     C45263   6.347   0.009   9.576 -0.1294 -0.4470  1.1588
  336MOL0     C45264   6.481   0.090   9.555  0.0429 -0.4359 -0.0595
  336MOL0     C45265   6.600   0.050   9.636 -0.9749  0.0142 -0.1353
  336MOL0     C45266   6.714   0.154   9.609 -0.0925  0.3073 -0.2808
  336MOL0     C45267   6.836   0.152   9.697  0.5590  1.0898 -0.0306
  336MOL0     C45268   6.891   0.018   9.746 -1.5186 -0.7227  0.4960
  336MOL0     C45269   6.983  -0.050   9.633 -0.8760 -0.7200 -0.1150
  336MOL0    Cl45270   7.076  -0.185   9.699 -0.1254 -0.1646  0.1714
  336MOL0     C45271   5.970   0.221   9.472  1.6167  0.5778 -0.3575
  336MOL0     C45272   5.855   0.300   9.458  0.1557  0.0791 -0.5484
  336MOL0     O45273   5.569   0.331   9.421 -0.0188  0.6394  0.8520
  336MOL0     C45274   5.525   0.676   9.487 -0.1308  0.7282 -0.2124
  336MOL0     C45275   5.447   0.787   9.455  0.6736  0.2237 -0.4175
  336MOL0     N45276   5.547   1.343   8.972 -0.1035  0.5758 -0.1444
  336MOL0     N45277   5.671   1.333   8.936 -0.2819 -0.7620 -0.7353
  336MOL0     C45278   6.358   0.639   9.878  0.0088 -0.7532 -0.3904
  336MOL0     C45279   6.470   0.606   9.946 -0.8622 -0.9383 -0.4997
  336MOL0     C45280   6.904   0.465  10.054 -0.2980  0.7719 -0.9946
  336MOL0     C45281   6.860   0.416  10.181 -0.2307  0.1518  0.2210
  336MOL0     C45282   6.958   0.392  10.281 -0.5425  0.8713  0.1414
  336MOL0     C45283   7.098   0.418  10.263 -0.2247  0.3783  0.6896
  336MOL0     O45284   7.192   0.405  10.371  0.1560  0.0944  0.7108
  336MOL0     C45285   7.329   0.449  10.363  0.0642  0.2553 -0.8674
  336MOL0     C45286   7.318   0.602  10.407 -0.1606  0.8034 -0.1719
  336MOL0     C45287   7.301   0.611  10.561  0.9015 -0.5688 -0.7441
  336MOL0     C45288   7.309   0.770  10.592  0.3853 -0.6593  0.8862
  336MOL0     C45289   7.445   0.819  10.612 -0.3340  0.0063  0.0595
  336MOL0     C45290   7.567   0.844  10.638 -0.0759 -0.0726  0.0106
  336MOL0     C45291   7.136   0.466  10.143 -0.0956  1.0479  0.7761
  336MOL0     C45292   7.047   0.475  10.041 -0.0070 -1.1445 -0.5137
  336MOL0     H45293   6.636   0.401   9.740 -1.9893 -0.8052  1.5246
  336MOL0     H45294   6.434   0.469   9.596 -3.1729  0.8406 -0.1450
  336MOL0     H45295   6.232   0.836   9.626 -1.0144  0.6608 -4.3532
  336MOL0     H45296   6.356   0.715   9.555  0.3978 -0.6659 -0.8498
  336MOL0     H45297   6.195   0.660   9.399 -1.4522 -0.3205 -0.2966
  336MOL0     H45298   6.068   0.639   9.520  1.0027 -1.4472 -0.8283
  336MOL0     H45299   5.991   0.855   9.493 -1.0742 -0.8935  0.1254
  336MOL0     H45300   6.151   0.920   9.434  0.7338 -0.1485 -0.8178
  336MOL0     H45301   6.128   0.782   9.231  0.7207  0.4388  2.3124
  336MOL0     H45302   5.963   0.736   9.283  0.1410 -0.4998  0.4087
  336MOL0     H45303   5.914   0.983   9.305 -0.5723  0.8197  0.5333
  336MOL0     H45304   6.071   1.028   9.258 -0.0970  0.0500 -1.5505
  336MOL0     H45305   6.060   0.982   9.038 -0.3534 -1.4713 -2.2472
  336MOL0     H45306   5.927   0.867   9.058 -1.1126  0.0036  2.5726
  336MOL0     H45307   5.762   1.030   9.117  1.3491 -1.7109  1.8438
  336MOL0     H45308   5.888   1.155   9.142  2.3403  0.8880 -1.3753
  336MOL0     H45309   5.853   1.060   8.870  4.1452 -0.0696  1.7126
  336MOL0     H45310   5.914   1.209   8.912  0.1199  0.5090 -0.2877
  336MOL0     H45311   5.555   1.029   8.956  3.1309 -0.1324 -1.4735
  336MOL0     H45312   5.325   1.289   9.095 -2.0290 -0.9773  0.5631
  336MOL0     H45313   5.295   1.211   8.939  1.1390  2.9993  0.3357
  336MOL0     H45314   5.394   1.056   9.178  0.9201 -2.8500 -1.3209
  336MOL0     H45315   5.323   0.984   9.038  1.5168 -0.7442  0.5679
  336MOL0     H45316   5.079   1.057   9.117  0.6695  1.4476 -2.0285
  336MOL0     H45317   5.146   1.122   9.264  3.4055  2.0651 -0.2186
  336MOL0     H45318   5.165   0.841   9.166  0.3325 -1.4989  1.4014
  336MOL0     H45319   5.067   0.886   9.282 -0.3509  0.3452 -1.7802
  336MOL0     H45320   5.228   0.636   9.246 -1.3254 -1.0757  1.3505
  336MOL0     H45321   5.283   0.441   9.187  0.0523 -3.4073 -1.1405
  336MOL0     H45322   5.455   0.397   9.195 -0.8133  1.7608 -1.9392
  336MOL0     H45323   5.327   0.348   9.323 -2.7363  1.2213 -1.3418
  336MOL0     H45324   5.901   0.495   9.732 -0.0735 -0.3011  0.1573
  336MOL0     H45325   6.097   0.394   9.739 -3.6993  3.1410  0.2196
  336MOL0     H45326   6.140   0.012   9.510  0.3365 -0.7099  0.9317
  336MOL0     H45327   6.236   0.114   9.411 -1.7192 -2.8925 -1.9467
  336MOL0     H45328   6.335  -0.011   9.683  3.1434 -0.1725  1.6991
  336MOL0     H45329   6.351  -0.092   9.532 -5.9339 -1.7370  2.7478
  336MOL0     H45330   6.463   0.183   9.609  0.8683 -0.3561  0.0879
  336MOL0     H45331   6.505   0.112   9.451  0.1548 -1.9246 -0.3764
  336MOL0     H45332   6.589   0.064   9.743  1.8868 -2.9727  0.7479
  336MOL0     H45333   6.628  -0.056   9.630 -0.4917 -0.1263  2.9401
  336MOL0     H45334   6.665   0.252   9.618  2.0462  1.2495  2.6517
  336MOL0     H45335   6.754   0.133   9.510 -2.1299  2.6851 -1.7097
  336MOL0     H45336   6.917   0.209   9.650  1.5770 -0.0284  0.3003
  336MOL0     H45337   6.807   0.206   9.788 -1.9272 -3.0841  1.9663
  336MOL0     H45338   6.806  -0.042   9.779 -0.5040 -2.0201  0.8371
  336MOL0     H45339   6.944   0.031   9.841 -0.6772 -0.8680  0.0583
  336MOL0     H45340   7.053   0.029   9.605 -0.7026 -1.8951 -3.4775
  336MOL0     H45341   6.925  -0.070   9.542 -0.6933  2.9387 -1.2342
  336MOL0     H45342   5.990   0.145   9.398 -1.1737  0.6110 -1.2400
  336MOL0     H45343   5.795   0.298   9.368 -2.9593  1.3218  1.3505
  336MOL0     H45344   5.599   0.690   9.565  3.1867  2.1443 -3.3146
  336MOL0     H45345   5.464   0.877   9.513 -1.1623  0.1111  0.3764
  336MOL0     H45346   6.276   0.699   9.914  0.5705  0.3824 -0.9525
  336MOL0     H45347   6.490   0.655  10.041  0.4295 -2.0435 -0.1642
  336MOL0     H45348   6.755   0.393  10.196 -0.1972  0.9183  1.7911
  336MOL0     H45349   6.933   0.374  10.385 -1.9496  0.1280 -0.2926
  336MOL0     H45350   7.393   0.383  10.422 -2.4976 -0.7104  1.0261
  336MOL0     H45351   7.379   0.443  10.266  0.3007  2.1575 -0.8950
  336MOL0     H45352   7.241   0.650  10.347 -0.3860  0.4333 -0.1768
  336MOL0     H45353   7.418   0.646  10.395  0.6463 -1.5021 -2.8387
  336MOL0     H45354   7.370   0.554  10.624  1.6354  4.2288  3.4525
  336MOL0     H45355   7.196   0.583  10.574  0.5756  0.5956 -0.7310
  336MOL0     H45356   7.251   0.799  10.681 -0.7143  2.7652 -0.7902
  336MOL0     H45357   7.256   0.818  10.510  2.1840 -1.2704 -0.7195
  336MOL0     H45358   7.670   0.866  10.656  0.0863 -1.9119  1.6272
  336MOL0     H45359   7.239   0.494  10.124 -0.3464  0.9370 -0.9047
  336MOL0     H45360   7.094   0.506   9.948  1.0795 -0.2668  0.2939
  337MOL0     O45361  10.580   7.103   4.483  0.5052  0.2297 -0.0297
  337MOL0     C45362  10.550   7.018   4.561 -0.4863  0.5899  0.4933
  337MOL0     O45363  10.611   6.898   4.579  0.7287  0.9715  0.2162
  337MOL0     C45364  10.701   6.862   4.485  1.0256  0.4769  0.7458
  337MOL0     C45365  10.673   6.831   4.351  1.1169 -0.0399  0.6046
  337MOL0     C45366  10.774   6.779   4.272 -0.9862 -0.3889  0.3384
  337MOL0     C45367  10.911   6.772   4.309  0.5614  0.2369 -0.4147
  337MOL0     O45368  11.008   6.728   4.225  0.1294 -0.2139  0.3426
  337MOL0     C45369  11.109   6.827   4.193  0.6139 -0.1458  0.6158
  337MOL0     C45370  11.226   6.761   4.116  0.1482 -0.0399  0.8771
  337MOL0     C45371  11.321   6.678   4.210  0.3604  0.2106 -0.6735
  337MOL0     C45372  11.462   6.651   4.141  0.5077 -0.2695  0.6108
  337MOL0     C45373  11.544   6.565   4.231  0.0889 -0.2579  0.5980
  337MOL0     C45374  11.679   6.523   4.158 -0.3884  0.0833  1.0268
  337MOL0     C45375  11.770   6.405   4.210 -0.4443  0.4345 -1.6225
  337MOL0     C45376  11.910   6.401   4.141  0.0875  0.2167 -0.0666
  337MOL0     N45377  12.005   6.303   4.202  0.6727  0.3784  0.1938
  337MOL0     C45378  11.979   6.178   4.252 -0.1983  1.0451  0.4724
  337MOL0     C45379  12.095   6.141   4.309 -1.2641 -1.1044  0.0777
  337MOL0     C45380  12.119   6.016   4.387  0.4029  0.9814  0.0695
  337MOL0     C45381  12.074   6.031   4.534  0.8360  0.4844 -0.3938
  337MOL0     C45382  11.923   6.027   4.562 -0.7757 -0.3048  1.3044
  337MOL0     C45383  11.884   6.038   4.706  0.2524  0.0602  1.1760
  337MOL0     O45384  11.946   6.166   4.747 -0.4843  0.3349 -0.3565
  337MOL0     C45385  11.930   6.218   4.873  0.9723 -0.7364 -0.2494
  337MOL0     C45386  12.000   6.333   4.925 -0.7433 -0.0238 -0.0878
  337MOL0     C45387  11.982   6.379   5.064 -0.9565  0.9455  0.1923
  337MOL0     C45388  12.041   6.511   5.116  0.2120 -0.6250 -1.0240
  337MOL0     C45389  11.916   6.288   5.156 -0.7634  0.0362  0.2187
  337MOL0     C45390  11.884   6.321   5.302 -0.5295 -0.5078  1.2264
  337MOL0     O45391  11.795   6.238   5.375 -0.3320 -0.0246 -0.3278
  337MOL0     C45392  11.730   6.284   5.495 -0.3478 -0.4365  0.0359
  337MOL0     C45393  11.725   6.414   5.538  0.0339 -0.9515 -0.0482
  337MOL0     C45394  11.673   6.443   5.666 -1.6450 -0.6279 -0.1440
  337MOL0     C45395  11.608   6.346   5.746 -0.5266 -0.8254  1.1213
  337MOL0     O45396  11.523   6.360   5.858 -0.2237 -1.1124 -1.7412
  337MOL0     C45397  11.466   6.482   5.897  0.3048  0.1040 -0.3087
  337MOL0     C45398  11.364   6.468   6.014  0.6469  0.2422 -0.0651
  337MOL0     C45399  11.349   6.583   6.114 -0.0809 -0.2561  0.0056
  337MOL0     C45400  11.262   6.531   6.235  0.4764  0.3241 -0.6348
  337MOL0     C45401  11.290   6.599   6.366  0.0746 -0.1981 -0.8674
  337MOL0     C45402  11.199   6.718   6.398  0.5778 -0.1127 -0.0870
  337MOL0     C45403  11.236   6.777   6.527 -0.1905  0.4714  0.7847
  337MOL0     C45404  11.182   6.690   6.638 -0.2326  0.9007 -0.3632
  337MOL0    Cl45405  11.203   6.772   6.800  0.7335 -0.4539 -0.5558
  337MOL0     C45406  11.619   6.211   5.706  0.0200  0.2669 -0.0357
  337MOL0     C45407  11.669   6.184   5.577 -0.1400 -0.2329  0.0527
  337MOL0     O45408  11.953   6.407   5.353 -0.3578 -0.1185  0.7399
  337MOL0     C45409  11.857   6.173   5.102  0.8816 -0.0131  0.0440
  337MOL0     C45410  11.848   6.151   4.970 -0.5860  0.1186  0.3165
  337MOL0     N45411  12.199   6.235   4.273 -0.4122 -0.2499  0.0471
  337MOL0     N45412  12.136   6.331   4.211  0.0773  0.1278  0.4190
  337MOL0     C45413  10.936   6.805   4.442 -0.0465  0.8576  1.1407
  337MOL0     C45414  10.833   6.841   4.531  1.5516  0.4807 -0.3569
  337MOL0     C45415  10.439   7.055   4.650 -0.7435 -1.0510  0.2105
  337MOL0     C45416  10.384   6.959   4.731 -0.8143 -0.0856 -0.0009
  337MOL0     C45417  10.269   6.990   4.807  0.2310  0.9844 -0.2219
  337MOL0     C45418  10.213   7.119   4.795 -0.2755 -0.5901  0.1569
  337MOL0     O45419  10.096   7.152   4.875  0.3558 -0.0571  0.0319
  337MOL0     C45420  10.053   7.283   4.905 -0.2711  0.2470 -0.2572
  337MOL0     C45421  10.149   7.350   5.002  0.1381  0.0130  0.1243
  337MOL0     C45422  10.136   7.309   5.158  0.2887 -0.2975  0.7360
  337MOL0     C45423  10.205   7.417   5.243 -0.2311 -0.1509  0.0279
  337MOL0     C45424  10.208   7.375   5.375 -1.0533  0.5943 -0.8592
  337MOL0     C45425  10.214   7.363   5.497  0.7995  0.6814 -0.3514
  337MOL0     C45426  10.270   7.220   4.715  0.2286  1.4332 -0.0910
  337MOL0     C45427  10.381   7.186   4.642  0.1509  0.4432 -0.2759
  337MOL0     H45428  10.575   6.834   4.305 -0.4190 -0.8444  3.6177
  337MOL0     H45429  10.744   6.734   4.178  2.6070 -4.1231  0.6903
  337MOL0     H45430  11.068   6.909   4.134 -0.1513  0.2468  1.6548
  337MOL0     H45431  11.146   6.882   4.280  0.9439  0.3982  0.1417
  337MOL0     H45432  11.192   6.695   4.036  1.7333 -0.4338  0.4787
  337MOL0     H45433  11.285   6.838   4.065 -0.8157  2.1047  2.8305
  337MOL0     H45434  11.328   6.729   4.306  3.2962 -3.4235  1.3197
  337MOL0     H45435  11.284   6.578   4.235  1.3285 -0.3730 -1.4921
  337MOL0     H45436  11.459   6.613   4.039  1.8599  0.9635  0.0581
  337MOL0     H45437  11.509   6.750   4.135 -1.0301  0.4753  0.5419
  337MOL0     H45438  11.567   6.613   4.326  3.7470 -1.8382  0.6958
  337MOL0     H45439  11.493   6.470   4.249  3.1523 -1.9010  1.3663
  337MOL0     H45440  11.652   6.496   4.055 -3.3551  0.7204  1.5153
  337MOL0     H45441  11.721   6.624   4.156 -1.6175  0.6092  0.7322
  337MOL0     H45442  11.797   6.414   4.316 -0.7830 -4.3978 -0.9035
  337MOL0     H45443  11.715   6.311   4.198  1.5509 -0.8071 -1.3363
  337MOL0     H45444  11.958   6.499   4.149  0.6767 -0.1795  1.7158
  337MOL0     H45445  11.903   6.375   4.035  2.3249  3.2869 -1.1147
  337MOL0     H45446  11.886   6.123   4.252  0.8825 -0.8751 -0.4543
  337MOL0     H45447  12.060   5.930   4.354  1.0763 -0.2227  1.8507
  337MOL0     H45448  12.222   5.978   4.378  0.0921  0.5273 -2.3066
  337MOL0     H45449  12.107   6.133   4.555 -0.6716  1.7141 -3.4277
  337MOL0     H45450  12.134   5.959   4.591 -0.7515 -0.9140 -0.4063
  337MOL0     H45451  11.888   5.932   4.521  0.5198 -0.2474 -0.0123
  337MOL0     H45452  11.878   6.110   4.506  0.5958  0.8488  1.8567
  337MOL0     H45453  11.933   5.951   4.752  0.3356 -0.3896  0.2620
  337MOL0     H45454  11.775   6.043   4.718 -0.0365 -0.5111 -0.8161
  337MOL0     H45455  12.051   6.399   4.855  0.1369 -1.8251 -1.2296
  337MOL0     H45456  12.102   6.552   5.035  1.9086 -1.4252 -0.2104
  337MOL0     H45457  11.957   6.579   5.132  1.8083  1.3057 -0.3542
  337MOL0     H45458  12.109   6.486   5.198 -1.4818 -5.5310 -0.8145
  337MOL0     H45459  11.765   6.490   5.472  0.0902 -1.8053 -1.0279
  337MOL0     H45460  11.671   6.548   5.695  2.4985 -0.9757  2.1965
  337MOL0     H45461  11.547   6.548   5.930  1.6555 -0.9845 -1.3881
  337MOL0     H45462  11.413   6.533   5.816  0.2259 -1.1329 -1.0446
  337MOL0     H45463  11.264   6.466   5.970  0.3362 -0.7772  0.6372
  337MOL0     H45464  11.386   6.375   6.069  1.2004  0.3831 -0.0392
  337MOL0     H45465  11.314   6.665   6.051  0.3185 -1.3836 -1.7722
  337MOL0     H45466  11.445   6.614   6.154 -1.0545  0.8358  1.6100
  337MOL0     H45467  11.156   6.546   6.214  0.3362  1.9126  0.9356
  337MOL0     H45468  11.281   6.424   6.237  2.2777  0.6135  1.4395
  337MOL0     H45469  11.396   6.625   6.373  0.4254 -1.0128 -2.6131
  337MOL0     H45470  11.263   6.517   6.433 -3.7600  1.3755 -0.1737
  337MOL0     H45471  11.206   6.801   6.327 -0.8113  1.0435  1.0624
  337MOL0     H45472  11.099   6.674   6.398  0.3923  0.2109 -1.9977
  337MOL0     H45473  11.180   6.870   6.545  1.2869  1.2497  1.6270
  337MOL0     H45474  11.344   6.794   6.531  0.0039  1.4462 -3.6593
  337MOL0     H45475  11.228   6.591   6.625 -3.1880 -0.9155  1.7654
  337MOL0     H45476  11.077   6.672   6.613  0.2942  0.5006 -2.4411
  337MOL0     H45477  11.577   6.146   5.783 -0.7747  3.2244  2.2183
  337MOL0     H45478  11.658   6.079   5.554 -2.3929 -0.5257  1.9659
  337MOL0     H45479  11.803   6.104   5.167  1.0131  0.5092  0.7232
  337MOL0     H45480  11.792   6.062   4.946 -2.7683  1.3506  0.6031
  337MOL0     H45481  11.039   6.797   4.476  0.2758 -0.0323  0.0212
  337MOL0     H45482  10.853   6.868   4.634 -2.1333 -0.0437  0.6636
  337MOL0     H45483  10.433   6.863   4.736  1.0885  0.5883 -2.9155
  337MOL0     H45484  10.222   6.910   4.863 -1.1095  1.3049 -0.8365
  337MOL0     H45485  10.064   7.352   4.820  1.0702 -0.7743 -0.9520
  337MOL0     H45486   9.946   7.281   4.923 -0.6489  0.1382 -2.2480
  337MOL0     H45487  10.111   7.453   5.003  0.9165  0.3052 -0.0818
  337MOL0     H45488  10.255   7.343   4.978  0.5843 -3.8820  2.4585
  337MOL0     H45489  10.174   7.208   5.177 -1.3124 -0.5793  2.8438
  337MOL0     H45490  10.030   7.313   5.183 -0.3433 -0.0230 -1.7379
  337MOL0     H45491  10.169   7.516   5.215 -2.6213 -1.3689 -1.5027
  337MOL0     H45492  10.312   7.409   5.220 -0.3744 -1.4169 -0.2174
  337MOL0     H45493  10.211   7.364   5.604 -1.9951 -0.4005 -0.3458
  337MOL0     H45494  10.226   7.319   4.707 -3.4478  0.1785  2.0271
  337MOL0     H45495  10.426   7.252   4.568  1.2364 -0.2227 -0.2367
  338MOL0     O45496   8.319   0.176   9.204  0.9717 -0.8454  0.4047
  338MOL0     C45497   8.287   0.066   9.162  0.1262 -0.5320  0.3789
  338MOL0     O45498   8.301  -0.047   9.242 -0.3029  0.2918  0.1937
  338MOL0     C45499   8.352  -0.041   9.368 -0.6931  0.2578 -0.2914
  338MOL0     C45500   8.491  -0.054   9.385  0.8051  0.5098 -0.0122
  338MOL0     C45501   8.552  -0.052   9.511  0.3835  0.3980 -0.0370
  338MOL0     C45502   8.477  -0.036   9.631  0.1894  0.9041  0.2551
  338MOL0     O45503   8.542  -0.031   9.748  0.5084  0.5909  0.5703
  338MOL0     C45504   8.470   0.014   9.871  0.3572  0.2352  0.5360
  338MOL0     C45505   8.558   0.038   9.991  0.4018 -0.1769 -0.4396
  338MOL0     C45506   8.618  -0.086  10.060 -0.6189 -0.6452  0.5919
  338MOL0     C45507   8.748  -0.121   9.985 -0.4998 -0.3411 -0.3246
  338MOL0     C45508   8.798  -0.254  10.026 -0.4912 -0.2279  1.2356
  338MOL0     C45509   8.738  -0.362   9.940 -0.0187 -0.3132 -0.0194
  338MOL0     C45510   8.768  -0.496  10.001 -0.0701  0.2714  0.0571
  338MOL0     C45511   8.725  -0.596   9.901 -0.0691  0.5520  1.1949
  338MOL0     N45512   8.726  -0.730   9.950 -0.8236 -0.7926 -1.0860
  338MOL0     C45513   8.833  -0.815   9.966 -0.4484  0.3022  0.4737
  338MOL0     C45514   8.777  -0.934  10.009  0.6824  0.2959  0.7878
  338MOL0     C45515   8.835  -1.078  10.013  0.3525  0.0980  0.3408
  338MOL0     C45516   8.814  -1.155   9.878  1.5614  0.3220 -0.4436
  338MOL0     C45517   8.866  -1.296   9.887 -0.1530  0.4792 -0.6053
  338MOL0     C45518   8.794  -1.392   9.974 -0.4166  0.4493  0.1006
  338MOL0     O45519   8.850  -1.528   9.959 -0.4459  0.2920  0.8029
  338MOL0     C45520   8.766  -1.634   9.953  0.3615  0.1257 -0.8262
  338MOL0     C45521   8.624  -1.628   9.971  0.5529 -0.2563  0.5734
  338MOL0     C45522   8.546  -1.746   9.976  0.6096 -0.0790 -0.0018
  338MOL0     C45523   8.396  -1.735   9.974 -0.0542 -0.2318  0.3137
  338MOL0     C45524   8.603  -1.879   9.967 -0.2651  0.4763 -0.1311
  338MOL0     C45525   8.533  -2.011   9.951 -0.3818  0.0148 -0.1600
  338MOL0     O45526   8.616  -2.118   9.917  0.6939 -0.7900 -0.5429
  338MOL0     C45527   8.585  -2.190   9.793 -0.7018 -0.4891 -1.0162
  338MOL0     C45528   8.464  -2.171   9.715 -0.2688  0.4509  0.2933
  338MOL0     C45529   8.444  -2.251   9.602 -0.8177 -0.2386  0.7231
  338MOL0     C45530   8.524  -2.358   9.570 -0.5984  0.3250 -0.4221
  338MOL0     O45531   8.506  -2.449   9.469  0.4610 -0.5401 -0.4876
  338MOL0     C45532   8.461  -2.400   9.348  0.0439 -0.2141  0.0764
  338MOL0     C45533   8.406  -2.524   9.269 -0.0766 -0.3678 -0.0473
  338MOL0     C45534   8.268  -2.555   9.336 -0.3987 -0.7212 -0.2320
  338MOL0     C45535   8.177  -2.643   9.247 -0.3929 -0.0613  0.0107
  338MOL0     C45536   8.158  -2.576   9.105  0.4838 -0.9220 -0.1338
  338MOL0     C45537   8.053  -2.645   9.013 -0.3591  0.0238  0.2123
  338MOL0     C45538   8.015  -2.555   8.897 -1.1056  0.0985 -0.1806
  338MOL0     C45539   7.952  -2.604   8.763  0.0739  0.3081 -0.1508
  338MOL0    Cl45540   7.875  -2.760   8.792  0.1113  0.2001 -0.2795
  338MOL0     C45541   8.646  -2.376   9.647 -0.6236 -0.1406  0.5846
  338MOL0     C45542   8.678  -2.285   9.754 -0.1918 -0.2672 -0.1533
  338MOL0     O45543   8.411  -2.027   9.970 -0.0998 -0.3835 -0.2700
  338MOL0     C45544   8.747  -1.882   9.965  0.3415 -0.3877  0.3119
  338MOL0     C45545   8.819  -1.758   9.966 -0.4145 -0.0769 -0.3754
  338MOL0     N45546   8.635  -0.918  10.030 -0.4125 -0.6861 -0.4800
  338MOL0     N45547   8.612  -0.789   9.998 -0.1049  0.3508  0.2130
  338MOL0     C45548   8.335  -0.043   9.621 -1.3525  0.2330 -0.1856
  338MOL0     C45549   8.283  -0.038   9.487  0.4708 -1.1857 -0.1039
  338MOL0     C45550   8.226   0.050   9.031 -0.7405 -0.3012 -0.2633
  338MOL0     C45551   8.199   0.156   8.945  1.0354  0.7929 -1.3862
  338MOL0     C45552   8.145   0.140   8.814 -0.5881 -0.6955 -0.1998
  338MOL0     C45553   8.118   0.015   8.768 -0.7002  0.4254 -0.3165
  338MOL0     O45554   8.057  -0.031   8.650 -0.0052 -0.6693  0.7778
  338MOL0     C45555   7.943   0.030   8.584 -0.7616 -1.1513 -0.4861
  338MOL0     C45556   7.869  -0.072   8.492 -0.2412  0.3340  0.7293
  338MOL0     C45557   7.944  -0.084   8.358  0.0195  0.9944  0.0619
  338MOL0     C45558   7.858  -0.111   8.230 -0.7255 -0.4833 -0.6720
  338MOL0     C45559   7.768  -0.007   8.185  0.2304  0.2706 -0.6784
  338MOL0     C45560   7.688   0.074   8.139 -0.7425  0.0400  0.7773
  338MOL0     C45561   8.144  -0.096   8.847 -0.4792 -0.1213  0.0225
  338MOL0     C45562   8.198  -0.073   8.978 -0.2119  0.0652  1.2483
  338MOL0     H45563   8.560  -0.064   9.303  2.1019  0.2567  1.0757
  338MOL0     H45564   8.659  -0.068   9.505  0.3118  0.5627 -2.3427
  338MOL0     H45565   8.415   0.108   9.854 -0.1449 -0.1406  0.0352
  338MOL0     H45566   8.394  -0.061   9.896  0.6025  0.0188  0.6346
  338MOL0     H45567   8.630   0.113   9.957 -1.6191  0.1743 -4.5885
  338MOL0     H45568   8.494   0.086  10.065 -0.3981 -1.3362 -0.3410
  338MOL0     H45569   8.638  -0.059  10.164 -2.8283 -0.9024  1.1228
  338MOL0     H45570   8.550  -0.169  10.042 -1.7114  1.1334 -6.2803
  338MOL0     H45571   8.734  -0.123   9.877  1.2425  1.8573 -0.6693
  338MOL0     H45572   8.825  -0.051  10.018 -0.8342 -0.4413  0.7154
  338MOL0     H45573   8.907  -0.253  10.010 -0.9338 -1.0541 -2.8272
  338MOL0     H45574   8.773  -0.273  10.131  0.2223 -0.3570  1.3935
  338MOL0     H45575   8.631  -0.349   9.923 -0.3963 -0.1660  2.2092
  338MOL0     H45576   8.790  -0.361   9.844 -1.4132  0.0286 -0.7992
  338MOL0     H45577   8.876  -0.501  10.018 -0.0741  1.3791  0.5524
  338MOL0     H45578   8.706  -0.505  10.091 -1.1811  0.6662 -0.6417
  338MOL0     H45579   8.785  -0.604   9.809 -1.9101 -5.1156  0.1356
  338MOL0     H45580   8.623  -0.582   9.863 -0.6537 -0.3358  2.3966
  338MOL0     H45581   8.927  -0.782   9.923 -1.1412  0.0910 -1.2724
  338MOL0     H45582   8.943  -1.083  10.032  0.5371  0.5542 -0.5106
  338MOL0     H45583   8.786  -1.123  10.099 -0.2685  1.5841  0.7942
  338MOL0     H45584   8.874  -1.109   9.799  0.0872 -0.1667 -1.8997
  338MOL0     H45585   8.711  -1.153   9.841  2.7828  1.1420 -4.2454
  338MOL0     H45586   8.972  -1.300   9.915 -0.9328 -1.7036  2.5909
  338MOL0     H45587   8.864  -1.328   9.782  0.6211 -2.5379  0.2287
  338MOL0     H45588   8.688  -1.376   9.952 -0.8105 -4.1968 -2.7622
  338MOL0     H45589   8.815  -1.362  10.077  0.0060 -0.2685  0.2295
  338MOL0     H45590   8.582  -1.528   9.978  0.4182 -0.2798  0.1605
  338MOL0     H45591   8.375  -1.694   9.875 -2.5247 -0.6646  0.5981
  338MOL0     H45592   8.331  -1.822   9.987  0.1716 -0.7950 -1.9871
  338MOL0     H45593   8.369  -1.662  10.051  2.2949 -0.2793  1.2686
  338MOL0     H45594   8.390  -2.093   9.735 -1.7489 -0.7615 -0.2839
  338MOL0     H45595   8.371  -2.216   9.529 -0.5120 -0.8664  0.1015
  338MOL0     H45596   8.376  -2.333   9.362  0.8791  1.1862 -1.2972
  338MOL0     H45597   8.543  -2.356   9.290 -0.3171 -0.7186 -0.8374
  338MOL0     H45598   8.417  -2.484   9.168  1.6448  4.6324  1.8159
  338MOL0     H45599   8.477  -2.607   9.278 -1.3908 -1.2898  4.5042
  338MOL0     H45600   8.212  -2.471   9.380  1.4314 -0.0797  1.0078
  338MOL0     H45601   8.301  -2.608   9.426  2.2952  1.5731  0.2779
  338MOL0     H45602   8.218  -2.744   9.241 -2.3557 -0.9859  1.2096
  338MOL0     H45603   8.088  -2.650   9.310  1.2374 -3.2328  2.2262
  338MOL0     H45604   8.251  -2.579   9.047  0.5242 -1.9110 -0.0434
  338MOL0     H45605   8.120  -2.476   9.128 -0.4577 -1.4849  0.8293
  338MOL0     H45606   8.089  -2.741   8.975  3.0684  1.8675 -1.7354
  338MOL0     H45607   7.954  -2.662   9.056 -0.1544 -0.9354  0.3338
  338MOL0     H45608   8.101  -2.497   8.862 -1.2662 -0.4122 -1.4922
  338MOL0     H45609   7.936  -2.488   8.934  0.8911  0.0929  4.8899
  338MOL0     H45610   8.018  -2.603   8.675  0.9694 -1.6737  0.4328
  338MOL0     H45611   7.870  -2.536   8.739 -0.6089 -1.1122 -2.0256
  338MOL0     H45612   8.724  -2.446   9.619  0.7084  1.3374  0.4600
  338MOL0     H45613   8.771  -2.285   9.809  0.2247  0.8993 -0.8194
  338MOL0     H45614   8.801  -1.975   9.958 -0.4096 -1.1658  3.4276
  338MOL0     H45615   8.927  -1.769   9.959 -0.1729  2.3063 -1.6576
  338MOL0     H45616   8.279  -0.044   9.714  4.1367  1.2753  3.6793
  338MOL0     H45617   8.176  -0.030   9.472  0.3309 -1.0409  0.8950
  338MOL0     H45618   8.228   0.257   8.973  0.3056  0.6395  0.0310
  338MOL0     H45619   8.125   0.223   8.748  4.2990 -0.6744 -2.0526
  338MOL0     H45620   7.878   0.085   8.654  0.8020  1.7931 -1.1992
  338MOL0     H45621   7.984   0.117   8.532  0.2978 -1.8210 -0.8055
  338MOL0     H45622   7.780  -0.013   8.466  0.1630  1.0531  0.9601
  338MOL0     H45623   7.847  -0.172   8.530 -1.4446  0.9687  1.7840
  338MOL0     H45624   8.027  -0.155   8.358 -1.9448 -1.5516 -2.8316
  338MOL0     H45625   8.000   0.010   8.350  1.5679  0.1018 -0.0304
  338MOL0     H45626   7.793  -0.195   8.255 -1.1396  0.7676  2.9001
  338MOL0     H45627   7.921  -0.153   8.151 -0.7085 -2.6929  0.4464
  338MOL0     H45628   7.620   0.140   8.088  3.0015  1.6828 -2.5980
  338MOL0     H45629   8.121  -0.197   8.817 -0.0327 -1.1834  2.9238
  338MOL0     H45630   8.213  -0.168   9.029  1.1844  0.1314  1.0121
  339MOL0     O45631   6.743   5.801  11.436  0.7769  0.9025  0.9513
  339MOL0     C45632   6.809   5.786  11.332 -0.1944 -0.2305  0.0944
  339MOL0     O45633   6.842   5.893  11.246  0.2360 -0.8201 -0.4920
  339MOL0     C45634   6.842   6.021  11.298  0.1092  0.4223 -0.9881
  339MOL0     C45635   6.942   6.064  11.389  0.2610  0.2387  0.5936
  339MOL0     C45636   6.945   6.195  11.435  0.3737 -0.3934  0.0790
  339MOL0     C45637   6.838   6.281  11.402  0.0220  0.1807 -0.0431
  339MOL0     O45638   6.817   6.408  11.449  0.2120 -0.2268  1.2079
  339MOL0     C45639   6.927   6.485  11.483  1.0101 -0.5450  0.5742
  339MOL0     C45640   6.894   6.628  11.451  0.0486  0.7322 -1.0714
  339MOL0     C45641   7.016   6.707  11.448 -0.3983  0.2207 -0.3473
  339MOL0     C45642   7.007   6.843  11.390  0.4578  0.2421 -0.3438
  339MOL0     C45643   7.140   6.919  11.390  0.0505 -0.5071  0.0183
  339MOL0     C45644   7.120   7.064  11.359 -0.6161 -0.7468  0.4235
  339MOL0     C45645   7.249   7.145  11.401 -0.6669 -0.2578 -0.2190
  339MOL0     C45646   7.223   7.294  11.380 -0.2969 -0.4765  0.4220
  339MOL0     N45647   7.343   7.366  11.418  0.4931  0.1002 -1.5504
  339MOL0     C45648   7.345   7.450  11.530 -0.3764 -0.0573  0.2202
  339MOL0     C45649   7.475   7.462  11.559 -1.0719  0.6500  0.1364
  339MOL0     C45650   7.523   7.557  11.664  0.5137 -0.4141  0.5889
  339MOL0     C45651   7.628   7.651  11.602  0.3098  0.2924 -0.0889
  339MOL0     C45652   7.674   7.781  11.674  0.3794  0.8723 -0.8924
  339MOL0     C45653   7.730   7.772  11.823  0.5579 -0.0953 -0.1302
  339MOL0     O45654   7.625   7.770  11.909  0.1718  0.8231 -0.7506
  339MOL0     C45655   7.649   7.772  12.044  0.1984 -0.3320 -0.8894
  339MOL0     C45656   7.538   7.789  12.127  0.3868  0.2838 -0.7634
  339MOL0     C45657   7.549   7.825  12.260  1.1392  0.9883 -0.0483
  339MOL0     C45658   7.428   7.853  12.353  0.8084 -0.4334  0.0109
  339MOL0     C45659   7.674   7.826  12.323 -0.2302  0.4299  0.1100
  339MOL0     C45660   7.712   7.863  12.464 -0.4134 -1.5584 -0.0221
  339MOL0     O45661   7.634   7.959  12.534 -0.3294  1.3366 -0.0376
  339MOL0     C45662   7.673   8.022  12.649  0.0055 -0.7479  0.4332
  339MOL0     C45663   7.747   7.961  12.752 -0.9342  0.1945  0.4040
  339MOL0     C45664   7.777   8.040  12.866 -0.1453  0.3410 -0.8280
  339MOL0     C45665   7.734   8.174  12.880  0.1288 -0.1856 -0.1997
  339MOL0     O45666   7.778   8.249  12.984  0.1002 -0.5997  0.9746
  339MOL0     C45667   7.829   8.189  13.107  0.3205 -0.6060  0.0058
  339MOL0     C45668   7.836   8.300  13.215  0.0078 -0.0253  0.6704
  339MOL0     C45669   7.892   8.247  13.347  0.5978  1.2182 -0.0611
  339MOL0     C45670   7.866   8.347  13.451  0.5575 -0.2182  0.8671
  339MOL0     C45671   7.937   8.306  13.585  0.2270 -0.0989  0.4095
  339MOL0     C45672   7.918   8.408  13.702 -0.4114  0.8376 -0.1168
  339MOL0     C45673   7.991   8.348  13.835 -0.0399 -0.0027 -0.4577
  339MOL0     C45674   7.991   8.458  13.936  0.4911  0.2529  0.5709
  339MOL0    Cl45675   8.086   8.431  14.083  0.1478  0.0857 -0.0119
  339MOL0     C45676   7.657   8.222  12.778 -0.7229  0.4515  0.5855
  339MOL0     C45677   7.640   8.152  12.655  0.2491  0.0786 -0.2067
  339MOL0     O45678   7.809   7.804  12.509  0.0103 -0.1379 -0.4406
  339MOL0     C45679   7.784   7.786  12.241 -0.3153  0.3236 -0.7136
  339MOL0     C45680   7.781   7.766  12.105 -0.3610 -0.3127  1.0004
  339MOL0     N45681   7.551   7.402  11.457 -0.4907  0.0387 -0.5514
  339MOL0     N45682   7.471   7.341  11.383 -0.1793 -0.5306  0.2852
  339MOL0     C45683   6.729   6.236  11.340 -0.0409  0.3984 -0.0045
  339MOL0     C45684   6.732   6.109  11.277  0.2599 -0.2581 -0.2016
  339MOL0     C45685   6.833   5.648  11.276  0.9702 -0.8455  0.3813
  339MOL0     C45686   6.761   5.544  11.333  0.3428 -0.0184 -0.5003
  339MOL0     C45687   6.790   5.411  11.293  0.1802 -0.0932 -0.1855
  339MOL0     C45688   6.879   5.379  11.198 -1.6542  0.6165  0.3066
  339MOL0     O45689   6.904   5.248  11.165 -0.2542  0.3758  0.0761
  339MOL0     C45690   6.985   5.205  11.058  0.0810 -0.5139  0.2173
  339MOL0     C45691   7.125   5.157  11.104 -0.7702 -0.2423 -0.1548
  339MOL0     C45692   7.123   5.060  11.234  0.8837 -0.2465 -0.1655
  339MOL0     C45693   7.200   4.930  11.221 -0.3597  0.5158 -1.2706
  339MOL0     C45694   7.195   4.852  11.340 -0.3594  0.4964  0.1501
  339MOL0     C45695   7.181   4.780  11.438  0.5865  0.2608  0.2171
  339MOL0     C45696   6.944   5.489  11.136  0.4304  0.4331  0.1830
  339MOL0     C45697   6.921   5.618  11.182 -0.0199  0.0233  0.3696
  339MOL0     H45698   7.026   5.996  11.402 -0.4791 -0.9692 -0.6628
  339MOL0     H45699   7.019   6.220  11.509  1.0832 -0.0294 -0.7351
  339MOL0     H45700   6.964   6.461  11.583  5.5909 -3.0974 -1.3998
  339MOL0     H45701   7.002   6.448  11.412 -1.3778 -0.5619 -2.1454
  339MOL0     H45702   6.845   6.621  11.354 -0.1523  0.5306 -0.9575
  339MOL0     H45703   6.824   6.668  11.525  2.3273  0.9575  1.0912
  339MOL0     H45704   7.067   6.726  11.543  1.5021 -0.0848 -1.2491
  339MOL0     H45705   7.090   6.658  11.383 -1.6718 -1.6855 -0.4387
  339MOL0     H45706   6.962   6.846  11.290  2.5357 -3.3609 -1.5388
  339MOL0     H45707   6.938   6.898  11.456  2.0255 -0.8946  2.4123
  339MOL0     H45708   7.175   6.911  11.493  2.8106  2.9246 -0.4739
  339MOL0     H45709   7.212   6.862  11.330  1.2067  0.1879  0.7234
  339MOL0     H45710   7.116   7.079  11.250 -2.4699  0.4824  0.6122
  339MOL0     H45711   7.021   7.089  11.398 -1.1606 -0.8725 -0.8286
  339MOL0     H45712   7.273   7.129  11.507  0.9325  1.7050 -0.2350
  339MOL0     H45713   7.334   7.111  11.342 -0.8741  2.0815 -1.9925
  339MOL0     H45714   7.138   7.332  11.437 -0.7202 -3.2489  1.8165
  339MOL0     H45715   7.210   7.308  11.272 -0.0066  0.7791  0.5414
  339MOL0     H45716   7.268   7.490  11.595  0.8494 -0.9585  2.3283
  339MOL0     H45717   7.447   7.626  11.702  1.7796  1.4892 -0.2162
  339MOL0     H45718   7.558   7.505  11.754  0.4386  2.9715  2.7364
  339MOL0     H45719   7.575   7.671  11.509  3.1904  0.0431 -1.8947
  339MOL0     H45720   7.716   7.591  11.578 -0.0622 -0.4735  0.3853
  339MOL0     H45721   7.606   7.863  11.649 -0.2302  0.7988  0.4079
  339MOL0     H45722   7.762   7.814  11.619  0.8059  2.2053  0.5122
  339MOL0     H45723   7.769   7.873  11.838 -0.8024  0.3986  0.3041
  339MOL0     H45724   7.803   7.693  11.837  0.5975 -0.2262 -1.0236
  339MOL0     H45725   7.435   7.783  12.092 -0.2382 -2.2857  1.2208
  339MOL0     H45726   7.444   7.812  12.453  0.0241  2.8185  1.5853
  339MOL0     H45727   7.413   7.958  12.376 -3.6383 -1.0020  0.4865
  339MOL0     H45728   7.336   7.830  12.299  0.1293  2.6679 -0.2935
  339MOL0     H45729   7.778   7.857  12.751 -0.9991  0.1740 -0.7455
  339MOL0     H45730   7.839   8.011  12.951  0.8432  1.2706 -1.2109
  339MOL0     H45731   7.760   8.108  13.130 -0.6672 -0.3513 -1.8446
  339MOL0     H45732   7.930   8.148  13.098  0.4014 -0.0884 -2.1910
  339MOL0     H45733   7.893   8.391  13.195 -3.0048  1.5558 -1.6376
  339MOL0     H45734   7.746   8.361  13.222 -0.3167 -0.0129 -2.2689
  339MOL0     H45735   8.000   8.233  13.340  0.4901  0.7273 -0.8271
  339MOL0     H45736   7.837   8.154  13.364 -2.2256  2.5504 -1.1501
  339MOL0     H45737   7.911   8.441  13.418 -1.6013  0.6912  0.4054
  339MOL0     H45738   7.757   8.352  13.457  0.1008 -0.4382 -3.9333
  339MOL0     H45739   8.044   8.287  13.571 -0.0398 -2.8173  1.3462
  339MOL0     H45740   7.896   8.209  13.616  3.1144 -2.7171 -3.1377
  339MOL0     H45741   7.972   8.495  13.664 -2.4668  0.6139 -4.0748
  339MOL0     H45742   7.814   8.441  13.715 -0.1035  1.5218  0.6897
  339MOL0     H45743   8.090   8.314  13.802  1.1446  2.6360  0.0582
  339MOL0     H45744   7.928   8.264  13.867  0.6388 -0.3726 -0.0619
  339MOL0     H45745   7.888   8.471  13.972  0.8170 -2.5916  2.9154
  339MOL0     H45746   8.035   8.550  13.898  2.2287 -0.4919  0.6949
  339MOL0     H45747   7.642   8.330  12.783  1.0283  0.8849 -1.8903
  339MOL0     H45748   7.594   8.202  12.570  1.7887  2.7225  0.4132
  339MOL0     H45749   7.882   7.762  12.281 -0.9029 -1.0632 -0.0394
  339MOL0     H45750   7.875   7.770  12.050 -0.4521  4.5268  0.7117
  339MOL0     H45751   6.638   6.295  11.336 -1.6504 -1.6360  2.8472
  339MOL0     H45752   6.663   6.079  11.199  0.4998 -1.5275  0.0565
  339MOL0     H45753   6.685   5.558  11.409  0.6640 -1.9062  0.2371
  339MOL0     H45754   6.727   5.338  11.343 -1.0147  3.7018  4.5773
  339MOL0     H45755   6.948   5.117  11.006  0.2986 -0.8482  0.6266
  339MOL0     H45756   6.990   5.293  10.993 -2.7310 -0.6408 -0.3148
  339MOL0     H45757   7.183   5.247  11.127  0.5400 -1.0835 -0.0666
  339MOL0     H45758   7.171   5.104  11.020 -0.2288 -0.6995  0.4162
  339MOL0     H45759   7.019   5.029  11.242  0.8246 -0.9286 -2.6508
  339MOL0     H45760   7.150   5.119  11.321  0.1670  0.3010 -0.3104
  339MOL0     H45761   7.307   4.948  11.203  0.2798  1.0382  2.3312
  339MOL0     H45762   7.156   4.873  11.139 -3.4314  2.0348 -0.8113
  339MOL0     H45763   7.173   4.705  11.514  0.4195 -1.6497 -1.6009
  339MOL0     H45764   7.029   5.497  11.068 -0.3078  0.1415 -0.7954
  339MOL0     H45765   6.978   5.705  11.152 -1.6320  0.0319 -3.1248
  340MOL0     O45766  10.457   0.110   9.837  0.2813 -0.5598  0.1140
  340MOL0     C45767  10.411   0.133   9.949 -0.8512  0.6920 -0.0219
  340MOL0     O45768  10.375   0.031  10.035  0.1168 -0.0080 -0.5923
  340MOL0     C45769  10.367  -0.091   9.983  0.3263  0.6121  0.7511
  340MOL0     C45770  10.490  -0.161   9.961  0.2568  0.2786 -0.4489
  340MOL0     C45771  10.486  -0.292   9.911  0.0187 -0.7137 -1.2800
  340MOL0     C45772  10.370  -0.358   9.898  0.7373  0.8228 -0.1630
  340MOL0     O45773  10.371  -0.491   9.860  0.0269 -0.5818 -0.4268
  340MOL0     C45774  10.468  -0.541   9.765  0.1733 -1.4119 -0.6967
  340MOL0     C45775  10.500  -0.686   9.750  0.0595 -0.4155  0.1129
  340MOL0     C45776  10.370  -0.749   9.685  1.1678  0.5694 -0.8302
  340MOL0     C45777  10.309  -0.690   9.553  0.2459  0.6403 -0.2197
  340MOL0     C45778  10.243  -0.805   9.476 -0.6614  0.1218 -0.8474
  340MOL0     C45779  10.130  -0.885   9.549 -0.0884 -0.4451 -0.5424
  340MOL0     C45780  10.078  -0.982   9.444 -0.4243  0.1068 -0.4475
  340MOL0     C45781   9.971  -1.074   9.485 -0.3649  1.0081  0.1773
  340MOL0     N45782  10.028  -1.193   9.560 -1.0757  0.2447  0.3788
  340MOL0     C45783  10.104  -1.283   9.506  0.0683 -0.0175 -0.2505
  340MOL0     C45784  10.128  -1.368   9.603  0.4127  0.8177  0.5417
  340MOL0     C45785  10.208  -1.496   9.581 -0.1384  0.5053 -0.3213
  340MOL0     C45786  10.355  -1.481   9.605  0.1742  0.5663  0.0061
  340MOL0     C45787  10.383  -1.460   9.747  1.1117  0.1649 -0.0571
  340MOL0     C45788  10.466  -1.575   9.810 -0.0879  0.8265 -0.7151
  340MOL0     O45789  10.599  -1.570   9.758  0.0622  0.1849 -0.6788
  340MOL0     C45790  10.680  -1.466   9.795  0.9145  0.5930  0.1203
  340MOL0     C45791  10.689  -1.417   9.919 -0.5350 -0.1231 -0.9595
  340MOL0     C45792  10.793  -1.333   9.956  0.1858  0.0417  0.0257
  340MOL0     C45793  10.791  -1.278  10.096  0.0768  0.9736 -0.6797
  340MOL0     C45794  10.883  -1.287   9.851 -0.1916  0.1024 -1.4018
  340MOL0     C45795  11.000  -1.203   9.881 -0.8030  0.2200  0.2891
  340MOL0     O45796  11.072  -1.172   9.776 -0.7744  0.4245  0.1771
  340MOL0     C45797  11.188  -1.103   9.799  0.0438  0.4248 -1.3196
  340MOL0     C45798  11.294  -1.152   9.877  0.0596  0.0251  0.5264
  340MOL0     C45799  11.412  -1.076   9.888  0.2199  0.1454  0.1194
  340MOL0     C45800  11.424  -0.945   9.830  0.1872  0.5816 -0.1994
  340MOL0     O45801  11.538  -0.873   9.843  0.3642  1.0912 -0.4529
  340MOL0     C45802  11.528  -0.745   9.900 -0.8232 -1.1965  0.1845
  340MOL0     C45803  11.665  -0.676   9.894 -0.0161 -0.1665 -0.1183
  340MOL0     C45804  11.676  -0.551   9.981 -0.3763 -0.5935 -0.6992
  340MOL0     C45805  11.567  -0.448   9.954  0.2810 -0.3500  0.3156
  340MOL0     C45806  11.594  -0.324  10.035 -1.3226 -0.9672 -0.4056
  340MOL0     C45807  11.500  -0.204   9.995  0.5443 -0.6116  0.1199
  340MOL0     C45808  11.349  -0.229  10.011 -0.3658  0.5731 -0.9409
  340MOL0     C45809  11.268  -0.108  10.042  0.3448 -0.0119 -0.0692
  340MOL0    Cl45810  11.334   0.017  10.148 -0.4898  0.0927 -0.5664
  340MOL0     C45811  11.310  -0.901   9.755  0.8069  0.2571  0.9766
  340MOL0     C45812  11.199  -0.983   9.735 -0.4135  0.4451 -0.2692
  340MOL0     O45813  11.011  -1.143   9.989  0.5201  0.4282 -0.4143
  340MOL0     C45814  10.862  -1.326   9.720  0.5986 -0.1497  0.0972
  340MOL0     C45815  10.758  -1.408   9.698 -0.1295  0.0978 -0.0881
  340MOL0     N45816  10.055  -1.333   9.712 -0.4026  0.1940 -0.0256
  340MOL0     N45817  10.000  -1.224   9.688  0.1731 -0.3115 -0.3810
  340MOL0     C45818  10.247  -0.293   9.921  0.6777  0.9958 -0.5379
  340MOL0     C45819  10.245  -0.166   9.968 -0.7324 -0.2829 -0.3946
  340MOL0     C45820  10.426   0.275   9.994  0.0117  0.0072  0.1827
  340MOL0     C45821  10.440   0.307  10.130 -0.6370 -0.0226  0.5089
  340MOL0     C45822  10.497   0.424  10.172  0.3111  0.1582  0.0399
  340MOL0     C45823  10.526   0.530  10.081 -0.2931 -0.1801  0.2220
  340MOL0     O45824  10.578   0.649  10.139  0.3504  0.0210  0.5124
  340MOL0     C45825  10.516   0.770  10.102 -0.3366 -0.5777  0.3893
  340MOL0     C45826  10.413   0.822  10.197  0.5524 -0.3980  1.0035
  340MOL0     C45827  10.350   0.955  10.143  0.3105  0.4243  0.1729
  340MOL0     C45828  10.294   1.048  10.251 -0.1438  0.7907  0.4855
  340MOL0     C45829  10.168   1.001  10.294  0.1150 -0.4588 -0.8577
  340MOL0     C45830  10.050   0.980  10.318  0.6428  0.1048 -1.1272
  340MOL0     C45831  10.502   0.506   9.952 -1.2274  0.3895 -0.0759
  340MOL0     C45832  10.457   0.381   9.898 -0.7422 -0.4657 -0.3214
  340MOL0     H45833  10.584  -0.107   9.967  2.5155 -3.3517  0.0761
  340MOL0     H45834  10.580  -0.344   9.905  0.6811  0.5040 -1.8300
  340MOL0     H45835  10.429  -0.501   9.671  2.5309 -1.1940 -1.6603
  340MOL0     H45836  10.567  -0.495   9.780 -0.1587 -1.1857  0.9656
  340MOL0     H45837  10.590  -0.700   9.689  0.7383 -1.0047  1.2054
  340MOL0     H45838  10.524  -0.726   9.849 -1.3100  0.2245  0.7332
  340MOL0     H45839  10.380  -0.857   9.673 -4.4229 -0.4327  0.7298
  340MOL0     H45840  10.292  -0.738   9.761  0.4316  1.5559 -1.7045
  340MOL0     H45841  10.233  -0.612   9.566 -2.5488 -1.6344 -1.6833
  340MOL0     H45842  10.384  -0.643   9.489 -0.0088  1.2494 -0.0784
  340MOL0     H45843  10.201  -0.749   9.391 -2.2719  4.8125  2.6039
  340MOL0     H45844  10.313  -0.885   9.453  1.2698  1.1134  1.1980
  340MOL0     H45845  10.173  -0.939   9.634  1.7384  1.4895 -0.1518
  340MOL0     H45846  10.062  -0.817   9.602 -0.2394  0.9035 -2.3702
  340MOL0     H45847  10.044  -0.918   9.362  1.5473  2.8853  0.7665
  340MOL0     H45848  10.164  -1.038   9.408 -1.4361  0.0337 -2.9527
  340MOL0     H45849   9.914  -1.106   9.398  0.3899 -1.2306  0.4360
  340MOL0     H45850   9.898  -1.014   9.540 -0.4062  1.6414 -0.5368
  340MOL0     H45851  10.137  -1.285   9.403 -1.0580 -1.8142 -0.6144
  340MOL0     H45852  10.171  -1.581   9.640 -2.3211  1.0495 -0.8191
  340MOL0     H45853  10.190  -1.529   9.478 -2.6249  0.1205  0.1685
  340MOL0     H45854  10.395  -1.393   9.553  0.0577  1.7126  1.7802
  340MOL0     H45855  10.403  -1.573   9.571 -3.0451 -0.7528 -1.4363
  340MOL0     H45856  10.288  -1.459   9.802  0.0925 -2.7594 -1.5421
  340MOL0     H45857  10.443  -1.373   9.774 -0.2911  0.4429  2.5381
  340MOL0     H45858  10.421  -1.669   9.777  1.2110 -0.7011  1.5836
  340MOL0     H45859  10.481  -1.577   9.919  1.0285  4.2993 -0.6783
  340MOL0     H45860  10.626  -1.437  10.005 -1.3166  1.5531 -1.0999
  340MOL0     H45861  10.789  -1.169  10.096 -3.7927  1.0763 -2.5745
  340MOL0     H45862  10.695  -1.295  10.145  1.9423 -0.1740  3.0042
  340MOL0     H45863  10.876  -1.315  10.155 -0.0382 -0.9483 -1.6365
  340MOL0     H45864  11.284  -1.242   9.938  0.5027 -0.5919 -0.2887
  340MOL0     H45865  11.490  -1.108   9.957 -2.3598  1.2905  3.8984
  340MOL0     H45866  11.465  -0.670   9.851  0.6928  2.5150  3.3843
  340MOL0     H45867  11.493  -0.747  10.004 -0.6922 -0.5478  0.2413
  340MOL0     H45868  11.739  -0.741   9.942  0.5363  0.3944 -0.1960
  340MOL0     H45869  11.680  -0.673   9.786 -0.0860 -0.5297 -0.1401
  340MOL0     H45870  11.771  -0.498   9.975 -0.7815  0.1830 -0.4185
  340MOL0     H45871  11.651  -0.583  10.083 -1.2896 -0.5721 -0.9056
  340MOL0     H45872  11.550  -0.431   9.847 -1.0937 -0.3859  0.5051
  340MOL0     H45873  11.476  -0.484  10.005  1.1177  0.6267  2.6376
  340MOL0     H45874  11.691  -0.282  10.006 -0.8106 -0.8303  1.3679
  340MOL0     H45875  11.588  -0.350  10.141 -1.5039 -0.1251 -0.2039
  340MOL0     H45876  11.536  -0.118  10.052 -0.2059  1.8012 -2.7937
  340MOL0     H45877  11.521  -0.167   9.894 -0.7397 -2.2513 -0.7915
  340MOL0     H45878  11.336  -0.306  10.087 -1.0935 -1.3462 -2.9010
  340MOL0     H45879  11.303  -0.275   9.923 -1.5824 -1.0617  0.4685
  340MOL0     H45880  11.169  -0.142  10.072 -0.3659  1.2315 -0.9425
  340MOL0     H45881  11.242  -0.051   9.953  0.6113  0.2370  0.0128
  340MOL0     H45882  11.314  -0.803   9.707 -4.1245  0.1836 -0.0907
  340MOL0     H45883  11.125  -0.955   9.661 -2.5426 -2.5783  0.5006
  340MOL0     H45884  10.914  -1.291   9.632 -0.7671 -0.5818 -0.9137
  340MOL0     H45885  10.739  -1.441   9.596 -0.3606  0.2807 -0.1048
  340MOL0     H45886  10.154  -0.349   9.910 -0.6253  2.0402  3.5439
  340MOL0     H45887  10.147  -0.121   9.981 -2.5521 -4.3934  2.1373
  340MOL0     H45888  10.419   0.229  10.201 -0.8782  0.4980  1.0125
  340MOL0     H45889  10.538   0.440  10.271  2.7668 -1.1815 -0.6887
  340MOL0     H45890  10.598   0.842  10.111 -0.6765 -0.1390  0.0155
  340MOL0     H45891  10.481   0.757   9.999  0.3131 -1.0332  0.2169
  340MOL0     H45892  10.461   0.846  10.293 -0.1705  2.3311  0.7499
  340MOL0     H45893  10.339   0.744  10.216  1.0344 -1.2055 -0.3455
  340MOL0     H45894  10.294   0.947  10.049  1.4573  2.9188 -0.8027
  340MOL0     H45895  10.435   1.011  10.102  0.9201 -1.6689 -1.6067
  340MOL0     H45896  10.296   1.151  10.214  1.6210  0.4150 -0.5621
  340MOL0     H45897  10.360   1.037  10.337 -1.6664 -2.2992  1.3930
  340MOL0     H45898   9.945   0.964  10.336 -0.0135 -0.4355 -4.6539
  340MOL0     H45899  10.525   0.593   9.891 -1.8693  0.1371 -0.7035
  340MOL0     H45900  10.458   0.355   9.793  2.2609 -0.0541 -0.4835
  341MOL0     O45901   3.349   8.981   6.660 -0.3823 -0.0162 -0.1659
  341MOL0     C45902   3.463   9.011   6.679 -1.0098  0.9890 -0.0220
  341MOL0     O45903   3.548   8.938   6.752  0.7879  0.1724  0.3774
  341MOL0     C45904   3.497   8.822   6.809  1.1100 -0.3902 -0.7920
  341MOL0     C45905   3.459   8.818   6.938  1.0120 -0.5823 -0.2218
  341MOL0     C45906   3.412   8.703   7.002 -0.9311  0.2902 -0.0270
  341MOL0     C45907   3.403   8.584   6.935 -0.5611 -0.6740  0.1942
  341MOL0     O45908   3.347   8.472   6.991 -0.1378  0.1968  0.1965
  341MOL0     C45909   3.435   8.399   7.077 -0.3891  0.0077  0.4246
  341MOL0     C45910   3.428   8.238   7.056 -0.7496 -0.3380 -0.0843
  341MOL0     C45911   3.292   8.183   7.063 -0.0118  0.2466 -0.4844
  341MOL0     C45912   3.287   8.033   7.040 -0.1501 -0.1505  0.5538
  341MOL0     C45913   3.255   7.954   7.177 -0.3764  0.7151  0.7325
  341MOL0     C45914   3.194   7.821   7.114  0.1905 -0.3633  0.8618
  341MOL0     C45915   3.146   7.714   7.208  0.0124  0.4207 -0.2954
  341MOL0     C45916   3.100   7.579   7.142 -0.1991 -0.1782  0.6645
  341MOL0     N45917   3.055   7.480   7.235 -0.7518  0.0442 -0.0621
  341MOL0     C45918   2.959   7.511   7.328  0.2832 -0.1354  0.6236
  341MOL0     C45919   2.959   7.411   7.422 -0.6723 -0.1158  0.9567
  341MOL0     C45920   2.857   7.385   7.527 -0.9314  0.3147 -0.4363
  341MOL0     C45921   2.873   7.493   7.636  0.9407 -1.2211 -0.3230
  341MOL0     C45922   2.758   7.479   7.746 -0.9116  0.3709  0.1628
  341MOL0     C45923   2.799   7.410   7.874  0.7476  1.1840 -1.0827
  341MOL0     O45924   2.889   7.488   7.954 -0.6889  0.1379 -0.8242
  341MOL0     C45925   2.950   7.422   8.060  0.6025  0.3494  0.3268
  341MOL0     C45926   2.881   7.340   8.154 -0.7761 -0.4537 -0.7905
  341MOL0     C45927   2.946   7.310   8.275 -0.2024  1.3549 -0.1259
  341MOL0     C45928   2.863   7.244   8.382 -0.0178  0.4024  0.4636
  341MOL0     C45929   3.092   7.313   8.277 -0.3502 -0.5382  0.1488
  341MOL0     C45930   3.179   7.251   8.383 -0.7123 -0.6904  0.9093
  341MOL0     O45931   3.315   7.283   8.383 -0.9422  0.1233  0.1013
  341MOL0     C45932   3.403   7.232   8.478  0.7332  1.0443 -0.2047
  341MOL0     C45933   3.398   7.273   8.611  0.0862 -0.3125  0.0749
  341MOL0     C45934   3.492   7.236   8.705 -0.6158  0.2434 -0.0445
  341MOL0     C45935   3.571   7.126   8.676 -0.6530  0.2806  0.6685
  341MOL0     O45936   3.652   7.066   8.773 -0.0238 -0.1185  0.2798
  341MOL0     C45937   3.759   6.969   8.735  0.5029  0.4384 -0.4074
  341MOL0     C45938   3.885   7.028   8.675  0.7237 -0.6957 -0.1451
  341MOL0     C45939   3.904   7.188   8.699 -0.5235  0.7050 -0.2741
  341MOL0     C45940   3.987   7.260   8.593 -0.0410  0.1900 -0.3977
  341MOL0     C45941   3.921   7.390   8.536 -0.4363  1.9090  0.4831
  341MOL0     C45942   3.793   7.357   8.462 -0.6594 -0.3291  1.0928
  341MOL0     C45943   3.742   7.493   8.401 -0.4330 -0.0457  0.6482
  341MOL0     C45944   3.627   7.471   8.317  0.5455 -0.6035  1.0622
  341MOL0    Cl45945   3.688   7.364   8.175 -0.0015 -0.3248 -0.0991
  341MOL0     C45946   3.568   7.074   8.542  0.0170  0.3943 -0.7465
  341MOL0     C45947   3.493   7.134   8.447 -0.5376 -0.9002 -0.4317
  341MOL0     O45948   3.124   7.175   8.465  0.1226  0.1675 -0.3399
  341MOL0     C45949   3.161   7.382   8.170 -0.2611  0.4192  0.6437
  341MOL0     C45950   3.087   7.430   8.061 -0.9665 -0.5399 -0.2033
  341MOL0     N45951   3.061   7.328   7.380 -0.3027  0.7544  0.5665
  341MOL0     N45952   3.117   7.362   7.270 -0.7263  0.2025  0.2935
  341MOL0     C45953   3.428   8.587   6.798  0.5576 -0.3124  0.0754
  341MOL0     C45954   3.484   8.696   6.734 -0.3175 -0.9819 -0.5263
  341MOL0     C45955   3.520   9.143   6.620 -0.8690 -0.2048 -0.9846
  341MOL0     C45956   3.640   9.187   6.675 -0.7491  0.1600 -0.4923
  341MOL0     C45957   3.708   9.306   6.634 -0.5757 -0.2334  0.5587
  341MOL0     C45958   3.655   9.378   6.529 -0.5128  0.2121 -0.3413
  341MOL0     O45959   3.738   9.484   6.495 -0.3835 -0.1431  0.3973
  341MOL0     C45960   3.695   9.557   6.378 -0.2965 -0.1877  0.5806
  341MOL0     C45961   3.819   9.634   6.326  0.6494  0.3196 -1.3447
  341MOL0     C45962   3.883   9.738   6.428 -0.0038  0.4122 -0.0063
  341MOL0     C45963   3.810   9.864   6.424 -0.0637 -0.9016  0.4651
  341MOL0     C45964   3.879   9.965   6.501 -0.3748 -0.3193 -0.5210
  341MOL0     C45965   3.935  10.062   6.558 -0.0706 -0.4273  0.5690
  341MOL0     C45966   3.527   9.332   6.478  0.0479  0.5438 -0.0528
  341MOL0     C45967   3.457   9.222   6.524  0.8938 -0.4848 -0.3330
  341MOL0     H45968   3.464   8.912   6.993 -1.7224  1.3269 -2.8589
  341MOL0     H45969   3.405   8.692   7.110  4.3905  2.7775  0.9221
  341MOL0     H45970   3.537   8.431   7.056  0.6275 -1.6746  2.4625
  341MOL0     H45971   3.426   8.431   7.181 -0.4991  0.2474  0.3428
  341MOL0     H45972   3.453   8.221   6.950 -2.4018 -4.0289 -0.0025
  341MOL0     H45973   3.501   8.182   7.115  0.2426  0.1367 -0.8105
  341MOL0     H45974   3.244   8.203   7.159  0.7506 -0.5440  0.0748
  341MOL0     H45975   3.232   8.236   6.988 -1.8447  1.2763  1.5982
  341MOL0     H45976   3.209   8.012   6.966  1.5708 -0.7050 -1.1957
  341MOL0     H45977   3.378   8.010   6.984 -0.1195  0.8862  0.1568
  341MOL0     H45978   3.347   7.933   7.232  2.4294 -1.5675 -4.1127
  341MOL0     H45979   3.182   8.001   7.242 -3.5219  0.4237 -2.2743
  341MOL0     H45980   3.105   7.865   7.068 -0.3693  1.9802  3.8593
  341MOL0     H45981   3.262   7.768   7.047  0.0848  0.0278  0.4391
  341MOL0     H45982   3.233   7.694   7.271 -0.1204  2.6017  0.6653
  341MOL0     H45983   3.064   7.755   7.266 -0.2398  0.6221 -0.7904
  341MOL0     H45984   3.181   7.543   7.078  0.5044 -0.2265  1.5599
  341MOL0     H45985   3.007   7.592   7.085 -0.1050  0.6326  0.6849
  341MOL0     H45986   2.888   7.593   7.320 -1.6201 -1.5624  1.8993
  341MOL0     H45987   2.758   7.385   7.479 -1.2651 -1.0861  0.2069
  341MOL0     H45988   2.871   7.282   7.559 -0.1447  0.4503 -0.3383
  341MOL0     H45989   2.860   7.592   7.592  0.2013 -2.4541 -3.1294
  341MOL0     H45990   2.974   7.489   7.679  1.4108 -0.8127 -1.3541
  341MOL0     H45991   2.680   7.414   7.706 -0.9494 -0.3391  1.3656
  341MOL0     H45992   2.707   7.575   7.760 -0.3587  0.8333 -0.8848
  341MOL0     H45993   2.840   7.309   7.872 -1.3743  0.1949  1.1497
  341MOL0     H45994   2.707   7.407   7.933  1.8302  2.9691  0.8396
  341MOL0     H45995   2.775   7.317   8.144 -0.1557 -5.6144  1.2868
  341MOL0     H45996   2.883   7.137   8.393  0.6770  0.0468 -2.9856
  341MOL0     H45997   2.894   7.283   8.479  1.1655  1.6833 -0.3794
  341MOL0     H45998   2.756   7.264   8.370 -0.5455 -2.2275  0.1146
  341MOL0     H45999   3.313   7.338   8.631 -1.7850 -1.9370 -2.0734
  341MOL0     H46000   3.502   7.281   8.803  5.0218 -1.9136  0.7791
  341MOL0     H46001   3.791   6.914   8.824  3.3148 -1.5027 -2.4089
  341MOL0     H46002   3.724   6.886   8.672  0.4999  0.8558 -0.9677
  341MOL0     H46003   3.975   6.980   8.713 -0.4903 -0.9554  2.6645
  341MOL0     H46004   3.878   7.002   8.569 -0.4036 -0.5429 -0.1241
  341MOL0     H46005   3.947   7.211   8.797  0.3062  2.2708 -0.9636
  341MOL0     H46006   3.804   7.233   8.692 -1.8407 -1.2067  3.3940
  341MOL0     H46007   4.086   7.291   8.630 -0.5240  2.5792 -0.8905
  341MOL0     H46008   4.003   7.191   8.509 -2.7920  0.1328 -0.9446
  341MOL0     H46009   3.999   7.433   8.472  1.4466  1.2349  2.2118
  341MOL0     H46010   3.902   7.471   8.608 -0.5642  0.1262  2.5697
  341MOL0     H46011   3.819   7.279   8.390 -2.2270  0.9433 -0.9563
  341MOL0     H46012   3.721   7.324   8.538 -0.0352  0.4553  2.0623
  341MOL0     H46013   3.826   7.525   8.339  2.3119 -0.8135  3.6666
  341MOL0     H46014   3.719   7.568   8.477 -1.2255 -0.0451  0.4071
  341MOL0     H46015   3.597   7.567   8.273 -0.2583 -0.8352  1.0830
  341MOL0     H46016   3.536   7.433   8.365 -2.1867  4.0772  0.2551
  341MOL0     H46017   3.624   6.987   8.508 -0.9246  0.6804 -3.2158
  341MOL0     H46018   3.489   7.092   8.347  1.9099  1.5930 -1.7034
  341MOL0     H46019   3.268   7.400   8.168 -0.1595 -0.2391 -1.2029
  341MOL0     H46020   3.140   7.495   7.992 -1.5284 -0.7880 -0.8808
  341MOL0     H46021   3.412   8.493   6.747 -0.5630  0.3709 -0.8706
  341MOL0     H46022   3.531   8.702   6.637 -1.2146  0.1231 -0.9160
  341MOL0     H46023   3.695   9.115   6.734 -0.7392  1.0137  0.5721
  341MOL0     H46024   3.804   9.340   6.672 -1.3127  0.9818  1.3903
  341MOL0     H46025   3.672   9.479   6.305 -0.9608 -0.3679  0.9766
  341MOL0     H46026   3.607   9.619   6.399  1.0747  1.8344  0.6208
  341MOL0     H46027   3.786   9.679   6.232 -0.0220 -0.2196 -1.3766
  341MOL0     H46028   3.900   9.565   6.303  0.4083 -1.0771  1.6114
  341MOL0     H46029   3.984   9.753   6.391 -0.1103  1.5701  0.1523
  341MOL0     H46030   3.907   9.702   6.529  1.2687  0.6651 -0.2029
  341MOL0     H46031   3.711   9.855   6.469  0.3143  2.4264  2.2548
  341MOL0     H46032   3.830   9.906   6.325  2.0359 -1.2841  0.6725
  341MOL0     H46033   3.976  10.143   6.614  3.2137 -0.4442 -1.5246
  341MOL0     H46034   3.478   9.401   6.409  2.4083  1.7985 -0.5916
  341MOL0     H46035   3.368   9.183   6.476  1.2523 -2.4717  0.4844
  342MOL0     O46036   7.584  10.301   6.559  0.0291  0.4714  0.3467
  342MOL0     C46037   7.627  10.398   6.625 -0.4780  0.2686  0.4928
  342MOL0     O46038   7.727  10.385   6.717 -0.1741 -0.1135 -0.1219
  342MOL0     C46039   7.771  10.256   6.743  0.9379 -1.7658  0.0398
  342MOL0     C46040   7.735  10.185   6.862 -0.4482  0.0192  0.3329
  342MOL0     C46041   7.778  10.050   6.875 -0.7595 -0.8106 -0.2809
  342MOL0     C46042   7.851   9.985   6.773 -0.1820  0.3965 -0.2079
  342MOL0     O46043   7.880   9.850   6.789  0.9908  0.4775  0.2001
  342MOL0     C46044   7.819   9.766   6.694  0.8400 -0.0073 -0.0693
  342MOL0     C46045   7.682   9.734   6.749 -0.1909 -0.7554  0.3338
  342MOL0     C46046   7.685   9.643   6.875  0.4496 -0.1131 -0.2638
  342MOL0     C46047   7.539   9.612   6.916 -0.5264 -0.0710  0.3512
  342MOL0     C46048   7.523   9.514   7.035 -0.1960  0.0405  0.8753
  342MOL0     C46049   7.544   9.361   6.987  0.0825 -0.7077 -0.3212
  342MOL0     C46050   7.417   9.318   6.900 -0.2199 -0.7500  0.8864
  342MOL0     C46051   7.280   9.329   6.959 -0.8317  0.3199 -0.2280
  342MOL0     N46052   7.274   9.291   7.101  0.0294  0.1538 -0.1039
  342MOL0     C46053   7.309   9.171   7.148 -1.3707  0.0108 -0.9971
  342MOL0     C46054   7.301   9.177   7.283 -0.2104 -0.0101  1.2256
  342MOL0     C46055   7.326   9.065   7.372 -0.9245 -0.5480  0.7865
  342MOL0     C46056   7.183   9.001   7.408  0.9204  0.2419 -1.0102
  342MOL0     C46057   7.112   9.064   7.530  0.8810 -0.0108  0.5493
  342MOL0     C46058   6.972   9.010   7.552  0.5471  0.9265 -0.1957
  342MOL0     O46059   6.926   9.079   7.675  0.8200  0.2339 -0.1255
  342MOL0     C46060   6.790   9.073   7.697 -0.8051 -0.7324 -0.4307
  342MOL0     C46061   6.720   8.960   7.678  1.3919  0.6068  0.2984
  342MOL0     C46062   6.579   8.957   7.719 -0.1185 -0.1592  0.7152
  342MOL0     C46063   6.522   8.818   7.724  0.0920  0.3873 -0.0866
  342MOL0     C46064   6.508   9.072   7.755 -0.5313  0.3297  0.0713
  342MOL0     C46065   6.369   9.065   7.794  1.5043  0.3432 -0.1257
  342MOL0     O46066   6.298   8.970   7.723  0.4430  0.1596 -0.1720
  342MOL0     C46067   6.167   8.931   7.738 -0.4505 -0.1332 -0.8726
  342MOL0     C46068   6.138   8.814   7.670 -0.8871  0.3836 -0.6671
  342MOL0     C46069   6.018   8.754   7.681 -0.5484  0.4604  0.5308
  342MOL0     C46070   5.920   8.812   7.763  0.6221  0.1036 -0.3522
  342MOL0     O46071   5.790   8.784   7.774  0.2948 -0.6625 -0.1951
  342MOL0     C46072   5.727   8.719   7.660 -0.2449 -0.4768  0.6022
  342MOL0     C46073   5.684   8.819   7.540 -0.3393 -0.6880  0.2040
  342MOL0     C46074   5.591   8.744   7.430 -0.3864 -0.3701 -0.3869
  342MOL0     C46075   5.465   8.677   7.467 -0.6185 -0.4190  0.0684
  342MOL0     C46076   5.391   8.616   7.352 -0.2004  0.2599  0.6059
  342MOL0     C46077   5.241   8.605   7.353 -0.3465 -0.5194  0.0111
  342MOL0     C46078   5.183   8.531   7.230 -0.5526 -0.9256  0.2225
  342MOL0     C46079   5.042   8.491   7.270  0.0068  0.2911 -0.1280
  342MOL0    Cl46080   5.036   8.355   7.388 -0.1347  0.0220 -0.2509
  342MOL0     C46081   5.951   8.935   7.829 -0.3049  0.1046 -0.1586
  342MOL0     C46082   6.071   8.998   7.822 -0.5340  0.5292 -0.1370
  342MOL0     O46083   6.318   9.140   7.875  0.4480 -0.1910  1.4586
  342MOL0     C46084   6.588   9.183   7.780  0.4079 -0.4910  0.2337
  342MOL0     C46085   6.726   9.189   7.746 -0.6604  0.3687  0.2223
  342MOL0     N46086   7.250   9.306   7.316 -0.2121 -0.4716  0.8785
  342MOL0     N46087   7.227   9.367   7.203  0.2510 -0.1846  0.4524
  342MOL0     C46088   7.891  10.057   6.667 -0.1477 -0.4312 -0.2461
  342MOL0     C46089   7.857  10.193   6.656  0.6998  0.0492  0.9672
  342MOL0     C46090   7.561  10.532   6.608 -0.4661  0.6050  0.1066
  342MOL0     C46091   7.617  10.643   6.677  0.2259 -0.3320  0.4263
  342MOL0     C46092   7.571  10.769   6.661  0.0705  0.5198  0.4286
  342MOL0     C46093   7.465  10.791   6.579 -0.0854  0.3232  0.1097
  342MOL0     O46094   7.439  10.927   6.570  0.5717  0.0343  0.3994
  342MOL0     C46095   7.374  10.990   6.456  0.1890  0.3987 -0.3342
  342MOL0     C46096   7.471  11.017   6.334 -0.2528  0.5314 -0.4941
  342MOL0     C46097   7.587  11.117   6.378 -0.3739 -0.2258 -0.0007
  342MOL0     C46098   7.637  11.206   6.262 -0.8432 -0.3432  0.2338
  342MOL0     C46099   7.733  11.128   6.177  0.4197 -0.5529 -0.5614
  342MOL0     C46100   7.804  11.063   6.110 -0.4120 -0.3606  0.4874
  342MOL0     C46101   7.395  10.690   6.505 -0.0661 -0.1213  0.2735
  342MOL0     C46102   7.453  10.559   6.513 -0.9483 -0.5463  1.7162
  342MOL0     H46103   7.672  10.235   6.935 -1.5420  2.0038 -1.8278
  342MOL0     H46104   7.745   9.990   6.959 -1.0873 -0.7553 -0.3668
  342MOL0     H46105   7.812   9.823   6.602 -0.9275 -0.7441 -0.4308
  342MOL0     H46106   7.876   9.673   6.679 -0.1475 -0.5940 -0.2895
  342MOL0     H46107   7.638   9.834   6.761 -1.4120 -0.9539 -1.8365
  342MOL0     H46108   7.618   9.692   6.671 -1.2373 -1.9905  1.7972
  342MOL0     H46109   7.738   9.548   6.861  1.0189  0.3856 -1.5656
  342MOL0     H46110   7.737   9.701   6.951 -0.1636  1.2434 -0.8404
  342MOL0     H46111   7.501   9.708   6.951 -0.2428  0.6328 -1.2060
  342MOL0     H46112   7.483   9.582   6.827  0.2981  1.5949 -0.7758
  342MOL0     H46113   7.599   9.548   7.106  0.4776  0.2903  0.0489
  342MOL0     H46114   7.424   9.515   7.081  0.4632 -0.7412  2.4038
  342MOL0     H46115   7.633   9.356   6.924 -1.1943  1.7558 -2.5157
  342MOL0     H46116   7.548   9.288   7.069 -1.1665 -1.9785 -1.3345
  342MOL0     H46117   7.413   9.371   6.805  0.2071 -1.0289  0.7068
  342MOL0     H46118   7.434   9.214   6.870 -0.9795 -1.0688  1.4901
  342MOL0     H46119   7.204   9.293   6.888 -0.1141  2.3570 -2.1806
  342MOL0     H46120   7.242   9.432   6.967 -1.2331  0.3063 -1.6683
  342MOL0     H46121   7.331   9.085   7.085  2.4178  0.8957 -1.1517
  342MOL0     H46122   7.384   8.994   7.314 -0.1584 -0.5814  1.5742
  342MOL0     H46123   7.369   9.099   7.467 -0.4539 -0.0808  0.4128
  342MOL0     H46124   7.203   8.894   7.419 -0.5989  0.0369  0.1467
  342MOL0     H46125   7.118   9.017   7.322  0.6166  0.7301 -0.6952
  342MOL0     H46126   7.096   9.171   7.515 -2.8229 -0.5814 -0.4761
  342MOL0     H46127   7.170   9.051   7.622 -2.2442 -1.4204  2.4893
  342MOL0     H46128   6.967   8.901   7.553  1.1050  0.8616 -1.7606
  342MOL0     H46129   6.913   9.039   7.464  0.7447 -3.7276 -2.1472
  342MOL0     H46130   6.763   8.868   7.640 -1.0799 -0.5406  0.1238
  342MOL0     H46131   6.601   8.743   7.739  2.3154  2.2437 -1.8456
  342MOL0     H46132   6.456   8.813   7.811  1.3408 -0.7143  0.8537
  342MOL0     H46133   6.480   8.780   7.631 -0.3524 -0.9081  0.6219
  342MOL0     H46134   6.214   8.793   7.595  0.6981  0.3333  0.8777
  342MOL0     H46135   6.000   8.666   7.620 -2.0076  1.3246 -0.3278
  342MOL0     H46136   5.784   8.634   7.621 -0.2448  0.7173 -2.2759
  342MOL0     H46137   5.630   8.682   7.695 -2.5745  0.8223 -3.7049
  342MOL0     H46138   5.626   8.892   7.597 -2.0500 -1.2324 -0.7639
  342MOL0     H46139   5.771   8.858   7.488  1.3208 -2.7680  1.2769
  342MOL0     H46140   5.655   8.689   7.360 -0.7465  4.3525 -5.0342
  342MOL0     H46141   5.560   8.824   7.362 -0.6093 -0.6480 -0.6149
  342MOL0     H46142   5.488   8.611   7.551  3.4005  0.4728 -0.1319
  342MOL0     H46143   5.397   8.743   7.522  0.5087  1.7700 -1.0215
  342MOL0     H46144   5.432   8.515   7.341  0.7810  0.6851  0.2613
  342MOL0     H46145   5.415   8.679   7.266  3.1699  2.1242  2.6991
  342MOL0     H46146   5.216   8.540   7.437 -2.0428 -2.6656 -2.0416
  342MOL0     H46147   5.199   8.703   7.379 -0.1705 -0.5140  0.2791
  342MOL0     H46148   5.237   8.439   7.206  0.5579  0.0199 -1.0856
  342MOL0     H46149   5.173   8.591   7.139  0.2128 -1.4111 -0.1851
  342MOL0     H46150   4.976   8.479   7.184 -1.1501 -1.2320  0.9202
  342MOL0     H46151   4.986   8.570   7.321 -1.7551 -1.6690  1.1817
  342MOL0     H46152   5.870   8.982   7.885  2.5106 -1.2067  5.9104
  342MOL0     H46153   6.085   9.093   7.872 -0.0989 -0.7548  2.3363
  342MOL0     H46154   6.542   9.276   7.813 -0.3785  0.5313 -3.2946
  342MOL0     H46155   6.788   9.277   7.747  0.8076 -0.3961 -3.6833
  342MOL0     H46156   7.949   9.996   6.598  1.2220  0.0793  0.4194
  342MOL0     H46157   7.886  10.256   6.573 -2.2793  0.6325  0.2512
  342MOL0     H46158   7.693  10.621   6.751  2.3361  1.9449 -0.9308
  342MOL0     H46159   7.609  10.853   6.719  3.6642 -0.6845  0.0850
  342MOL0     H46160   7.294  10.928   6.414 -1.9806  2.1163  0.9806
  342MOL0     H46161   7.325  11.084   6.485 -2.6786 -0.5916 -1.5655
  342MOL0     H46162   7.410  11.074   6.263 -1.5539  0.1594  0.2974
  342MOL0     H46163   7.512  10.926   6.288 -0.5413 -0.3303  0.9064
  342MOL0     H46164   7.675  11.070   6.422  0.8117 -1.6663 -3.5478
  342MOL0     H46165   7.537  11.182   6.451 -0.5216 -0.5963  0.2300
  342MOL0     H46166   7.691  11.290   6.305 -0.2812  1.0275 -2.8777
  342MOL0     H46167   7.556  11.246   6.199  0.0652  2.5824  0.7702
  342MOL0     H46168   7.862  10.994   6.051 -1.2951 -0.0622 -0.7784
  342MOL0     H46169   7.309  10.709   6.441 -0.5559 -1.8075  0.3887
  342MOL0     H46170   7.401  10.478   6.463 -2.2813  1.8311 -1.0457
  343MOL0     O46171   6.651   2.902   2.742 -0.5964 -0.1439  0.3819
  343MOL0     C46172   6.729   2.808   2.724  0.3250 -0.9579 -0.3460
  343MOL0     O46173   6.808   2.759   2.824  0.3350  0.3683  0.0270
  343MOL0     C46174   6.802   2.807   2.954  0.9458 -0.2792  0.0298
  343MOL0     C46175   6.746   2.722   3.037 -0.1905 -0.0148  0.1875
  343MOL0     C46176   6.724   2.761   3.173  0.5263  1.3749  0.6299
  343MOL0     C46177   6.763   2.886   3.229 -0.1424 -0.4356  0.5513
  343MOL0     O46178   6.737   2.900   3.365 -0.1733  0.4305  0.4842
  343MOL0     C46179   6.778   3.019   3.433 -0.0914  0.1045  0.1589
  343MOL0     C46180   6.722   2.999   3.586  0.5595  0.6524  0.7311
  343MOL0     C46181   6.691   3.135   3.652  0.3939 -0.1859 -0.5301
  343MOL0     C46182   6.664   3.125   3.798  0.6060 -1.2226 -0.3280
  343MOL0     C46183   6.589   3.253   3.845  0.0145  0.4390  0.1970
  343MOL0     C46184   6.675   3.383   3.822  0.4241  0.0262  0.1617
  343MOL0     C46185   6.601   3.503   3.879 -0.9617  0.1148  0.1313
  343MOL0     C46186   6.618   3.509   4.025  0.9601  0.3125 -0.2598
  343MOL0     N46187   6.502   3.574   4.086 -0.0017 -0.0405  0.2504
  343MOL0     C46188   6.480   3.709   4.064 -0.8707  0.3956 -0.1115
  343MOL0     C46189   6.368   3.740   4.118 -0.2970 -0.8402  0.8650
  343MOL0     C46190   6.293   3.868   4.138 -1.0957 -0.0499 -0.7430
  343MOL0     C46191   6.264   3.949   4.011 -1.0479  0.7312  0.1523
  343MOL0     C46192   6.184   4.066   4.033  0.8798 -0.1455 -0.5088
  343MOL0     C46193   6.122   4.122   3.905  0.2766  0.4840 -0.5089
  343MOL0     O46194   6.018   4.213   3.942  0.1559 -0.6331  0.0488
  343MOL0     C46195   5.889   4.165   3.964  0.1048  0.2987 -0.9720
  343MOL0     C46196   5.813   4.258   4.043  0.1990  0.1638  0.3022
  343MOL0     C46197   5.687   4.238   4.084  0.4440 -0.8637  0.7350
  343MOL0     C46198   5.626   4.352   4.167  0.6749  0.2154  0.2001
  343MOL0     C46199   5.623   4.118   4.055  0.6311  0.4581  0.0852
  343MOL0     C46200   5.486   4.077   4.090 -0.1577 -0.2344 -0.9381
  343MOL0     O46201   5.447   4.132   4.212  0.2697 -0.5320 -0.8505
  343MOL0     C46202   5.319   4.119   4.252  0.2061  0.7947 -1.5509
  343MOL0     C46203   5.228   4.213   4.220  0.2946 -0.2806  0.1722
  343MOL0     C46204   5.091   4.200   4.248  0.2110 -0.4705 -0.1154
  343MOL0     C46205   5.050   4.088   4.319 -0.0384  0.8135 -0.1015
  343MOL0     O46206   4.920   4.094   4.365  0.7524  0.3319  1.6568
  343MOL0     C46207   4.876   4.008   4.473  0.0929 -0.0839 -0.3575
  343MOL0     C46208   4.770   4.069   4.564 -1.2627  0.7692  0.7307
  343MOL0     C46209   4.817   4.205   4.609  0.0072  0.5303  0.4680
  343MOL0     C46210   4.720   4.244   4.719 -0.5456 -0.1994 -0.0243
  343MOL0     C46211   4.704   4.399   4.735 -0.2751  0.3664 -0.0707
  343MOL0     C46212   4.831   4.453   4.793  0.5581 -0.0599 -0.4150
  343MOL0     C46213   4.814   4.609   4.788 -0.4426  1.0529  0.3016
  343MOL0     C46214   4.870   4.671   4.657  0.7393  1.3137 -0.9965
  343MOL0    Cl46215   5.049   4.663   4.643  0.1824  0.2317 -0.4163
  343MOL0     C46216   5.142   3.981   4.338  0.0754  0.0410  0.9527
  343MOL0     C46217   5.284   3.989   4.298  0.3698  0.2084 -0.0651
  343MOL0     O46218   5.413   4.026   4.012 -0.2116  0.9399 -0.3772
  343MOL0     C46219   5.689   4.023   3.975  1.0286 -0.0577 -0.3877
  343MOL0     C46220   5.823   4.049   3.929 -0.5356  0.5973  0.0508
  343MOL0     N46221   6.325   3.622   4.179  0.6937 -0.2259  0.1330
  343MOL0     N46222   6.410   3.535   4.171 -0.8437  1.2960  0.4190
  343MOL0     C46223   6.814   2.976   3.142 -0.3146 -0.0406 -0.0049
  343MOL0     C46224   6.836   2.939   3.004 -0.6661 -1.0043  0.6049
  343MOL0     C46225   6.739   2.773   2.585  0.6562  1.1349 -0.4128
  343MOL0     C46226   6.654   2.823   2.479 -0.6439  0.3166  0.0311
  343MOL0     C46227   6.662   2.772   2.349  0.3019 -0.2399 -1.1557
  343MOL0     C46228   6.767   2.687   2.315  0.1673  0.5302  0.4563
  343MOL0     O46229   6.797   2.650   2.186 -0.4009  0.9825 -0.5323
  343MOL0     C46230   6.728   2.537   2.128 -0.2829 -0.8253 -0.5353
  343MOL0     C46231   6.833   2.440   2.079 -0.8286 -1.3903 -0.2228
  343MOL0     C46232   6.785   2.308   2.032 -1.0726  0.1093 -0.1700
  343MOL0     C46233   6.725   2.320   1.890 -0.3757  0.7551 -0.1907
  343MOL0     C46234   6.705   2.182   1.840  0.1245  1.0113  0.7019
  343MOL0     C46235   6.677   2.068   1.800  0.5009  0.5558 -0.1595
  343MOL0     C46236   6.858   2.642   2.420  0.4800  0.5271 -0.5285
  343MOL0     C46237   6.838   2.679   2.550 -0.1021  0.7481 -1.0700
  343MOL0     H46238   6.710   2.630   2.992  0.4765  0.3824 -1.2195
  343MOL0     H46239   6.674   2.682   3.228 -1.0898  2.7590  1.2545
  343MOL0     H46240   6.887   3.027   3.431 -0.2198  4.1703  0.5394
  343MOL0     H46241   6.737   3.102   3.375  1.8226  0.5729 -0.5888
  343MOL0     H46242   6.634   2.936   3.595  0.2646  1.3489  3.8942
  343MOL0     H46243   6.794   2.946   3.648  0.5745 -0.6202 -0.3255
  343MOL0     H46244   6.785   3.191   3.643  1.2747 -0.9594  2.4036
  343MOL0     H46245   6.611   3.180   3.593 -0.6004 -3.8459 -2.2897
  343MOL0     H46246   6.603   3.041   3.832 -0.0836 -0.2841  0.8445
  343MOL0     H46247   6.758   3.123   3.856 -0.6038  2.3451  2.1262
  343MOL0     H46248   6.488   3.268   3.807 -0.8907  0.4170  2.4320
  343MOL0     H46249   6.579   3.234   3.952  4.7703 -0.0726  0.7654
  343MOL0     H46250   6.780   3.376   3.850  1.2824  0.4067 -2.7454
  343MOL0     H46251   6.685   3.402   3.715  1.2087  0.7365  0.3497
  343MOL0     H46252   6.638   3.591   3.824 -1.9028 -1.1915 -2.7735
  343MOL0     H46253   6.495   3.497   3.852 -0.7055  1.1569 -1.2553
  343MOL0     H46254   6.716   3.551   4.048  1.1545 -0.1540 -0.2145
  343MOL0     H46255   6.625   3.411   4.074 -1.7640 -0.1458 -0.6141
  343MOL0     H46256   6.549   3.766   4.003  0.2337 -3.2850 -2.6838
  343MOL0     H46257   6.200   3.855   4.195 -0.3611 -0.8200  0.3240
  343MOL0     H46258   6.353   3.912   4.219 -1.5676 -2.7703  1.2134
  343MOL0     H46259   6.206   3.893   3.937 -0.7102  2.4973 -1.5306
  343MOL0     H46260   6.359   3.969   3.962 -1.6464 -0.6709 -1.7265
  343MOL0     H46261   6.248   4.134   4.090  1.8452 -1.3321 -0.1404
  343MOL0     H46262   6.104   4.032   4.100  2.4277 -1.6916  0.6203
  343MOL0     H46263   6.076   4.042   3.846  1.6834 -1.3852  0.8289
  343MOL0     H46264   6.197   4.182   3.852 -0.1398  1.1711 -0.3351
  343MOL0     H46265   5.867   4.351   4.055  0.6377 -0.1862  1.1500
  343MOL0     H46266   5.522   4.375   4.143  1.0225  0.6369 -0.9575
  343MOL0     H46267   5.622   4.308   4.267  2.4973  2.5766  1.4268
  343MOL0     H46268   5.687   4.443   4.167  0.6884  0.2215 -1.3499
  343MOL0     H46269   5.246   4.310   4.174 -0.6589 -0.3812 -0.4485
  343MOL0     H46270   5.017   4.274   4.222  2.0286  1.2868 -0.5543
  343MOL0     H46271   4.829   3.923   4.425 -3.7148  1.5062  0.1935
  343MOL0     H46272   4.963   3.975   4.531 -0.9305 -0.8550  0.7741
  343MOL0     H46273   4.681   4.079   4.501 -2.7351 -1.5588  2.2979
  343MOL0     H46274   4.746   4.003   4.648 -1.4199  1.3948  1.1910
  343MOL0     H46275   4.834   4.274   4.526  5.2318  1.5717  2.0499
  343MOL0     H46276   4.919   4.191   4.646  1.2611 -2.0965 -3.4061
  343MOL0     H46277   4.621   4.202   4.697 -1.0177  0.5549  0.6005
  343MOL0     H46278   4.762   4.204   4.812  0.3313  2.4080  0.8083
  343MOL0     H46279   4.619   4.426   4.799 -0.3466 -1.9412  0.8812
  343MOL0     H46280   4.683   4.451   4.641  0.3772  2.0009  0.6347
  343MOL0     H46281   4.846   4.416   4.894 -2.9714 -0.2688  0.1422
  343MOL0     H46282   4.915   4.412   4.735 -1.8602 -2.8732 -2.2340
  343MOL0     H46283   4.859   4.649   4.879 -2.1766 -0.9799  2.1573
  343MOL0     H46284   4.710   4.639   4.805 -0.9200 -0.4103  0.1082
  343MOL0     H46285   4.858   4.780   4.664  2.1866  1.4298  0.2382
  343MOL0     H46286   4.818   4.626   4.572  1.5181 -1.4720 -0.1211
  343MOL0     H46287   5.104   3.891   4.386 -0.1813  0.6651  1.9497
  343MOL0     H46288   5.349   3.908   4.330 -2.7188 -1.8193  1.6549
  343MOL0     H46289   5.638   3.927   3.968  1.7515 -0.9067  3.5379
  343MOL0     H46290   5.867   3.979   3.859 -2.1870 -0.3949 -0.0479
  343MOL0     H46291   6.866   3.058   3.192  0.2388  0.7137 -1.7173
  343MOL0     H46292   6.889   3.001   2.932 -0.4540  0.4639  1.9517
  343MOL0     H46293   6.580   2.894   2.514 -0.2862 -0.6851  3.1043
  343MOL0     H46294   6.593   2.796   2.268 -0.8355 -0.5604 -0.3062
  343MOL0     H46295   6.673   2.490   2.209  3.1752 -0.9734  1.9700
  343MOL0     H46296   6.674   2.580   2.043  0.8009  2.7753  0.4265
  343MOL0     H46297   6.912   2.423   2.153  2.4524 -2.7439 -3.7243
  343MOL0     H46298   6.898   2.492   2.008 -0.8283  3.2190  2.7176
  343MOL0     H46299   6.713   2.254   2.093 -0.7802  1.3827  1.3702
  343MOL0     H46300   6.871   2.239   2.036 -2.0043 -1.0670  0.1444
  343MOL0     H46301   6.799   2.375   1.832 -0.1321 -0.1440 -0.7520
  343MOL0     H46302   6.628   2.370   1.890 -1.2895 -0.8418  2.2585
  343MOL0     H46303   6.659   1.968   1.769 -4.8078  1.4918 -1.0465
  343MOL0     H46304   6.953   2.597   2.394  0.6821  1.5729 -1.6758
  343MOL0     H46305   6.904   2.631   2.622 -3.1245 -3.1500 -0.5793
  344MOL0     O46306   6.420   5.133   8.186 -0.3983  0.5311 -0.5859
  344MOL0     C46307   6.476   5.039   8.243  0.2631  0.5570 -0.1389
  344MOL0     O46308   6.562   5.055   8.353 -0.3893 -0.4413 -0.1416
  344MOL0     C46309   6.578   5.176   8.425  0.2666  0.2337 -0.0197
  344MOL0     C46310   6.485   5.285   8.434  0.0637 -0.0177  1.1845
  344MOL0     C46311   6.516   5.408   8.491 -0.3192 -0.5553 -0.3685
  344MOL0     C46312   6.640   5.426   8.563  0.3860 -0.1116  0.3791
  344MOL0     O46313   6.653   5.557   8.605 -0.6147  0.3982  0.4826
  344MOL0     C46314   6.777   5.601   8.646 -0.7646 -0.2354 -0.4332
  344MOL0     C46315   6.780   5.755   8.631 -0.1017  0.2136  1.0756
  344MOL0     C46316   6.916   5.828   8.658  0.4936  0.8985  0.3764
  344MOL0     C46317   6.950   5.808   8.796 -0.2536 -0.1853 -0.3937
  344MOL0     C46318   6.875   5.887   8.897  0.5620 -0.3101 -1.2807
  344MOL0     C46319   6.928   6.037   8.913  0.2846 -0.2252 -0.2502
  344MOL0     C46320   6.888   6.094   9.043 -0.3850 -1.3333  0.3648
  344MOL0     C46321   6.932   6.245   9.078  0.7154 -0.5435 -0.8063
  344MOL0     N46322   6.847   6.344   9.014  1.2750  0.9104  1.1530
  344MOL0     C46323   6.717   6.355   9.030 -0.4699  0.7716  0.2384
  344MOL0     C46324   6.682   6.485   8.983  0.5137  0.2429 -0.5900
  344MOL0     C46325   6.538   6.547   9.009 -0.7753 -0.0157  0.4804
  344MOL0     C46326   6.536   6.666   9.108 -0.3266 -0.2891  0.1538
  344MOL0     C46327   6.438   6.779   9.077 -0.0718  0.0399 -0.4347
  344MOL0     C46328   6.471   6.879   8.960 -0.4398  0.6065  0.2500
  344MOL0     O46329   6.418   6.821   8.842  0.2820  0.4898 -0.0530
  344MOL0     C46330   6.473   6.865   8.727 -0.8918 -0.4640  0.9414
  344MOL0     C46331   6.485   7.001   8.702 -0.8541  0.8423 -1.0178
  344MOL0     C46332   6.526   7.050   8.574 -1.2281 -0.5587  0.8803
  344MOL0     C46333   6.553   7.202   8.563 -0.8071 -0.0947  0.1167
  344MOL0     C46334   6.551   6.953   8.465  0.2488  0.4229  0.1747
  344MOL0     C46335   6.578   7.002   8.333 -1.5167 -0.0996 -0.2542
  344MOL0     O46336   6.647   6.921   8.254  0.0823  0.1890  0.4370
  344MOL0     C46337   6.700   6.982   8.138  0.6317 -0.2041 -0.3319
  344MOL0     C46338   6.811   7.069   8.137 -0.4199 -1.1324  0.2777
  344MOL0     C46339   6.851   7.137   8.027 -0.7380  0.6987  0.0410
  344MOL0     C46340   6.783   7.118   7.904 -0.1463 -0.1431 -0.5751
  344MOL0     O46341   6.825   7.176   7.786  0.4859 -0.1974 -0.3533
  344MOL0     C46342   6.958   7.238   7.772  0.8061 -1.6537  0.3259
  344MOL0     C46343   7.060   7.134   7.775  0.4226  0.6231 -0.1634
  344MOL0     C46344   7.198   7.190   7.724  0.2440  0.1727 -0.3072
  344MOL0     C46345   7.282   7.263   7.835 -0.5884 -0.0913 -0.6063
  344MOL0     C46346   7.388   7.353   7.765 -0.1851  0.7309 -0.7403
  344MOL0     C46347   7.517   7.389   7.851  0.4285  0.2549 -0.4810
  344MOL0     C46348   7.621   7.448   7.778 -0.3869 -0.5323  0.7283
  344MOL0     C46349   7.749   7.473   7.864 -0.1825  0.5062 -0.0560
  344MOL0    Cl46350   7.729   7.571   7.996 -0.1075 -0.0537  0.3011
  344MOL0     C46351   6.670   7.031   7.905 -1.0934 -0.4050  0.1545
  344MOL0     C46352   6.624   6.963   8.019  0.0303 -0.4739 -0.4904
  344MOL0     O46353   6.520   7.101   8.294  0.2866 -0.0324  0.1429
  344MOL0     C46354   6.526   6.817   8.498 -0.1705  1.8680  0.0231
  344MOL0     C46355   6.490   6.775   8.627  0.3740  0.7899  0.9265
  344MOL0     N46356   6.797   6.551   8.943  0.5546 -0.2335  0.2217
  344MOL0     N46357   6.886   6.462   8.959 -0.0661 -0.4969  0.3019
  344MOL0     C46358   6.734   5.324   8.561  0.3556 -0.2152  0.9053
  344MOL0     C46359   6.707   5.199   8.492  0.1788  0.3981 -0.0860
  344MOL0     C46360   6.454   4.900   8.205 -0.5391 -0.4906 -0.4831
  344MOL0     C46361   6.517   4.790   8.263  0.5076  0.2747 -0.3923
  344MOL0     C46362   6.478   4.663   8.240 -0.6738 -0.4507 -0.3330
  344MOL0     C46363   6.376   4.633   8.142 -0.5368 -0.0078 -0.5564
  344MOL0     O46364   6.346   4.499   8.126  0.3507 -0.8038  0.2756
  344MOL0     C46365   6.258   4.467   8.020 -0.0346  0.2035 -0.0269
  344MOL0     C46366   6.262   4.324   7.968  0.4739  0.7483 -0.4869
  344MOL0     C46367   6.143   4.284   7.876  0.7386 -0.7078  0.6293
  344MOL0     C46368   6.158   4.136   7.862  0.0414  0.8205  0.9590
  344MOL0     C46369   6.054   4.093   7.771  0.3635 -1.2231 -0.2445
  344MOL0     C46370   5.963   4.067   7.701 -1.0270  0.3856  0.6520
  344MOL0     C46371   6.326   4.744   8.069 -0.0506 -0.0850  0.4535
  344MOL0     C46372   6.356   4.869   8.110 -1.4538  0.2831  0.3761
  344MOL0     H46373   6.392   5.271   8.381  1.8630  0.8665 -2.5377
  344MOL0     H46374   6.448   5.493   8.486 -0.2207 -0.2440  2.3480
  344MOL0     H46375   6.795   5.585   8.753  2.5922 -1.7554 -1.0983
  344MOL0     H46376   6.849   5.562   8.573  1.4456  0.8875  1.0055
  344MOL0     H46377   6.753   5.782   8.528  0.7560 -2.7398 -0.0298
  344MOL0     H46378   6.704   5.804   8.693  1.3290  2.0320  1.4879
  344MOL0     H46379   6.990   5.780   8.593 -0.7226  2.4826 -2.3661
  344MOL0     H46380   6.894   5.928   8.620 -1.9963  1.2078  2.4164
  344MOL0     H46381   6.941   5.701   8.813  0.4543 -0.6912 -2.8066
  344MOL0     H46382   7.057   5.832   8.801 -0.0603 -1.0228 -0.3782
  344MOL0     H46383   6.768   5.876   8.878 -0.5175 -1.4626  3.9047
  344MOL0     H46384   6.891   5.832   8.991 -0.4237 -2.9834 -2.5801
  344MOL0     H46385   7.037   6.031   8.900  0.4675  0.2782  0.9151
  344MOL0     H46386   6.894   6.107   8.837 -0.8924  1.3068  1.5902
  344MOL0     H46387   6.781   6.094   9.062 -0.5131  1.3114 -0.0661
  344MOL0     H46388   6.929   6.042   9.130  0.0335 -2.8141 -0.6749
  344MOL0     H46389   7.028   6.284   9.044 -0.2902  1.6315 -1.2885
  344MOL0     H46390   6.918   6.252   9.186 -0.5479  2.5622 -1.0523
  344MOL0     H46391   6.648   6.281   9.069  0.4483 -1.4237 -2.0167
  344MOL0     H46392   6.500   6.575   8.910 -1.5654  2.1300  1.3215
  344MOL0     H46393   6.478   6.467   9.051 -1.4467  0.4938  0.5136
  344MOL0     H46394   6.634   6.716   9.104 -2.3191  4.1918  0.9453
  344MOL0     H46395   6.521   6.626   9.209 -2.5636 -1.0567 -0.4279
  344MOL0     H46396   6.427   6.841   9.167 -1.8484 -0.6915 -0.0975
  344MOL0     H46397   6.343   6.729   9.056 -0.7711 -0.0442  2.5083
  344MOL0     H46398   6.574   6.914   8.949 -1.0309  1.7015 -2.9004
  344MOL0     H46399   6.418   6.972   8.978 -1.8558 -0.2575  0.6586
  344MOL0     H46400   6.468   7.076   8.779  3.3438  1.7165 -0.7006
  344MOL0     H46401   6.495   7.254   8.486  0.1444 -2.9011 -2.7310
  344MOL0     H46402   6.545   7.247   8.662 -0.9277  0.6705 -0.2356
  344MOL0     H46403   6.660   7.217   8.543 -0.5539 -0.2418  1.3215
  344MOL0     H46404   6.862   7.078   8.233 -1.4800  1.6335  0.6728
  344MOL0     H46405   6.943   7.193   8.038 -0.8618  0.5574  2.1979
  344MOL0     H46406   6.962   7.286   7.674  0.0493 -2.1586  0.0438
  344MOL0     H46407   6.974   7.320   7.843 -3.5266 -1.6374  1.5976
  344MOL0     H46408   7.065   7.090   7.875  0.6736 -0.0234 -0.4530
  344MOL0     H46409   7.026   7.055   7.706  0.2489  2.4147 -2.2570
  344MOL0     H46410   7.176   7.276   7.659 -0.9361  0.7489  0.8153
  344MOL0     H46411   7.252   7.122   7.658 -0.8121 -0.8105 -0.1853
  344MOL0     H46412   7.228   7.327   7.905  2.7602  3.1449 -0.6316
  344MOL0     H46413   7.340   7.189   7.892  2.9759  1.8377 -1.4544
  344MOL0     H46414   7.334   7.437   7.719  2.3305  0.6452 -4.2341
  344MOL0     H46415   7.427   7.292   7.683 -0.1118  0.1654 -0.2888
  344MOL0     H46416   7.485   7.447   7.939  1.9850 -0.5676  0.6869
  344MOL0     H46417   7.554   7.302   7.905 -0.9435  0.3702  0.7074
  344MOL0     H46418   7.594   7.543   7.730  2.0541 -1.8675 -3.9028
  344MOL0     H46419   7.643   7.381   7.695  2.0455 -0.0053  0.8627
  344MOL0     H46420   7.821   7.527   7.801  0.4883 -1.2243 -0.8187
  344MOL0     H46421   7.787   7.375   7.891 -1.2534  0.1826  0.3311
  344MOL0     H46422   6.636   7.002   7.806  0.7543  4.1319 -2.0907
  344MOL0     H46423   6.532   6.906   8.011  0.1768 -0.7648 -0.1224
  344MOL0     H46424   6.545   6.739   8.425 -1.7888 -0.0355  1.5236
  344MOL0     H46425   6.467   6.673   8.656 -2.5229  0.7240 -1.1743
  344MOL0     H46426   6.818   5.323   8.630 -1.5540 -0.4828  3.3938
  344MOL0     H46427   6.779   5.117   8.494 -0.4099 -0.3179 -2.9471
  344MOL0     H46428   6.600   4.796   8.334 -0.5863 -1.0154  1.0676
  344MOL0     H46429   6.530   4.575   8.278 -1.0191  0.0566  1.3728
  344MOL0     H46430   6.157   4.506   8.036  0.7713  2.9549 -1.0943
  344MOL0     H46431   6.296   4.525   7.936  0.5146  1.2607  0.9272
  344MOL0     H46432   6.247   4.268   8.061 -0.3163  1.1858 -0.3408
  344MOL0     H46433   6.357   4.299   7.920  0.2206  1.3073 -1.2985
  344MOL0     H46434   6.165   4.328   7.779  1.1189 -1.4164  0.3882
  344MOL0     H46435   6.045   4.312   7.916  1.1114 -1.7881  2.4078
  344MOL0     H46436   6.140   4.077   7.952  2.1334 -1.9661 -0.3204
  344MOL0     H46437   6.256   4.101   7.830  0.3034  1.3200  1.1910
  344MOL0     H46438   5.884   4.050   7.631  1.8351  0.4450 -2.9240
  344MOL0     H46439   6.261   4.734   7.984 -0.8318 -1.2418  1.1607
  344MOL0     H46440   6.306   4.951   8.059  2.8285  1.4071 -2.5125
  345MOL0     O46441   9.315   1.561   0.775 -0.4756 -0.3705 -0.1558
  345MOL0     C46442   9.209   1.606   0.815  1.1036 -0.9574 -1.0316
  345MOL0     O46443   9.081   1.586   0.755  0.3794 -0.4501 -0.1440
  345MOL0     C46444   9.068   1.513   0.635 -0.6901 -0.2096  0.6126
  345MOL0     C46445   9.012   1.383   0.624 -0.2870 -1.1219  0.3024
  345MOL0     C46446   9.025   1.311   0.506  1.1184 -0.1121 -0.0443
  345MOL0     C46447   9.078   1.382   0.396 -0.9869 -0.4794 -0.8820
  345MOL0     O46448   9.104   1.327   0.270  0.6457 -0.5366  0.3517
  345MOL0     C46449   9.064   1.195   0.237  0.9890 -0.2218 -0.5823
  345MOL0     C46450   9.106   1.158   0.090  0.0901 -0.5071  0.0660
  345MOL0     C46451   9.259   1.142   0.092 -0.7051  0.0523 -0.7350
  345MOL0     C46452   9.316   1.093  -0.035  0.0676  0.4811  0.2386
  345MOL0     C46453   9.461   1.052  -0.008 -0.9857 -0.3452  0.2912
  345MOL0     C46454   9.484   0.906   0.028  0.8171  0.7838 -0.3882
  345MOL0     C46455   9.613   0.861  -0.035  0.1454  0.5219  0.1142
  345MOL0     C46456   9.656   0.716   0.004  0.2241  1.1628 -0.6038
  345MOL0     N46457   9.655   0.689   0.155 -0.0497 -0.7012 -0.1485
  345MOL0     C46458   9.743   0.729   0.247 -0.4364 -0.3619 -0.1802
  345MOL0     C46459   9.699   0.679   0.361  0.1809  0.1610 -0.2035
  345MOL0     C46460   9.775   0.690   0.492 -0.3810 -0.1565 -0.3943
  345MOL0     C46461   9.849   0.563   0.538  0.5255 -0.5609 -0.1353
  345MOL0     C46462   9.739   0.461   0.585 -0.3654  0.9217  0.2513
  345MOL0     C46463   9.786   0.305   0.582 -0.4627 -0.3352 -0.1851
  345MOL0     O46464   9.917   0.301   0.527  0.2241  0.6918  0.8136
  345MOL0     C46465   9.934   0.275   0.386  0.4516  0.0803 -0.1964
  345MOL0     C46466   9.829   0.300   0.292  0.3295 -0.2586  0.1310
  345MOL0     C46467   9.847   0.260   0.158 -0.1670  0.6892  0.0345
  345MOL0     C46468   9.738   0.298   0.056  0.1900 -0.0255  0.4729
  345MOL0     C46469   9.958   0.183   0.121 -0.3018 -1.1104 -1.3187
  345MOL0     C46470   9.990   0.152  -0.020 -0.0946  0.4636 -0.3276
  345MOL0     O46471   9.926   0.212  -0.121 -0.2331  0.1108  1.0758
  345MOL0     C46472   9.967   0.161  -0.245 -0.1214  0.8962  0.0827
  345MOL0     C46473  10.069   0.218  -0.311 -0.3426 -0.7737 -1.1755
  345MOL0     C46474  10.098   0.188  -0.440 -0.3510  0.1703 -0.2066
  345MOL0     C46475  10.051   0.072  -0.489  0.3541 -0.2289 -0.1993
  345MOL0     O46476  10.102   0.028  -0.608  0.0150  0.5802  1.1727
  345MOL0     C46477  10.036   0.090  -0.731 -0.6273 -0.2841  0.4994
  345MOL0     C46478  10.095   0.219  -0.775 -0.8901  0.1169  0.1722
  345MOL0     C46479  10.229   0.206  -0.840 -0.9322  0.4396 -0.3848
  345MOL0     C46480  10.264   0.334  -0.928  0.8792 -0.3623  0.2155
  345MOL0     C46481  10.327   0.443  -0.837  0.1413 -0.6380 -0.4338
  345MOL0     C46482  10.386   0.556  -0.920 -0.4993 -0.6508 -0.8134
  345MOL0     C46483  10.528   0.518  -0.981  1.3387 -0.4616  0.1388
  345MOL0     C46484  10.595   0.638  -1.051  0.0566 -0.8278  0.8917
  345MOL0    Cl46485  10.673   0.739  -0.929  0.5665 -0.7033  0.0022
  345MOL0     C46486   9.958   0.002  -0.424 -0.9013  0.8108 -0.9052
  345MOL0     C46487   9.905   0.043  -0.299 -0.0727  0.0692 -0.6100
  345MOL0     O46488  10.068   0.057  -0.031 -0.6286  0.3698 -0.3231
  345MOL0     C46489  10.053   0.151   0.222  0.8073 -0.0589 -0.2734
  345MOL0     C46490  10.043   0.213   0.351  0.2712 -0.0078  0.3720
  345MOL0     N46491   9.584   0.604   0.344 -0.7621  0.0175 -0.3791
  345MOL0     N46492   9.559   0.609   0.213  1.0595 -0.3462  0.2925
  345MOL0     C46493   9.123   1.516   0.412 -0.7266  0.2974 -0.3479
  345MOL0     C46494   9.135   1.572   0.534 -0.0039  0.8220  1.3134
  345MOL0     C46495   9.223   1.712   0.923  0.7930  0.0622  0.0813
  345MOL0     C46496   9.346   1.779   0.935  0.9825 -0.3047  0.7248
  345MOL0     C46497   9.367   1.855   1.056 -0.6821  0.5689 -0.2915
  345MOL0     C46498   9.267   1.881   1.150 -0.6360  0.2545 -0.2089
  345MOL0     O46499   9.302   1.970   1.254  0.0846  0.6871 -0.6481
  345MOL0     C46500   9.188   1.995   1.346  0.1025  0.3095 -0.6200
  345MOL0     C46501   9.210   2.121   1.438 -0.4109 -0.0398 -1.1239
  345MOL0     C46502   9.321   2.117   1.545  0.3417  0.0214 -0.1816
  345MOL0     C46503   9.276   2.020   1.660 -0.2778  0.3117  0.2477
  345MOL0     C46504   9.281   2.095   1.789  0.9873 -0.3626 -0.0066
  345MOL0     C46505   9.290   2.160   1.891  0.1732 -0.0132 -0.5146
  345MOL0     C46506   9.142   1.825   1.124 -0.5911  0.1469 -1.1095
  345MOL0     C46507   9.127   1.743   1.010  1.1209 -0.3583 -0.7239
  345MOL0     H46508   8.955   1.358   0.713 -0.1888  0.2870  0.7907
  345MOL0     H46509   8.976   1.215   0.497 -2.2778  1.6335 -3.9256
  345MOL0     H46510   9.111   1.123   0.304  1.9232  0.4306 -0.5178
  345MOL0     H46511   8.954   1.191   0.239  0.8330  2.6472  1.3169
  345MOL0     H46512   9.069   1.057   0.068  0.9444 -0.7510 -0.2962
  345MOL0     H46513   9.073   1.231   0.015  1.2507 -0.0487 -0.0204
  345MOL0     H46514   9.311   1.232   0.127 -0.0895 -0.5142 -0.1661
  345MOL0     H46515   9.285   1.070   0.170 -0.2021 -1.9722 -2.6414
  345MOL0     H46516   9.261   1.008  -0.077 -0.4500  0.8182  0.2236
  345MOL0     H46517   9.321   1.171  -0.111 -0.1603  0.8666  0.6190
  345MOL0     H46518   9.527   1.069  -0.094  0.3056  0.0717  1.3278
  345MOL0     H46519   9.497   1.118   0.072  0.2603 -0.3857 -0.2163
  345MOL0     H46520   9.478   0.886   0.136  1.5590 -1.2550 -0.6849
  345MOL0     H46521   9.405   0.846  -0.017  0.7614  0.4722  0.1176
  345MOL0     H46522   9.595   0.880  -0.141 -0.9116  0.5312  0.2904
  345MOL0     H46523   9.700   0.923  -0.011  0.1712  0.3382  0.4993
  345MOL0     H46524   9.759   0.698  -0.025  0.0041 -3.7136  0.7773
  345MOL0     H46525   9.582   0.650  -0.043  0.8788  0.0750 -0.1226
  345MOL0     H46526   9.834   0.788   0.255  0.0853 -1.3639  1.8129
  345MOL0     H46527   9.854   0.765   0.497 -1.0877  0.5452  1.5571
  345MOL0     H46528   9.704   0.707   0.574 -1.1862 -1.8634 -0.6895
  345MOL0     H46529   9.910   0.581   0.627  2.2984  0.0393 -1.4352
  345MOL0     H46530   9.908   0.528   0.453 -0.7566 -2.1154 -0.4531
  345MOL0     H46531   9.651   0.472   0.520  1.5707  1.7715 -2.4084
  345MOL0     H46532   9.709   0.487   0.687 -2.8570  1.6323 -0.5803
  345MOL0     H46533   9.711   0.244   0.531 -2.4432  0.7566  1.2798
  345MOL0     H46534   9.787   0.271   0.685 -1.1337 -0.3433 -0.1741
  345MOL0     H46535   9.740   0.357   0.316  1.6402  1.8352  0.2276
  345MOL0     H46536   9.785   0.374  -0.006  2.3988 -1.3842  0.3529
  345MOL0     H46537   9.702   0.211   0.001 -0.5864  0.8454 -0.4249
  345MOL0     H46538   9.657   0.342   0.115  1.1260 -1.4412  2.9896
  345MOL0     H46539  10.131   0.287  -0.254  0.5063 -1.7119 -0.9143
  345MOL0     H46540  10.179   0.235  -0.496 -0.8630 -3.0596 -4.0696
  345MOL0     H46541  10.043   0.018  -0.813 -2.5144 -1.6915  1.4666
  345MOL0     H46542   9.927   0.097  -0.716 -0.8278 -3.7974  1.5230
  345MOL0     H46543  10.041   0.250  -0.865  0.8274  3.6776  0.1931
  345MOL0     H46544  10.083   0.297  -0.700 -0.3571  2.1239 -1.7323
  345MOL0     H46545  10.248   0.112  -0.894  1.8338  0.2941  0.6612
  345MOL0     H46546  10.303   0.190  -0.761 -1.6628 -3.3128 -0.2312
  345MOL0     H46547  10.344   0.306  -0.996  1.7439  1.5336  0.3816
  345MOL0     H46548  10.180   0.376  -0.985 -0.7451 -2.1979  1.1163
  345MOL0     H46549  10.406   0.407  -0.770  2.7497  1.1875 -2.3195
  345MOL0     H46550  10.242   0.475  -0.776 -0.0499 -3.6660  1.1046
  345MOL0     H46551  10.319   0.596  -0.997  0.1468 -0.6619 -1.3919
  345MOL0     H46552  10.405   0.630  -0.843  1.0071  0.0158 -1.7795
  345MOL0     H46553  10.507   0.441  -1.055  2.0086 -0.2091 -0.3269
  345MOL0     H46554  10.590   0.479  -0.900  2.3312  2.7284  1.0928
  345MOL0     H46555  10.520   0.699  -1.101 -1.8988 -2.3023  1.9093
  345MOL0     H46556  10.668   0.598  -1.122  0.2033  2.2812 -0.8639
  345MOL0     H46557   9.940  -0.097  -0.465  2.0793  0.7291 -2.2641
  345MOL0     H46558   9.832  -0.022  -0.254  1.1316 -1.8811 -1.3525
  345MOL0     H46559  10.140   0.096   0.188 -1.2211 -2.3721 -2.1456
  345MOL0     H46560  10.115   0.185   0.428 -1.5220 -2.3112  1.3444
  345MOL0     H46561   9.169   1.564   0.326  2.3652 -3.7677 -1.2603
  345MOL0     H46562   9.182   1.670   0.538  2.4872 -0.1580 -0.9449
  345MOL0     H46563   9.419   1.782   0.855  0.9263 -1.7752  0.6052
  345MOL0     H46564   9.463   1.903   1.075 -0.9214  3.0784 -4.2632
  345MOL0     H46565   9.099   2.015   1.286 -0.8938 -2.2281 -0.0841
  345MOL0     H46566   9.169   1.912   1.414 -0.0815  0.4643 -0.4796
  345MOL0     H46567   9.113   2.136   1.485 -1.3218 -0.8156 -2.6825
  345MOL0     H46568   9.234   2.205   1.372  0.9041 -0.6383 -1.4418
  345MOL0     H46569   9.345   2.216   1.585  2.4994 -1.0323  1.3043
  345MOL0     H46570   9.419   2.080   1.512  1.4245  0.2680  2.4889
  345MOL0     H46571   9.341   1.932   1.658 -0.5892  0.0146  1.9295
  345MOL0     H46572   9.175   1.978   1.656  0.1976 -0.7556 -1.1833
  345MOL0     H46573   9.297   2.210   1.985  0.0733 -2.7640  1.0506
  345MOL0     H46574   9.064   1.832   1.199 -0.3193 -1.5253 -0.6240
  345MOL0     H46575   9.034   1.687   1.011  2.5275 -2.9223 -2.1295
  346MOL0     O46576  10.151   0.476   4.081 -0.8773  0.3797 -0.0510
  346MOL0     C46577  10.080   0.546   4.149  0.5540 -0.2961  0.0539
  346MOL0     O46578  10.002   0.651   4.107  1.0806  0.2663  0.6492
  346MOL0     C46579  10.004   0.679   3.970 -0.1307 -0.9208 -0.6860
  346MOL0     C46580   9.976   0.592   3.868 -0.2110  0.3350 -0.8694
  346MOL0     C46581   9.978   0.630   3.732 -0.5509 -0.3454  0.1857
  346MOL0     C46582   9.986   0.770   3.702  0.1173 -0.1385 -0.8306
  346MOL0     O46583   9.970   0.803   3.567 -0.4198  0.5233  0.2042
  346MOL0     C46584   9.947   0.932   3.515 -0.2520 -0.4363  0.6907
  346MOL0     C46585   9.801   0.974   3.523  0.6963 -0.2254  0.2394
  346MOL0     C46586   9.784   1.122   3.484  0.2317  0.5541 -0.7684
  346MOL0     C46587   9.635   1.166   3.506  0.0024  0.8748  0.9593
  346MOL0     C46588   9.616   1.299   3.432 -0.3745  0.0189  0.1391
  346MOL0     C46589   9.491   1.375   3.461  0.0485 -0.2621  0.1845
  346MOL0     C46590   9.467   1.478   3.354  0.2970  0.7373 -0.4611
  346MOL0     C46591   9.355   1.570   3.396  0.2356  0.0546  0.6683
  346MOL0     N46592   9.338   1.679   3.307 -0.0993 -0.5126 -0.5024
  346MOL0     C46593   9.445   1.745   3.266  0.1685  0.2223  0.1704
  346MOL0     C46594   9.403   1.791   3.143 -0.3069 -0.3014  0.2748
  346MOL0     C46595   9.469   1.875   3.040 -0.0047  0.6767  0.0308
  346MOL0     C46596   9.534   1.784   2.944  0.7351  0.1154  0.1422
  346MOL0     C46597   9.612   1.853   2.823 -0.2008  0.1857 -0.2934
  346MOL0     C46598   9.766   1.812   2.822  0.0263  0.1001 -0.3496
  346MOL0     O46599   9.842   1.877   2.713 -0.2148  0.1570 -0.6044
  346MOL0     C46600   9.855   2.009   2.721 -1.3042  0.0264 -0.6485
  346MOL0     C46601   9.863   2.079   2.598 -0.0406  0.2806 -0.6359
  346MOL0     C46602   9.875   2.214   2.592  0.2865  0.7515  0.0517
  346MOL0     C46603   9.859   2.271   2.455  0.6626 -0.1617  0.1934
  346MOL0     C46604   9.880   2.292   2.710 -0.1292  1.2192 -0.7358
  346MOL0     C46605   9.875   2.439   2.703  0.4762 -0.8322  0.4621
  346MOL0     O46606   9.969   2.509   2.642  0.5654  0.3018  0.5725
  346MOL0     C46607   9.927   2.627   2.602  0.2998 -0.6468  0.5504
  346MOL0     C46608   9.911   2.732   2.699  0.5131  1.0470 -0.2725
  346MOL0     C46609   9.873   2.861   2.655 -1.0537 -0.1744 -0.3417
  346MOL0     C46610   9.853   2.882   2.513 -1.0373  0.3265 -0.1827
  346MOL0     O46611   9.802   3.006   2.481  0.2355 -0.5429 -0.0447
  346MOL0     C46612   9.846   3.083   2.368 -0.2814  0.4043 -0.2939
  346MOL0     C46613   9.819   3.226   2.409  0.1847 -0.0730  0.1165
  346MOL0     C46614   9.875   3.337   2.314  0.7864  0.1718 -0.3390
  346MOL0     C46615  10.006   3.389   2.369 -0.1198  0.2583 -0.5384
  346MOL0     C46616  10.078   3.481   2.270  0.0394 -0.4320 -0.6079
  346MOL0     C46617  10.118   3.429   2.132 -1.0173  0.5266  0.1037
  346MOL0     C46618  10.210   3.300   2.122  0.1916 -0.1805 -0.4845
  346MOL0     C46619  10.276   3.290   1.988  0.0513  0.1277  0.6349
  346MOL0    Cl46620  10.166   3.249   1.850 -0.0819  0.0284  0.3178
  346MOL0     C46621   9.866   2.775   2.421 -0.1114 -0.5648 -0.4810
  346MOL0     C46622   9.897   2.647   2.463 -0.5609  1.4156 -0.3192
  346MOL0     O46623   9.791   2.486   2.781 -1.4020  0.3741  0.2558
  346MOL0     C46624   9.880   2.222   2.832 -0.7505  0.0017 -0.0237
  346MOL0     C46625   9.878   2.083   2.839  0.3345 -0.0670 -1.0513
  346MOL0     N46626   9.276   1.766   3.118 -0.1920 -0.2632  0.0484
  346MOL0     N46627   9.232   1.695   3.218  0.6061  0.1233  0.6158
  346MOL0     C46628   9.998   0.866   3.808 -0.7484 -0.4476  0.2803
  346MOL0     C46629  10.019   0.824   3.935  0.5681  0.2427  0.6328
  346MOL0     C46630  10.082   0.541   4.294  0.0109  0.2587 -0.1280
  346MOL0     C46631   9.975   0.583   4.376  0.7283  0.6506 -0.1025
  346MOL0     C46632   9.976   0.543   4.510  0.7452  0.5233 -0.8115
  346MOL0     C46633  10.084   0.487   4.576 -0.3954 -0.3797  0.2887
  346MOL0     O46634  10.071   0.470   4.714 -0.4422 -0.0640 -0.8631
  346MOL0     C46635  10.177   0.425   4.797 -0.5706  0.2540  0.0540
  346MOL0     C46636  10.240   0.551   4.854 -0.0063 -0.3933  0.2159
  346MOL0     C46637  10.340   0.492   4.955  0.1802  0.2832  0.4796
  346MOL0     C46638  10.402   0.598   5.041 -0.3324  0.0848 -0.1841
  346MOL0     C46639  10.314   0.677   5.126 -0.8237  0.8280  0.2232
  346MOL0     C46640  10.247   0.759   5.187  0.1409 -0.3145 -0.1078
  346MOL0     C46641  10.201   0.460   4.497 -0.3172  0.1587 -0.3076
  346MOL0     C46642  10.196   0.477   4.362 -1.0067  0.1059 -0.1121
  346MOL0     H46643   9.972   0.486   3.891 -0.3069  0.6842  0.8844
  346MOL0     H46644   9.975   0.555   3.653 -0.0697  0.0611 -0.2262
  346MOL0     H46645  10.009   1.011   3.557 -1.1826  0.5193  0.3250
  346MOL0     H46646   9.976   0.934   3.410  0.2808 -1.1626  0.8168
  346MOL0     H46647   9.733   0.923   3.455  2.5901 -3.9435  0.8646
  346MOL0     H46648   9.757   0.947   3.620 -0.0469 -2.9518 -0.7627
  346MOL0     H46649   9.860   1.186   3.530 -0.3214  1.4033 -1.0227
  346MOL0     H46650   9.818   1.115   3.380  4.3841 -1.9522  0.5008
  346MOL0     H46651   9.561   1.094   3.469  1.0643 -0.7285  1.8654
  346MOL0     H46652   9.614   1.183   3.612 -1.8869  1.9433  0.4720
  346MOL0     H46653   9.702   1.362   3.457 -1.1581  3.2485 -4.1828
  346MOL0     H46654   9.624   1.271   3.327  2.0727  2.6543 -0.4868
  346MOL0     H46655   9.402   1.312   3.450 -1.0581  1.2998 -0.1971
  346MOL0     H46656   9.503   1.424   3.558  0.4579  2.6956 -1.2665
  346MOL0     H46657   9.560   1.534   3.339  1.6351 -0.5401  2.2892
  346MOL0     H46658   9.431   1.416   3.271 -2.2406 -1.5470  2.1166
  346MOL0     H46659   9.377   1.614   3.494  2.8553  0.5541 -0.0526
  346MOL0     H46660   9.258   1.522   3.411  0.0327  0.5848  1.0855
  346MOL0     H46661   9.542   1.756   3.314  0.7475 -3.1332  0.0102
  346MOL0     H46662   9.399   1.937   2.983 -0.5444  0.1119  0.0612
  346MOL0     H46663   9.535   1.945   3.092 -0.1733 -0.4420  1.8403
  346MOL0     H46664   9.452   1.733   2.891 -2.4768  1.5265  3.3657
  346MOL0     H46665   9.591   1.712   3.004  0.9486  1.0269  1.0636
  346MOL0     H46666   9.600   1.961   2.822  1.3695  0.3782 -0.5831
  346MOL0     H46667   9.578   1.817   2.726  1.2310 -3.7195  0.4601
  346MOL0     H46668   9.768   1.702   2.815 -0.4043  0.1476 -1.3727
  346MOL0     H46669   9.810   1.829   2.921  1.3721 -0.4653 -0.8117
  346MOL0     H46670   9.856   2.017   2.509 -3.4309 -0.7010  0.1659
  346MOL0     H46671   9.885   2.199   2.376  1.5116 -0.2210  0.5144
  346MOL0     H46672   9.754   2.301   2.455  0.4642 -0.8377  0.9229
  346MOL0     H46673   9.917   2.362   2.439 -3.3142  2.3833 -1.3536
  346MOL0     H46674   9.928   2.715   2.805  0.8666 -1.8822 -0.7205
  346MOL0     H46675   9.867   2.937   2.733  0.6880 -2.6061  2.3637
  346MOL0     H46676   9.950   3.065   2.337 -0.3912 -0.6535 -0.0751
  346MOL0     H46677   9.781   3.062   2.282 -1.1744 -2.2568  0.9308
  346MOL0     H46678   9.710   3.229   2.403 -0.2640 -5.2415 -5.9976
  346MOL0     H46679   9.861   3.248   2.508  3.2304 -0.3855 -0.9972
  346MOL0     H46680   9.799   3.415   2.297 -0.0929 -0.3946  0.9291
  346MOL0     H46681   9.897   3.287   2.219  0.3650  0.8702 -0.8243
  346MOL0     H46682   9.988   3.443   2.462  0.5339 -0.8426  0.2640
  346MOL0     H46683  10.070   3.303   2.392 -1.8012 -1.2098 -1.1156
  346MOL0     H46684  10.173   3.512   2.314 -0.2143 -0.7562  0.1789
  346MOL0     H46685  10.009   3.565   2.261  0.2978  0.1042  1.8148
  346MOL0     H46686  10.027   3.416   2.073 -1.4116  1.0636  0.5862
  346MOL0     H46687  10.177   3.508   2.084 -0.1190  1.0038  1.8630
  346MOL0     H46688  10.157   3.208   2.146  3.0495 -1.3290  2.0181
  346MOL0     H46689  10.285   3.301   2.202 -0.0572  1.4451 -0.2352
  346MOL0     H46690  10.357   3.217   1.978  2.0036  2.1892  0.6720
  346MOL0     H46691  10.317   3.390   1.971 -1.0646  0.7991  1.7135
  346MOL0     H46692   9.855   2.794   2.315  0.2673 -0.9292 -0.5861
  346MOL0     H46693   9.909   2.558   2.403 -0.7672  1.4333 -0.3874
  346MOL0     H46694   9.869   2.278   2.924 -2.4926 -0.9057  0.3587
  346MOL0     H46695   9.884   2.038   2.937 -0.8924 -0.3832 -1.1083
  346MOL0     H46696  10.000   0.971   3.783 -1.7198 -0.5391 -0.2511
  346MOL0     H46697  10.033   0.890   4.020 -0.1457  2.0666 -0.5963
  346MOL0     H46698   9.891   0.641   4.339  2.6164  2.3320 -2.0799
  346MOL0     H46699   9.888   0.572   4.567  0.0774  3.3298 -3.0475
  346MOL0     H46700  10.136   0.360   4.874  3.2089  0.2619  2.3108
  346MOL0     H46701  10.257   0.368   4.750  1.6328  3.2803 -0.1219
  346MOL0     H46702  10.168   0.619   4.900  3.2593  1.9943  2.2267
  346MOL0     H46703  10.291   0.609   4.776  0.6961 -0.3317  0.7156
  346MOL0     H46704  10.427   0.445   4.908  2.4184  2.7509  1.9337
  346MOL0     H46705  10.293   0.431   5.034  2.6356  3.9059  5.2476
  346MOL0     H46706  10.460   0.672   4.985  1.6545  0.3896  2.0965
  346MOL0     H46707  10.468   0.553   5.116 -0.0358  0.7686 -0.0221
  346MOL0     H46708  10.188   0.838   5.227  0.7072 -1.5813  3.6116
  346MOL0     H46709  10.287   0.434   4.558 -2.6622 -2.4244  2.2332
  346MOL0     H46710  10.286   0.445   4.310 -2.0518  0.5215 -2.2338
  347MOL0     O46711   0.874   4.919   2.229  0.3242  0.8312  0.1972
  347MOL0     C46712   0.818   4.949   2.123  0.3703 -0.0244  0.0981
  347MOL0     O46713   0.870   5.014   2.031 -0.7120  0.5743  0.0567
  347MOL0     C46714   0.984   5.077   2.055 -0.3810  0.2305 -0.2092
  347MOL0     C46715   0.981   5.214   2.076  0.6732 -1.0590  0.1728
  347MOL0     C46716   1.103   5.280   2.096 -0.2513 -0.6410  0.7304
  347MOL0     C46717   1.226   5.224   2.055  0.3386  0.3523  0.3827
  347MOL0     O46718   1.352   5.277   2.054  0.1258 -0.0162  0.1731
  347MOL0     C46719   1.367   5.422   2.053  0.0948  0.0661  0.6003
  347MOL0     C46720   1.518   5.456   2.057 -0.0093 -0.5140 -1.0734
  347MOL0     C46721   1.580   5.450   1.912  0.1650  0.7288  1.0663
  347MOL0     C46722   1.728   5.465   1.928 -0.1728  0.3581  0.8988
  347MOL0     C46723   1.793   5.479   1.789 -0.5071  0.4888  0.4327
  347MOL0     C46724   1.940   5.517   1.814 -0.0993  0.2153 -0.1282
  347MOL0     C46725   2.016   5.548   1.692 -0.0780 -0.0776  1.1068
  347MOL0     C46726   2.034   5.430   1.593  1.2663 -0.5038 -0.7565
  347MOL0     N46727   2.163   5.378   1.609 -0.4750  0.3189  0.2764
  347MOL0     C46728   2.278   5.449   1.588  0.3911  0.1298 -0.1194
  347MOL0     C46729   2.377   5.373   1.652  0.6594 -0.1610 -0.1872
  347MOL0     C46730   2.517   5.404   1.649 -0.8064  0.0919  0.3824
  347MOL0     C46731   2.605   5.316   1.540  0.3150  0.0242 -0.8390
  347MOL0     C46732   2.647   5.169   1.595 -0.3434 -0.0045 -0.1981
  347MOL0     C46733   2.678   5.084   1.470 -0.4345 -1.0912  0.3777
  347MOL0     O46734   2.827   5.102   1.446 -0.1425 -0.4308  0.9516
  347MOL0     C46735   2.885   5.030   1.344 -0.2547  0.5373 -0.0561
  347MOL0     C46736   2.816   4.988   1.224  0.0850  1.4566 -0.2506
  347MOL0     C46737   2.878   4.906   1.137  0.8383  0.0808 -0.5661
  347MOL0     C46738   2.790   4.853   1.020  0.1184  0.4451 -0.9100
  347MOL0     C46739   3.016   4.868   1.152 -0.7159 -0.8576 -0.1696
  347MOL0     C46740   3.093   4.778   1.069 -0.1424  0.8609 -0.6577
  347MOL0     O46741   3.206   4.705   1.116  0.7067  0.2826 -1.0202
  347MOL0     C46742   3.258   4.608   1.032 -0.2669  0.1258  1.3096
  347MOL0     C46743   3.389   4.614   0.985  0.3844  1.2060  0.0508
  347MOL0     C46744   3.432   4.508   0.892  0.0895 -1.2786 -0.4531
  347MOL0     C46745   3.350   4.405   0.857  0.2738  0.7170  0.5725
  347MOL0     O46746   3.396   4.317   0.765 -0.3387 -0.2122 -0.0342
  347MOL0     C46747   3.416   4.191   0.822  1.0934  0.3477  0.1114
  347MOL0     C46748   3.450   4.100   0.705  1.8104  0.3170 -0.1163
  347MOL0     C46749   3.363   4.090   0.575  1.2851 -0.1901  0.6652
  347MOL0     C46750   3.285   3.960   0.556 -0.8397  0.3431 -0.5627
  347MOL0     C46751   3.169   3.979   0.456 -0.2567 -0.6983 -0.7341
  347MOL0     C46752   3.074   3.857   0.451 -0.5499 -0.3814  0.2760
  347MOL0     C46753   3.139   3.739   0.416  0.7951 -0.2053 -0.1983
  347MOL0     C46754   3.041   3.615   0.400  0.4474 -0.4560  0.5512
  347MOL0    Cl46755   3.142   3.462   0.385  0.1588 -0.3680 -0.0077
  347MOL0     C46756   3.221   4.394   0.914  0.8422  0.6184  0.5631
  347MOL0     C46757   3.170   4.495   0.999 -1.0813 -0.3962 -0.0589
  347MOL0     O46758   3.063   4.775   0.952  0.1384  0.5033 -0.4917
  347MOL0     C46759   3.083   4.912   1.264 -0.2394  0.3688 -0.4671
  347MOL0     C46760   3.019   4.987   1.368 -0.3362 -0.5701  0.0897
  347MOL0     N46761   2.307   5.261   1.700  0.7363  0.0059  0.5390
  347MOL0     N46762   2.183   5.268   1.683 -0.5506 -0.4168 -0.5919
  347MOL0     C46763   1.225   5.081   2.043  0.3130  0.0215  0.4434
  347MOL0     C46764   1.104   5.006   2.052  0.3956  0.4529  0.0557
  347MOL0     C46765   0.668   4.929   2.120  0.0921  0.2217  0.7145
  347MOL0     C46766   0.602   4.859   2.219 -0.2434  0.8231 -0.2517
  347MOL0     C46767   0.465   4.856   2.241 -1.0928 -0.0668  0.6252
  347MOL0     C46768   0.387   4.907   2.144 -0.8190 -1.6065  0.0165
  347MOL0     O46769   0.260   4.889   2.175 -0.1644  0.9099 -0.1885
  347MOL0     C46770   0.172   4.991   2.153  1.6809 -0.2583 -0.3361
  347MOL0     C46771   0.134   5.054   2.289  0.9388 -0.2434  0.4049
  347MOL0     C46772   0.032   5.167   2.266  0.2016  0.9040 -0.4738
  347MOL0     C46773  -0.111   5.108   2.243 -0.9595 -0.5316 -0.1337
  347MOL0     C46774  -0.212   5.185   2.305 -0.1698  0.1248 -0.1879
  347MOL0     C46775  -0.286   5.246   2.388 -0.0129 -0.7166  0.0605
  347MOL0     C46776   0.443   4.959   2.028  0.4054  0.2739 -0.0578
  347MOL0     C46777   0.582   4.972   2.011  0.2026  0.5118  0.6837
  347MOL0     H46778   0.889   5.270   2.087  1.1509  0.1380 -1.5153
  347MOL0     H46779   1.109   5.388   2.107 -0.0725 -0.3504 -1.6890
  347MOL0     H46780   1.328   5.481   1.970  0.9710  0.6497  0.5825
  347MOL0     H46781   1.322   5.467   2.142  1.5749  0.9854  0.9297
  347MOL0     H46782   1.524   5.559   2.091  2.2308  0.4796 -4.0696
  347MOL0     H46783   1.559   5.379   2.123 -2.1941 -1.7933 -1.1223
  347MOL0     H46784   1.563   5.359   1.853 -0.5551  1.7634 -0.4001
  347MOL0     H46785   1.539   5.535   1.856 -2.1454 -2.8362 -3.3083
  347MOL0     H46786   1.720   5.564   1.975 -5.4664  0.9778 -0.6631
  347MOL0     H46787   1.769   5.381   1.985  0.0964 -0.4085 -0.3995
  347MOL0     H46788   1.787   5.379   1.747  1.6454  0.3124  0.4686
  347MOL0     H46789   1.743   5.551   1.722 -1.7472 -1.3327 -0.6836
  347MOL0     H46790   1.943   5.603   1.882 -0.1552 -0.3372  0.5856
  347MOL0     H46791   1.979   5.433   1.873 -1.1892  1.5723  2.7359
  347MOL0     H46792   1.970   5.631   1.639  1.1708  1.1032  1.8025
  347MOL0     H46793   2.115   5.581   1.725 -0.2292  1.8475 -0.2637
  347MOL0     H46794   2.020   5.473   1.493 -0.7999 -2.4988 -1.3993
  347MOL0     H46795   1.952   5.360   1.612 -1.3287  2.1810 -1.3629
  347MOL0     H46796   2.289   5.553   1.558 -4.0317  1.4414  1.9290
  347MOL0     H46797   2.535   5.507   1.617  0.5921 -1.0459 -2.9461
  347MOL0     H46798   2.572   5.390   1.742  3.8442  1.2730 -1.9141
  347MOL0     H46799   2.702   5.368   1.544 -0.2325  1.1917 -2.0477
  347MOL0     H46800   2.563   5.317   1.439  1.2226  0.2258 -1.2277
  347MOL0     H46801   2.561   5.127   1.647  0.4155 -0.5040  0.6747
  347MOL0     H46802   2.735   5.174   1.660 -0.1997  2.0322 -0.4799
  347MOL0     H46803   2.625   5.103   1.377  1.3082 -0.8652 -0.6188
  347MOL0     H46804   2.647   4.981   1.492  0.7385 -1.5618 -0.0508
  347MOL0     H46805   2.709   5.004   1.213 -0.9294 -1.6971  3.0863
  347MOL0     H46806   2.755   4.751   1.036  0.8018  0.4521  0.9472
  347MOL0     H46807   2.699   4.911   1.003 -0.7207 -1.5169 -3.7077
  347MOL0     H46808   2.840   4.856   0.923 -1.6720 -2.2732 -2.0086
  347MOL0     H46809   3.445   4.700   1.018  1.0654  0.6607  0.3403
  347MOL0     H46810   3.528   4.503   0.841  1.3320 -2.9165  1.8842
  347MOL0     H46811   3.495   4.180   0.897 -0.4453 -0.7578  1.6437
  347MOL0     H46812   3.326   4.155   0.874  0.2769  2.3104  0.1191
  347MOL0     H46813   3.553   4.130   0.684  1.7767  2.1175  1.9043
  347MOL0     H46814   3.448   4.002   0.752  0.6809  0.7471  0.7879
  347MOL0     H46815   3.431   4.095   0.489  1.9386 -1.9057  1.0509
  347MOL0     H46816   3.293   4.174   0.578  1.5729  0.0930 -0.2407
  347MOL0     H46817   3.355   3.883   0.521 -0.0243  0.2328  1.2138
  347MOL0     H46818   3.253   3.918   0.652  1.8192 -0.7297 -0.0598
  347MOL0     H46819   3.212   3.995   0.356 -0.8490  2.2274 -0.6234
  347MOL0     H46820   3.105   4.065   0.479 -0.5731 -0.9961 -0.4990
  347MOL0     H46821   3.039   3.840   0.553  1.3785 -2.1441  0.7184
  347MOL0     H46822   3.000   3.890   0.378 -0.2746  0.1237  0.2206
  347MOL0     H46823   3.211   3.711   0.494 -0.7218  0.3566  1.4660
  347MOL0     H46824   3.189   3.748   0.320 -3.2972 -1.0429 -2.6617
  347MOL0     H46825   2.981   3.625   0.309 -1.7086 -1.2546  1.7955
  347MOL0     H46826   2.961   3.622   0.474  0.3594 -0.1803  0.4341
  347MOL0     H46827   3.161   4.309   0.882 -0.4001  1.4900  0.4903
  347MOL0     H46828   3.073   4.496   1.048 -1.3520 -2.9677 -0.3835
  347MOL0     H46829   3.189   4.891   1.272 -0.3834 -0.1103  0.1807
  347MOL0     H46830   3.069   5.017   1.460  1.1445  1.1723 -1.2038
  347MOL0     H46831   1.318   5.033   2.016 -0.0122 -0.1081 -0.4765
  347MOL0     H46832   1.108   4.898   2.063  3.1908  0.2110 -2.1729
  347MOL0     H46833   0.665   4.821   2.299 -3.4217  0.8786  2.5281
  347MOL0     H46834   0.435   4.794   2.325  1.3477 -1.0073  0.8852
  347MOL0     H46835   0.212   5.072   2.090  4.2483 -0.6661  0.6538
  347MOL0     H46836   0.095   4.941   2.094  0.1205  2.1982 -0.5348
  347MOL0     H46837   0.227   5.097   2.326  3.2390 -1.4923 -3.3359
  347MOL0     H46838   0.106   4.980   2.364  0.9752 -0.1136  0.5463
  347MOL0     H46839   0.079   5.232   2.192  2.3448  0.6494  0.5905
  347MOL0     H46840   0.040   5.235   2.351  2.5555  1.6520 -1.2390
  347MOL0     H46841  -0.117   5.006   2.283 -1.6075  0.2486  1.9061
  347MOL0     H46842  -0.120   5.102   2.135 -1.1839  3.1860 -0.4269
  347MOL0     H46843  -0.341   5.321   2.441 -1.0600  1.4624 -3.7663
  347MOL0     H46844   0.380   4.978   1.941  0.2841  1.8245  0.3581
  347MOL0     H46845   0.625   5.020   1.924  1.3696  0.0477  0.9815
  348MOL0     O46846   1.223   0.568   0.760  0.4725 -0.7054 -0.2238
  348MOL0     C46847   1.219   0.461   0.816  0.2462 -0.8679 -0.6785
  348MOL0     O46848   1.138   0.440   0.927  0.1351  0.6751  0.1850
  348MOL0     C46849   1.036   0.531   0.951  0.8864  0.5924 -0.7160
  348MOL0     C46850   1.017   0.557   1.090 -0.1734  0.2950 -1.0736
  348MOL0     C46851   0.914   0.648   1.132 -0.8148 -0.0392  0.4770
  348MOL0     C46852   0.828   0.698   1.030 -0.5819  0.2708  0.5810
  348MOL0     O46853   0.723   0.773   1.074 -0.2235  0.7954  0.6951
  348MOL0     C46854   0.596   0.762   1.016  0.0185 -1.0908  0.3396
  348MOL0     C46855   0.510   0.777   1.135  0.5157 -1.2297 -0.7393
  348MOL0     C46856   0.513   0.909   1.200 -0.5499 -0.2880  0.5881
  348MOL0     C46857   0.413   0.918   1.307  0.9809  0.1288 -0.6552
  348MOL0     C46858   0.452   1.027   1.415  0.8760 -0.3626  1.1088
  348MOL0     C46859   0.334   1.120   1.445 -0.2256 -0.1598  1.0173
  348MOL0     C46860   0.216   1.038   1.489  1.0714  0.0626  0.2774
  348MOL0     C46861   0.236   0.962   1.617 -0.0148  0.9578 -0.3289
  348MOL0     N46862   0.121   0.910   1.676  0.3494 -0.0489  1.1710
  348MOL0     C46863   0.035   0.822   1.605 -0.6826 -0.3472  0.6114
  348MOL0     C46864  -0.084   0.856   1.648  0.7644 -0.2326  0.1753
  348MOL0     C46865  -0.211   0.818   1.569 -0.2529  0.6981  0.6448
  348MOL0     C46866  -0.306   0.725   1.643 -0.6648  0.4717  0.2325
  348MOL0     C46867  -0.364   0.617   1.552 -0.6755 -0.4394  0.5905
  348MOL0     C46868  -0.437   0.507   1.634  0.7771 -0.6482 -0.4136
  348MOL0     O46869  -0.453   0.394   1.542 -0.6170  0.9988  0.5465
  348MOL0     C46870  -0.392   0.288   1.608  0.6907 -1.1258 -0.3338
  348MOL0     C46871  -0.256   0.278   1.612  0.4214 -0.2174 -0.6207
  348MOL0     C46872  -0.191   0.170   1.676  0.2732 -0.4154  1.0162
  348MOL0     C46873  -0.039   0.181   1.675 -0.2926  0.8562 -0.0489
  348MOL0     C46874  -0.268   0.060   1.723  0.6168  0.5474  0.3979
  348MOL0     C46875  -0.205  -0.050   1.791  0.0221  0.6787 -0.3262
  348MOL0     O46876  -0.279  -0.091   1.896  0.4808  0.0401  0.1016
  348MOL0     C46877  -0.242  -0.199   1.972 -0.2864  0.1244 -0.0750
  348MOL0     C46878  -0.184  -0.320   1.918  0.6200  0.8481  0.4223
  348MOL0     C46879  -0.146  -0.435   2.002  0.0785 -0.1792  0.2386
  348MOL0     C46880  -0.166  -0.422   2.142  0.6911  0.0057 -0.2332
  348MOL0     O46881  -0.110  -0.516   2.227  1.2787 -0.3992 -0.0697
  348MOL0     C46882  -0.116  -0.506   2.370 -0.2618 -0.8131 -0.6245
  348MOL0     C46883  -0.081  -0.638   2.431  0.4530  0.3698  0.5135
  348MOL0     C46884  -0.182  -0.751   2.381 -0.8086 -0.2822  0.0546
  348MOL0     C46885  -0.145  -0.890   2.434  0.1407 -0.0733  0.7207
  348MOL0     C46886  -0.212  -0.919   2.569  0.0144 -0.3204  0.7876
  348MOL0     C46887  -0.341  -0.993   2.544  0.1396 -0.4066  0.3604
  348MOL0     C46888  -0.397  -1.051   2.671  0.8130 -0.1097  0.5211
  348MOL0     C46889  -0.542  -1.119   2.660  0.8483  0.9091 -0.0769
  348MOL0    Cl46890  -0.572  -1.209   2.521 -0.5366  0.3140 -0.5135
  348MOL0     C46891  -0.237  -0.308   2.186  0.2763 -0.7302 -0.0827
  348MOL0     C46892  -0.277  -0.200   2.105 -0.2245 -0.1340 -1.0461
  348MOL0     O46893  -0.101  -0.096   1.749 -0.4798  0.6852  0.2356
  348MOL0     C46894  -0.409   0.070   1.720  0.5713  0.3137  0.3175
  348MOL0     C46895  -0.466   0.190   1.678  0.1776  0.4585  0.2810
  348MOL0     N46896  -0.072   0.939   1.751  1.0018 -0.4690 -0.4688
  348MOL0     N46897   0.052   0.972   1.768  0.1562 -0.3411 -0.0494
  348MOL0     C46898   0.846   0.657   0.901 -1.1116  0.1391  0.0624
  348MOL0     C46899   0.954   0.578   0.857 -0.0293 -0.0197  0.0798
  348MOL0     C46900   1.315   0.350   0.784  0.0914 -0.0220 -0.3189
  348MOL0     C46901   1.405   0.346   0.675  0.3487 -0.7545  0.6176
  348MOL0     C46902   1.489   0.240   0.646 -0.4765  0.4595  0.1293
  348MOL0     C46903   1.471   0.121   0.725 -0.4112  0.3148 -0.0042
  348MOL0     O46904   1.543   0.007   0.698 -0.6592 -0.3286 -0.6619
  348MOL0     C46905   1.584  -0.019   0.563  0.1116 -0.0753 -0.6547
  348MOL0     C46906   1.457  -0.077   0.491  0.4463  0.2781  0.1403
  348MOL0     C46907   1.518  -0.156   0.372  0.3763 -0.7541 -0.3550
  348MOL0     C46908   1.424  -0.218   0.273  0.3479  1.0366 -0.4303
  348MOL0     C46909   1.365  -0.339   0.337  0.0641 -0.1891 -1.2483
  348MOL0     C46910   1.321  -0.439   0.381 -0.5884  0.5116  1.1305
  348MOL0     C46911   1.387   0.116   0.833 -0.3275  1.2859  0.5045
  348MOL0     C46912   1.309   0.232   0.851 -0.3309  1.2782 -0.1762
  348MOL0     H46913   1.082   0.517   1.167 -1.1945 -3.3606 -1.9493
  348MOL0     H46914   0.879   0.681   1.229 -1.3299 -1.4629  0.8116
  348MOL0     H46915   0.584   0.842   0.943 -2.5955 -0.6686  1.1164
  348MOL0     H46916   0.581   0.666   0.965  0.7648 -0.9593 -0.1446
  348MOL0     H46917   0.405   0.757   1.109  0.2893 -0.0529 -0.7822
  348MOL0     H46918   0.537   0.703   1.211 -0.8637 -0.9473  0.0810
  348MOL0     H46919   0.610   0.911   1.250 -0.5751 -1.9088  0.7641
  348MOL0     H46920   0.513   0.990   1.127 -2.8524 -1.0734 -0.4114
  348MOL0     H46921   0.314   0.945   1.270  0.0108 -0.4963  1.3254
  348MOL0     H46922   0.391   0.825   1.361 -1.0596  2.0595  2.1062
  348MOL0     H46923   0.484   0.978   1.507 -0.2051 -0.6885  1.3228
  348MOL0     H46924   0.534   1.089   1.377 -0.3304 -1.1585 -3.4540
  348MOL0     H46925   0.344   1.201   1.518 -1.1578 -0.1060  1.0946
  348MOL0     H46926   0.300   1.167   1.353 -1.5994  0.5403  1.8487
  348MOL0     H46927   0.134   1.109   1.502  1.4146  0.9570 -2.0126
  348MOL0     H46928   0.184   0.969   1.410  1.3803 -0.8242  0.8976
  348MOL0     H46929   0.264   1.031   1.697 -1.5115 -0.0938  1.1820
  348MOL0     H46930   0.305   0.877   1.610 -1.8623 -0.8147  1.3313
  348MOL0     H46931   0.060   0.773   1.512 -0.7104 -1.6348  1.2641
  348MOL0     H46932  -0.272   0.908   1.558 -2.2971 -0.0832  3.9914
  348MOL0     H46933  -0.173   0.770   1.479  3.6028 -1.9874  3.3628
  348MOL0     H46934  -0.391   0.787   1.673 -1.3516 -0.3930  0.0992
  348MOL0     H46935  -0.249   0.676   1.722 -3.0405  0.8468  2.2751
  348MOL0     H46936  -0.275   0.570   1.510 -0.3235  0.2379  0.5682
  348MOL0     H46937  -0.429   0.667   1.480 -0.4908 -2.7279 -1.2740
  348MOL0     H46938  -0.531   0.549   1.672  1.0025  0.8660 -1.4185
  348MOL0     H46939  -0.387   0.484   1.728 -0.5501 -2.8890 -0.1895
  348MOL0     H46940  -0.202   0.364   1.575 -1.3930  1.0528 -0.4832
  348MOL0     H46941   0.015   0.097   1.630  1.3840  2.0791 -0.4128
  348MOL0     H46942  -0.010   0.267   1.614  0.2862 -0.7288 -2.1481
  348MOL0     H46943  -0.012   0.188   1.780 -1.5739  0.9584  0.2990
  348MOL0     H46944  -0.176  -0.343   1.812  2.5949 -5.0814  1.4667
  348MOL0     H46945  -0.090  -0.514   1.954 -2.0319 -0.3587 -2.1073
  348MOL0     H46946  -0.062  -0.419   2.408 -2.6794  0.4682  0.0801
  348MOL0     H46947  -0.219  -0.493   2.404 -0.7452 -4.2547 -0.3418
  348MOL0     H46948   0.022  -0.669   2.411 -0.2992 -2.0387 -0.0317
  348MOL0     H46949  -0.090  -0.640   2.540 -2.1452  0.9433  0.3699
  348MOL0     H46950  -0.164  -0.763   2.273  3.2388  0.5023  0.4681
  348MOL0     H46951  -0.287  -0.723   2.394 -0.1899  2.9722 -1.0786
  348MOL0     H46952  -0.175  -0.959   2.355 -0.5923  0.0487  0.8802
  348MOL0     H46953  -0.036  -0.889   2.444  0.6698 -1.0175 -3.1544
  348MOL0     H46954  -0.232  -0.826   2.623  0.2407 -0.1721  0.6134
  348MOL0     H46955  -0.143  -0.978   2.630 -4.2197 -3.4197  3.1798
  348MOL0     H46956  -0.423  -0.932   2.504 -2.1241 -0.7977  3.9381
  348MOL0     H46957  -0.319  -1.079   2.481 -1.2864 -0.2176 -0.4402
  348MOL0     H46958  -0.397  -0.969   2.744 -1.4258  0.6131 -0.2291
  348MOL0     H46959  -0.315  -1.114   2.707  1.7178 -0.2152 -1.6142
  348MOL0     H46960  -0.625  -1.050   2.677 -0.4590 -1.3288  3.7314
  348MOL0     H46961  -0.549  -1.189   2.743  0.8514  1.3197  0.2698
  348MOL0     H46962  -0.247  -0.295   2.294  1.1073 -3.3518  0.3840
  348MOL0     H46963  -0.314  -0.115   2.161 -1.4780 -0.3994 -1.4392
  348MOL0     H46964  -0.473  -0.008   1.761 -0.8146  1.4360  0.3821
  348MOL0     H46965  -0.573   0.196   1.664  0.0244 -0.7741  0.8167
  348MOL0     H46966   0.765   0.684   0.835 -3.4132 -0.7562  2.3723
  348MOL0     H46967   0.976   0.546   0.755 -2.6882 -2.9423  0.2436
  348MOL0     H46968   1.418   0.431   0.609 -0.4867 -0.4634  0.8175
  348MOL0     H46969   1.566   0.244   0.571 -0.2360 -0.7905  0.2854
  348MOL0     H46970   1.625   0.066   0.507  0.5301 -0.3300 -0.7448
  348MOL0     H46971   1.664  -0.092   0.580  0.3829  0.8663  2.7749
  348MOL0     H46972   1.401   0.011   0.457 -0.1110  0.2999  1.0760
  348MOL0     H46973   1.388  -0.135   0.553  1.7100 -1.2037  0.2108
  348MOL0     H46974   1.582  -0.236   0.411 -0.2726 -1.8677 -1.4724
  348MOL0     H46975   1.580  -0.090   0.310 -0.3484 -1.8619 -2.3594
  348MOL0     H46976   1.486  -0.255   0.191  1.0849  2.4874 -0.5561
  348MOL0     H46977   1.346  -0.159   0.225 -0.8337 -1.1337 -1.3200
  348MOL0     H46978   1.275  -0.532   0.408 -3.9646  0.4085 -3.5499
  348MOL0     H46979   1.385   0.032   0.901 -0.4377 -0.6396 -1.7750
  348MOL0     H46980   1.240   0.224   0.934  0.9183  1.3582  0.8877
  349MOL0     O46981   6.484   2.066   3.232  0.2714  0.4018 -0.9337
  349MOL0     C46982   6.394   1.981   3.218 -0.4936  0.0271 -0.5681
  349MOL0     O46983   6.376   1.865   3.297 -0.0655 -0.6970  0.7748
  349MOL0     C46984   6.466   1.804   3.380 -0.0257 -1.1047 -0.2235
  349MOL0     C46985   6.604   1.805   3.347  0.9464 -0.1764  0.4217
  349MOL0     C46986   6.694   1.734   3.431 -0.5789 -0.1059 -0.0166
  349MOL0     C46987   6.648   1.645   3.534  0.4085 -0.4649 -0.1024
  349MOL0     O46988   6.736   1.601   3.625  0.2246  0.3133 -0.3242
  349MOL0     C46989   6.776   1.687   3.734 -0.2131 -0.3373  1.4738
  349MOL0     C46990   6.908   1.734   3.707 -0.3121  0.8965 -0.4676
  349MOL0     C46991   6.949   1.847   3.800 -0.4286  0.7188 -0.4797
  349MOL0     C46992   7.096   1.871   3.785  0.7012  0.6286 -0.4848
  349MOL0     C46993   7.134   1.960   3.904 -0.9177  0.7620  0.5024
  349MOL0     C46994   7.264   2.036   3.880 -0.1016  0.7978  0.4481
  349MOL0     C46995   7.313   2.121   4.001  0.7070 -0.5148 -0.0042
  349MOL0     C46996   7.461   2.162   3.992 -0.0936 -0.2216  0.5850
  349MOL0     N46997   7.553   2.052   3.981  0.2848  0.3958 -0.5097
  349MOL0     C46998   7.599   2.004   3.855 -0.2051  0.0100 -0.3995
  349MOL0     C46999   7.664   1.893   3.891 -1.0153 -0.2578  0.0464
  349MOL0     C47000   7.699   1.782   3.800  0.3332  0.1087 -0.4263
  349MOL0     C47001   7.816   1.817   3.708 -0.6143  0.1240  0.7121
  349MOL0     C47002   7.938   1.870   3.781 -0.1758  0.4815 -0.6352
  349MOL0     C47003   8.002   1.770   3.874 -0.9579  0.4039  0.2488
  349MOL0     O47004   8.141   1.803   3.874 -0.4056  0.1420  0.8971
  349MOL0     C47005   8.220   1.730   3.963 -0.3673  0.2241 -0.0004
  349MOL0     C47006   8.360   1.734   3.930 -0.5282  1.0847  1.0446
  349MOL0     C47007   8.456   1.662   4.001 -0.7697 -0.5582  0.9466
  349MOL0     C47008   8.603   1.688   3.950  0.2481 -0.3829 -0.6791
  349MOL0     C47009   8.423   1.591   4.112  1.0271  0.1655  0.2277
  349MOL0     C47010   8.511   1.519   4.201 -0.9457  0.0477 -0.1955
  349MOL0     O47011   8.450   1.415   4.259 -0.2019 -0.4680 -0.8431
  349MOL0     C47012   8.511   1.357   4.364  0.0254  0.6037  0.2199
  349MOL0     C47013   8.585   1.240   4.347  0.2833 -0.2783  0.0388
  349MOL0     C47014   8.626   1.163   4.455 -0.1494  0.0305  0.6678
  349MOL0     C47015   8.587   1.198   4.588  0.0474 -0.8465  0.0267
  349MOL0     O47016   8.630   1.107   4.688  0.1317  0.4072  1.0162
  349MOL0     C47017   8.742   1.150   4.766 -0.8671 -0.1850  0.0728
  349MOL0     C47018   8.781   1.052   4.872 -0.0682 -0.2325  0.0728
  349MOL0     C47019   8.929   1.032   4.900  0.2852  0.5033 -0.3948
  349MOL0     C47020   8.955   0.918   5.000  0.1491  0.4987 -0.1154
  349MOL0     C47021   9.037   0.966   5.116 -0.2906 -0.1619 -0.3025
  349MOL0     C47022   9.036   0.862   5.226 -0.7050  0.2360  0.0290
  349MOL0     C47023   9.120   0.737   5.186  0.5570  0.4179  1.0530
  349MOL0     C47024   9.037   0.618   5.230 -0.4134 -0.0538 -0.1723
  349MOL0    Cl47025   8.909   0.606   5.110  0.4068 -0.0353  0.1029
  349MOL0     C47026   8.513   1.321   4.605  0.7228 -0.2350  0.2339
  349MOL0     C47027   8.470   1.399   4.489  0.6450 -0.0940 -2.0909
  349MOL0     O47028   8.619   1.568   4.235  0.0537  0.6796  0.6068
  349MOL0     C47029   8.283   1.571   4.134 -0.3601  0.0595  0.3931
  349MOL0     C47030   8.181   1.643   4.068 -0.3296  0.4364 -0.1335
  349MOL0     N47031   7.664   1.873   4.033 -0.5421 -0.8557 -0.2931
  349MOL0     N47032   7.600   1.978   4.083  0.0145  0.2555  0.4678
  349MOL0     C47033   6.511   1.645   3.561 -0.3183  0.3747 -0.0877
  349MOL0     C47034   6.426   1.722   3.486 -0.7205  0.0033  0.8378
  349MOL0     C47035   6.303   2.005   3.103 -0.0136  0.3222  0.5578
  349MOL0     C47036   6.329   2.119   3.031 -0.1399  0.2448  1.0707
  349MOL0     C47037   6.247   2.154   2.924  0.1962 -0.1783 -0.2725
  349MOL0     C47038   6.138   2.069   2.902  1.5582 -0.7727  0.5854
  349MOL0     O47039   6.043   2.098   2.809 -0.3579 -0.1332 -0.0070
  349MOL0     C47040   6.066   2.208   2.714 -0.3991  0.9215 -1.5837
  349MOL0     C47041   5.920   2.240   2.675 -1.2689  0.0407 -0.1667
  349MOL0     C47042   5.837   2.124   2.605  0.0984 -0.2395 -1.3040
  349MOL0     C47043   5.899   2.066   2.481 -0.2983 -0.0204  0.1755
  349MOL0     C47044   5.975   2.157   2.391  0.3727  0.5486  0.3933
  349MOL0     C47045   6.045   2.234   2.332  0.0288  0.3953  0.3331
  349MOL0     C47046   6.110   1.948   2.963  0.4522 -0.2445 -0.0282
  349MOL0     C47047   6.192   1.914   3.070 -0.3277 -0.8027  0.4159
  349MOL0     H47048   6.651   1.879   3.282  1.6416 -0.7497  0.2627
  349MOL0     H47049   6.800   1.724   3.407 -0.0814  1.7473  1.1941
  349MOL0     H47050   6.711   1.775   3.743 -1.8201 -1.1234 -1.2057
  349MOL0     H47051   6.783   1.634   3.829  3.9729 -2.0112  0.4591
  349MOL0     H47052   6.987   1.658   3.713  0.0198  0.9466 -3.1267
  349MOL0     H47053   6.904   1.779   3.608  1.4232  0.5854 -0.7092
  349MOL0     H47054   6.907   1.945   3.773  1.0385  0.9421 -2.1321
  349MOL0     H47055   6.939   1.812   3.903  2.9316  0.0512 -0.2809
  349MOL0     H47056   7.163   1.785   3.787  1.0793  0.8076 -2.6805
  349MOL0     H47057   7.109   1.927   3.691  2.8321  3.7956  1.5008
  349MOL0     H47058   7.056   2.036   3.920 -1.5029 -0.1100  1.8660
  349MOL0     H47059   7.157   1.893   3.987 -2.0566 -1.8897 -1.2050
  349MOL0     H47060   7.338   1.963   3.847 -1.6204 -2.0840  2.8950
  349MOL0     H47061   7.235   2.091   3.790  2.8707  0.5645 -0.7787
  349MOL0     H47062   7.256   2.213   4.014  3.2673  0.9166  2.0677
  349MOL0     H47063   7.303   2.056   4.089 -0.8458 -4.2716 -2.6819
  349MOL0     H47064   7.481   2.226   4.078  1.4622  0.4748 -0.2569
  349MOL0     H47065   7.478   2.219   3.900  1.2105 -0.2691  0.7915
  349MOL0     H47066   7.615   2.049   3.758  0.7736 -2.5310 -1.5106
  349MOL0     H47067   7.734   1.711   3.876  0.6836  0.3987 -0.3091
  349MOL0     H47068   7.616   1.758   3.734 -2.0659  0.1729  2.3515
  349MOL0     H47069   7.780   1.891   3.636 -0.5143 -3.5052 -3.4495
  349MOL0     H47070   7.842   1.731   3.646  0.5497  0.9009  0.0834
  349MOL0     H47071   7.925   1.968   3.829  3.1218  0.7138  0.0278
  349MOL0     H47072   8.013   1.895   3.706  0.6692 -1.3647 -0.4606
  349MOL0     H47073   7.999   1.670   3.831 -0.5095  1.9464 -3.8148
  349MOL0     H47074   7.959   1.779   3.974  0.5460  0.3425  0.9375
  349MOL0     H47075   8.385   1.797   3.846  1.6450 -0.1809  0.6692
  349MOL0     H47076   8.604   1.750   3.859 -0.4881 -0.8346 -0.9983
  349MOL0     H47077   8.662   1.726   4.034 -1.5366 -2.0109  1.4286
  349MOL0     H47078   8.656   1.595   3.928  3.4228  0.4918  2.3594
  349MOL0     H47079   8.588   1.203   4.245 -1.8179  2.8096 -1.2854
  349MOL0     H47080   8.674   1.066   4.446 -1.4910 -0.7055  1.1755
  349MOL0     H47081   8.821   1.144   4.689  0.3265 -1.2901  1.3285
  349MOL0     H47082   8.719   1.248   4.807  0.3578 -0.3030  1.0963
  349MOL0     H47083   8.732   1.079   4.966  1.2753  2.2686  0.1211
  349MOL0     H47084   8.751   0.949   4.848 -2.7623  0.2550  0.9407
  349MOL0     H47085   8.979   1.126   4.928 -1.2594  0.3876  3.2225
  349MOL0     H47086   8.973   1.000   4.805 -2.5960 -2.2044 -0.9776
  349MOL0     H47087   8.862   0.888   5.048  1.8103 -2.4957  1.5667
  349MOL0     H47088   9.008   0.838   4.947  0.8143  1.9238 -1.7062
  349MOL0     H47089   8.986   1.055   5.153 -0.2688  0.3109 -1.3682
  349MOL0     H47090   9.138   1.002   5.096 -0.1633 -0.1213  0.3993
  349MOL0     H47091   9.089   0.922   5.300  0.8939  1.5987 -2.1141
  349MOL0     H47092   8.929   0.843   5.244 -0.3938 -0.9722  0.7014
  349MOL0     H47093   9.218   0.747   5.233  2.5537  3.8316 -3.1432
  349MOL0     H47094   9.134   0.723   5.078  2.4496 -1.4972  1.4750
  349MOL0     H47095   9.005   0.631   5.334 -0.7434  1.2810 -0.4207
  349MOL0     H47096   9.098   0.527   5.228 -0.5240 -0.1194 -0.8494
  349MOL0     H47097   8.496   1.347   4.709  2.5551  1.0589  0.2672
  349MOL0     H47098   8.411   1.490   4.488  2.4928  1.3032  0.6676
  349MOL0     H47099   8.249   1.507   4.215  1.4374  2.1817  3.0141
  349MOL0     H47100   8.078   1.624   4.098  0.5369 -3.8201  0.7536
  349MOL0     H47101   6.486   1.568   3.633  4.7363 -0.9681  0.5967
  349MOL0     H47102   6.319   1.719   3.504 -1.0562 -1.6202 -1.0650
  349MOL0     H47103   6.424   2.169   3.051  1.0361 -1.2914 -0.4156
  349MOL0     H47104   6.287   2.237   2.866  1.5932  0.4170  1.4210
  349MOL0     H47105   6.109   2.294   2.767  0.3094  0.3280 -1.1722
  349MOL0     H47106   6.139   2.191   2.634  1.9475 -1.8021  0.8571
  349MOL0     H47107   5.937   2.324   2.607 -0.4698  0.6642  0.7584
  349MOL0     H47108   5.871   2.285   2.762  3.8370  2.5788  1.8203
  349MOL0     H47109   5.739   2.164   2.577  1.3689  1.6488 -3.3799
  349MOL0     H47110   5.814   2.044   2.676 -0.9638  0.7424 -0.5102
  349MOL0     H47111   5.826   2.008   2.424  0.2147 -1.0715  0.5532
  349MOL0     H47112   5.984   2.002   2.509 -0.2553 -0.3243 -0.6369
  349MOL0     H47113   6.107   2.287   2.262  0.7895 -0.8662 -0.0012
  349MOL0     H47114   6.026   1.890   2.927 -0.7112  1.9277 -1.0454
  349MOL0     H47115   6.166   1.828   3.131 -1.8494 -0.9470 -0.4117
  350MOL0     O47116   1.193   9.908   6.669 -0.9600  0.2328  0.4748
  350MOL0     C47117   1.242   9.889   6.777 -0.2652  0.2729  0.5666
  350MOL0     O47118   1.209   9.958   6.889 -0.3622 -0.2261 -0.0213
  350MOL0     C47119   1.144  10.081   6.860  0.3271 -0.6304 -0.0724
  350MOL0     C47120   1.210  10.206   6.848 -0.6396 -0.2999  0.0495
  350MOL0     C47121   1.133  10.320   6.833 -0.8648 -0.1564  0.1454
  350MOL0     C47122   0.996  10.322   6.825  0.2268  0.6757  0.4039
  350MOL0     O47123   0.924  10.433   6.814  0.2280 -0.3731  0.6161
  350MOL0     C47124   0.961  10.545   6.724  0.3037  1.3007 -0.8347
  350MOL0     C47125   0.884  10.663   6.779 -0.2332  0.2388  0.3610
  350MOL0     C47126   0.955  10.747   6.879 -0.3296 -0.0087 -0.6208
  350MOL0     C47127   0.863  10.837   6.951  0.0984  0.7081  0.4965
  350MOL0     C47128   0.930  10.937   7.038  0.5269  0.3626 -0.4431
  350MOL0     C47129   1.014  10.868   7.152  0.6412 -0.0882 -0.5133
  350MOL0     C47130   1.094  10.962   7.236 -1.1151 -0.3112  1.6488
  350MOL0     C47131   1.126  10.885   7.363 -0.1074 -0.4060 -0.1947
  350MOL0     N47132   1.254  10.809   7.363 -0.3817 -0.4871 -0.1126
  350MOL0     C47133   1.359  10.825   7.453 -0.1597  0.1909 -0.8753
  350MOL0     C47134   1.450  10.735   7.410 -0.6905  0.6364  0.3523
  350MOL0     C47135   1.594  10.718   7.457 -0.1502 -0.0996  0.2824
  350MOL0     C47136   1.658  10.578   7.437 -0.1524 -0.2759  0.0174
  350MOL0     C47137   1.816  10.593   7.430 -0.3495  0.2771  1.1964
  350MOL0     C47138   1.866  10.657   7.296  0.7899  0.1177 -0.3956
  350MOL0     O47139   1.831  10.572   7.182  0.2699  0.1416  0.1319
  350MOL0     C47140   1.897  10.597   7.068 -1.0204  0.5362  0.6745
  350MOL0     C47141   1.859  10.523   6.954 -0.1999  0.0294  0.9968
  350MOL0     C47142   1.936  10.522   6.836 -0.7484 -0.7101  0.1188
  350MOL0     C47143   1.889  10.423   6.724  0.8912  0.0564 -0.5786
  350MOL0     C47144   2.050  10.611   6.823 -0.1518 -0.4689  0.3677
  350MOL0     C47145   2.142  10.625   6.700  0.4600 -0.7328  0.2856
  350MOL0     O47146   2.212  10.740   6.682 -0.1641  1.0638  0.0604
  350MOL0     C47147   2.229  10.758   6.544  0.9876  0.0768 -0.6280
  350MOL0     C47148   2.345  10.737   6.470 -0.5224 -0.1480  0.3044
  350MOL0     C47149   2.350  10.754   6.333 -0.2349  0.3607 -0.1584
  350MOL0     C47150   2.237  10.796   6.256  0.0651  0.0638 -0.4829
  350MOL0     O47151   2.245  10.810   6.120  0.1753  0.0258 -0.6977
  350MOL0     C47152   2.355  10.873   6.065 -0.3876 -0.7646  0.2166
  350MOL0     C47153   2.318  11.001   5.996  0.2185  0.4804  0.0693
  350MOL0     C47154   2.277  11.102   6.099 -0.2641  0.2418 -0.5653
  350MOL0     C47155   2.166  11.191   6.052 -0.2426 -1.0657  0.7378
  350MOL0     C47156   2.140  11.305   6.162 -0.0083  0.3630 -0.0547
  350MOL0     C47157   2.015  11.399   6.145 -0.2336  0.6774 -0.6218
  350MOL0     C47158   2.054  11.505   6.051 -1.0139  0.6501  0.4786
  350MOL0     C47159   1.938  11.597   6.033  0.0351 -0.1108  0.9234
  350MOL0    Cl47160   1.915  11.728   6.151 -0.1420 -0.5087  0.2243
  350MOL0     C47161   2.123  10.810   6.332 -0.3318 -0.0209  0.1410
  350MOL0     C47162   2.118  10.801   6.473 -0.4328  1.0931  0.0049
  350MOL0     O47163   2.156  10.524   6.629  0.1025 -0.8352  0.3944
  350MOL0     C47164   2.074  10.699   6.937 -0.4469 -0.2652  0.4431
  350MOL0     C47165   2.013  10.685   7.057  1.0808  0.1986  0.7637
  350MOL0     N47166   1.391  10.656   7.309 -0.2736 -0.2363 -0.2178
  350MOL0     N47167   1.275  10.697   7.281  0.2691 -0.6232 -0.6303
  350MOL0     C47168   0.921  10.195   6.837  0.1267  0.3949 -0.4630
  350MOL0     C47169   1.003  10.080   6.851  0.1033 -0.3700 -0.0584
  350MOL0     C47170   1.355   9.799   6.792 -0.2835  0.2106 -0.2092
  350MOL0     C47171   1.442   9.803   6.898 -0.4476  0.2238 -0.2483
  350MOL0     C47172   1.544   9.703   6.913  0.8708  0.3796  0.9385
  350MOL0     C47173   1.553   9.601   6.830  0.5016  0.8522  0.5729
  350MOL0     O47174   1.627   9.489   6.857 -0.3516  0.1568 -0.5426
  350MOL0     C47175   1.747   9.513   6.933  0.6241 -0.2976 -0.9816
  350MOL0     C47176   1.830   9.384   6.917 -1.6285 -0.7400  0.3623
  350MOL0     C47177   1.756   9.264   6.979 -0.5944  1.1135 -0.2540
  350MOL0     C47178   1.847   9.141   6.980  0.5988 -0.8556  1.1287
  350MOL0     C47179   1.936   9.156   7.093 -0.2422  0.2939 -0.0731
  350MOL0     C47180   2.021   9.149   7.183 -0.1889  0.0484 -0.5717
  350MOL0     C47181   1.470   9.596   6.717  0.6687  0.1974  0.6650
  350MOL0     C47182   1.372   9.697   6.695  0.2589 -0.4058  0.4850
  350MOL0     H47183   1.315  10.215   6.875 -1.0866  1.2260  1.4875
  350MOL0     H47184   1.177  10.419   6.832 -3.0498  0.9635  2.0340
  350MOL0     H47185   1.070  10.557   6.726  0.1752  3.1948  2.4378
  350MOL0     H47186   0.931  10.523   6.621  0.3733  1.9414 -0.9908
  350MOL0     H47187   0.858  10.731   6.698  0.0123  3.1279  2.5474
  350MOL0     H47188   0.799  10.610   6.823  1.2660 -1.6175  1.1967
  350MOL0     H47189   1.000  10.677   6.951 -1.6576 -0.3040 -0.0576
  350MOL0     H47190   1.022  10.810   6.819  0.5665 -2.6070 -2.4901
  350MOL0     H47191   0.806  10.886   6.872 -1.4195 -1.7552 -0.0339
  350MOL0     H47192   0.801  10.773   7.015  4.2796 -2.9160  1.4310
  350MOL0     H47193   0.985  11.003   6.970  0.2927  1.7422  0.6677
  350MOL0     H47194   0.847  10.991   7.084 -0.6954 -0.8573 -1.1383
  350MOL0     H47195   0.950  10.802   7.211 -1.7649  2.7177  0.2825
  350MOL0     H47196   1.088  10.805   7.102 -0.1979 -1.7417  0.2855
  350MOL0     H47197   1.174  11.011   7.180  0.4819 -1.1231  3.1632
  350MOL0     H47198   1.029  11.045   7.267 -3.2269 -1.1124 -0.3121
  350MOL0     H47199   1.053  10.808   7.389 -0.6234  0.8053  2.1844
  350MOL0     H47200   1.117  10.947   7.452 -0.9860 -0.3432 -0.3246
  350MOL0     H47201   1.369  10.899   7.532  0.8784 -0.4948 -0.3461
  350MOL0     H47202   1.657  10.793   7.407  1.3736 -0.1848  1.9712
  350MOL0     H47203   1.607  10.745   7.562  2.3217 -0.6450  0.1679
  350MOL0     H47204   1.615  10.517   7.357 -1.1725 -1.4399  1.4140
  350MOL0     H47205   1.652  10.542   7.540  2.8783 -1.4422 -0.0939
  350MOL0     H47206   1.880  10.506   7.448 -1.2087 -0.0072  3.0745
  350MOL0     H47207   1.841  10.664   7.508  1.8621  2.9109 -1.6690
  350MOL0     H47208   1.969  10.676   7.329  1.4503 -1.5372 -1.3710
  350MOL0     H47209   1.808  10.748   7.282  0.8084 -0.0302 -1.4895
  350MOL0     H47210   1.770  10.463   6.973 -0.1051 -0.9795 -1.4202
  350MOL0     H47211   1.894  10.476   6.628  0.8186  1.7159  0.2864
  350MOL0     H47212   1.944  10.330   6.711 -0.1253 -0.5847 -0.3533
  350MOL0     H47213   1.784  10.401   6.743  1.3588  0.0476  2.3744
  350MOL0     H47214   2.437  10.694   6.506  0.8962 -0.1681 -2.9795
  350MOL0     H47215   2.446  10.732   6.288  0.9892 -0.2691  2.6091
  350MOL0     H47216   2.430  10.906   6.138  3.4050 -3.0810 -2.2808
  350MOL0     H47217   2.408  10.818   5.987 -0.5400  0.1008 -0.5111
  350MOL0     H47218   2.402  11.027   5.931  0.2834  2.0234  0.7294
  350MOL0     H47219   2.236  10.979   5.927 -0.2136 -1.6260  1.1625
  350MOL0     H47220   2.367  11.162   6.117 -0.0800  0.8695 -3.1087
  350MOL0     H47221   2.235  11.059   6.191  2.1263 -3.6871 -1.0804
  350MOL0     H47222   2.198  11.239   5.959 -0.3627 -1.9831  0.2186
  350MOL0     H47223   2.074  11.139   6.023 -1.0141  1.6459 -2.3581
  350MOL0     H47224   2.232  11.363   6.176  0.6330 -0.6306 -0.0847
  350MOL0     H47225   2.116  11.248   6.253  1.5993 -0.5293 -0.1664
  350MOL0     H47226   1.926  11.350   6.105 -1.6700  1.7260  1.1429
  350MOL0     H47227   1.989  11.455   6.235  1.1258  2.3798 -1.2237
  350MOL0     H47228   2.099  11.474   5.957  0.4429  0.0567  1.3269
  350MOL0     H47229   2.127  11.559   6.112 -0.6664 -2.0308  2.6841
  350MOL0     H47230   1.847  11.538   6.013  2.0332 -4.1186  2.5411
  350MOL0     H47231   1.963  11.653   5.942 -2.2103 -2.4263 -1.2925
  350MOL0     H47232   2.029  10.826   6.282  0.0759 -1.4013 -1.1546
  350MOL0     H47233   2.024  10.817   6.524  0.0347  1.4809  0.7746
  350MOL0     H47234   2.162  10.763   6.941  0.5012 -1.3200 -1.7391
  350MOL0     H47235   2.062  10.741   7.135  0.6672  0.1826  1.0370
  350MOL0     H47236   0.812  10.190   6.829  0.2912 -2.6402 -1.9717
  350MOL0     H47237   0.953   9.983   6.850  0.5751 -0.6593 -2.8313
  350MOL0     H47238   1.438   9.882   6.973 -4.1893  0.6936 -0.7483
  350MOL0     H47239   1.616   9.717   6.993  1.4738 -2.0830  0.9118
  350MOL0     H47240   1.802   9.597   6.891 -0.1266 -0.1319 -1.6594
  350MOL0     H47241   1.712   9.519   7.036  2.5712  1.1565 -0.3469
  350MOL0     H47242   1.932   9.403   6.951 -0.9883 -1.6067 -0.9995
  350MOL0     H47243   1.835   9.378   6.808  0.5064  3.4736  0.0280
  350MOL0     H47244   1.671   9.241   6.915  0.2069  2.4515 -1.8535
  350MOL0     H47245   1.740   9.277   7.087  2.9538 -0.3060  0.5900
  350MOL0     H47246   1.908   9.125   6.890  0.7775 -3.0221  1.5792
  350MOL0     H47247   1.787   9.050   6.990  0.2927 -0.6770  0.9167
  350MOL0     H47248   2.095   9.137   7.260  0.2988 -1.3356 -1.2267
  350MOL0     H47249   1.474   9.507   6.655 -0.9055  2.1359 -2.4680
  350MOL0     H47250   1.316   9.690   6.602  4.0815  0.3964 -2.1178
  351MOL0     O47251   4.817   1.837   9.161  0.1014  0.5212  0.4043
  351MOL0     C47252   4.897   1.910   9.097 -0.3187  0.1095 -0.1289
  351MOL0     O47253   4.987   1.989   9.158  0.1742  0.1288 -0.2252
  351MOL0     C47254   4.972   2.016   9.289 -0.0693 -0.3105  0.0814
  351MOL0     C47255   4.991   1.913   9.383 -0.8127  0.6422  0.8536
  351MOL0     C47256   4.975   1.936   9.516  0.6660  0.0730  0.6424
  351MOL0     C47257   4.941   2.073   9.562  0.4344 -0.2558  0.2697
  351MOL0     O47258   4.914   2.090   9.693  0.0666 -0.0374  0.3083
  351MOL0     C47259   5.031   2.081   9.776  0.4474 -0.1570 -0.2203
  351MOL0     C47260   5.120   2.214   9.757  0.2827 -0.5507 -0.3643
  351MOL0     C47261   5.253   2.233   9.846  0.1303 -0.0996 -0.2250
  351MOL0     C47262   5.331   2.362   9.827  0.6083 -0.3865  0.3570
  351MOL0     C47263   5.397   2.404   9.968 -0.6162 -0.0812 -0.3971
  351MOL0     C47264   5.521   2.327  10.010 -0.7308  0.3212 -0.1786
  351MOL0     C47265   5.624   2.421  10.075  0.5498 -0.7660  0.8381
  351MOL0     C47266   5.636   2.392  10.218 -0.3399 -0.4984 -0.5494
  351MOL0     N47267   5.522   2.414  10.306  0.0428 -0.1094 -0.2976
  351MOL0     C47268   5.493   2.528  10.378 -1.3586  0.0108  0.4989
  351MOL0     C47269   5.354   2.519  10.393  0.7170 -0.5594 -0.2419
  351MOL0     C47270   5.258   2.617  10.474 -1.7754  1.3230  0.1913
  351MOL0     C47271   5.189   2.564  10.596 -0.8548 -0.6226 -0.2234
  351MOL0     C47272   5.129   2.693  10.662 -0.1311 -0.8750 -0.3525
  351MOL0     C47273   5.000   2.660  10.732 -0.7015 -0.2572  0.5012
  351MOL0     O47274   4.970   2.773  10.815  0.7360 -0.7284 -0.4107
  351MOL0     C47275   4.916   2.886  10.758  0.2857 -0.0726  0.4660
  351MOL0     C47276   4.980   3.010  10.735 -0.2971 -0.9125  0.8014
  351MOL0     C47277   4.926   3.114  10.648  0.5044 -0.2680 -0.2691
  351MOL0     C47278   5.005   3.241  10.656  0.3999 -0.6599 -0.2786
  351MOL0     C47279   4.798   3.099  10.597  0.1888 -1.3442 -0.6578
  351MOL0     C47280   4.715   3.207  10.533 -0.3200  0.9549 -0.9822
  351MOL0     O47281   4.724   3.329  10.599  0.0762 -0.4306 -0.8485
  351MOL0     C47282   4.666   3.443  10.552  0.8758  0.1887  0.3229
  351MOL0     C47283   4.558   3.450  10.458 -0.5208  0.1564  0.5344
  351MOL0     C47284   4.505   3.574  10.431  0.1774  0.1842  0.9853
  351MOL0     C47285   4.546   3.694  10.486 -0.3116 -0.0454 -0.0401
  351MOL0     O47286   4.477   3.807  10.454  0.1709 -0.0948  0.0587
  351MOL0     C47287   4.483   3.934  10.533  0.3904 -0.5748  0.1287
  351MOL0     C47288   4.418   3.905  10.676 -0.1329  0.3594  0.1806
  351MOL0     C47289   4.268   3.871  10.661 -0.4734 -0.2546 -0.5444
  351MOL0     C47290   4.212   3.872  10.806 -0.0195 -0.7912 -0.0881
  351MOL0     C47291   4.078   3.809  10.819  0.9221 -0.6817 -0.6485
  351MOL0     C47292   3.956   3.883  10.751  0.0683 -0.5361  0.5834
  351MOL0     C47293   3.918   4.013  10.815  0.0065 -0.2739  0.0888
  351MOL0     C47294   3.814   3.984  10.930  0.6262 -0.0661 -1.3753
  351MOL0    Cl47295   3.897   3.917  11.081  0.0537 -0.1615 -0.2843
  351MOL0     C47296   4.653   3.682  10.572 -0.0133  0.7912 -0.1398
  351MOL0     C47297   4.713   3.556  10.606 -0.2636 -0.4909  0.3065
  351MOL0     O47298   4.649   3.177  10.440  0.4961 -0.5949  0.3427
  351MOL0     C47299   4.740   2.968  10.618  0.1481  0.8467  0.1719
  351MOL0     C47300   4.797   2.868  10.692  0.3595 -0.0486 -0.4084
  351MOL0     N47301   5.307   2.411  10.327 -0.4296 -0.3201 -0.1790
  351MOL0     N47302   5.412   2.342  10.291  0.4100  0.1950  0.1490
  351MOL0     C47303   4.924   2.172   9.462 -0.3264 -0.2922 -0.6255
  351MOL0     C47304   4.924   2.142   9.325  0.2686  0.5303  0.8213
  351MOL0     C47305   4.876   1.913   8.955  0.0935  0.8551  0.2753
  351MOL0     C47306   4.791   1.830   8.896  0.4644  0.2071 -0.2073
  351MOL0     C47307   4.779   1.823   8.757 -0.3560  1.0372  0.1792
  351MOL0     C47308   4.840   1.922   8.675  0.8862  0.8690  0.2997
  351MOL0     O47309   4.826   1.933   8.537 -0.0099 -0.2445  0.3426
  351MOL0     C47310   4.749   1.842   8.447  0.2053  0.1844  0.2163
  351MOL0     C47311   4.832   1.815   8.321  0.9827  0.5436  0.1975
  351MOL0     C47312   4.762   1.698   8.242 -0.3834  0.2512  0.0895
  351MOL0     C47313   4.631   1.731   8.166 -0.2683 -0.1928 -0.2628
  351MOL0     C47314   4.646   1.844   8.080 -1.2624  0.4605  0.3184
  351MOL0     C47315   4.642   1.926   7.985  0.0997  0.1050 -0.7943
  351MOL0     C47316   4.926   2.011   8.731  0.3619  0.1053  0.5026
  351MOL0     C47317   4.947   2.004   8.871  0.4938 -0.1243  0.1682
  351MOL0     H47318   5.018   1.813   9.350 -1.2136  0.8901 -0.2647
  351MOL0     H47319   4.958   1.855   9.586  0.9232  1.2268  2.1024
  351MOL0     H47320   4.996   2.078   9.880  1.5171  0.9430  0.2016
  351MOL0     H47321   5.080   1.986   9.753 -0.8317 -0.4030 -2.1806
  351MOL0     H47322   5.144   2.224   9.651  0.9974 -1.4654 -0.3080
  351MOL0     H47323   5.059   2.299   9.788 -0.2825 -2.2505  3.8293
  351MOL0     H47324   5.220   2.213   9.948  3.0130 -3.9350  0.1870
  351MOL0     H47325   5.323   2.150   9.829 -0.4783 -0.7415  0.3728
  351MOL0     H47326   5.408   2.359   9.751  0.9152  0.7876  0.6106
  351MOL0     H47327   5.261   2.435   9.787 -2.9337 -2.4340  2.2474
  351MOL0     H47328   5.440   2.502   9.943  1.1853 -0.1109  2.1799
  351MOL0     H47329   5.329   2.428  10.050  3.0683  1.9274  2.4071
  351MOL0     H47330   5.502   2.234  10.065  1.4324  0.1947  0.4598
  351MOL0     H47331   5.572   2.288   9.922 -0.3877  0.6623 -0.1297
  351MOL0     H47332   5.724   2.404  10.033  0.8590  1.4650  0.5467
  351MOL0     H47333   5.615   2.529  10.061 -0.6433 -0.7601  1.5162
  351MOL0     H47334   5.719   2.449  10.258 -1.5977  1.3516 -0.4454
  351MOL0     H47335   5.675   2.290  10.217  2.5137  0.5128 -0.7745
  351MOL0     H47336   5.567   2.604  10.402  0.3781 -1.0306 -1.2604
  351MOL0     H47337   5.323   2.693  10.517 -0.7857 -0.9532  3.0897
  351MOL0     H47338   5.213   2.685  10.400  1.6061  3.5496 -0.0335
  351MOL0     H47339   5.258   2.505  10.657 -2.0319 -1.5130  0.2890
  351MOL0     H47340   5.107   2.496  10.573 -1.9773 -0.1806  2.1562
  351MOL0     H47341   5.110   2.769  10.586 -0.8976 -2.4093 -1.7694
  351MOL0     H47342   5.203   2.723  10.736 -1.2579 -2.2775  1.4240
  351MOL0     H47343   5.012   2.573  10.797  2.2373 -1.0655 -0.9188
  351MOL0     H47344   4.920   2.636  10.661 -2.3209  0.9794  1.8347
  351MOL0     H47345   5.067   3.030  10.797 -1.4062  1.7823  1.6044
  351MOL0     H47346   5.091   3.226  10.590 -0.2996 -0.7156 -1.1896
  351MOL0     H47347   4.958   3.331  10.616 -0.5621 -0.4302  1.2828
  351MOL0     H47348   5.025   3.255  10.763 -1.5178  2.3293 -0.2051
  351MOL0     H47349   4.518   3.370  10.396  0.0079  1.3082 -1.3788
  351MOL0     H47350   4.423   3.587  10.361 -0.7810  1.4552  2.2756
  351MOL0     H47351   4.586   3.966  10.552  0.5055 -2.0323  2.1809
  351MOL0     H47352   4.434   4.024  10.494 -1.1143 -1.1305  0.7111
  351MOL0     H47353   4.476   3.837  10.738  2.2211  2.7531  0.8082
  351MOL0     H47354   4.411   3.995  10.737  1.3760 -2.3918  4.9092
  351MOL0     H47355   4.272   3.766  10.630  2.9039 -0.0468 -1.1694
  351MOL0     H47356   4.213   3.939  10.595 -1.9468 -0.8846 -0.0182
  351MOL0     H47357   4.274   3.809  10.870 -1.8552 -0.6053  1.9638
  351MOL0     H47358   4.211   3.972  10.851 -0.2917  0.0226 -1.8000
  351MOL0     H47359   4.054   3.798  10.925  2.1815 -1.0615 -0.3966
  351MOL0     H47360   4.082   3.711  10.771  0.0917  0.1154 -2.4169
  351MOL0     H47361   3.970   3.895  10.643 -3.5073  2.5010  0.2213
  351MOL0     H47362   3.872   3.813  10.761 -0.0976 -0.1128  2.3942
  351MOL0     H47363   3.885   4.081  10.736  2.2945 -0.3729 -1.0567
  351MOL0     H47364   4.009   4.058  10.857 -0.0886  1.0792 -1.0664
  351MOL0     H47365   3.731   3.917  10.903  0.3606 -0.6365  0.7379
  351MOL0     H47366   3.785   4.085  10.962  1.9065  1.3635 -4.3106
  351MOL0     H47367   4.705   3.771  10.608 -2.5892  2.0595  0.6745
  351MOL0     H47368   4.790   3.562  10.682 -0.6040 -0.4844  0.6530
  351MOL0     H47369   4.643   2.955  10.571  0.5645  0.3005 -0.5458
  351MOL0     H47370   4.764   2.766  10.682  3.3831 -0.9657 -2.5216
  351MOL0     H47371   4.897   2.273   9.492  2.6024  1.3304 -2.8503
  351MOL0     H47372   4.907   2.227   9.258  0.8221 -0.4805 -0.6604
  351MOL0     H47373   4.721   1.774   8.957 -1.3740  1.6678 -0.8989
  351MOL0     H47374   4.701   1.761   8.714 -1.9512  1.5559  2.1663
  351MOL0     H47375   4.723   1.751   8.501  0.9234 -0.3937 -0.3875
  351MOL0     H47376   4.653   1.885   8.415 -1.5734 -1.8594  2.4312
  351MOL0     H47377   4.937   1.791   8.340  0.0756 -3.6109  0.8443
  351MOL0     H47378   4.844   1.907   8.263  3.0105 -1.2108 -2.3818
  351MOL0     H47379   4.729   1.608   8.296 -3.3416  0.6207 -0.9341
  351MOL0     H47380   4.831   1.658   8.167 -0.4320 -0.0701  0.2112
  351MOL0     H47381   4.563   1.758   8.247 -1.2669  0.9474 -1.4395
  351MOL0     H47382   4.592   1.637   8.125  0.4830 -0.5262 -0.2457
  351MOL0     H47383   4.647   1.997   7.905 -1.8301 -0.5566 -1.5465
  351MOL0     H47384   4.966   2.088   8.666  0.9408 -0.3008  0.3704
  351MOL0     H47385   5.003   2.086   8.914  1.5560 -0.8317  0.1751
  352MOL0     O47386   9.635   4.121   5.411 -0.1235  0.1764 -0.1619
  352MOL0     C47387   9.581   4.204   5.334 -0.7857 -1.3129  0.5357
  352MOL0     O47388   9.570   4.339   5.348 -0.1907 -0.6061 -0.1882
  352MOL0     C47389   9.603   4.401   5.463  0.3973  0.0748  0.2694
  352MOL0     C47390   9.569   4.537   5.469  0.1802 -0.8398  0.8603
  352MOL0     C47391   9.599   4.615   5.581  0.1017  0.4057 -0.4786
  352MOL0     C47392   9.671   4.551   5.693 -0.9101 -0.5265 -0.4922
  352MOL0     O47393   9.705   4.621   5.807 -0.4710 -0.3361 -0.3661
  352MOL0     C47394   9.701   4.765   5.807 -0.0127  0.3008 -0.2986
  352MOL0     C47395   9.564   4.815   5.847  0.3800 -0.2772  1.0577
  352MOL0     C47396   9.575   4.945   5.909 -0.3448 -0.3745  0.4487
  352MOL0     C47397   9.441   5.011   5.924  0.0648  1.0389  0.0921
  352MOL0     C47398   9.446   5.087   6.060  0.1614  0.0064  0.7332
  352MOL0     C47399   9.344   5.209   6.057 -0.0112 -0.5471  0.0899
  352MOL0     C47400   9.201   5.182   6.012 -0.0029 -1.4612 -0.1547
  352MOL0     C47401   9.128   5.306   5.965  0.5241  0.3665  0.1101
  352MOL0     N47402   9.076   5.393   6.066  0.3522 -0.2534 -0.0201
  352MOL0     C47403   9.148   5.489   6.131  0.3380 -0.2751  0.8630
  352MOL0     C47404   9.051   5.544   6.204  0.3065 -1.0848  0.7055
  352MOL0     C47405   9.073   5.630   6.323 -0.2718 -1.3540 -0.0094
  352MOL0     C47406   9.116   5.537   6.435  0.0307  0.0589  0.8111
  352MOL0     C47407   9.169   5.626   6.555 -0.5212 -0.0240 -0.2988
  352MOL0     C47408   9.242   5.536   6.652  0.1579 -0.4893  1.1414
  352MOL0     O47409   9.140   5.452   6.686  0.6261  0.5887 -0.4511
  352MOL0     C47410   9.135   5.316   6.651 -0.1932  0.7954  0.1565
  352MOL0     C47411   9.032   5.243   6.707 -0.2574 -0.5870  0.2020
  352MOL0     C47412   9.007   5.108   6.677  0.6466 -0.0979 -0.1263
  352MOL0     C47413   8.898   5.029   6.735  0.2465  0.3117  0.0871
  352MOL0     C47414   9.095   5.053   6.575 -0.5934 -0.3428  0.3445
  352MOL0     C47415   9.086   4.908   6.535  0.8327  0.6874 -0.3727
  352MOL0     O47416   9.070   4.803   6.625  0.2004 -0.8318 -1.2927
  352MOL0     C47417   9.054   4.667   6.593  0.1100 -0.4467  0.3288
  352MOL0     C47418   9.017   4.602   6.475  0.7128 -0.7375  0.3089
  352MOL0     C47419   9.020   4.461   6.463  0.3824  0.4228  0.8579
  352MOL0     C47420   9.050   4.385   6.575 -0.0600  1.0146 -0.4476
  352MOL0     O47421   9.028   4.250   6.569 -0.0974  1.6295  0.1861
  352MOL0     C47422   9.121   4.175   6.486 -0.5430  0.7421  0.6680
  352MOL0     C47423   9.077   4.031   6.468 -0.2446 -1.1037 -0.0547
  352MOL0     C47424   9.015   3.996   6.331 -0.1836  0.3960  0.9127
  352MOL0     C47425   8.900   4.097   6.298  0.9562  0.4154  0.2581
  352MOL0     C47426   8.815   4.057   6.164  0.7244 -0.1390  0.3634
  352MOL0     C47427   8.742   4.184   6.120 -0.6771  0.6571  0.7331
  352MOL0     C47428   8.619   4.143   6.030 -0.0177 -0.3496  0.2538
  352MOL0     C47429   8.663   4.075   5.895 -0.1736  0.0223  0.0968
  352MOL0    Cl47430   8.534   4.031   5.778  0.0102 -0.5385  0.4434
  352MOL0     C47431   9.087   4.436   6.690 -0.3701  0.1032 -0.9493
  352MOL0     C47432   9.087   4.577   6.697  0.0969 -1.2061 -0.1921
  352MOL0     O47433   9.121   4.882   6.426  0.2507 -0.3317 -1.0604
  352MOL0     C47434   9.199   5.125   6.522  0.2312  0.1095 -0.9631
  352MOL0     C47435   9.225   5.256   6.568 -0.6975  0.3267  0.7387
  352MOL0     N47436   8.924   5.498   6.175 -0.1074 -0.0613  0.1978
  352MOL0     N47437   8.945   5.403   6.090  0.9261  0.6322 -0.4897
  352MOL0     C47438   9.722   4.419   5.675  0.5738  0.4594 -0.8412
  352MOL0     C47439   9.681   4.344   5.567 -0.7721 -0.2838 -0.1774
  352MOL0     C47440   9.542   4.149   5.197 -0.0110 -0.1526 -0.1155
  352MOL0     C47441   9.475   4.034   5.176  0.3473 -0.3917  0.1830
  352MOL0     C47442   9.442   3.990   5.044  0.2293  0.4072 -0.1850
  352MOL0     C47443   9.466   4.063   4.932 -0.0844 -0.8946  0.7483
  352MOL0     O47444   9.429   4.013   4.803  0.1579  0.6432 -1.0127
  352MOL0     C47445   9.516   4.046   4.701 -0.1540 -0.7936 -0.0936
  352MOL0     C47446   9.501   3.957   4.583  0.1795  0.3874 -0.3349
  352MOL0     C47447   9.620   3.969   4.472  0.2157  0.5768  1.5052
  352MOL0     C47448   9.638   4.117   4.434  0.0032 -0.4386  1.3097
  352MOL0     C47449   9.510   4.199   4.414 -0.2461 -0.9784  0.3932
  352MOL0     C47450   9.416   4.270   4.387 -0.3189 -0.1445  0.4829
  352MOL0     C47451   9.527   4.194   4.953 -0.3385 -0.0443  0.7211
  352MOL0     C47452   9.569   4.231   5.086  0.4333  0.0800  0.7550
  352MOL0     H47453   9.498   4.592   5.408 -2.2250 -1.6626  2.7513
  352MOL0     H47454   9.556   4.714   5.591 -1.3081 -0.3905  2.8908
  352MOL0     H47455   9.764   4.792   5.892 -0.4099 -0.2284  0.1675
  352MOL0     H47456   9.745   4.807   5.716  4.2521  3.1241  2.6938
  352MOL0     H47457   9.510   4.831   5.753  0.0561 -2.1873  0.8730
  352MOL0     H47458   9.509   4.745   5.911  0.3280  0.0270  1.3482
  352MOL0     H47459   9.617   4.921   6.007  1.0308  2.0483  0.5184
  352MOL0     H47460   9.654   5.006   5.866  1.6543 -3.1731 -0.1465
  352MOL0     H47461   9.434   5.083   5.842 -3.0812  1.7130  0.8230
  352MOL0     H47462   9.370   4.928   5.930 -1.1080  2.1315  3.4874
  352MOL0     H47463   9.409   5.022   6.140  0.1144 -1.6641 -0.5972
  352MOL0     H47464   9.549   5.122   6.070  0.8362 -0.4259 -3.1360
  352MOL0     H47465   9.357   5.258   6.154  1.2654 -1.3810  0.3645
  352MOL0     H47466   9.389   5.273   5.980  3.2256 -0.6564  1.7068
  352MOL0     H47467   9.197   5.114   5.926 -2.7139 -0.1436 -1.1945
  352MOL0     H47468   9.138   5.134   6.087  0.5830 -0.6917  0.8553
  352MOL0     H47469   9.043   5.271   5.906 -0.6430  1.2082  1.2343
  352MOL0     H47470   9.181   5.359   5.885  0.3139  0.1059 -0.2020
  352MOL0     H47471   9.255   5.506   6.134  0.2151  0.7719 -0.1362
  352MOL0     H47472   9.151   5.701   6.296 -0.1519 -0.8189  1.6452
  352MOL0     H47473   8.981   5.678   6.357  1.5212  1.5220  1.1066
  352MOL0     H47474   9.185   5.463   6.395  1.3347  2.3180 -1.4455
  352MOL0     H47475   9.021   5.499   6.474 -0.5359  2.6951  2.2877
  352MOL0     H47476   9.083   5.689   6.578 -0.2739  0.1401  0.1852
  352MOL0     H47477   9.251   5.687   6.515  0.7460 -2.4628 -1.6857
  352MOL0     H47478   9.274   5.610   6.726  0.0091 -0.3147  1.0327
  352MOL0     H47479   9.329   5.480   6.617 -1.0135 -1.3726 -0.4636
  352MOL0     H47480   8.974   5.293   6.784  3.1192  2.2179  1.1753
  352MOL0     H47481   8.841   4.958   6.673  0.7650 -1.2568  1.3242
  352MOL0     H47482   8.940   4.954   6.802  0.1246 -1.4074 -1.6634
  352MOL0     H47483   8.827   5.098   6.782  1.7731  2.4111 -0.5481
  352MOL0     H47484   8.975   4.658   6.393  0.2022 -3.8931 -1.7664
  352MOL0     H47485   8.983   4.401   6.381 -1.4966  0.3426  1.7157
  352MOL0     H47486   9.149   4.226   6.393  0.6594 -0.8822  0.0864
  352MOL0     H47487   9.207   4.175   6.554 -1.2830  1.3871  1.6177
  352MOL0     H47488   9.156   3.959   6.491 -1.2848 -2.1523  0.3437
  352MOL0     H47489   9.002   4.020   6.547 -1.5852  1.0588 -0.9417
  352MOL0     H47490   8.979   3.893   6.334  2.8296 -0.8104  0.0991
  352MOL0     H47491   9.098   3.992   6.260  1.4868  0.5594  2.7606
  352MOL0     H47492   8.840   4.130   6.383  0.9691  0.1951  0.3556
  352MOL0     H47493   8.945   4.188   6.258  0.0675  2.9450  4.4220
  352MOL0     H47494   8.736   3.985   6.187 -1.9025  2.7384  1.0373
  352MOL0     H47495   8.880   4.025   6.082 -0.7037  0.1858 -0.9337
  352MOL0     H47496   8.707   4.231   6.212  0.8740  0.0186  1.7034
  352MOL0     H47497   8.798   4.252   6.056 -2.3760  3.9356  2.4994
  352MOL0     H47498   8.560   4.234   6.018  2.3999  1.5001  1.4561
  352MOL0     H47499   8.553   4.069   6.076 -0.2150 -0.4017 -0.1127
  352MOL0     H47500   8.713   3.985   5.929  1.3365  0.7736 -0.0666
  352MOL0     H47501   8.741   4.134   5.846 -1.1364  3.0767  1.9681
  352MOL0     H47502   9.112   4.372   6.774 -2.7057 -0.0145 -0.2654
  352MOL0     H47503   9.106   4.630   6.790 -2.8507 -0.1450 -0.0719
  352MOL0     H47504   9.252   5.092   6.433 -0.2597  1.8143 -1.9271
  352MOL0     H47505   9.306   5.306   6.516 -1.0526 -1.5365 -1.8024
  352MOL0     H47506   9.789   4.378   5.749 -0.3100  0.1064 -0.2190
  352MOL0     H47507   9.724   4.245   5.571  2.9127  1.0868 -1.5474
  352MOL0     H47508   9.450   3.970   5.260 -0.7424 -1.2883 -0.7887
  352MOL0     H47509   9.398   3.891   5.042  0.0255  0.4232  1.8567
  352MOL0     H47510   9.503   4.147   4.662 -2.2575 -2.3402 -4.0002
  352MOL0     H47511   9.615   4.018   4.738 -0.1172 -1.0617 -0.3828
  352MOL0     H47512   9.403   3.985   4.542 -0.9661 -0.6793  1.5326
  352MOL0     H47513   9.499   3.858   4.630 -0.0321  0.5608  0.0237
  352MOL0     H47514   9.585   3.917   4.382  0.5067 -0.2507  1.8576
  352MOL0     H47515   9.711   3.915   4.501 -0.1638 -0.5408  0.7059
  352MOL0     H47516   9.706   4.121   4.349 -2.6562  2.7047 -0.8984
  352MOL0     H47517   9.700   4.172   4.505  1.1357  3.2131 -2.1368
  352MOL0     H47518   9.320   4.316   4.381 -1.8330 -3.0528  0.9571
  352MOL0     H47519   9.537   4.253   4.862 -0.4838 -1.2343 -0.0903
  352MOL0     H47520   9.617   4.328   5.076  1.9032 -0.7879 -1.2962
  353MOL0     O47521   3.602   8.931   7.316 -0.3165 -0.0859 -0.3199
  353MOL0     C47522   3.511   9.003   7.282 -0.3580 -0.7142  0.7146
  353MOL0     O47523   3.521   9.123   7.210 -0.5337 -0.3389 -0.6202
  353MOL0     C47524   3.653   9.176   7.169  0.5109 -0.6627 -0.1657
  353MOL0     C47525   3.714   9.128   7.062  1.2071  0.6744  0.5800
  353MOL0     C47526   3.840   9.178   7.024 -0.1141 -0.9039 -0.6959
  353MOL0     C47527   3.908   9.279   7.096 -0.0307  0.5153 -0.0861
  353MOL0     O47528   4.023   9.339   7.051 -0.6622  0.4353  0.0319
  353MOL0     C47529   4.004   9.470   7.006  0.5254 -0.2532 -1.5146
  353MOL0     C47530   4.119   9.552   7.055  0.5881 -0.8293  0.1788
  353MOL0     C47531   4.150   9.550   7.203  0.2574  1.5746 -0.2757
  353MOL0     C47532   4.219   9.679   7.252 -0.5914 -0.5708  0.9844
  353MOL0     C47533   4.207   9.704   7.398 -0.3114  0.4344  0.2354
  353MOL0     C47534   4.289   9.823   7.444 -0.1431  0.2085 -0.6019
  353MOL0     C47535   4.274   9.857   7.596  1.0215 -0.5089 -1.3456
  353MOL0     C47536   4.340   9.756   7.691 -0.1426  0.3928 -0.0049
  353MOL0     N47537   4.329   9.789   7.833  0.6113 -0.3815 -0.6726
  353MOL0     C47538   4.305   9.707   7.936  1.0951 -1.1911 -0.0141
  353MOL0     C47539   4.341   9.786   8.045 -0.1242  0.3343 -0.4146
  353MOL0     C47540   4.335   9.734   8.187  0.5026  0.8610  0.2897
  353MOL0     C47541   4.210   9.791   8.250  0.2108  0.0976 -0.0551
  353MOL0     C47542   4.190   9.724   8.386  0.0087  0.2916  0.0174
  353MOL0     C47543   4.091   9.810   8.468  0.7062 -0.1142  0.9129
  353MOL0     O47544   4.087   9.761   8.605  0.0205 -0.0569 -0.3879
  353MOL0     C47545   4.041   9.850   8.697 -0.6968  0.5903  0.4047
  353MOL0     C47546   3.963   9.959   8.680 -0.2575  1.0017  0.1577
  353MOL0     C47547   3.922  10.049   8.778 -0.1185  0.0638  0.0622
  353MOL0     C47548   3.836  10.163   8.741  1.0527 -0.9949  0.2985
  353MOL0     C47549   3.976  10.015   8.913  0.5494 -0.2570 -0.0996
  353MOL0     C47550   3.929  10.086   9.045  0.0038 -0.5926  0.3998
  353MOL0     O47551   3.965  10.025   9.165 -0.5012 -0.7041  0.4492
  353MOL0     C47552   3.914  10.060   9.286  0.2731 -0.4365  0.3900
  353MOL0     C47553   3.907  10.197   9.321 -0.3026  0.0439  0.3562
  353MOL0     C47554   3.883  10.237   9.448 -0.6336  0.0638 -0.8384
  353MOL0     C47555   3.823  10.147   9.541  1.0179  0.0609 -0.6176
  353MOL0     O47556   3.762  10.179   9.662  0.1010 -0.1217  0.2437
  353MOL0     C47557   3.791  10.299   9.725  0.0061  0.2613  0.3796
  353MOL0     C47558   3.718  10.315   9.847 -0.1267 -0.1959 -0.4291
  353MOL0     C47559   3.782  10.401   9.960 -1.2421 -0.4265 -0.5973
  353MOL0     C47560   3.677  10.426  10.079 -1.0651 -0.3694  0.0811
  353MOL0     C47561   3.732  10.462  10.215  0.5232  0.3461  0.2671
  353MOL0     C47562   3.787  10.598  10.236 -0.5707 -0.0995  0.4896
  353MOL0     C47563   3.686  10.713  10.235 -0.1830  0.5076  0.1214
  353MOL0     C47564   3.750  10.836  10.173 -0.4019 -0.6966 -0.1145
  353MOL0    Cl47565   3.766  10.793   9.997  0.3658  0.1267 -0.3855
  353MOL0     C47566   3.801  10.014   9.503  0.2565  0.3926  0.0153
  353MOL0     C47567   3.858   9.972   9.380  0.7414 -0.6430 -0.8450
  353MOL0     O47568   3.850  10.183   9.029 -0.5511  0.4110 -0.4237
  353MOL0     C47569   4.056   9.903   8.934 -0.9442 -0.2544  0.7289
  353MOL0     C47570   4.089   9.826   8.825 -0.3655 -0.4082 -0.1248
  353MOL0     N47571   4.394   9.909   8.000 -0.5132  0.0918 -0.3318
  353MOL0     N47572   4.388   9.899   7.873 -0.2109  0.1298 -0.0362
  353MOL0     C47573   3.841   9.325   7.208  1.0021  0.4176 -0.5659
  353MOL0     C47574   3.712   9.273   7.249 -0.3472  0.6101  0.1902
  353MOL0     C47575   3.387   8.956   7.323 -0.6786  0.3225 -0.2282
  353MOL0     C47576   3.364   8.849   7.411  0.3788 -0.5961  1.4350
  353MOL0     C47577   3.238   8.813   7.447  0.2805 -0.9716 -0.0211
  353MOL0     C47578   3.129   8.875   7.397 -0.9125  1.1873 -0.6929
  353MOL0     O47579   2.996   8.848   7.433 -0.4216 -0.0784 -0.4006
  353MOL0     C47580   2.974   8.750   7.544 -0.0550 -0.8714  0.3131
  353MOL0     C47581   2.822   8.768   7.598 -0.3745 -1.0536  0.6300
  353MOL0     C47582   2.722   8.658   7.556  0.6493 -0.5402  0.1981
  353MOL0     C47583   2.594   8.653   7.657 -0.1749 -0.4279 -0.1600
  353MOL0     C47584   2.509   8.530   7.634 -0.0788 -0.0878 -0.4061
  353MOL0     C47585   2.432   8.431   7.611  0.1902 -0.4990 -0.2548
  353MOL0     C47586   3.138   8.986   7.322 -0.1671  0.1252 -0.5028
  353MOL0     C47587   3.270   9.023   7.275  0.1203  0.4451 -0.7253
  353MOL0     H47588   3.677   9.051   6.995 -0.9298  1.9922  0.1475
  353MOL0     H47589   3.893   9.143   6.936 -1.0378  0.6772 -1.9263
  353MOL0     H47590   3.998   9.479   6.898 -1.4270  2.0678 -1.2980
  353MOL0     H47591   3.911   9.519   7.036  0.2972 -1.2834 -0.4290
  353MOL0     H47592   4.196   9.503   6.994  1.2663  0.0153  0.3340
  353MOL0     H47593   4.105   9.655   7.021  1.2709 -0.6147  0.5251
  353MOL0     H47594   4.063   9.513   7.258  2.7475 -2.0465  1.6760
  353MOL0     H47595   4.222   9.467   7.206 -1.8550 -0.3613  2.6248
  353MOL0     H47596   4.322   9.669   7.217 -1.4742 -0.7838 -1.8724
  353MOL0     H47597   4.166   9.758   7.198 -2.7257 -2.3249  0.3533
  353MOL0     H47598   4.108   9.732   7.435  0.3746  0.4833  2.1277
  353MOL0     H47599   4.241   9.613   7.447  1.9516  1.1280  0.0937
  353MOL0     H47600   4.394   9.799   7.423 -0.1249 -3.4808  2.5080
  353MOL0     H47601   4.243   9.910   7.397 -0.6134  1.7801  2.4731
  353MOL0     H47602   4.327   9.951   7.613 -1.1899  0.3526  1.7077
  353MOL0     H47603   4.173   9.867   7.637  2.3517 -0.0068  2.1294
  353MOL0     H47604   4.444   9.750   7.659 -0.9201  2.2909 -3.5685
  353MOL0     H47605   4.282   9.665   7.672  0.0243  0.3897 -0.5190
  353MOL0     H47606   4.265   9.606   7.942  3.6496 -2.2481  0.1393
  353MOL0     H47607   4.348   9.626   8.184  0.9681  0.8873  1.0921
  353MOL0     H47608   4.417   9.770   8.251  0.8231 -0.4941  0.6804
  353MOL0     H47609   4.126   9.787   8.181 -0.0799 -0.1942  0.3097
  353MOL0     H47610   4.224   9.900   8.259  1.5165 -0.1630  1.6318
  353MOL0     H47611   4.285   9.735   8.440  1.0494  1.4661 -1.8996
  353MOL0     H47612   4.155   9.622   8.374 -0.5461  0.6207 -1.4655
  353MOL0     H47613   3.991   9.811   8.424 -0.0671  1.7326  2.5785
  353MOL0     H47614   4.131   9.911   8.469  2.0238 -0.4537 -2.6763
  353MOL0     H47615   3.939   9.975   8.575  2.3318  2.8471 -0.2540
  353MOL0     H47616   3.729  10.147   8.760  0.5543  1.9815  0.4695
  353MOL0     H47617   3.871  10.252   8.794 -4.0917  0.4509  1.9319
  353MOL0     H47618   3.855  10.173   8.634 -0.5977  1.1117  0.1265
  353MOL0     H47619   3.955  10.268   9.254 -1.8332  1.7171  0.9395
  353MOL0     H47620   3.898  10.342   9.469  3.6881  0.3601 -4.0380
  353MOL0     H47621   3.892  10.310   9.765  0.0167 -2.7272  1.3947
  353MOL0     H47622   3.760  10.382   9.662 -0.0773  1.3018  1.7309
  353MOL0     H47623   3.632  10.378   9.824 -1.0519 -1.0725  0.5480
  353MOL0     H47624   3.697  10.214   9.884  3.3672 -0.5535  1.0503
  353MOL0     H47625   3.804  10.498   9.916 -2.0745 -0.9683 -2.3300
  353MOL0     H47626   3.870  10.350  10.000 -0.5556  0.3817 -1.0660
  353MOL0     H47627   3.602  10.498  10.044 -0.3127  1.8140  2.6241
  353MOL0     H47628   3.625  10.331  10.094  0.4721 -1.5019 -1.3800
  353MOL0     H47629   3.804  10.383  10.240  1.9331  1.5975  0.3096
  353MOL0     H47630   3.648  10.458  10.285 -0.8094  1.3050 -1.2249
  353MOL0     H47631   3.831  10.594  10.336 -2.0179 -1.0942  1.1160
  353MOL0     H47632   3.872  10.613  10.169 -1.8785  0.4958 -1.1076
  353MOL0     H47633   3.654  10.736  10.337 -2.4585 -3.9798  0.6655
  353MOL0     H47634   3.598  10.678  10.181 -0.5679 -3.4489  2.8126
  353MOL0     H47635   3.850  10.858  10.212 -1.0769  3.0097 -0.0729
  353MOL0     H47636   3.694  10.930  10.174  0.9161  0.2193 -2.8266
  353MOL0     H47637   3.728   9.957   9.560 -0.3622  1.4831  0.3338
  353MOL0     H47638   3.851   9.867   9.352  0.7206 -1.0168  0.4696
  353MOL0     H47639   4.093   9.872   9.031 -1.4077 -2.2344  0.3174
  353MOL0     H47640   4.145   9.736   8.848  0.8254  0.7950  1.9559
  353MOL0     H47641   3.887   9.398   7.274  0.1664  1.2611 -0.8898
  353MOL0     H47642   3.661   9.305   7.339  0.5748  1.6744  0.3638
  353MOL0     H47643   3.448   8.786   7.438  0.0644 -1.0722  1.3233
  353MOL0     H47644   3.227   8.726   7.512 -2.1124 -0.5087  0.2699
  353MOL0     H47645   2.993   8.646   7.516  0.7683 -0.2022 -1.8272
  353MOL0     H47646   3.049   8.771   7.621  3.6659 -1.4298 -2.8364
  353MOL0     H47647   2.783   8.866   7.570  1.9189 -0.1459  0.4095
  353MOL0     H47648   2.818   8.761   7.707 -2.7691 -2.5079  0.5230
  353MOL0     H47649   2.775   8.567   7.528  0.6918 -0.1728 -0.9415
  353MOL0     H47650   2.667   8.693   7.468 -2.7616 -1.5371  1.7681
  353MOL0     H47651   2.528   8.739   7.647 -0.4736 -0.6519 -0.1353
  353MOL0     H47652   2.641   8.645   7.756  1.4697  2.1662 -0.6533
  353MOL0     H47653   2.387   8.334   7.604  3.3248 -2.3942  2.5661
  353MOL0     H47654   3.052   9.038   7.281 -2.3494 -2.5185  0.3724
  353MOL0     H47655   3.282   9.106   7.207  2.2352  0.0901 -0.8484
  354MOL0     O47656   1.598   9.822   3.404 -0.2243  0.3979  0.2816
  354MOL0     C47657   1.653   9.722   3.432  0.2411  0.2965  0.4457
  354MOL0     O47658   1.667   9.618   3.345 -0.0162 -0.4355  0.2817
  354MOL0     C47659   1.621   9.612   3.219  0.6131 -0.2583 -0.3711
  354MOL0     C47660   1.538   9.506   3.192  0.3946  0.1705 -0.7792
  354MOL0     C47661   1.482   9.493   3.067 -0.2877 -0.4596  0.3204
  354MOL0     C47662   1.506   9.576   2.954  0.0262  0.4240  0.5605
  354MOL0     O47663   1.446   9.555   2.839 -0.1387 -0.0147  0.2090
  354MOL0     C47664   1.392   9.671   2.784  0.5998  0.2097 -0.5497
  354MOL0     C47665   1.279   9.631   2.686  0.2790  0.2242 -0.5672
  354MOL0     C47666   1.254   9.755   2.596 -0.1902  0.7124  0.7103
  354MOL0     C47667   1.151   9.729   2.481  0.5764  0.1322 -0.2874
  354MOL0     C47668   1.140   9.846   2.386  0.3299  0.0959  0.7998
  354MOL0     C47669   1.067   9.818   2.255  0.7607 -0.0808 -0.7203
  354MOL0     C47670   1.034   9.954   2.187  0.9213  0.7140 -0.7151
  354MOL0     C47671   1.028   9.927   2.031 -0.3793  0.4459  0.6273
  354MOL0     N47672   0.894   9.900   1.976 -0.0514  0.3247  0.1033
  354MOL0     C47673   0.781   9.829   2.012  0.0861 -0.5438 -0.6430
  354MOL0     C47674   0.680   9.876   1.925 -0.8527 -1.1837 -0.7189
  354MOL0     C47675   0.536   9.840   1.948 -0.1029 -0.6201  0.1271
  354MOL0     C47676   0.516   9.700   1.910  1.0871  0.5298 -0.5816
  354MOL0     C47677   0.376   9.639   1.932 -0.5937  0.5606  0.4311
  354MOL0     C47678   0.366   9.482   1.904 -0.3332 -0.2973 -0.0684
  354MOL0     O47679   0.395   9.477   1.761  0.2109  0.0825 -0.9411
  354MOL0     C47680   0.443   9.357   1.722  0.7863 -0.5241 -0.5958
  354MOL0     C47681   0.355   9.246   1.725  0.1405  0.8178 -0.3691
  354MOL0     C47682   0.405   9.112   1.702 -0.3036  0.0176  1.4765
  354MOL0     C47683   0.316   8.995   1.726  0.4044 -0.1308  0.2851
  354MOL0     C47684   0.543   9.102   1.655  0.5919 -0.2980 -0.2406
  354MOL0     C47685   0.611   8.968   1.640 -0.4188 -0.7484 -0.3715
  354MOL0     O47686   0.747   8.965   1.643 -0.4878  0.0779  0.8429
  354MOL0     C47687   0.802   8.839   1.666 -0.1884  0.7264 -0.0646
  354MOL0     C47688   0.859   8.804   1.788 -0.2650  0.1154 -0.1198
  354MOL0     C47689   0.920   8.676   1.813 -0.1682  0.7188 -0.8834
  354MOL0     C47690   0.922   8.580   1.715  0.6903 -0.0831 -0.8322
  354MOL0     O47691   0.976   8.459   1.718  0.2305  0.5231  0.4979
  354MOL0     C47692   1.076   8.435   1.815 -0.2116 -0.8900 -0.4502
  354MOL0     C47693   1.127   8.288   1.796 -0.6412  0.0492  0.0457
  354MOL0     C47694   1.207   8.258   1.668  0.3222 -0.1034  0.1328
  354MOL0     C47695   1.255   8.111   1.658  0.3704  0.5359  0.2339
  354MOL0     C47696   1.355   8.087   1.539 -0.3199  0.4975  1.6698
  354MOL0     C47697   1.275   8.076   1.395 -0.1113 -0.1695 -0.9711
  354MOL0     C47698   1.361   8.088   1.279 -0.7411  0.3619 -0.1499
  354MOL0     C47699   1.270   8.079   1.156 -0.4318  0.3714 -0.1809
  354MOL0    Cl47700   1.369   8.113   1.003  0.3526 -0.4318 -0.4474
  354MOL0     C47701   0.856   8.612   1.592  1.1324 -0.3444  1.5126
  354MOL0     C47702   0.788   8.736   1.566 -0.2344 -0.0057  0.0386
  354MOL0     O47703   0.541   8.872   1.620 -0.4345 -0.2466  0.0152
  354MOL0     C47704   0.629   9.214   1.648  0.5763 -0.0328 -0.0137
  354MOL0     C47705   0.577   9.348   1.679 -0.2911 -0.5721  0.5474
  354MOL0     N47706   0.746   9.944   1.823  0.1537  0.9776  0.4083
  354MOL0     N47707   0.866   9.953   1.852  0.3720 -0.4655 -0.0216
  354MOL0     C47708   1.589   9.684   2.988 -0.2903 -0.3561 -0.0779
  354MOL0     C47709   1.644   9.702   3.118  0.2888  0.2715  0.7175
  354MOL0     C47710   1.707   9.717   3.563  0.3197 -1.1598  0.3837
  354MOL0     C47711   1.738   9.589   3.618 -1.3387 -0.3711  0.3654
  354MOL0     C47712   1.774   9.567   3.748  0.4038  0.3942 -0.7458
  354MOL0     C47713   1.802   9.681   3.824  0.2051  0.5589  0.4017
  354MOL0     O47714   1.863   9.671   3.945 -0.1407 -0.4494  0.5972
  354MOL0     C47715   1.890   9.781   4.024  0.3483 -0.8400 -0.1380
  354MOL0     C47716   1.953   9.720   4.154  0.1903  0.2404  0.1557
  354MOL0     C47717   1.860   9.624   4.226  0.2303 -0.1764  0.3924
  354MOL0     C47718   1.917   9.594   4.365  0.1262 -1.0351 -0.2082
  354MOL0     C47719   2.044   9.515   4.371 -0.5781  0.3605 -0.2728
  354MOL0     C47720   2.150   9.459   4.385  1.0208  0.4682 -0.4370
  354MOL0     C47721   1.782   9.813   3.771  0.5459 -0.3459  0.3984
  354MOL0     C47722   1.728   9.830   3.639 -0.3840 -0.0666  0.1432
  354MOL0     H47723   1.509   9.424   3.256 -0.7675  0.1832 -1.2629
  354MOL0     H47724   1.410   9.412   3.060  1.1235 -1.8942  1.6009
  354MOL0     H47725   1.349   9.743   2.855 -1.2480 -1.6820  0.3484
  354MOL0     H47726   1.471   9.718   2.724  0.8600 -0.4947 -0.7664
  354MOL0     H47727   1.319   9.546   2.630 -0.5194  0.0724 -0.9162
  354MOL0     H47728   1.190   9.606   2.744  0.6675 -1.9769 -0.7937
  354MOL0     H47729   1.225   9.837   2.664 -0.1057  1.0348  0.3619
  354MOL0     H47730   1.352   9.789   2.559 -0.3354  0.6120  0.2311
  354MOL0     H47731   1.186   9.643   2.424  1.2233  0.1738  0.0370
  354MOL0     H47732   1.052   9.703   2.519  0.6576 -0.5725 -0.5368
  354MOL0     H47733   1.085   9.908   2.458 -0.4138 -3.4782  3.5743
  354MOL0     H47734   1.242   9.876   2.362 -0.1883  0.1884 -1.4655
  354MOL0     H47735   1.126   9.748   2.195 -2.1082 -0.1404 -3.8078
  354MOL0     H47736   0.972   9.773   2.283  0.4466  0.3287 -1.1071
  354MOL0     H47737   0.945   9.998   2.233  0.4121 -0.5710 -0.4379
  354MOL0     H47738   1.117  10.024   2.197  0.6613  1.0556 -0.9012
  354MOL0     H47739   1.109   9.861   1.999  0.3266  1.7062 -0.2598
  354MOL0     H47740   1.054  10.023   1.986  0.7359 -0.2440 -0.2593
  354MOL0     H47741   0.762   9.773   2.103 -0.5933 -0.2714 -0.6123
  354MOL0     H47742   0.501   9.851   2.052 -0.7075  1.4783 -0.2543
  354MOL0     H47743   0.463   9.897   1.890 -3.2882 -0.6847  3.6209
  354MOL0     H47744   0.576   9.628   1.967 -0.5078 -1.4359 -1.2538
  354MOL0     H47745   0.528   9.692   1.802 -1.1189  1.9370 -1.0024
  354MOL0     H47746   0.304   9.697   1.873 -0.8546  0.5796  0.7627
  354MOL0     H47747   0.350   9.646   2.038  1.5413 -4.7997  1.6426
  354MOL0     H47748   0.267   9.439   1.926 -1.4729  2.6509  1.1045
  354MOL0     H47749   0.438   9.417   1.953 -1.1891 -2.2993 -1.3289
  354MOL0     H47750   0.252   9.248   1.759 -0.2972  1.5601 -1.6537
  354MOL0     H47751   0.230   9.033   1.781 -0.0427 -0.8559  0.0938
  354MOL0     H47752   0.276   8.938   1.642 -0.8240  2.0471 -0.6822
  354MOL0     H47753   0.380   8.931   1.787  1.4302 -0.8212 -1.4357
  354MOL0     H47754   0.875   8.864   1.877  0.0703 -1.2420  0.7522
  354MOL0     H47755   0.952   8.661   1.916  0.5531  0.6269 -1.1134
  354MOL0     H47756   1.169   8.491   1.803 -1.0664  0.2877 -1.8350
  354MOL0     H47757   1.030   8.430   1.915 -2.6236  0.3483 -1.4105
  354MOL0     H47758   1.193   8.262   1.879 -0.3057 -0.0477 -0.2444
  354MOL0     H47759   1.044   8.217   1.801  0.3582 -1.1309  0.3655
  354MOL0     H47760   1.292   8.327   1.667 -0.0074  0.3650 -2.2424
  354MOL0     H47761   1.153   8.291   1.579 -0.0394  0.3253  0.5109
  354MOL0     H47762   1.300   8.060   1.744 -0.9016 -1.1048 -0.0079
  354MOL0     H47763   1.155   8.068   1.644 -1.3876  3.5821  2.3742
  354MOL0     H47764   1.409   7.992   1.550 -1.7682 -0.2024  3.3769
  354MOL0     H47765   1.429   8.167   1.540 -0.3268  0.5016  1.8979
  354MOL0     H47766   1.220   7.982   1.398 -0.0489 -0.1927 -0.5881
  354MOL0     H47767   1.194   8.150   1.392 -1.3846 -1.3423  1.5341
  354MOL0     H47768   1.431   8.006   1.299  1.5147  1.6800 -2.1077
  354MOL0     H47769   1.419   8.180   1.267  1.3747 -0.7640  0.8635
  354MOL0     H47770   1.202   8.164   1.168  1.1453  1.5494  0.7687
  354MOL0     H47771   1.218   7.984   1.140 -1.8468  0.7781  1.6364
  354MOL0     H47772   0.850   8.541   1.510  2.0299  0.6675  0.5343
  354MOL0     H47773   0.745   8.749   1.467  1.7177  0.9862 -0.7412
  354MOL0     H47774   0.734   9.200   1.626  0.3362 -5.1029  0.8158
  354MOL0     H47775   0.633   9.441   1.667  1.8277 -2.1379 -4.2139
  354MOL0     H47776   1.616   9.747   2.904 -2.5175 -0.8873 -1.2820
  354MOL0     H47777   1.703   9.791   3.136 -1.2703  1.6902 -0.8497
  354MOL0     H47778   1.734   9.504   3.550  2.1048  1.6185 -2.7413
  354MOL0     H47779   1.796   9.474   3.798 -1.9922  0.9324  1.5251
  354MOL0     H47780   1.952   9.861   3.983 -1.6394 -0.0182 -1.7296
  354MOL0     H47781   1.794   9.830   4.042  1.9607  2.8397 -0.5533
  354MOL0     H47782   1.970   9.805   4.220  0.0143  0.6265 -0.2838
  354MOL0     H47783   2.053   9.681   4.132  0.5242  2.0191 -1.8442
  354MOL0     H47784   1.842   9.534   4.167 -4.1347  0.8026 -0.1346
  354MOL0     H47785   1.762   9.671   4.245  0.8548  1.1954  0.3827
  354MOL0     H47786   1.834   9.553   4.425  0.0105 -1.1812 -0.4674
  354MOL0     H47787   1.949   9.686   4.415  1.9775  0.7244 -4.2203
  354MOL0     H47788   2.237   9.400   4.406 -0.0307 -0.6742  0.9814
  354MOL0     H47789   1.802   9.908   3.821 -3.5055  1.3885 -0.9150
  354MOL0     H47790   1.708   9.929   3.600  3.7333  1.4603  1.3651
  355MOL0     O47791   1.377  10.527   6.389 -0.3354 -0.2948 -0.0313
  355MOL0     C47792   1.420  10.415   6.398 -1.1364 -0.1858  0.7861
  355MOL0     O47793   1.347  10.306   6.410 -0.6502  0.3844 -0.1683
  355MOL0     C47794   1.209  10.311   6.410  0.3963  0.6182 -0.4067
  355MOL0     C47795   1.148  10.217   6.493  0.4027 -1.3430  0.1161
  355MOL0     C47796   1.008  10.214   6.485  0.7522 -0.5773  0.1533
  355MOL0     C47797   0.922  10.297   6.401  0.1535  0.2656 -0.2204
  355MOL0     O47798   0.784  10.281   6.410 -0.1604  0.4725  0.3922
  355MOL0     C47799   0.702  10.382   6.360  0.3541  1.0043  0.1150
  355MOL0     C47800   0.588  10.390   6.453  0.1985 -0.1375 -0.7719
  355MOL0     C47801   0.609  10.494   6.563 -0.1228  0.3432 -0.4611
  355MOL0     C47802   0.491  10.520   6.667 -0.1074  0.0138  0.0985
  355MOL0     C47803   0.462  10.672   6.690  0.0003  0.0733  0.6172
  355MOL0     C47804   0.326  10.673   6.756 -0.3877  0.4856  0.7856
  355MOL0     C47805   0.261  10.818   6.759 -0.4222  0.4636 -0.5218
  355MOL0     C47806   0.195  10.861   6.897 -0.0209  1.1910 -0.1006
  355MOL0     N47807   0.146  11.002   6.884  0.5660 -0.1344  0.0432
  355MOL0     C47808   0.207  11.108   6.937 -0.2728 -0.0151  0.6513
  355MOL0     C47809   0.132  11.220   6.901  0.0568 -1.0598 -0.6747
  355MOL0     C47810   0.162  11.365   6.920 -0.4918  0.1717 -0.9212
  355MOL0     C47811   0.065  11.461   6.858  0.5985  0.2337 -0.3191
  355MOL0     C47812  -0.047  11.502   6.967  0.0287 -0.1544 -0.4355
  355MOL0     C47813  -0.155  11.588   6.923 -0.0362 -0.1685  0.1287
  355MOL0     O47814  -0.239  11.627   7.030  0.2252 -0.6308  1.0351
  355MOL0     C47815  -0.297  11.756   7.025 -0.5830  1.0468 -0.9224
  355MOL0     C47816  -0.293  11.850   6.916 -0.1777  0.3335 -0.4354
  355MOL0     C47817  -0.364  11.973   6.922 -1.0197  0.1590 -0.3876
  355MOL0     C47818  -0.346  12.056   6.796 -0.3832  0.6210  0.4049
  355MOL0     C47819  -0.439  12.001   7.046  0.4968  0.2256 -0.5104
  355MOL0     C47820  -0.519  12.129   7.062 -0.4461  0.8729  0.9909
  355MOL0     O47821  -0.516  12.219   6.960 -0.0532  0.4028 -0.7221
  355MOL0     C47822  -0.611  12.324   6.969 -0.4788 -0.3868  0.4000
  355MOL0     C47823  -0.747  12.302   7.001  0.5364  0.0522  0.3390
  355MOL0     C47824  -0.829  12.411   7.011  0.1381  0.1567 -0.9076
  355MOL0     C47825  -0.779  12.543   7.008 -1.0773 -1.0496  0.7876
  355MOL0     O47826  -0.868  12.647   6.999  0.3255  0.3922 -0.0958
  355MOL0     C47827  -0.845  12.759   7.084 -0.4166 -0.3297 -1.3336
  355MOL0     C47828  -0.962  12.854   7.076  0.4451 -0.6186 -0.0326
  355MOL0     C47829  -1.063  12.822   7.195 -0.5452 -1.1965  0.4148
  355MOL0     C47830  -1.179  12.912   7.210 -0.3448 -0.4747 -0.1323
  355MOL0     C47831  -1.269  12.880   7.327 -0.0554  0.8433 -0.3082
  355MOL0     C47832  -1.192  12.931   7.462 -0.5092  0.9897  0.8838
  355MOL0     C47833  -1.285  12.936   7.586 -0.0072  0.0007  0.5166
  355MOL0     C47834  -1.245  13.005   7.705 -0.3595 -0.5554  0.0393
  355MOL0    Cl47835  -1.079  12.954   7.745  0.6008 -0.3596 -0.0964
  355MOL0     C47836  -0.643  12.564   6.983  0.3861  0.3819 -0.7767
  355MOL0     C47837  -0.559  12.455   6.957 -0.4165 -0.2238  0.8321
  355MOL0     O47838  -0.572  12.138   7.169  0.3652  0.2721  0.7017
  355MOL0     C47839  -0.426  11.913   7.158  0.5921 -0.3802  0.7049
  355MOL0     C47840  -0.355  11.798   7.147 -0.2019 -1.4472  0.3096
  355MOL0     N47841   0.009  11.170   6.853 -0.5199  0.7884  0.2126
  355MOL0     N47842   0.021  11.041   6.833 -0.0039 -0.0310  0.3612
  355MOL0     C47843   0.993  10.371   6.311 -0.9900  0.1056  0.4235
  355MOL0     C47844   1.133  10.377   6.310  0.7190 -0.4694 -0.1634
  355MOL0     C47845   1.566  10.403   6.361 -0.8989  0.0387 -0.0137
  355MOL0     C47846   1.655  10.494   6.411  0.4839  0.0004 -0.5164
  355MOL0     C47847   1.789  10.500   6.364 -0.4021 -0.4432 -1.9258
  355MOL0     C47848   1.839  10.410   6.273 -0.1026  0.4489  0.9844
  355MOL0     O47849   1.969  10.407   6.218 -0.6893  0.1591 -0.2558
  355MOL0     C47850   2.074  10.392   6.324 -0.1353  0.7212 -0.1935
  355MOL0     C47851   2.192  10.457   6.266  1.1161  0.9216 -0.3806
  355MOL0     C47852   2.258  10.357   6.168  0.6744 -0.2801 -0.3931
  355MOL0     C47853   2.332  10.439   6.066  0.3631 -0.0878  0.6929
  355MOL0     C47854   2.448  10.361   6.032 -0.1553 -0.2699  0.0507
  355MOL0     C47855   2.542  10.285   6.018  0.0359  0.4650 -0.6764
  355MOL0     C47856   1.747  10.325   6.216  0.0502 -0.2215  0.8593
  355MOL0     C47857   1.610  10.328   6.254 -0.1925 -0.0588  0.1817
  355MOL0     H47858   1.194  10.146   6.561 -4.0286 -4.5504  0.1765
  355MOL0     H47859   0.957  10.140   6.546  1.0260 -2.0023 -1.2554
  355MOL0     H47860   0.748  10.480   6.350  0.8182  1.0703  2.2707
  355MOL0     H47861   0.665  10.349   6.263  2.1957 -0.7117 -0.0714
  355MOL0     H47862   0.499  10.422   6.398 -0.4726 -0.8110 -0.1040
  355MOL0     H47863   0.554  10.304   6.512 -1.2957 -1.6336 -3.6201
  355MOL0     H47864   0.708  10.472   6.604 -0.1835 -3.5699 -2.0214
  355MOL0     H47865   0.634  10.585   6.508  2.7250  1.2889  2.1091
  355MOL0     H47866   0.405  10.476   6.616 -1.8169  2.0108  1.0971
  355MOL0     H47867   0.487  10.470   6.764 -3.8376 -1.3411 -0.6143
  355MOL0     H47868   0.527  10.724   6.761 -2.5199  1.3410  2.1768
  355MOL0     H47869   0.457  10.733   6.599 -2.9437  0.3436  0.8388
  355MOL0     H47870   0.257  10.595   6.723  0.0535  0.4654 -0.1050
  355MOL0     H47871   0.351  10.639   6.857 -2.1154  1.1169  1.4692
  355MOL0     H47872   0.340  10.889   6.732 -2.0524  3.2375  1.3492
  355MOL0     H47873   0.189  10.822   6.677 -1.3649 -2.6303  0.0317
  355MOL0     H47874   0.259  10.843   6.984  3.1881  1.2167 -2.2875
  355MOL0     H47875   0.113  10.791   6.916 -0.2826  1.4109 -0.4021
  355MOL0     H47876   0.312  11.113   6.963 -0.5950 -0.1263  2.0697
  355MOL0     H47877   0.175  11.380   7.028  1.9187  1.3045 -1.2947
  355MOL0     H47878   0.260  11.380   6.873  0.2308  1.0445  0.7600
  355MOL0     H47879   0.019  11.434   6.762  1.1924 -2.8540  0.1636
  355MOL0     H47880   0.125  11.550   6.836 -0.0909  0.2994 -2.1023
  355MOL0     H47881  -0.004  11.556   7.052 -0.3846 -1.7321  0.8372
  355MOL0     H47882  -0.100  11.413   7.004 -0.2897  1.2956  2.9852
  355MOL0     H47883  -0.210  11.550   6.836 -0.0373  1.2181 -0.5007
  355MOL0     H47884  -0.112  11.682   6.887 -2.8413  1.9255  1.7550
  355MOL0     H47885  -0.252  11.810   6.823 -1.5821 -0.9388 -0.5545
  355MOL0     H47886  -0.313  12.155   6.826 -2.5318  0.6893  2.9588
  355MOL0     H47887  -0.255  12.022   6.746  1.4064  2.5299  2.2237
  355MOL0     H47888  -0.437  12.056   6.734 -1.0466  0.9215  1.3539
  355MOL0     H47889  -0.783  12.202   7.026  1.1983 -0.0475  0.9524
  355MOL0     H47890  -0.937  12.410   7.025  0.3597  2.4016  1.9002
  355MOL0     H47891  -0.826  12.728   7.187 -0.5728 -1.0071 -1.5030
  355MOL0     H47892  -0.753  12.810   7.054  0.2996  0.0608  1.3221
  355MOL0     H47893  -0.941  12.961   7.087  1.0606 -0.7131 -0.2613
  355MOL0     H47894  -1.012  12.832   6.981  1.5228 -0.3622 -0.6759
  355MOL0     H47895  -1.006  12.814   7.288  2.3485  2.5132 -0.8232
  355MOL0     H47896  -1.103  12.722   7.175 -1.2930 -0.3515 -3.0557
  355MOL0     H47897  -1.153  13.018   7.223  0.8060 -1.0660  3.2201
  355MOL0     H47898  -1.235  12.910   7.116 -3.2018 -0.9604  1.4499
  355MOL0     H47899  -1.295  12.774   7.326  0.5150  0.6371  1.8876
  355MOL0     H47900  -1.361  12.935   7.302 -1.6780 -1.9728 -1.0273
  355MOL0     H47901  -1.107  12.863   7.475 -2.6592 -1.7264  1.9305
  355MOL0     H47902  -1.160  13.033   7.441 -0.6295  0.7096 -0.7812
  355MOL0     H47903  -1.321  12.836   7.613  0.4526  0.3745  2.6766
  355MOL0     H47904  -1.380  12.984   7.560 -0.2032  0.2473  1.6725
  355MOL0     H47905  -1.310  12.981   7.790  0.0181  0.5869  0.6745
  355MOL0     H47906  -1.253  13.113   7.691  3.0234  0.7692  5.2928
  355MOL0     H47907  -0.612  12.667   6.970 -1.6317  0.7042 -3.9565
  355MOL0     H47908  -0.460  12.472   6.918 -0.4381 -0.8058  0.5148
  355MOL0     H47909  -0.484  11.943   7.244  0.1334  0.5456  0.0900
  355MOL0     H47910  -0.345  11.735   7.235 -0.8756 -2.7779 -0.5403
  355MOL0     H47911   0.948  10.422   6.226  1.5489  1.5913 -0.1366
  355MOL0     H47912   1.188  10.414   6.225  1.1056 -1.5752 -0.4105
  355MOL0     H47913   1.622  10.552   6.497  0.3596 -1.9882  0.8234
  355MOL0     H47914   1.853  10.575   6.409 -4.4804  4.0721 -2.8299
  355MOL0     H47915   2.048  10.429   6.424  2.6865  2.0591  0.1586
  355MOL0     H47916   2.090  10.285   6.341 -2.2506  0.0831 -1.7568
  355MOL0     H47917   2.270  10.476   6.340  1.2242 -1.2754  0.1514
  355MOL0     H47918   2.162  10.550   6.218 -3.8204  0.1545  0.6506
  355MOL0     H47919   2.188  10.290   6.116  1.7921 -0.6659 -1.4345
  355MOL0     H47920   2.318  10.302   6.241  0.9407  1.6167  0.8697
  355MOL0     H47921   2.355  10.535   6.115 -2.0837  0.1363  1.5731
  355MOL0     H47922   2.275  10.443   5.973  1.3896 -0.0001  0.0464
  355MOL0     H47923   2.617  10.211   6.003 -1.2906 -1.1040  0.0662
  355MOL0     H47924   1.770  10.268   6.127 -1.1383 -0.0951  0.4510
  355MOL0     H47925   1.546  10.273   6.186  3.1901 -1.4210 -2.1382
  356MOL0     O47926   9.548  10.835   7.534 -0.6490  1.1060 -0.2957
  356MOL0     C47927   9.626  10.740   7.529 -0.1636  0.1221  1.0950
  356MOL0     O47928   9.727  10.708   7.621  0.2119  0.6785 -0.0642
  356MOL0     C47929   9.765  10.810   7.704  0.2930  0.4750 -0.7049
  356MOL0     C47930   9.804  10.937   7.655 -0.3986  0.2499  0.4621
  356MOL0     C47931   9.855  11.036   7.740  0.6855  0.8567 -0.5757
  356MOL0     C47932   9.890  11.002   7.879  0.2042 -0.0615  0.4918
  356MOL0     O47933   9.957  11.104   7.955 -0.1788  0.0023  0.6931
  356MOL0     C47934   9.945  11.108   8.103 -0.5483  0.0877  0.3256
  356MOL0     C47935  10.017  11.241   8.128 -0.0675 -0.0278 -0.9597
  356MOL0     C47936  10.161  11.253   8.075  0.6944  0.5510 -0.4609
  356MOL0     C47937  10.220  11.389   8.123  0.2208  0.5625  0.3195
  356MOL0     C47938  10.367  11.405   8.063 -0.7596  0.0578 -0.6763
  356MOL0     C47939  10.456  11.529   8.108  0.2548  0.4158 -0.2748
  356MOL0     C47940  10.442  11.572   8.257  0.1622 -0.0829 -0.3690
  356MOL0     C47941  10.529  11.705   8.293 -0.1920  0.1142 -1.2672
  356MOL0     N47942  10.667  11.678   8.256  0.1744  0.3771 -0.1940
  356MOL0     C47943  10.731  11.570   8.313  0.2380  0.7182 -0.7410
  356MOL0     C47944  10.858  11.579   8.282 -0.2063 -0.5522  0.8716
  356MOL0     C47945  10.967  11.482   8.334  0.0731 -0.0653  0.6694
  356MOL0     C47946  11.040  11.528   8.452 -0.5522  0.0259  0.7736
  356MOL0     C47947  10.953  11.540   8.571  0.1296  0.6245 -0.0525
  356MOL0     C47948  11.008  11.629   8.676 -0.1851 -0.3099  0.1060
  356MOL0     O47949  10.991  11.771   8.650  0.2686 -0.0157 -0.6844
  356MOL0     C47950  10.862  11.827   8.633 -0.4068  0.9003 -0.2499
  356MOL0     C47951  10.836  11.919   8.521 -0.2731  0.2745 -0.1789
  356MOL0     C47952  10.709  11.978   8.502  0.8455 -0.7400  0.6817
  356MOL0     C47953  10.699  12.077   8.385 -0.7370 -0.1789 -0.8250
  356MOL0     C47954  10.589  11.943   8.577 -0.8188 -0.5120  0.8725
  356MOL0     C47955  10.450  11.984   8.557  1.0085  0.0285  0.1869
  356MOL0     O47956  10.362  11.977   8.668  0.1461 -0.5218  0.3158
  356MOL0     C47957  10.232  12.018   8.645  0.6846  0.1815 -0.8608
  356MOL0     C47958  10.141  11.922   8.611  1.3415  0.9938  0.1414
  356MOL0     C47959  10.003  11.957   8.597  0.1931 -0.4240 -0.2902
  356MOL0     C47960   9.972  12.092   8.606 -0.1164 -0.7022 -0.0753
  356MOL0     O47961   9.841  12.135   8.605 -0.3428  0.0704 -1.0667
  356MOL0     C47962   9.734  12.067   8.675 -0.4849 -0.2743 -0.1324
  356MOL0     C47963   9.599  12.082   8.601 -0.7852 -0.1557  0.2194
  356MOL0     C47964   9.603  11.972   8.502  0.5190  1.4584 -0.0274
  356MOL0     C47965   9.472  11.983   8.429  0.3157  0.7115 -1.0601
  356MOL0     C47966   9.488  11.893   8.301  0.5780 -0.0173 -0.7483
  356MOL0     C47967   9.347  11.908   8.227  0.6701 -0.8975  0.1455
  356MOL0     C47968   9.335  11.838   8.097  0.2044  0.2563  0.1979
  356MOL0     C47969   9.385  11.915   7.972  0.8340  0.7178  0.2900
  356MOL0    Cl47970   9.566  11.946   7.963 -0.1307  0.1146 -0.1534
  356MOL0     C47971  10.067  12.193   8.632  0.0828 -0.1475 -0.0381
  356MOL0     C47972  10.194  12.155   8.663 -0.6987 -0.2285  1.0280
  356MOL0     O47973  10.419  11.995   8.440 -0.4546  0.1289  0.0194
  356MOL0     C47974  10.619  11.840   8.675  0.3324 -0.2241 -0.7235
  356MOL0     C47975  10.743  11.786   8.706  0.4900  0.5553 -0.2492
  356MOL0     N47976  10.877  11.685   8.193  0.0054  0.1838  0.2917
  356MOL0     N47977  10.759  11.744   8.172  0.6723  0.3639  1.2839
  356MOL0     C47978   9.872  10.869   7.919  0.3902  0.4213 -0.4396
  356MOL0     C47979   9.803  10.781   7.839 -0.5202  0.0275 -0.1600
  356MOL0     C47980   9.584  10.631   7.435 -0.1078 -0.1008  0.1671
  356MOL0     C47981   9.653  10.504   7.422  0.3624  0.0859  0.7811
  356MOL0     C47982   9.612  10.415   7.328 -0.7311  0.1632  1.0077
  356MOL0     C47983   9.517  10.446   7.230  1.1148  0.1593 -0.3070
  356MOL0     O47984   9.500  10.358   7.123  0.0090  0.1109 -0.2535
  356MOL0     C47985   9.396  10.380   7.033 -0.3387 -0.2157 -0.4457
  356MOL0     C47986   9.415  10.294   6.906  0.8321 -0.3949  0.9284
  356MOL0     C47987   9.553  10.282   6.845 -0.4289 -0.0756 -0.2719
  356MOL0     C47988   9.571  10.152   6.780 -0.1437 -0.0416  1.3876
  356MOL0     C47989   9.453  10.113   6.695 -0.0687 -0.0772 -0.1773
  356MOL0     C47990   9.368  10.076   6.618 -0.9678  0.0311  0.1922
  356MOL0     C47991   9.439  10.562   7.250  0.4075  0.0012 -0.0977
  356MOL0     C47992   9.479  10.652   7.349  0.9668  0.0330 -0.1693
  356MOL0     H47993   9.783  10.975   7.555 -2.4299  0.9070  1.0936
  356MOL0     H47994   9.873  11.139   7.709  1.1389  0.2998 -2.2726
  356MOL0     H47995   9.839  11.110   8.131 -1.4020 -0.5517 -2.5107
  356MOL0     H47996   9.984  11.016   8.146 -0.1924 -1.4609 -2.9909
  356MOL0     H47997   9.943  11.304   8.077 -2.9889 -0.6610  2.0677
  356MOL0     H47998  10.020  11.267   8.235 -0.0790  3.2585 -1.6346
  356MOL0     H47999  10.224  11.170   8.109  0.0359  0.1754 -0.1365
  356MOL0     H48000  10.161  11.249   7.966 -4.9960 -1.8878 -0.7232
  356MOL0     H48001  10.159  11.468   8.078 -0.7426 -0.1760  0.3010
  356MOL0     H48002  10.226  11.393   8.233 -0.0815  0.4219  0.3399
  356MOL0     H48003  10.413  11.311   8.094  0.9865  0.7379 -1.0719
  356MOL0     H48004  10.371  11.400   7.953  2.5510 -0.5136 -0.6264
  356MOL0     H48005  10.560  11.524   8.076 -0.1581 -1.3700 -1.4598
  356MOL0     H48006  10.422  11.610   8.042 -3.3465 -0.6117  0.1501
  356MOL0     H48007  10.341  11.608   8.279 -0.7295 -1.8346 -1.3678
  356MOL0     H48008  10.460  11.500   8.337 -4.2708  1.7068  2.6613
  356MOL0     H48009  10.522  11.722   8.401 -0.9860  2.0753 -1.5924
  356MOL0     H48010  10.507  11.798   8.240 -0.0195  0.6337 -0.4338
  356MOL0     H48011  10.708  11.496   8.389  3.1634 -1.6173 -1.9469
  356MOL0     H48012  10.926  11.384   8.361 -1.2556  0.2083 -0.2971
  356MOL0     H48013  11.036  11.471   8.250  0.8514 -1.5385  1.4476
  356MOL0     H48014  11.080  11.627   8.430 -0.9608  0.3422  1.4362
  356MOL0     H48015  11.125  11.462   8.472 -0.9274 -0.0617  2.2146
  356MOL0     H48016  10.941  11.447   8.626  3.1348 -0.0668 -0.3896
  356MOL0     H48017  10.857  11.588   8.547 -1.1080 -0.5451  2.2348
  356MOL0     H48018  11.114  11.613   8.695 -0.6977 -4.0335  0.5346
  356MOL0     H48019  10.974  11.610   8.778 -0.3863 -1.7083 -0.2034
  356MOL0     H48020  10.927  11.941   8.466  0.9695  2.3974  2.5047
  356MOL0     H48021  10.604  12.127   8.363 -2.1888 -2.0759  0.7469
  356MOL0     H48022  10.779  12.151   8.392 -0.5665 -0.5065  2.5733
  356MOL0     H48023  10.727  12.015   8.299  3.7998  0.4255 -0.0181
  356MOL0     H48024  10.175  11.820   8.598  0.0150  0.0195  3.3973
  356MOL0     H48025   9.932  11.880   8.569  1.0747 -0.8603 -1.3752
  356MOL0     H48026   9.755  11.962   8.701 -1.6228 -0.3421  0.5810
  356MOL0     H48027   9.724  12.117   8.772  1.2200 -2.1338  1.1019
  356MOL0     H48028   9.529  12.061   8.682  0.4964 -3.3327  0.6670
  356MOL0     H48029   9.594  12.182   8.558  1.4203  0.2675  0.7917
  356MOL0     H48030   9.616  11.874   8.549 -2.4954  1.7050  1.5648
  356MOL0     H48031   9.680  11.978   8.425 -0.2871  0.9239 -0.8951
  356MOL0     H48032   9.382  11.948   8.480 -0.9333  1.4538 -2.6550
  356MOL0     H48033   9.457  12.085   8.392  0.3914  0.3622 -2.0970
  356MOL0     H48034   9.516  11.789   8.322 -0.1292 -0.0266  0.2116
  356MOL0     H48035   9.560  11.931   8.228  1.8558 -1.3795 -0.2288
  356MOL0     H48036   9.268  11.872   8.294 -1.6388  1.9689 -0.7635
  356MOL0     H48037   9.324  12.015   8.226  0.5778 -0.9131 -1.0048
  356MOL0     H48038   9.227  11.833   8.078  0.4981  0.7460 -1.9259
  356MOL0     H48039   9.383  11.740   8.099  2.0380  1.0641 -1.1863
  356MOL0     H48040   9.316  12.000   7.965 -0.5908  0.2067  4.7942
  356MOL0     H48041   9.377  11.854   7.881  1.8962 -3.6720  2.8581
  356MOL0     H48042  10.041  12.297   8.648  0.9009 -0.1271  1.2771
  356MOL0     H48043  10.265  12.229   8.696 -0.4172  0.5842 -1.2191
  356MOL0     H48044  10.536  11.818   8.741 -1.5099  0.8626 -2.5716
  356MOL0     H48045  10.756  11.719   8.790  0.7376  0.8072 -0.0859
  356MOL0     H48046   9.914  10.823   8.009 -0.2642 -0.2059 -0.4412
  356MOL0     H48047   9.775  10.681   7.872  3.7810 -0.0991  4.4393
  356MOL0     H48048   9.725  10.483   7.500 -0.3154  0.7381  1.5933
  356MOL0     H48049   9.660  10.318   7.316  0.1933  0.6954  0.3213
  356MOL0     H48050   9.295  10.378   7.075  0.6013  0.2880  1.9933
  356MOL0     H48051   9.407  10.483   6.997 -3.5966  0.6006  0.5727
  356MOL0     H48052   9.332  10.311   6.837  0.8013 -3.2082  0.1650
  356MOL0     H48053   9.394  10.194   6.945  1.6442 -1.1633 -0.5301
  356MOL0     H48054   9.632  10.282   6.921 -1.3963 -2.5992  0.8564
  356MOL0     H48055   9.582  10.370   6.787  1.2872  0.8934  1.9080
  356MOL0     H48056   9.590  10.074   6.854 -1.0618  0.8590  2.6166
  356MOL0     H48057   9.658  10.152   6.713 -1.0772  0.7678  0.1096
  356MOL0     H48058   9.274  10.059   6.569  0.4171  2.8967 -3.9910
  356MOL0     H48059   9.364  10.592   7.176  0.3251  2.5689  0.9251
  356MOL0     H48060   9.426  10.746   7.361  3.9421  1.8667 -0.3672
  357MOL0     O48061   5.341   2.862   5.744 -0.3433 -0.1445  0.1013
  357MOL0     C48062   5.340   2.922   5.638 -0.1105  0.6700  0.0182
  357MOL0     O48063   5.381   3.046   5.629  0.0932 -0.1938 -0.0182
  357MOL0     C48064   5.426   3.102   5.746 -0.7211 -0.2099 -0.5843
  357MOL0     C48065   5.554   3.115   5.766 -0.1265  0.0028 -0.5215
  357MOL0     C48066   5.610   3.195   5.868 -0.3990  0.3586  0.6094
  357MOL0     C48067   5.535   3.266   5.951 -0.6456 -0.3972 -0.1524
  357MOL0     O48068   5.590   3.337   6.058 -0.2427  0.0911  0.4511
  357MOL0     C48069   5.510   3.429   6.124  0.5579 -1.5616 -0.4872
  357MOL0     C48070   5.602   3.539   6.190 -0.1182  0.3673 -0.0902
  357MOL0     C48071   5.536   3.647   6.257 -0.1689 -0.6864 -0.4216
  357MOL0     C48072   5.628   3.721   6.363 -0.4439  0.7074  0.2625
  357MOL0     C48073   5.555   3.827   6.460  0.1285  0.7610  0.1019
  357MOL0     C48074   5.501   3.754   6.588 -0.0507 -0.0391  0.0375
  357MOL0     C48075   5.432   3.865   6.675 -0.9213 -0.7056 -0.0019
  357MOL0     C48076   5.381   3.809   6.806 -0.3747  0.4029 -0.4026
  357MOL0     N48077   5.289   3.903   6.880 -0.1909  0.6481 -0.3361
  357MOL0     C48078   5.287   3.916   7.017  0.9472 -0.4967  0.0011
  357MOL0     C48079   5.179   4.002   7.038 -0.7487  0.3697  0.2421
  357MOL0     C48080   5.136   4.044   7.179 -0.2346 -0.2728  0.5813
  357MOL0     C48081   5.236   4.122   7.258  0.3628  1.1340 -0.9519
  357MOL0     C48082   5.169   4.186   7.389  0.2279  0.2449  0.5755
  357MOL0     C48083   5.283   4.267   7.455  0.2858  0.0992  0.2308
  357MOL0     O48084   5.314   4.384   7.380  0.2878  0.3576  0.4799
  357MOL0     C48085   5.425   4.450   7.422 -0.1589  0.0284  1.0623
  357MOL0     C48086   5.483   4.520   7.319  0.3056 -0.4292 -0.4399
  357MOL0     C48087   5.603   4.593   7.332  0.2311 -0.3015  0.6650
  357MOL0     C48088   5.650   4.659   7.205  0.4135  0.6783  0.1282
  357MOL0     C48089   5.668   4.583   7.456 -0.8344 -0.3848  0.0286
  357MOL0     C48090   5.789   4.672   7.488  0.4888 -0.1572 -0.7199
  357MOL0     O48091   5.857   4.636   7.604  0.0816  0.2009 -0.1755
  357MOL0     C48092   5.969   4.711   7.643 -0.0303  0.4643 -0.4027
  357MOL0     C48093   6.087   4.644   7.667 -0.1073 -0.0130  0.8370
  357MOL0     C48094   6.197   4.715   7.701  0.0927  0.0493  0.6307
  357MOL0     C48095   6.195   4.853   7.722  0.7533 -0.4570 -0.8880
  357MOL0     O48096   6.301   4.941   7.733 -0.6354  0.4948 -0.0511
  357MOL0     C48097   6.402   4.932   7.634  0.6565  0.4843 -0.4626
  357MOL0     C48098   6.520   5.022   7.663  0.1100  0.5693 -0.1855
  357MOL0     C48099   6.485   5.170   7.649  0.0646  0.0721  0.0267
  357MOL0     C48100   6.597   5.278   7.677 -0.1338 -0.0631  0.3672
  357MOL0     C48101   6.562   5.419   7.617  0.3790 -0.0148  0.5993
  357MOL0     C48102   6.653   5.533   7.664  0.0539 -0.3820  0.7518
  357MOL0     C48103   6.609   5.674   7.613  0.2385 -0.9833 -0.5313
  357MOL0     C48104   6.729   5.769   7.601  0.3593  1.8616 -0.2923
  357MOL0    Cl48105   6.832   5.758   7.750  0.0161 -0.2136 -0.1205
  357MOL0     C48106   6.072   4.914   7.721 -0.0820 -0.7781 -0.6521
  357MOL0     C48107   5.968   4.848   7.668  0.3130 -0.5167 -1.2889
  357MOL0     O48108   5.820   4.767   7.425 -0.2463 -0.0518 -0.1398
  357MOL0     C48109   5.617   4.512   7.566  0.1478  0.3099  0.7344
  357MOL0     C48110   5.493   4.442   7.538 -0.6781  0.2647 -0.2162
  357MOL0     N48111   5.146   4.058   6.915  0.5692 -0.5068  0.3429
  357MOL0     N48112   5.206   3.985   6.825 -0.1497  0.3602  0.2682
  357MOL0     C48113   5.394   3.243   5.941 -0.6862  0.3745 -0.8353
  357MOL0     C48114   5.341   3.178   5.831  0.5536  0.0988  0.8991
  357MOL0     C48115   5.288   2.857   5.521  0.0732 -0.5135  0.1417
  357MOL0     C48116   5.287   2.721   5.518 -0.9348 -0.3276 -0.1681
  357MOL0     C48117   5.238   2.650   5.416  0.1819 -0.4802  0.3852
  357MOL0     C48118   5.184   2.716   5.317  0.3349  0.4900 -0.5448
  357MOL0     O48119   5.130   2.634   5.218 -0.5784 -0.0635  0.6273
  357MOL0     C48120   5.102   2.677   5.087 -0.4971  0.4134  0.1262
  357MOL0     C48121   4.950   2.709   5.070  0.6766  0.6751  0.4012
  357MOL0     C48122   4.924   2.760   4.931  0.0191 -0.6259 -0.6520
  357MOL0     C48123   4.901   2.655   4.826 -0.4535 -0.0816  0.2003
  357MOL0     C48124   4.848   2.527   4.855 -0.4819 -0.2686 -0.5769
  357MOL0     C48125   4.801   2.429   4.913  0.1345 -0.7016  0.1995
  357MOL0     C48126   5.178   2.862   5.310 -0.0108  0.3509 -0.2509
  357MOL0     C48127   5.230   2.931   5.418 -0.3240  0.6323 -0.1938
  357MOL0     H48128   5.628   3.063   5.706 -1.1614 -1.2925 -0.7248
  357MOL0     H48129   5.718   3.205   5.868 -0.5929  4.2962 -0.7237
  357MOL0     H48130   5.434   3.474   6.059  1.3488 -0.5579 -0.7366
  357MOL0     H48131   5.450   3.381   6.202 -0.5320 -1.7881 -1.4323
  357MOL0     H48132   5.665   3.490   6.265  4.0995  0.8826 -2.9641
  357MOL0     H48133   5.671   3.564   6.110 -0.9055 -3.1473 -2.0781
  357MOL0     H48134   5.499   3.722   6.186 -2.1037 -1.8968 -0.7749
  357MOL0     H48135   5.449   3.611   6.313  1.2991  0.1679  2.6509
  357MOL0     H48136   5.677   3.647   6.428 -0.9745  0.7698  0.7431
  357MOL0     H48137   5.713   3.757   6.305  0.0672  0.1766  0.6638
  357MOL0     H48138   5.626   3.902   6.495 -0.3586  0.9010  0.7975
  357MOL0     H48139   5.471   3.871   6.405 -2.3551 -1.5479  1.7731
  357MOL0     H48140   5.431   3.675   6.558 -1.9881  1.0944  1.3262
  357MOL0     H48141   5.575   3.715   6.658 -0.9266 -4.4435 -1.1551
  357MOL0     H48142   5.513   3.932   6.706 -0.7000 -0.6528 -0.6924
  357MOL0     H48143   5.354   3.920   6.623  1.0535 -1.0755 -3.7143
  357MOL0     H48144   5.465   3.775   6.867  2.6708  2.6221 -3.0264
  357MOL0     H48145   5.328   3.717   6.782  0.2516  0.6380 -3.0605
  357MOL0     H48146   5.352   3.882   7.097 -0.0431 -0.2386  0.9499
  357MOL0     H48147   5.054   4.112   7.154 -0.7637 -0.6973  1.1690
  357MOL0     H48148   5.088   3.961   7.229  1.7620 -1.8985 -0.0371
  357MOL0     H48149   5.275   4.198   7.190  2.5116  0.3527 -0.6612
  357MOL0     H48150   5.316   4.059   7.298  0.5378  1.6838 -0.4362
  357MOL0     H48151   5.127   4.106   7.449  2.4328 -3.9473 -2.8621
  357MOL0     H48152   5.084   4.251   7.367  0.1304 -0.8581 -2.9418
  357MOL0     H48153   5.371   4.209   7.484 -0.1423 -1.0665 -0.7548
  357MOL0     H48154   5.229   4.293   7.547 -0.9298 -2.3302  0.2663
  357MOL0     H48155   5.436   4.537   7.222  1.3975  0.3097 -0.8511
  357MOL0     H48156   5.633   4.765   7.222 -0.0932  0.7502 -0.7899
  357MOL0     H48157   5.752   4.628   7.179 -0.4806 -1.7064 -0.8695
  357MOL0     H48158   5.600   4.615   7.118  0.5170 -1.6194  1.1471
  357MOL0     H48159   6.086   4.536   7.671 -4.3369 -0.0916  3.3747
  357MOL0     H48160   6.296   4.673   7.716  0.1483 -1.0112 -2.0931
  357MOL0     H48161   6.435   4.828   7.643 -2.1492 -0.4162  0.8274
  357MOL0     H48162   6.363   4.953   7.534  0.5409  4.3399  0.2432
  357MOL0     H48163   6.571   5.000   7.758  1.2887  0.2339 -0.8750
  357MOL0     H48164   6.583   4.990   7.580  1.3411  0.9775  0.5589
  357MOL0     H48165   6.388   5.182   7.699 -1.4681 -1.3964 -2.3759
  357MOL0     H48166   6.453   5.192   7.547 -0.1530  1.7212  0.4255
  357MOL0     H48167   6.600   5.283   7.786 -0.7793 -1.4272  0.4672
  357MOL0     H48168   6.693   5.250   7.631 -0.3179  0.2457 -0.2228
  357MOL0     H48169   6.457   5.442   7.637 -0.0912 -0.3508 -1.2467
  357MOL0     H48170   6.572   5.410   7.508  1.6738 -0.3494  0.7381
  357MOL0     H48171   6.661   5.525   7.772  2.3238 -2.4869  0.5390
  357MOL0     H48172   6.754   5.516   7.623 -1.1290 -1.0042 -2.1969
  357MOL0     H48173   6.552   5.732   7.686  0.1717 -1.1262 -0.4709
  357MOL0     H48174   6.550   5.666   7.521 -0.5655 -1.0719 -0.0184
  357MOL0     H48175   6.701   5.873   7.577 -1.8693  1.0897 -1.4052
  357MOL0     H48176   6.787   5.740   7.513 -1.0255  1.5971 -1.1667
  357MOL0     H48177   6.075   5.019   7.744  1.0284 -1.1766  1.2061
  357MOL0     H48178   5.884   4.916   7.657  0.7918  0.4578  0.6245
  357MOL0     H48179   5.650   4.514   7.669 -2.7580 -2.0663  1.8626
  357MOL0     H48180   5.442   4.382   7.613 -2.8449  1.7475 -0.4015
  357MOL0     H48181   5.311   3.274   6.004 -0.4903 -1.8243  0.6173
  357MOL0     H48182   5.235   3.175   5.810  0.9861 -1.1409 -1.4758
  357MOL0     H48183   5.323   2.662   5.601 -3.6593  0.1506  1.4861
  357MOL0     H48184   5.236   2.541   5.425  0.8108 -0.6704 -1.4026
  357MOL0     H48185   5.150   2.772   5.062  1.2899  0.1717  2.3246
  357MOL0     H48186   5.145   2.604   5.019  1.0625  1.8493 -0.5072
  357MOL0     H48187   4.907   2.784   5.137 -4.8396  0.1185 -1.9770
  357MOL0     H48188   4.892   2.620   5.097 -0.3052  0.9667 -0.6808
  357MOL0     H48189   5.005   2.827   4.899  0.4567 -0.5326  0.5804
  357MOL0     H48190   4.837   2.826   4.933 -0.3675 -1.0631  2.8754
  357MOL0     H48191   4.988   2.630   4.764 -0.2136  1.8296 -0.3085
  357MOL0     H48192   4.840   2.707   4.751  1.0496 -0.3108 -1.2462
  357MOL0     H48193   4.783   2.342   4.974  0.0478 -1.1465 -0.4559
  357MOL0     H48194   5.141   2.913   5.222  1.2937  0.9000 -0.5001
  357MOL0     H48195   5.219   3.039   5.427 -1.5843  0.5609 -0.6555
  358MOL0     O48196   4.712   3.118   5.442 -0.4664  0.4245  0.1385
  358MOL0     C48197   4.829   3.118   5.409  0.4284 -0.0551  0.0688
  358MOL0     O48198   4.928   3.095   5.500  0.5527 -0.1212  0.6235
  358MOL0     C48199   4.909   3.074   5.628 -0.5718  0.0743 -0.9239
  358MOL0     C48200   4.932   3.173   5.720 -0.2996 -0.1081  0.1922
  358MOL0     C48201   4.920   3.149   5.862  0.8133 -0.0467  0.3574
  358MOL0     C48202   4.888   3.015   5.905  0.3151 -0.9796  0.3070
  358MOL0     O48203   4.870   2.978   6.038 -0.2059  0.4345 -0.6793
  358MOL0     C48204   4.850   3.078   6.136  0.0602  0.2658  0.2134
  358MOL0     C48205   4.749   3.019   6.245 -1.8239 -0.0431 -0.1081
  358MOL0     C48206   4.768   2.880   6.293  0.0137  0.8361 -0.5961
  358MOL0     C48207   4.676   2.783   6.216 -0.4282 -0.1626  0.7924
  358MOL0     C48208   4.732   2.640   6.222 -0.2800  0.5035  0.1683
  358MOL0     C48209   4.626   2.530   6.275  0.1248 -0.5681 -0.3784
  358MOL0     C48210   4.682   2.388   6.265 -0.6302  0.6098 -0.3834
  358MOL0     C48211   4.566   2.295   6.216 -0.8764  0.2681  0.2672
  358MOL0     N48212   4.549   2.290   6.067  0.0407  0.2502  0.1063
  358MOL0     C48213   4.646   2.283   5.973 -1.2397  1.0787  0.0002
  358MOL0     C48214   4.587   2.261   5.852  0.6541  0.0522  0.9660
  358MOL0     C48215   4.647   2.222   5.716  1.1873 -1.2576  0.3300
  358MOL0     C48216   4.564   2.291   5.603 -0.8995 -0.0281 -0.2376
  358MOL0     C48217   4.651   2.284   5.476 -0.6637  0.1355 -0.1690
  358MOL0     C48218   4.611   2.376   5.361 -0.4067  0.6341 -0.3849
  358MOL0     O48219   4.621   2.513   5.411  0.1040  0.1771 -0.6425
  358MOL0     C48220   4.567   2.608   5.324  0.0108 -0.5750 -0.2443
  358MOL0     C48221   4.525   2.588   5.191  0.1933 -0.4654  1.4163
  358MOL0     C48222   4.480   2.697   5.102  0.3424 -0.2284 -0.6685
  358MOL0     C48223   4.431   2.671   4.962 -0.3210 -0.1064  0.3755
  358MOL0     C48224   4.485   2.835   5.153  0.0694  0.2266 -0.1064
  358MOL0     C48225   4.446   2.953   5.073 -0.8769 -0.6716  0.1567
  358MOL0     O48226   4.312   2.983   5.075 -0.2978  0.7275 -0.5346
  358MOL0     C48227   4.263   3.039   4.955  0.4254  0.6331 -0.0858
  358MOL0     C48228   4.152   2.982   4.887  0.9412 -0.5981 -0.4977
  358MOL0     C48229   4.107   3.033   4.768 -0.8936 -0.5490  0.1643
  358MOL0     C48230   4.157   3.156   4.723 -0.1503  0.8922  0.1881
  358MOL0     O48231   4.106   3.219   4.614 -0.1781  0.5583  0.1537
  358MOL0     C48232   4.169   3.189   4.492 -1.0877  0.3299  0.4728
  358MOL0     C48233   4.193   3.329   4.425  0.1829  0.0167 -0.3592
  358MOL0     C48234   4.311   3.418   4.485  0.3431 -0.7412  0.1912
  358MOL0     C48235   4.328   3.546   4.405  0.0913  0.2078  0.2006
  358MOL0     C48236   4.423   3.646   4.470  0.4731 -0.3022  0.1254
  358MOL0     C48237   4.361   3.733   4.579 -1.1273 -0.4645  0.5274
  358MOL0     C48238   4.449   3.854   4.586 -0.2238 -0.9700 -0.2459
  358MOL0     C48239   4.396   3.956   4.693 -0.0387  0.5289 -0.0441
  358MOL0    Cl48240   4.227   4.029   4.662  0.1034  0.5666  0.0532
  358MOL0     C48241   4.266   3.210   4.787  0.0654 -0.5068  0.1287
  358MOL0     C48242   4.308   3.156   4.908  0.6946  0.2483  0.6735
  358MOL0     O48243   4.538   3.010   5.007 -0.3426  0.2436  0.0069
  358MOL0     C48244   4.525   2.848   5.284 -0.0277  0.0040 -0.1883
  358MOL0     C48245   4.572   2.738   5.359  0.8070  0.0192  0.0535
  358MOL0     N48246   4.445   2.271   5.870 -0.6255 -0.5060 -0.2333
  358MOL0     N48247   4.429   2.281   6.002 -1.0305  0.1146 -1.0275
  358MOL0     C48248   4.862   2.920   5.801 -0.4174  0.7966 -0.7181
  358MOL0     C48249   4.866   2.947   5.667 -0.0162  0.5842 -0.2624
  358MOL0     C48250   4.865   3.131   5.268  0.4258  0.5639  0.9968
  358MOL0     C48251   4.995   3.148   5.219 -0.4667 -0.9441  0.1993
  358MOL0     C48252   5.027   3.171   5.083 -0.3935 -0.5809 -0.3873
  358MOL0     C48253   4.926   3.204   4.993 -1.6193 -0.0830  0.8530
  358MOL0     O48254   4.950   3.237   4.858 -0.6782 -0.8750 -0.5282
  358MOL0     C48255   4.866   3.332   4.786 -0.9534  0.9910 -0.4981
  358MOL0     C48256   4.938   3.360   4.661  0.0065 -0.3576 -0.9030
  358MOL0     C48257   4.900   3.493   4.601  0.7267 -0.6181 -0.2887
  358MOL0     C48258   4.973   3.529   4.472  0.5319 -0.1503  0.2258
  358MOL0     C48259   4.878   3.607   4.383  0.3159 -0.6435 -0.5570
  358MOL0     C48260   4.799   3.670   4.318  0.1023  0.1837  0.1140
  358MOL0     C48261   4.790   3.192   5.036  0.6357  0.1756 -0.0893
  358MOL0     C48262   4.762   3.156   5.177  0.2200 -1.0352  0.0250
  358MOL0     H48263   4.979   3.269   5.700  3.1837 -1.9217 -1.2585
  358MOL0     H48264   4.929   3.224   5.939  1.2556 -0.9607  1.2292
  358MOL0     H48265   4.937   3.116   6.189 -0.2595 -0.3128  1.1709
  358MOL0     H48266   4.800   3.159   6.083 -0.6425 -0.7262 -0.6883
  358MOL0     H48267   4.769   3.080   6.334  0.5225 -2.6209  1.3114
  358MOL0     H48268   4.646   3.031   6.211 -0.9515 -0.5200 -3.2101
  358MOL0     H48269   4.871   2.853   6.267 -0.7298 -1.7705 -1.1184
  358MOL0     H48270   4.751   2.859   6.399 -0.9023  0.9046 -0.7176
  358MOL0     H48271   4.572   2.791   6.246 -1.5978 -1.4834 -2.4165
  358MOL0     H48272   4.675   2.815   6.111  2.7584  1.1572  1.0433
  358MOL0     H48273   4.756   2.608   6.120 -1.3619 -1.7408  0.5424
  358MOL0     H48274   4.830   2.646   6.270 -0.6422  3.5069  0.7191
  358MOL0     H48275   4.599   2.533   6.381  0.1627 -1.0141 -0.3530
  358MOL0     H48276   4.537   2.542   6.213 -0.2005  1.1606  0.3829
  358MOL0     H48277   4.773   2.393   6.204  0.8295  1.9264  1.7586
  358MOL0     H48278   4.725   2.363   6.362  1.1222 -0.2756 -1.3335
  358MOL0     H48279   4.467   2.320   6.257 -1.4743 -1.6271  0.0918
  358MOL0     H48280   4.589   2.191   6.240  3.0056  0.5316 -1.6095
  358MOL0     H48281   4.752   2.276   5.996 -1.7911  0.1866  2.5694
  358MOL0     H48282   4.752   2.247   5.700  0.1293  1.4520 -4.8622
  358MOL0     H48283   4.631   2.116   5.697 -1.1831 -0.8708 -0.2023
  358MOL0     H48284   4.567   2.399   5.618 -0.6405  0.2246 -1.8543
  358MOL0     H48285   4.467   2.246   5.580 -0.3809  0.0548 -3.0520
  358MOL0     H48286   4.650   2.180   5.444  0.3358  0.3316 -0.9018
  358MOL0     H48287   4.750   2.326   5.497 -0.6519  2.7520 -4.2734
  358MOL0     H48288   4.505   2.350   5.352 -1.1365  2.4142  1.8865
  358MOL0     H48289   4.681   2.373   5.278 -0.3215 -0.0078 -0.2867
  358MOL0     H48290   4.504   2.490   5.151 -4.9831  1.7955 -2.4821
  358MOL0     H48291   4.437   2.765   4.907 -3.0345  1.3464  2.2784
  358MOL0     H48292   4.500   2.601   4.915  0.4916  1.4537 -0.8403
  358MOL0     H48293   4.332   2.626   4.953 -0.3922  0.1783 -0.2770
  358MOL0     H48294   4.097   2.895   4.922 -3.1323  1.4489 -1.2139
  358MOL0     H48295   4.023   2.992   4.713  0.5895 -4.8674  0.7351
  358MOL0     H48296   4.273   3.155   4.493 -0.4443  2.2087  1.4836
  358MOL0     H48297   4.114   3.116   4.432 -0.5266  0.4923 -0.2559
  358MOL0     H48298   4.226   3.324   4.321 -0.1062  0.7699 -0.4965
  358MOL0     H48299   4.097   3.380   4.434  0.7206  1.7032 -3.1446
  358MOL0     H48300   4.404   3.359   4.488  0.2152 -0.8941  1.5175
  358MOL0     H48301   4.298   3.455   4.587  1.0226  1.5483 -0.5013
  358MOL0     H48302   4.349   3.508   4.305 -2.2426 -2.7552  0.6875
  358MOL0     H48303   4.231   3.595   4.417  1.0300  1.6360  2.7618
  358MOL0     H48304   4.468   3.703   4.388  0.0985 -1.8342 -1.1970
  358MOL0     H48305   4.501   3.592   4.525  1.2186  1.1115  0.4967
  358MOL0     H48306   4.264   3.768   4.541  0.0864  1.4267 -0.9852
  358MOL0     H48307   4.349   3.697   4.682  1.4607 -0.5797  0.8605
  358MOL0     H48308   4.461   3.903   4.488  2.0749 -2.4335 -0.7619
  358MOL0     H48309   4.550   3.824   4.616 -0.5035 -1.0499  0.6386
  358MOL0     H48310   4.458   4.046   4.683  0.5155  0.0374 -1.3246
  358MOL0     H48311   4.412   3.915   4.793 -2.9611 -1.0743 -0.1099
  358MOL0     H48312   4.309   3.304   4.757 -0.2788 -0.0018  1.1814
  358MOL0     H48313   4.395   3.192   4.961 -0.5848  1.2772  2.1797
  358MOL0     H48314   4.539   2.945   5.332 -1.0029 -0.5842  1.3383
  358MOL0     H48315   4.607   2.770   5.457  1.3139  4.4679 -1.3608
  358MOL0     H48316   4.848   2.816   5.829  2.0445  0.8183  0.8494
  358MOL0     H48317   4.843   2.866   5.599  1.1337  0.6813 -0.7926
  358MOL0     H48318   5.075   3.134   5.291  0.1600 -0.0666 -0.3135
  358MOL0     H48319   5.129   3.180   5.046 -1.1173  3.5648 -1.8556
  358MOL0     H48320   4.766   3.291   4.767  0.2144 -1.0564 -2.7358
  358MOL0     H48321   4.850   3.418   4.851 -3.0960  0.0990  0.2744
  358MOL0     H48322   4.910   3.272   4.602  0.1088 -1.2261  0.3085
  358MOL0     H48323   5.045   3.357   4.683 -0.2108  1.0673  0.4664
  358MOL0     H48324   4.920   3.571   4.675 -2.9875 -0.4231  0.7349
  358MOL0     H48325   4.791   3.486   4.589  0.6127 -2.1853  1.3793
  358MOL0     H48326   4.998   3.434   4.424  0.5189  0.9724 -2.1849
  358MOL0     H48327   5.064   3.585   4.497 -0.0250  0.6237  0.5300
  358MOL0     H48328   4.726   3.716   4.254  1.8697  1.3567 -1.1555
  358MOL0     H48329   4.702   3.200   4.973 -0.3103 -0.7184  1.0667
  358MOL0     H48330   4.661   3.167   5.214  0.7392 -0.4161  1.3050
  359MOL0     O48331   6.235   5.830   7.880  0.3196 -0.1295  0.4797
  359MOL0     C48332   6.207   5.815   7.766  0.3977 -0.1582  1.6531
  359MOL0     O48333   6.143   5.707   7.707 -0.0289 -0.3069 -0.7014
  359MOL0     C48334   6.093   5.594   7.765 -0.6319 -0.5503 -0.0095
  359MOL0     C48335   6.011   5.602   7.879 -0.2958  0.4649  0.0386
  359MOL0     C48336   5.968   5.484   7.940  0.2070  0.0361  1.0452
  359MOL0     C48337   5.979   5.358   7.881  0.4809  0.8411 -0.3256
  359MOL0     O48338   5.906   5.248   7.921  0.5147  0.5514 -0.8962
  359MOL0     C48339   5.846   5.229   8.052 -0.2588 -1.0924  0.5643
  359MOL0     C48340   5.801   5.087   8.056  0.3193  0.3546  0.1419
  359MOL0     C48341   5.657   5.053   7.995  0.0749 -0.1432 -0.2952
  359MOL0     C48342   5.619   4.904   8.002  0.4475  0.0592 -0.0440
  359MOL0     C48343   5.464   4.896   7.975 -0.5560  0.4203 -0.1738
  359MOL0     C48344   5.397   4.779   8.047  0.4673  0.6641 -0.5079
  359MOL0     C48345   5.435   4.647   7.990  0.2930  0.3774 -0.4668
  359MOL0     C48346   5.368   4.534   8.088 -0.4044  0.1539  0.7763
  359MOL0     N48347   5.393   4.405   8.017 -0.2330 -0.3160 -0.2129
  359MOL0     C48348   5.478   4.304   8.037 -0.9089  0.3605 -0.0153
  359MOL0     C48349   5.466   4.220   7.930  0.2607 -1.2140  0.3612
  359MOL0     C48350   5.537   4.090   7.900  0.4701  0.0119 -0.4248
  359MOL0     C48351   5.647   4.106   7.790  0.7189 -0.7331  0.6010
  359MOL0     C48352   5.579   4.083   7.656 -0.2022  0.1778  0.5330
  359MOL0     C48353   5.542   3.931   7.621  0.5119  0.0292 -0.3088
  359MOL0     O48354   5.455   3.951   7.506 -0.1558 -0.6113 -0.7315
  359MOL0     C48355   5.440   3.848   7.429 -0.3417 -0.1324 -0.0271
  359MOL0     C48356   5.346   3.752   7.474 -0.5698 -0.5771  0.4623
  359MOL0     C48357   5.317   3.633   7.402  0.0573  0.0906 -0.1636
  359MOL0     C48358   5.201   3.540   7.455 -0.4612  0.3656 -0.1427
  359MOL0     C48359   5.378   3.611   7.276 -0.6077  0.5237 -0.3107
  359MOL0     C48360   5.336   3.502   7.184 -0.5832  0.3369 -0.7899
  359MOL0     O48361   5.348   3.521   7.046 -0.3535 -0.0791  0.3574
  359MOL0     C48362   5.345   3.424   6.952  0.9848  0.3844  0.1281
  359MOL0     C48363   5.262   3.312   6.960 -0.1617 -0.4617  0.2742
  359MOL0     C48364   5.259   3.212   6.857  1.0202 -0.0575  0.2414
  359MOL0     C48365   5.328   3.238   6.732 -0.1498  0.2714 -0.6036
  359MOL0     O48366   5.341   3.158   6.631 -0.0012 -0.2279  0.0744
  359MOL0     C48367   5.222   3.076   6.613  0.8118 -0.2162 -0.5091
  359MOL0     C48368   5.230   3.003   6.474  0.0714 -0.2407 -0.3758
  359MOL0     C48369   5.108   2.916   6.445 -0.6001  0.1360  0.2252
  359MOL0     C48370   5.132   2.787   6.519 -0.1615 -0.5051  0.3513
  359MOL0     C48371   5.016   2.690   6.509  0.5228  0.3182 -0.2303
  359MOL0     C48372   5.060   2.554   6.577 -0.4596  0.9374  0.1455
  359MOL0     C48373   4.984   2.429   6.512 -0.5581 -0.2731  0.3991
  359MOL0     C48374   5.041   2.394   6.371 -0.0575 -0.1815 -0.4477
  359MOL0    Cl48375   4.963   2.239   6.338 -0.1191 -0.1304 -0.2282
  359MOL0     C48376   5.401   3.354   6.726 -0.0841 -0.0722  0.1587
  359MOL0     C48377   5.410   3.447   6.837 -0.2250  0.2951  0.4026
  359MOL0     O48378   5.331   3.394   7.235  0.0312  0.7321 -0.1594
  359MOL0     C48379   5.471   3.711   7.232 -1.4875  0.8476  0.1129
  359MOL0     C48380   5.509   3.826   7.306 -0.2598  0.3151 -0.4691
  359MOL0     N48381   5.362   4.256   7.859  1.0877 -0.4989 -0.4325
  359MOL0     N48382   5.316   4.368   7.915  0.0724  1.0959  0.5499
  359MOL0     C48383   6.065   5.349   7.772  0.0895  0.7083  0.0774
  359MOL0     C48384   6.115   5.465   7.708 -1.0244 -1.0764 -0.3616
  359MOL0     C48385   6.238   5.938   7.678 -1.0152  0.0110 -0.1005
  359MOL0     C48386   6.258   5.918   7.535  0.5733 -0.6644  0.7200
  359MOL0     C48387   6.271   6.029   7.449  0.0773 -0.3373  0.5162
  359MOL0     C48388   6.256   6.159   7.497 -0.4174  0.2166 -0.6375
  359MOL0     O48389   6.256   6.279   7.432  0.5876  0.7834  0.8263
  359MOL0     C48390   6.263   6.288   7.286 -0.4128  0.6596 -0.2364
  359MOL0     C48391   6.190   6.420   7.246  0.5684 -0.7498 -1.0497
  359MOL0     C48392   6.042   6.422   7.301  0.7136 -0.2859  0.6572
  359MOL0     C48393   6.031   6.510   7.429  1.3415 -0.1588 -0.3050
  359MOL0     C48394   5.886   6.549   7.430 -0.1998 -0.8117  0.5953
  359MOL0     C48395   5.772   6.586   7.426  0.6537  0.8329  0.9632
  359MOL0     C48396   6.247   6.177   7.637 -0.1616 -0.9142 -0.2006
  359MOL0     C48397   6.240   6.068   7.729  0.3090  0.3143  0.4406
  359MOL0     H48398   6.000   5.688   7.945 -1.4432 -1.3964  2.4311
  359MOL0     H48399   5.911   5.502   8.031 -3.6104 -1.2456 -0.8750
  359MOL0     H48400   5.924   5.242   8.127  0.9358  2.1278 -1.0681
  359MOL0     H48401   5.770   5.306   8.069  1.5261  0.5626  1.4519
  359MOL0     H48402   5.873   5.026   8.001  0.3128  0.2030  0.3026
  359MOL0     H48403   5.818   5.058   8.160  2.3687  0.0254 -0.2517
  359MOL0     H48404   5.586   5.106   8.059 -0.1367 -0.0077 -0.6422
  359MOL0     H48405   5.661   5.101   7.897  1.1784  0.6804  0.1196
  359MOL0     H48406   5.677   4.845   7.930  0.2082  1.2081 -1.2222
  359MOL0     H48407   5.638   4.856   8.098 -1.0074 -0.3979  0.0353
  359MOL0     H48408   5.410   4.984   8.010  0.4340  0.2167  2.0061
  359MOL0     H48409   5.442   4.889   7.868  2.9208  1.3971 -1.0496
  359MOL0     H48410   5.425   4.782   8.153  0.5194 -1.8932 -0.3668
  359MOL0     H48411   5.289   4.796   8.046  0.6498  1.8875 -0.3054
  359MOL0     H48412   5.401   4.648   7.886  0.9422  2.3995 -0.6923
  359MOL0     H48413   5.544   4.633   7.986  0.2284 -0.3728  0.1804
  359MOL0     H48414   5.260   4.546   8.098 -0.6695 -0.1778 -1.2889
  359MOL0     H48415   5.416   4.526   8.186 -2.5574  1.3224  1.9834
  359MOL0     H48416   5.558   4.305   8.112 -0.8939  0.4568 -0.0323
  359MOL0     H48417   5.589   4.057   7.991  1.5242  3.9203  0.6050
  359MOL0     H48418   5.458   4.018   7.879 -3.2546  3.3727  0.6665
  359MOL0     H48419   5.713   4.019   7.801  0.4504 -0.8427  1.4484
  359MOL0     H48420   5.698   4.202   7.796  0.3712 -0.1190 -3.6216
  359MOL0     H48421   5.646   4.123   7.579  2.3702  0.3058  2.6834
  359MOL0     H48422   5.491   4.147   7.653  0.1016  0.7094  2.0719
  359MOL0     H48423   5.484   3.885   7.701 -1.0210 -1.2046 -2.0448
  359MOL0     H48424   5.633   3.875   7.598 -0.2857 -1.7685  0.7030
  359MOL0     H48425   5.299   3.771   7.570 -1.3620  3.5178 -0.5439
  359MOL0     H48426   5.143   3.591   7.532 -1.3820 -0.7681 -0.0618
  359MOL0     H48427   5.125   3.514   7.381 -1.3429 -4.0704  2.0131
  359MOL0     H48428   5.239   3.445   7.493 -0.1905 -0.5293 -2.5006
  359MOL0     H48429   5.190   3.305   7.042 -0.6828 -1.5128 -0.2495
  359MOL0     H48430   5.208   3.118   6.876  1.8653 -0.4711  0.5017
  359MOL0     H48431   5.223   3.002   6.694  1.1449 -1.0637 -1.2699
  359MOL0     H48432   5.128   3.132   6.621  1.5713  0.8894  1.5435
  359MOL0     H48433   5.231   3.080   6.396 -0.2137  1.7896  1.4942
  359MOL0     H48434   5.320   2.940   6.473  0.8382  0.7967 -1.9871
  359MOL0     H48435   5.089   2.908   6.338 -3.3053 -5.5221  0.7684
  359MOL0     H48436   5.008   2.943   6.478 -0.0390  1.3697  1.0178
  359MOL0     H48437   5.221   2.727   6.497  1.1477  0.4685  2.6296
  359MOL0     H48438   5.148   2.805   6.625  2.6479 -2.3922  0.3651
  359MOL0     H48439   4.993   2.674   6.403 -0.8283 -2.6727  0.4248
  359MOL0     H48440   4.927   2.733   6.555  0.8860  0.1957  0.5901
  359MOL0     H48441   5.165   2.528   6.593 -1.0929 -0.6621  2.1617
  359MOL0     H48442   5.032   2.566   6.682 -1.9325  0.1859 -0.1325
  359MOL0     H48443   4.877   2.448   6.511 -0.8251 -1.6228 -1.2534
  359MOL0     H48444   5.006   2.341   6.573 -1.2374 -1.1657 -0.6210
  359MOL0     H48445   5.149   2.375   6.377 -0.0687  0.1179  3.9526
  359MOL0     H48446   5.013   2.472   6.299  1.6831 -0.1646 -1.1704
  359MOL0     H48447   5.444   3.384   6.631  1.8021  0.8566  1.2472
  359MOL0     H48448   5.464   3.541   6.837  1.1691 -0.4254 -1.8868
  359MOL0     H48449   5.532   3.688   7.145  0.6957  1.7254  1.3176
  359MOL0     H48450   5.577   3.906   7.276 -3.0915  1.4216 -5.0413
  359MOL0     H48451   6.078   5.248   7.736 -1.4249  0.4134  0.2697
  359MOL0     H48452   6.178   5.460   7.620  0.8614  3.2370  0.4964
  359MOL0     H48453   6.254   5.819   7.491  0.5563  0.1023 -1.0871
  359MOL0     H48454   6.287   6.015   7.342  0.2134  1.0235  0.3420
  359MOL0     H48455   6.363   6.289   7.241  0.0438  2.7976  0.6695
  359MOL0     H48456   6.210   6.201   7.246 -0.8831  1.3275 -1.0984
  359MOL0     H48457   6.177   6.429   7.137  2.4364 -1.7830 -1.3997
  359MOL0     H48458   6.240   6.513   7.272  1.6814 -0.3039 -4.3123
  359MOL0     H48459   5.998   6.322   7.300 -0.1409  0.0519  2.4372
  359MOL0     H48460   5.992   6.472   7.217  2.6208 -2.6950 -2.1470
  359MOL0     H48461   6.077   6.609   7.429 -1.4335  1.2697 -2.9458
  359MOL0     H48462   6.056   6.449   7.517 -1.2591 -0.7119  0.1256
  359MOL0     H48463   5.674   6.628   7.419  0.7199  0.8801  0.1152
  359MOL0     H48464   6.245   6.273   7.689  1.0532 -0.6375 -0.6318
  359MOL0     H48465   6.231   6.097   7.833 -0.2229  3.5707 -0.4015
  360MOL0     O48466   2.896   7.447   3.973 -0.3256  0.4006 -0.3613
  360MOL0     C48467   2.831   7.363   4.026  0.1293  1.2773 -1.0727
  360MOL0     O48468   2.864   7.295   4.144  0.3984  0.1669  0.0054
  360MOL0     C48469   2.999   7.286   4.165  0.9974  0.0074 -0.1996
  360MOL0     C48470   3.080   7.212   4.089  0.6127 -0.1048  1.4065
  360MOL0     C48471   3.216   7.209   4.112 -0.1459 -0.7879 -0.0554
  360MOL0     C48472   3.273   7.286   4.216 -0.2400 -0.0376  0.8233
  360MOL0     O48473   3.406   7.263   4.237 -0.3597  0.7236  0.9080
  360MOL0     C48474   3.485   7.354   4.308 -0.1980 -0.0105  0.9353
  360MOL0     C48475   3.616   7.359   4.239  0.1041 -0.0357 -0.4111
  360MOL0     C48476   3.715   7.456   4.297 -0.1141  0.1700  0.5663
  360MOL0     C48477   3.856   7.427   4.233 -0.2090 -0.3859 -0.1156
  360MOL0     C48478   3.946   7.533   4.298 -0.7570 -0.1233  0.6234
  360MOL0     C48479   4.069   7.569   4.211  0.4799 -0.1802 -0.1945
  360MOL0     C48480   4.149   7.688   4.266 -0.4359 -0.0290 -0.3362
  360MOL0     C48481   4.257   7.736   4.165 -0.3928 -0.0570 -0.3909
  360MOL0     N48482   4.345   7.626   4.105 -0.1551 -0.1908 -0.0222
  360MOL0     C48483   4.410   7.542   4.180  0.5858 -0.5871  0.3727
  360MOL0     C48484   4.465   7.453   4.105  0.0873  0.4800  0.0922
  360MOL0     C48485   4.551   7.331   4.134  0.3915  0.0360  0.8837
  360MOL0     C48486   4.449   7.226   4.193 -0.7565  0.3519  0.0293
  360MOL0     C48487   4.363   7.165   4.076  0.7598 -0.2887 -0.0920
  360MOL0     C48488   4.216   7.141   4.118  0.2858 -0.8988 -0.2605
  360MOL0     O48489   4.140   7.069   4.001 -0.1070  0.0306 -0.2619
  360MOL0     C48490   4.035   7.130   3.937 -1.0086 -0.2906 -0.8542
  360MOL0     C48491   4.036   7.269   3.922  0.6505  0.5986 -1.1401
  360MOL0     C48492   3.926   7.333   3.855  0.2209 -0.0270  0.3399
  360MOL0     C48493   3.935   7.483   3.859  0.7582 -0.7860  0.7919
  360MOL0     C48494   3.801   7.267   3.817  0.6396  1.0454  0.0201
  360MOL0     C48495   3.678   7.312   3.753 -0.9854 -0.2978 -0.0171
  360MOL0     O48496   3.601   7.218   3.689  0.4074  0.0885  0.5508
  360MOL0     C48497   3.475   7.253   3.669  0.6542 -1.4853 -0.1590
  360MOL0     C48498   3.450   7.290   3.544 -0.5567 -0.1875  0.4888
  360MOL0     C48499   3.315   7.329   3.506 -0.7613  0.9301  0.8351
  360MOL0     C48500   3.218   7.340   3.599 -0.0188 -0.1326 -0.7483
  360MOL0     O48501   3.094   7.377   3.565 -0.8487 -0.4220  0.2275
  360MOL0     C48502   2.991   7.365   3.664 -1.1264  0.7606  0.6142
  360MOL0     C48503   2.851   7.398   3.608  0.0933  0.4222  0.0175
  360MOL0     C48504   2.828   7.546   3.563 -0.1746  0.5133  0.2780
  360MOL0     C48505   2.709   7.577   3.475 -1.1712 -0.6071  0.1351
  360MOL0     C48506   2.692   7.514   3.336 -0.9142  0.9086 -0.1990
  360MOL0     C48507   2.567   7.582   3.277  0.0773  0.4998 -0.5355
  360MOL0     C48508   2.527   7.538   3.129 -0.2526  0.4042 -0.3599
  360MOL0     C48509   2.422   7.630   3.060  0.4081  0.1672 -0.2555
  360MOL0    Cl48510   2.263   7.554   3.091  0.0506  0.1816  0.3301
  360MOL0     C48511   3.249   7.299   3.739  0.4653 -0.0826 -0.0925
  360MOL0     C48512   3.378   7.257   3.767 -0.3636 -0.9056  0.2028
  360MOL0     O48513   3.652   7.430   3.763 -0.1474 -0.3689 -0.5971
  360MOL0     C48514   3.807   7.122   3.839 -0.4456 -0.5730  0.7403
  360MOL0     C48515   3.924   7.053   3.888  0.4981  0.0196 -0.6107
  360MOL0     N48516   4.436   7.489   3.971  0.1988  0.6505 -0.6883
  360MOL0     N48517   4.365   7.594   3.971  0.3768 -0.7043 -0.0177
  360MOL0     C48518   3.190   7.381   4.287  0.5600 -0.4657 -0.2372
  360MOL0     C48519   3.052   7.369   4.263 -0.2743 -0.1793  0.2058
  360MOL0     C48520   2.693   7.340   3.970 -0.3444 -0.7811 -0.1435
  360MOL0     C48521   2.621   7.229   4.005 -0.1808  0.0304  0.2473
  360MOL0     C48522   2.503   7.198   3.945 -0.3671  0.0874  0.4012
  360MOL0     C48523   2.446   7.281   3.850 -0.7340 -0.5939  1.0160
  360MOL0     O48524   2.327   7.250   3.783 -0.4927 -0.4544  0.3004
  360MOL0     C48525   2.281   7.112   3.794 -0.1735 -0.2458 -0.2182
  360MOL0     C48526   2.168   7.073   3.696  0.0938  0.0105  0.1441
  360MOL0     C48527   2.179   7.137   3.558 -0.5040  0.0157 -0.4310
  360MOL0     C48528   2.074   7.082   3.461 -0.3002 -0.7369 -0.4256
  360MOL0     C48529   2.091   7.128   3.326  0.0449  0.1991 -1.0778
  360MOL0     C48530   2.077   7.162   3.212  0.7433  0.1320  0.3880
  360MOL0     C48531   2.512   7.403   3.823  0.3542 -0.4182  0.2306
  360MOL0     C48532   2.639   7.435   3.883  0.0345  0.5566 -0.4762
  360MOL0     H48533   3.037   7.147   4.013  0.2599  2.9321 -1.2394
  360MOL0     H48534   3.275   7.143   4.049  0.7451  0.9186 -1.1110
  360MOL0     H48535   3.447   7.456   4.304  1.0234  0.4436  0.4997
  360MOL0     H48536   3.484   7.325   4.413  0.1001 -0.2013  0.8854
  360MOL0     H48537   3.661   7.259   4.237 -2.0485 -1.0559 -0.8658
  360MOL0     H48538   3.596   7.381   4.134  1.1523 -1.3363 -0.9116
  360MOL0     H48539   3.685   7.561   4.292  0.5797  0.4446  1.7769
  360MOL0     H48540   3.725   7.438   4.405  0.2468  1.6458  0.8019
  360MOL0     H48541   3.893   7.325   4.232  0.3485 -0.2841 -3.8161
  360MOL0     H48542   3.853   7.445   4.125  0.6484 -1.8675 -0.4100
  360MOL0     H48543   3.892   7.627   4.309 -3.2622 -0.6829 -4.1624
  360MOL0     H48544   3.990   7.503   4.394  0.8329  0.4394  0.1064
  360MOL0     H48545   4.128   7.478   4.218 -1.5257 -1.7131 -1.9006
  360MOL0     H48546   4.037   7.572   4.107 -0.9163 -2.4055  0.1100
  360MOL0     H48547   4.088   7.769   4.307  0.3562  0.5398 -0.2606
  360MOL0     H48548   4.197   7.644   4.354  1.3008 -0.5826 -1.5184
  360MOL0     H48549   4.322   7.809   4.215  0.1785  1.0255 -2.5818
  360MOL0     H48550   4.202   7.792   4.089 -3.2080  1.7707  2.7498
  360MOL0     H48551   4.427   7.555   4.287  1.0327 -0.8316  0.3345
  360MOL0     H48552   4.597   7.293   4.042 -2.4223  1.6327 -1.3312
  360MOL0     H48553   4.624   7.345   4.215 -1.8612  2.8675  2.5971
  360MOL0     H48554   4.389   7.256   4.279 -1.1524  1.2100 -0.5235
  360MOL0     H48555   4.509   7.146   4.237 -1.8882 -0.6917 -0.2795
  360MOL0     H48556   4.403   7.066   4.052 -3.1158 -2.5857  1.8866
  360MOL0     H48557   4.369   7.228   3.988 -0.8618 -1.4163 -1.0515
  360MOL0     H48558   4.175   7.238   4.149 -3.4988 -2.4812  0.2616
  360MOL0     H48559   4.209   7.085   4.211 -0.4809 -0.4202 -0.0209
  360MOL0     H48560   4.118   7.332   3.956 -0.0012  0.0576  1.7090
  360MOL0     H48561   4.038   7.520   3.862  1.2522 -2.1037  3.1240
  360MOL0     H48562   3.902   7.525   3.764  1.3164 -1.8561  0.1038
  360MOL0     H48563   3.882   7.522   3.946  1.5958 -0.8913  1.3619
  360MOL0     H48564   3.535   7.300   3.478 -0.8461  0.4316  0.1906
  360MOL0     H48565   3.289   7.343   3.401  1.2980  2.5126  0.4769
  360MOL0     H48566   2.992   7.265   3.709 -1.6577  0.7742  0.6612
  360MOL0     H48567   3.012   7.428   3.751  1.4733  2.0337 -0.8099
  360MOL0     H48568   2.847   7.331   3.521  1.4054  0.5276 -0.1528
  360MOL0     H48569   2.773   7.371   3.680 -1.4221 -0.6717 -1.9108
  360MOL0     H48570   2.917   7.565   3.502 -1.9504 -0.2458 -2.7524
  360MOL0     H48571   2.829   7.608   3.654  1.0923 -0.7253  1.1512
  360MOL0     H48572   2.619   7.563   3.536  0.0780  0.4990  2.3575
  360MOL0     H48573   2.711   7.686   3.465  0.2549 -0.3452  2.5150
  360MOL0     H48574   2.673   7.406   3.345 -1.5513  0.7590 -2.5949
  360MOL0     H48575   2.785   7.529   3.281 -0.2257  1.8747  1.1659
  360MOL0     H48576   2.484   7.563   3.346  0.7810  2.6411  1.0383
  360MOL0     H48577   2.594   7.688   3.275 -1.2921  0.8633 -0.8064
  360MOL0     H48578   2.484   7.439   3.145 -0.6240  0.9324  2.3605
  360MOL0     H48579   2.609   7.544   3.057 -1.4951 -0.3880 -1.9069
  360MOL0     H48580   2.442   7.641   2.953 -0.2526  0.3559 -0.3599
  360MOL0     H48581   2.420   7.734   3.093  2.5211 -0.0748  0.8404
  360MOL0     H48582   3.185   7.311   3.825  0.5307  0.4544 -0.1151
  360MOL0     H48583   3.409   7.236   3.869  2.1996 -2.3908 -0.7816
  360MOL0     H48584   3.726   7.059   3.805 -0.7386 -0.5412  1.3686
  360MOL0     H48585   3.921   6.945   3.892  2.6724 -0.0995 -1.0537
  360MOL0     H48586   3.242   7.441   4.360 -0.6548  0.4998 -0.1529
  360MOL0     H48587   2.984   7.426   4.325 -1.1348  0.8278 -1.5806
  360MOL0     H48588   2.675   7.154   4.063  0.9568 -0.1555 -0.9883
  360MOL0     H48589   2.475   7.097   3.972  0.4288  0.4953  3.0840
  360MOL0     H48590   2.371   7.051   3.785 -0.3463 -0.2463 -2.8621
  360MOL0     H48591   2.262   7.093   3.900  5.3283 -2.6068  0.6692
  360MOL0     H48592   2.074   7.105   3.743  0.0654 -1.0559  0.8467
  360MOL0     H48593   2.162   6.964   3.699  0.2873  0.0164  0.9618
  360MOL0     H48594   2.279   7.111   3.521  0.0598  0.5866  0.6341
  360MOL0     H48595   2.164   7.245   3.562  0.2317  0.0988  0.7193
  360MOL0     H48596   1.977   7.114   3.500 -0.4809 -0.1435 -1.3448
  360MOL0     H48597   2.095   6.975   3.464  3.3634 -0.1447  0.2511
  360MOL0     H48598   2.083   7.192   3.110  1.2560  3.0839  1.1793
  360MOL0     H48599   2.469   7.477   3.756  0.4245  0.6043  1.2822
  360MOL0     H48600   2.677   7.534   3.860 -1.6227  2.1445  2.8437
  361MOL0     O48601   6.431   5.586   9.622  0.2838 -0.7316 -0.0776
  361MOL0     C48602   6.318   5.606   9.566 -0.3480 -0.1173 -0.3683
  361MOL0     O48603   6.239   5.518   9.512 -0.3702  0.8078 -0.5008
  361MOL0     C48604   6.279   5.387   9.526 -0.6311 -0.6096  0.8201
  361MOL0     C48605   6.396   5.344   9.469 -0.5567 -0.5099  0.2563
  361MOL0     C48606   6.424   5.215   9.457 -0.7946 -0.5313  0.3055
  361MOL0     C48607   6.337   5.119   9.506 -0.4035  0.1453 -0.8672
  361MOL0     O48608   6.374   4.988   9.491 -0.4030 -0.5701  0.1823
  361MOL0     C48609   6.408   4.933   9.360 -1.1433 -0.1903 -0.3785
  361MOL0     C48610   6.382   4.782   9.360 -0.0484 -0.3448  0.4193
  361MOL0     C48611   6.231   4.748   9.344 -0.1101 -0.5152  0.2902
  361MOL0     C48612   6.199   4.607   9.301 -0.5083  0.2284 -0.0753
  361MOL0     C48613   6.226   4.516   9.422  0.3010  0.0502 -0.8080
  361MOL0     C48614   6.230   4.369   9.387 -0.9018  0.0052 -0.6969
  361MOL0     C48615   6.092   4.298   9.357 -0.1542 -0.1035 -0.8407
  361MOL0     C48616   6.023   4.231   9.477 -0.6357  0.2170  0.0218
  361MOL0     N48617   5.925   4.129   9.434  0.2246 -0.4966  0.3201
  361MOL0     C48618   5.804   4.163   9.374 -0.7239 -0.3954  0.5854
  361MOL0     C48619   5.759   4.045   9.326 -0.3074 -0.0087 -0.4142
  361MOL0     C48620   5.618   4.041   9.259  0.3852 -0.1102 -0.2771
  361MOL0     C48621   5.519   3.988   9.363  0.0462 -0.0954 -0.7968
  361MOL0     C48622   5.388   3.935   9.294  0.0895 -1.4386 -0.2865
  361MOL0     C48623   5.288   3.883   9.401  0.2108 -0.3687 -0.6234
  361MOL0     O48624   5.198   3.791   9.327 -1.0315  0.6985 -0.1513
  361MOL0     C48625   5.101   3.725   9.395  0.1249 -0.8687  0.3153
  361MOL0     C48626   5.059   3.767   9.528 -0.6589 -0.6729 -0.0064
  361MOL0     C48627   4.951   3.712   9.603 -0.8321  0.1959  0.1878
  361MOL0     C48628   4.920   3.779   9.742  0.4344 -0.6120  0.3857
  361MOL0     C48629   4.871   3.623   9.530  0.6514 -0.7449  0.5867
  361MOL0     C48630   4.743   3.582   9.577  0.5793 -0.7087 -0.3886
  361MOL0     O48631   4.709   3.459   9.522  0.3028 -0.7363  0.5768
  361MOL0     C48632   4.589   3.391   9.562 -0.6184  0.0655  0.1011
  361MOL0     C48633   4.551   3.391   9.696 -0.4566  0.2754 -0.4069
  361MOL0     C48634   4.442   3.310   9.747 -0.4497  0.3800  0.3091
  361MOL0     C48635   4.379   3.221   9.660 -0.8004 -0.2234  0.3527
  361MOL0     O48636   4.283   3.138   9.698  0.7993  0.3997  0.9933
  361MOL0     C48637   4.269   3.094   9.830 -0.2840 -1.0012 -0.4502
  361MOL0     C48638   4.184   3.196   9.919 -0.6914 -0.0211  0.1508
  361MOL0     C48639   4.032   3.173   9.893  0.3920 -0.4292 -0.4632
  361MOL0     C48640   3.930   3.258   9.965 -0.0708  0.6704 -0.0296
  361MOL0     C48641   3.938   3.409   9.938 -0.2398 -0.8782 -0.1554
  361MOL0     C48642   3.836   3.500  10.017 -0.3506 -0.0240  0.3950
  361MOL0     C48643   3.831   3.639   9.959  0.0780  0.2183 -0.1752
  361MOL0     C48644   3.698   3.706   9.981  0.3948 -0.0902  0.5151
  361MOL0    Cl48645   3.704   3.726  10.150  0.4974  0.4897  0.4401
  361MOL0     C48646   4.418   3.217   9.525  0.7677 -0.2923 -0.0301
  361MOL0     C48647   4.515   3.304   9.483 -0.2835 -0.6940  0.4028
  361MOL0     O48648   4.662   3.659   9.637 -0.1531  0.6745  0.4456
  361MOL0     C48649   4.899   3.589   9.397  0.1361 -1.3335 -0.1788
  361MOL0     C48650   5.010   3.642   9.320 -0.5111  0.4886 -0.5505
  361MOL0     N48651   5.832   3.939   9.391  0.3301 -0.3385 -0.4253
  361MOL0     N48652   5.924   3.995   9.455  0.5678  1.3338  0.2859
  361MOL0     C48653   6.217   5.159   9.566  0.1492  0.6611 -0.2103
  361MOL0     C48654   6.181   5.299   9.567 -0.1054 -0.1887 -0.1414
  361MOL0     C48655   6.275   5.746   9.541  0.0246  0.0641 -0.0869
  361MOL0     C48656   6.182   5.775   9.437 -0.3005 -0.4690  0.8485
  361MOL0     C48657   6.149   5.909   9.401 -0.5945 -0.3347 -0.1422
  361MOL0     C48658   6.220   6.019   9.472 -0.2800  0.4043  0.0627
  361MOL0     O48659   6.207   6.148   9.448  0.0898 -0.2909 -0.0102
  361MOL0     C48660   6.142   6.190   9.328 -0.1291  0.8513 -0.0040
  361MOL0     C48661   6.188   6.324   9.272  0.5551  0.3782  0.7892
  361MOL0     C48662   6.213   6.430   9.378 -0.3973 -0.7510  0.6434
  361MOL0     C48663   6.205   6.570   9.323  0.1433  0.1557  0.5240
  361MOL0     C48664   6.069   6.616   9.334  0.1561  0.5713 -0.1029
  361MOL0     C48665   5.965   6.668   9.342  0.0482 -0.8108  0.5065
  361MOL0     C48666   6.307   5.986   9.581  0.8468  0.2127  0.0835
  361MOL0     C48667   6.342   5.854   9.609 -0.1669 -0.0377  0.5096
  361MOL0     H48668   6.481   5.403   9.434 -0.8520 -0.4222 -0.3197
  361MOL0     H48669   6.510   5.182   9.400 -1.4537  0.5705 -1.3866
  361MOL0     H48670   6.345   4.980   9.285 -2.5547  0.6778  1.2657
  361MOL0     H48671   6.514   4.955   9.347 -0.4002 -1.3497  2.7973
  361MOL0     H48672   6.426   4.743   9.267  0.7424 -1.7028  1.3180
  361MOL0     H48673   6.441   4.738   9.441 -0.1537  1.0024  1.2558
  361MOL0     H48674   6.185   4.772   9.440 -1.6538  1.7772 -0.9395
  361MOL0     H48675   6.189   4.815   9.269 -6.2109 -1.0527  2.6963
  361MOL0     H48676   6.094   4.601   9.272 -0.4112 -0.5871 -0.2730
  361MOL0     H48677   6.257   4.581   9.212 -2.0195  0.2404 -1.0941
  361MOL0     H48678   6.322   4.535   9.472  0.1557 -3.2427  0.9748
  361MOL0     H48679   6.153   4.537   9.500  2.4081 -1.5768  1.7656
  361MOL0     H48680   6.292   4.369   9.297  4.1873  2.0666  2.3852
  361MOL0     H48681   6.291   4.318   9.463  0.0492  1.1779 -0.6427
  361MOL0     H48682   6.029   4.364   9.297 -2.6347 -2.5977 -1.1349
  361MOL0     H48683   6.115   4.221   9.283 -1.6930 -1.9034  0.4601
  361MOL0     H48684   5.982   4.314   9.536  2.4078  1.8642  0.0217
  361MOL0     H48685   6.104   4.179   9.529  0.4882  0.7771 -1.1164
  361MOL0     H48686   5.774   4.264   9.346  2.0154  0.8164  1.6114
  361MOL0     H48687   5.595   4.137   9.210 -2.7198 -2.4302 -3.9455
  361MOL0     H48688   5.636   3.971   9.177 -1.4721  2.2063 -2.8355
  361MOL0     H48689   5.507   4.062   9.443 -3.5950 -2.7153  1.3870
  361MOL0     H48690   5.568   3.900   9.407  5.3485  2.1226 -1.4208
  361MOL0     H48691   5.413   3.861   9.218  0.3355  0.0230 -1.6906
  361MOL0     H48692   5.350   4.023   9.241  1.6996 -0.8189 -0.4585
  361MOL0     H48693   5.229   3.967   9.442  0.7088 -1.2542  2.1530
  361MOL0     H48694   5.332   3.825   9.482  0.4007 -0.5826 -0.8805
  361MOL0     H48695   5.118   3.836   9.587  0.1034  0.1473 -1.6664
  361MOL0     H48696   4.992   3.860   9.760  3.0859 -2.1512 -2.3440
  361MOL0     H48697   4.821   3.826   9.744  0.1241 -1.1819 -0.7303
  361MOL0     H48698   4.932   3.710   9.826  0.8357  0.3545  1.1516
  361MOL0     H48699   4.593   3.458   9.769 -2.0523  0.0522  0.7726
  361MOL0     H48700   4.426   3.319   9.854 -1.1348 -2.1852  0.4833
  361MOL0     H48701   4.233   2.991   9.838  1.7197 -1.6158  5.1563
  361MOL0     H48702   4.370   3.093   9.873  0.0018 -1.7987 -1.1066
  361MOL0     H48703   4.203   3.193  10.027 -1.3393  2.5638  0.3989
  361MOL0     H48704   4.201   3.299   9.888  0.7877 -0.3709 -0.2810
  361MOL0     H48705   4.017   3.073   9.934  1.6425  0.7123  3.1590
  361MOL0     H48706   4.008   3.169   9.786 -0.5908 -1.0093 -0.2299
  361MOL0     H48707   3.827   3.225   9.951  0.8693 -2.5941 -0.0002
  361MOL0     H48708   3.944   3.256  10.073  2.0440 -0.4529 -0.2697
  361MOL0     H48709   3.908   3.410   9.832 -1.2938 -2.8765  0.0803
  361MOL0     H48710   4.038   3.450   9.951  0.3636 -2.7134  1.3567
  361MOL0     H48711   3.737   3.453  10.020 -0.2112 -0.4615 -1.1447
  361MOL0     H48712   3.862   3.503  10.123 -2.5573  2.3513  0.9832
  361MOL0     H48713   3.844   3.636   9.851 -0.8165 -1.3539 -0.2594
  361MOL0     H48714   3.914   3.706   9.988  1.2833 -1.4196  0.3345
  361MOL0     H48715   3.607   3.662   9.939  0.3927 -0.7614  1.2091
  361MOL0     H48716   3.691   3.812   9.953 -2.3663 -0.9519 -2.7236
  361MOL0     H48717   4.368   3.150   9.456  3.6137  0.1362 -2.7492
  361MOL0     H48718   4.521   3.316   9.375  0.8163  2.5795  0.7326
  361MOL0     H48719   4.820   3.537   9.344 -0.2878 -0.7150 -0.1785
  361MOL0     H48720   5.024   3.639   9.213  0.2685  2.8153 -0.5698
  361MOL0     H48721   6.143   5.088   9.600 -1.8183  2.2172 -1.0752
  361MOL0     H48722   6.084   5.341   9.591  0.0286  1.2311 -1.9079
  361MOL0     H48723   6.159   5.698   9.364 -1.7631  1.3755 -0.7124
  361MOL0     H48724   6.079   5.918   9.319 -0.5311 -1.0086 -0.2749
  361MOL0     H48725   6.159   6.109   9.257 -1.9645 -1.5151  2.1025
  361MOL0     H48726   6.036   6.206   9.352  0.2651  0.6395  2.0049
  361MOL0     H48727   6.113   6.357   9.199 -1.1597  1.2128  2.8224
  361MOL0     H48728   6.286   6.309   9.226  0.9147  2.1385  0.8920
  361MOL0     H48729   6.312   6.412   9.420  0.4144 -0.1876 -0.9100
  361MOL0     H48730   6.141   6.432   9.460  1.2381  2.5101  2.1961
  361MOL0     H48731   6.239   6.568   9.219  2.8337 -2.2907  1.3313
  361MOL0     H48732   6.270   6.636   9.381 -1.9051  1.9927  0.8569
  361MOL0     H48733   5.872   6.721   9.334  0.1608 -0.5700  0.8043
  361MOL0     H48734   6.343   6.068   9.644 -0.2170 -0.0341  1.0559
  361MOL0     H48735   6.409   5.831   9.690 -0.8920 -0.7549  0.9168
  362MOL0     O48736   0.088   5.770   4.747 -0.9142 -1.0746 -0.4261
  362MOL0     C48737   0.046   5.719   4.646 -0.4870 -0.4304  0.0391
  362MOL0     O48738  -0.033   5.602   4.630 -0.0442 -0.1360  0.2953
  362MOL0     C48739  -0.065   5.535   4.747 -0.5172  1.3483 -0.7190
  362MOL0     C48740  -0.201   5.540   4.778 -0.1034 -0.8964 -0.4499
  362MOL0     C48741  -0.242   5.488   4.902  0.6178 -1.0656 -0.1703
  362MOL0     C48742  -0.160   5.425   4.994 -0.8439  0.9456  0.3188
  362MOL0     O48743  -0.203   5.377   5.118 -0.2067  0.1081 -0.2165
  362MOL0     C48744  -0.210   5.232   5.119 -1.0512  0.7363  0.6027
  362MOL0     C48745  -0.282   5.180   5.238 -0.0798 -0.1778  0.1198
  362MOL0     C48746  -0.426   5.241   5.261 -0.3538 -0.6017  0.3087
  362MOL0     C48747  -0.543   5.146   5.224 -0.2734  0.3013 -0.4532
  362MOL0     C48748  -0.679   5.210   5.263  0.3389  0.3573 -0.8835
  362MOL0     C48749  -0.705   5.355   5.219 -0.0970  0.4044 -0.4186
  362MOL0     C48750  -0.701   5.376   5.070  0.1826 -0.2891 -0.0164
  362MOL0     C48751  -0.820   5.455   5.020 -0.7692  0.9815 -0.0398
  362MOL0     N48752  -0.834   5.434   4.875  0.3686 -0.8454 -0.3776
  362MOL0     C48753  -0.790   5.523   4.780  0.4550 -0.0566 -1.1648
  362MOL0     C48754  -0.846   5.496   4.663 -0.5009  0.1954  0.1344
  362MOL0     C48755  -0.831   5.549   4.525  0.1370  0.0515 -0.6112
  362MOL0     C48756  -0.878   5.699   4.495  1.2690  0.8680 -0.4560
  362MOL0     C48757  -0.756   5.795   4.486 -0.2922 -0.9359  0.0476
  362MOL0     C48758  -0.810   5.932   4.442 -0.3124 -0.4460  0.5912
  362MOL0     O48759  -0.869   5.927   4.313  0.3197  0.0949 -0.4067
  362MOL0     C48760  -0.853   6.041   4.238 -0.1114 -0.7137 -0.1197
  362MOL0     C48761  -0.936   6.159   4.244  0.0980  1.1525 -0.2105
  362MOL0     C48762  -0.918   6.272   4.166  0.1007 -0.4744  0.4303
  362MOL0     C48763  -1.017   6.389   4.182  0.0432 -0.4553  0.2767
  362MOL0     C48764  -0.812   6.270   4.065  0.4163  0.3393 -0.2450
  362MOL0     C48765  -0.796   6.371   3.963  0.1046 -0.3840  0.2361
  362MOL0     O48766  -0.664   6.400   3.937  0.1110 -0.6160  0.7892
  362MOL0     C48767  -0.638   6.507   3.857 -0.0632 -0.1747  0.4331
  362MOL0     C48768  -0.673   6.638   3.902 -0.2566 -0.5268 -0.0536
  362MOL0     C48769  -0.653   6.741   3.817 -0.8396 -0.7467 -0.1474
  362MOL0     C48770  -0.581   6.726   3.692  0.1034  0.6429 -0.3294
  362MOL0     O48771  -0.578   6.830   3.604 -0.3564 -0.1647  0.7947
  362MOL0     C48772  -0.657   6.826   3.480 -0.6171  0.2350  0.5263
  362MOL0     C48773  -0.573   6.772   3.365 -0.3451 -0.3775 -0.4796
  362MOL0     C48774  -0.430   6.832   3.358  0.1000 -0.8148  0.4559
  362MOL0     C48775  -0.334   6.732   3.291 -0.9559 -0.3991 -0.5325
  362MOL0     C48776  -0.355   6.723   3.143  0.5808  0.4474  0.9344
  362MOL0     C48777  -0.277   6.599   3.075 -0.2724 -0.6837 -0.3190
  362MOL0     C48778  -0.302   6.570   2.932  0.1269  1.2731 -0.5523
  362MOL0     C48779  -0.445   6.595   2.889 -1.1709 -1.5306  0.5124
  362MOL0    Cl48780  -0.583   6.498   2.936  0.5997 -0.0493 -0.1040
  362MOL0     C48781  -0.524   6.600   3.666  0.1783  1.4830  0.0788
  362MOL0     C48782  -0.559   6.489   3.748  0.8693 -0.2867  0.0968
  362MOL0     O48783  -0.890   6.418   3.905 -0.2865  0.8785 -0.0072
  362MOL0     C48784  -0.743   6.148   4.051  0.2328  0.0497 -0.0518
  362MOL0     C48785  -0.754   6.041   4.142 -0.4813 -0.3489 -0.3226
  362MOL0     N48786  -0.920   5.385   4.683  0.2773  0.8503  1.0410
  362MOL0     N48787  -0.910   5.346   4.806 -1.2953  0.9650  0.3562
  362MOL0     C48788  -0.027   5.407   4.958 -0.4131 -0.4246  0.4406
  362MOL0     C48789   0.023   5.468   4.842 -0.3801  0.2120 -0.4290
  362MOL0     C48790   0.080   5.781   4.526 -0.0401 -0.1601  0.2243
  362MOL0     C48791   0.115   5.709   4.406  0.5859 -0.4170 -0.4579
  362MOL0     C48792   0.152   5.789   4.292 -0.1370  0.1716  0.2297
  362MOL0     C48793   0.134   5.923   4.282  0.5003  0.2525 -0.0132
  362MOL0     O48794   0.152   6.006   4.175 -0.2903  0.9874  0.7872
  362MOL0     C48795   0.069   5.975   4.060  0.2899  0.7902 -0.4280
  362MOL0     C48796   0.155   6.007   3.930  1.0344 -0.2466 -0.2436
  362MOL0     C48797   0.175   6.149   3.894  0.0553  0.5841 -0.3775
  362MOL0     C48798   0.155   6.165   3.731 -0.1189 -0.4499 -0.7194
  362MOL0     C48799   0.230   6.289   3.695 -0.1917  0.7831 -0.1686
  362MOL0     C48800   0.300   6.378   3.654  0.4545  0.2329  0.0136
  362MOL0     C48801   0.088   5.991   4.394  0.2219  1.0908  0.4638
  362MOL0     C48802   0.068   5.927   4.517 -0.0117  0.1832 -0.9402
  362MOL0     H48803  -0.275   5.588   4.715  1.1973  0.8387 -0.7164
  362MOL0     H48804  -0.347   5.503   4.928  0.4843 -0.8042 -0.8471
  362MOL0     H48805  -0.265   5.200   5.030  0.4317  0.1062 -0.1186
  362MOL0     H48806  -0.111   5.186   5.110 -1.1247  0.8732 -1.2298
  362MOL0     H48807  -0.305   5.075   5.217  0.6724  0.0406 -1.9585
  362MOL0     H48808  -0.223   5.194   5.329  1.8270  3.7169 -1.5071
  362MOL0     H48809  -0.452   5.250   5.366 -1.9075 -0.3225 -0.0727
  362MOL0     H48810  -0.433   5.342   5.220 -0.4656 -0.1483  1.4336
  362MOL0     H48811  -0.538   5.131   5.116 -1.0318  0.8127 -0.5613
  362MOL0     H48812  -0.520   5.051   5.273  2.8288  1.3508  0.3465
  362MOL0     H48813  -0.765   5.160   5.216  0.8505 -2.8403  1.2591
  362MOL0     H48814  -0.688   5.196   5.371 -3.3930 -0.1320 -1.1275
  362MOL0     H48815  -0.799   5.387   5.265  0.8819  0.3583  1.7682
  362MOL0     H48816  -0.624   5.417   5.259 -0.3761  0.1832  0.5284
  362MOL0     H48817  -0.607   5.432   5.058  0.4684 -1.3223 -3.8426
  362MOL0     H48818  -0.685   5.275   5.031 -1.1499 -0.4390 -0.1892
  362MOL0     H48819  -0.812   5.561   5.044  1.4294  0.5189  1.5597
  362MOL0     H48820  -0.906   5.414   5.073  0.5240 -1.6927  0.1880
  362MOL0     H48821  -0.707   5.592   4.791  2.1587 -2.1332  0.0834
  362MOL0     H48822  -0.724   5.546   4.502  0.3355 -1.0866  0.3911
  362MOL0     H48823  -0.883   5.484   4.455  1.8961 -1.1112 -0.8927
  362MOL0     H48824  -0.950   5.725   4.573  1.8701 -1.3012  0.9347
  362MOL0     H48825  -0.933   5.709   4.402  0.8148 -2.7539 -0.7424
  362MOL0     H48826  -0.678   5.755   4.421  1.2268 -1.6879  2.2482
  362MOL0     H48827  -0.694   5.808   4.574  0.2732  5.1127 -0.8109
  362MOL0     H48828  -0.741   6.017   4.434 -2.3135  1.1056 -2.3776
  362MOL0     H48829  -0.889   5.972   4.506 -2.9864 -0.7962 -2.2442
  362MOL0     H48830  -1.011   6.160   4.322 -1.3462 -1.8481 -1.4313
  362MOL0     H48831  -1.076   6.379   4.274  2.5642  0.0273  2.0424
  362MOL0     H48832  -0.963   6.484   4.182 -0.3045 -0.2316 -0.9259
  362MOL0     H48833  -1.087   6.395   4.098  0.8665  1.6113 -0.3130
  362MOL0     H48834  -0.727   6.652   3.995 -1.9324  1.7590 -1.2781
  362MOL0     H48835  -0.696   6.836   3.847  1.4086  0.2163  0.2102
  362MOL0     H48836  -0.742   6.763   3.507 -2.1176  1.3987 -1.2584
  362MOL0     H48837  -0.700   6.922   3.451 -0.4927 -0.0247 -0.5724
  362MOL0     H48838  -0.560   6.664   3.355  3.3562  0.1265 -6.4717
  362MOL0     H48839  -0.630   6.795   3.274 -1.1757 -1.3517 -0.2256
  362MOL0     H48840  -0.398   6.853   3.460 -1.3332 -1.3795  1.0532
  362MOL0     H48841  -0.429   6.920   3.293  5.0431 -0.6026  0.4249
  362MOL0     H48842  -0.233   6.773   3.302 -0.7439 -0.8277 -0.8632
  362MOL0     H48843  -0.323   6.636   3.342 -3.3885  0.5819  2.0999
  362MOL0     H48844  -0.314   6.815   3.101  1.6937 -0.1817  0.6011
  362MOL0     H48845  -0.460   6.738   3.118  0.7303  2.7200  1.4345
  362MOL0     H48846  -0.170   6.615   3.092 -0.8929  1.4188  2.2171
  362MOL0     H48847  -0.289   6.509   3.136  0.0736 -0.0825  0.6467
  362MOL0     H48848  -0.283   6.465   2.907 -3.5694 -0.3964  2.5084
  362MOL0     H48849  -0.230   6.634   2.880  2.8836 -1.2315 -0.0871
  362MOL0     H48850  -0.439   6.588   2.780  4.6981  1.0577  0.2481
  362MOL0     H48851  -0.463   6.701   2.911  5.9314  0.3409 -0.1579
  362MOL0     H48852  -0.460   6.590   3.579 -1.8450  2.2028 -1.5721
  362MOL0     H48853  -0.531   6.387   3.723 -2.4028 -1.5695  1.1139
  362MOL0     H48854  -0.681   6.146   3.962  0.7223  2.1903  0.1635
  362MOL0     H48855  -0.703   5.946   4.125  1.9806  0.5191  1.4758
  362MOL0     H48856   0.042   5.350   5.020  0.9094  0.8968  0.2582
  362MOL0     H48857   0.126   5.462   4.807 -0.8325 -1.7508 -1.5056
  362MOL0     H48858   0.131   5.602   4.422  2.4279 -0.0359  0.4661
  362MOL0     H48859   0.190   5.723   4.214  1.0476  2.4828 -1.2652
  362MOL0     H48860   0.036   5.871   4.055  1.5782  0.3926 -3.8820
  362MOL0     H48861  -0.025   6.030   4.064 -1.3067 -1.7628 -0.4319
  362MOL0     H48862   0.106   5.951   3.850 -1.7888  1.5604  0.0718
  362MOL0     H48863   0.252   5.960   3.947 -0.4182 -3.3425  0.0484
  362MOL0     H48864   0.280   6.170   3.916  0.5382 -2.9552  1.3985
  362MOL0     H48865   0.107   6.206   3.958 -0.1080  1.3715 -1.2300
  362MOL0     H48866   0.047   6.171   3.711 -0.9126  1.4916  3.2307
  362MOL0     H48867   0.193   6.079   3.674 -1.0217 -1.9580  0.8512
  362MOL0     H48868   0.353   6.465   3.618  0.0819 -0.3568 -2.1126
  362MOL0     H48869   0.073   6.098   4.386  0.0312  0.9658 -1.3071
  362MOL0     H48870   0.041   5.982   4.607 -2.7773 -1.3344 -0.7380
  363MOL0     O48871   9.926   5.649   1.656 -0.2044  0.7084  0.4681
  363MOL0     C48872   9.972   5.664   1.769  0.3304 -0.5307  0.3628
  363MOL0     O48873  10.097   5.623   1.822  0.0217  0.2655  0.6123
  363MOL0     C48874  10.165   5.549   1.726 -0.0418 -1.1915 -0.1107
  363MOL0     C48875  10.169   5.412   1.742  0.5506  0.1762  0.9428
  363MOL0     C48876  10.248   5.333   1.655  0.9037  0.8186  0.0381
  363MOL0     C48877  10.319   5.386   1.552 -0.2028 -0.7949 -0.7648
  363MOL0     O48878  10.382   5.299   1.460  1.3388  0.5103 -0.3623
  363MOL0     C48879  10.473   5.358   1.372  0.0571 -0.3729  0.6938
  363MOL0     C48880  10.556   5.252   1.307  0.9315 -0.6430 -0.5976
  363MOL0     C48881  10.457   5.167   1.218 -0.7245 -0.5833 -0.6708
  363MOL0     C48882  10.524   5.139   1.077  0.9825 -0.5359 -0.8223
  363MOL0     C48883  10.639   5.043   1.084  0.3958  0.3900 -0.2477
  363MOL0     C48884  10.696   5.019   0.936 -0.7377  0.4815 -0.5540
  363MOL0     C48885  10.598   4.964   0.842  0.4887  0.5426 -1.0929
  363MOL0     C48886  10.673   4.925   0.706  1.0171  0.5756  0.4188
  363MOL0     N48887  10.590   4.846   0.615 -0.1739 -0.0391  0.0907
  363MOL0     C48888  10.487   4.761   0.649  0.7725 -0.8167  0.2646
  363MOL0     C48889  10.427   4.724   0.529  0.3952  0.4385 -0.3142
  363MOL0     C48890  10.328   4.614   0.517 -0.4170 -1.1776  0.7389
  363MOL0     C48891  10.190   4.677   0.548  0.6203 -0.7402  0.7266
  363MOL0     C48892  10.078   4.591   0.506  0.6700 -0.1062  0.3556
  363MOL0     C48893   9.957   4.587   0.605  0.7527  0.0050 -0.7666
  363MOL0     O48894  10.004   4.625   0.742  0.7861  0.0064 -0.9418
  363MOL0     C48895   9.903   4.625   0.838 -0.2197  0.2296 -0.5585
  363MOL0     C48896   9.872   4.744   0.904  0.2291  0.0715 -0.4976
  363MOL0     C48897   9.779   4.757   1.005 -0.5050  1.0390 -0.4469
  363MOL0     C48898   9.738   4.892   1.059 -0.1452  0.0459  0.4588
  363MOL0     C48899   9.721   4.630   1.049 -1.1716 -0.7018  0.6478
  363MOL0     C48900   9.622   4.628   1.155  0.9238  0.5324 -1.0726
  363MOL0     O48901   9.493   4.608   1.122 -0.4153 -0.3720  0.3244
  363MOL0     C48902   9.408   4.574   1.219 -0.2292  0.3139  0.1852
  363MOL0     C48903   9.388   4.657   1.328 -0.6454  0.9691  0.6020
  363MOL0     C48904   9.294   4.627   1.422  0.1747  0.7181  0.2241
  363MOL0     C48905   9.223   4.510   1.426 -0.4740 -0.3927  0.4142
  363MOL0     O48906   9.135   4.487   1.530 -0.2561  0.4119  0.1691
  363MOL0     C48907   9.020   4.411   1.497 -0.4450  0.2109 -1.2341
  363MOL0     C48908   8.919   4.398   1.612  0.2386 -0.4693 -0.5005
  363MOL0     C48909   8.977   4.325   1.728 -1.0588 -0.1384 -0.4002
  363MOL0     C48910   8.918   4.362   1.861 -0.0374 -0.4192 -0.4501
  363MOL0     C48911   8.977   4.280   1.975 -0.0857 -0.2540  0.6384
  363MOL0     C48912   8.948   4.343   2.105  0.3305 -0.1469 -0.5728
  363MOL0     C48913   9.003   4.247   2.211 -0.5319  0.5047  0.3034
  363MOL0     C48914   8.892   4.215   2.297 -0.4649 -0.1344 -0.2902
  363MOL0    Cl48915   8.833   4.355   2.400  0.4392 -0.3829  0.1527
  363MOL0     C48916   9.242   4.418   1.316 -0.1528 -0.9284 -0.4355
  363MOL0     C48917   9.328   4.457   1.211 -0.4218  0.4934 -0.0848
  363MOL0     O48918   9.669   4.623   1.268  1.6018 -0.3309  0.5232
  363MOL0     C48919   9.750   4.516   0.982  0.7195  0.1788 -0.5485
  363MOL0     C48920   9.840   4.507   0.883  0.5996 -0.6243 -0.4349
  363MOL0     N48921  10.494   4.790   0.426  0.3368  0.1649 -0.0648
  363MOL0     N48922  10.585   4.864   0.479  0.1179  0.6973 -0.5492
  363MOL0     C48923  10.314   5.531   1.546 -0.3522  0.5359 -0.2622
  363MOL0     C48924  10.246   5.609   1.633  0.0263 -0.2607 -0.5508
  363MOL0     C48925   9.891   5.763   1.858 -1.0698  0.4422 -0.5001
  363MOL0     C48926   9.950   5.797   1.974 -0.4644  0.2069  0.4118
  363MOL0     C48927   9.887   5.888   2.063 -0.1534  0.1957  0.5609
  363MOL0     C48928   9.751   5.932   2.037 -0.4405 -0.1666 -0.1514
  363MOL0     O48929   9.679   6.028   2.103  0.1795  0.1449  0.4544
  363MOL0     C48930   9.745   6.088   2.213 -0.4862  0.0499  0.4201
  363MOL0     C48931   9.696   6.226   2.246  0.8346 -0.2935 -0.2587
  363MOL0     C48932   9.680   6.312   2.121 -0.8707 -0.8256  0.1273
  363MOL0     C48933   9.651   6.454   2.156  0.0444 -0.2566  0.2871
  363MOL0     C48934   9.613   6.533   2.038 -0.0115  0.4174  0.5801
  363MOL0     C48935   9.593   6.603   1.940 -0.9847 -0.4714  0.3415
  363MOL0     C48936   9.699   5.892   1.912  0.2898  0.3819 -0.4442
  363MOL0     C48937   9.772   5.821   1.821  0.2550 -0.9522 -0.2666
  363MOL0     H48938  10.113   5.359   1.819  0.0033 -0.5587  0.0664
  363MOL0     H48939  10.251   5.232   1.692 -1.7856  1.3981  2.1756
  363MOL0     H48940  10.414   5.404   1.292 -1.0982  0.9715  2.2405
  363MOL0     H48941  10.548   5.424   1.415 -0.1283  1.0335 -1.0190
  363MOL0     H48942  10.627   5.302   1.240 -2.2106  2.3546 -1.9902
  363MOL0     H48943  10.599   5.182   1.379 -0.3830 -1.7537 -0.8310
  363MOL0     H48944  10.435   5.080   1.281 -1.0237  0.3884  0.5984
  363MOL0     H48945  10.368   5.226   1.196  0.7212  1.3098 -1.8660
  363MOL0     H48946  10.453   5.096   1.005  0.3446 -4.9165  2.0568
  363MOL0     H48947  10.551   5.238   1.042 -0.2365  0.1771  0.1721
  363MOL0     H48948  10.714   5.070   1.158 -0.7664 -1.0396  1.5565
  363MOL0     H48949  10.587   4.949   1.107  1.0029 -0.0283 -0.5586
  363MOL0     H48950  10.730   5.121   0.919 -3.6399  2.5758  4.0563
  363MOL0     H48951  10.777   4.946   0.939  0.4166  1.7110  2.6909
  363MOL0     H48952  10.549   4.877   0.887  1.1122  1.0689  0.7117
  363MOL0     H48953  10.524   5.036   0.806 -1.7360 -1.3817 -0.5743
  363MOL0     H48954  10.764   4.868   0.728 -1.7671 -4.2026  1.0110
  363MOL0     H48955  10.682   5.024   0.661 -3.5618  2.5547  3.1416
  363MOL0     H48956  10.478   4.719   0.748  2.4826  0.2332  0.9089
  363MOL0     H48957  10.346   4.577   0.416  2.0704  0.6886  0.4053
  363MOL0     H48958  10.355   4.542   0.595  2.7656 -1.3612 -0.3783
  363MOL0     H48959  10.179   4.772   0.495  0.5025 -1.7602 -1.1791
  363MOL0     H48960  10.206   4.700   0.653 -1.2325 -0.1891  0.9268
  363MOL0     H48961  10.114   4.488   0.498  0.8985  0.0928 -1.9452
  363MOL0     H48962  10.045   4.627   0.408  0.6814 -1.0053  0.0087
  363MOL0     H48963   9.896   4.496   0.607 -0.2238  0.6521 -0.7260
  363MOL0     H48964   9.884   4.664   0.579  1.5990  1.9006  1.9688
  363MOL0     H48965   9.920   4.834   0.865 -0.5319  0.9205  0.4617
  363MOL0     H48966   9.632   4.913   1.041 -0.1158  1.6503  1.9125
  363MOL0     H48967   9.752   4.891   1.167 -1.0039 -1.8478  0.5850
  363MOL0     H48968   9.795   4.971   1.007  1.6102 -2.4872 -1.7805
  363MOL0     H48969   9.445   4.749   1.331 -2.3179  2.0110  2.5061
  363MOL0     H48970   9.290   4.695   1.506 -2.1772  1.2976 -0.2935
  363MOL0     H48971   8.969   4.448   1.407  0.5326 -0.6481 -2.1753
  363MOL0     H48972   9.044   4.308   1.468 -1.7002 -0.3887 -0.2367
  363MOL0     H48973   8.890   4.501   1.637 -2.2332 -1.8960  3.3775
  363MOL0     H48974   8.834   4.353   1.560  0.0162 -0.7532  0.1016
  363MOL0     H48975   9.086   4.332   1.731 -1.1424  1.9334 -0.6722
  363MOL0     H48976   8.949   4.222   1.705  1.4403 -0.5406 -2.0058
  363MOL0     H48977   8.941   4.467   1.878 -0.4095 -0.7945  3.1316
  363MOL0     H48978   8.809   4.353   1.856 -0.8274  5.7000 -2.4011
  363MOL0     H48979   9.085   4.275   1.962 -0.0093  0.1309  1.1277
  363MOL0     H48980   8.926   4.183   1.980 -1.2994  0.4021  4.0811
  363MOL0     H48981   9.000   4.439   2.111 -1.3737  0.7667  0.2457
  363MOL0     H48982   8.842   4.367   2.117  0.7396  1.8799 -0.5974
  363MOL0     H48983   9.069   4.296   2.283  0.2963 -1.7043  1.1317
  363MOL0     H48984   9.056   4.155   2.184 -0.0589  0.9411 -0.2581
  363MOL0     H48985   8.922   4.136   2.367 -1.1705  1.3799  1.8458
  363MOL0     H48986   8.810   4.170   2.242  0.1025 -2.7423  0.8546
  363MOL0     H48987   9.182   4.329   1.301 -1.9151  0.5276 -3.1648
  363MOL0     H48988   9.319   4.390   1.126 -4.3992 -1.6577  1.7676
  363MOL0     H48989   9.696   4.429   1.017  1.3723 -1.1268 -2.6485
  363MOL0     H48990   9.867   4.411   0.839  1.5185 -0.9266  0.7219
  363MOL0     H48991  10.379   5.583   1.477  3.3525 -1.7820  1.1640
  363MOL0     H48992  10.241   5.717   1.629 -0.4548 -0.2228  0.5315
  363MOL0     H48993  10.056   5.777   1.983  0.3833  2.5336 -2.8566
  363MOL0     H48994   9.934   5.914   2.157  2.2808  1.0356 -0.8155
  363MOL0     H48995   9.736   6.026   2.303  1.0328 -1.3278 -0.3304
  363MOL0     H48996   9.852   6.097   2.190 -0.3651 -3.8645 -1.3573
  363MOL0     H48997   9.772   6.278   2.305 -0.5623  0.6380  0.7856
  363MOL0     H48998   9.594   6.231   2.286  2.3933 -0.3046  4.2071
  363MOL0     H48999   9.600   6.264   2.064 -1.7320 -1.1581  1.5657
  363MOL0     H49000   9.777   6.309   2.070 -1.0799 -0.7829 -0.2781
  363MOL0     H49001   9.739   6.503   2.198  0.2336 -0.8402  0.5729
  363MOL0     H49002   9.571   6.468   2.229  0.6697  3.7848  0.4370
  363MOL0     H49003   9.599   6.663   1.852 -1.1886  1.1307  1.3848
  363MOL0     H49004   9.597   5.923   1.892  0.5447  2.6892  1.3885
  363MOL0     H49005   9.744   5.791   1.720  0.1650 -2.4282  0.1664
  364MOL0     O49006   1.295  10.278   2.782 -0.7462  0.6838  0.2886
  364MOL0     C49007   1.218  10.181   2.787  0.8376 -0.4347 -0.4061
  364MOL0     O49008   1.260  10.054   2.833 -0.4319 -0.0816  0.4301
  364MOL0     C49009   1.381  10.044   2.891 -0.9447  0.0213 -0.7087
  364MOL0     C49010   1.388  10.069   3.031 -1.0894  0.1054 -0.2518
  364MOL0     C49011   1.515  10.052   3.097 -0.3586  0.3727  0.1266
  364MOL0     C49012   1.636  10.025   3.026  0.0463  0.3242  0.3149
  364MOL0     O49013   1.769  10.040   3.064 -0.2861  0.1308 -0.3331
  364MOL0     C49014   1.814  10.084   3.197 -1.3350  0.2249  0.5558
  364MOL0     C49015   1.900   9.976   3.257 -0.4035  0.2295  0.4737
  364MOL0     C49016   1.966  10.029   3.388  0.3853 -0.8257  1.0170
  364MOL0     C49017   2.018   9.908   3.476  0.0589  0.0485 -0.6218
  364MOL0     C49018   2.082   9.968   3.605  0.0708 -0.2950 -0.8307
  364MOL0     C49019   2.098   9.848   3.702 -0.6304  0.3446  1.6209
  364MOL0     C49020   2.210   9.757   3.646  0.1130  0.0605  1.2858
  364MOL0     C49021   2.239   9.635   3.731  0.6563 -0.5080  0.1055
  364MOL0     N49022   2.136   9.528   3.721 -0.5570 -0.3158 -0.4001
  364MOL0     C49023   2.097   9.456   3.831  0.3787  0.0161 -0.9945
  364MOL0     C49024   2.021   9.351   3.784 -0.2068  0.3198 -0.0645
  364MOL0     C49025   1.964   9.239   3.861 -1.2135  0.1665  0.2466
  364MOL0     C49026   1.923   9.286   4.002 -0.7209  0.0334  0.0094
  364MOL0     C49027   1.840   9.168   4.051 -0.0621  1.0065 -0.5972
  364MOL0     C49028   1.858   9.141   4.196 -0.1593  0.4261 -0.0665
  364MOL0     O49029   1.775   9.037   4.239  0.3902 -0.4640  0.7108
  364MOL0     C49030   1.775   9.016   4.375 -0.8677  0.0264 -0.9753
  364MOL0     C49031   1.866   9.048   4.473 -0.1501 -0.0404 -0.4134
  364MOL0     C49032   1.850   9.022   4.611  0.3238 -0.6719  0.5914
  364MOL0     C49033   1.972   9.034   4.694  0.6947  0.1362  0.3745
  364MOL0     C49034   1.731   8.955   4.652  0.6233 -0.4478  0.0069
  364MOL0     C49035   1.698   8.936   4.792  0.7425  1.1827  0.0083
  364MOL0     O49036   1.736   9.033   4.872 -1.6594 -0.6401  0.2662
  364MOL0     C49037   1.701   9.051   4.998 -0.0389  0.5277  0.3742
  364MOL0     C49038   1.770   9.153   5.053  0.1097  0.1474 -0.1778
  364MOL0     C49039   1.763   9.184   5.189  0.0308  1.0602 -0.2483
  364MOL0     C49040   1.687   9.100   5.272 -0.2282  0.0901 -1.2830
  364MOL0     O49041   1.701   9.129   5.404 -0.1468 -0.1172  0.6041
  364MOL0     C49042   1.724   9.010   5.482 -0.3653 -1.0332 -0.8234
  364MOL0     C49043   1.856   8.934   5.447 -0.3694  0.0333 -0.4811
  364MOL0     C49044   1.983   9.017   5.456  0.2382  0.1870  0.2367
  364MOL0     C49045   2.007   9.081   5.598 -0.1653  0.1221 -0.5059
  364MOL0     C49046   2.142   9.155   5.580  0.1809 -0.9151  0.5017
  364MOL0     C49047   2.201   9.182   5.710 -0.5162 -0.3582 -0.6207
  364MOL0     C49048   2.328   9.266   5.691 -0.1990 -0.2767  0.5127
  364MOL0     C49049   2.418   9.285   5.809  0.6743 -0.4227 -0.3899
  364MOL0    Cl49050   2.538   9.394   5.741  0.0425  0.5348  0.1173
  364MOL0     C49051   1.611   8.989   5.219 -0.7889  0.1921  0.1787
  364MOL0     C49052   1.618   8.972   5.078  0.6599 -0.0376 -0.9838
  364MOL0     O49053   1.627   8.838   4.823  0.0101 -0.4707 -0.1082
  364MOL0     C49054   1.636   8.934   4.551 -0.9375 -0.0616 -0.4599
  364MOL0     C49055   1.665   8.955   4.419  1.4440  0.0836 -0.3999
  364MOL0     N49056   2.023   9.359   3.644 -0.0075  0.0105  0.4969
  364MOL0     N49057   2.086   9.470   3.613 -0.2668  0.7483  0.5455
  364MOL0     C49058   1.621   9.995   2.888 -0.0863 -0.2693  0.7183
  364MOL0     C49059   1.497  10.002   2.822 -0.7126 -0.0202  0.4859
  364MOL0     C49060   1.081  10.208   2.739  0.4360  1.2738 -0.4593
  364MOL0     C49061   1.051  10.283   2.631 -0.3756 -0.4656  0.0000
  364MOL0     C49062   0.918  10.300   2.594  0.3728  1.1115  0.1918
  364MOL0     C49063   0.801  10.240   2.655 -0.2467  0.5678 -0.2644
  364MOL0     O49064   0.674  10.257   2.603 -0.0724 -0.2710  0.4407
  364MOL0     C49065   0.654  10.339   2.484 -0.0786 -0.5033 -0.2866
  364MOL0     C49066   0.522  10.324   2.423  0.6589 -0.2964  0.7577
  364MOL0     C49067   0.403  10.315   2.511  1.2006  0.1050 -0.0423
  364MOL0     C49068   0.286  10.319   2.412  0.2379  0.2220  0.0824
  364MOL0     C49069   0.152  10.331   2.478 -1.1720  0.1043 -0.3130
  364MOL0     C49070   0.055  10.338   2.547 -0.0100 -1.9434  0.8736
  364MOL0     C49071   0.832  10.164   2.764 -0.4120 -0.4885 -0.7587
  364MOL0     C49072   0.971  10.143   2.800 -0.0305  0.2393 -0.4806
  364MOL0     H49073   1.301  10.097   3.089 -0.2726  0.3504  0.8757
  364MOL0     H49074   1.523  10.061   3.205 -1.8558  1.0540  0.2078
  364MOL0     H49075   1.883  10.168   3.195  2.3487 -2.5109  0.9320
  364MOL0     H49076   1.727  10.109   3.259 -1.6415  1.2372 -0.2603
  364MOL0     H49077   1.832   9.895   3.284 -2.3028  1.6521  0.1174
  364MOL0     H49078   1.976   9.947   3.184 -0.8581  1.2797 -0.4517
  364MOL0     H49079   2.059  10.085   3.376 -0.9948  1.4375  0.3801
  364MOL0     H49080   1.902  10.100   3.441 -1.5959  2.3830 -4.8371
  364MOL0     H49081   1.938   9.841   3.509  1.0961 -2.3619 -2.6810
  364MOL0     H49082   2.093   9.848   3.424 -0.0397  2.2428 -3.5334
  364MOL0     H49083   2.182  10.011   3.596  0.2013 -0.2061  0.7292
  364MOL0     H49084   2.024  10.054   3.640  1.0723  0.4766 -1.0359
  364MOL0     H49085   2.127   9.899   3.795  2.2368  2.9220 -0.4966
  364MOL0     H49086   2.006   9.791   3.717 -0.6007 -0.4462 -0.7669
  364MOL0     H49087   2.183   9.721   3.547  0.0221  0.4893  1.1525
  364MOL0     H49088   2.301   9.818   3.642  2.9347 -3.7626  1.0269
  364MOL0     H49089   2.254   9.665   3.835 -1.2731  3.1267 -0.4904
  364MOL0     H49090   2.335   9.592   3.700  1.4155  0.0573  1.5933
  364MOL0     H49091   2.110   9.490   3.933 -0.5581 -3.1123  0.2802
  364MOL0     H49092   1.869   9.205   3.821 -0.8668 -0.2536 -0.2339
  364MOL0     H49093   2.044   9.164   3.865  0.0613  1.2928 -1.9861
  364MOL0     H49094   1.851   9.368   3.990 -1.9495 -1.0372 -0.1687
  364MOL0     H49095   2.000   9.316   4.073 -0.2188 -2.5013  0.6335
  364MOL0     H49096   1.868   9.073   4.004 -2.1299  0.4012 -0.7105
  364MOL0     H49097   1.735   9.197   4.042 -0.7917 -1.1847 -0.0301
  364MOL0     H49098   1.833   9.232   4.251 -1.3564  0.2542 -0.2993
  364MOL0     H49099   1.961   9.110   4.213 -0.9872 -0.5837  4.3013
  364MOL0     H49100   1.957   9.106   4.459 -0.2675  0.5060  0.9034
  364MOL0     H49101   1.955   9.085   4.789 -2.3244  1.5949 -0.8374
  364MOL0     H49102   2.022   8.937   4.690  1.2652  0.4589 -3.6900
  364MOL0     H49103   2.043   9.099   4.642  0.0080  0.8549  0.3271
  364MOL0     H49104   1.834   9.218   4.994 -0.3644 -1.1105 -2.1756
  364MOL0     H49105   1.815   9.264   5.242  1.8507 -0.9925  1.2710
  364MOL0     H49106   1.740   9.048   5.583  3.6458 -1.6261 -1.0910
  364MOL0     H49107   1.637   8.944   5.481  0.1057 -1.6583 -0.5969
  364MOL0     H49108   1.858   8.850   5.518 -2.3873 -0.8582 -1.3886
  364MOL0     H49109   1.854   8.892   5.346 -4.7915  0.9006 -0.9734
  364MOL0     H49110   1.983   9.095   5.380  1.0899 -0.1201 -0.0840
  364MOL0     H49111   2.058   8.940   5.437 -2.4403 -1.9414 -2.7234
  364MOL0     H49112   1.924   9.147   5.628  0.6784  0.8967  0.1653
  364MOL0     H49113   2.011   9.003   5.675 -1.2229  1.1343  0.6152
  364MOL0     H49114   2.127   9.245   5.520 -2.4296 -2.2891 -1.0880
  364MOL0     H49115   2.210   9.087   5.526 -0.7881  1.2362 -3.8886
  364MOL0     H49116   2.120   9.236   5.758  0.7633  1.1177 -0.0462
  364MOL0     H49117   2.226   9.090   5.765 -1.0816 -1.3464 -1.9503
  364MOL0     H49118   2.300   9.368   5.663 -0.3888  1.2281  5.1759
  364MOL0     H49119   2.381   9.216   5.610 -3.6512 -0.2880 -1.9532
  364MOL0     H49120   2.459   9.191   5.849 -0.5630 -0.6061  0.5160
  364MOL0     H49121   2.356   9.333   5.886 -0.9387  0.0806 -1.9391
  364MOL0     H49122   1.565   8.908   5.275 -0.0294 -1.1769 -1.1151
  364MOL0     H49123   1.557   8.889   5.045  2.8901 -1.5968 -1.4005
  364MOL0     H49124   1.538   8.889   4.566 -0.5412 -0.2267  2.2592
  364MOL0     H49125   1.604   8.928   4.333 -0.7559 -1.5563  1.5568
  364MOL0     H49126   1.709   9.974   2.829 -2.1170 -2.5112 -1.8435
  364MOL0     H49127   1.499   9.988   2.715  0.3397 -2.2252  0.7311
  364MOL0     H49128   1.123  10.339   2.574 -3.0400  0.8578 -2.2885
  364MOL0     H49129   0.910  10.354   2.501  3.9479  0.3830 -0.6722
  364MOL0     H49130   0.662  10.443   2.516  0.6467  0.1687 -2.4991
  364MOL0     H49131   0.739  10.330   2.415  1.9582  0.8611  1.8874
  364MOL0     H49132   0.527  10.229   2.369  0.0537  0.9038 -1.5377
  364MOL0     H49133   0.509  10.407   2.353 -2.3735 -0.5584  0.8518
  364MOL0     H49134   0.376  10.397   2.579 -3.9371 -0.8037 -0.5621
  364MOL0     H49135   0.396  10.223   2.570  1.2364 -0.1578 -0.4414
  364MOL0     H49136   0.290  10.239   2.338  3.1500  1.4147 -1.1818
  364MOL0     H49137   0.293  10.409   2.351  4.3899  0.4959  0.7226
  364MOL0     H49138  -0.041  10.350   2.595 -1.3309 -2.4491 -1.5007
  364MOL0     H49139   0.761  10.120   2.834  2.1619  0.5852  2.7607
  364MOL0     H49140   0.999  10.066   2.871 -0.4375 -0.8598 -1.4805
  365MOL0     O49141   0.002   4.073   0.556 -0.2848  0.1950  0.1201
  365MOL0     C49142  -0.010   4.157   0.473 -0.7801 -0.4518 -0.5558
  365MOL0     O49143  -0.133   4.214   0.435 -0.8028  0.3705 -0.0429
  365MOL0     C49144  -0.254   4.164   0.479 -0.4199  0.2580  0.2926
  365MOL0     C49145  -0.352   4.151   0.384  0.2252  1.1068 -0.2104
  365MOL0     C49146  -0.480   4.113   0.428  0.6928  1.2293  0.0101
  365MOL0     C49147  -0.513   4.089   0.555  0.4588 -0.2100  0.7840
  365MOL0     O49148  -0.645   4.041   0.578  0.0768  0.6088 -0.6979
  365MOL0     C49149  -0.673   3.994   0.714  0.3065  0.2270  0.6717
  365MOL0     C49150  -0.825   4.006   0.743  0.1227  0.4033  0.7230
  365MOL0     C49151  -0.854   4.156   0.764  0.0457  0.5982  0.0287
  365MOL0     C49152  -1.001   4.182   0.803 -0.1327 -0.7156  0.1593
  365MOL0     C49153  -1.052   4.136   0.937 -0.8885 -0.0478 -0.0166
  365MOL0     C49154  -0.966   4.193   1.049 -0.0252 -0.5331  0.3814
  365MOL0     C49155  -1.014   4.140   1.188 -0.3908 -0.3165  0.1876
  365MOL0     C49156  -0.980   4.220   1.315 -0.4416 -0.2616  0.2977
  365MOL0     N49157  -1.013   4.152   1.439 -0.7155 -0.0215  0.0820
  365MOL0     C49158  -1.143   4.135   1.478 -0.0965  0.5083  0.5564
  365MOL0     C49159  -1.138   4.083   1.604 -0.9096 -0.3692  0.6892
  365MOL0     C49160  -1.251   4.039   1.687 -0.4766  0.3644  0.0304
  365MOL0     C49161  -1.366   4.141   1.700  0.3829  0.2447  0.2808
  365MOL0     C49162  -1.317   4.279   1.732 -0.2859  0.4410 -0.1213
  365MOL0     C49163  -1.425   4.385   1.786 -0.9731  0.8181  0.2598
  365MOL0     O49164  -1.469   4.336   1.917 -0.9101 -0.5497 -0.4195
  365MOL0     C49165  -1.544   4.423   1.997 -0.3684 -0.2918 -0.2856
  365MOL0     C49166  -1.589   4.385   2.122 -1.1237 -0.4803 -0.1455
  365MOL0     C49167  -1.663   4.467   2.209  0.0086  0.2688 -0.2080
  365MOL0     C49168  -1.708   4.398   2.341 -0.6507  0.5866  0.0841
  365MOL0     C49169  -1.674   4.600   2.186 -0.5653  0.2622 -0.0315
  365MOL0     C49170  -1.736   4.710   2.275 -0.7864  0.5475 -0.2908
  365MOL0     O49171  -1.695   4.840   2.253 -0.2231 -0.2750 -0.0453
  365MOL0     C49172  -1.740   4.929   2.346  0.8810  0.2019  0.6860
  365MOL0     C49173  -1.860   4.990   2.327  0.6726 -0.6473  0.1711
  365MOL0     C49174  -1.896   5.100   2.403 -0.5772  0.4105 -0.2786
  365MOL0     C49175  -1.822   5.140   2.517  0.5626 -0.7186  0.1552
  365MOL0     O49176  -1.896   5.231   2.596 -0.4813  0.3111  0.1205
  365MOL0     C49177  -1.825   5.283   2.707 -1.2110 -0.0970  0.4410
  365MOL0     C49178  -1.913   5.397   2.752 -0.0199  0.4031  0.8554
  365MOL0     C49179  -1.832   5.504   2.819  0.4339 -1.0839  0.5025
  365MOL0     C49180  -1.923   5.626   2.857 -0.1278 -1.4296 -1.1420
  365MOL0     C49181  -1.846   5.753   2.902  0.9338  0.4958  0.4329
  365MOL0     C49182  -1.946   5.863   2.944 -0.1778  0.2699 -0.2770
  365MOL0     C49183  -1.868   5.984   2.992 -0.3593  1.2549  1.1773
  365MOL0     C49184  -1.966   6.093   3.030  0.2494 -0.4321 -0.1935
  365MOL0    Cl49185  -2.048   6.030   3.185  0.3740  0.0393  0.5657
  365MOL0     C49186  -1.706   5.074   2.545 -0.6126  0.2536  0.0867
  365MOL0     C49187  -1.660   4.974   2.452 -0.6331  0.3487  0.1107
  365MOL0     O49188  -1.831   4.675   2.348  0.1888 -0.3529 -0.2707
  365MOL0     C49189  -1.628   4.641   2.056  1.1074 -0.6956 -0.5833
  365MOL0     C49190  -1.572   4.562   1.964  0.4979 -0.2283  0.6791
  365MOL0     N49191  -1.007   4.047   1.624  0.1159  0.4523 -0.6078
  365MOL0     N49192  -0.928   4.107   1.537  1.5381  0.4248  1.5060
  365MOL0     C49193  -0.414   4.115   0.651 -0.4342  0.2054  0.8356
  365MOL0     C49194  -0.283   4.137   0.612  0.2676 -0.7529 -0.4737
  365MOL0     C49195   0.112   4.201   0.394  0.2810 -0.0389  0.1427
  365MOL0     C49196   0.241   4.161   0.433 -0.6427  0.2210 -0.1419
  365MOL0     C49197   0.346   4.180   0.353  0.5599 -1.4630  0.8126
  365MOL0     C49198   0.340   4.254   0.228  0.2717 -0.0060  0.6442
  365MOL0     O49199   0.447   4.290   0.154  0.4547 -0.4784  1.1797
  365MOL0     C49200   0.559   4.200   0.137  0.3733 -0.8592  0.3571
  365MOL0     C49201   0.679   4.253   0.213 -0.1935 -0.1167 -0.3614
  365MOL0     C49202   0.795   4.151   0.231  0.6380 -0.4570 -0.4182
  365MOL0     C49203   0.868   4.103   0.108  0.4293  0.9491  0.4124
  365MOL0     C49204   0.960   3.988   0.152  0.5311  0.1928  0.5685
  365MOL0     C49205   1.023   3.899   0.202  0.2273 -0.4264 -0.9284
  365MOL0     C49206   0.208   4.283   0.184  0.4878 -0.9963 -0.7915
  365MOL0     C49207   0.093   4.258   0.263 -0.7158  0.2157  0.4109
  365MOL0     H49208  -0.325   4.169   0.280  0.3823  2.6504  0.0832
  365MOL0     H49209  -0.554   4.085   0.353 -0.0331  2.8637  0.0612
  365MOL0     H49210  -0.636   3.892   0.727 -2.0240 -1.5923 -4.3159
  365MOL0     H49211  -0.617   4.042   0.795 -0.7365  0.2198  1.4188
  365MOL0     H49212  -0.873   3.962   0.654 -1.0731  2.1884  0.4383
  365MOL0     H49213  -0.857   3.951   0.832  1.0562 -0.4271  0.5642
  365MOL0     H49214  -0.786   4.195   0.840 -0.8107  2.8279 -0.2574
  365MOL0     H49215  -0.835   4.225   0.681  1.6455  1.9188  1.4113
  365MOL0     H49216  -1.031   4.286   0.790 -0.2578 -0.4195  2.4352
  365MOL0     H49217  -1.067   4.130   0.732 -1.7122  1.0427  0.2630
  365MOL0     H49218  -1.157   4.165   0.945 -0.1440  3.1720 -0.3177
  365MOL0     H49219  -1.060   4.028   0.930 -1.8531 -0.0228  0.5570
  365MOL0     H49220  -0.862   4.162   1.042  0.7670  1.2590  2.7486
  365MOL0     H49221  -0.965   4.302   1.059 -1.1327 -0.4084 -0.6846
  365MOL0     H49222  -1.123   4.142   1.187 -0.3918  0.7443  0.6212
  365MOL0     H49223  -0.976   4.038   1.199 -1.7637 -0.6650  2.0339
  365MOL0     H49224  -1.021   4.321   1.305  1.5249  0.5392 -0.2720
  365MOL0     H49225  -0.873   4.239   1.304 -0.1884 -1.7451 -0.0720
  365MOL0     H49226  -1.230   4.154   1.415  0.7355  0.0950 -0.7569
  365MOL0     H49227  -1.286   3.945   1.644 -1.1912 -0.4441  2.2371
  365MOL0     H49228  -1.221   4.025   1.791 -1.8200 -3.5041  0.0541
  365MOL0     H49229  -1.444   4.107   1.769  1.3122 -0.0013  1.2402
  365MOL0     H49230  -1.420   4.146   1.605  2.4067 -0.2182 -0.9560
  365MOL0     H49231  -1.264   4.312   1.642 -1.5072 -3.7624 -2.6162
  365MOL0     H49232  -1.239   4.277   1.809 -1.7122  3.2688  1.5764
  365MOL0     H49233  -1.501   4.384   1.708  0.8943 -1.4776 -1.6898
  365MOL0     H49234  -1.377   4.483   1.794 -0.6815  0.7010 -0.0448
  365MOL0     H49235  -1.580   4.280   2.148  1.6706 -0.7074 -1.6806
  365MOL0     H49236  -1.812   4.365   2.332 -0.7925  1.1986 -0.5999
  365MOL0     H49237  -1.655   4.304   2.358 -0.8387  0.4621 -0.0182
  365MOL0     H49238  -1.701   4.463   2.429  1.5716  2.5694 -1.4222
  365MOL0     H49239  -1.925   4.956   2.247 -2.0189  0.7837  1.5847
  365MOL0     H49240  -1.983   5.162   2.382  0.0918  0.4394 -3.4247
  365MOL0     H49241  -1.814   5.207   2.785  0.0098 -1.3064 -0.8301
  365MOL0     H49242  -1.730   5.319   2.665 -0.9293 -0.5863  0.6482
  365MOL0     H49243  -1.962   5.438   2.662 -1.1815  0.6716  1.5859
  365MOL0     H49244  -1.995   5.367   2.817 -2.6224  1.2273 -1.8137
  365MOL0     H49245  -1.752   5.551   2.761  0.4452 -0.1445  1.2555
  365MOL0     H49246  -1.793   5.456   2.909  1.8979 -2.3005 -0.7173
  365MOL0     H49247  -1.977   5.666   2.771 -1.4606  1.2172  0.7847
  365MOL0     H49248  -1.996   5.603   2.935  1.9396 -0.2463  1.3293
  365MOL0     H49249  -1.790   5.789   2.815  2.8092 -0.5539  1.1576
  365MOL0     H49250  -1.781   5.710   2.978 -2.9250 -3.2459  2.0306
  365MOL0     H49251  -2.003   5.884   2.853 -0.6665 -3.2692 -0.9008
  365MOL0     H49252  -2.027   5.843   3.016 -0.1555  0.0797 -0.3046
  365MOL0     H49253  -1.800   6.017   2.913  1.1674 -4.3208 -0.2165
  365MOL0     H49254  -1.800   5.960   3.075  0.3911  1.8889  0.7544
  365MOL0     H49255  -2.036   6.099   2.947  0.0844  1.3763  0.0319
  365MOL0     H49256  -1.931   6.195   3.047 -1.3158 -0.3345  3.4502
  365MOL0     H49257  -1.647   5.082   2.635 -1.5164 -3.0318  1.1295
  365MOL0     H49258  -1.570   4.917   2.474 -0.4877 -0.1979 -1.7573
  365MOL0     H49259  -1.637   4.747   2.034  4.4763  0.5638  2.8769
  365MOL0     H49260  -1.536   4.614   1.876 -1.1413  3.2331  1.8818
  365MOL0     H49261  -0.425   4.119   0.758  2.1032  1.2406  1.1332
  365MOL0     H49262  -0.208   4.158   0.688 -1.6898 -1.9158  1.9447
  365MOL0     H49263   0.267   4.110   0.525  3.4816 -1.4634 -1.9966
  365MOL0     H49264   0.437   4.149   0.405  0.5536 -1.7685  0.6448
  365MOL0     H49265   0.532   4.096   0.159 -2.4134 -0.5134 -1.0753
  365MOL0     H49266   0.575   4.195   0.029 -2.2909 -0.1496 -0.1253
  365MOL0     H49267   0.658   4.284   0.316  0.7102  2.1465 -0.7970
  365MOL0     H49268   0.713   4.348   0.170 -0.8767  1.6645  2.7260
  365MOL0     H49269   0.764   4.065   0.290  1.1024 -0.5542 -0.3102
  365MOL0     H49270   0.876   4.201   0.286  0.2336 -1.3836  1.0805
  365MOL0     H49271   0.917   4.182   0.049 -1.4047  1.9403  0.1438
  365MOL0     H49272   0.789   4.066   0.043 -0.2580  4.0624 -0.7142
  365MOL0     H49273   1.063   3.811   0.250  0.7747 -0.1922 -0.9511
  365MOL0     H49274   0.195   4.318   0.083 -3.7383  0.1182 -0.0311
  365MOL0     H49275  -0.003   4.270   0.213  0.5953  1.5370 -1.9871
  366MOL0     O49276   4.515   5.027   0.187  0.6393 -0.6923 -0.4880
  366MOL0     C49277   4.497   5.141   0.166  0.2840 -1.2748 -0.6072
  366MOL0     O49278   4.390   5.192   0.098 -1.0642 -0.2259  0.3202
  366MOL0     C49279   4.314   5.110   0.026  0.8318 -0.3026 -0.2608
  366MOL0     C49280   4.373   5.036  -0.076  0.0290 -0.3214  0.0865
  366MOL0     C49281   4.293   4.957  -0.150 -0.9133 -0.0734 -0.1718
  366MOL0     C49282   4.164   4.923  -0.117  1.0996  0.1307  0.2133
  366MOL0     O49283   4.095   4.821  -0.186  0.1092 -0.3589  0.3992
  366MOL0     C49284   4.126   4.687  -0.127  0.0275 -0.0988  0.5157
  366MOL0     C49285   4.061   4.579  -0.215 -1.0464 -0.0353 -1.5651
  366MOL0     C49286   4.129   4.580  -0.349  0.4604 -0.7824 -0.3467
  366MOL0     C49287   4.072   4.477  -0.453  0.1697 -1.1790  0.3021
  366MOL0     C49288   4.177   4.468  -0.567  1.1951  0.8039 -0.8234
  366MOL0     C49289   4.112   4.454  -0.706 -0.2787  0.9338  0.1452
  366MOL0     C49290   4.195   4.397  -0.823 -0.0123  0.4656  0.3434
  366MOL0     C49291   4.279   4.279  -0.787  0.0881 -0.3043 -0.3491
  366MOL0     N49292   4.423   4.302  -0.774 -0.7463  0.4461 -1.0021
  366MOL0     C49293   4.511   4.314  -0.877  0.5051 -0.4359 -0.2950
  366MOL0     C49294   4.625   4.345  -0.818 -0.5101  0.4430 -1.6690
  366MOL0     C49295   4.756   4.393  -0.888 -0.4173  0.7110 -0.1392
  366MOL0     C49296   4.738   4.422  -1.042  0.4146 -0.4035  0.2363
  366MOL0     C49297   4.674   4.563  -1.072 -0.2550  1.6221 -0.0733
  366MOL0     C49298   4.649   4.576  -1.218  0.4789 -0.1843  0.1489
  366MOL0     O49299   4.765   4.550  -1.292 -0.0624 -0.1977  0.4043
  366MOL0     C49300   4.769   4.565  -1.426 -0.0704 -0.0599  0.5468
  366MOL0     C49301   4.881   4.518  -1.479  0.1167 -0.3197  0.3373
  366MOL0     C49302   4.910   4.534  -1.621  0.1197  0.0164 -0.4979
  366MOL0     C49303   5.036   4.480  -1.671  1.3556 -0.5073  0.4787
  366MOL0     C49304   4.808   4.584  -1.707  0.2021  0.0877 -0.0331
  366MOL0     C49305   4.822   4.606  -1.851 -0.1297  0.0069  0.7762
  366MOL0     O49306   4.708   4.590  -1.929 -0.4034 -0.1059 -0.1726
  366MOL0     C49307   4.710   4.635  -2.062  0.1100  0.3036  0.1314
  366MOL0     C49308   4.678   4.539  -2.167 -0.9476  0.5924  0.1976
  366MOL0     C49309   4.689   4.586  -2.301 -0.4359  0.3278  0.0672
  366MOL0     C49310   4.728   4.716  -2.331  0.5549 -0.2035  0.4251
  366MOL0     O49311   4.745   4.751  -2.463 -1.2063  0.2274  0.5362
  366MOL0     C49312   4.697   4.679  -2.579  0.0626  0.0665 -1.3273
  366MOL0     C49313   4.690   4.769  -2.709 -0.6148 -0.1213 -0.4636
  366MOL0     C49314   4.700   4.694  -2.839  0.4610  0.7984 -0.9327
  366MOL0     C49315   4.676   4.788  -2.954  0.9646 -0.8556 -1.6671
  366MOL0     C49316   4.670   4.727  -3.098 -1.2734  0.1317  0.2966
  366MOL0     C49317   4.783   4.625  -3.140 -1.3013 -0.2089 -0.1977
  366MOL0     C49318   4.929   4.682  -3.136 -0.3653 -0.0462  1.1360
  366MOL0     C49319   4.974   4.733  -3.269 -0.2653 -0.1466  0.6328
  366MOL0    Cl49320   5.154   4.753  -3.251  0.2387  0.1257  0.2983
  366MOL0     C49321   4.751   4.802  -2.228  0.7006  0.1820 -0.4052
  366MOL0     C49322   4.747   4.765  -2.106 -0.1759 -0.6161 -0.2393
  366MOL0     O49323   4.934   4.646  -1.891 -0.2156  0.5864 -0.9793
  366MOL0     C49324   4.698   4.634  -1.643 -0.0980 -0.1567 -0.0264
  366MOL0     C49325   4.674   4.624  -1.508  0.5505  0.9967 -0.2161
  366MOL0     N49326   4.602   4.336  -0.679  0.1937  0.1909  0.8871
  366MOL0     N49327   4.480   4.306  -0.655  0.2881 -0.6321  0.7676
  366MOL0     C49328   4.102   4.997  -0.010 -0.0761  0.7937 -0.3529
  366MOL0     C49329   4.183   5.089   0.054  0.6625 -1.2859 -0.2142
  366MOL0     C49330   4.604   5.235   0.218 -0.7723 -1.0713  0.7398
  366MOL0     C49331   4.614   5.368   0.170  0.2929  0.0442 -0.6584
  366MOL0     C49332   4.699   5.460   0.232  0.8886 -0.0172 -0.5547
  366MOL0     C49333   4.781   5.418   0.337  0.0539 -0.5638 -0.5312
  366MOL0     O49334   4.889   5.492   0.392 -0.0008  0.5867 -0.4517
  366MOL0     C49335   4.885   5.635   0.364  0.0021  0.4836 -0.4421
  366MOL0     C49336   4.983   5.717   0.458 -0.1028  0.5797  0.3964
  366MOL0     C49337   5.131   5.671   0.460 -1.4010  0.4370 -0.0014
  366MOL0     C49338   5.216   5.751   0.557  0.0235 -0.3030 -0.9295
  366MOL0     C49339   5.344   5.689   0.534 -0.3060 -0.1259 -0.5062
  366MOL0     C49340   5.439   5.626   0.495 -1.2090  0.8467  0.6991
  366MOL0     C49341   4.771   5.287   0.380 -0.0129  0.2758  0.4908
  366MOL0     C49342   4.690   5.194   0.319 -0.2207  0.5851 -0.4995
  366MOL0     H49343   4.473   5.054  -0.113 -0.8981  2.7265 -1.2951
  366MOL0     H49344   4.354   4.914  -0.229  0.4017 -0.6507  1.1138
  366MOL0     H49345   4.234   4.675  -0.110 -0.3161 -3.9304  0.8037
  366MOL0     H49346   4.073   4.682  -0.032  0.6730  2.2911  1.0753
  366MOL0     H49347   4.084   4.486  -0.163  0.3608  1.7460  1.2682
  366MOL0     H49348   3.953   4.594  -0.229 -1.4939 -2.2773 -0.9339
  366MOL0     H49349   4.117   4.682  -0.389 -1.7235 -1.6238 -2.0354
  366MOL0     H49350   4.235   4.555  -0.340  0.2152 -2.6930 -1.9370
  366MOL0     H49351   4.060   4.375  -0.415  0.5706 -1.7153 -0.9430
  366MOL0     H49352   3.973   4.496  -0.496 -1.6666 -2.4197  3.6163
  366MOL0     H49353   4.245   4.554  -0.572  2.1213  0.0458 -1.9611
  366MOL0     H49354   4.233   4.380  -0.532  0.1920  0.7048  0.6578
  366MOL0     H49355   4.031   4.381  -0.699  1.4291 -1.4274 -2.5385
  366MOL0     H49356   4.061   4.540  -0.750  0.9241  0.0058 -3.4011
  366MOL0     H49357   4.121   4.382  -0.903 -2.0080  3.3965  1.4743
  366MOL0     H49358   4.257   4.481  -0.854 -0.5889  1.7442  2.4377
  366MOL0     H49359   4.272   4.213  -0.874  1.0656  0.6993 -1.2083
  366MOL0     H49360   4.240   4.227  -0.698 -3.3937  1.1917 -0.8557
  366MOL0     H49361   4.481   4.312  -0.981  0.8607  0.1525 -0.4181
  366MOL0     H49362   4.788   4.484  -0.837  0.0346  1.4745 -1.7383
  366MOL0     H49363   4.831   4.314  -0.876 -1.1931 -0.1455 -0.7350
  366MOL0     H49364   4.673   4.342  -1.078 -0.2570  0.2583 -0.0312
  366MOL0     H49365   4.831   4.412  -1.099 -0.3337 -1.4533 -0.8305
  366MOL0     H49366   4.740   4.642  -1.036 -0.3172  1.1330  1.1651
  366MOL0     H49367   4.575   4.563  -1.026 -0.4075 -1.8620 -0.1448
  366MOL0     H49368   4.621   4.680  -1.233  0.3543 -0.0608  1.1360
  366MOL0     H49369   4.571   4.508  -1.253  2.8409 -1.5542 -2.9016
  366MOL0     H49370   4.944   4.461  -1.413 -1.5360 -0.5450  1.7911
  366MOL0     H49371   5.096   4.557  -1.720  3.7233 -3.1342 -1.0233
  366MOL0     H49372   5.100   4.446  -1.589  1.9705 -2.5390 -0.7831
  366MOL0     H49373   5.016   4.399  -1.742  0.0040 -0.2472  0.5292
  366MOL0     H49374   4.640   4.440  -2.146 -0.2964  0.4940  0.9559
  366MOL0     H49375   4.672   4.513  -2.379 -1.3503  0.7543 -0.1396
  366MOL0     H49376   4.765   4.595  -2.598 -0.9231 -0.4580 -2.6145
  366MOL0     H49377   4.603   4.625  -2.564  0.6719 -0.6877  0.0493
  366MOL0     H49378   4.601   4.832  -2.705 -0.2297  0.4210  3.7681
  366MOL0     H49379   4.782   4.828  -2.707  0.9317 -2.3336 -1.9303
  366MOL0     H49380   4.621   4.619  -2.842  1.1713 -0.1341  1.5092
  366MOL0     H49381   4.791   4.635  -2.854 -1.8631 -2.6875 -2.6063
  366MOL0     H49382   4.584   4.844  -2.937  1.5347 -0.6418  1.1017
  366MOL0     H49383   4.757   4.858  -2.927 -1.3439  1.7668 -1.0597
  366MOL0     H49384   4.674   4.810  -3.169 -0.5696 -0.2634 -0.1348
  366MOL0     H49385   4.570   4.684  -3.107 -1.0049 -0.1267 -1.9404
  366MOL0     H49386   4.769   4.552  -3.060  0.3443 -2.7353 -2.0631
  366MOL0     H49387   4.760   4.591  -3.241 -0.9229 -1.2951  0.0752
  366MOL0     H49388   5.013   4.622  -3.100  0.1664  0.9228  1.5529
  366MOL0     H49389   4.927   4.776  -3.079  3.2387  0.5957  0.4801
  366MOL0     H49390   4.927   4.829  -3.291  0.2748  1.2544  4.7771
  366MOL0     H49391   4.967   4.664  -3.354 -0.3412 -0.8004  1.1605
  366MOL0     H49392   4.782   4.906  -2.239 -1.0549  0.8082  0.1849
  366MOL0     H49393   4.792   4.836  -2.037  0.0799 -2.7948  2.0163
  366MOL0     H49394   4.624   4.695  -1.693 -1.4117 -2.3095 -0.8654
  366MOL0     H49395   4.586   4.675  -1.470  1.4292  2.3566  0.0734
  366MOL0     H49396   3.999   4.974   0.011  0.3908  0.3366  1.6509
  366MOL0     H49397   4.137   5.167   0.114 -0.7677 -0.4500 -2.2729
  366MOL0     H49398   4.532   5.394   0.104 -1.1664  0.1695  1.1292
  366MOL0     H49399   4.695   5.563   0.199  0.8030 -1.2228 -5.0793
  366MOL0     H49400   4.918   5.646   0.261  1.4140  0.6605  0.0064
  366MOL0     H49401   4.785   5.679   0.376  1.1473  3.1879  0.0688
  366MOL0     H49402   4.944   5.717   0.560  1.6724  1.5709  1.1222
  366MOL0     H49403   4.989   5.819   0.418  1.2128 -0.5458 -2.5929
  366MOL0     H49404   5.169   5.669   0.357 -2.3116 -3.0115 -0.4127
  366MOL0     H49405   5.133   5.565   0.486  0.7896  1.2242  3.6960
  366MOL0     H49406   5.189   5.761   0.662 -0.2500  3.5326 -1.2088
  366MOL0     H49407   5.207   5.854   0.520  0.2464 -0.7360 -2.2414
  366MOL0     H49408   5.512   5.557   0.459 -2.8474 -0.6482  0.1160
  366MOL0     H49409   4.831   5.274   0.470  1.1390  1.4562 -0.0852
  366MOL0     H49410   4.696   5.088   0.342 -1.6932  0.9577  1.9670
  367MOL0     O49411   4.261   4.159   2.092 -0.3532 -0.3433 -0.0984
  367MOL0     C49412   4.336   4.164   1.992 -0.6609  0.9270 -0.6186
  367MOL0     O49413   4.433   4.073   1.957 -0.8750 -0.6087  0.9573
  367MOL0     C49414   4.476   3.977   2.040  0.5063  0.2968 -0.3531
  367MOL0     C49415   4.516   4.010   2.172 -0.0176 -0.7878  0.1610
  367MOL0     C49416   4.591   3.919   2.236 -0.3616  0.1594 -0.8143
  367MOL0     C49417   4.619   3.789   2.195 -0.2899  0.3983  1.6961
  367MOL0     O49418   4.675   3.700   2.281  0.1756  0.0002 -1.0245
  367MOL0     C49419   4.720   3.569   2.231 -0.2113  0.0892 -0.2206
  367MOL0     C49420   4.719   3.485   2.358 -0.2653 -0.4119 -0.0297
  367MOL0     C49421   4.750   3.332   2.329 -0.3601  0.0454 -0.0333
  367MOL0     C49422   4.739   3.237   2.447 -0.0708  0.3390 -0.2233
  367MOL0     C49423   4.793   3.101   2.414  0.7706 -0.4031  0.5941
  367MOL0     C49424   4.941   3.102   2.393 -0.6152 -0.4933 -0.4721
  367MOL0     C49425   4.985   2.958   2.374  0.2762  0.0445  0.6818
  367MOL0     C49426   4.921   2.888   2.249  0.6540 -0.2456  0.7178
  367MOL0     N49427   4.945   2.960   2.126  0.5837  0.4977  0.3903
  367MOL0     C49428   5.066   2.963   2.055  0.4570  0.1411 -0.1144
  367MOL0     C49429   5.045   3.043   1.947  0.3995  0.3631  0.6182
  367MOL0     C49430   5.139   3.087   1.833 -0.1732  0.0965  0.1121
  367MOL0     C49431   5.086   3.133   1.697 -0.1209  0.6095  0.7268
  367MOL0     C49432   5.011   3.267   1.709 -0.5729  0.1689  0.6847
  367MOL0     C49433   4.987   3.307   1.565  0.1048 -0.2960  0.5082
  367MOL0     O49434   5.113   3.339   1.492 -0.0542  0.3146  0.7529
  367MOL0     C49435   5.104   3.379   1.361 -0.2166 -0.0095 -0.5193
  367MOL0     C49436   5.232   3.400   1.304  0.0022  0.1289  0.1051
  367MOL0     C49437   5.244   3.466   1.176 -0.1991 -0.7513  0.1834
  367MOL0     C49438   5.383   3.510   1.135  0.1720  0.4171  0.2186
  367MOL0     C49439   5.130   3.503   1.102 -0.1606 -0.6908 -0.4661
  367MOL0     C49440   5.143   3.566   0.968  0.3848 -0.3081  0.2989
  367MOL0     O49441   5.039   3.651   0.934  0.1789  0.6647  0.5414
  367MOL0     C49442   5.060   3.734   0.828 -0.0819  0.2899  0.0581
  367MOL0     C49443   5.183   3.811   0.820 -0.1749 -1.1016 -0.0423
  367MOL0     C49444   5.199   3.899   0.711  0.9503 -0.4204 -0.4574
  367MOL0     C49445   5.095   3.932   0.626 -1.2069  0.1086 -0.3684
  367MOL0     O49446   5.115   4.020   0.525  0.4944  0.2901 -0.0105
  367MOL0     C49447   5.224   4.109   0.532 -0.2284 -0.1598  0.2607
  367MOL0     C49448   5.216   4.169   0.395 -0.5473  0.2420  0.3058
  367MOL0     C49449   5.344   4.254   0.372  0.0722  0.4202  0.4200
  367MOL0     C49450   5.356   4.382   0.475  0.5666  1.0101  0.4974
  367MOL0     C49451   5.414   4.512   0.409  0.1081 -0.1620  0.2676
  367MOL0     C49452   5.470   4.618   0.512  0.6898  0.6846 -0.0517
  367MOL0     C49453   5.453   4.764   0.451 -0.1170  0.3176 -0.3567
  367MOL0     C49454   5.493   4.856   0.561  0.3549  0.2629 -0.0196
  367MOL0    Cl49455   5.643   4.822   0.657  0.2036 -0.1275 -0.2674
  367MOL0     C49456   4.982   3.858   0.632  0.4494 -1.6942 -0.6084
  367MOL0     C49457   4.961   3.758   0.726 -0.2209 -0.1477  0.7272
  367MOL0     O49458   5.227   3.515   0.894  0.6742 -0.5298 -0.1427
  367MOL0     C49459   5.008   3.489   1.173  0.1803 -0.2769 -0.0211
  367MOL0     C49460   4.996   3.434   1.299  0.1366  0.4109  0.9827
  367MOL0     N49461   4.931   3.109   1.968 -0.0311 -0.1371  0.5452
  367MOL0     N49462   4.874   3.064   2.079 -0.2517  0.7997  0.6777
  367MOL0     C49463   4.566   3.754   2.066 -0.2729 -0.2058  0.1429
  367MOL0     C49464   4.494   3.846   1.997  0.5952 -0.0005 -0.3270
  367MOL0     C49465   4.349   4.288   1.918 -0.0401 -0.9408 -0.2692
  367MOL0     C49466   4.392   4.300   1.780 -0.0746  0.4240  1.2443
  367MOL0     C49467   4.403   4.426   1.721  0.3449 -0.6615  0.1391
  367MOL0     C49468   4.368   4.542   1.791 -0.9759 -0.3092  0.8185
  367MOL0     O49469   4.395   4.659   1.714 -0.4809  0.2327 -0.4092
  367MOL0     C49470   4.371   4.785   1.773 -0.1532 -1.4404 -1.1101
  367MOL0     C49471   4.432   4.894   1.685  0.2678 -0.8664 -0.5864
  367MOL0     C49472   4.393   5.030   1.750 -0.1469 -0.0240  0.1846
  367MOL0     C49473   4.414   5.146   1.650  0.2712  0.2026 -0.1254
  367MOL0     C49474   4.339   5.131   1.519 -0.4101  1.1480 -0.9834
  367MOL0     C49475   4.286   5.130   1.411 -0.2059 -0.1162  0.2096
  367MOL0     C49476   4.323   4.539   1.924 -0.2072  0.2350  0.0853
  367MOL0     C49477   4.307   4.412   1.991 -0.1012  0.1575  0.4769
  367MOL0     H49478   4.506   4.115   2.197 -1.5663 -0.1519 -2.7703
  367MOL0     H49479   4.644   3.947   2.326  0.6790  0.1302 -1.4082
  367MOL0     H49480   4.673   3.522   2.144  3.3784 -0.5176 -2.0635
  367MOL0     H49481   4.828   3.568   2.212 -0.2064 -0.8513 -0.1764
  367MOL0     H49482   4.780   3.527   2.439 -0.8274 -3.3776  2.0962
  367MOL0     H49483   4.620   3.491   2.404 -1.9171 -2.8131 -2.9508
  367MOL0     H49484   4.690   3.296   2.245 -1.6379  1.3516  0.2702
  367MOL0     H49485   4.858   3.326   2.309  0.3940  1.6583  2.8500
  367MOL0     H49486   4.793   3.271   2.537 -1.2668 -0.6969  0.9257
  367MOL0     H49487   4.636   3.227   2.483  0.2140 -0.4242  0.4013
  367MOL0     H49488   4.751   3.031   2.486 -5.4000  2.1783  0.1611
  367MOL0     H49489   4.731   3.082   2.326  1.6366 -0.5940  0.0135
  367MOL0     H49490   4.977   3.155   2.305  0.1611  1.2193  0.8297
  367MOL0     H49491   4.993   3.140   2.482 -2.0974 -1.1394  0.7266
  367MOL0     H49492   5.091   2.944   2.350  0.0171  0.0263 -0.5416
  367MOL0     H49493   4.965   2.890   2.457 -2.7227  0.3270  0.2940
  367MOL0     H49494   4.812   2.889   2.248  0.6256 -1.4801 -0.3748
  367MOL0     H49495   4.952   2.784   2.263 -0.5593 -0.7444 -0.1327
  367MOL0     H49496   5.149   2.896   2.074  1.3964  1.9171  2.6364
  367MOL0     H49497   5.198   3.166   1.879  2.4804 -0.6007 -1.8441
  367MOL0     H49498   5.207   3.002   1.827  1.6763  1.3834  1.6419
  367MOL0     H49499   5.033   3.052   1.646 -2.8290  3.8375 -2.1467
  367MOL0     H49500   5.182   3.161   1.653 -0.6753  1.9443  0.3046
  367MOL0     H49501   5.082   3.340   1.749 -1.4490  2.0086 -0.9718
  367MOL0     H49502   4.912   3.262   1.755 -1.4405 -0.9291 -1.2091
  367MOL0     H49503   4.926   3.397   1.581  1.1160  0.4501  0.2855
  367MOL0     H49504   4.929   3.231   1.512  2.0935 -3.2194  2.2396
  367MOL0     H49505   5.319   3.373   1.362 -0.2164 -0.9793 -0.0609
  367MOL0     H49506   5.442   3.498   1.226  2.3754  2.4363 -0.8436
  367MOL0     H49507   5.414   3.440   1.058 -0.0889 -2.6473  2.7119
  367MOL0     H49508   5.398   3.614   1.104 -1.7427 -0.2208 -3.4245
  367MOL0     H49509   5.269   3.802   0.886 -0.0124  1.4804  0.1946
  367MOL0     H49510   5.298   3.942   0.708  1.6492 -1.1886  3.9962
  367MOL0     H49511   5.210   4.188   0.606 -3.8918 -0.1158 -0.2867
  367MOL0     H49512   5.318   4.053   0.534 -1.2940 -1.9989  0.8960
  367MOL0     H49513   5.213   4.084   0.326 -1.9972 -0.5860  1.3160
  367MOL0     H49514   5.122   4.224   0.379 -0.3770  1.0300  1.8161
  367MOL0     H49515   5.353   4.304   0.275 -0.3034 -0.2112  0.0580
  367MOL0     H49516   5.439   4.200   0.378 -0.1275 -0.5731 -3.2902
  367MOL0     H49517   5.260   4.415   0.515 -1.1602 -1.2401 -1.4703
  367MOL0     H49518   5.427   4.354   0.553 -0.9147 -1.1853  1.1387
  367MOL0     H49519   5.344   4.557   0.339  1.4128  2.4126  0.5073
  367MOL0     H49520   5.504   4.476   0.357 -0.0953  0.1883 -0.3315
  367MOL0     H49521   5.403   4.613   0.598 -2.7331 -0.9031 -2.5734
  367MOL0     H49522   5.570   4.582   0.538  0.8366  0.3257 -1.0646
  367MOL0     H49523   5.352   4.789   0.418 -0.4671 -0.3979  0.1711
  367MOL0     H49524   5.525   4.766   0.368  0.0067 -0.5012 -0.2705
  367MOL0     H49525   5.411   4.857   0.633  1.5010 -1.3858  1.3782
  367MOL0     H49526   5.499   4.953   0.511 -1.0686 -0.2488 -1.2651
  367MOL0     H49527   4.912   3.884   0.553  1.2230 -2.0813 -1.4353
  367MOL0     H49528   4.875   3.692   0.724  0.4977 -1.1251  1.1502
  367MOL0     H49529   4.915   3.525   1.129 -0.1707 -2.5832 -1.3268
  367MOL0     H49530   4.905   3.451   1.356 -0.7050  1.8266 -0.6653
  367MOL0     H49531   4.589   3.655   2.028  3.2700 -1.0230  3.7032
  367MOL0     H49532   4.473   3.824   1.893  0.4315 -0.7470 -0.1424
  367MOL0     H49533   4.424   4.214   1.721  0.3467  0.6067  1.2069
  367MOL0     H49534   4.440   4.420   1.619 -0.6331 -1.7365 -0.1687
  367MOL0     H49535   4.263   4.802   1.777  0.1015  0.1052  1.5048
  367MOL0     H49536   4.424   4.779   1.869 -0.6800  1.9633 -0.4493
  367MOL0     H49537   4.385   4.874   1.588  1.1059 -1.4989 -0.8664
  367MOL0     H49538   4.541   4.892   1.683  0.5651  3.3311  1.4423
  367MOL0     H49539   4.444   5.057   1.843  1.7508  2.7293 -1.5049
  367MOL0     H49540   4.284   5.031   1.763  0.0011  3.2728  2.3798
  367MOL0     H49541   4.519   5.159   1.621  0.2587 -1.5060 -1.0961
  367MOL0     H49542   4.376   5.234   1.701 -4.1534 -1.0373 -0.9272
  367MOL0     H49543   4.238   5.142   1.315  0.2450  1.1899  0.1246
  367MOL0     H49544   4.289   4.625   1.981 -1.3778  0.5033 -0.9789
  367MOL0     H49545   4.263   4.394   2.088  1.3757 -2.0845  0.7930
  368MOL0     O49546   1.285   7.838   4.169 -0.2353 -0.1752  0.0600
  368MOL0     C49547   1.277   7.904   4.065  0.2400 -0.3177 -0.0273
  368MOL0     O49548   1.161   7.906   3.982  0.6901 -0.0037 -0.1984
  368MOL0     C49549   1.061   7.823   4.019  0.0229 -0.1018 -0.7671
  368MOL0     C49550   0.929   7.871   4.019  1.1492  0.6548 -0.2278
  368MOL0     C49551   0.826   7.788   4.065  0.4991  0.0314  0.1655
  368MOL0     C49552   0.838   7.652   4.103 -0.6357 -0.6331 -0.4602
  368MOL0     O49553   0.734   7.573   4.133  0.1461  0.3315  0.4602
  368MOL0     C49554   0.613   7.645   4.173  0.6927  0.6223 -0.1910
  368MOL0     C49555   0.552   7.594   4.310 -0.0406  0.5395  0.2718
  368MOL0     C49556   0.523   7.442   4.308 -0.7479 -0.4915  0.7987
  368MOL0     C49557   0.472   7.399   4.447 -0.1373 -0.0043  0.2356
  368MOL0     C49558   0.478   7.251   4.462 -1.1867  0.0627 -0.9685
  368MOL0     C49559   0.442   7.208   4.601  0.7559  0.1659  1.0326
  368MOL0     C49560   0.406   7.050   4.599  0.4288  0.1935  0.4958
  368MOL0     C49561   0.343   7.011   4.740 -0.4668  0.1238  1.0794
  368MOL0     N49562   0.312   6.867   4.764 -0.9976 -0.3459  0.0815
  368MOL0     C49563   0.226   6.784   4.694 -0.6035  0.7790  0.2671
  368MOL0     C49564   0.222   6.672   4.775 -0.9557  0.4477  0.4360
  368MOL0     C49565   0.129   6.554   4.762  0.1558 -0.7665 -0.2933
  368MOL0     C49566   0.191   6.472   4.642  0.8013 -1.2750 -0.2886
  368MOL0     C49567   0.142   6.333   4.619 -0.7880 -0.6877  0.4594
  368MOL0     C49568  -0.008   6.320   4.617  0.3757  0.2676 -0.5409
  368MOL0     O49569  -0.099   6.396   4.534 -0.4110  0.3390 -0.5987
  368MOL0     C49570  -0.231   6.402   4.575  0.0278 -0.1312 -0.8045
  368MOL0     C49571  -0.322   6.407   4.473  0.9807 -0.1832 -0.6495
  368MOL0     C49572  -0.465   6.409   4.479 -0.1382 -0.6311 -0.5262
  368MOL0     C49573  -0.535   6.399   4.347  0.8339 -0.2550 -1.4371
  368MOL0     C49574  -0.521   6.414   4.611 -0.8648 -0.5437  0.4123
  368MOL0     C49575  -0.663   6.425   4.637  0.0042 -0.1313  0.5215
  368MOL0     O49576  -0.758   6.394   4.547  0.8881  0.1074  0.0702
  368MOL0     C49577  -0.893   6.417   4.575  0.3717 -0.0557  0.5221
  368MOL0     C49578  -0.976   6.343   4.666  0.1103 -0.5451  1.2306
  368MOL0     C49579  -1.105   6.380   4.689  0.8859  0.5416 -1.0823
  368MOL0     C49580  -1.164   6.494   4.629 -0.5657 -0.9325  1.1143
  368MOL0     O49581  -1.287   6.543   4.650  0.2987  0.5983  0.1737
  368MOL0     C49582  -1.373   6.462   4.737  0.9384 -0.3210  0.0105
  368MOL0     C49583  -1.496   6.542   4.773 -0.0089 -0.0241 -0.4651
  368MOL0     C49584  -1.607   6.510   4.674 -0.0739  0.1407  0.4019
  368MOL0     C49585  -1.737   6.566   4.740 -0.0054  0.7266 -0.5180
  368MOL0     C49586  -1.853   6.553   4.638 -0.1672 -1.0947 -0.7543
  368MOL0     C49587  -1.971   6.635   4.694 -0.0281  0.1242  0.3702
  368MOL0     C49588  -2.100   6.607   4.616 -0.2022 -0.1271 -1.3625
  368MOL0     C49589  -2.076   6.642   4.465 -0.1478  0.4549  0.2386
  368MOL0    Cl49590  -2.030   6.502   4.364  0.0127  0.0065  0.3527
  368MOL0     C49591  -1.089   6.558   4.533  0.6736  0.2546  0.2987
  368MOL0     C49592  -0.952   6.526   4.507 -1.1133  0.4588  0.2423
  368MOL0     O49593  -0.686   6.448   4.755  0.5563  0.0539  0.4024
  368MOL0     C49594  -0.428   6.400   4.713  0.3255 -1.1856 -0.4039
  368MOL0     C49595  -0.286   6.397   4.699 -0.2895 -0.0391 -0.1818
  368MOL0     N49596   0.303   6.692   4.889 -1.0575  0.2954  0.7409
  368MOL0     N49597   0.359   6.800   4.883  0.0920 -0.5001  0.6723
  368MOL0     C49598   0.971   7.599   4.096  0.1603 -0.4480 -0.0755
  368MOL0     C49599   1.081   7.686   4.051  0.4136  0.6993  0.9372
  368MOL0     C49600   1.398   7.985   4.023 -0.1153 -0.6133 -0.9830
  368MOL0     C49601   1.532   7.974   4.081 -0.2215  0.5928  0.6075
  368MOL0     C49602   1.635   8.064   4.053  0.1080  0.3581  0.2291
  368MOL0     C49603   1.606   8.178   3.977  0.5143 -0.1378 -0.8719
  368MOL0     O49604   1.712   8.271   3.963 -0.6053  0.0483  0.4863
  368MOL0     C49605   1.706   8.390   3.876 -1.0139 -0.6406  0.2305
  368MOL0     C49606   1.617   8.512   3.918 -0.2165 -0.4416  0.0657
  368MOL0     C49607   1.619   8.533   4.065  0.4167 -0.7714  0.0572
  368MOL0     C49608   1.530   8.647   4.108  0.4496 -0.9333 -0.1901
  368MOL0     C49609   1.582   8.767   4.035 -0.4485 -0.2771  0.1378
  368MOL0     C49610   1.623   8.855   3.966 -0.3134  0.0699 -0.3059
  368MOL0     C49611   1.481   8.196   3.928  0.0141  0.1561  1.5507
  368MOL0     C49612   1.379   8.110   3.960 -0.4080 -0.3659  0.1115
  368MOL0     H49613   0.906   7.972   3.988 -0.5557  0.9108  1.6533
  368MOL0     H49614   0.731   7.839   4.056  0.4369 -0.0938  0.1080
  368MOL0     H49615   0.629   7.749   4.203  3.4757  0.5438 -1.1889
  368MOL0     H49616   0.540   7.645   4.091 -2.3829  1.5858  2.3340
  368MOL0     H49617   0.632   7.622   4.379  2.0747  3.8735 -3.1148
  368MOL0     H49618   0.463   7.652   4.334 -0.1512  1.1702 -1.4985
  368MOL0     H49619   0.458   7.414   4.224 -2.8083  3.8713  0.6829
  368MOL0     H49620   0.615   7.386   4.290 -1.4046 -1.2055 -0.4955
  368MOL0     H49621   0.538   7.445   4.520 -2.0272 -0.9611  2.6933
  368MOL0     H49622   0.375   7.448   4.463  0.1935  0.2731  1.4535
  368MOL0     H49623   0.415   7.206   4.385  0.9407 -1.9120 -1.6964
  368MOL0     H49624   0.582   7.222   4.440 -1.0543  1.3050 -2.0452
  368MOL0     H49625   0.516   7.227   4.679  0.4139  2.3273  0.8944
  368MOL0     H49626   0.349   7.262   4.620 -1.2686 -1.7202 -2.4255
  368MOL0     H49627   0.339   7.024   4.517  0.3160 -0.8448  0.9007
  368MOL0     H49628   0.497   6.990   4.598  0.8831  0.8162  1.8908
  368MOL0     H49629   0.242   7.050   4.726 -0.3167 -0.1374 -1.1077
  368MOL0     H49630   0.398   7.064   4.818 -2.6708  2.2080  1.3308
  368MOL0     H49631   0.163   6.826   4.616  2.7335  3.0722 -1.4299
  368MOL0     H49632   0.123   6.505   4.859 -1.3287 -1.4839 -0.7200
  368MOL0     H49633   0.027   6.591   4.748  0.6682  1.0135  0.3466
  368MOL0     H49634   0.300   6.473   4.641  0.9810 -0.5055  3.7194
  368MOL0     H49635   0.171   6.539   4.558  0.0053  1.7742  2.1396
  368MOL0     H49636   0.183   6.279   4.704  0.1601  0.5055  0.7850
  368MOL0     H49637   0.181   6.299   4.522 -0.1005  0.0299  0.4740
  368MOL0     H49638  -0.030   6.337   4.723 -2.4944 -1.4936 -0.7459
  368MOL0     H49639  -0.029   6.214   4.600  0.8044  0.2889 -1.2229
  368MOL0     H49640  -0.288   6.396   4.370  0.6504  4.2115 -1.4446
  368MOL0     H49641  -0.627   6.458   4.349  1.5846  1.3366  4.3324
  368MOL0     H49642  -0.480   6.436   4.260  0.3808 -1.3935 -2.2402
  368MOL0     H49643  -0.558   6.294   4.327 -0.0132 -0.4296  0.3015
  368MOL0     H49644  -0.930   6.256   4.711  0.8434 -2.0627 -2.0942
  368MOL0     H49645  -1.160   6.311   4.752  3.2558 -0.8075 -0.3612
  368MOL0     H49646  -1.399   6.365   4.693 -1.5980  1.5163 -2.9390
  368MOL0     H49647  -1.317   6.455   4.831  1.5176 -0.8662 -0.3606
  368MOL0     H49648  -1.537   6.504   4.867  1.7914 -1.6540 -0.2897
  368MOL0     H49649  -1.473   6.647   4.791  0.0303 -0.2098  0.6350
  368MOL0     H49650  -1.620   6.406   4.643  1.9342  0.5049 -2.0190
  368MOL0     H49651  -1.596   6.569   4.582 -2.0707  2.2091  1.3832
  368MOL0     H49652  -1.768   6.498   4.820  1.9473 -3.0393 -2.6545
  368MOL0     H49653  -1.722   6.670   4.772 -0.5047  0.8879 -0.7983
  368MOL0     H49654  -1.879   6.448   4.620 -0.1348 -1.1727 -0.3453
  368MOL0     H49655  -1.817   6.594   4.543 -1.3085 -1.4900 -1.3812
  368MOL0     H49656  -1.985   6.618   4.801 -1.8835  0.0968  0.1665
  368MOL0     H49657  -1.943   6.740   4.681 -1.5319  0.6269  0.9502
  368MOL0     H49658  -2.182   6.667   4.656  0.3548  2.6172 -3.9790
  368MOL0     H49659  -2.129   6.502   4.625  0.7887 -0.4886 -2.1877
  368MOL0     H49660  -1.998   6.718   4.462 -1.1949  1.5567  0.3340
  368MOL0     H49661  -2.170   6.675   4.419  0.6878  1.8932 -0.5115
  368MOL0     H49662  -1.135   6.651   4.500  1.1816  0.7307  0.9075
  368MOL0     H49663  -0.895   6.588   4.439 -2.7491  1.6568 -0.0982
  368MOL0     H49664  -0.462   6.398   4.816  0.2153  2.2735 -0.2508
  368MOL0     H49665  -0.229   6.387   4.791 -0.2323 -0.4400 -0.2584
  368MOL0     H49666   0.979   7.498   4.133 -1.3619 -0.8537 -0.7448
  368MOL0     H49667   1.184   7.651   4.049  2.3565  5.5898  0.0646
  368MOL0     H49668   1.559   7.897   4.152  1.6032  1.9574  1.4325
  368MOL0     H49669   1.733   8.040   4.092  0.9222  1.9936 -0.7367
  368MOL0     H49670   1.813   8.414   3.872 -1.2263  0.3074 -0.0495
  368MOL0     H49671   1.668   8.373   3.775  0.2698  0.9137 -0.5529
  368MOL0     H49672   1.513   8.496   3.887  0.0044 -1.3306 -0.2573
  368MOL0     H49673   1.658   8.593   3.857  1.1091 -0.0009  1.4898
  368MOL0     H49674   1.724   8.548   4.093 -0.4310  2.9509  1.9026
  368MOL0     H49675   1.575   8.439   4.102 -3.4652  1.1915  0.8882
  368MOL0     H49676   1.534   8.652   4.217 -0.0842  0.5581 -0.2184
  368MOL0     H49677   1.427   8.625   4.078 -2.0686  3.8868  3.5017
  368MOL0     H49678   1.665   8.933   3.908  1.3618 -0.3563  0.2806
  368MOL0     H49679   1.457   8.283   3.868 -1.3745 -0.5378  1.0625
  368MOL0     H49680   1.286   8.157   3.927  2.3628  2.8396 -4.1452
  369MOL0     O49681   3.279   9.122   1.657 -0.3603 -0.1697  0.0861
  369MOL0     C49682   3.186   9.090   1.730  0.3717 -0.4458 -1.5610
  369MOL0     O49683   3.077   9.168   1.757  0.6975  0.2669 -0.0860
  369MOL0     C49684   3.073   9.290   1.697  0.5934  0.0699 -0.9391
  369MOL0     C49685   3.062   9.400   1.783  0.2699  0.4300 -0.1811
  369MOL0     C49686   3.067   9.525   1.725 -0.1187 -1.4500 -1.5219
  369MOL0     C49687   3.085   9.541   1.590 -0.3101  0.5718  0.0701
  369MOL0     O49688   3.094   9.661   1.534 -0.0314  0.5348  0.1933
  369MOL0     C49689   2.962   9.716   1.499 -0.5620 -0.4149 -0.7414
  369MOL0     C49690   2.939   9.836   1.583 -0.0948 -0.6664 -0.7793
  369MOL0     C49691   2.790   9.891   1.589  0.0809 -0.5423 -0.6211
  369MOL0     C49692   2.785  10.002   1.487 -0.1194 -0.0978  0.2056
  369MOL0     C49693   2.648  10.050   1.452  1.3713 -0.1282 -0.6679
  369MOL0     C49694   2.529   9.946   1.455 -0.1710 -0.2118  0.1071
  369MOL0     C49695   2.399  10.017   1.400 -0.1805 -0.4407 -0.0869
  369MOL0     C49696   2.280   9.911   1.379 -0.0086  0.4775 -0.2175
  369MOL0     N49697   2.152   9.977   1.362  0.3752 -0.7369 -0.0236
  369MOL0     C49698   2.114  10.109   1.365 -0.0552  0.0709 -0.6220
  369MOL0     C49699   1.977  10.104   1.354 -0.4747 -0.8621  0.4849
  369MOL0     C49700   1.875  10.220   1.371  0.0770  0.3902 -0.3238
  369MOL0     C49701   1.839  10.296   1.244  0.0551 -0.0504 -0.6276
  369MOL0     C49702   1.792  10.439   1.265 -0.4792  0.2532 -0.4695
  369MOL0     C49703   1.697  10.492   1.156  0.1403 -0.6768 -1.8053
  369MOL0     O49704   1.773  10.529   1.040  0.4643 -0.5694  0.0513
  369MOL0     C49705   1.696  10.553   0.927  0.8254  0.7359 -1.1901
  369MOL0     C49706   1.753  10.499   0.815  0.5683  0.4279  0.6269
  369MOL0     C49707   1.685  10.496   0.694  0.4769 -0.3473  0.4881
  369MOL0     C49708   1.772  10.459   0.579  0.1487 -0.0411 -0.1107
  369MOL0     C49709   1.568  10.572   0.684  0.4529 -0.1696  0.0716
  369MOL0     C49710   1.505  10.606   0.550 -1.2907  0.6499 -0.3122
  369MOL0     O49711   1.600  10.636   0.447 -1.0776 -0.2305 -0.9270
  369MOL0     C49712   1.552  10.664   0.330 -0.4801 -0.7626  0.5882
  369MOL0     C49713   1.555  10.581   0.212  0.0045 -0.0818  0.0581
  369MOL0     C49714   1.514  10.624   0.089 -0.3310 -0.6056  0.5781
  369MOL0     C49715   1.496  10.764   0.065 -0.4352 -0.3234  0.0008
  369MOL0     O49716   1.472  10.815  -0.055  0.7438 -0.4657  0.4122
  369MOL0     C49717   1.358  10.751  -0.121 -0.0470 -0.0065  0.7147
  369MOL0     C49718   1.314  10.838  -0.241  0.3822  0.7520  0.5565
  369MOL0     C49719   1.222  10.954  -0.208  0.4049 -0.1484 -0.2045
  369MOL0     C49720   1.125  11.001  -0.323 -0.5138  0.7404  0.7552
  369MOL0     C49721   1.204  11.034  -0.460  0.0651  0.7912 -0.4636
  369MOL0     C49722   1.248  11.176  -0.454 -0.2813 -0.7915 -0.1748
  369MOL0     C49723   1.353  11.216  -0.569 -0.3192  0.4219  0.1761
  369MOL0     C49724   1.422  11.347  -0.528  1.9160  0.2070  0.6501
  369MOL0    Cl49725   1.302  11.484  -0.519  0.3292  0.0457 -0.2582
  369MOL0     C49726   1.501  10.851   0.177 -0.1602  0.9141  0.5772
  369MOL0     C49727   1.531  10.805   0.301 -1.1484 -0.6560  0.3249
  369MOL0     O49728   1.386  10.625   0.542  0.1156 -0.5546  0.1963
  369MOL0     C49729   1.512  10.627   0.801  0.1902  0.4889 -0.2292
  369MOL0     C49730   1.571  10.620   0.926  0.6066  1.0849  0.2562
  369MOL0     N49731   1.938   9.968   1.339  0.0392 -0.1059  0.0454
  369MOL0     N49732   2.041   9.898   1.341 -1.0767  0.3639  1.1812
  369MOL0     C49733   3.091   9.424   1.511  1.0042 -0.4629 -0.4509
  369MOL0     C49734   3.077   9.294   1.560  0.0105  0.0978  0.5673
  369MOL0     C49735   3.206   8.976   1.821  0.4191  0.8945  0.2937
  369MOL0     C49736   3.291   8.861   1.786  1.2329  0.1962 -0.6459
  369MOL0     C49737   3.312   8.760   1.882 -0.0509 -1.0761 -0.2509
  369MOL0     C49738   3.282   8.777   2.019  1.0550  0.8399 -0.0976
  369MOL0     O49739   3.326   8.681   2.109  1.0652 -0.2181 -0.8007
  369MOL0     C49740   3.260   8.676   2.238 -0.1882  0.0663  0.9492
  369MOL0     C49741   3.319   8.561   2.326  0.0783  0.1816 -0.0016
  369MOL0     C49742   3.290   8.433   2.259 -1.0603  0.5515  0.2048
  369MOL0     C49743   3.332   8.325   2.351  0.3292 -0.1200  0.0599
  369MOL0     C49744   3.331   8.200   2.271  0.5899  1.3769 -0.0297
  369MOL0     C49745   3.319   8.096   2.208  0.1327  0.5373 -0.2274
  369MOL0     C49746   3.194   8.881   2.051 -1.0788 -0.4266  1.1591
  369MOL0     C49747   3.167   8.987   1.954  0.4403 -0.3012  0.2219
  369MOL0     H49748   3.043   9.386   1.889 -0.8714 -0.5402 -0.4968
  369MOL0     H49749   3.074   9.615   1.785 -1.2996 -1.7473 -0.9097
  369MOL0     H49750   2.952   9.742   1.393 -2.1788  0.3826 -0.4338
  369MOL0     H49751   2.892   9.638   1.532  0.8858 -0.6969  1.9198
  369MOL0     H49752   2.965   9.808   1.685  1.3104  0.0970 -0.9040
  369MOL0     H49753   3.005   9.917   1.550  1.2753 -0.6527  1.7473
  369MOL0     H49754   2.715   9.815   1.565  0.8434 -0.7294 -2.6153
  369MOL0     H49755   2.765   9.921   1.691 -0.2540 -0.8339 -0.6164
  369MOL0     H49756   2.849  10.082   1.524  2.0066 -1.6237 -0.0108
  369MOL0     H49757   2.837   9.972   1.396 -0.2682 -2.5943  0.8766
  369MOL0     H49758   2.624  10.137   1.514 -2.2351 -1.2451 -0.2734
  369MOL0     H49759   2.648  10.101   1.355  3.8321 -1.8245 -1.6501
  369MOL0     H49760   2.545   9.863   1.386  0.0773  0.0062 -0.0986
  369MOL0     H49761   2.522   9.903   1.556 -0.4365 -2.0503 -0.6625
  369MOL0     H49762   2.361  10.096   1.466  0.4453 -0.9253  0.8845
  369MOL0     H49763   2.419  10.077   1.311 -2.2114 -0.8886 -0.8985
  369MOL0     H49764   2.274   9.837   1.460  4.7492 -2.1958 -1.9289
  369MOL0     H49765   2.302   9.839   1.300 -3.0927 -2.3289  1.2232
  369MOL0     H49766   2.170  10.199   1.391 -0.0870  0.1936 -0.9724
  369MOL0     H49767   1.790  10.174   1.423 -0.7491  1.9666 -0.2001
  369MOL0     H49768   1.913  10.289   1.448 -0.5741  0.7419 -0.3034
  369MOL0     H49769   1.775  10.249   1.169  1.7654  0.9131 -2.7946
  369MOL0     H49770   1.924  10.313   1.178 -0.1568 -1.0729 -1.1791
  369MOL0     H49771   1.880  10.503   1.278  1.0086 -2.0055  1.3268
  369MOL0     H49772   1.722  10.440   1.349 -3.2593 -1.7830 -2.5633
  369MOL0     H49773   1.651  10.586   1.189  2.9874  0.8559 -1.8754
  369MOL0     H49774   1.614  10.423   1.144  0.5190 -1.6863  0.8143
  369MOL0     H49775   1.854  10.459   0.807 -0.1050 -1.6345  1.6570
  369MOL0     H49776   1.709  10.418   0.499 -1.7965 -0.4976  1.5485
  369MOL0     H49777   1.825  10.547   0.544  3.1263  0.1954  4.2697
  369MOL0     H49778   1.835  10.382   0.624  1.4166  2.0666  1.9390
  369MOL0     H49779   1.585  10.479   0.233  1.8108  0.5804  0.9077
  369MOL0     H49780   1.505  10.546   0.014  2.5310 -2.0543  1.5632
  369MOL0     H49781   1.397  10.658  -0.164  3.3528  1.5148  0.1362
  369MOL0     H49782   1.280  10.737  -0.046  0.8026 -1.0390  1.4355
  369MOL0     H49783   1.407  10.876  -0.284  1.3535 -1.8896  0.1393
  369MOL0     H49784   1.263  10.784  -0.321  1.8176  0.7885 -0.4225
  369MOL0     H49785   1.289  11.040  -0.196 -2.0190  2.2011 -2.3289
  369MOL0     H49786   1.166  10.937  -0.116 -0.2933  0.9085 -0.4142
  369MOL0     H49787   1.057  10.917  -0.339  0.0490  0.3175  0.5785
  369MOL0     H49788   1.068  11.092  -0.298  1.0001  2.1755 -0.7854
  369MOL0     H49789   1.151  11.008  -0.552 -1.3756 -0.6072  0.6979
  369MOL0     H49790   1.289  10.965  -0.464 -0.7835 -0.3297  0.3532
  369MOL0     H49791   1.158  11.239  -0.454 -1.0429 -1.8499  0.6975
  369MOL0     H49792   1.301  11.187  -0.359 -0.2532  0.5393 -0.3187
  369MOL0     H49793   1.313  11.213  -0.671  0.9394 -3.5286 -0.3783
  369MOL0     H49794   1.428  11.136  -0.571  1.0968  1.6860 -2.4209
  369MOL0     H49795   1.501  11.370  -0.600  0.8376  1.2784 -0.2095
  369MOL0     H49796   1.473  11.351  -0.431  2.4314 -0.0787  0.3985
  369MOL0     H49797   1.492  10.960   0.179 -0.8208  0.8469  2.2381
  369MOL0     H49798   1.533  10.885   0.374  2.5837  2.7399 -2.9703
  369MOL0     H49799   1.424  10.686   0.782  1.0502  1.3518 -1.6865
  369MOL0     H49800   1.516  10.649   1.015  1.5516 -0.4487  1.3699
  369MOL0     H49801   3.113   9.421   1.405  1.2549 -1.7604 -0.3842
  369MOL0     H49802   3.086   9.207   1.495 -1.4445 -0.4938  1.1098
  369MOL0     H49803   3.334   8.835   1.690  0.7002 -4.6625  0.1830
  369MOL0     H49804   3.367   8.673   1.851  2.6825  1.0784 -1.9062
  369MOL0     H49805   3.274   8.772   2.289  2.8546 -0.7346  1.8669
  369MOL0     H49806   3.152   8.659   2.241 -0.0901 -0.8570  4.6117
  369MOL0     H49807   3.275   8.563   2.426  0.6827  2.4478  0.2636
  369MOL0     H49808   3.427   8.573   2.334  0.1814 -1.2241  1.1355
  369MOL0     H49809   3.353   8.441   2.170 -0.7367  2.0573  0.5381
  369MOL0     H49810   3.186   8.414   2.231 -1.2334 -1.5483  2.0033
  369MOL0     H49811   3.268   8.321   2.440 -0.9760 -0.1300 -0.8651
  369MOL0     H49812   3.435   8.335   2.388 -0.3431 -0.6653  2.2525
  369MOL0     H49813   3.324   8.016   2.138 -1.0372 -0.1057  0.3989
  369MOL0     H49814   3.161   8.885   2.154  2.2404  1.3329  2.3117
  369MOL0     H49815   3.104   9.063   1.998 -1.0264 -0.8693 -0.8031
  370MOL0     O49816   2.086   3.994  10.443 -0.2444  0.9012 -0.5374
  370MOL0     C49817   2.047   4.108  10.456 -0.3833 -0.5039 -0.3300
  370MOL0     O49818   2.021   4.171  10.573 -0.6523 -0.3441  0.4492
  370MOL0     C49819   2.048   4.107  10.688 -0.5648 -0.2302  0.2502
  370MOL0     C49820   2.188   4.088  10.720  0.3608 -0.4620 -0.7652
  370MOL0     C49821   2.208   4.009  10.836  0.0072 -0.7607  0.6399
  370MOL0     C49822   2.102   3.970  10.920 -0.1555  0.2639 -0.1202
  370MOL0     O49823   2.126   3.889  11.028  0.2603 -0.1517 -0.0695
  370MOL0     C49824   2.066   3.762  11.044  0.0777 -0.2119  0.6185
  370MOL0     C49825   2.189   3.663  11.039 -0.3920 -0.1589  0.1104
  370MOL0     C49826   2.287   3.676  11.165 -0.1672  0.3759  0.2086
  370MOL0     C49827   2.232   3.613  11.292  0.2596 -0.7019 -0.0237
  370MOL0     C49828   2.340   3.607  11.402 -0.6680  0.4956 -0.6561
  370MOL0     C49829   2.284   3.580  11.542  0.3989  0.4001  1.3817
  370MOL0     C49830   2.407   3.555  11.625 -0.0143  0.9880 -0.3721
  370MOL0     C49831   2.473   3.692  11.662 -0.1212 -0.2362 -1.0804
  370MOL0     N49832   2.549   3.672  11.784 -0.7966  0.2466  0.3263
  370MOL0     C49833   2.506   3.683  11.910 -0.0466  0.6748 -0.7267
  370MOL0     C49834   2.611   3.649  11.982  0.0582  0.1095 -0.1607
  370MOL0     C49835   2.622   3.641  12.138  0.0194 -0.3127 -1.1293
  370MOL0     C49836   2.496   3.603  12.201 -0.6849 -0.1905  0.4993
  370MOL0     C49837   2.512   3.593  12.358  0.0846  0.6365  0.5481
  370MOL0     C49838   2.396   3.515  12.427 -0.2622  0.0466 -1.7079
  370MOL0     O49839   2.404   3.520  12.568  0.0049  0.1371 -0.6336
  370MOL0     C49840   2.528   3.526  12.623 -1.0036 -0.0890  0.8516
  370MOL0     C49841   2.573   3.649  12.662 -0.7062 -0.8740 -0.2494
  370MOL0     C49842   2.697   3.661  12.731 -0.1525  0.1061  0.0628
  370MOL0     C49843   2.725   3.799  12.777 -0.4519 -0.8076  0.6279
  370MOL0     C49844   2.781   3.547  12.750  0.0382 -0.0229 -0.0856
  370MOL0     C49845   2.914   3.548  12.822 -0.2784 -0.0608 -0.5754
  370MOL0     O49846   3.002   3.458  12.778 -0.2773  0.6311  0.3954
  370MOL0     C49847   3.131   3.454  12.830 -0.3831 -0.3466 -0.5204
  370MOL0     C49848   3.183   3.328  12.867 -0.1889 -0.4293  0.5903
  370MOL0     C49849   3.309   3.313  12.923  0.3437 -0.2254  1.0590
  370MOL0     C49850   3.388   3.423  12.946 -0.2509 -0.5394 -0.4327
  370MOL0     O49851   3.517   3.396  13.000 -0.7824 -0.2286  0.2338
  370MOL0     C49852   3.624   3.479  12.964  0.0028  0.1740 -0.2773
  370MOL0     C49853   3.760   3.412  12.962 -0.4204  0.6908  0.2660
  370MOL0     C49854   3.877   3.474  12.877 -0.1433 -0.7324 -1.0784
  370MOL0     C49855   3.897   3.406  12.737 -0.0592 -0.2063 -0.2597
  370MOL0     C49856   4.007   3.469  12.653 -0.8454  0.7167 -0.0537
  370MOL0     C49857   4.017   3.381  12.526 -0.0878 -0.1934  0.2654
  370MOL0     C49858   4.151   3.420  12.448  0.3598 -0.6539 -0.3779
  370MOL0     C49859   4.154   3.370  12.303  0.0094  0.5296  0.2738
  370MOL0    Cl49860   4.286   3.462  12.208  0.0035  0.1411  0.2050
  370MOL0     C49861   3.340   3.552  12.905 -0.5544  0.2545 -0.6048
  370MOL0     C49862   3.209   3.568  12.850 -0.0053 -0.1641 -0.4596
  370MOL0     O49863   2.936   3.631  12.912  0.0095  0.0914  0.0896
  370MOL0     C49864   2.732   3.425  12.697  0.2475  0.1392 -0.0850
  370MOL0     C49865   2.602   3.411  12.638  0.8633  0.0974  0.1755
  370MOL0     N49866   2.715   3.617  11.903 -0.5142  0.3065  0.0234
  370MOL0     N49867   2.685   3.649  11.783  0.5112 -0.0844 -0.1202
  370MOL0     C49868   1.973   4.011  10.898  0.3532 -0.0217  0.8685
  370MOL0     C49869   1.947   4.071  10.771  0.0601 -0.3286 -0.0544
  370MOL0     C49870   2.037   4.185  10.335 -1.2326  0.0654 -0.3747
  370MOL0     C49871   2.010   4.315  10.333 -0.2871 -0.0413 -0.3133
  370MOL0     C49872   1.972   4.385  10.213 -0.2031 -0.5630  0.5839
  370MOL0     C49873   1.973   4.322  10.089  0.9084  0.8974  0.5259
  370MOL0     O49874   1.928   4.379   9.972  0.1379  0.0053 -0.3279
  370MOL0     C49875   1.902   4.516   9.964 -0.4804 -0.4716 -0.1939
  370MOL0     C49876   2.027   4.604   9.976  0.2411  0.8132 -0.0970
  370MOL0     C49877   2.009   4.752   9.996  0.2684  0.4160  0.1216
  370MOL0     C49878   1.943   4.783  10.128 -0.7007  0.4514  0.0184
  370MOL0     C49879   2.039   4.781  10.246  0.6859 -0.0222  0.0882
  370MOL0     C49880   2.100   4.791  10.351 -0.5085 -0.0424  0.7814
  370MOL0     C49881   2.009   4.186  10.082  0.1782 -0.3662 -1.4758
  370MOL0     C49882   2.052   4.118  10.209  0.1337  0.0790 -0.4225
  370MOL0     H49883   2.267   4.107  10.648  0.7296 -2.5332 -0.9686
  370MOL0     H49884   2.310   3.974  10.850  0.5950 -0.2289 -1.8579
  370MOL0     H49885   2.017   3.761  11.141 -0.7657 -2.0857  0.2156
  370MOL0     H49886   1.999   3.743  10.959  2.4017 -2.1154 -0.9360
  370MOL0     H49887   2.157   3.559  11.029 -1.4867  0.3246 -2.0280
  370MOL0     H49888   2.234   3.676  10.941 -1.3201  0.2695 -0.2769
  370MOL0     H49889   2.382   3.631  11.135 -1.2883 -0.5621 -2.2803
  370MOL0     H49890   2.312   3.780  11.187 -0.0391  0.6065 -0.9490
  370MOL0     H49891   2.153   3.682  11.324  3.7349  3.7864 -0.2156
  370MOL0     H49892   2.205   3.507  11.281  3.0887 -1.2370 -4.2399
  370MOL0     H49893   2.410   3.535  11.359  0.5370  1.5713 -0.5666
  370MOL0     H49894   2.385   3.707  11.407  0.9935 -0.2724  0.2911
  370MOL0     H49895   2.226   3.664  11.582  0.5986 -0.6892  4.2675
  370MOL0     H49896   2.214   3.496  11.543 -0.5197  1.0328 -1.3029
  370MOL0     H49897   2.378   3.509  11.720  1.5659  1.2311  0.2532
  370MOL0     H49898   2.475   3.478  11.590  0.0639  0.9415 -0.1211
  370MOL0     H49899   2.404   3.776  11.671  1.4910  0.9737  0.7263
  370MOL0     H49900   2.545   3.714  11.582  1.0094  0.9901  0.2362
  370MOL0     H49901   2.405   3.699  11.944  0.7356 -0.0363  2.1894
  370MOL0     H49902   2.711   3.581  12.160 -0.4606 -0.1779  1.4925
  370MOL0     H49903   2.647   3.738  12.182  1.4235 -0.2451 -1.9911
  370MOL0     H49904   2.475   3.501  12.165  0.1139 -0.1912  0.0035
  370MOL0     H49905   2.415   3.674  12.182  0.8973  1.6054  0.2784
  370MOL0     H49906   2.529   3.696  12.388 -1.4461  0.7310  1.1878
  370MOL0     H49907   2.608   3.546  12.384  1.3728  0.6477 -3.4278
  370MOL0     H49908   2.403   3.411  12.393  0.3754 -0.9825  1.2667
  370MOL0     H49909   2.302   3.563  12.399 -0.0566  0.4807 -1.6633
  370MOL0     H49910   2.518   3.734  12.623  1.5944 -1.0599 -4.5152
  370MOL0     H49911   2.820   3.829  12.731 -1.2595 -1.6707 -1.7614
  370MOL0     H49912   2.646   3.867  12.745 -2.6844 -3.9841 -1.2150
  370MOL0     H49913   2.741   3.817  12.884 -0.9948  1.3349  0.3866
  370MOL0     H49914   3.121   3.239  12.856 -0.3928 -0.6639  3.0199
  370MOL0     H49915   3.346   3.212  12.937 -1.0510 -1.1327 -1.2060
  370MOL0     H49916   3.606   3.520  12.865  2.8807 -2.1074 -1.8919
  370MOL0     H49917   3.633   3.555  13.042  0.3485 -1.3213  1.2070
  370MOL0     H49918   3.804   3.387  13.059  6.1156 -0.2397 -2.4249
  370MOL0     H49919   3.755   3.307  12.931  1.5728  0.9797 -1.2574
  370MOL0     H49920   3.967   3.455  12.938  1.1403  4.3292 -0.9635
  370MOL0     H49921   3.848   3.579  12.874 -0.4843 -0.7103  1.0722
  370MOL0     H49922   3.918   3.299  12.744  0.2135 -0.2359 -1.4246
  370MOL0     H49923   3.797   3.400  12.692  0.2419 -0.7957 -0.8657
  370MOL0     H49924   4.105   3.467  12.702 -1.1760  2.9943  0.8150
  370MOL0     H49925   3.988   3.573  12.625 -2.9698  0.3735 -0.0591
  370MOL0     H49926   4.018   3.273  12.543 -2.1378 -0.5574 -1.6132
  370MOL0     H49927   3.935   3.394  12.455  0.9934  0.1295 -0.9457
  370MOL0     H49928   4.236   3.372  12.496  0.1183 -0.0777  0.6397
  370MOL0     H49929   4.165   3.528  12.460  1.1431 -0.5992 -1.6320
  370MOL0     H49930   4.057   3.370  12.251 -0.7986 -0.8559  1.6830
  370MOL0     H49931   4.195   3.271  12.324 -4.9809 -2.0804 -0.7322
  370MOL0     H49932   3.399   3.643  12.907 -2.1703  1.3708  2.1581
  370MOL0     H49933   3.175   3.665  12.816  0.0809  0.1454  0.3217
  370MOL0     H49934   2.802   3.342  12.702 -0.8127 -0.6861  1.3779
  370MOL0     H49935   2.581   3.310  12.607  1.1521  0.4819 -1.3516
  370MOL0     H49936   1.893   3.981  10.965  2.6392 -4.3296  2.0221
  370MOL0     H49937   1.846   4.097  10.740 -1.3143 -3.3026  1.4774
  370MOL0     H49938   1.987   4.375  10.421 -0.7707 -1.3978  0.5149
  370MOL0     H49939   1.940   4.488  10.216 -0.5224 -0.6144 -0.5938
  370MOL0     H49940   1.853   4.538   9.868  1.3522  0.6217 -0.9371
  370MOL0     H49941   1.833   4.545  10.044 -2.3197  3.0898 -2.7591
  370MOL0     H49942   2.080   4.594   9.881 -2.0322  1.3779 -1.5076
  370MOL0     H49943   2.093   4.568  10.055  3.1182  1.1603 -2.1980
  370MOL0     H49944   1.945   4.786   9.914 -0.2748 -1.2382 -0.1752
  370MOL0     H49945   2.102   4.810   9.994 -0.0525  0.9753  1.0260
  370MOL0     H49946   1.854   4.723  10.151  0.3586 -1.3296 -0.4060
  370MOL0     H49947   1.915   4.889  10.123  1.5956  1.0466 -1.3609
  370MOL0     H49948   2.165   4.808  10.434 -2.8220  0.4566  2.6023
  370MOL0     H49949   2.012   4.141   9.983  0.1564  1.7563 -2.4951
  370MOL0     H49950   2.088   4.016  10.206  2.2631  0.8009 -2.3810
  371MOL0     O49951   2.073   3.694   8.664  0.3684  0.0755 -0.4506
  371MOL0     C49952   2.028   3.578   8.668  0.5108  0.4560 -0.3898
  371MOL0     O49953   2.068   3.472   8.593  0.6155  0.5285  0.6701
  371MOL0     C49954   2.175   3.482   8.509 -0.2830 -0.7428 -0.4780
  371MOL0     C49955   2.175   3.395   8.400  0.4078 -0.2604 -0.0473
  371MOL0     C49956   2.282   3.400   8.306 -0.3808 -0.0658 -0.9434
  371MOL0     C49957   2.394   3.472   8.342  0.0095 -0.1570  0.3216
  371MOL0     O49958   2.498   3.454   8.265 -0.5562 -1.0177  0.5440
  371MOL0     C49959   2.555   3.581   8.219  0.1928 -0.7854 -0.5351
  371MOL0     C49960   2.447   3.672   8.154  0.0646  0.6388 -0.4725
  371MOL0     C49961   2.511   3.799   8.116 -0.1563 -0.6291 -0.9842
  371MOL0     C49962   2.405   3.889   8.047  0.1181 -0.9944  0.0495
  371MOL0     C49963   2.461   3.995   7.952  0.0634 -0.5731  0.8406
  371MOL0     C49964   2.349   4.068   7.873 -1.2911 -0.7698  0.3035
  371MOL0     C49965   2.399   4.168   7.780  0.2189 -0.1006 -0.2231
  371MOL0     C49966   2.491   4.091   7.677  0.0981 -0.2257  0.6423
  371MOL0     N49967   2.479   4.156   7.550  0.8183  0.5437 -0.2870
  371MOL0     C49968   2.551   4.263   7.507 -0.5282 -0.2766 -0.1841
  371MOL0     C49969   2.521   4.271   7.378 -0.2636  0.3238  0.0597
  371MOL0     C49970   2.585   4.360   7.279  0.3521 -0.4800 -0.9861
  371MOL0     C49971   2.733   4.378   7.325 -0.4087 -0.0291 -0.2245
  371MOL0     C49972   2.837   4.416   7.217  0.3765 -0.7846  0.5598
  371MOL0     C49973   2.818   4.553   7.145  0.4090  0.8623 -0.0811
  371MOL0     O49974   2.696   4.574   7.073 -0.0381  1.2537  0.5798
  371MOL0     C49975   2.675   4.701   7.033  0.0670 -0.7620  0.0807
  371MOL0     C49976   2.770   4.811   7.030  1.3030  0.4160 -0.5189
  371MOL0     C49977   2.728   4.928   6.983 -0.5131 -0.6904  1.0065
  371MOL0     C49978   2.827   5.039   7.001 -0.9345  0.7006  0.4377
  371MOL0     C49979   2.600   4.950   6.929 -0.2085  0.1338 -0.9366
  371MOL0     C49980   2.555   5.072   6.854 -1.3922  0.2668  0.7560
  371MOL0     O49981   2.659   5.164   6.834  0.2802  0.9276 -0.5105
  371MOL0     C49982   2.652   5.281   6.760 -0.6945  0.3294 -0.7020
  371MOL0     C49983   2.549   5.339   6.693 -0.4349  0.0563  0.6464
  371MOL0     C49984   2.562   5.458   6.618  0.3857  0.1685 -0.5256
  371MOL0     C49985   2.677   5.521   6.613 -0.2152  0.7768 -0.2510
  371MOL0     O49986   2.699   5.638   6.539  0.9664 -0.7218 -0.3629
  371MOL0     C49987   2.621   5.750   6.587 -0.0208 -0.0395 -0.9773
  371MOL0     C49988   2.704   5.874   6.548  0.1744 -0.0457  0.1689
  371MOL0     C49989   2.853   5.877   6.604 -1.7749  0.1178 -0.1845
  371MOL0     C49990   2.930   6.006   6.551 -0.1465  1.2153 -0.0871
  371MOL0     C49991   2.940   6.108   6.671  0.0135 -0.2368  0.7272
  371MOL0     C49992   3.013   6.057   6.796  0.1235  0.5658 -0.0630
  371MOL0     C49993   3.054   6.181   6.881  0.0382  0.0219  0.1917
  371MOL0     C49994   2.933   6.231   6.960  0.0563 -0.0965  0.9057
  371MOL0    Cl49995   2.907   6.121   7.093 -0.0736 -0.1509  0.0880
  371MOL0     C49996   2.783   5.468   6.681  0.5699  0.3775  1.0076
  371MOL0     C49997   2.773   5.348   6.747 -1.0892 -0.3009 -0.2639
  371MOL0     O49998   2.443   5.088   6.804  0.0142  0.3737  0.0464
  371MOL0     C49999   2.510   4.848   6.940 -0.1997 -0.5303 -0.7173
  371MOL0     C50000   2.545   4.721   6.989 -0.1291 -1.1023 -0.0189
  371MOL0     N50001   2.428   4.172   7.341  0.1289  0.6275  0.2655
  371MOL0     N50002   2.398   4.108   7.454 -0.8427 -0.3796 -0.1374
  371MOL0     C50003   2.406   3.537   8.466  0.1922  0.2336 -0.1899
  371MOL0     C50004   2.289   3.553   8.540 -0.7711 -0.1655 -0.0826
  371MOL0     C50005   1.931   3.553   8.779  0.4587  0.2414  0.2781
  371MOL0     C50006   1.854   3.441   8.780 -0.5135  0.4268  0.0026
  371MOL0     C50007   1.754   3.422   8.879  0.2314  0.7883  0.5291
  371MOL0     C50008   1.724   3.523   8.968 -0.2494 -0.0274  0.1799
  371MOL0     O50009   1.612   3.518   9.044  0.0264 -0.2464  0.3686
  371MOL0     C50010   1.570   3.634   9.124 -0.7442 -0.0948 -1.2051
  371MOL0     C50011   1.504   3.750   9.043 -0.0169 -0.2650 -0.3571
  371MOL0     C50012   1.379   3.691   8.952 -0.9070 -0.7600  0.0189
  371MOL0     C50013   1.258   3.640   9.037  0.1978  0.8537 -0.2079
  371MOL0     C50014   1.221   3.731   9.140 -0.1683  0.3030 -0.8381
  371MOL0     C50015   1.181   3.827   9.207  0.1480 -0.6027  0.7776
  371MOL0     C50016   1.804   3.639   8.969 -0.0090  0.1177  0.0341
  371MOL0     C50017   1.912   3.649   8.889 -0.0144  0.6917 -0.3730
  371MOL0     H50018   2.084   3.338   8.384 -0.3607  1.5428 -2.7123
  371MOL0     H50019   2.284   3.333   8.221  0.7717 -2.6091  0.9506
  371MOL0     H50020   2.606   3.647   8.290  1.2451  2.1808 -3.7625
  371MOL0     H50021   2.626   3.563   8.138  0.8860 -0.1962 -0.0743
  371MOL0     H50022   2.417   3.607   8.071 -2.0463 -3.2376  2.9428
  371MOL0     H50023   2.358   3.683   8.217  1.4483  2.3267  1.2937
  371MOL0     H50024   2.561   3.847   8.200  2.7817 -0.6637 -2.5896
  371MOL0     H50025   2.586   3.777   8.039  0.9175 -2.1599  0.4482
  371MOL0     H50026   2.334   3.824   7.995 -1.2374  1.2434 -1.0060
  371MOL0     H50027   2.343   3.929   8.127  1.1099  1.5226 -0.3380
  371MOL0     H50028   2.518   4.071   8.006 -0.3876  0.1135  0.3571
  371MOL0     H50029   2.543   3.952   7.893  0.1491  2.1320 -1.2104
  371MOL0     H50030   2.286   3.995   7.822 -0.5796 -2.2991  1.5217
  371MOL0     H50031   2.295   4.114   7.956  0.6015 -1.7520  2.1746
  371MOL0     H50032   2.314   4.205   7.722 -0.5047 -1.3798  0.0017
  371MOL0     H50033   2.455   4.255   7.816  0.3511 -0.7933  1.3235
  371MOL0     H50034   2.465   3.987   7.658  1.5463 -0.1175 -2.4475
  371MOL0     H50035   2.595   4.085   7.712  0.6886  0.0206 -0.9849
  371MOL0     H50036   2.630   4.316   7.558 -0.8192  1.0858 -1.0891
  371MOL0     H50037   2.579   4.320   7.177 -1.1233  0.0073 -1.1182
  371MOL0     H50038   2.537   4.458   7.287  2.2845  0.4448 -0.0739
  371MOL0     H50039   2.762   4.281   7.367  0.2139 -0.7077 -2.1365
  371MOL0     H50040   2.736   4.447   7.410  1.5374 -0.4656  0.0997
  371MOL0     H50041   2.843   4.325   7.157 -1.1420 -2.3659  2.6487
  371MOL0     H50042   2.932   4.420   7.269  0.9002  1.7345 -0.4283
  371MOL0     H50043   2.902   4.561   7.075 -0.0456 -0.6792 -0.8608
  371MOL0     H50044   2.831   4.621   7.229 -0.1631 -1.2638  1.8390
  371MOL0     H50045   2.867   4.798   7.076 -0.3005  1.6784  3.7730
  371MOL0     H50046   2.914   5.010   7.062 -0.9249  0.5890  0.3713
  371MOL0     H50047   2.871   5.082   6.911 -1.2637  2.2309  0.9845
  371MOL0     H50048   2.775   5.117   7.057 -1.2683  0.7707  0.0323
  371MOL0     H50049   2.453   5.289   6.692  1.1171 -3.1548 -0.3673
  371MOL0     H50050   2.468   5.499   6.584 -0.8665  2.2602  4.4665
  371MOL0     H50051   2.529   5.784   6.539  1.0978  2.2547 -1.6360
  371MOL0     H50052   2.602   5.744   6.695 -1.3326  1.6710 -1.0827
  371MOL0     H50053   2.696   5.885   6.439  2.2185  0.2212  0.0240
  371MOL0     H50054   2.656   5.960   6.595 -2.9691 -0.9440 -1.0871
  371MOL0     H50055   2.906   5.795   6.554 -0.5697  0.4400  0.5414
  371MOL0     H50056   2.863   5.867   6.712  0.5453  2.9753 -0.0132
  371MOL0     H50057   3.028   5.982   6.509  0.1057  0.3399  0.9673
  371MOL0     H50058   2.872   6.053   6.471 -0.6868  0.4194 -0.1695
  371MOL0     H50059   2.837   6.132   6.699 -0.6036 -0.2204 -1.3664
  371MOL0     H50060   2.988   6.198   6.632 -0.7252 -0.6475 -1.2786
  371MOL0     H50061   2.952   5.989   6.856  3.0082 -0.2813  2.1404
  371MOL0     H50062   3.102   6.006   6.759  1.7803  1.1920  2.7072
  371MOL0     H50063   3.113   6.255   6.825 -0.0750 -1.3930 -1.8878
  371MOL0     H50064   3.117   6.131   6.956  0.0109 -5.4946 -2.9311
  371MOL0     H50065   2.841   6.234   6.900 -0.2311  0.6028  1.3743
  371MOL0     H50066   2.961   6.327   7.004  1.9108 -0.3856  0.4569
  371MOL0     H50067   2.879   5.512   6.656  1.3306 -3.2140 -4.2032
  371MOL0     H50068   2.869   5.306   6.776 -0.5167  0.8890 -0.3381
  371MOL0     H50069   2.408   4.845   6.903 -0.3870  0.1712 -0.2762
  371MOL0     H50070   2.471   4.642   6.989 -1.7364  0.3195 -1.4264
  371MOL0     H50071   2.500   3.588   8.484  0.8198 -0.6083 -0.9978
  371MOL0     H50072   2.281   3.619   8.626 -3.9536 -2.1770  1.3299
  371MOL0     H50073   1.879   3.354   8.719 -1.2039 -0.6697  1.2305
  371MOL0     H50074   1.696   3.330   8.884 -3.2524  2.8104  0.5196
  371MOL0     H50075   1.492   3.595   9.190  0.4768 -2.2754 -0.9437
  371MOL0     H50076   1.645   3.684   9.187 -3.0466  0.4219  1.3334
  371MOL0     H50077   1.577   3.789   8.972 -0.0641  0.8528  0.1844
  371MOL0     H50078   1.470   3.835   9.103  1.2600 -1.0964  1.6734
  371MOL0     H50079   1.413   3.615   8.882  4.4609  3.4978 -2.7569
  371MOL0     H50080   1.339   3.770   8.888  0.9509 -0.9839 -1.4943
  371MOL0     H50081   1.277   3.544   9.085 -0.8440  0.8252  0.1727
  371MOL0     H50082   1.171   3.619   8.974  1.2913 -2.6576 -0.7152
  371MOL0     H50083   1.139   3.922   9.235  2.3736  0.3478  1.1175
  371MOL0     H50084   1.788   3.730   9.025  0.7268  2.7674 -3.6870
  371MOL0     H50085   1.976   3.736   8.882  2.6586 -1.3143 -3.3194
  372MOL0     O50086   1.256   5.313   0.339  0.5718  0.3343  0.3354
  372MOL0     C50087   1.293   5.233   0.253  1.0339  0.1436  0.5661
  372MOL0     O50088   1.314   5.098   0.274 -0.3959  0.2454  0.5324
  372MOL0     C50089   1.271   5.019   0.381  0.3835 -0.2720  0.7448
  372MOL0     C50090   1.323   4.890   0.394 -0.2013 -0.2214 -0.4323
  372MOL0     C50091   1.268   4.799   0.484  0.5531  0.2032 -0.0984
  372MOL0     C50092   1.148   4.824   0.558 -0.5756  0.1693  1.4049
  372MOL0     O50093   1.092   4.730   0.638 -1.1606  0.1918  0.5540
  372MOL0     C50094   0.946   4.714   0.627 -1.1804  0.3834 -0.3333
  372MOL0     C50095   0.901   4.563   0.652 -0.2300 -0.7844  0.4846
  372MOL0     C50096   0.980   4.464   0.574 -0.2213  0.0569  0.6538
  372MOL0     C50097   0.923   4.325   0.618 -0.3481  0.0305  0.1055
  372MOL0     C50098   1.041   4.236   0.595 -0.4916 -1.2485 -0.2953
  372MOL0     C50099   1.015   4.088   0.620 -0.3200 -0.3310  0.0668
  372MOL0     C50100   1.148   4.009   0.584  0.2585 -0.6244 -0.0154
  372MOL0     C50101   1.147   3.857   0.629  0.1545  0.1801 -0.5667
  372MOL0     N50102   1.130   3.843   0.777 -0.2705 -0.8009  0.0541
  372MOL0     C50103   1.008   3.809   0.834 -0.6252 -0.5932 -0.0918
  372MOL0     C50104   1.032   3.741   0.945 -0.8745 -0.1801  0.4924
  372MOL0     C50105   0.927   3.676   1.039 -0.4252  0.7873  0.3661
  372MOL0     C50106   0.851   3.790   1.115 -0.3878 -0.6286 -0.2469
  372MOL0     C50107   0.709   3.748   1.157  0.3568 -0.4317 -0.3793
  372MOL0     C50108   0.619   3.723   1.037  0.6754 -1.4703 -0.8757
  372MOL0     O50109   0.624   3.590   1.001  0.4315  0.9277  0.8831
  372MOL0     C50110   0.559   3.537   0.889 -0.3910 -0.6400  0.5274
  372MOL0     C50111   0.482   3.614   0.810  0.0178 -0.3030  0.2472
  372MOL0     C50112   0.407   3.560   0.705 -0.2754 -0.6421 -0.5406
  372MOL0     C50113   0.319   3.661   0.632 -0.3102 -1.0073  0.8618
  372MOL0     C50114   0.406   3.416   0.679  0.6424 -0.0609  0.4407
  372MOL0     C50115   0.334   3.348   0.571 -0.3988  0.1827 -0.2811
  372MOL0     O50116   0.328   3.212   0.580  0.3048  0.3449  0.7146
  372MOL0     C50117   0.285   3.140   0.475  0.0711  0.2261  0.5313
  372MOL0     C50118   0.373   3.071   0.389 -0.7334 -0.4366 -0.0273
  372MOL0     C50119   0.318   2.988   0.295  0.0548  1.1894  0.9042
  372MOL0     C50120   0.175   2.968   0.286 -0.1228 -0.0973  0.3218
  372MOL0     O50121   0.117   2.872   0.206 -0.4787 -0.1711  0.0190
  372MOL0     C50122   0.194   2.796   0.110  0.1432 -0.2752  0.3451
  372MOL0     C50123   0.086   2.702   0.040 -0.7822 -0.5998 -0.7333
  372MOL0     C50124   0.002   2.625   0.148  0.4863 -0.2648 -0.0758
  372MOL0     C50125  -0.064   2.499   0.085 -0.3961 -0.2395  0.4688
  372MOL0     C50126  -0.176   2.534  -0.020 -1.1038  0.3064 -0.0891
  372MOL0     C50127  -0.235   2.409  -0.093  1.4062 -0.1787 -0.1914
  372MOL0     C50128  -0.358   2.377  -0.015  0.9725  0.4076 -0.7718
  372MOL0     C50129  -0.426   2.242  -0.038 -0.8068  1.5444 -0.8363
  372MOL0    Cl50130  -0.296   2.113  -0.065  0.2128 -0.3478 -0.1528
  372MOL0     C50131   0.091   3.049   0.359 -0.2386 -0.2834  0.5358
  372MOL0     C50132   0.144   3.134   0.458 -0.2742  1.0797 -1.2786
  372MOL0     O50133   0.283   3.417   0.486 -0.3087 -0.0892 -0.4832
  372MOL0     C50134   0.468   3.334   0.773  0.4424  0.1817 -0.6723
  372MOL0     C50135   0.555   3.405   0.864 -0.2704 -0.3995 -0.4258
  372MOL0     N50136   1.166   3.749   0.967 -0.1107 -0.9264  0.2466
  372MOL0     N50137   1.225   3.802   0.871  0.4810 -0.8783 -0.2190
  372MOL0     C50138   1.107   4.952   0.552  0.1085  0.0019  0.4576
  372MOL0     C50139   1.158   5.045   0.452 -0.9245  0.3644 -0.0016
  372MOL0     C50140   1.346   5.284   0.120 -0.3974 -0.2765 -0.0348
  372MOL0     C50141   1.360   5.427   0.092 -0.3612  0.4279  0.1021
  372MOL0     C50142   1.416   5.471  -0.033  1.0380 -0.5917  0.2574
  372MOL0     C50143   1.462   5.375  -0.123 -0.5803  0.6883 -0.1101
  372MOL0     O50144   1.516   5.414  -0.240 -0.2922  0.2338  0.6129
  372MOL0     C50145   1.524   5.549  -0.275 -0.0319 -0.5686 -0.1519
  372MOL0     C50146   1.582   5.570  -0.418  0.1324 -0.3710  0.1759
  372MOL0     C50147   1.502   5.494  -0.521 -0.0918  0.3499  0.6275
  372MOL0     C50148   1.577   5.487  -0.659 -0.3968  0.3344  0.9506
  372MOL0     C50149   1.499   5.436  -0.769 -0.1732  0.6465  0.3290
  372MOL0     C50150   1.435   5.400  -0.868 -0.2240 -0.6051 -0.9367
  372MOL0     C50151   1.458   5.235  -0.091 -0.5494 -0.4500  0.2036
  372MOL0     C50152   1.402   5.188   0.028  0.7527  0.0232 -0.2965
  372MOL0     H50153   1.397   4.856   0.323  0.5677  2.2152 -0.8891
  372MOL0     H50154   1.304   4.697   0.477  0.2951 -0.0560  1.7308
  372MOL0     H50155   0.897   4.782   0.698 -1.9179 -2.0447  1.6472
  372MOL0     H50156   0.921   4.737   0.523 -3.8856  2.2758  0.6224
  372MOL0     H50157   0.902   4.537   0.759 -0.0561  1.1690  0.9845
  372MOL0     H50158   0.798   4.564   0.615 -0.1143  3.0895 -0.1392
  372MOL0     H50159   0.965   4.498   0.471 -1.8429 -0.1896  0.7711
  372MOL0     H50160   1.085   4.476   0.599  0.8065 -3.4273 -1.3460
  372MOL0     H50161   0.883   4.321   0.720  0.2206  0.5873  0.3578
  372MOL0     H50162   0.842   4.309   0.547 -0.0278 -0.3685 -0.1782
  372MOL0     H50163   1.092   4.252   0.500 -0.8652  0.8681 -0.1849
  372MOL0     H50164   1.114   4.274   0.668  1.1473 -1.7183 -1.6325
  372MOL0     H50165   0.982   4.063   0.721  0.1965  1.3124  0.6597
  372MOL0     H50166   0.934   4.045   0.559 -1.3680 -1.9618  2.4522
  372MOL0     H50167   1.158   4.010   0.476  0.9127 -3.4144 -0.0545
  372MOL0     H50168   1.237   4.060   0.623  0.1870  0.5193 -1.3006
  372MOL0     H50169   1.241   3.814   0.594 -1.0061 -2.0088 -1.1808
  372MOL0     H50170   1.070   3.807   0.569  2.2364 -0.1223 -3.1654
  372MOL0     H50171   0.911   3.830   0.789  0.7687  2.0256 -2.1455
  372MOL0     H50172   0.860   3.621   0.972  0.7030 -0.0320 -0.1131
  372MOL0     H50173   0.963   3.605   1.113  0.4675 -1.2262 -1.8831
  372MOL0     H50174   0.834   3.881   1.055 -1.1525  0.6306  1.7890
  372MOL0     H50175   0.910   3.822   1.201 -1.4190  0.6397  0.0277
  372MOL0     H50176   0.662   3.826   1.217 -2.2801 -0.0342 -2.7339
  372MOL0     H50177   0.711   3.660   1.222  2.1131  0.3698  0.7333
  372MOL0     H50178   0.636   3.781   0.946 -2.1908 -2.0085 -1.8709
  372MOL0     H50179   0.514   3.738   1.062  1.4038 -0.2758  1.7468
  372MOL0     H50180   0.469   3.720   0.825 -1.9468 -0.5253  0.3695
  372MOL0     H50181   0.217   3.631   0.657 -0.8061  2.6430  4.2058
  372MOL0     H50182   0.329   3.763   0.670  0.0532 -0.5692 -0.3632
  372MOL0     H50183   0.343   3.650   0.526  2.3863  1.3967  1.1073
  372MOL0     H50184   0.480   3.088   0.399 -0.9869  3.1082 -1.9075
  372MOL0     H50185   0.383   2.952   0.216 -2.1872 -2.3940  0.5115
  372MOL0     H50186   0.245   2.864   0.042 -1.1227  1.7387  1.3374
  372MOL0     H50187   0.267   2.736   0.166 -1.0224 -1.1518  0.9972
  372MOL0     H50188   0.024   2.759  -0.030 -0.4968  1.8506  0.8781
  372MOL0     H50189   0.150   2.633  -0.014  3.4272  1.3874  1.2395
  372MOL0     H50190  -0.078   2.687   0.189  0.4750 -0.8492  0.8317
  372MOL0     H50191   0.058   2.585   0.234 -0.3000 -4.1704 -1.1893
  372MOL0     H50192   0.004   2.427   0.039  0.0974 -0.1807  1.0989
  372MOL0     H50193  -0.117   2.455   0.170 -1.7829 -0.3821 -0.4314
  372MOL0     H50194  -0.126   2.583  -0.105  1.2432 -1.2757  0.2827
  372MOL0     H50195  -0.248   2.603   0.025 -2.4687 -0.0170 -1.7128
  372MOL0     H50196  -0.251   2.416  -0.201  2.6220 -1.5880 -0.4886
  372MOL0     H50197  -0.160   2.331  -0.079  0.7409 -0.5471  1.7377
  372MOL0     H50198  -0.434   2.451  -0.041 -0.7261 -0.9606  0.1320
  372MOL0     H50199  -0.335   2.378   0.092 -1.0399 -2.7150 -0.1984
  372MOL0     H50200  -0.507   2.250  -0.111 -3.6751  1.6830  2.1153
  372MOL0     H50201  -0.486   2.227   0.053  1.6186  3.1719  1.1802
  372MOL0     H50202  -0.016   3.030   0.359 -0.2439 -0.6195  3.0298
  372MOL0     H50203   0.083   3.184   0.533 -2.6062 -2.6019 -0.4766
  372MOL0     H50204   0.482   3.227   0.790  3.1689  0.7316  1.4712
  372MOL0     H50205   0.625   3.349   0.924  1.7544 -0.6687 -2.8425
  372MOL0     H50206   1.018   4.975   0.611  1.5044  1.2099  2.1936
  372MOL0     H50207   1.115   5.142   0.427  2.9033  1.4165 -3.5780
  372MOL0     H50208   1.329   5.501   0.165 -2.0405 -0.1609  0.0220
  372MOL0     H50209   1.407   5.578  -0.045 -1.2291 -0.7579  0.1629
  372MOL0     H50210   1.425   5.594  -0.267 -0.8252 -2.3854  1.0720
  372MOL0     H50211   1.589   5.601  -0.204 -0.9117 -0.3428  0.5099
  372MOL0     H50212   1.688   5.549  -0.404 -0.9308 -4.3538  5.5755
  372MOL0     H50213   1.573   5.676  -0.445 -0.6035 -0.6284 -0.6647
  372MOL0     H50214   1.406   5.547  -0.528 -0.0025  0.3368 -1.2737
  372MOL0     H50215   1.486   5.387  -0.505 -1.7797 -0.1402 -3.1632
  372MOL0     H50216   1.645   5.403  -0.644  1.3861  1.6017  0.2539
  372MOL0     H50217   1.627   5.582  -0.683 -2.0521  0.8853 -0.4895
  372MOL0     H50218   1.373   5.366  -0.949 -1.1570  0.2109 -0.5913
  372MOL0     H50219   1.504   5.168  -0.162  0.2429  0.6609 -0.3546
  372MOL0     H50220   1.408   5.080   0.035 -0.0450 -0.2520 -2.7323
  373MOL0     O50221   8.898   7.316   9.500 -0.5215 -0.3883  0.3264
  373MOL0     C50222   8.963   7.294   9.604 -0.0954  0.0012  0.1676
  373MOL0     O50223   8.981   7.391   9.706 -0.2759  0.4906 -0.0642
  373MOL0     C50224   8.885   7.489   9.731  1.0047 -0.0684  0.2945
  373MOL0     C50225   8.755   7.509   9.666  0.0569  0.4833  0.6618
  373MOL0     C50226   8.663   7.603   9.702  0.2659  0.8928 -0.2665
  373MOL0     C50227   8.696   7.684   9.808  0.6540 -0.4666  0.4290
  373MOL0     O50228   8.610   7.776   9.853  0.8074  0.0193  0.2067
  373MOL0     C50229   8.470   7.726   9.884 -0.4308 -0.2622 -0.3410
  373MOL0     C50230   8.407   7.793  10.006  0.4797  0.9167  0.3737
  373MOL0     C50231   8.426   7.942  10.001 -0.1745  0.5148 -0.3895
  373MOL0     C50232   8.325   8.027  10.086  0.0878  1.0680 -0.1298
  373MOL0     C50233   8.361   8.011  10.238 -0.8218  0.4138 -0.0733
  373MOL0     C50234   8.298   7.904  10.330  0.3201 -0.2657 -0.2327
  373MOL0     C50235   8.399   7.871  10.446  0.6274  0.4560 -0.5926
  373MOL0     C50236   8.331   7.775  10.547  0.5577  1.0371  1.5063
  373MOL0     N50237   8.296   7.643  10.500 -0.1819  0.1510  0.4011
  373MOL0     C50238   8.369   7.572  10.405  0.5438 -0.1240  0.4593
  373MOL0     C50239   8.288   7.467  10.375  0.0997  0.0862 -0.0340
  373MOL0     C50240   8.301   7.356  10.267 -0.2020  0.2473 -0.3626
  373MOL0     C50241   8.343   7.411  10.133 -0.4165 -0.4781  0.6425
  373MOL0     C50242   8.338   7.301  10.027  0.1233 -0.5255  0.1368
  373MOL0     C50243   8.366   7.336   9.878 -0.4424  1.4039 -0.3726
  373MOL0     O50244   8.376   7.213   9.818 -0.4691 -0.0861  0.1486
  373MOL0     C50245   8.445   7.204   9.701  0.2056  0.2918  0.5851
  373MOL0     C50246   8.434   7.281   9.582  0.3205 -0.5913 -0.3824
  373MOL0     C50247   8.492   7.255   9.451  0.3813 -0.8114 -0.5963
  373MOL0     C50248   8.445   7.350   9.340  0.2748 -0.0208  0.1291
  373MOL0     C50249   8.588   7.146   9.450 -0.2808  0.2831 -0.2361
  373MOL0     C50250   8.655   7.099   9.330  1.0029 -0.7488  0.2330
  373MOL0     O50251   8.624   7.151   9.205 -0.5056  0.2592 -0.5238
  373MOL0     C50252   8.697   7.119   9.098 -0.9637  0.5487  0.3966
  373MOL0     C50253   8.836   7.108   9.093 -0.0576  0.0501  0.4041
  373MOL0     C50254   8.903   7.055   8.980  1.0411  0.1885 -0.8708
  373MOL0     C50255   8.827   7.042   8.866 -0.4856  0.3381  0.4337
  373MOL0     O50256   8.898   7.003   8.756  0.2538 -0.6214 -0.7426
  373MOL0     C50257   8.908   6.868   8.725  0.3524  0.2143 -0.7134
  373MOL0     C50258   9.037   6.847   8.655  0.6206  0.0118 -0.6779
  373MOL0     C50259   9.065   6.704   8.608 -0.0984  0.3212  0.8662
  373MOL0     C50260   9.093   6.605   8.726  0.2760 -1.1054  0.0398
  373MOL0     C50261   9.079   6.462   8.690  0.1873  0.5363  0.4007
  373MOL0     C50262   9.182   6.378   8.773  0.7482  0.5175  0.4534
  373MOL0     C50263   9.199   6.224   8.731  0.1013  0.3774 -1.0730
  373MOL0     C50264   9.277   6.148   8.833 -0.9417  0.1103  0.2608
  373MOL0    Cl50265   9.309   5.983   8.768 -0.5373  0.0757 -0.1072
  373MOL0     C50266   8.688   7.067   8.866  0.4637 -1.2324 -0.5165
  373MOL0     C50267   8.620   7.102   8.983  0.4900  0.4267  0.8989
  373MOL0     O50268   8.752   7.029   9.354  0.0090 -0.1362 -1.1340
  373MOL0     C50269   8.600   7.060   9.570  0.2991  0.0725  0.4655
  373MOL0     C50270   8.522   7.095   9.687  0.9488  0.2411 -0.6307
  373MOL0     N50271   8.174   7.480  10.447  0.5119  0.3623  0.3846
  373MOL0     N50272   8.173   7.587  10.510 -0.3846 -0.7498 -0.8387
  373MOL0     C50273   8.825   7.682   9.871  0.1826  0.5035 -0.1294
  373MOL0     C50274   8.913   7.581   9.834  0.2324 -0.0552 -0.6802
  373MOL0     C50275   9.028   7.154   9.630  0.2881 -0.1091  0.5839
  373MOL0     C50276   9.027   7.058   9.525 -0.0540  0.6189 -0.6335
  373MOL0     C50277   9.060   6.925   9.556 -0.3142 -0.0606  0.7435
  373MOL0     C50278   9.106   6.889   9.682  1.1607 -0.8292  0.1633
  373MOL0     O50279   9.158   6.766   9.709 -0.3457 -0.2107  0.5777
  373MOL0     C50280   9.307   6.775   9.741  0.6724  0.0680  0.2802
  373MOL0     C50281   9.386   6.652   9.771  0.2744 -0.0495  0.3008
  373MOL0     C50282   9.376   6.559   9.640  0.2895 -0.2098  0.8561
  373MOL0     C50283   9.315   6.429   9.684 -0.4893  1.2677 -0.0327
  373MOL0     C50284   9.304   6.318   9.579 -0.4057  0.5432 -0.3277
  373MOL0     C50285   9.294   6.245   9.483 -0.7373 -0.1720  0.2344
  373MOL0     C50286   9.099   6.980   9.782  1.3081  0.1850 -0.6191
  373MOL0     C50287   9.067   7.107   9.753 -0.5737  0.6680 -0.9463
  373MOL0     H50288   8.724   7.436   9.593 -2.9880 -1.4461  3.5951
  373MOL0     H50289   8.560   7.606   9.667  0.1005 -0.1893  0.1009
  373MOL0     H50290   8.405   7.738   9.797  0.9685 -1.3608 -1.6157
  373MOL0     H50291   8.488   7.618   9.896  2.5683  0.4554  4.0074
  373MOL0     H50292   8.300   7.769  10.005  0.5913  0.1774 -2.4729
  373MOL0     H50293   8.456   7.764  10.099  2.2443 -0.8462 -1.0275
  373MOL0     H50294   8.530   7.967  10.022 -0.2918  1.5830 -0.9794
  373MOL0     H50295   8.400   7.959   9.896  1.3010  0.5552 -0.7659
  373MOL0     H50296   8.339   8.131  10.055  2.9667 -0.2794 -4.4109
  373MOL0     H50297   8.225   7.983  10.089  0.4928  0.1878  2.7580
  373MOL0     H50298   8.468   7.989  10.233 -0.8853  0.4195 -3.0765
  373MOL0     H50299   8.344   8.109  10.284  0.1174  0.6402 -0.1924
  373MOL0     H50300   8.201   7.940  10.365  0.7938 -0.3942  1.2460
  373MOL0     H50301   8.265   7.816  10.272 -0.0113  1.4085 -2.7657
  373MOL0     H50302   8.488   7.821  10.405 -1.5686 -1.8352 -2.9354
  373MOL0     H50303   8.423   7.960  10.505 -1.4266 -1.0693  2.9223
  373MOL0     H50304   8.241   7.820  10.589 -0.2977  0.2971  0.5219
  373MOL0     H50305   8.413   7.749  10.615  4.0980  1.8609 -2.0815
  373MOL0     H50306   8.467   7.592  10.363  1.5628 -0.4276  2.5624
  373MOL0     H50307   8.369   7.277  10.299 -0.2927 -0.1241 -1.0679
  373MOL0     H50308   8.204   7.309  10.249  0.0010 -0.7700  1.0386
  373MOL0     H50309   8.446   7.447  10.143 -1.1721  3.2296 -2.7069
  373MOL0     H50310   8.283   7.499  10.111  2.0837  1.1030 -0.2891
  373MOL0     H50311   8.243   7.249  10.019  1.0358 -2.0006 -5.3469
  373MOL0     H50312   8.411   7.227  10.060  0.0994 -0.7168 -0.2350
  373MOL0     H50313   8.454   7.399   9.862 -0.9125  1.9978 -0.6378
  373MOL0     H50314   8.289   7.397   9.831 -1.3065  0.7867  0.2177
  373MOL0     H50315   8.357   7.358   9.578  2.9526  2.1698 -2.7388
  373MOL0     H50316   8.531   7.373   9.277  1.1040  0.7026  1.4664
  373MOL0     H50317   8.367   7.298   9.283 -0.9270  2.2784 -0.4346
  373MOL0     H50318   8.414   7.442   9.391  3.1922 -0.2196  2.5630
  373MOL0     H50319   8.903   7.142   9.172 -1.6830  1.7797  1.1192
  373MOL0     H50320   9.010   7.042   8.982  1.2488  1.7826  0.8800
  373MOL0     H50321   8.915   6.808   8.816 -1.2153  1.6839  0.4651
  373MOL0     H50322   8.815   6.844   8.673 -1.6727 -1.3659  3.2314
  373MOL0     H50323   9.055   6.910   8.567  0.1077  0.0796 -0.7414
  373MOL0     H50324   9.109   6.874   8.732 -1.2629  2.4523  0.3820
  373MOL0     H50325   9.151   6.701   8.540 -2.8975  1.4343 -3.0195
  373MOL0     H50326   8.975   6.679   8.551 -0.4766  3.0827  0.1198
  373MOL0     H50327   9.193   6.632   8.762  1.9319 -1.5753 -3.7141
  373MOL0     H50328   9.024   6.618   8.811  1.9757 -2.6692  1.7555
  373MOL0     H50329   9.105   6.449   8.584 -1.2839  2.1640 -0.2177
  373MOL0     H50330   8.982   6.413   8.705  1.4730 -1.9889  0.9440
  373MOL0     H50331   9.277   6.425   8.747  0.2868  0.6678 -1.1389
  373MOL0     H50332   9.162   6.391   8.879 -3.3491 -3.1104  0.4257
  373MOL0     H50333   9.233   6.209   8.628 -0.8428  0.1995 -1.3748
  373MOL0     H50334   9.101   6.174   8.725 -0.6948  1.7699 -0.1129
  373MOL0     H50335   9.223   6.150   8.928  0.4202  2.0523  1.0445
  373MOL0     H50336   9.375   6.193   8.852 -0.2612  0.2776 -2.9645
  373MOL0     H50337   8.635   7.044   8.774 -0.2295  0.3588 -0.5411
  373MOL0     H50338   8.519   7.136   8.962  0.9532  0.7473 -0.9877
  373MOL0     H50339   8.663   6.972   9.569  0.3153  0.0740 -0.9833
  373MOL0     H50340   8.530   7.029   9.772 -0.1838 -0.7441 -1.2588
  373MOL0     H50341   8.850   7.760   9.942 -2.1135 -0.6941  2.1530
  373MOL0     H50342   9.005   7.568   9.890 -0.0462  0.2709 -0.1341
  373MOL0     H50343   9.009   7.083   9.420  2.9040 -0.3441 -1.4675
  373MOL0     H50344   9.059   6.857   9.471 -1.1799  0.8563 -0.0017
  373MOL0     H50345   9.347   6.839   9.661 -1.4834  0.4607 -0.5368
  373MOL0     H50346   9.320   6.845   9.824  0.2982 -2.6664  2.8025
  373MOL0     H50347   9.331   6.602   9.852  1.9610 -1.2239  0.7738
  373MOL0     H50348   9.488   6.674   9.805  1.3569 -2.6229 -1.0438
  373MOL0     H50349   9.469   6.560   9.584  0.3591  3.7294  0.7592
  373MOL0     H50350   9.305   6.606   9.571  3.4120  2.4099 -0.8159
  373MOL0     H50351   9.210   6.438   9.714 -1.1101 -1.8551 -0.8378
  373MOL0     H50352   9.378   6.389   9.763  0.8092  0.4311 -1.4322
  373MOL0     H50353   9.284   6.170   9.407  0.7263 -5.1757  4.3544
  373MOL0     H50354   9.108   6.938   9.882 -2.2353  0.8579  0.1047
  373MOL0     H50355   9.095   7.170   9.837  0.3266 -1.3129  0.3347
  374MOL0     O50356  11.162   0.746   1.946 -0.3173  0.9950  0.5396
  374MOL0     C50357  11.115   0.846   1.996 -0.8244 -0.4351  0.3567
  374MOL0     O50358  10.989   0.897   1.983  0.3379 -0.6273  0.3714
  374MOL0     C50359  10.881   0.827   1.927  0.1936 -0.8178  0.5457
  374MOL0     C50360  10.847   0.826   1.786 -0.2406 -0.6436  0.0278
  374MOL0     C50361  10.735   0.758   1.734  0.5110 -0.2558 -0.4225
  374MOL0     C50362  10.663   0.675   1.824  0.1596 -1.0742  0.7829
  374MOL0     O50363  10.558   0.609   1.752  0.2190  0.4083 -0.3929
  374MOL0     C50364  10.441   0.558   1.830  0.1685 -0.5012 -0.1007
  374MOL0     C50365  10.334   0.484   1.753 -0.0616 -0.8968 -0.2548
  374MOL0     C50366  10.215   0.455   1.837  0.4794  0.2643  0.1726
  374MOL0     C50367  10.092   0.416   1.744  0.7068 -0.5660 -1.0414
  374MOL0     C50368   9.978   0.388   1.834 -0.3629 -0.7308  0.1775
  374MOL0     C50369   9.859   0.328   1.762  1.0571  0.7308 -0.0963
  374MOL0     C50370   9.763   0.426   1.681 -0.7217  0.4684 -0.8742
  374MOL0     C50371   9.661   0.363   1.592  1.2650 -0.0888 -0.8632
  374MOL0     N50372   9.532   0.394   1.660  0.4824  0.5062 -0.3565
  374MOL0     C50373   9.466   0.511   1.650  0.9301  0.1032  0.0045
  374MOL0     C50374   9.337   0.476   1.668 -0.1750 -0.7409 -0.0129
  374MOL0     C50375   9.218   0.563   1.639  0.7481 -0.5242 -0.4049
  374MOL0     C50376   9.078   0.500   1.674  0.4159  0.2771  0.5182
  374MOL0     C50377   9.027   0.393   1.573 -0.4081 -0.0167 -0.2083
  374MOL0     C50378   8.908   0.316   1.635 -1.6110 -0.2926 -0.2293
  374MOL0     O50379   8.792   0.398   1.643  0.9246  0.5467 -0.7057
  374MOL0     C50380   8.673   0.332   1.678  0.0997  1.1598  0.0834
  374MOL0     C50381   8.557   0.405   1.645  0.3317  0.3360  0.4745
  374MOL0     C50382   8.420   0.364   1.667  0.0560 -0.6494 -0.1953
  374MOL0     C50383   8.306   0.451   1.612 -0.2284  0.0847  0.6052
  374MOL0     C50384   8.401   0.233   1.714 -0.5704 -0.3046  0.1704
  374MOL0     C50385   8.256   0.187   1.754  0.8382 -0.2073  1.2731
  374MOL0     O50386   8.141   0.227   1.681 -0.2310 -0.9174 -0.0547
  374MOL0     C50387   8.021   0.166   1.721 -0.3995 -0.7991  0.0498
  374MOL0     C50388   7.974   0.163   1.852  0.2175  0.5333  0.0200
  374MOL0     C50389   7.851   0.110   1.884 -1.0603  0.5096  0.2354
  374MOL0     C50390   7.775   0.044   1.788  0.1120  0.2653 -0.0489
  374MOL0     O50391   7.650  -0.007   1.813 -0.1004 -0.1195  0.8163
  374MOL0     C50392   7.567   0.082   1.888 -0.2168 -0.3426  0.4240
  374MOL0     C50393   7.563   0.227   1.825 -0.0431  0.9916 -0.5495
  374MOL0     C50394   7.495   0.222   1.685 -0.1597  0.4089  0.1711
  374MOL0     C50395   7.474   0.364   1.614  0.3170  0.3174 -0.2844
  374MOL0     C50396   7.397   0.363   1.474 -0.0615  0.6637 -0.2800
  374MOL0     C50397   7.375   0.493   1.409 -0.7174  0.0763 -0.5111
  374MOL0     C50398   7.496   0.587   1.387  0.1812  0.6316 -0.0537
  374MOL0     C50399   7.451   0.720   1.331 -0.3089 -0.2005  0.2793
  374MOL0    Cl50400   7.344   0.818   1.438 -0.3496 -0.0440  0.4786
  374MOL0     C50401   7.826   0.049   1.664  0.5697 -0.4838  0.5404
  374MOL0     C50402   7.948   0.098   1.631 -0.4105 -0.1451  0.2099
  374MOL0     O50403   8.255   0.102   1.841 -0.5718  0.2934 -0.0602
  374MOL0     C50404   8.514   0.154   1.749 -0.6597 -0.3918 -0.6032
  374MOL0     C50405   8.650   0.203   1.736 -0.6220 -0.5814  0.9488
  374MOL0     N50406   9.329   0.358   1.723 -0.0611  1.0579 -0.4914
  374MOL0     N50407   9.452   0.309   1.730  0.2133  0.4408  0.1899
  374MOL0     C50408  10.694   0.671   1.961  0.2620 -0.0023  0.4858
  374MOL0     C50409  10.793   0.760   2.017 -0.0454 -1.4102 -0.3830
  374MOL0     C50410  11.215   0.923   2.091 -0.2935 -0.1856 -0.4476
  374MOL0     C50411  11.355   0.926   2.071  1.1203 -0.1205  0.2878
  374MOL0     C50412  11.427   0.999   2.173  0.4048  0.9026  0.0125
  374MOL0     C50413  11.370   1.073   2.279  0.5832  0.1972  0.1368
  374MOL0     O50414  11.435   1.136   2.381  0.0794  0.2802  0.5695
  374MOL0     C50415  11.432   1.283   2.399  0.1936  0.8881 -0.1159
  374MOL0     C50416  11.539   1.306   2.507  0.4527 -0.1722  0.0552
  374MOL0     C50417  11.684   1.305   2.434 -0.0725 -0.1360 -0.2196
  374MOL0     C50418  11.798   1.360   2.522  0.1786 -0.0113 -0.2316
  374MOL0     C50419  11.917   1.382   2.449  0.4332 -0.8584  0.2156
  374MOL0     C50420  12.021   1.414   2.397 -0.4924 -0.0379 -0.5142
  374MOL0     C50421  11.225   1.087   2.276  0.2924 -0.7900  0.5531
  374MOL0     C50422  11.157   0.999   2.194 -0.0351 -0.4975  0.8867
  374MOL0     H50423  10.912   0.891   1.728  2.4870 -0.4695  2.9988
  374MOL0     H50424  10.703   0.765   1.631 -0.9862 -0.4332  0.0179
  374MOL0     H50425  10.483   0.479   1.894  0.5666 -0.8117 -0.7368
  374MOL0     H50426  10.405   0.642   1.889  2.8290 -0.6266  1.8950
  374MOL0     H50427  10.311   0.549   1.669  1.4781  0.0444 -0.0012
  374MOL0     H50428  10.383   0.395   1.711  0.8647 -0.5255 -0.0040
  374MOL0     H50429  10.239   0.376   1.908 -0.1211 -1.7863 -1.7747
  374MOL0     H50430  10.205   0.539   1.905  4.0565 -1.3670  3.0597
  374MOL0     H50431  10.065   0.506   1.687  0.1103 -0.5662 -0.7684
  374MOL0     H50432  10.101   0.331   1.677 -1.3987 -1.8513  0.1695
  374MOL0     H50433  10.020   0.314   1.902  2.9788 -0.7446 -1.6437
  374MOL0     H50434   9.942   0.476   1.888 -4.0591 -3.3345  2.3641
  374MOL0     H50435   9.883   0.245   1.693  1.0914  1.0128 -0.4268
  374MOL0     H50436   9.797   0.281   1.838 -0.0842 -0.0916 -1.4685
  374MOL0     H50437   9.731   0.507   1.748  1.5386  1.7279 -1.2209
  374MOL0     H50438   9.833   0.478   1.615  2.7176  1.1001  2.8945
  374MOL0     H50439   9.675   0.255   1.583  1.5542 -0.1252 -0.0176
  374MOL0     H50440   9.682   0.419   1.500  1.7730  1.7812  0.3307
  374MOL0     H50441   9.501   0.605   1.608  0.0141  0.3137 -0.3212
  374MOL0     H50442   9.239   0.652   1.698  0.3960  0.7376 -2.0958
  374MOL0     H50443   9.218   0.597   1.535  2.9936 -2.6547 -1.1984
  374MOL0     H50444   9.007   0.583   1.684 -0.1875 -0.3063  1.1262
  374MOL0     H50445   9.081   0.460   1.776 -3.4383 -2.4895 -0.2399
  374MOL0     H50446   9.109   0.328   1.541 -1.2886  0.1540 -3.1259
  374MOL0     H50447   8.995   0.449   1.484 -2.1644  0.5560  0.7444
  374MOL0     H50448   8.924   0.273   1.733  0.5621 -0.1517 -0.4737
  374MOL0     H50449   8.880   0.230   1.574 -1.0754 -0.4115 -0.3061
  374MOL0     H50450   8.554   0.498   1.589 -4.3122  0.5547  0.7424
  374MOL0     H50451   8.349   0.549   1.589  1.2677 -0.7748 -0.4599
  374MOL0     H50452   8.286   0.413   1.511  1.3107  2.5592 -0.7317
  374MOL0     H50453   8.217   0.467   1.673 -1.7645  1.6481 -1.8616
  374MOL0     H50454   8.041   0.214   1.921  1.0307 -1.7489  1.0272
  374MOL0     H50455   7.824   0.127   1.988  1.2426 -1.4082  1.2386
  374MOL0     H50456   7.468   0.037   1.900 -0.2484 -0.4591 -0.2666
  374MOL0     H50457   7.607   0.091   1.990  0.8229 -1.0584  0.0972
  374MOL0     H50458   7.492   0.268   1.897 -0.8684 -3.5314  1.5478
  374MOL0     H50459   7.661   0.275   1.828  1.2136 -1.3435 -1.3899
  374MOL0     H50460   7.400   0.168   1.688  0.9453 -1.6522  4.2355
  374MOL0     H50461   7.559   0.170   1.613 -0.5785 -1.2375  0.9369
  374MOL0     H50462   7.416   0.429   1.680  2.4784  1.5293  0.5246
  374MOL0     H50463   7.571   0.413   1.607  0.0280  0.8275 -0.8140
  374MOL0     H50464   7.293   0.333   1.489 -0.4921  0.2063 -3.3900
  374MOL0     H50465   7.457   0.301   1.405  1.2029  3.1598 -1.5498
  374MOL0     H50466   7.325   0.480   1.312 -1.3367  1.8742 -0.4739
  374MOL0     H50467   7.304   0.552   1.468 -0.9097 -0.7324  0.0749
  374MOL0     H50468   7.556   0.526   1.319 -1.6560 -0.6777 -0.5776
  374MOL0     H50469   7.552   0.597   1.479  0.3196 -0.0692 -0.0586
  374MOL0     H50470   7.396   0.692   1.242 -1.7414  1.5212  0.5644
  374MOL0     H50471   7.535   0.788   1.313 -2.4101  2.3097 -0.6122
  374MOL0     H50472   7.775   0.008   1.578  0.7533 -3.1597  1.5980
  374MOL0     H50473   7.973   0.096   1.525 -2.5842 -0.4648 -0.3520
  374MOL0     H50474   8.499   0.053   1.785  0.9707 -0.3292  0.3699
  374MOL0     H50475   8.741   0.150   1.763  0.2817 -0.0987 -1.0061
  374MOL0     H50476  10.620   0.615   2.017 -1.4635 -1.6166 -3.0259
  374MOL0     H50477  10.812   0.780   2.122 -1.9805  2.5731 -0.6114
  374MOL0     H50478  11.400   0.873   1.987  3.5577  1.6857  0.3251
  374MOL0     H50479  11.533   0.985   2.191 -0.1944 -3.9122  1.0770
  374MOL0     H50480  11.457   1.336   2.306 -0.9985  0.4808 -0.6910
  374MOL0     H50481  11.339   1.323   2.440  1.2569  1.5121  1.7942
  374MOL0     H50482  11.535   1.239   2.594  0.6496  1.7479  1.6260
  374MOL0     H50483  11.528   1.407   2.547  0.1950  0.2952 -1.1680
  374MOL0     H50484  11.677   1.357   2.338 -4.2679  0.3461  0.1365
  374MOL0     H50485  11.706   1.199   2.420  2.1330  0.1210  0.9110
  374MOL0     H50486  11.813   1.275   2.589  0.6709 -0.0168 -0.3456
  374MOL0     H50487  11.761   1.452   2.568  0.2966  0.0506 -0.2609
  374MOL0     H50488  12.112   1.455   2.357 -0.3014  3.8386  3.1267
  374MOL0     H50489  11.182   1.145   2.357  0.0897 -0.3215  0.1180
  374MOL0     H50490  11.050   0.998   2.213 -0.4479  5.4295  0.5039
  375MOL0     O50491   0.715   1.386   8.107 -1.0111 -0.5332 -0.8074
  375MOL0     C50492   0.702   1.281   8.164 -0.5576 -0.4372 -0.7717
  375MOL0     O50493   0.702   1.262   8.297  0.5022 -0.6387 -0.3841
  375MOL0     C50494   0.705   1.372   8.377  0.3503 -0.0088 -0.4829
  375MOL0     C50495   0.829   1.422   8.409 -0.4250 -1.4139 -0.1295
  375MOL0     C50496   0.841   1.539   8.496  1.1359  0.7440 -0.3870
  375MOL0     C50497   0.716   1.599   8.545 -0.1464  0.4600  0.0642
  375MOL0     O50498   0.721   1.716   8.618 -0.8151 -0.0320  0.2770
  375MOL0     C50499   0.853   1.776   8.621 -0.0956  0.3941  0.1460
  375MOL0     C50500   0.832   1.911   8.689 -0.5927  0.2216 -0.1426
  375MOL0     C50501   0.796   1.895   8.845 -0.0621  0.8876  0.2007
  375MOL0     C50502   0.796   2.032   8.909 -0.0498 -0.5891  0.4625
  375MOL0     C50503   0.746   2.021   9.054 -0.9096 -0.2014 -1.3035
  375MOL0     C50504   0.594   2.025   9.064 -0.5240  0.4342  0.1126
  375MOL0     C50505   0.540   2.012   9.209 -0.2463 -0.0849  0.2575
  375MOL0     C50506   0.399   1.963   9.204  0.3489 -1.4514 -0.4117
  375MOL0     N50507   0.342   2.004   9.335 -0.4857  0.5466 -0.3371
  375MOL0     C50508   0.253   2.110   9.361 -0.4866  0.4085 -0.2417
  375MOL0     C50509   0.257   2.132   9.496 -0.1729 -0.0097  0.9370
  375MOL0     C50510   0.167   2.233   9.566  0.0130  0.7443 -0.3826
  375MOL0     C50511   0.178   2.232   9.715 -0.0161 -0.1286  0.0636
  375MOL0     C50512   0.101   2.344   9.798 -0.1569  0.4393  0.7693
  375MOL0     C50513  -0.038   2.362   9.740  0.1011 -0.0488 -0.8230
  375MOL0     O50514  -0.024   2.463   9.639  0.3878  0.3129 -0.4559
  375MOL0     C50515  -0.139   2.478   9.555 -0.2417  0.2634  0.0785
  375MOL0     C50516  -0.255   2.401   9.569 -0.0813 -0.6016 -0.6496
  375MOL0     C50517  -0.355   2.417   9.480  0.0464  0.6054  0.0236
  375MOL0     C50518  -0.477   2.323   9.489 -0.0693 -0.5013 -0.0679
  375MOL0     C50519  -0.346   2.503   9.366  0.4484  0.3563 -0.1974
  375MOL0     C50520  -0.442   2.513   9.253 -0.0318  0.0408 -0.1408
  375MOL0     O50521  -0.468   2.404   9.183  0.6447 -0.5233  0.1459
  375MOL0     C50522  -0.565   2.417   9.082  0.2145 -0.5631 -0.9546
  375MOL0     C50523  -0.562   2.505   8.971  0.9211 -0.4351 -0.0296
  375MOL0     C50524  -0.672   2.502   8.877 -0.1222 -0.3183 -0.0070
  375MOL0     C50525  -0.780   2.415   8.893  0.5636  0.0935  0.2112
  375MOL0     O50526  -0.872   2.415   8.794  0.2572 -0.1930 -0.0893
  375MOL0     C50527  -0.829   2.341   8.679 -0.4870  0.4351 -0.6604
  375MOL0     C50528  -0.939   2.328   8.574 -0.4943 -0.8385 -0.0645
  375MOL0     C50529  -0.887   2.258   8.450 -0.0860  0.3179  0.1133
  375MOL0     C50530  -0.989   2.268   8.335  0.2747 -0.3433 -0.4252
  375MOL0     C50531  -0.923   2.247   8.201  0.0300 -0.0035 -0.0293
  375MOL0     C50532  -1.004   2.251   8.074  1.6936  0.4311  1.0474
  375MOL0     C50533  -1.094   2.374   8.070  0.8027  1.5834 -1.0103
  375MOL0     C50534  -1.167   2.388   7.933 -0.0979 -0.8836 -0.2416
  375MOL0    Cl50535  -1.266   2.249   7.891  0.4020 -0.3655  0.2590
  375MOL0     C50536  -0.788   2.335   9.004  0.7643  0.9533  0.3885
  375MOL0     C50537  -0.682   2.328   9.093 -0.3744 -0.0597  0.4905
  375MOL0     O50538  -0.481   2.628   9.233 -0.1902 -0.7034 -0.0496
  375MOL0     C50539  -0.230   2.589   9.366 -0.5460  0.3368 -1.2641
  375MOL0     C50540  -0.122   2.576   9.456 -0.8204 -0.1824 -1.0927
  375MOL0     N50541   0.350   2.040   9.547  0.8928  0.6053  0.2726
  375MOL0     N50542   0.395   1.967   9.449 -0.3146  0.5015  0.9358
  375MOL0     C50543   0.597   1.543   8.505  0.0815  0.5816 -0.7305
  375MOL0     C50544   0.589   1.427   8.435  0.3003 -0.0069  0.9333
  375MOL0     C50545   0.680   1.162   8.072  0.2970  1.5253 -1.0032
  375MOL0     C50546   0.607   1.168   7.958 -0.1276 -0.1117  0.7887
  375MOL0     C50547   0.577   1.063   7.872 -0.8415  1.2273  0.9138
  375MOL0     C50548   0.636   0.940   7.914  0.8834 -0.4000 -0.2373
  375MOL0     O50549   0.607   0.835   7.833  0.5398 -0.3037  0.4999
  375MOL0     C50550   0.539   0.719   7.889  0.4194 -0.6557  0.3628
  375MOL0     C50551   0.498   0.624   7.784 -0.1526  1.1297 -0.1745
  375MOL0     C50552   0.585   0.616   7.652  0.3965  0.3643 -0.6571
  375MOL0     C50553   0.522   0.514   7.553  0.6016 -0.2698  0.1396
  375MOL0     C50554   0.607   0.478   7.437 -0.4061  0.1520 -0.9072
  375MOL0     C50555   0.693   0.464   7.354  0.8347 -0.1340  0.4201
  375MOL0     C50556   0.693   0.920   8.043 -0.9072 -0.7073  0.6134
  375MOL0     C50557   0.720   1.030   8.121  0.8312  0.2158  0.4913
  375MOL0     H50558   0.925   1.380   8.380 -1.4744 -2.5007 -2.2222
  375MOL0     H50559   0.939   1.574   8.528 -0.1308  1.2393  3.5980
  375MOL0     H50560   0.917   1.705   8.675 -1.1914 -0.9286 -0.2405
  375MOL0     H50561   0.892   1.814   8.526  3.0319  0.7407  1.4501
  375MOL0     H50562   0.924   1.970   8.680  1.8510 -2.6732  2.9487
  375MOL0     H50563   0.745   1.959   8.644 -0.3259  2.9622  2.0310
  375MOL0     H50564   0.697   1.850   8.860 -0.1324 -0.1098 -2.5315
  375MOL0     H50565   0.862   1.828   8.901  0.9142  1.1826 -0.5733
  375MOL0     H50566   0.900   2.065   8.899  0.7785 -3.3333 -1.1151
  375MOL0     H50567   0.745   2.112   8.853  2.6711 -0.2104 -1.6777
  375MOL0     H50568   0.784   1.928   9.099 -2.1697  1.1656  3.0111
  375MOL0     H50569   0.791   2.100   9.114  0.8055  1.9271 -5.0392
  375MOL0     H50570   0.578   2.124   9.020  0.4857 -0.7789 -3.3792
  375MOL0     H50571   0.545   1.948   9.002  2.2878 -2.7183  1.4759
  375MOL0     H50572   0.606   1.939   9.256 -1.3357 -2.2358 -1.3818
  375MOL0     H50573   0.548   2.111   9.255  2.8312 -0.1886  0.1238
  375MOL0     H50574   0.398   1.855   9.188 -2.8360 -1.4760 -0.5760
  375MOL0     H50575   0.348   2.013   9.121  0.8538 -1.3168 -0.6447
  375MOL0     H50576   0.185   2.158   9.292 -1.8478  1.9503  2.0321
  375MOL0     H50577   0.195   2.329   9.522 -1.3212 -0.0889 -3.2522
  375MOL0     H50578   0.063   2.211   9.538  0.3493 -0.7925 -0.4787
  375MOL0     H50579   0.283   2.240   9.742  0.5843 -0.8509 -1.8778
  375MOL0     H50580   0.145   2.136   9.756 -3.4196  2.1679  3.4534
  375MOL0     H50581   0.153   2.440   9.804 -0.5311  0.6048  1.5702
  375MOL0     H50582   0.081   2.318   9.903 -1.3052 -1.5008  0.1113
  375MOL0     H50583  -0.113   2.401   9.809 -0.0748 -0.7107 -0.6356
  375MOL0     H50584  -0.079   2.267   9.707 -3.0800 -0.0032  2.4308
  375MOL0     H50585  -0.267   2.323   9.643 -3.3872  0.1663 -0.2106
  375MOL0     H50586  -0.449   2.235   9.430 -0.3355  0.4327 -1.6260
  375MOL0     H50587  -0.490   2.301   9.596  0.5043 -1.1423 -0.1220
  375MOL0     H50588  -0.569   2.353   9.440  1.4598  0.2154 -2.6847
  375MOL0     H50589  -0.480   2.575   8.961 -0.3803  1.5235  2.0637
  375MOL0     H50590  -0.673   2.560   8.785 -1.1319 -1.2009 -0.5811
  375MOL0     H50591  -0.742   2.394   8.638 -0.3241  0.1427 -0.6975
  375MOL0     H50592  -0.786   2.247   8.714  1.3714  1.3169 -0.4038
  375MOL0     H50593  -1.024   2.274   8.617 -2.8096  2.5331  0.0340
  375MOL0     H50594  -0.986   2.423   8.545  0.3801 -1.1657 -2.8301
  375MOL0     H50595  -0.866   2.153   8.474 -0.5767 -0.3706 -2.1728
  375MOL0     H50596  -0.794   2.298   8.409  2.1305 -1.9163  2.5868
  375MOL0     H50597  -1.067   2.192   8.334 -0.1406  0.0715 -1.7900
  375MOL0     H50598  -1.043   2.362   8.354  0.5872 -0.1651 -0.3991
  375MOL0     H50599  -0.876   2.148   8.205 -1.0882 -0.5079  1.9119
  375MOL0     H50600  -0.856   2.331   8.181  0.4185  0.0850  1.5868
  375MOL0     H50601  -0.942   2.256   7.984 -0.2259 -3.0355 -0.6544
  375MOL0     H50602  -1.074   2.167   8.069  1.3106  0.8040 -2.9274
  375MOL0     H50603  -1.043   2.464   8.105  1.8739  0.0708  1.5896
  375MOL0     H50604  -1.175   2.356   8.141 -0.7677  3.7493 -2.1540
  375MOL0     H50605  -1.093   2.421   7.859 -0.2945  2.2969  0.8675
  375MOL0     H50606  -1.240   2.468   7.941 -0.5126 -1.4560  2.7531
  375MOL0     H50607  -0.871   2.265   9.011  0.3183  1.2807 -1.3627
  375MOL0     H50608  -0.690   2.256   9.174  1.3167 -0.6560  0.1748
  375MOL0     H50609  -0.244   2.675   9.301 -1.6705  3.2248  2.4306
  375MOL0     H50610  -0.042   2.649   9.453 -0.1029 -0.9925 -2.0435
  375MOL0     H50611   0.501   1.591   8.521 -1.5740 -2.6287 -0.1449
  375MOL0     H50612   0.494   1.378   8.412  0.6423 -0.2082 -0.1305
  375MOL0     H50613   0.572   1.267   7.929  1.0344 -0.2325 -1.1503
  375MOL0     H50614   0.528   1.086   7.778  2.5599  2.6765 -0.7045
  375MOL0     H50615   0.612   0.679   7.960  1.4610 -0.0748 -0.3500
  375MOL0     H50616   0.450   0.750   7.945  0.3230 -1.4800  0.6822
  375MOL0     H50617   0.400   0.656   7.747  0.3927  4.1199  0.6780
  375MOL0     H50618   0.503   0.524   7.828 -1.0640 -0.2760 -2.9860
  375MOL0     H50619   0.677   0.574   7.693 -0.1792 -0.2697  0.0057
  375MOL0     H50620   0.581   0.719   7.614  0.2821  1.0003  0.9843
  375MOL0     H50621   0.426   0.557   7.523  1.0213  0.4548 -0.1703
  375MOL0     H50622   0.490   0.422   7.603 -0.7083  0.4485  0.6771
  375MOL0     H50623   0.757   0.438   7.272 -3.9839 -0.5529 -3.6147
  375MOL0     H50624   0.721   0.822   8.081  1.2478 -0.2114  0.4530
  375MOL0     H50625   0.767   1.013   8.218  1.2277  1.3454  0.5141
  376MOL0     O50626   1.955   0.987   7.051 -0.7658 -0.4262 -0.4372
  376MOL0     C50627   1.970   1.070   7.142  0.0811 -0.1588 -1.4264
  376MOL0     O50628   2.075   1.145   7.166 -0.2683  0.1461 -0.2989
  376MOL0     C50629   2.184   1.159   7.082  0.0185  0.2660 -1.5450
  376MOL0     C50630   2.199   1.103   6.959  0.8961  0.2305  0.4221
  376MOL0     C50631   2.292   1.147   6.861 -1.1665  0.5731  0.4261
  376MOL0     C50632   2.399   1.232   6.906 -0.0529 -0.0511  0.1353
  376MOL0     O50633   2.498   1.257   6.815  0.1990 -0.3692 -1.3755
  376MOL0     C50634   2.513   1.397   6.799  0.2746  1.0155  0.3188
  376MOL0     C50635   2.403   1.469   6.713  0.8366 -0.0519 -0.4619
  376MOL0     C50636   2.412   1.428   6.568  0.2379  0.1524  0.6720
  376MOL0     C50637   2.277   1.457   6.505 -0.1566 -0.7933  0.1452
  376MOL0     C50638   2.274   1.431   6.352 -0.4079 -0.0620  0.1665
  376MOL0     C50639   2.140   1.471   6.283  0.4197 -0.0900 -1.1040
  376MOL0     C50640   2.140   1.479   6.139  0.5429 -0.4197 -1.0069
  376MOL0     C50641   2.077   1.365   6.065  0.6816 -1.0495 -0.1118
  376MOL0     N50642   2.105   1.386   5.924 -0.7666 -0.0298 -0.8104
  376MOL0     C50643   2.033   1.483   5.861 -0.3319 -0.5153  0.6404
  376MOL0     C50644   2.076   1.476   5.729  0.2028  0.0820  0.2973
  376MOL0     C50645   2.015   1.558   5.619  0.4031  0.0195  0.0811
  376MOL0     C50646   1.980   1.468   5.497  0.7147 -0.4034 -0.2791
  376MOL0     C50647   1.866   1.529   5.409  0.1813 -0.3045  0.2597
  376MOL0     C50648   1.827   1.435   5.298  0.5690 -0.5777 -1.0963
  376MOL0     O50649   1.737   1.509   5.217  0.3288 -0.0960 -0.2645
  376MOL0     C50650   1.603   1.511   5.243 -1.1415  0.5889 -0.6713
  376MOL0     C50651   1.525   1.559   5.137 -0.4205 -0.2694 -0.6775
  376MOL0     C50652   1.388   1.551   5.144  0.3178  0.7868 -0.5255
  376MOL0     C50653   1.298   1.627   5.032  0.3384 -0.0418 -0.0319
  376MOL0     C50654   1.323   1.498   5.257 -0.6278  0.2443  0.5071
  376MOL0     C50655   1.181   1.500   5.279  0.7118 -0.1272  0.0255
  376MOL0     O50656   1.134   1.509   5.407 -0.8830  0.0523  0.7854
  376MOL0     C50657   0.999   1.506   5.426  1.6550  0.3441 -0.5922
  376MOL0     C50658   0.901   1.581   5.342  0.0950  0.4586  0.5868
  376MOL0     C50659   0.769   1.587   5.390 -0.5198 -0.0811 -0.7692
  376MOL0     C50660   0.719   1.527   5.501 -0.0477  0.8800  0.1741
  376MOL0     O50661   0.578   1.525   5.517 -0.3765  0.5663 -0.3343
  376MOL0     C50662   0.542   1.500   5.650 -0.2601  0.2311  0.3403
  376MOL0     C50663   0.388   1.495   5.651 -0.6228  0.1294 -0.1076
  376MOL0     C50664   0.337   1.422   5.777 -0.0959  0.3361 -1.2838
  376MOL0     C50665   0.189   1.387   5.777 -0.5340 -0.9831 -0.3830
  376MOL0     C50666   0.099   1.522   5.785  0.0902  0.3115 -0.2646
  376MOL0     C50667  -0.048   1.501   5.833 -0.1046 -0.1696 -0.7852
  376MOL0     C50668  -0.102   1.599   5.940  0.1558  0.4112  0.3485
  376MOL0     C50669  -0.091   1.750   5.891 -0.1828  0.0242 -0.9570
  376MOL0    Cl50670  -0.225   1.784   5.778  0.0426 -0.3572  0.1088
  376MOL0     C50671   0.821   1.472   5.588 -0.5358 -0.2174  0.3251
  376MOL0     C50672   0.954   1.465   5.551 -0.5541 -0.0220  0.3938
  376MOL0     O50673   1.103   1.491   5.180 -0.0879  0.5810  0.0450
  376MOL0     C50674   1.403   1.444   5.357 -0.8739  0.7910  0.4506
  376MOL0     C50675   1.541   1.446   5.350  0.9134 -0.1325 -0.6613
  376MOL0     N50676   2.173   1.376   5.727 -0.8819 -0.7741  0.2550
  376MOL0     N50677   2.186   1.321   5.842 -0.1464 -0.1982  0.3021
  376MOL0     C50678   2.393   1.281   7.041  0.4149  0.0496 -1.2798
  376MOL0     C50679   2.288   1.246   7.130  0.5912  0.2492  1.3733
  376MOL0     C50680   1.854   1.087   7.229  1.2048 -0.1926  0.0983
  376MOL0     C50681   1.728   1.037   7.185  0.6079 -0.2045  1.0726
  376MOL0     C50682   1.607   1.033   7.260  0.1151 -0.0432 -0.3467
  376MOL0     C50683   1.614   1.089   7.395  0.2981  0.6903  0.5114
  376MOL0     O50684   1.510   1.086   7.480 -0.5367 -0.5964  0.0900
  376MOL0     C50685   1.507   1.198   7.571 -0.2319 -0.3291 -0.2958
  376MOL0     C50686   1.359   1.225   7.594 -0.4082  0.7207  0.8839
  376MOL0     C50687   1.357   1.325   7.703  0.5654  0.0239 -0.4101
  376MOL0     C50688   1.223   1.409   7.702 -0.2601 -0.6536 -0.1299
  376MOL0     C50689   1.234   1.517   7.600  0.4805  0.0536 -0.3633
  376MOL0     C50690   1.224   1.597   7.511 -0.6105 -0.0554 -0.1764
  376MOL0     C50691   1.742   1.131   7.447 -0.3552 -0.2776 -0.2127
  376MOL0     C50692   1.859   1.128   7.361 -0.5090  0.1538 -0.8575
  376MOL0     H50693   2.130   1.036   6.910  1.4624 -0.1608  0.1552
  376MOL0     H50694   2.306   1.114   6.758  2.6613  0.4841  0.8621
  376MOL0     H50695   2.529   1.456   6.890  0.6954  2.3153 -0.5741
  376MOL0     H50696   2.610   1.412   6.752  0.1963 -1.3645 -0.7328
  376MOL0     H50697   2.303   1.449   6.754  1.6457 -0.8440  1.1888
  376MOL0     H50698   2.417   1.577   6.721 -6.8845  1.5469 -0.6525
  376MOL0     H50699   2.500   1.473   6.522  0.8005 -0.9461  0.6510
  376MOL0     H50700   2.433   1.322   6.551  0.4832  0.0668  1.4856
  376MOL0     H50701   2.197   1.391   6.542  0.6721 -0.7968  2.0698
  376MOL0     H50702   2.258   1.563   6.526  1.7188  0.0191 -1.8888
  376MOL0     H50703   2.347   1.497   6.305 -0.7959 -0.6509 -1.3127
  376MOL0     H50704   2.310   1.330   6.328  1.0115  0.4693  0.0031
  376MOL0     H50705   2.072   1.397   6.326  0.9595  1.8260  3.7239
  376MOL0     H50706   2.094   1.564   6.319 -0.8776 -0.2905 -2.1859
  376MOL0     H50707   2.095   1.573   6.106 -2.3573 -0.9191  1.1257
  376MOL0     H50708   2.244   1.484   6.104  1.7272  0.1070  2.2307
  376MOL0     H50709   1.970   1.358   6.087  0.2493 -1.3465 -2.1741
  376MOL0     H50710   2.118   1.273   6.109  1.8823  0.3148  1.8188
  376MOL0     H50711   1.958   1.553   5.897 -2.2309 -3.5397  3.0605
  376MOL0     H50712   1.927   1.613   5.652 -0.0978  0.2283 -1.5242
  376MOL0     H50713   2.080   1.641   5.592  2.8997 -2.4462 -2.1790
  376MOL0     H50714   1.952   1.368   5.532 -2.3998  1.1159  1.9561
  376MOL0     H50715   2.066   1.451   5.431 -1.1173 -0.9355 -2.6903
  376MOL0     H50716   1.896   1.626   5.368 -0.5385  0.1906  0.8672
  376MOL0     H50717   1.781   1.548   5.476 -0.2451  5.2686 -1.3600
  376MOL0     H50718   1.789   1.340   5.336 -2.3489  0.6482 -0.6354
  376MOL0     H50719   1.912   1.437   5.230 -1.2543  1.0316 -3.5086
  376MOL0     H50720   1.580   1.616   5.063 -0.9007  1.7782  0.4891
  376MOL0     H50721   1.244   1.550   4.977 -3.7484  0.2051  3.1441
  376MOL0     H50722   1.214   1.683   5.074  1.5848  2.0385 -0.1925
  376MOL0     H50723   1.354   1.689   4.961 -0.2793 -1.0985 -1.4964
  376MOL0     H50724   0.919   1.638   5.251  0.2113  0.8390  0.8476
  376MOL0     H50725   0.702   1.642   5.325  2.2012  4.1688 -0.3555
  376MOL0     H50726   0.588   1.406   5.682 -0.8277 -0.2473 -0.2220
  376MOL0     H50727   0.582   1.578   5.716  1.0897  1.6044 -1.9502
  376MOL0     H50728   0.350   1.598   5.644 -3.2742 -0.5256  2.4508
  376MOL0     H50729   0.375   1.438   5.559  1.8537 -0.4051 -0.1861
  376MOL0     H50730   0.355   1.477   5.870 -1.8012 -3.1647  1.3259
  376MOL0     H50731   0.388   1.326   5.786 -1.1529 -0.2124 -1.0244
  376MOL0     H50732   0.158   1.348   5.680 -0.5997 -1.2111 -0.2736
  376MOL0     H50733   0.156   1.315   5.854  1.0492  0.0555  1.3415
  376MOL0     H50734   0.105   1.565   5.684  1.2987  0.3663 -0.1866
  376MOL0     H50735   0.139   1.591   5.860  1.9057  0.7556 -1.5605
  376MOL0     H50736  -0.109   1.486   5.743 -1.5857 -0.1998  0.1942
  376MOL0     H50737  -0.049   1.402   5.880  0.6871  0.1931  0.0403
  376MOL0     H50738  -0.054   1.598   6.038 -1.9176  2.3519  1.4879
  376MOL0     H50739  -0.203   1.559   5.957  0.6429  0.0287  2.6589
  376MOL0     H50740   0.005   1.772   5.844  0.3250  1.1329  0.5270
  376MOL0     H50741  -0.102   1.816   5.977 -3.4397 -2.5976  0.8939
  376MOL0     H50742   0.791   1.424   5.680  0.4596 -1.9746 -0.2058
  376MOL0     H50743   1.024   1.413   5.616 -1.5051  0.3490  1.7732
  376MOL0     H50744   1.354   1.409   5.448 -1.5198  0.2896 -0.0806
  376MOL0     H50745   1.600   1.408   5.432 -0.8271  0.8906  1.1629
  376MOL0     H50746   2.466   1.356   7.071  0.4737  0.0712 -1.4780
  376MOL0     H50747   2.283   1.283   7.232  0.8294  2.8202  0.5481
  376MOL0     H50748   1.712   0.996   7.086  0.6984 -0.2214  1.0653
  376MOL0     H50749   1.512   0.992   7.225 -0.0768 -0.3433  0.5136
  376MOL0     H50750   1.559   1.179   7.665  0.1161  1.6927 -0.0351
  376MOL0     H50751   1.552   1.284   7.520  0.3576 -0.8106 -0.6031
  376MOL0     H50752   1.301   1.143   7.637 -2.0513  2.9187  3.1364
  376MOL0     H50753   1.315   1.267   7.504 -0.2542 -1.4474 -0.2536
  376MOL0     H50754   1.445   1.390   7.702  0.4370  0.2034 -0.2196
  376MOL0     H50755   1.349   1.269   7.796 -0.1495 -0.3062 -0.6649
  376MOL0     H50756   1.209   1.458   7.799  2.8056 -1.3805  0.7889
  376MOL0     H50757   1.141   1.339   7.686 -1.3300  0.4875  0.2000
  376MOL0     H50758   1.238   1.670   7.434 -1.2339 -1.2461 -1.4771
  376MOL0     H50759   1.751   1.172   7.547 -5.0906  3.3175 -0.8741
  376MOL0     H50760   1.953   1.166   7.400 -0.3537 -0.6906 -0.3897
  377MOL0     O50761   0.316   0.663   9.609  0.3542 -0.6135  0.2179
  377MOL0     C50762   0.431   0.686   9.649 -0.5330  0.3548  0.0493
  377MOL0     O50763   0.512   0.595   9.717 -0.2112 -0.5510  1.1172
  377MOL0     C50764   0.448   0.472   9.732 -0.2979  0.5090  0.7333
  377MOL0     C50765   0.357   0.451   9.839  0.6997  1.1863  1.1860
  377MOL0     C50766   0.305   0.321   9.851  0.9005  0.0452  0.4817
  377MOL0     C50767   0.323   0.220   9.752  0.2342  0.7494  0.6349
  377MOL0     O50768   0.276   0.097   9.778 -0.0225  0.0438 -0.0260
  377MOL0     C50769   0.158   0.069   9.697  0.0155  0.4733 -0.1723
  377MOL0     C50770   0.189  -0.030   9.581  0.3147 -1.0447 -0.0776
  377MOL0     C50771   0.207  -0.172   9.630  0.3260 -0.8434 -0.0148
  377MOL0     C50772   0.285  -0.237   9.506  0.2349  0.2720  0.5977
  377MOL0     C50773   0.291  -0.392   9.535 -0.7226 -0.5598  0.8237
  377MOL0     C50774   0.394  -0.439   9.438  0.1877 -0.7371 -0.4788
  377MOL0     C50775   0.318  -0.489   9.317  0.3166 -0.3702 -0.4257
  377MOL0     C50776   0.413  -0.587   9.250  0.2563 -0.7226 -0.1394
  377MOL0     N50777   0.347  -0.637   9.121 -0.9030  0.9933 -0.2294
  377MOL0     C50778   0.326  -0.771   9.096  0.1922 -0.2639 -0.3957
  377MOL0     C50779   0.272  -0.782   8.969  0.2124 -0.3059  0.3971
  377MOL0     C50780   0.244  -0.905   8.894 -0.7468 -0.7594 -0.5837
  377MOL0     C50781   0.238  -0.891   8.746 -0.3140  0.5105  0.0547
  377MOL0     C50782   0.205  -1.023   8.685 -0.0956 -0.0033 -0.2543
  377MOL0     C50783   0.144  -1.009   8.546  0.4928  0.8666  0.1219
  377MOL0     O50784   0.014  -0.934   8.532  0.3793  0.4963  0.7834
  377MOL0     C50785  -0.040  -0.950   8.404 -0.8616 -0.1753 -0.6942
  377MOL0     C50786  -0.163  -0.891   8.392  0.6105 -0.0361  0.9723
  377MOL0     C50787  -0.225  -0.866   8.277  1.0018  0.6762 -0.0912
  377MOL0     C50788  -0.378  -0.836   8.295  0.6842  0.5948 -0.0583
  377MOL0     C50789  -0.167  -0.908   8.155 -0.1666 -0.3757  0.0393
  377MOL0     C50790  -0.213  -0.891   8.012  0.9389  0.1318 -0.7418
  377MOL0     O50791  -0.132  -0.936   7.910 -0.1577 -0.3187 -0.8187
  377MOL0     C50792  -0.179  -0.935   7.782 -0.7131 -0.3443 -0.9088
  377MOL0     C50793  -0.231  -1.038   7.715  1.7035 -0.6886 -0.5824
  377MOL0     C50794  -0.266  -1.022   7.577 -0.2841  0.1273 -0.6705
  377MOL0     C50795  -0.244  -0.908   7.505 -0.0415 -0.7647  0.8211
  377MOL0     O50796  -0.259  -0.884   7.369  0.1103  0.9529  0.5762
  377MOL0     C50797  -0.323  -0.986   7.284  0.6786 -0.0474 -0.3125
  377MOL0     C50798  -0.474  -0.969   7.283 -0.0496  0.2215  0.6558
  377MOL0     C50799  -0.560  -1.076   7.213  0.5393  0.3420 -0.2024
  377MOL0     C50800  -0.667  -1.139   7.304 -0.8767 -0.4957  0.5931
  377MOL0     C50801  -0.623  -1.225   7.428 -0.1250  0.2720  0.7590
  377MOL0     C50802  -0.526  -1.337   7.394 -0.3161 -0.0696  0.2441
  377MOL0     C50803  -0.575  -1.467   7.458  0.7944  0.9898 -0.3192
  377MOL0     C50804  -0.464  -1.551   7.534 -0.2179 -0.3287  1.2617
  377MOL0    Cl50805  -0.387  -1.441   7.642  0.0243  0.0321 -0.2955
  377MOL0     C50806  -0.202  -0.799   7.578  0.3533  0.2713 -0.3336
  377MOL0     C50807  -0.177  -0.813   7.723  0.2968 -0.3284  0.1291
  377MOL0     O50808  -0.318  -0.829   8.001 -0.5295  0.5608 -0.1178
  377MOL0     C50809  -0.041  -0.974   8.168  0.0838 -1.9084 -0.6375
  377MOL0     C50810   0.025  -0.984   8.292 -0.6191 -0.1991  0.4152
  377MOL0     N50811   0.258  -0.653   8.930 -1.0243 -0.4803  0.6407
  377MOL0     N50812   0.316  -0.573   9.011  0.3339 -0.4064  0.5844
  377MOL0     C50813   0.420   0.239   9.652  0.4119 -0.0336  0.3269
  377MOL0     C50814   0.477   0.366   9.640 -0.3815 -0.1784  1.0217
  377MOL0     C50815   0.494   0.818   9.626 -1.1812  1.1801  0.6675
  377MOL0     C50816   0.616   0.848   9.677 -0.4293 -0.3640  0.9554
  377MOL0     C50817   0.673   0.970   9.657  1.3395  0.1039 -0.4173
  377MOL0     C50818   0.605   1.071   9.591 -0.1631 -0.4948  0.0650
  377MOL0     O50819   0.643   1.204   9.585 -0.1810  0.4151  0.1279
  377MOL0     C50820   0.757   1.249   9.649  0.7946  0.2382  0.2347
  377MOL0     C50821   0.723   1.399   9.675  0.1232  0.0670 -0.4435
  377MOL0     C50822   0.849   1.458   9.750 -0.3100 -0.4927 -0.1074
  377MOL0     C50823   0.860   1.417   9.896 -0.2672  0.5544  0.0365
  377MOL0     C50824   0.754   1.469   9.981  1.3133 -0.0823 -0.0502
  377MOL0     C50825   0.662   1.510  10.060 -0.3548 -0.6141 -0.3223
  377MOL0     C50826   0.481   1.041   9.531  0.2738  0.6624  0.6458
  377MOL0     C50827   0.422   0.920   9.551 -0.6979  0.1266 -0.6347
  377MOL0     H50828   0.331   0.540   9.897  1.0251  4.4341 -3.0882
  377MOL0     H50829   0.238   0.307   9.935  0.5116 -3.5265 -0.2474
  377MOL0     H50830   0.081   0.025   9.760  2.0575 -1.3871  1.1759
  377MOL0     H50831   0.115   0.157   9.649  0.4824  0.1397 -1.2309
  377MOL0     H50832   0.093  -0.004   9.536 -0.3668  2.7239  2.9700
  377MOL0     H50833   0.275   0.005   9.523  0.7255  1.2840  1.7424
  377MOL0     H50834   0.261  -0.178   9.725 -4.2415 -0.7850  2.8424
  377MOL0     H50835   0.118  -0.234   9.644 -0.5106  0.5329  0.9581
  377MOL0     H50836   0.237  -0.222   9.409  0.2122 -0.0341  0.5621
  377MOL0     H50837   0.383  -0.190   9.497  0.7709 -1.2763 -3.1909
  377MOL0     H50838   0.322  -0.406   9.639 -3.2388  0.1200  1.7468
  377MOL0     H50839   0.192  -0.438   9.527 -0.4175 -1.5917  2.6145
  377MOL0     H50840   0.455  -0.356   9.402 -1.9674  1.3331  0.3732
  377MOL0     H50841   0.448  -0.522   9.486 -1.5982 -1.5251  0.2612
  377MOL0     H50842   0.226  -0.538   9.350 -2.2764  3.6920 -0.9091
  377MOL0     H50843   0.287  -0.408   9.249 -0.1200  0.2011  0.4397
  377MOL0     H50844   0.443  -0.665   9.321  3.3392 -0.0076 -0.4877
  377MOL0     H50845   0.501  -0.524   9.234 -0.8873  1.8256  2.6909
  377MOL0     H50846   0.330  -0.842   9.178 -2.5444  0.9900  0.9722
  377MOL0     H50847   0.331  -0.970   8.909  0.8684  0.1107 -4.7906
  377MOL0     H50848   0.156  -0.956   8.934 -1.3067 -3.4752 -4.6619
  377MOL0     H50849   0.334  -0.856   8.707  1.8305 -2.6916  1.9645
  377MOL0     H50850   0.158  -0.820   8.726  0.1578  1.6729  2.0103
  377MOL0     H50851   0.155  -1.088   8.757  1.8571  0.7499  1.9220
  377MOL0     H50852   0.299  -1.078   8.673 -0.4149 -0.7427  0.6007
  377MOL0     H50853   0.131  -1.108   8.502 -0.0178  0.6804  0.6773
  377MOL0     H50854   0.215  -0.955   8.482 -1.3167  4.6875  1.0373
  377MOL0     H50855  -0.214  -0.862   8.483 -0.5698 -3.8028  1.7097
  377MOL0     H50856  -0.402  -0.854   8.401  1.0853 -1.0034 -0.2171
  377MOL0     H50857  -0.411  -0.741   8.253 -1.0149 -0.1372 -0.4670
  377MOL0     H50858  -0.417  -0.917   8.233 -1.0769  1.6931 -0.4653
  377MOL0     H50859  -0.238  -1.135   7.763  1.0305  0.3965  1.6711
  377MOL0     H50860  -0.313  -1.105   7.524 -0.0767 -0.0313 -0.6072
  377MOL0     H50861  -0.279  -0.986   7.184 -1.1562 -0.3452 -1.1647
  377MOL0     H50862  -0.293  -1.088   7.309 -1.2666 -0.0501  2.3914
  377MOL0     H50863  -0.509  -0.969   7.387  1.6856 -1.7766  1.3138
  377MOL0     H50864  -0.492  -0.874   7.232  2.5104  0.7010  0.5273
  377MOL0     H50865  -0.494  -1.153   7.171 -1.3867 -2.4121  1.5204
  377MOL0     H50866  -0.603  -1.031   7.123  2.3389  0.8124 -0.8731
  377MOL0     H50867  -0.746  -1.070   7.336 -1.1872 -0.1319 -0.8382
  377MOL0     H50868  -0.719  -1.213   7.243 -1.3660 -1.9388  2.6815
  377MOL0     H50869  -0.710  -1.267   7.478  1.7378 -2.1742  2.2103
  377MOL0     H50870  -0.576  -1.159   7.502  0.1731  1.3998 -0.4115
  377MOL0     H50871  -0.519  -1.358   7.287  1.1427 -2.8797  0.7903
  377MOL0     H50872  -0.428  -1.307   7.430 -1.5282  1.7555  2.2785
  377MOL0     H50873  -0.627  -1.535   7.390  0.4325 -0.4586  1.3145
  377MOL0     H50874  -0.647  -1.440   7.536 -0.9422 -0.1161 -1.4675
  377MOL0     H50875  -0.401  -1.599   7.458 -1.6441  0.1158 -0.2714
  377MOL0     H50876  -0.501  -1.628   7.602  2.5739 -1.8201  1.2371
  377MOL0     H50877  -0.194  -0.706   7.522 -1.9885  0.0977 -1.0744
  377MOL0     H50878  -0.130  -0.731   7.778 -0.8832  1.1959 -1.0330
  377MOL0     H50879   0.009  -1.018   8.083 -1.0376 -3.7921 -0.3847
  377MOL0     H50880   0.124  -1.027   8.285 -0.7497 -0.2803 -1.7194
  377MOL0     H50881   0.437   0.156   9.583 -3.7410 -0.4600 -0.4406
  377MOL0     H50882   0.556   0.384   9.569  0.4930 -0.1940  1.9676
  377MOL0     H50883   0.672   0.775   9.735  0.7035 -0.1928  0.1285
  377MOL0     H50884   0.769   0.982   9.706  0.6938  0.8524  0.7257
  377MOL0     H50885   0.786   1.196   9.740 -0.4243 -1.0262 -0.0800
  377MOL0     H50886   0.844   1.239   9.583 -1.2691 -1.1671 -2.4711
  377MOL0     H50887   0.633   1.416   9.735  0.6317  0.5805  0.1877
  377MOL0     H50888   0.707   1.449   9.580  1.3762  0.8286 -0.2740
  377MOL0     H50889   0.841   1.567   9.747  2.8419 -0.1850 -0.2100
  377MOL0     H50890   0.934   1.423   9.691 -1.1434  0.6598 -2.0937
  377MOL0     H50891   0.953   1.465   9.928  1.1777 -1.0030 -1.5753
  377MOL0     H50892   0.857   1.307   9.893  1.4467  0.5042 -1.1338
  377MOL0     H50893   0.576   1.552  10.109 -0.0631  1.2316 -1.2936
  377MOL0     H50894   0.431   1.109   9.462  3.2025 -0.6029 -3.0857
  377MOL0     H50895   0.329   0.900   9.499 -0.8645 -2.3229  0.4673
  378MOL0     O50896   1.021   7.222   9.453  0.6260 -0.0330 -0.3663
  378MOL0     C50897   1.012   7.132   9.371 -0.3012 -0.1721  0.0891
  378MOL0     O50898   1.012   7.151   9.240  0.6465 -0.3845 -0.2692
  378MOL0     C50899   1.065   7.267   9.178  0.0181  0.1272 -0.2440
  378MOL0     C50900   0.987   7.341   9.084  0.1756 -0.9506  0.6336
  378MOL0     C50901   1.044   7.461   9.035  0.7418 -0.6784  0.7173
  378MOL0     C50902   1.176   7.491   9.054 -0.4027 -0.7384 -0.5265
  378MOL0     O50903   1.251   7.582   8.982  0.4550 -0.3922 -0.2811
  378MOL0     C50904   1.206   7.718   8.993  0.8069 -0.3931  0.4815
  378MOL0     C50905   1.332   7.803   8.984  0.0410 -0.5707 -0.6590
  378MOL0     C50906   1.431   7.762   9.096 -0.1527  0.3787 -0.2248
  378MOL0     C50907   1.559   7.685   9.055  0.0279 -0.6357  0.0108
  378MOL0     C50908   1.673   7.672   9.172  0.8095 -1.2958 -0.3722
  378MOL0     C50909   1.785   7.576   9.140 -0.4737 -0.0024 -0.5473
  378MOL0     C50910   1.733   7.429   9.128 -0.6795 -0.3452  0.2120
  378MOL0     C50911   1.839   7.339   9.056  0.2853 -0.1779  0.3091
  378MOL0     N50912   1.813   7.199   9.071 -0.0643  0.6208  1.3116
  378MOL0     C50913   1.872   7.106   9.150 -0.6648  0.4466 -0.3060
  378MOL0     C50914   1.839   6.987   9.103  0.9117 -0.4509 -0.4428
  378MOL0     C50915   1.882   6.849   9.153 -0.3061  0.7428  0.1584
  378MOL0     C50916   1.960   6.768   9.051  0.2702  0.9715  0.0000
  378MOL0     C50917   1.870   6.684   8.961  0.4849 -0.6759  0.0808
  378MOL0     C50918   1.945   6.589   8.870 -0.6756 -0.3883  0.2142
  378MOL0     O50919   1.987   6.473   8.943  0.0287 -0.2856  0.2931
  378MOL0     C50920   2.121   6.468   8.986 -0.0266 -0.7038  1.4771
  378MOL0     C50921   2.226   6.563   8.960  0.3199  0.3934  0.4895
  378MOL0     C50922   2.348   6.538   9.029 -0.8415  0.7833  0.1295
  378MOL0     C50923   2.457   6.646   9.019  0.5540 -0.0472 -0.5116
  378MOL0     C50924   2.371   6.419   9.110  0.3387 -0.5433 -0.5789
  378MOL0     C50925   2.496   6.382   9.179  1.0708  0.8320  0.7043
  378MOL0     O50926   2.505   6.255   9.242 -0.0944  0.0890  0.6770
  378MOL0     C50927   2.632   6.209   9.289  1.2611  0.4152 -0.8056
  378MOL0     C50928   2.623   6.094   9.362 -0.2363 -0.8205  0.2499
  378MOL0     C50929   2.736   6.021   9.397  0.1563  0.2293  0.6277
  378MOL0     C50930   2.863   6.051   9.331  0.5378 -1.0958 -0.6059
  378MOL0     O50931   2.967   5.967   9.348 -0.3165 -0.0148 -0.8541
  378MOL0     C50932   3.096   5.984   9.305 -0.9596 -0.3002  0.4867
  378MOL0     C50933   3.158   5.839   9.317 -0.1894 -0.5641 -0.3211
  378MOL0     C50934   3.303   5.865   9.284  0.2034  0.1478 -0.0374
  378MOL0     C50935   3.374   5.741   9.238  0.3968 -0.3559 -0.1116
  378MOL0     C50936   3.500   5.744   9.161 -0.0792  0.1924 -0.3322
  378MOL0     C50937   3.557   5.596   9.150 -0.0663  0.0062 -0.0343
  378MOL0     C50938   3.694   5.594   9.076 -0.7430  0.9828  0.0521
  378MOL0     C50939   3.806   5.556   9.167 -0.1063 -0.2701 -0.1864
  378MOL0    Cl50940   3.845   5.661   9.308  0.1236 -0.0351 -0.0056
  378MOL0     C50941   2.873   6.171   9.265 -0.1587  0.8465 -0.1205
  378MOL0     C50942   2.753   6.244   9.236  0.0594 -0.1338 -0.7009
  378MOL0     O50943   2.578   6.471   9.203  0.6199  0.1317  0.4068
  378MOL0     C50944   2.261   6.334   9.120 -0.8543 -0.2113 -0.3028
  378MOL0     C50945   2.142   6.355   9.057 -0.4587 -0.0786  0.6141
  378MOL0     N50946   1.756   7.003   8.996  0.7187 -0.4983  0.7003
  378MOL0     N50947   1.747   7.127   8.979 -0.2836 -0.0576  1.0123
  378MOL0     C50948   1.245   7.402   9.132  0.0844 -0.6931 -0.5252
  378MOL0     C50949   1.192   7.304   9.213 -0.2138  0.1729  0.0561
  378MOL0     C50950   0.997   6.996   9.419  0.9303 -0.0964  0.8963
  378MOL0     C50951   1.049   6.879   9.352  0.5874  0.3220 -0.5017
  378MOL0     C50952   1.069   6.755   9.414  0.1406 -0.6005 -0.5694
  378MOL0     C50953   1.023   6.736   9.543 -0.2433 -0.4976 -0.7823
  378MOL0     O50954   1.041   6.621   9.614  0.7905  0.1040 -0.1194
  378MOL0     C50955   1.145   6.529   9.583 -0.5423  0.0701 -0.4559
  378MOL0     C50956   1.089   6.406   9.519  0.0115 -0.0418 -0.1369
  378MOL0     C50957   0.977   6.348   9.596  0.3392  0.1564 -0.0676
  378MOL0     C50958   0.959   6.198   9.598 -0.7281 -0.0159 -0.1718
  378MOL0     C50959   1.078   6.121   9.651  0.0626 -0.3082  0.9160
  378MOL0     C50960   1.180   6.080   9.703 -1.3761  0.9918 -0.7214
  378MOL0     C50961   0.982   6.846   9.617 -0.0595 -0.3914 -0.3217
  378MOL0     C50962   0.975   6.974   9.555  0.5543 -0.0983  0.3379
  378MOL0     H50963   0.883   7.323   9.056 -0.3680  3.4132 -0.9188
  378MOL0     H50964   0.995   7.514   8.954  0.3254 -0.3236  1.1954
  378MOL0     H50965   1.138   7.745   8.912  0.0464 -0.3299  1.1226
  378MOL0     H50966   1.153   7.735   9.088  2.1976 -3.6179  1.9939
  378MOL0     H50967   1.384   7.787   8.889 -1.3156  0.8224 -1.6780
  378MOL0     H50968   1.293   7.904   8.999 -2.7619 -1.7579  0.7600
  378MOL0     H50969   1.461   7.854   9.147  0.8235  1.1521 -2.0945
  378MOL0     H50970   1.381   7.705   9.175 -0.5302  2.8311  1.4045
  378MOL0     H50971   1.529   7.589   9.013  2.8209 -2.1374  1.1571
  378MOL0     H50972   1.610   7.726   8.967 -0.1714 -0.7421 -0.1551
  378MOL0     H50973   1.719   7.771   9.181 -3.2434  1.0651 -2.5293
  378MOL0     H50974   1.640   7.648   9.273 -2.2113 -1.3214 -1.2673
  378MOL0     H50975   1.838   7.598   9.047 -2.3557 -0.3052 -1.7485
  378MOL0     H50976   1.866   7.583   9.214 -1.3609 -1.0354  0.5670
  378MOL0     H50977   1.714   7.398   9.232 -1.1920  0.7802  0.4640
  378MOL0     H50978   1.638   7.421   9.074 -1.5061 -1.1994  1.6979
  378MOL0     H50979   1.939   7.346   9.101 -0.3668  1.1104  1.6221
  378MOL0     H50980   1.836   7.372   8.952  1.3789 -1.4450 -0.1662
  378MOL0     H50981   1.949   7.126   9.225 -0.7172  1.7278 -0.5699
  378MOL0     H50982   1.947   6.875   9.237  2.0449  2.8964 -2.1494
  378MOL0     H50983   1.794   6.804   9.200  0.5652 -1.0920  0.1048
  378MOL0     H50984   2.046   6.717   9.094  0.4243 -0.3164 -1.7413
  378MOL0     H50985   2.005   6.835   8.978  2.4195 -0.7819 -0.3911
  378MOL0     H50986   1.826   6.755   8.891  0.0321 -0.5131  0.5201
  378MOL0     H50987   1.794   6.634   9.022 -1.5960  2.4088  0.2574
  378MOL0     H50988   2.036   6.641   8.841 -1.1129 -0.4229 -1.2636
  378MOL0     H50989   1.895   6.560   8.777  0.9579  2.4529 -1.6832
  378MOL0     H50990   2.221   6.659   8.910  0.1027  2.7872  4.6528
  378MOL0     H50991   2.430   6.704   8.931 -0.9526 -3.3155 -2.3464
  378MOL0     H50992   2.460   6.707   9.110  2.1980 -3.9795  2.3760
  378MOL0     H50993   2.557   6.606   8.999  1.8166  1.7437  1.6791
  378MOL0     H50994   2.527   6.062   9.400 -2.9320  2.1946 -3.2670
  378MOL0     H50995   2.714   5.941   9.467 -0.0099 -1.7749 -1.6006
  378MOL0     H50996   3.102   6.011   9.199  0.7865  2.2960  1.1605
  378MOL0     H50997   3.154   6.057   9.362 -0.2988  0.9045 -1.6121
  378MOL0     H50998   3.151   5.802   9.420 -1.6159 -0.1503 -0.2502
  378MOL0     H50999   3.112   5.770   9.245 -4.0537 -0.5028  1.8095
  378MOL0     H51000   3.344   5.919   9.369 -0.2957 -0.0525  0.3345
  378MOL0     H51001   3.296   5.931   9.197 -4.4341 -0.8331 -0.6834
  378MOL0     H51002   3.379   5.676   9.326 -2.6873  0.7105  0.9629
  378MOL0     H51003   3.306   5.702   9.162 -2.1126  3.3111  0.0212
  378MOL0     H51004   3.568   5.813   9.212 -3.1221  2.3343  1.1638
  378MOL0     H51005   3.491   5.792   9.063 -0.8990 -1.2985 -1.0135
  378MOL0     H51006   3.566   5.559   9.252  1.4132  1.8565  0.5705
  378MOL0     H51007   3.487   5.537   9.090 -2.6272  2.3375  0.4429
  378MOL0     H51008   3.717   5.693   9.036  0.2876  0.3893 -0.8897
  378MOL0     H51009   3.689   5.512   9.004 -0.9935  1.2362 -0.2226
  378MOL0     H51010   3.898   5.542   9.110 -0.1594  2.2218 -0.9821
  378MOL0     H51011   3.771   5.461   9.210 -1.4856  1.5497  3.0144
  378MOL0     H51012   2.966   6.208   9.223  0.1456 -0.8714 -1.0366
  378MOL0     H51013   2.768   6.333   9.175  1.4634  0.3221  0.2476
  378MOL0     H51014   2.278   6.233   9.157  2.5415  0.5345  0.4849
  378MOL0     H51015   2.063   6.283   9.079  1.9687 -3.4506 -0.8544
  378MOL0     H51016   1.349   7.432   9.142 -0.7271  2.3401 -0.0482
  378MOL0     H51017   1.250   7.246   9.284  1.9078  1.5704 -0.4312
  378MOL0     H51018   1.066   6.903   9.247  2.4834 -0.4835 -0.4043
  378MOL0     H51019   1.107   6.681   9.345  1.9347  0.1901 -0.4721
  378MOL0     H51020   1.229   6.584   9.539  0.5916 -2.1798 -1.2601
  378MOL0     H51021   1.177   6.489   9.679 -1.4397 -3.1069 -1.3546
  378MOL0     H51022   1.174   6.340   9.502 -0.9872 -1.5163  0.3453
  378MOL0     H51023   1.059   6.431   9.417  0.9271 -0.5576 -0.5454
  378MOL0     H51024   0.882   6.390   9.564 -1.2435 -1.1677  2.4822
  378MOL0     H51025   0.993   6.386   9.698  2.3447  0.4292 -0.4326
  378MOL0     H51026   0.935   6.166   9.496 -0.4453 -3.6178  0.7589
  378MOL0     H51027   0.872   6.163   9.652 -3.0570  1.3465 -2.7563
  378MOL0     H51028   1.261   6.020   9.738 -2.8133 -0.3482  0.4379
  378MOL0     H51029   0.967   6.837   9.724 -0.9513  1.5931 -0.2473
  378MOL0     H51030   0.927   7.048   9.618  1.0313 -0.8273  1.6025
  379MOL0     O51031   4.689   9.185   4.421 -0.2063 -0.8839 -0.3200
  379MOL0     C51032   4.584   9.125   4.413  0.6641  0.0041 -0.9967
  379MOL0     O51033   4.461   9.182   4.390  0.1628  0.3756 -0.0286
  379MOL0     C51034   4.460   9.317   4.355 -0.2423  0.1637 -0.4867
  379MOL0     C51035   4.519   9.353   4.240  0.1184  0.7424  0.0685
  379MOL0     C51036   4.516   9.486   4.195 -0.0572  0.8146 -0.1094
  379MOL0     C51037   4.443   9.585   4.256  0.0520 -1.4567  0.5422
  379MOL0     O51038   4.440   9.708   4.194  0.7949  0.4248  0.0956
  379MOL0     C51039   4.371   9.805   4.266 -0.5347 -0.5813 -0.7837
  379MOL0     C51040   4.398   9.944   4.196  0.3290  0.0183  0.5233
  379MOL0     C51041   4.319   9.966   4.064  0.2535 -0.1566  0.5599
  379MOL0     C51042   4.338  10.101   4.000  0.0021  0.1893 -0.3247
  379MOL0     C51043   4.245  10.208   4.070  1.3120 -1.1447 -0.2011
  379MOL0     C51044   4.230  10.329   3.992 -0.6669 -0.2560  0.5485
  379MOL0     C51045   4.125  10.335   3.885 -0.9650  0.2240  0.1482
  379MOL0     C51046   4.092  10.486   3.864 -0.0136  1.0915  0.1080
  379MOL0     N51047   3.967  10.504   3.786 -0.1690 -0.3360  0.4026
  379MOL0     C51048   3.920  10.437   3.676 -0.0743 -0.0045 -0.3979
  379MOL0     C51049   3.795  10.483   3.653  0.1442 -0.9160  0.4772
  379MOL0     C51050   3.695  10.451   3.543  0.1745  0.2376 -0.8853
  379MOL0     C51051   3.738  10.516   3.409 -0.1045  0.2047  0.0265
  379MOL0     C51052   3.860  10.451   3.354 -0.2188 -0.7908  0.0700
  379MOL0     C51053   3.979  10.533   3.365 -0.3394 -1.2845  0.9079
  379MOL0     O51054   4.108  10.466   3.339 -0.8339  0.7753  0.2959
  379MOL0     C51055   4.202  10.511   3.425  0.1228  0.4792 -0.0858
  379MOL0     C51056   4.279  10.414   3.500 -0.1379  1.0650 -0.1621
  379MOL0     C51057   4.377  10.459   3.583  0.4867  0.5063 -0.9956
  379MOL0     C51058   4.452  10.359   3.660 -0.7912  0.7795 -0.1035
  379MOL0     C51059   4.402  10.598   3.593 -0.2016 -0.1478  0.5197
  379MOL0     C51060   4.500  10.655   3.687 -0.3553 -0.6130 -0.4817
  379MOL0     O51061   4.605  10.726   3.634 -0.8899 -0.3551 -0.0110
  379MOL0     C51062   4.655  10.835   3.703 -0.6833  0.0037 -0.3223
  379MOL0     C51063   4.615  10.959   3.656  0.8375  0.4428 -1.0255
  379MOL0     C51064   4.681  11.074   3.691  0.2122 -1.2845 -1.0883
  379MOL0     C51065   4.791  11.065   3.780 -0.1074 -0.0723 -0.0091
  379MOL0     O51066   4.869  11.159   3.844  0.6808 -0.3497 -0.5102
  379MOL0     C51067   4.891  11.289   3.782  0.4876  0.6306 -0.0487
  379MOL0     C51068   4.961  11.281   3.641 -0.3474 -0.1664  0.4946
  379MOL0     C51069   4.982  11.422   3.590  0.0758  0.1778 -0.7892
  379MOL0     C51070   4.895  11.469   3.465  0.4008 -0.4331 -0.5639
  379MOL0     C51071   4.942  11.611   3.423 -0.2435  0.1377  0.3519
  379MOL0     C51072   4.846  11.698   3.345  1.0504 -0.4878 -0.1989
  379MOL0     C51073   4.711  11.725   3.417 -0.0450 -0.1624  0.4791
  379MOL0     C51074   4.603  11.729   3.314 -0.4585  0.6589 -0.2271
  379MOL0    Cl51075   4.620  11.894   3.243  0.1641  0.3708 -0.0938
  379MOL0     C51076   4.825  10.929   3.830 -0.2754  0.8443  1.1903
  379MOL0     C51077   4.757  10.821   3.795 -0.3814  0.5889  0.1372
  379MOL0     O51078   4.494  10.627   3.806  0.7848  0.5683  0.4147
  379MOL0     C51079   4.346  10.688   3.508  0.9824  0.4793 -0.6901
  379MOL0     C51080   4.241  10.641   3.427 -0.0677  0.7115  0.1084
  379MOL0     N51081   3.765  10.578   3.753 -0.4721  0.0747  0.1611
  379MOL0     N51082   3.871  10.592   3.830  0.3572  0.3011  0.6443
  379MOL0     C51083   4.370   9.543   4.376  0.5535  0.3595 -0.2080
  379MOL0     C51084   4.392   9.411   4.426  0.5560  0.9671 -0.4367
  379MOL0     C51085   4.582   8.979   4.415  0.4604  0.3860  0.9096
  379MOL0     C51086   4.704   8.903   4.415  0.2873  0.0915 -0.3405
  379MOL0     C51087   4.708   8.762   4.397  0.0895  0.4867 -0.0153
  379MOL0     C51088   4.583   8.689   4.391  0.1214  0.0018 -0.7073
  379MOL0     O51089   4.587   8.554   4.390  0.3909 -0.3466  0.7994
  379MOL0     C51090   4.477   8.464   4.426 -0.0229  0.0671  0.0824
  379MOL0     C51091   4.462   8.376   4.309  0.0494 -0.2913  0.4767
  379MOL0     C51092   4.334   8.287   4.318 -0.7021 -0.2757  0.6824
  379MOL0     C51093   4.347   8.160   4.227 -0.2652  0.3506  0.3284
  379MOL0     C51094   4.222   8.149   4.152 -0.0875 -0.7506 -0.7457
  379MOL0     C51095   4.113   8.158   4.106  0.6235  0.0234  0.6441
  379MOL0     C51096   4.464   8.762   4.390  0.0224  0.3508  0.8312
  379MOL0     C51097   4.464   8.904   4.399  1.3426  0.0103 -0.7914
  379MOL0     H51098   4.573   9.275   4.186  0.8299 -1.2723  3.3535
  379MOL0     H51099   4.557   9.493   4.095 -1.4518  3.1518 -0.5885
  379MOL0     H51100   4.263   9.790   4.258 -0.6769  0.6814 -1.4490
  379MOL0     H51101   4.393   9.817   4.372 -2.1006  3.8688 -0.7642
  379MOL0     H51102   4.366  10.018   4.270 -1.7153 -2.5598  2.4066
  379MOL0     H51103   4.504   9.966   4.179  0.3766 -0.6535 -0.0972
  379MOL0     H51104   4.365   9.889   4.001  3.3094  2.8942 -1.2511
  379MOL0     H51105   4.212   9.949   4.077  0.3121 -0.0288  1.2499
  379MOL0     H51106   4.439  10.142   3.999 -0.2218  1.3228  4.1888
  379MOL0     H51107   4.289  10.100   3.902 -1.5475  0.0220  0.4232
  379MOL0     H51108   4.146  10.167   4.091 -0.9249  2.4325 -2.6473
  379MOL0     H51109   4.300  10.229   4.162 -3.0664 -0.6674  2.6246
  379MOL0     H51110   4.195  10.402   4.065 -0.9662  1.7256 -1.4828
  379MOL0     H51111   4.328  10.369   3.964  0.1000 -1.5841  1.2489
  379MOL0     H51112   4.173  10.298   3.793  2.1450  1.1519  1.2609
  379MOL0     H51113   4.037  10.283   3.923 -1.3573 -0.2056 -1.2856
  379MOL0     H51114   4.174  10.544   3.820 -1.2417  2.6512 -0.2316
  379MOL0     H51115   4.072  10.526   3.964 -2.2978 -0.1125  0.1804
  379MOL0     H51116   3.970  10.357   3.623 -1.7135 -1.6362  0.3910
  379MOL0     H51117   3.673  10.344   3.535  0.0780  0.2181 -0.3770
  379MOL0     H51118   3.597  10.480   3.581  1.2392 -0.5416  2.8335
  379MOL0     H51119   3.761  10.622   3.427  0.8792  0.5958 -2.9322
  379MOL0     H51120   3.656  10.512   3.336 -0.6273 -0.6711  0.6376
  379MOL0     H51121   3.852  10.432   3.247  0.2465 -2.2887  0.2750
  379MOL0     H51122   3.896  10.363   3.409 -2.0178  0.0701  2.8766
  379MOL0     H51123   3.973  10.592   3.457 -2.2766  2.6233 -1.4164
  379MOL0     H51124   3.970  10.618   3.296 -0.5343  1.1301  3.7135
  379MOL0     H51125   4.265  10.307   3.503  0.1775  1.0416  1.3938
  379MOL0     H51126   4.485  10.394   3.758  0.2104  0.1834 -0.2093
  379MOL0     H51127   4.394  10.268   3.680 -2.2905  1.9917  1.2684
  379MOL0     H51128   4.534  10.335   3.592 -1.7865  2.2740 -1.9255
  379MOL0     H51129   4.542  10.971   3.576 -0.4593 -0.8712 -0.0916
  379MOL0     H51130   4.650  11.169   3.649  3.0580 -1.0972 -3.0722
  379MOL0     H51131   4.790  11.330   3.782  0.1797 -0.1042 -0.7489
  379MOL0     H51132   4.954  11.347   3.851  0.5550 -0.9824  1.3233
  379MOL0     H51133   5.056  11.227   3.650 -0.2720 -0.8128 -3.0149
  379MOL0     H51134   4.910  11.220   3.566 -1.7053  2.6314 -1.0176
  379MOL0     H51135   5.085  11.431   3.555  0.3865  2.1993  0.4618
  379MOL0     H51136   4.959  11.477   3.682 -1.1348 -3.6414  1.3939
  379MOL0     H51137   4.897  11.389   3.391 -0.8462 -2.3963  1.3809
  379MOL0     H51138   4.788  11.473   3.489  0.4070  1.2520 -0.6833
  379MOL0     H51139   5.034  11.591   3.367  1.1818  1.0453  2.2745
  379MOL0     H51140   4.968  11.662   3.516 -3.0912  0.6995  0.9409
  379MOL0     H51141   4.907  11.787   3.322  1.8602 -1.0454 -0.2440
  379MOL0     H51142   4.819  11.651   3.250  0.8858  3.9044 -2.6265
  379MOL0     H51143   4.721  11.825   3.459  0.3311  0.2018 -0.4435
  379MOL0     H51144   4.691  11.641   3.484 -2.7026 -0.1454 -0.2001
  379MOL0     H51145   4.510  11.707   3.368  0.5673 -0.1206  1.3147
  379MOL0     H51146   4.610  11.650   3.239 -0.4553 -0.8466  1.3031
  379MOL0     H51147   4.914  10.911   3.890  0.4436 -2.7141 -0.6752
  379MOL0     H51148   4.810  10.734   3.834  1.1455  1.8280  0.9123
  379MOL0     H51149   4.371  10.793   3.501  0.8811  0.6574  1.1675
  379MOL0     H51150   4.183  10.698   3.355  0.0717  1.2912  0.4450
  379MOL0     H51151   4.316   9.620   4.429 -1.8832 -1.2215 -0.2284
  379MOL0     H51152   4.345   9.367   4.514  2.4907 -2.9557 -1.1499
  379MOL0     H51153   4.791   8.967   4.430 -0.6972  1.6005 -0.8367
  379MOL0     H51154   4.801   8.707   4.406 -0.7522 -1.8003 -3.3355
  379MOL0     H51155   4.493   8.399   4.512 -1.8643 -0.5096  0.0459
  379MOL0     H51156   4.383   8.516   4.449 -0.5034 -1.0177  0.6347
  379MOL0     H51157   4.554   8.317   4.314  0.6563  0.6765  1.1123
  379MOL0     H51158   4.468   8.420   4.209  1.5493 -0.7635  0.3369
  379MOL0     H51159   4.250   8.356   4.306 -0.0288  0.2237 -1.6983
  379MOL0     H51160   4.339   8.242   4.418  2.9914  1.2098  1.3327
  379MOL0     H51161   4.375   8.066   4.276  0.2798 -1.3869 -3.0171
  379MOL0     H51162   4.426   8.168   4.152  1.4010 -1.8122  1.7350
  379MOL0     H51163   4.018   8.176   4.059  1.1419  1.0792 -0.0657
  379MOL0     H51164   4.372   8.705   4.379 -1.0892  1.8169  1.9946
  379MOL0     H51165   4.362   8.941   4.397  1.0414 -0.3510  2.6265
  380MOL0     O51166   7.879   7.440   0.324 -0.1509 -0.1107  0.1911
  380MOL0     C51167   7.808   7.361   0.261  0.5186  0.5224 -0.5026
  380MOL0     O51168   7.824   7.324   0.132  0.8074 -0.5207  0.0607
  380MOL0     C51169   7.922   7.380   0.050  0.3298  0.3779  0.4241
  380MOL0     C51170   8.055   7.386   0.095 -0.0082  0.0470  0.3319
  380MOL0     C51171   8.155   7.438   0.022  0.2610 -0.6040  0.4678
  380MOL0     C51172   8.135   7.478  -0.110 -0.7704 -0.7412 -0.2587
  380MOL0     O51173   8.252   7.517  -0.175 -0.5073  0.2113 -0.2510
  380MOL0     C51174   8.232   7.632  -0.262 -0.3689 -0.6971 -1.4608
  380MOL0     C51175   8.352   7.706  -0.295 -0.8053 -0.2242  0.0119
  380MOL0     C51176   8.417   7.767  -0.170  0.8080 -0.0996  0.5873
  380MOL0     C51177   8.511   7.675  -0.096 -0.5236  0.5062  0.0354
  380MOL0     C51178   8.584   7.751   0.024  0.3611  0.2986 -0.2602
  380MOL0     C51179   8.702   7.659   0.069  1.0808  0.1425 -0.9845
  380MOL0     C51180   8.769   7.716   0.187  0.2166 -0.9541 -0.2954
  380MOL0     C51181   8.860   7.834   0.137 -0.2598 -0.2056 -0.3292
  380MOL0     N51182   8.948   7.901   0.231 -0.5106  0.3913  0.4081
  380MOL0     C51183   9.079   7.850   0.247 -0.0778 -0.1884 -1.0667
  380MOL0     C51184   9.133   7.927   0.342 -0.1692  1.1633  0.0948
  380MOL0     C51185   9.266   7.891   0.401 -0.1891 -0.1712  0.2108
  380MOL0     C51186   9.255   7.782   0.493 -0.2197  0.0596  0.0855
  380MOL0     C51187   9.207   7.818   0.634 -0.2918  0.4189 -0.3433
  380MOL0     C51188   9.196   7.696   0.719 -0.1711  0.2162  0.5296
  380MOL0     O51189   9.310   7.606   0.733 -0.4028  0.0602  0.1870
  380MOL0     C51190   9.301   7.509   0.827  0.5517 -0.0586  0.1365
  380MOL0     C51191   9.193   7.418   0.836  0.6890  0.5476  0.7404
  380MOL0     C51192   9.165   7.330   0.939 -0.2393 -0.0049 -0.0523
  380MOL0     C51193   9.044   7.249   0.921 -0.3396  0.1014 -1.1529
  380MOL0     C51194   9.246   7.344   1.054 -0.3203 -0.3701  0.5442
  380MOL0     C51195   9.239   7.255   1.165  0.2567 -0.4903  0.0509
  380MOL0     O51196   9.143   7.283   1.256  0.5079  0.4185 -0.6121
  380MOL0     C51197   9.166   7.256   1.393 -0.3199  0.5570  1.0248
  380MOL0     C51198   9.276   7.298   1.463  0.8633  0.3438 -0.3352
  380MOL0     C51199   9.282   7.284   1.605 -0.3135  0.8031 -0.4099
  380MOL0     C51200   9.177   7.220   1.677  0.0319  0.1666  0.0052
  380MOL0     O51201   9.194   7.206   1.812 -0.1589 -0.2133  0.0380
  380MOL0     C51202   9.087   7.143   1.895 -0.0435 -0.6062  0.2931
  380MOL0     C51203   9.131   7.105   2.033  0.0283 -0.1987 -0.1927
  380MOL0     C51204   9.227   7.206   2.080  0.2870 -1.0419 -0.4878
  380MOL0     C51205   9.245   7.224   2.230  0.5781  0.1452  0.4526
  380MOL0     C51206   9.360   7.322   2.270  0.4017 -0.0985 -0.0585
  380MOL0     C51207   9.367   7.449   2.189 -1.3472  0.6603 -0.6128
  380MOL0     C51208   9.467   7.555   2.250 -1.0026 -0.8599  0.9265
  380MOL0     C51209   9.532   7.640   2.144 -0.5268  0.2870  1.1292
  380MOL0    Cl51210   9.635   7.763   2.221  0.5206 -0.0947 -0.0866
  380MOL0     C51211   9.057   7.189   1.610 -0.3783 -0.4934  0.2262
  380MOL0     C51212   9.061   7.204   1.466 -0.2133  0.4045  0.2050
  380MOL0     O51213   9.316   7.159   1.175 -0.0274  0.6707  0.3161
  380MOL0     C51214   9.348   7.445   1.055  0.4106 -0.2652 -0.3042
  380MOL0     C51215   9.382   7.514   0.943  0.5431  0.5977  0.2874
  380MOL0     N51216   9.033   8.016   0.385  0.0996  0.0444  0.1781
  380MOL0     N51217   8.929   7.994   0.322  0.1634 -0.4159 -0.8783
  380MOL0     C51218   8.003   7.478  -0.153  0.2150 -0.0611 -0.2977
  380MOL0     C51219   7.896   7.426  -0.076 -0.4074  0.1391 -0.4599
  380MOL0     C51220   7.709   7.286   0.342 -0.2500  0.6406 -0.6783
  380MOL0     C51221   7.709   7.307   0.481 -0.1648  0.1671 -0.1057
  380MOL0     C51222   7.611   7.241   0.562  0.3124  0.5391 -0.1754
  380MOL0     C51223   7.516   7.161   0.508  0.4505  0.1810  0.0975
  380MOL0     O51224   7.413   7.109   0.592  0.4185 -0.0295  0.3670
  380MOL0     C51225   7.282   7.132   0.550  0.2472  0.2122 -0.1262
  380MOL0     C51226   7.160   7.127   0.646 -0.1122  1.0455 -0.3087
  380MOL0     C51227   7.125   6.979   0.676  0.6530 -0.2481 -0.0259
  380MOL0     C51228   6.967   6.954   0.684  0.1160 -0.9280  0.1900
  380MOL0     C51229   6.957   6.817   0.733  1.4811 -0.6701 -0.4001
  380MOL0     C51230   6.937   6.707   0.773 -0.0418 -0.3295 -0.2429
  380MOL0     C51231   7.514   7.149   0.363  0.8608 -0.3369 -0.2492
  380MOL0     C51232   7.606   7.208   0.282 -0.4974 -0.0005  1.0870
  380MOL0     H51233   8.077   7.325   0.183 -1.0008  0.1660  0.6788
  380MOL0     H51234   8.255   7.430   0.062  0.3944 -4.2671 -0.2619
  380MOL0     H51235   8.193   7.601  -0.359 -1.7239 -1.6453 -0.6574
  380MOL0     H51236   8.163   7.694  -0.203 -0.4963 -1.1337 -1.1404
  380MOL0     H51237   8.421   7.640  -0.349 -1.5372  0.3634 -1.7341
  380MOL0     H51238   8.317   7.784  -0.363 -1.3168 -0.2123  0.2811
  380MOL0     H51239   8.475   7.857  -0.192  2.1199  0.0923  4.1651
  380MOL0     H51240   8.328   7.783  -0.108 -0.5396 -0.2841 -1.2404
  380MOL0     H51241   8.461   7.582  -0.068 -2.0563  1.2419 -0.1643
  380MOL0     H51242   8.591   7.640  -0.162  1.0874  3.9312 -0.0684
  380MOL0     H51243   8.615   7.852  -0.004 -1.0765  1.5402  2.3138
  380MOL0     H51244   8.512   7.762   0.106  0.1992 -0.6058 -0.2684
  380MOL0     H51245   8.667   7.559   0.096  0.2047  1.1171  1.8426
  380MOL0     H51246   8.773   7.642  -0.012 -0.8848  0.6803 -2.9250
  380MOL0     H51247   8.715   7.763   0.270  3.6569 -1.8564  2.7050
  380MOL0     H51248   8.819   7.638   0.245  1.1355  1.2841  2.1488
  380MOL0     H51249   8.799   7.918   0.102 -1.9424  0.9845  4.5881
  380MOL0     H51250   8.920   7.794   0.055 -0.9158  0.1600 -1.0089
  380MOL0     H51251   9.111   7.755   0.206 -0.8256 -2.0017  2.2165
  380MOL0     H51252   9.337   7.851   0.327 -1.4275  2.2049 -2.4565
  380MOL0     H51253   9.304   7.980   0.451 -1.4671  1.0391 -0.8981
  380MOL0     H51254   9.350   7.729   0.494 -1.8970 -3.3433 -2.0322
  380MOL0     H51255   9.184   7.714   0.445  1.5757 -2.9692  1.4365
  380MOL0     H51256   9.108   7.862   0.616 -0.9214 -1.0648 -0.6670
  380MOL0     H51257   9.273   7.894   0.676 -1.7916  0.4432  2.2496
  380MOL0     H51258   9.120   7.635   0.670  3.0837 -2.2092 -1.9525
  380MOL0     H51259   9.165   7.729   0.818 -0.3043 -3.4254  1.8523
  380MOL0     H51260   9.129   7.400   0.750  1.2904 -0.7171  0.5495
  380MOL0     H51261   9.020   7.246   0.814  3.0680  0.9485 -2.0900
  380MOL0     H51262   9.053   7.145   0.954  0.4415  0.5382  0.0969
  380MOL0     H51263   8.968   7.307   0.975  1.2746 -0.3919  1.8831
  380MOL0     H51264   9.356   7.339   1.403 -0.2219  0.4454 -1.7503
  380MOL0     H51265   9.361   7.324   1.669  2.6499 -0.6341 -2.9293
  380MOL0     H51266   9.011   7.221   1.909  0.5159  0.7722 -3.3357
  380MOL0     H51267   9.036   7.063   1.842  0.9424 -0.0933 -1.5070
  380MOL0     H51268   9.043   7.101   2.098 -0.9889  0.0177 -1.5036
  380MOL0     H51269   9.175   7.005   2.044 -0.5828 -0.3698  0.7670
  380MOL0     H51270   9.197   7.305   2.041 -3.1717 -1.5684  0.4417
  380MOL0     H51271   9.328   7.192   2.042  0.8488  0.8903  0.1500
  380MOL0     H51272   9.159   7.277   2.271  0.8831  0.5560  0.5676
  380MOL0     H51273   9.251   7.127   2.281 -0.6997 -0.7973 -1.0776
  380MOL0     H51274   9.459   7.276   2.273  1.2361  1.3435  4.9657
  380MOL0     H51275   9.338   7.360   2.371  2.8977  0.7461  0.2241
  380MOL0     H51276   9.402   7.430   2.087  2.7478 -4.9997  1.3645
  380MOL0     H51277   9.273   7.505   2.188 -1.7100  0.0639 -0.9855
  380MOL0     H51278   9.537   7.495   2.309  0.6839 -0.2857 -0.4262
  380MOL0     H51279   9.409   7.624   2.312 -1.3086  1.2112 -1.5344
  380MOL0     H51280   9.447   7.682   2.089  0.0776  0.0281 -0.0238
  380MOL0     H51281   9.588   7.575   2.076 -0.7043  0.3855  0.8857
  380MOL0     H51282   8.966   7.150   1.656 -1.0016 -0.3272 -0.8360
  380MOL0     H51283   8.983   7.170   1.399  1.1695 -1.4596 -0.5662
  380MOL0     H51284   9.399   7.487   1.141 -0.0716 -0.3757  0.0358
  380MOL0     H51285   9.453   7.595   0.957 -0.9883  1.4383  4.3061
  380MOL0     H51286   7.985   7.516  -0.253 -4.4151  2.9469  1.3573
  380MOL0     H51287   7.797   7.426  -0.121 -0.4085 -0.5062 -0.4556
  380MOL0     H51288   7.779   7.377   0.527  0.6928  0.6148 -1.9874
  380MOL0     H51289   7.614   7.258   0.669 -0.2287  0.9832 -0.2220
  380MOL0     H51290   7.287   7.231   0.504  1.9693 -0.7350 -2.1591
  380MOL0     H51291   7.266   7.060   0.470  2.1926 -1.6420  1.0321
  380MOL0     H51292   7.081   7.191   0.605 -2.4986 -1.2138  0.5136
  380MOL0     H51293   7.186   7.172   0.743 -1.6271  0.2046  0.5193
  380MOL0     H51294   7.178   6.943   0.765  4.1775 -0.1698 -1.9098
  380MOL0     H51295   7.151   6.913   0.593  0.0077  1.0571 -1.3066
  380MOL0     H51296   6.922   6.966   0.585 -0.3344 -1.3986  0.3346
  380MOL0     H51297   6.927   7.033   0.748 -0.4666 -0.9201 -0.1735
  380MOL0     H51298   6.935   6.614   0.826  1.7250 -1.1630 -1.5176
  380MOL0     H51299   7.444   7.081   0.318 -2.3177  2.6635 -0.2451
  380MOL0     H51300   7.598   7.201   0.174  1.8447  3.2983  0.5289
  381MOL0     O51301   5.275   6.704   5.414  1.0072 -0.2421  0.5967
  381MOL0     C51302   5.288   6.812   5.357  0.4478 -0.7857 -0.0935
  381MOL0     O51303   5.180   6.895   5.315 -0.1767  0.4778 -0.3966
  381MOL0     C51304   5.055   6.851   5.308  0.9243 -0.2712  0.4190
  381MOL0     C51305   5.012   6.726   5.272 -0.0791  0.8309  0.3550
  381MOL0     C51306   4.877   6.687   5.269  1.1377 -0.0106 -0.4011
  381MOL0     C51307   4.780   6.786   5.303  0.7904  0.5560 -1.9242
  381MOL0     O51308   4.647   6.767   5.323  0.2234 -0.0049  0.6843
  381MOL0     C51309   4.579   6.645   5.279  0.1231  0.4984 -0.8631
  381MOL0     C51310   4.438   6.637   5.347 -0.0496 -0.1748 -0.2131
  381MOL0     C51311   4.466   6.569   5.485  0.0148 -0.0382  0.1360
  381MOL0     C51312   4.442   6.419   5.474  0.7857  0.8518  0.4494
  381MOL0     C51313   4.447   6.341   5.618  0.2135  0.2573 -0.7085
  381MOL0     C51314   4.430   6.194   5.597 -0.4746 -1.0262  0.1513
  381MOL0     C51315   4.457   6.114   5.730 -0.3840 -0.6135  0.6983
  381MOL0     C51316   4.609   6.102   5.768 -0.4939  0.9536 -0.3888
  381MOL0     N51317   4.639   6.009   5.885 -0.5307 -0.4661  0.9122
  381MOL0     C51318   4.635   5.872   5.903 -0.2216 -0.4261  0.4552
  381MOL0     C51319   4.686   5.845   6.022  0.0623 -0.2085  0.5323
  381MOL0     C51320   4.691   5.704   6.093  0.7217 -0.3318  0.5991
  381MOL0     C51321   4.557   5.677   6.164  0.5450 -0.0020 -0.5665
  381MOL0     C51322   4.560   5.681   6.319 -0.1422 -0.0670  0.1812
  381MOL0     C51323   4.661   5.581   6.382  0.0170  0.2467  0.2539
  381MOL0     O51324   4.639   5.572   6.517  0.7841  0.7578 -0.0513
  381MOL0     C51325   4.728   5.629   6.608 -0.4077  0.5726 -0.4368
  381MOL0     C51326   4.754   5.557   6.723 -1.3594  1.2221  0.0113
  381MOL0     C51327   4.818   5.622   6.833 -0.4056  0.2429  0.8112
  381MOL0     C51328   4.848   5.536   6.947  0.3332  0.1820 -1.0872
  381MOL0     C51329   4.848   5.759   6.822  0.3738  0.1313 -0.6751
  381MOL0     C51330   4.882   5.847   6.942 -0.5466  0.4531 -0.3917
  381MOL0     O51331   4.921   5.793   7.060 -0.3923  0.0298 -0.8456
  381MOL0     C51332   5.050   5.804   7.109 -0.1057  0.4471 -0.2465
  381MOL0     C51333   5.155   5.806   7.022 -0.4137  0.7573 -0.3321
  381MOL0     C51334   5.284   5.830   7.087  0.4360  0.5792 -0.5985
  381MOL0     C51335   5.298   5.841   7.230  0.0517  0.3572 -0.1289
  381MOL0     O51336   5.420   5.881   7.289  0.5611  0.2268  0.3092
  381MOL0     C51337   5.528   5.931   7.206  0.2771  0.9303  0.4567
  381MOL0     C51338   5.640   6.001   7.276  0.5299  0.7288 -0.5234
  381MOL0     C51339   5.610   6.103   7.377 -0.1259  0.7619  0.1212
  381MOL0     C51340   5.512   6.203   7.323 -0.2465 -0.1775 -0.6447
  381MOL0     C51341   5.499   6.324   7.411 -0.7142 -0.3000  0.3616
  381MOL0     C51342   5.434   6.440   7.332 -1.2387 -0.6836 -0.0277
  381MOL0     C51343   5.311   6.485   7.404 -0.0560  0.5788  0.5092
  381MOL0     C51344   5.254   6.610   7.333 -0.6497  0.1283 -0.5479
  381MOL0    Cl51345   5.194   6.587   7.170 -0.3349 -0.1792  0.2342
  381MOL0     C51346   5.187   5.845   7.309  1.2065 -0.5583 -0.0438
  381MOL0     C51347   5.065   5.819   7.246 -0.6006 -0.2539 -1.0153
  381MOL0     O51348   4.869   5.964   6.926 -0.1090 -0.8649  0.5183
  381MOL0     C51349   4.841   5.821   6.698  0.3625  0.7471  0.5478
  381MOL0     C51350   4.777   5.759   6.596  0.6322  0.2764 -0.3218
  381MOL0     N51351   4.713   5.967   6.079  0.2102 -0.5990 -0.0872
  381MOL0     N51352   4.673   6.059   6.002  0.3349  0.4928  0.2069
  381MOL0     C51353   4.819   6.916   5.338  0.7337  0.6141 -0.0984
  381MOL0     C51354   4.957   6.952   5.333  0.0587  0.2915  0.4533
  381MOL0     C51355   5.426   6.859   5.352  0.2729 -0.2732 -1.2821
  381MOL0     C51356   5.457   6.983   5.287  0.4111  0.6422  0.0696
  381MOL0     C51357   5.592   7.039   5.279  0.2450  1.1538 -0.5189
  381MOL0     C51358   5.700   6.951   5.333 -0.0120  0.1118 -0.4623
  381MOL0     O51359   5.842   6.966   5.318 -0.3258  0.1167 -0.3300
  381MOL0     C51360   5.898   7.016   5.198  0.3212  0.1935  0.0895
  381MOL0     C51361   6.043   6.962   5.179  0.0130  0.0120 -0.0248
  381MOL0     C51362   6.116   7.020   5.052  0.1091  0.5522 -0.5166
  381MOL0     C51363   6.054   6.976   4.917 -0.3516 -0.2825 -0.5957
  381MOL0     C51364   6.047   6.832   4.901  0.2368  0.8788  0.7006
  381MOL0     C51365   6.027   6.708   4.887  0.1525 -0.1064  0.9557
  381MOL0     C51366   5.664   6.837   5.397  0.9934  0.1943  0.0386
  381MOL0     C51367   5.537   6.791   5.411  0.6154 -0.0007  0.2732
  381MOL0     H51368   5.092   6.654   5.256  0.8597  0.9491  3.7689
  381MOL0     H51369   4.847   6.586   5.246 -1.3357  0.3360  0.9201
  381MOL0     H51370   4.577   6.645   5.169 -1.0627 -2.6130 -0.9530
  381MOL0     H51371   4.638   6.556   5.303 -1.5259 -1.0759 -2.2932
  381MOL0     H51372   4.388   6.733   5.364 -0.1624 -0.9083  5.6453
  381MOL0     H51373   4.384   6.577   5.273  1.6769 -3.1094  0.7178
  381MOL0     H51374   4.564   6.601   5.523  0.2853 -0.3065 -0.3336
  381MOL0     H51375   4.388   6.604   5.554 -1.0836 -0.1194 -1.0448
  381MOL0     H51376   4.346   6.392   5.428  1.1917  0.1119  0.0313
  381MOL0     H51377   4.515   6.381   5.403 -2.4151 -0.6241 -2.3202
  381MOL0     H51378   4.539   6.361   5.674  0.5142  1.0831 -1.4838
  381MOL0     H51379   4.360   6.368   5.678  0.4169 -0.4813 -0.0604
  381MOL0     H51380   4.323   6.180   5.575 -0.2947 -2.0362 -0.1156
  381MOL0     H51381   4.483   6.156   5.510 -1.6968  3.4371 -2.8806
  381MOL0     H51382   4.405   6.158   5.816 -1.1576  0.3156 -0.2117
  381MOL0     H51383   4.424   6.013   5.705  0.2501 -0.1905 -2.1876
  381MOL0     H51384   4.653   6.195   5.805  0.4795  0.1090  0.6346
  381MOL0     H51385   4.668   6.069   5.682  1.1633  0.9340  0.7198
  381MOL0     H51386   4.591   5.803   5.832  0.4624  1.1442 -1.6041
  381MOL0     H51387   4.702   5.625   6.017 -0.0931  0.7730 -0.7180
  381MOL0     H51388   4.778   5.706   6.158 -0.5743  4.6997  2.6226
  381MOL0     H51389   4.531   5.574   6.139  2.5917 -0.4979 -0.8048
  381MOL0     H51390   4.474   5.742   6.134  2.1491  2.6739  0.3404
  381MOL0     H51391   4.467   5.661   6.374  1.6393  0.0399  3.5092
  381MOL0     H51392   4.596   5.783   6.336 -0.8487 -0.0086  1.4462
  381MOL0     H51393   4.767   5.595   6.358  0.5049  1.2997  2.7418
  381MOL0     H51394   4.648   5.480   6.341 -0.4208  0.2369  0.4145
  381MOL0     H51395   4.710   5.458   6.729  0.9732  0.2159  2.9786
  381MOL0     H51396   4.954   5.541   6.974 -0.1000  0.4538  0.7120
  381MOL0     H51397   4.787   5.561   7.035  2.3545 -1.3178  0.8876
  381MOL0     H51398   4.843   5.428   6.927  2.8617 -0.7557  2.3556
  381MOL0     H51399   5.132   5.781   6.919 -2.4048 -4.4929  1.0696
  381MOL0     H51400   5.371   5.821   7.024  0.3307 -1.8906 -0.5083
  381MOL0     H51401   5.573   5.853   7.144 -1.4944  0.0113  0.2518
  381MOL0     H51402   5.492   6.009   7.138  2.5265  3.9248  2.4534
  381MOL0     H51403   5.693   5.919   7.326 -0.7606  0.0509 -0.2177
  381MOL0     H51404   5.704   6.034   7.194 -1.4308 -1.2266 -3.0178
  381MOL0     H51405   5.701   6.153   7.413 -1.5648  1.8162  2.5258
  381MOL0     H51406   5.576   6.060   7.472  1.6209  1.8371  1.2925
  381MOL0     H51407   5.541   6.229   7.221 -1.1937  2.6204 -0.2771
  381MOL0     H51408   5.419   6.147   7.315  1.0303 -2.2935 -1.7172
  381MOL0     H51409   5.597   6.355   7.447  1.1148 -1.0006 -3.4798
  381MOL0     H51410   5.429   6.292   7.490 -2.6029 -1.6024 -1.7025
  381MOL0     H51411   5.496   6.530   7.333 -0.3459 -1.2889  0.8535
  381MOL0     H51412   5.420   6.412   7.227 -0.0773 -0.9084 -0.1372
  381MOL0     H51413   5.333   6.499   7.510 -0.2946  0.2363  0.6081
  381MOL0     H51414   5.232   6.410   7.410 -0.3031  0.9606  4.1038
  381MOL0     H51415   5.317   6.698   7.351 -3.6637  2.1830  0.7562
  381MOL0     H51416   5.175   6.642   7.401 -1.6232  0.8129 -1.9673
  381MOL0     H51417   5.193   5.863   7.416  2.6506  3.9444 -0.6903
  381MOL0     H51418   4.979   5.824   7.312 -2.3554 -2.4923 -2.9729
  381MOL0     H51419   4.871   5.924   6.679 -3.1012  1.2497 -3.6891
  381MOL0     H51420   4.744   5.827   6.518 -0.3728  0.6663  0.4282
  381MOL0     H51421   4.746   6.989   5.372  1.1182  0.6850  0.6007
  381MOL0     H51422   4.996   7.052   5.347 -1.6993  0.7964  2.1116
  381MOL0     H51423   5.376   7.031   5.233 -1.2120 -1.2195  0.7154
  381MOL0     H51424   5.612   7.137   5.237  0.1099  1.7166  0.6784
  381MOL0     H51425   5.835   6.995   5.112 -0.7854  0.2843  0.8557
  381MOL0     H51426   5.901   7.125   5.198  1.8467  0.1773 -0.3117
  381MOL0     H51427   6.037   6.853   5.182  1.8394 -0.0956  0.6463
  381MOL0     H51428   6.103   6.992   5.265 -1.8648  0.5563  1.1761
  381MOL0     H51429   6.221   6.989   5.056  0.6366  2.2729  0.4091
  381MOL0     H51430   6.105   7.129   5.061 -0.6648  0.4272  0.1356
  381MOL0     H51431   6.107   7.016   4.831  2.0718  0.9505  1.3491
  381MOL0     H51432   5.951   7.011   4.911 -1.3409 -2.7983  0.1154
  381MOL0     H51433   6.010   6.605   4.860 -2.2550  1.1031 -2.9546
  381MOL0     H51434   5.751   6.780   5.428  0.6596 -0.3429  0.0122
  381MOL0     H51435   5.519   6.695   5.459  1.8861 -0.7736 -0.7341
  382MOL0     O51436   5.784   4.137   0.108  0.0146 -0.4398 -0.6108
  382MOL0     C51437   5.682   4.101   0.052 -0.3979 -0.4699 -1.2583
  382MOL0     O51438   5.653   4.134  -0.070  0.1468 -0.5669 -0.5612
  382MOL0     C51439   5.757   4.148  -0.164 -0.1260 -0.1864 -0.6916
  382MOL0     C51440   5.874   4.066  -0.169 -0.0643  0.0361  0.6099
  382MOL0     C51441   5.985   4.103  -0.243  0.0815  0.6562  0.3039
  382MOL0     C51442   5.979   4.218  -0.315 -0.0825 -0.6111  0.5343
  382MOL0     O51443   6.099   4.244  -0.381  0.1433 -0.4482  0.1574
  382MOL0     C51444   6.139   4.381  -0.417 -0.1143  0.9673 -1.0225
  382MOL0     C51445   6.272   4.389  -0.485  0.4252  0.0244  0.1041
  382MOL0     C51446   6.315   4.523  -0.554  0.0703 -0.8426 -0.2573
  382MOL0     C51447   6.464   4.520  -0.570  0.3061 -0.3716 -0.3405
  382MOL0     C51448   6.499   4.643  -0.663  0.4956  0.4024 -0.7668
  382MOL0     C51449   6.644   4.623  -0.718 -0.4180  0.0087 -0.3198
  382MOL0     C51450   6.703   4.763  -0.736 -1.4211 -0.0433 -0.7239
  382MOL0     C51451   6.845   4.764  -0.816  0.4698 -0.0488  0.1978
  382MOL0     N51452   6.956   4.753  -0.717  0.6756  0.1116  0.2935
  382MOL0     C51453   7.031   4.638  -0.702 -0.1379  0.8824 -0.7041
  382MOL0     C51454   7.161   4.676  -0.660  0.5468  0.8330  1.1054
  382MOL0     C51455   7.282   4.575  -0.661  0.1385 -1.0162  0.5130
  382MOL0     C51456   7.334   4.550  -0.510 -0.5438 -0.2774 -0.6552
  382MOL0     C51457   7.271   4.437  -0.435  0.4976 -0.3270  0.0441
  382MOL0     C51458   7.118   4.449  -0.423 -0.1744 -0.8119  0.2308
  382MOL0     O51459   7.051   4.409  -0.545  0.4417  0.2745  0.6337
  382MOL0     C51460   6.934   4.329  -0.544 -1.2517 -0.6849  0.0671
  382MOL0     C51461   6.906   4.273  -0.671  0.7024  0.2851  0.1078
  382MOL0     C51462   6.793   4.181  -0.683  0.4261 -0.2986  0.0587
  382MOL0     C51463   6.776   4.121  -0.823  0.4963 -0.2714  0.1961
  382MOL0     C51464   6.711   4.161  -0.571 -0.5312 -0.0344 -0.1185
  382MOL0     C51465   6.583   4.090  -0.584 -0.0761  0.2972 -0.0072
  382MOL0     O51466   6.558   4.002  -0.477  0.4544  0.6366 -0.0978
  382MOL0     C51467   6.439   3.927  -0.478  0.6092 -0.4178 -0.3972
  382MOL0     C51468   6.442   3.794  -0.493  0.4491  0.7491  0.4455
  382MOL0     C51469   6.323   3.710  -0.478  0.1250 -0.0057  0.1005
  382MOL0     C51470   6.201   3.773  -0.453  0.3647 -0.3238  0.4176
  382MOL0     O51471   6.095   3.700  -0.419 -0.5277 -0.4003 -0.7192
  382MOL0     C51472   6.006   3.755  -0.318  0.9203 -0.0868 -0.6140
  382MOL0     C51473   5.907   3.646  -0.298 -0.6243  1.2437  0.1340
  382MOL0     C51474   5.967   3.534  -0.203 -0.0816 -0.8162 -0.3636
  382MOL0     C51475   5.877   3.411  -0.217  0.7061 -0.4691 -0.4672
  382MOL0     C51476   5.913   3.296  -0.110  0.1549  0.4489 -0.6391
  382MOL0     C51477   5.835   3.167  -0.120 -0.2887  0.4982  0.4604
  382MOL0     C51478   5.691   3.190  -0.088  0.2592 -1.4362  0.0650
  382MOL0     C51479   5.604   3.065  -0.103 -0.2364  0.5720  0.3764
  382MOL0    Cl51480   5.611   2.979   0.052 -0.4710  0.2437 -0.1578
  382MOL0     C51481   6.198   3.916  -0.440  0.2426 -0.2598  0.7418
  382MOL0     C51482   6.322   3.988  -0.462  0.2723  0.1512 -0.5260
  382MOL0     O51483   6.507   4.112  -0.684 -0.0106  0.6822  0.9538
  382MOL0     C51484   6.746   4.223  -0.450 -0.4034 -0.5444  0.2568
  382MOL0     C51485   6.858   4.305  -0.432  0.2662 -0.0848 -0.4457
  382MOL0     N51486   7.149   4.808  -0.637 -0.0383  0.2959 -0.2952
  382MOL0     N51487   7.031   4.857  -0.678  0.7170  0.3616  1.2576
  382MOL0     C51488   5.865   4.302  -0.319  0.4951 -0.3492 -0.0180
  382MOL0     C51489   5.754   4.259  -0.244  0.2513 -0.1444  0.7367
  382MOL0     C51490   5.590   4.014   0.125  0.4487  1.5845  0.4882
  382MOL0     C51491   5.480   3.963   0.064 -0.4326 -0.3606 -0.2627
  382MOL0     C51492   5.399   3.868   0.120  0.5534 -0.9292 -0.4505
  382MOL0     C51493   5.424   3.824   0.248  0.1466  0.4727  0.0197
  382MOL0     O51494   5.379   3.706   0.301  0.5289  0.7488 -0.6181
  382MOL0     C51495   5.253   3.739   0.372 -0.4326  0.2422  0.3516
  382MOL0     C51496   5.181   3.607   0.412  0.4221 -1.5620 -0.2349
  382MOL0     C51497   5.265   3.509   0.490  0.3581 -0.5870  0.7815
  382MOL0     C51498   5.191   3.390   0.539 -0.7416  0.7578 -0.2055
  382MOL0     C51499   5.157   3.303   0.431 -0.1356  1.6480  0.2818
  382MOL0     C51500   5.145   3.219   0.343 -0.3782 -0.2497 -0.2935
  382MOL0     C51501   5.536   3.875   0.319  0.1309  0.4538 -0.3371
  382MOL0     C51502   5.624   3.955   0.249  0.2589 -0.3841 -0.7363
  382MOL0     H51503   5.880   3.980  -0.103 -0.8091 -0.0535  0.5678
  382MOL0     H51504   6.084   4.060  -0.244 -1.4350 -3.5303  2.7170
  382MOL0     H51505   6.069   4.407  -0.497  2.2671  1.1215 -3.1920
  382MOL0     H51506   6.151   4.446  -0.329 -0.0721  1.0515 -1.0903
  382MOL0     H51507   6.342   4.355  -0.408  1.2333  0.3355 -0.4838
  382MOL0     H51508   6.280   4.310  -0.560  1.1071  0.6024 -0.4530
  382MOL0     H51509   6.263   4.547  -0.647  1.4410 -0.8594 -1.0489
  382MOL0     H51510   6.286   4.604  -0.486  0.0969  2.0391 -3.4418
  382MOL0     H51511   6.518   4.519  -0.475  1.1638 -1.2315 -0.8266
  382MOL0     H51512   6.497   4.432  -0.625  1.1211  1.1130 -2.3499
  382MOL0     H51513   6.423   4.654  -0.740 -4.0614 -1.4844  2.9616
  382MOL0     H51514   6.496   4.735  -0.604  0.1325 -0.3301  0.4185
  382MOL0     H51515   6.695   4.556  -0.648 -3.3976 -1.4456  0.6247
  382MOL0     H51516   6.652   4.569  -0.813  2.8256 -2.0829  0.9442
  382MOL0     H51517   6.631   4.815  -0.799 -1.3020  0.7431 -0.2333
  382MOL0     H51518   6.710   4.817  -0.640  1.0646  1.5865 -1.7017
  382MOL0     H51519   6.861   4.861  -0.865  0.7099  1.8563  3.7065
  382MOL0     H51520   6.858   4.690  -0.896  0.2187  2.7287 -2.6482
  382MOL0     H51521   7.002   4.539  -0.735  0.3188  0.7342 -0.6689
  382MOL0     H51522   7.245   4.484  -0.708 -2.3386  0.6794 -1.0621
  382MOL0     H51523   7.361   4.627  -0.717 -1.5254  2.5852  1.2065
  382MOL0     H51524   7.334   4.644  -0.454  0.6601  1.3382 -3.1467
  382MOL0     H51525   7.439   4.519  -0.522 -1.2770 -3.6085  0.5880
  382MOL0     H51526   7.321   4.441  -0.337  0.7437  1.8516 -0.1052
  382MOL0     H51527   7.292   4.337  -0.472 -0.8152 -1.0349  1.1415
  382MOL0     H51528   7.106   4.556  -0.405  2.4412 -0.1950 -1.2389
  382MOL0     H51529   7.077   4.393  -0.338 -4.4410  0.1997 -0.9271
  382MOL0     H51530   6.967   4.302  -0.756  1.0624 -2.3229 -0.6288
  382MOL0     H51531   6.725   4.025  -0.819  0.8153 -0.5131 -1.0481
  382MOL0     H51532   6.711   4.191  -0.877 -0.7253  0.9700  3.0391
  382MOL0     H51533   6.872   4.104  -0.873 -0.1400  0.0518 -1.1943
  382MOL0     H51534   6.528   3.738  -0.528 -1.5606 -1.5572 -1.0988
  382MOL0     H51535   6.326   3.602  -0.478  0.7247 -0.0006  0.8905
  382MOL0     H51536   6.061   3.768  -0.225 -1.2346 -1.0274  0.8556
  382MOL0     H51537   5.958   3.847  -0.352  2.1787  0.1601 -1.8717
  382MOL0     H51538   5.810   3.664  -0.250 -0.2443  0.6987  1.1419
  382MOL0     H51539   5.879   3.608  -0.396 -0.7399 -1.2299  1.0721
  382MOL0     H51540   5.970   3.584  -0.106 -2.2912  2.6702 -1.9042
  382MOL0     H51541   6.069   3.501  -0.225  0.6258 -1.7907  3.4991
  382MOL0     H51542   5.772   3.435  -0.202  0.7159  0.5881 -1.9369
  382MOL0     H51543   5.895   3.363  -0.314 -0.9222 -2.0809 -0.0324
  382MOL0     H51544   5.886   3.339  -0.013 -2.1897  0.2304 -1.1321
  382MOL0     H51545   6.020   3.271  -0.114 -0.1527 -1.9015  2.4572
  382MOL0     H51546   5.841   3.117  -0.217 -1.1032  0.9017  0.1910
  382MOL0     H51547   5.862   3.089  -0.049 -3.6041  2.4260  4.2270
  382MOL0     H51548   5.637   3.263  -0.148  0.6287 -1.4552 -0.2920
  382MOL0     H51549   5.701   3.235   0.011  1.9796  1.2242 -1.2205
  382MOL0     H51550   5.653   3.011  -0.185 -0.9709  1.0156 -0.3731
  382MOL0     H51551   5.500   3.089  -0.126  0.7709  3.2667 -2.0470
  382MOL0     H51552   6.105   3.973  -0.435 -0.1097 -0.9227  2.2377
  382MOL0     H51553   6.304   4.094  -0.471 -2.5094 -0.2237 -0.4358
  382MOL0     H51554   6.676   4.214  -0.367 -1.0584 -2.0786 -0.4316
  382MOL0     H51555   6.877   4.365  -0.344 -2.6618 -0.1089  0.2776
  382MOL0     H51556   5.862   4.385  -0.389  1.2445  0.9230  1.4050
  382MOL0     H51557   5.660   4.314  -0.236 -0.6804 -1.4522 -0.5650
  382MOL0     H51558   5.442   3.989  -0.035  0.5987  3.0241  0.0898
  382MOL0     H51559   5.304   3.836   0.079 -0.2789 -0.9365  1.3874
  382MOL0     H51560   5.277   3.807   0.455  3.2719 -0.0892 -0.2703
  382MOL0     H51561   5.189   3.791   0.301  1.7719  2.5629 -0.1084
  382MOL0     H51562   5.167   3.557   0.316  2.2044 -0.6654 -1.0017
  382MOL0     H51563   5.085   3.624   0.462 -0.4991  2.1460 -2.8272
  382MOL0     H51564   5.321   3.543   0.577  1.6534  2.1493 -0.9785
  382MOL0     H51565   5.344   3.467   0.427 -0.4492 -0.2161 -0.5404
  382MOL0     H51566   5.108   3.402   0.609 -0.7780 -1.8440  0.2911
  382MOL0     H51567   5.255   3.321   0.594 -2.0622  0.4043  0.9566
  382MOL0     H51568   5.138   3.160   0.253 -1.6997  0.0563 -0.4117
  382MOL0     H51569   5.579   3.834   0.410 -0.6219 -0.5519 -0.4227
  382MOL0     H51570   5.714   3.987   0.299  1.5061  0.2988 -3.2814
  383MOL0     O51571   3.426   2.059   1.566  0.6079  0.1837  0.0377
  383MOL0     C51572   3.494   2.074   1.465  0.4317 -0.4670 -0.5039
  383MOL0     O51573   3.499   2.188   1.405 -0.0578 -0.1506  1.0632
  383MOL0     C51574   3.486   2.316   1.454 -0.6541 -0.2559  0.0042
  383MOL0     C51575   3.478   2.424   1.356 -0.0151  0.1529  0.0254
  383MOL0     C51576   3.447   2.561   1.399 -0.5926 -0.3156  0.2789
  383MOL0     C51577   3.451   2.591   1.536 -0.7969 -1.1687 -0.3491
  383MOL0     O51578   3.410   2.713   1.592  0.3399  0.1176 -0.4474
  383MOL0     C51579   3.369   2.817   1.494  1.0511  0.3533 -0.1647
  383MOL0     C51580   3.289   2.926   1.569 -0.7239  0.9208  0.6465
  383MOL0     C51581   3.360   3.007   1.667 -0.2207 -0.1627  0.0420
  383MOL0     C51582   3.279   3.118   1.732 -0.8062 -0.2154  0.4404
  383MOL0     C51583   3.370   3.238   1.789  0.2381 -0.1345  0.7637
  383MOL0     C51584   3.329   3.293   1.923  0.2776  0.1982 -0.1953
  383MOL0     C51585   3.437   3.364   1.994  0.0004  0.0045 -1.0595
  383MOL0     C51586   3.531   3.467   1.927  0.4026  0.3318 -0.4671
  383MOL0     N51587   3.471   3.587   1.875  0.9116  0.1292 -0.1570
  383MOL0     C51588   3.395   3.612   1.758 -0.0939  0.1727 -0.2519
  383MOL0     C51589   3.324   3.718   1.786  0.1691 -0.0725 -0.5822
  383MOL0     C51590   3.219   3.781   1.692 -0.7140  0.0921  0.4088
  383MOL0     C51591   3.066   3.743   1.704  0.1540 -0.5076  0.1765
  383MOL0     C51592   3.069   3.584   1.692 -0.3048  0.2180  0.7619
  383MOL0     C51593   2.931   3.525   1.695 -0.1912 -0.2759 -0.4469
  383MOL0     O51594   2.851   3.578   1.791 -0.4305 -0.3196  0.3652
  383MOL0     C51595   2.747   3.662   1.760  0.0481 -0.3099 -0.6249
  383MOL0     C51596   2.660   3.684   1.866 -0.0299 -0.0065 -0.4248
  383MOL0     C51597   2.553   3.772   1.860 -0.2346  0.8111 -0.3554
  383MOL0     C51598   2.472   3.775   1.986 -0.4756  0.5612 -0.8393
  383MOL0     C51599   2.539   3.851   1.744  0.7056  1.0890 -0.7947
  383MOL0     C51600   2.422   3.946   1.733  0.3498  0.1290 -0.6346
  383MOL0     O51601   2.301   3.909   1.788  0.4076 -0.2526  0.1775
  383MOL0     C51602   2.177   3.958   1.749 -0.6354  0.7174 -0.2670
  383MOL0     C51603   2.072   3.877   1.783 -0.8626 -0.8595  0.3545
  383MOL0     C51604   1.942   3.909   1.747  0.7957  0.4745  0.5091
  383MOL0     C51605   1.915   4.018   1.668  0.2956  1.0691 -0.7820
  383MOL0     O51606   1.775   4.047   1.646 -0.6306 -0.9009 -0.4355
  383MOL0     C51607   1.748   4.177   1.585  0.0932 -0.5327 -0.4712
  383MOL0     C51608   1.616   4.238   1.633  0.6696 -0.5367  0.7590
  383MOL0     C51609   1.601   4.251   1.782 -0.5939  0.1085  0.6034
  383MOL0     C51610   1.737   4.314   1.851 -0.5934 -0.1522 -0.0783
  383MOL0     C51611   1.788   4.450   1.791 -0.1682  0.8463 -0.4045
  383MOL0     C51612   1.925   4.481   1.836 -0.4485  0.6711  0.3664
  383MOL0     C51613   1.954   4.473   1.990  0.4409  0.1787  0.8950
  383MOL0     C51614   2.095   4.467   2.042  0.2876  0.7523 -1.0394
  383MOL0    Cl51615   2.199   4.594   1.979 -0.1447 -0.6265 -0.5235
  383MOL0     C51616   2.021   4.092   1.617 -0.1583 -0.8109 -0.6167
  383MOL0     C51617   2.150   4.071   1.672 -0.2164  1.3159 -0.5515
  383MOL0     O51618   2.450   4.050   1.671  0.6481  0.4019  0.4504
  383MOL0     C51619   2.633   3.837   1.640  0.9867 -0.3913 -0.5450
  383MOL0     C51620   2.734   3.747   1.653  0.7931 -0.0291 -0.3125
  383MOL0     N51621   3.370   3.780   1.900  0.1916 -0.7967 -0.6572
  383MOL0     N51622   3.451   3.693   1.955 -0.5911  0.2728  1.3973
  383MOL0     C51623   3.481   2.491   1.625  0.4986 -0.0698 -1.7463
  383MOL0     C51624   3.487   2.359   1.587  0.1586  0.0006 -0.5995
  383MOL0     C51625   3.545   1.962   1.385 -0.6339  0.3764  0.0305
  383MOL0     C51626   3.530   1.972   1.248 -0.6299 -0.0735  0.0214
  383MOL0     C51627   3.595   1.885   1.165 -0.0269  0.5730 -0.7446
  383MOL0     C51628   3.671   1.780   1.217  0.6767 -0.8591  1.2096
  383MOL0     O51629   3.724   1.675   1.147  0.0243 -0.0983  0.5826
  383MOL0     C51630   3.690   1.654   1.007 -0.2609  0.3631 -0.5315
  383MOL0     C51631   3.681   1.494   1.003  0.3582  0.3426  0.1822
  383MOL0     C51632   3.663   1.434   0.866 -0.9956  0.7398  0.7089
  383MOL0     C51633   3.787   1.472   0.774  1.0840  0.6199 -1.1045
  383MOL0     C51634   3.743   1.580   0.679  0.6962  0.8172  0.1059
  383MOL0     C51635   3.698   1.650   0.599 -0.4960 -1.3864  0.3047
  383MOL0     C51636   3.683   1.763   1.354 -0.5922  0.2038  0.8194
  383MOL0     C51637   3.618   1.851   1.443  0.8914  0.4168 -0.5344
  383MOL0     H51638   3.470   2.396   1.251  3.5673 -0.0916 -0.3078
  383MOL0     H51639   3.429   2.636   1.324  3.8713  2.0456  1.1921
  383MOL0     H51640   3.456   2.858   1.443  2.0997  0.0371  1.3102
  383MOL0     H51641   3.296   2.785   1.418 -1.2615  1.3741  1.5121
  383MOL0     H51642   3.241   2.988   1.492 -3.1666  1.0865  2.1946
  383MOL0     H51643   3.204   2.890   1.629  0.3462 -1.0478  1.0549
  383MOL0     H51644   3.369   2.943   1.756 -4.5410  1.2333  1.7107
  383MOL0     H51645   3.460   3.033   1.631 -0.3452  1.4876  0.7999
  383MOL0     H51646   3.203   3.161   1.667 -1.6235  1.0041  2.1447
  383MOL0     H51647   3.220   3.077   1.815 -1.2132 -0.1266  0.1957
  383MOL0     H51648   3.469   3.197   1.809 -1.3484 -4.2875  1.0802
  383MOL0     H51649   3.371   3.313   1.709 -1.2142 -1.2205 -0.3254
  383MOL0     H51650   3.248   3.365   1.909  3.0009  3.1583 -2.0096
  383MOL0     H51651   3.299   3.213   1.991  0.5913 -1.2079 -1.6722
  383MOL0     H51652   3.393   3.416   2.079 -0.3299  1.0582 -1.8479
  383MOL0     H51653   3.504   3.287   2.034 -0.9359 -1.2757 -1.8734
  383MOL0     H51654   3.589   3.427   1.843 -1.6648  1.1520 -2.3664
  383MOL0     H51655   3.599   3.502   2.006  2.0879 -1.3423 -1.0809
  383MOL0     H51656   3.388   3.554   1.667 -0.2397  0.0407 -0.1565
  383MOL0     H51657   3.226   3.889   1.709 -4.5803  0.2716  1.7697
  383MOL0     H51658   3.247   3.764   1.587 -0.4108  1.1387  0.3082
  383MOL0     H51659   3.016   3.786   1.617 -3.6549  0.2616  2.5287
  383MOL0     H51660   3.016   3.785   1.791  1.2047  2.2558 -0.4614
  383MOL0     H51661   3.127   3.529   1.767  1.0857 -1.3150 -1.3227
  383MOL0     H51662   3.112   3.563   1.594 -0.7795 -0.8262  0.7539
  383MOL0     H51663   2.954   3.419   1.708  1.3606  0.3504  3.0091
  383MOL0     H51664   2.876   3.535   1.601 -0.7976 -1.0679 -0.1877
  383MOL0     H51665   2.675   3.632   1.960 -2.6647 -2.1259 -1.0260
  383MOL0     H51666   2.413   3.683   1.989 -0.2481  0.4344  0.6221
  383MOL0     H51667   2.533   3.787   2.076  0.2523  1.0541 -1.3957
  383MOL0     H51668   2.404   3.861   1.994  0.4827  1.5739 -2.8004
  383MOL0     H51669   2.092   3.793   1.849  1.8252 -0.1126  0.5868
  383MOL0     H51670   1.855   3.849   1.772 -0.7993  2.9239  1.1330
  383MOL0     H51671   1.831   4.247   1.599  0.0486 -0.6664  0.5252
  383MOL0     H51672   1.726   4.158   1.480  0.0006  1.0932 -0.7693
  383MOL0     H51673   1.615   4.344   1.606 -3.4584 -0.7259 -0.4303
  383MOL0     H51674   1.526   4.198   1.586  0.6761  0.1079  0.1865
  383MOL0     H51675   1.568   4.156   1.827  0.6317 -0.5235  0.2258
  383MOL0     H51676   1.520   4.319   1.808 -2.2899 -1.8537  0.7629
  383MOL0     H51677   1.699   4.344   1.949 -0.0927 -1.8881  0.6781
  383MOL0     H51678   1.814   4.237   1.850  0.0291  0.4590 -0.9866
  383MOL0     H51679   1.721   4.533   1.815 -0.5389  1.4700 -3.2543
  383MOL0     H51680   1.790   4.429   1.683  0.2897 -5.8559  0.4729
  383MOL0     H51681   1.984   4.403   1.787 -2.3884  0.4794 -1.8111
  383MOL0     H51682   1.960   4.579   1.804  2.1820  1.5930  5.0981
  383MOL0     H51683   1.897   4.392   2.039  0.6715 -0.1289  0.6528
  383MOL0     H51684   1.928   4.576   2.017  0.2420  0.7815 -1.4259
  383MOL0     H51685   2.142   4.373   2.011 -1.5213 -2.2944  4.1810
  383MOL0     H51686   2.086   4.464   2.151 -0.6098 -1.2405 -1.1288
  383MOL0     H51687   2.029   4.170   1.542  1.0826 -2.1634 -1.9572
  383MOL0     H51688   2.235   4.129   1.636 -1.5567  2.8737 -1.2876
  383MOL0     H51689   2.616   3.889   1.545 -2.7081  0.4749  0.4543
  383MOL0     H51690   2.810   3.763   1.577  0.8287  2.2201  0.1256
  383MOL0     H51691   3.472   2.519   1.730  1.9261 -1.3830 -1.2416
  383MOL0     H51692   3.505   2.283   1.662 -4.3555  0.4902  1.3163
  383MOL0     H51693   3.461   2.043   1.203 -0.9751  0.4495  1.3450
  383MOL0     H51694   3.585   1.894   1.057  1.8826 -1.2619 -1.1389
  383MOL0     H51695   3.595   1.691   0.968 -3.5015 -3.0379  3.1390
  383MOL0     H51696   3.773   1.689   0.945  2.7366 -1.1339  2.3219
  383MOL0     H51697   3.592   1.469   1.062  0.6151  1.0435  0.8865
  383MOL0     H51698   3.773   1.450   1.042  0.2988  1.7214  2.0123
  383MOL0     H51699   3.572   1.473   0.820  0.4794  1.1645 -2.0561
  383MOL0     H51700   3.645   1.326   0.876  0.3757  0.3536 -0.7836
  383MOL0     H51701   3.811   1.384   0.714 -2.2003 -1.8495  0.8333
  383MOL0     H51702   3.878   1.509   0.822  1.7747 -0.0106 -1.9006
  383MOL0     H51703   3.674   1.720   0.521 -2.3640 -2.9834 -0.6164
  383MOL0     H51704   3.741   1.682   1.399 -0.2337  0.6981  1.2633
  383MOL0     H51705   3.617   1.836   1.550  2.3020  0.3528 -0.5145
  384MOL0     O51706   6.747   8.399   5.356 -0.4900 -0.7381 -1.4441
  384MOL0     C51707   6.750   8.484   5.270  0.1547 -0.4382  0.1279
  384MOL0     O51708   6.854   8.556   5.237 -0.0922 -0.3224  0.0284
  384MOL0     C51709   6.986   8.522   5.243 -0.2018  0.7463 -0.3772
  384MOL0     C51710   7.082   8.622   5.262 -0.6586  0.3984 -0.1253
  384MOL0     C51711   7.218   8.594   5.282 -0.1639  0.7090  0.5010
  384MOL0     C51712   7.263   8.461   5.263 -0.8716 -0.0662  0.0423
  384MOL0     O51713   7.389   8.422   5.259  0.7601  0.7814 -0.0843
  384MOL0     C51714   7.475   8.481   5.354  0.4777 -0.3881 -0.0462
  384MOL0     C51715   7.607   8.386   5.348 -0.3123  1.3189 -1.1614
  384MOL0     C51716   7.692   8.393   5.473 -0.4396 -0.2253  0.9363
  384MOL0     C51717   7.774   8.523   5.496  0.5539 -0.0826  0.2775
  384MOL0     C51718   7.836   8.527   5.638 -0.1482  0.7267  0.8026
  384MOL0     C51719   7.929   8.646   5.667  1.1567 -0.0237  0.0738
  384MOL0     C51720   8.032   8.678   5.561  0.7027  1.0942  0.5210
  384MOL0     C51721   8.136   8.566   5.540  0.7526 -0.7085  0.0607
  384MOL0     N51722   8.220   8.589   5.422 -0.1499  0.4403  0.1705
  384MOL0     C51723   8.295   8.704   5.414 -0.4230  0.6546  0.2145
  384MOL0     C51724   8.370   8.684   5.304 -0.1226 -0.5491 -0.4656
  384MOL0     C51725   8.460   8.795   5.248 -0.4216 -0.6772 -0.9080
  384MOL0     C51726   8.566   8.845   5.339  0.2549  0.1903 -0.6923
  384MOL0     C51727   8.683   8.743   5.371 -0.7994 -0.0783 -0.7166
  384MOL0     C51728   8.721   8.747   5.524  0.1221 -0.6782 -0.5339
  384MOL0     O51729   8.774   8.881   5.565 -0.0934 -0.1683  0.6894
  384MOL0     C51730   8.748   8.926   5.693  0.8923  1.2009  0.4860
  384MOL0     C51731   8.773   9.057   5.715 -0.9593  0.0749 -0.4561
  384MOL0     C51732   8.768   9.120   5.839 -1.0249 -0.9117  0.0667
  384MOL0     C51733   8.801   9.264   5.848  0.0854  0.0067 -0.3143
  384MOL0     C51734   8.734   9.042   5.952  1.2142  0.1023  0.3476
  384MOL0     C51735   8.731   9.094   6.093  0.4662  0.7967  0.5639
  384MOL0     O51736   8.656   9.005   6.160  0.2490 -0.4587 -1.3208
  384MOL0     C51737   8.623   9.031   6.293  0.4425 -0.9196  0.8128
  384MOL0     C51738   8.714   9.022   6.388  0.6433 -0.2002 -0.8911
  384MOL0     C51739   8.683   9.028   6.525 -1.0249 -0.6628  0.4004
  384MOL0     C51740   8.547   9.036   6.561 -0.3759  0.8123  0.3201
  384MOL0     O51741   8.515   9.040   6.699 -0.5464  0.0756 -0.9324
  384MOL0     C51742   8.400   8.968   6.739  0.2867 -0.2322  0.6691
  384MOL0     C51743   8.404   8.877   6.867  0.4304 -0.6416  0.7887
  384MOL0     C51744   8.456   8.952   6.993  0.2108  0.5851 -0.3998
  384MOL0     C51745   8.374   9.067   7.050 -0.5299  0.5088  0.4795
  384MOL0     C51746   8.420   9.114   7.191  0.4198  0.5785  0.6221
  384MOL0     C51747   8.327   9.230   7.248 -0.0047 -0.4382 -0.8950
  384MOL0     C51748   8.379   9.298   7.376 -0.3156  0.7398 -0.8712
  384MOL0     C51749   8.398   9.191   7.486 -0.4620 -0.1854  0.0737
  384MOL0    Cl51750   8.250   9.083   7.509 -0.1861 -0.3467  0.1828
  384MOL0     C51751   8.450   9.059   6.464  0.0436 -0.2928  0.4769
  384MOL0     C51752   8.487   9.058   6.327  0.2768  0.6611 -0.8425
  384MOL0     O51753   8.778   9.199   6.139  0.4137 -1.1100  0.5596
  384MOL0     C51754   8.716   8.902   5.925  0.1162 -0.1270  0.2698
  384MOL0     C51755   8.716   8.844   5.802 -0.0095  0.0222  0.1948
  384MOL0     N51756   8.337   8.560   5.254 -0.7498  0.8008  0.6786
  384MOL0     N51757   8.250   8.490   5.323  0.6072 -0.1130 -0.3516
  384MOL0     C51758   7.166   8.362   5.245 -0.9431 -0.1695 -0.6892
  384MOL0     C51759   7.030   8.393   5.231 -0.3658  1.1161 -0.0637
  384MOL0     C51760   6.628   8.526   5.215  0.5970 -0.4898  1.7592
  384MOL0     C51761   6.497   8.467   5.254 -0.9436  0.3556  0.3352
  384MOL0     C51762   6.385   8.491   5.173 -0.0915  0.1843  0.1635
  384MOL0     C51763   6.383   8.585   5.069 -0.6965  0.1140  1.1629
  384MOL0     O51764   6.274   8.587   4.987 -0.1280  0.0829 -0.3011
  384MOL0     C51765   6.269   8.660   4.860 -0.2010 -0.3135 -0.2562
  384MOL0     C51766   6.149   8.756   4.872 -0.2649 -0.3766 -0.4484
  384MOL0     C51767   6.168   8.856   4.983  0.2574 -0.1336  1.0801
  384MOL0     C51768   6.075   8.976   4.958 -0.3545 -0.1530  0.1580
  384MOL0     C51769   5.930   8.945   4.969  0.0863 -0.5034 -0.6993
  384MOL0     C51770   5.818   8.916   4.982  0.3717 -0.1560 -0.5059
  384MOL0     C51771   6.507   8.635   5.028  0.4466 -0.3681 -1.1023
  384MOL0     C51772   6.621   8.612   5.106 -0.1343 -0.0650  0.0523
  384MOL0     H51773   7.053   8.726   5.276 -0.2715  0.6311 -1.0128
  384MOL0     H51774   7.287   8.673   5.309  0.1994  0.8148 -0.6875
  384MOL0     H51775   7.517   8.577   5.323  0.6154 -0.1328  0.8902
  384MOL0     H51776   7.433   8.476   5.455  1.8817 -0.3538  0.5607
  384MOL0     H51777   7.574   8.284   5.330  1.3744  0.9062 -2.1511
  384MOL0     H51778   7.666   8.406   5.258  0.7593  0.0548 -0.7716
  384MOL0     H51779   7.624   8.381   5.557 -1.4718 -1.4571 -0.0428
  384MOL0     H51780   7.773   8.320   5.472  2.7121  2.9353  1.8766
  384MOL0     H51781   7.851   8.535   5.419 -1.2949 -1.0801 -1.8539
  384MOL0     H51782   7.713   8.613   5.487 -1.0895 -1.0840  0.9468
  384MOL0     H51783   7.765   8.537   5.721  0.6157 -0.9139  1.6923
  384MOL0     H51784   7.896   8.436   5.649  0.8987  1.2927 -0.0653
  384MOL0     H51785   7.862   8.732   5.680 -2.5966 -2.4834 -1.4873
  384MOL0     H51786   7.971   8.632   5.767  1.8311  2.1403  0.1652
  384MOL0     H51787   7.985   8.699   5.465  0.3840 -4.3693 -0.8447
  384MOL0     H51788   8.077   8.770   5.599  0.8810  0.5744  1.6308
  384MOL0     H51789   8.077   8.476   5.522  3.7374 -2.2549 -3.2156
  384MOL0     H51790   8.191   8.554   5.634 -1.2848 -1.3277  1.2177
  384MOL0     H51791   8.301   8.789   5.481 -1.6148  2.2728 -1.6305
  384MOL0     H51792   8.507   8.756   5.158 -0.0960 -1.0107 -0.5957
  384MOL0     H51793   8.399   8.880   5.217 -1.1981 -1.0045 -0.3217
  384MOL0     H51794   8.522   8.894   5.427  0.4436  0.3927 -0.7083
  384MOL0     H51795   8.616   8.927   5.287 -0.1468  1.3544  0.6824
  384MOL0     H51796   8.770   8.784   5.319  0.5836  0.6141  1.9712
  384MOL0     H51797   8.660   8.643   5.332  2.6683 -1.1550 -0.3010
  384MOL0     H51798   8.806   8.680   5.536  1.1078  0.7559  0.8627
  384MOL0     H51799   8.635   8.715   5.584 -3.8603  6.1894 -1.4673
  384MOL0     H51800   8.798   9.122   5.632  1.6442 -0.0580  0.1212
  384MOL0     H51801   8.744   9.318   5.924  3.2022  1.2902  1.2457
  384MOL0     H51802   8.907   9.283   5.863 -0.2440  0.0962  2.4744
  384MOL0     H51803   8.776   9.322   5.759 -0.6616  2.2240  1.2588
  384MOL0     H51804   8.813   8.994   6.353  0.0915 -4.2848  0.2589
  384MOL0     H51805   8.752   9.028   6.609  1.8967  0.1895 -1.8663
  384MOL0     H51806   8.316   9.038   6.739 -2.3262 -3.1614 -0.1727
  384MOL0     H51807   8.375   8.895   6.662 -0.2948  0.5420  0.1033
  384MOL0     H51808   8.310   8.823   6.880 -1.0943  1.8189  0.6711
  384MOL0     H51809   8.485   8.806   6.847 -0.3910 -1.3839  0.0086
  384MOL0     H51810   8.553   8.994   6.965  0.3140 -0.3028 -1.4644
  384MOL0     H51811   8.482   8.884   7.075 -2.7210  3.4193  3.2238
  384MOL0     H51812   8.384   9.154   6.984 -0.5169 -1.5848 -2.4873
  384MOL0     H51813   8.269   9.038   7.043 -0.5885  0.6392  0.8354
  384MOL0     H51814   8.526   9.138   7.181  0.9465 -1.5196  0.6944
  384MOL0     H51815   8.411   9.027   7.256  3.4369 -0.0214  0.3877
  384MOL0     H51816   8.316   9.300   7.165  1.6582 -1.1465 -1.7656
  384MOL0     H51817   8.230   9.187   7.274  0.6880 -0.8347  1.2327
  384MOL0     H51818   8.301   9.367   7.409 -0.0526  1.6409 -2.0506
  384MOL0     H51819   8.463   9.363   7.352 -0.4122  1.4532  0.6258
  384MOL0     H51820   8.442   9.229   7.579 -0.4074  1.8943 -0.7513
  384MOL0     H51821   8.481   9.127   7.455 -1.2267 -0.6989 -0.9965
  384MOL0     H51822   8.348   9.078   6.496 -0.8064  0.5611 -2.4342
  384MOL0     H51823   8.421   9.061   6.241  0.6912 -0.1869 -1.2009
  384MOL0     H51824   8.708   8.831   6.007  0.8336  1.3636  1.6740
  384MOL0     H51825   8.707   8.736   5.803  0.8912 -0.0634  0.0777
  384MOL0     H51826   7.200   8.259   5.243 -1.4619 -0.3642 -3.0050
  384MOL0     H51827   6.965   8.309   5.210  0.2944  0.3530  0.8582
  384MOL0     H51828   6.499   8.406   5.343  3.0030 -1.4551 -0.7924
  384MOL0     H51829   6.290   8.439   5.180  0.5269 -0.7847  2.2147
  384MOL0     H51830   6.358   8.717   4.833 -0.2213 -0.2902 -0.2709
  384MOL0     H51831   6.242   8.584   4.785 -1.7300 -0.8510  0.7861
  384MOL0     H51832   6.058   8.699   4.894 -0.4870  0.3762  0.6437
  384MOL0     H51833   6.133   8.798   4.772 -0.0069 -1.0694 -0.7848
  384MOL0     H51834   6.267   8.901   4.978  0.0574  0.2836  0.7223
  384MOL0     H51835   6.149   8.817   5.084  0.6055 -2.1214  0.4196
  384MOL0     H51836   6.088   9.017   4.858 -2.6487  1.4426  0.4532
  384MOL0     H51837   6.089   9.052   5.035 -2.6364  2.8170 -2.1465
  384MOL0     H51838   5.721   8.874   4.999  0.6133 -1.9846 -3.0166
  384MOL0     H51839   6.523   8.698   4.941  0.6603 -0.0395 -0.8260
  384MOL0     H51840   6.709   8.663   5.069  0.6085 -1.3239  0.0102
  385MOL0     O51841   0.286   9.437   0.368  0.7452 -0.1310  1.0958
  385MOL0     C51842   0.353   9.457   0.460  0.0515  0.3680 -1.0885
  385MOL0     O51843   0.402   9.589   0.493  0.2407  0.0255  0.1997
  385MOL0     C51844   0.347   9.690   0.426  0.0704  0.7154 -0.5925
  385MOL0     C51845   0.395   9.717   0.305 -0.4879 -1.0564 -0.2126
  385MOL0     C51846   0.338   9.832   0.238 -0.6254 -0.0317 -0.7172
  385MOL0     C51847   0.226   9.907   0.279  0.8215  0.2938  0.6055
  385MOL0     O51848   0.177  10.015   0.219 -0.8472  0.3535  0.2985
  385MOL0     C51849   0.037  10.021   0.181 -0.4598  0.2319 -0.3061
  385MOL0     C51850  -0.015  10.156   0.124 -0.4781  0.5566  0.5575
  385MOL0     C51851  -0.167  10.175   0.118 -0.5202  0.6931 -0.9435
  385MOL0     C51852  -0.238  10.155  -0.014 -0.1335 -0.4503 -0.0621
  385MOL0     C51853  -0.381  10.104   0.016  0.3785  0.0634 -0.3206
  385MOL0     C51854  -0.431  10.051  -0.116  0.4830 -0.2314  0.2260
  385MOL0     C51855  -0.591  10.051  -0.113 -1.2250 -0.0861 -0.0244
  385MOL0     C51856  -0.641   9.924  -0.056 -0.9864 -0.0043 -0.5341
  385MOL0     N51857  -0.635   9.920   0.091  0.0046  0.2922 -0.1974
  385MOL0     C51858  -0.666  10.024   0.182 -0.4760  0.0486 -0.2442
  385MOL0     C51859  -0.616   9.983   0.303  0.5223 -0.5901  0.4786
  385MOL0     C51860  -0.604  10.067   0.430  0.4425 -0.8230 -0.0112
  385MOL0     C51861  -0.466  10.057   0.492  0.2785 -0.3178  0.2454
  385MOL0     C51862  -0.444  10.165   0.609  0.3281 -0.2227 -0.2867
  385MOL0     C51863  -0.535  10.149   0.731 -0.0071 -0.0734  0.4491
  385MOL0     O51864  -0.566  10.013   0.761 -0.2410  0.1875 -0.3756
  385MOL0     C51865  -0.599   9.960   0.882 -0.9672 -0.1480 -0.0553
  385MOL0     C51866  -0.655   9.831   0.881  0.5506  0.0781 -0.0798
  385MOL0     C51867  -0.699   9.769   1.005 -0.0148 -0.5791 -0.1411
  385MOL0     C51868  -0.755   9.621   0.997 -0.9030  0.5007 -0.0703
  385MOL0     C51869  -0.685   9.836   1.134  0.5138 -0.0544 -0.5441
  385MOL0     C51870  -0.726   9.786   1.265 -0.0575  1.1120 -0.5968
  385MOL0     O51871  -0.626   9.784   1.359 -0.2535  0.0954  0.0430
  385MOL0     C51872  -0.640   9.705   1.473 -0.4452 -0.6407 -0.1125
  385MOL0     C51873  -0.720   9.586   1.479 -0.7010 -0.6746 -1.4523
  385MOL0     C51874  -0.727   9.516   1.600  0.3828  0.7065  0.6678
  385MOL0     C51875  -0.671   9.565   1.722  0.0624 -0.2252  0.6523
  385MOL0     O51876  -0.674   9.482   1.828 -0.2459  0.1366  0.0732
  385MOL0     C51877  -0.802   9.441   1.877 -0.3386 -0.0133  0.9052
  385MOL0     C51878  -0.794   9.331   1.977 -0.2636  0.1071 -0.3122
  385MOL0     C51879  -0.745   9.190   1.923 -0.2390 -0.1809 -0.2648
  385MOL0     C51880  -0.589   9.183   1.920 -0.1778  0.0090 -0.2277
  385MOL0     C51881  -0.547   9.049   1.857  0.2569 -1.4296 -0.3224
  385MOL0     C51882  -0.400   9.053   1.817 -0.3165  1.1235 -0.1208
  385MOL0     C51883  -0.311   9.069   1.940 -0.9017  0.4561 -0.5532
  385MOL0     C51884  -0.321   8.948   2.035 -0.6346  0.3960  0.5255
  385MOL0    Cl51885  -0.171   8.923   2.106  0.7708 -0.0006 -0.1729
  385MOL0     C51886  -0.592   9.679   1.708  0.1458 -0.2030 -0.4903
  385MOL0     C51887  -0.565   9.737   1.585 -0.5582 -0.3064 -0.5917
  385MOL0     O51888  -0.840   9.744   1.277  0.1927 -0.3991  0.0219
  385MOL0     C51889  -0.622   9.965   1.128  0.0766  0.0706  0.3384
  385MOL0     C51890  -0.588  10.025   1.011 -0.7640  0.2665  0.1949
  385MOL0     N51891  -0.550   9.863   0.288 -0.6851  0.0267  0.6783
  385MOL0     N51892  -0.561   9.824   0.159 -0.0568 -0.2442 -1.0429
  385MOL0     C51893   0.167   9.857   0.394  0.5943 -0.7276 -0.2477
  385MOL0     C51894   0.226   9.752   0.470  0.2214 -0.0024 -0.2491
  385MOL0     C51895   0.390   9.333   0.543  0.3513 -0.2356  0.1887
  385MOL0     C51896   0.460   9.344   0.665  0.0195  0.8134  0.1821
  385MOL0     C51897   0.516   9.221   0.714  0.0264 -1.3626  0.3755
  385MOL0     C51898   0.499   9.097   0.673  0.2904  0.3162  0.2487
  385MOL0     O51899   0.563   8.993   0.735  0.3086  0.9647 -0.7477
  385MOL0     C51900   0.563   8.865   0.680  0.3827  0.1627  0.7434
  385MOL0     C51901   0.429   8.796   0.700  0.2433  0.4150  0.0746
  385MOL0     C51902   0.442   8.638   0.694 -0.1239  0.5296 -0.1266
  385MOL0     C51903   0.345   8.579   0.799  0.7634  0.1184 -0.1934
  385MOL0     C51904   0.349   8.433   0.794  0.1604  0.5428  1.1853
  385MOL0     C51905   0.336   8.316   0.816  0.2530  0.0724 -0.8465
  385MOL0     C51906   0.436   9.094   0.550  0.2692  0.1783 -0.3796
  385MOL0     C51907   0.383   9.211   0.488 -0.1964 -0.3931 -0.1695
  385MOL0     H51908   0.474   9.655   0.264 -0.0724 -0.7109  0.0621
  385MOL0     H51909   0.374   9.856   0.138 -0.3954 -0.7519 -0.8144
  385MOL0     H51910   0.016   9.936   0.115  0.8999 -1.9796  1.9332
  385MOL0     H51911  -0.012  10.006   0.278  0.3743 -1.7228 -0.1278
  385MOL0     H51912   0.017  10.244   0.180 -1.7255  1.0293  0.5582
  385MOL0     H51913   0.030  10.169   0.025 -1.8084 -2.7993 -0.6492
  385MOL0     H51914  -0.211  10.122   0.204 -0.6163 -0.0209 -1.4261
  385MOL0     H51915  -0.175  10.282   0.137  2.1581  1.4166 -3.3369
  385MOL0     H51916  -0.235  10.249  -0.070 -2.5633  0.6845  1.5206
  385MOL0     H51917  -0.172  10.088  -0.068  0.2133 -1.5018  1.5829
  385MOL0     H51918  -0.385  10.030   0.097  1.0946 -0.5826 -0.8589
  385MOL0     H51919  -0.446  10.180   0.058 -2.1567 -2.7975  1.3332
  385MOL0     H51920  -0.417  10.131  -0.190 -0.2757 -0.7568 -0.5050
  385MOL0     H51921  -0.383   9.957  -0.142 -0.6133  0.0175 -3.0902
  385MOL0     H51922  -0.641  10.136  -0.065 -1.6338 -0.5347  0.3687
  385MOL0     H51923  -0.611  10.064  -0.219  0.6068  3.3533 -0.0824
  385MOL0     H51924  -0.579   9.841  -0.092  3.7025  3.1900 -0.6208
  385MOL0     H51925  -0.746   9.917  -0.085 -1.0086 -1.0841 -0.2430
  385MOL0     H51926  -0.717  10.115   0.152  0.1960 -0.1395 -2.0388
  385MOL0     H51927  -0.613  10.172   0.399 -2.1495 -0.1314  2.6327
  385MOL0     H51928  -0.691  10.037   0.489 -0.7640  1.2003 -0.6407
  385MOL0     H51929  -0.381  10.061   0.424  0.3463  0.3412  0.3630
  385MOL0     H51930  -0.459   9.960   0.544  2.4028  0.3826  1.3937
  385MOL0     H51931  -0.456  10.263   0.562 -0.5946 -0.3713 -0.3773
  385MOL0     H51932  -0.347  10.154   0.657  2.0064  1.7063 -2.9268
  385MOL0     H51933  -0.631  10.199   0.717 -3.0914 -5.2878  0.5471
  385MOL0     H51934  -0.498  10.210   0.814 -1.0059  2.1199 -0.6071
  385MOL0     H51935  -0.662   9.773   0.789  1.4189 -1.1588  0.6007
  385MOL0     H51936  -0.729   9.570   0.904  3.4969 -0.3888  1.4088
  385MOL0     H51937  -0.712   9.553   1.070  1.2841  1.3828 -0.4680
  385MOL0     H51938  -0.865   9.618   1.001 -0.9101  1.5823  2.1095
  385MOL0     H51939  -0.772   9.550   1.392 -0.2993 -1.5039 -1.3560
  385MOL0     H51940  -0.788   9.428   1.616  1.8120 -0.0985  2.1021
  385MOL0     H51941  -0.850   9.531   1.915  0.7630  1.1059 -0.2814
  385MOL0     H51942  -0.862   9.399   1.796  0.7654 -0.1408  0.1218
  385MOL0     H51943  -0.727   9.352   2.062 -1.2489 -2.5249  1.2229
  385MOL0     H51944  -0.895   9.314   2.014 -1.1544  1.5702 -1.9428
  385MOL0     H51945  -0.790   9.165   1.827  0.6550 -2.4317 -0.1820
  385MOL0     H51946  -0.780   9.104   1.980 -1.4194 -0.6744 -1.6730
  385MOL0     H51947  -0.545   9.266   1.865 -1.3238  1.6058  1.1600
  385MOL0     H51948  -0.566   9.176   2.027  0.0185 -0.8416 -0.3208
  385MOL0     H51949  -0.609   9.036   1.769  1.2479 -0.3438 -1.2174
  385MOL0     H51950  -0.574   8.977   1.935 -2.3112  1.4295  1.6741
  385MOL0     H51951  -0.366   8.972   1.752 -2.8430  0.9958 -1.3978
  385MOL0     H51952  -0.381   9.135   1.747  1.1005 -0.5003 -1.7496
  385MOL0     H51953  -0.324   9.160   2.000  1.5105  1.1692 -0.9777
  385MOL0     H51954  -0.209   9.060   1.900 -2.0378 -1.8298 -3.2898
  385MOL0     H51955  -0.357   8.859   1.983 -5.0352  0.4994  2.9032
  385MOL0     H51956  -0.404   8.962   2.104 -2.6037 -1.0926 -1.3967
  385MOL0     H51957  -0.532   9.715   1.791  1.6918  2.1458 -2.4872
  385MOL0     H51958  -0.493   9.819   1.583 -1.9591  1.0853  1.4403
  385MOL0     H51959  -0.590  10.028   1.210  3.8286  0.1950 -1.0267
  385MOL0     H51960  -0.545  10.125   1.009 -1.7982  0.7253 -1.3061
  385MOL0     H51961   0.074   9.892   0.438  1.7966  1.0845  0.9540
  385MOL0     H51962   0.179   9.720   0.563  1.7914  1.3157  1.0845
  385MOL0     H51963   0.484   9.445   0.698 -1.7391  1.3064  0.0901
  385MOL0     H51964   0.574   9.230   0.805  2.3526  0.5401 -1.1742
  385MOL0     H51965   0.590   8.870   0.574 -2.3747  1.3594 -0.0101
  385MOL0     H51966   0.640   8.796   0.715 -0.2083 -0.6889  0.3969
  385MOL0     H51967   0.353   8.825   0.626 -2.4007  2.5918  3.3380
  385MOL0     H51968   0.405   8.825   0.803  4.0750  0.4412  1.1301
  385MOL0     H51969   0.546   8.606   0.706 -1.0914 -3.7173 -1.2864
  385MOL0     H51970   0.417   8.602   0.594 -0.2315 -2.5465  0.9119
  385MOL0     H51971   0.247   8.624   0.779  0.9229  0.5985  0.0970
  385MOL0     H51972   0.372   8.598   0.903 -3.2561 -1.5752  1.3706
  385MOL0     H51973   0.324   8.211   0.830  0.7838  0.3243  2.2010
  385MOL0     H51974   0.419   9.000   0.499 -0.1721  0.0900 -0.0687
  385MOL0     H51975   0.321   9.206   0.398  1.0001  0.9119 -1.1150
  386MOL0     O51976  10.695   2.535   0.180 -0.0826 -0.8704  0.1848
  386MOL0     C51977  10.598   2.610   0.158 -0.2808  0.3666  0.3695
  386MOL0     O51978  10.478   2.577   0.150 -0.0725  0.3080  0.7262
  386MOL0     C51979  10.430   2.450   0.155  0.2584  0.2961 -0.1572
  386MOL0     C51980  10.472   2.357   0.067  0.3791 -0.2266 -0.2185
  386MOL0     C51981  10.394   2.242   0.052  0.6017  0.6030 -0.1683
  386MOL0     C51982  10.284   2.213   0.114 -0.6990  0.2915 -0.1779
  386MOL0     O51983  10.222   2.091   0.086  0.2949  0.3536  0.1590
  386MOL0     C51984  10.133   2.026   0.177  0.0521 -1.0616 -1.3729
  386MOL0     C51985  10.082   1.892   0.134 -0.1014  0.0268 -0.0876
  386MOL0     C51986  10.180   1.777   0.163 -0.4708  0.6422  0.4596
  386MOL0     C51987  10.319   1.760   0.093 -0.0309 -0.9098 -0.5929
  386MOL0     C51988  10.430   1.845   0.160  0.1578 -0.0817 -0.1064
  386MOL0     C51989  10.489   1.775   0.293  1.3614  0.5317  0.5159
  386MOL0     C51990  10.600   1.854   0.367  0.0888 -0.0291 -0.6638
  386MOL0     C51991  10.614   1.801   0.514 -0.0550 -0.2651  0.0022
  386MOL0     N51992  10.699   1.896   0.596  0.2146  0.0343  0.4414
  386MOL0     C51993  10.833   1.887   0.606 -0.7442 -0.3312  0.2286
  386MOL0     C51994  10.875   1.992   0.677  0.1614  0.9549  0.5075
  386MOL0     C51995  11.010   2.035   0.726  0.8402 -0.1388  0.2794
  386MOL0     C51996  11.127   1.993   0.635 -0.1234  0.6756  0.1228
  386MOL0     C51997  11.255   2.073   0.682 -0.9570 -0.3205 -0.0251
  386MOL0     C51998  11.379   2.013   0.617 -0.4579 -1.3651 -0.4569
  386MOL0     O51999  11.474   2.117   0.653  0.8858  0.2712 -1.0812
  386MOL0     C52000  11.614   2.107   0.629  0.0733  0.1001  1.2260
  386MOL0     C52001  11.684   1.993   0.578  0.2227  0.8359 -0.3894
  386MOL0     C52002  11.817   1.999   0.552  0.0355 -0.3907 -0.3682
  386MOL0     C52003  11.872   1.885   0.485 -0.2166 -0.3808  0.0144
  386MOL0     C52004  11.890   2.120   0.590 -0.3000  0.6214  0.9375
  386MOL0     C52005  12.039   2.135   0.569 -0.2966 -0.7068 -1.2206
  386MOL0     O52006  12.108   2.042   0.496  0.5699  0.3277 -0.3537
  386MOL0     C52007  12.213   2.088   0.432  0.7444  0.6183  0.0609
  386MOL0     C52008  12.191   2.154   0.319  0.5010 -1.4074 -0.2848
  386MOL0     C52009  12.304   2.196   0.234  0.8776  0.2825 -0.7627
  386MOL0     C52010  12.433   2.155   0.262  0.3227 -0.8263 -1.0622
  386MOL0     O52011  12.549   2.201   0.210 -0.8160  0.7818 -0.5691
  386MOL0     C52012  12.536   2.257   0.074 -0.0366  0.5261 -0.0474
  386MOL0     C52013  12.674   2.237   0.009  0.5896  0.2419 -0.1364
  386MOL0     C52014  12.683   2.294  -0.134  1.5805  0.2741  0.5386
  386MOL0     C52015  12.584   2.236  -0.240  0.8897  0.1028  0.2307
  386MOL0     C52016  12.612   2.309  -0.374 -0.9197 -0.4392  0.9212
  386MOL0     C52017  12.512   2.262  -0.487 -0.7929  0.3116 -0.2742
  386MOL0     C52018  12.561   2.130  -0.548  1.0104 -0.6745 -0.3328
  386MOL0     C52019  12.462   2.021  -0.506  0.8551  0.0362 -0.1766
  386MOL0    Cl52020  12.517   1.859  -0.520  0.1480  0.0373 -0.2968
  386MOL0     C52021  12.448   2.084   0.377 -0.0387 -0.6147 -0.1809
  386MOL0     C52022  12.348   2.044   0.462 -0.3212 -0.1780 -0.9624
  386MOL0     O52023  12.087   2.248   0.605  0.0514  0.2254 -0.7469
  386MOL0     C52024  11.821   2.220   0.650  0.4427  1.0628 -0.1402
  386MOL0     C52025  11.688   2.222   0.671 -0.8268 -0.9253 -0.5653
  386MOL0     N52026  10.760   2.062   0.702 -0.0375  0.0310 -0.0389
  386MOL0     N52027  10.660   2.019   0.648 -0.3406  1.3586  0.6768
  386MOL0     C52028  10.249   2.300   0.216  0.2969  0.0819 -0.3369
  386MOL0     C52029  10.306   2.427   0.229 -0.2315  0.3475 -0.8725
  386MOL0     C52030  10.628   2.758   0.134 -0.8470  0.2047 -0.2129
  386MOL0     C52031  10.749   2.826   0.170  0.2923 -0.6417  0.5857
  386MOL0     C52032  10.759   2.965   0.150 -0.4851  0.7934 -0.1414
  386MOL0     C52033  10.662   3.033   0.065 -1.4077  0.2504 -0.5551
  386MOL0     O52034  10.667   3.172   0.035 -0.8774 -0.0664 -0.1147
  386MOL0     C52035  10.796   3.246   0.037  0.9639  0.4406 -0.2194
  386MOL0     C52036  10.815   3.302   0.180 -0.1553  0.6112  0.1463
  386MOL0     C52037  10.906   3.425   0.178 -0.5095 -1.0412 -0.8695
  386MOL0     C52038  11.036   3.411   0.106 -0.5842  0.1133  1.5017
  386MOL0     C52039  11.120   3.316   0.168 -1.0719  0.5507 -0.0652
  386MOL0     C52040  11.218   3.248   0.197 -0.7910  0.4441 -0.6639
  386MOL0     C52041  10.547   2.957   0.033  0.9340 -0.6188 -0.3687
  386MOL0     C52042  10.528   2.824   0.066 -0.5858  0.5577  1.3412
  386MOL0     H52043  10.562   2.366   0.008  1.3200  1.2199  1.3408
  386MOL0     H52044  10.442   2.162  -0.004  0.3744 -1.9253  3.0107
  386MOL0     H52045  10.165   2.030   0.282 -4.6108  4.2624  0.3708
  386MOL0     H52046  10.042   2.084   0.193  0.1914 -0.7241 -1.7845
  386MOL0     H52047   9.991   1.861   0.187  0.7300  0.0377  1.3968
  386MOL0     H52048  10.054   1.900   0.029 -2.8099 -1.6478  0.4099
  386MOL0     H52049  10.195   1.785   0.271  0.8165 -0.3023  0.3646
  386MOL0     H52050  10.124   1.685   0.143  1.0512 -0.1896 -0.0994
  386MOL0     H52051  10.353   1.656   0.100  0.1434 -0.7449  3.2589
  386MOL0     H52052  10.300   1.797  -0.008  2.5918  2.7193  0.0584
  386MOL0     H52053  10.511   1.884   0.099  0.5417  0.8968  0.9902
  386MOL0     H52054  10.396   1.942   0.196 -2.6327  0.1968 -3.0871
  386MOL0     H52055  10.407   1.767   0.366 -0.8435 -1.1489 -1.9358
  386MOL0     H52056  10.540   1.679   0.276  3.3736  1.6075  0.1928
  386MOL0     H52057  10.694   1.852   0.311  0.7649  6.7842 -0.6244
  386MOL0     H52058  10.569   1.959   0.364 -0.9779 -0.3143 -0.1252
  386MOL0     H52059  10.653   1.699   0.518 -0.8384 -0.6093 -0.8956
  386MOL0     H52060  10.513   1.790   0.552 -0.3997 -1.6029 -1.2276
  386MOL0     H52061  10.904   1.812   0.573  0.2436  0.4932  0.4549
  386MOL0     H52062  11.012   2.144   0.727  1.1344 -0.1375  1.9484
  386MOL0     H52063  11.028   2.007   0.830  0.6821 -0.2940  0.2661
  386MOL0     H52064  11.103   2.003   0.529 -2.9664 -0.9232  0.5138
  386MOL0     H52065  11.141   1.887   0.656 -0.8943  0.9716  2.4634
  386MOL0     H52066  11.265   2.073   0.791  3.4883  3.1269 -0.1563
  386MOL0     H52067  11.246   2.174   0.641  0.0184  0.3757  1.3802
  386MOL0     H52068  11.377   1.992   0.510 -2.3595 -0.5360 -0.6157
  386MOL0     H52069  11.403   1.917   0.665 -1.2206 -2.0597 -1.4179
  386MOL0     H52070  11.624   1.905   0.562  0.3928  0.6054  0.2196
  386MOL0     H52071  11.896   1.912   0.382  2.7375  1.9911  1.1479
  386MOL0     H52072  11.958   1.844   0.540  3.0375 -2.0570 -5.5291
  386MOL0     H52073  11.796   1.807   0.474  0.6697 -1.4425  1.0957
  386MOL0     H52074  12.091   2.194   0.307  0.6722  1.2417  4.5675
  386MOL0     H52075  12.284   2.253   0.144  0.1856 -0.7938 -1.3112
  386MOL0     H52076  12.467   2.193   0.017  1.9813 -4.1144  2.1948
  386MOL0     H52077  12.505   2.362   0.074 -0.3704  0.5305  3.2883
  386MOL0     H52078  12.737   2.288   0.083 -1.2684  3.3788 -0.5156
  386MOL0     H52079  12.707   2.133   0.010  1.0813  0.3691 -1.1756
  386MOL0     H52080  12.786   2.278  -0.167  0.5310  1.2247 -3.7552
  386MOL0     H52081  12.675   2.402  -0.121  2.0080  0.0808  2.8198
  386MOL0     H52082  12.590   2.127  -0.243 -2.7724 -0.2150 -0.5404
  386MOL0     H52083  12.483   2.272  -0.215  0.8333  0.3683 -0.3429
  386MOL0     H52084  12.713   2.299  -0.415 -0.9709  1.7772  0.1732
  386MOL0     H52085  12.593   2.416  -0.369  1.3813 -0.0267  3.3290
  386MOL0     H52086  12.412   2.240  -0.449  0.0393 -0.6035  1.5331
  386MOL0     H52087  12.496   2.341  -0.561 -0.0627  1.0826  0.3608
  386MOL0     H52088  12.664   2.108  -0.517  1.1734 -0.2669 -0.5775
  386MOL0     H52089  12.558   2.129  -0.658 -1.2993  0.5295 -0.3395
  386MOL0     H52090  12.374   2.020  -0.572  0.0456 -0.7908  0.8817
  386MOL0     H52091  12.431   2.033  -0.402 -0.6338  1.9423 -0.7807
  386MOL0     H52092  12.550   2.063   0.408  1.0999  0.5246 -2.8659
  386MOL0     H52093  12.364   2.002   0.561  1.1984  0.9689 -0.6746
  386MOL0     H52094  11.880   2.306   0.682  2.0937 -0.0754  0.0274
  386MOL0     H52095  11.634   2.303   0.719 -1.2374 -0.8718 -1.1126
  386MOL0     H52096  10.160   2.286   0.276 -0.2605  3.0469 -0.3283
  386MOL0     H52097  10.253   2.502   0.286 -2.1995  0.9566 -3.3235
  386MOL0     H52098  10.804   2.768   0.243 -2.7769 -1.7307  2.2375
  386MOL0     H52099  10.840   3.021   0.196  0.3917 -1.8439  1.7054
  386MOL0     H52100  10.878   3.180   0.008  0.6960 -1.4295  2.7711
  386MOL0     H52101  10.786   3.327  -0.036 -0.6191  0.1627 -0.3538
  386MOL0     H52102  10.859   3.240   0.259 -0.4557  1.6115  1.1284
  386MOL0     H52103  10.715   3.323   0.219 -1.1814 -1.3254 -1.2497
  386MOL0     H52104  10.913   3.471   0.277 -1.5554  1.8505 -2.0283
  386MOL0     H52105  10.849   3.504   0.128  1.3110  3.0185  2.6956
  386MOL0     H52106  11.099   3.500   0.098 -0.9029  0.3355  1.4250
  386MOL0     H52107  11.018   3.392   0.000 -0.5775  1.4078  1.2410
  386MOL0     H52108  11.295   3.187   0.240 -3.6781 -0.6722  3.5690
  386MOL0     H52109  10.465   3.008  -0.017  1.0130 -0.8702 -0.7597
  386MOL0     H52110  10.444   2.760   0.042 -0.6569  0.4038  1.9751
  387MOL0     O52111   2.701   4.038   2.779  0.3717 -0.3449 -0.0738
  387MOL0     C52112   2.737   4.148   2.731  0.0139 -0.7485  0.6004
  387MOL0     O52113   2.732   4.272   2.783  0.0467  0.0866 -0.6251
  387MOL0     C52114   2.724   4.285   2.925  0.0527  0.3222  0.1219
  387MOL0     C52115   2.632   4.223   3.005  0.9012 -0.2000 -0.2180
  387MOL0     C52116   2.639   4.230   3.146  0.2255 -0.8526 -0.6486
  387MOL0     C52117   2.732   4.322   3.202  0.0763  0.6519  0.0503
  387MOL0     O52118   2.757   4.336   3.336 -0.5136 -0.6748 -0.5979
  387MOL0     C52119   2.659   4.282   3.424  0.0022  0.4626 -0.4403
  387MOL0     C52120   2.659   4.329   3.563  0.2588 -0.0947 -0.2840
  387MOL0     C52121   2.645   4.478   3.570  1.1375 -0.0302  0.2160
  387MOL0     C52122   2.656   4.527   3.718  0.5224 -0.4631 -0.2334
  387MOL0     C52123   2.674   4.677   3.710 -1.2838 -0.5641 -0.2130
  387MOL0     C52124   2.688   4.736   3.856  0.6453  0.1230 -0.3751
  387MOL0     C52125   2.817   4.701   3.933  1.1542  0.5232  0.2502
  387MOL0     C52126   2.814   4.745   4.086  0.4246 -0.1913 -0.3560
  387MOL0     N52127   2.800   4.896   4.101  0.7300  0.1065  0.5230
  387MOL0     C52128   2.896   4.983   4.052 -1.0223 -0.5422  0.0466
  387MOL0     C52129   2.875   5.103   4.113 -1.2153  0.8139  0.2985
  387MOL0     C52130   2.947   5.237   4.111 -0.2282 -0.2480  0.2597
  387MOL0     C52131   3.052   5.234   4.005  0.3577  0.0885 -0.9276
  387MOL0     C52132   2.989   5.234   3.871 -0.2720  0.4832 -0.2883
  387MOL0     C52133   3.089   5.171   3.771  1.6099  0.2709  0.2812
  387MOL0     O52134   3.037   5.180   3.637 -0.1294 -0.0337  0.8364
  387MOL0     C52135   3.117   5.125   3.540  0.2773  0.3413 -0.3459
  387MOL0     C52136   3.086   5.167   3.416  0.7400  0.7431 -0.1385
  387MOL0     C52137   3.159   5.120   3.308  0.2606 -0.2646 -1.3787
  387MOL0     C52138   3.087   5.161   3.174  0.1245  0.3834 -0.2533
  387MOL0     C52139   3.271   5.036   3.326  0.0682  0.3652 -0.1578
  387MOL0     C52140   3.352   4.978   3.206 -0.4822  0.3232 -1.3806
  387MOL0     O52141   3.469   4.914   3.241  0.0171  0.0628  0.0839
  387MOL0     C52142   3.559   4.870   3.140  0.4102 -0.4654 -0.5858
  387MOL0     C52143   3.699   4.904   3.145  0.2877 -0.6172 -0.8776
  387MOL0     C52144   3.786   4.839   3.063 -0.2281 -0.9628 -0.8571
  387MOL0     C52145   3.744   4.741   2.970 -0.2349  0.1031  0.5401
  387MOL0     O52146   3.842   4.683   2.893 -0.2578  0.8169 -0.4124
  387MOL0     C52147   3.955   4.628   2.963  0.4895  0.7206  0.4725
  387MOL0     C52148   4.060   4.590   2.861  0.0699  0.1759 -0.2142
  387MOL0     C52149   3.990   4.512   2.743  0.0736  1.2504 -0.2326
  387MOL0     C52150   4.098   4.482   2.642 -0.1946  0.4605 -0.1183
  387MOL0     C52151   4.105   4.598   2.541 -0.1925 -0.1561  0.5991
  387MOL0     C52152   4.211   4.568   2.437 -0.3232  0.1841  0.4934
  387MOL0     C52153   4.347   4.535   2.495 -0.0513 -0.4457 -0.5909
  387MOL0     C52154   4.453   4.525   2.382  0.0711 -0.2309 -0.3190
  387MOL0    Cl52155   4.504   4.355   2.381 -0.4308  0.2930 -0.1309
  387MOL0     C52156   3.610   4.700   2.972 -0.2782  0.1423 -0.8275
  387MOL0     C52157   3.517   4.764   3.057 -0.3991  0.2596 -0.0398
  387MOL0     O52158   3.305   4.992   3.089  0.0575  0.7113  0.8566
  387MOL0     C52159   3.298   5.000   3.455 -0.0248 -0.0226  1.2319
  387MOL0     C52160   3.218   5.024   3.558  1.1600 -0.3776  0.3441
  387MOL0     N52161   2.783   5.073   4.214 -0.9232  0.0122  0.3803
  387MOL0     N52162   2.730   4.959   4.192  0.3421  0.4170 -0.8934
  387MOL0     C52163   2.830   4.386   3.120 -0.1813  0.3802 -0.2033
  387MOL0     C52164   2.814   4.377   2.984  0.5650  1.1282  0.1311
  387MOL0     C52165   2.782   4.143   2.590 -0.4053  0.3793 -0.1868
  387MOL0     C52166   2.861   4.248   2.541 -0.2238  0.3216  0.6784
  387MOL0     C52167   2.910   4.244   2.410 -0.1242 -0.1052 -0.2568
  387MOL0     C52168   2.861   4.147   2.323  0.0666  0.4774 -0.0280
  387MOL0     O52169   2.899   4.163   2.194 -0.2243  0.7522  0.0653
  387MOL0     C52170   2.851   4.078   2.086 -0.4526 -0.7443  1.2023
  387MOL0     C52171   2.883   4.159   1.961  0.4246  0.4848  0.2972
  387MOL0     C52172   2.821   4.107   1.831  0.2788  0.9190 -0.0930
  387MOL0     C52173   2.856   4.159   1.687 -0.5188  1.1972 -0.4347
  387MOL0     C52174   2.996   4.132   1.652 -0.7661 -0.8683  0.8047
  387MOL0     C52175   3.105   4.119   1.615  0.4978  0.3122  0.9795
  387MOL0     C52176   2.787   4.042   2.373  0.5230 -0.1924 -0.0849
  387MOL0     C52177   2.756   4.028   2.506 -0.6160  0.0188 -0.1186
  387MOL0     H52178   2.541   4.174   2.969  2.1227 -3.8115  1.1635
  387MOL0     H52179   2.577   4.164   3.205  0.6013 -0.8213 -0.2158
  387MOL0     H52180   2.555   4.300   3.394 -0.4225  0.9828  1.2304
  387MOL0     H52181   2.666   4.174   3.434 -0.0989  0.7146  4.6866
  387MOL0     H52182   2.575   4.288   3.621 -0.2884  1.9384  0.4567
  387MOL0     H52183   2.749   4.288   3.611  0.0798 -0.8403 -0.5801
  387MOL0     H52184   2.726   4.521   3.510  0.1070 -1.6145 -2.4962
  387MOL0     H52185   2.547   4.505   3.530  0.5716 -0.5326  1.2272
  387MOL0     H52186   2.567   4.505   3.778 -0.0624  1.0345 -0.5086
  387MOL0     H52187   2.737   4.473   3.768 -0.5099 -0.9729  0.9388
  387MOL0     H52188   2.771   4.706   3.669 -1.0989 -1.7906 -0.6906
  387MOL0     H52189   2.591   4.721   3.656  0.4454 -0.7134 -3.2076
  387MOL0     H52190   2.682   4.842   3.832 -0.9011 -0.1633 -1.4077
  387MOL0     H52191   2.612   4.698   3.925  0.4074 -1.6824 -1.5385
  387MOL0     H52192   2.818   4.592   3.931 -0.1437  0.4846  0.9741
  387MOL0     H52193   2.905   4.732   3.876  1.6339  0.8762  1.1596
  387MOL0     H52194   2.907   4.710   4.132  1.0209  3.8421  2.0882
  387MOL0     H52195   2.722   4.706   4.131  0.3890  1.4951  1.1830
  387MOL0     H52196   2.963   4.956   3.971  0.6559 -0.1931  1.2556
  387MOL0     H52197   2.883   5.325   4.099 -1.6249 -1.4782 -1.9039
  387MOL0     H52198   2.991   5.250   4.210  0.7026 -3.0057  0.3061
  387MOL0     H52199   3.117   5.150   4.031 -0.9186  0.5248  5.0096
  387MOL0     H52200   3.116   5.323   4.006 -1.8968  1.8082  0.6371
  387MOL0     H52201   2.954   5.334   3.846  2.3057  1.4744 -0.2699
  387MOL0     H52202   2.896   5.177   3.873  1.0491 -1.9541  3.6185
  387MOL0     H52203   3.118   5.069   3.798 -0.0607 -0.0886  0.8219
  387MOL0     H52204   3.185   5.224   3.773  1.2011  1.0031  0.8757
  387MOL0     H52205   2.991   5.220   3.412  1.4775  2.0584 -1.1759
  387MOL0     H52206   3.072   5.077   3.105  0.0872 -0.7681  1.1140
  387MOL0     H52207   2.987   5.203   3.188 -0.6566 -1.4139 -0.1072
  387MOL0     H52208   3.143   5.232   3.113  1.7630 -0.6214  0.0422
  387MOL0     H52209   3.725   4.987   3.208 -0.5980 -0.3352 -0.8618
  387MOL0     H52210   3.890   4.870   3.065 -0.0077 -1.6998  0.7368
  387MOL0     H52211   3.995   4.703   3.032  2.7737  0.8088 -0.8582
  387MOL0     H52212   3.933   4.544   3.030 -1.7381  2.0627  1.5599
  387MOL0     H52213   4.101   4.688   2.831  2.0538 -1.1594 -2.2142
  387MOL0     H52214   4.141   4.530   2.904 -0.0392  1.4438  1.8795
  387MOL0     H52215   3.916   4.575   2.693  0.0860  0.0346 -1.8503
  387MOL0     H52216   3.949   4.420   2.785 -0.9056  0.4183 -2.8083
  387MOL0     H52217   4.192   4.462   2.694 -1.6713 -4.3306  1.2794
  387MOL0     H52218   4.078   4.382   2.601  1.5997  0.0372 -0.0566
  387MOL0     H52219   4.142   4.674   2.610 -0.0365 -1.4784  2.0217
  387MOL0     H52220   4.015   4.639   2.495  2.9685  2.3231 -4.3696
  387MOL0     H52221   4.175   4.481   2.381 -2.1557 -0.4345  2.4776
  387MOL0     H52222   4.206   4.652   2.367 -1.3304 -0.9893 -0.9096
  387MOL0     H52223   4.348   4.448   2.561  1.4892 -0.0664 -0.0602
  387MOL0     H52224   4.373   4.617   2.563  2.6516 -0.1491 -1.8508
  387MOL0     H52225   4.547   4.578   2.399  0.8440 -2.1239  1.7149
  387MOL0     H52226   4.410   4.546   2.283  0.6863 -2.5018 -1.1356
  387MOL0     H52227   3.584   4.626   2.897  1.0447 -1.7276  0.4509
  387MOL0     H52228   3.418   4.719   3.051  0.0232 -0.7044 -0.0328
  387MOL0     H52229   3.378   4.934   3.485 -1.7432 -0.2069  6.3258
  387MOL0     H52230   3.249   4.978   3.652  0.4497 -0.8406  0.3652
  387MOL0     H52231   2.913   4.444   3.158 -0.4762 -0.1803  1.3720
  387MOL0     H52232   2.864   4.446   2.917  0.3688  2.1646  1.0163
  387MOL0     H52233   2.873   4.340   2.597  1.1033 -0.8377  2.4159
  387MOL0     H52234   2.971   4.327   2.375  0.2048  0.2259  1.0587
  387MOL0     H52235   2.911   3.986   2.088  1.8800  0.4600 -2.8840
  387MOL0     H52236   2.743   4.065   2.096 -0.8633  1.1407 -0.2431
  387MOL0     H52237   2.991   4.146   1.949 -0.0660 -3.7123 -1.1343
  387MOL0     H52238   2.860   4.265   1.975 -0.9059  0.1910  0.4381
  387MOL0     H52239   2.712   4.112   1.846  0.4804  3.2083  1.0671
  387MOL0     H52240   2.838   4.000   1.817 -2.4103  0.1614  1.5480
  387MOL0     H52241   2.821   4.260   1.668 -0.2085  1.0575 -1.8735
  387MOL0     H52242   2.787   4.110   1.618 -0.6631  3.3400 -1.8969
  387MOL0     H52243   3.206   4.115   1.581 -0.1481  0.3841 -1.0447
  387MOL0     H52244   2.776   3.949   2.317 -0.1394  0.6079 -1.3281
  387MOL0     H52245   2.709   3.938   2.544 -0.7794  0.1374 -0.0354
  388MOL0     O52246  11.406   0.911   6.611 -0.0796 -0.2184  0.3666
  388MOL0     C52247  11.381   0.917   6.728  0.5741  0.1753  0.7788
  388MOL0     O52248  11.415   0.821   6.821 -0.4006 -1.0241 -0.3915
  388MOL0     C52249  11.517   0.730   6.792  0.0797  0.1412  0.1986
  388MOL0     C52250  11.633   0.758   6.707  0.9266  0.3717  0.4217
  388MOL0     C52251  11.742   0.664   6.686 -0.4289  1.0239  0.4210
  388MOL0     C52252  11.735   0.527   6.744  0.3243 -0.3653  0.1545
  388MOL0     O52253  11.833   0.425   6.707 -0.6294  0.0528 -0.5194
  388MOL0     C52254  11.850   0.396   6.574  0.0828 -0.7296  1.3587
  388MOL0     C52255  11.980   0.449   6.515 -0.4834  0.1240 -0.1003
  388MOL0     C52256  11.973   0.480   6.363  0.6613 -0.5753 -0.9072
  388MOL0     C52257  11.954   0.628   6.334 -0.2455  1.0762  0.3226
  388MOL0     C52258  12.077   0.717   6.372  0.1694 -0.2962  0.5167
  388MOL0     C52259  12.039   0.864   6.328  1.2110 -0.3113 -0.3468
  388MOL0     C52260  12.160   0.953   6.325 -0.2815  0.0176  0.3401
  388MOL0     C52261  12.241   0.968   6.454 -0.8197  0.2869  0.4850
  388MOL0     N52262  12.175   1.074   6.534 -0.2001 -0.0231 -0.4149
  388MOL0     C52263  12.048   1.086   6.589  0.4703  0.6833 -0.4761
  388MOL0     C52264  12.038   1.220   6.628 -0.8328  0.5142 -0.1647
  388MOL0     C52265  11.929   1.284   6.707 -0.5775 -1.2654  0.8249
  388MOL0     C52266  11.810   1.199   6.750  0.6626 -0.1431  0.0728
  388MOL0     C52267  11.750   1.273   6.871 -0.6174  0.3485  0.1512
  388MOL0     C52268  11.614   1.223   6.916  0.4353  0.8314 -0.1456
  388MOL0     O52269  11.597   1.295   7.042  0.4824  0.0770  0.2623
  388MOL0     C52270  11.516   1.400   7.048 -0.0080 -1.1260 -0.1047
  388MOL0     C52271  11.492   1.488   6.938  0.5868 -0.4135 -0.3396
  388MOL0     C52272  11.429   1.614   6.952  0.4788  0.1664  0.2951
  388MOL0     C52273  11.394   1.692   6.827  0.1245 -0.8043  0.3521
  388MOL0     C52274  11.371   1.647   7.084  1.8529  0.1836 -0.7149
  388MOL0     C52275  11.296   1.776   7.108  0.0060  0.0862  0.5386
  388MOL0     O52276  11.323   1.887   7.029 -0.3495  0.0851 -0.8404
  388MOL0     C52277  11.271   2.012   7.064  0.0559 -0.0605  0.3296
  388MOL0     C52278  11.351   2.095   7.143  0.1438  0.5489  0.0056
  388MOL0     C52279  11.319   2.228   7.172  0.7306  1.5523  0.6331
  388MOL0     C52280  11.189   2.274   7.136 -1.1714 -0.1037 -0.5921
  388MOL0     O52281  11.151   2.396   7.174 -0.0768  0.4773 -0.5048
  388MOL0     C52282  11.049   2.405   7.272 -0.5725 -0.2239  0.3083
  388MOL0     C52283  11.037   2.552   7.327 -0.4452 -0.8648  0.9583
  388MOL0     C52284  11.076   2.655   7.209  0.7771  0.0663  0.5696
  388MOL0     C52285  11.005   2.788   7.249  0.3440  0.2182  0.4263
  388MOL0     C52286  10.920   2.837   7.133  0.1372 -0.6027 -0.5440
  388MOL0     C52287  10.860   2.968   7.187  0.2044  0.0533 -0.1631
  388MOL0     C52288  10.737   2.946   7.271  0.0371 -0.6465  0.0046
  388MOL0     C52289  10.689   3.056   7.356 -0.8383  0.3206  0.2907
  388MOL0    Cl52290  10.744   3.008   7.519 -0.1667 -0.5064 -0.4367
  388MOL0     C52291  11.116   2.202   7.055  0.2565 -0.2822  0.3028
  388MOL0     C52292  11.156   2.072   7.014  0.1380  0.8932  0.7480
  388MOL0     O52293  11.223   1.775   7.205 -0.3243 -0.3552  0.6551
  388MOL0     C52294  11.396   1.551   7.177 -0.4935 -0.0219 -0.1650
  388MOL0     C52295  11.459   1.436   7.164 -0.1000 -0.3597  0.2508
  388MOL0     N52296  12.160   1.281   6.581  0.0284 -0.4430  0.6181
  388MOL0     N52297  12.246   1.191   6.548 -0.1584 -0.5735  0.3045
  388MOL0     C52298  11.637   0.518   6.843  0.0926 -0.2493 -0.4605
  388MOL0     C52299  11.524   0.612   6.861 -0.5196 -0.0569 -0.3799
  388MOL0     C52300  11.304   1.039   6.774 -0.1011  0.5422  1.2003
  388MOL0     C52301  11.224   1.125   6.690 -0.6806  0.6724 -0.6851
  388MOL0     C52302  11.157   1.234   6.748  0.2533 -0.8052  0.4279
  388MOL0     C52303  11.180   1.268   6.880 -0.1721  0.2936  0.3371
  388MOL0     O52304  11.117   1.369   6.944 -0.9078 -0.0291  0.0067
  388MOL0     C52305  10.998   1.440   6.894  0.0043 -0.7407  0.3010
  388MOL0     C52306  11.014   1.591   6.911  0.0433  0.2600 -0.0873
  388MOL0     C52307  10.894   1.655   6.837 -0.2295  0.9970  0.8211
  388MOL0     C52308  10.915   1.813   6.845  0.1567  0.4109  0.9634
  388MOL0     C52309  11.003   1.857   6.740 -0.9599  0.5704 -0.4415
  388MOL0     C52310  11.100   1.881   6.675 -0.1037  0.7193  0.5499
  388MOL0     C52311  11.279   1.200   6.955  0.2785 -0.9036  0.5376
  388MOL0     C52312  11.336   1.082   6.904 -0.3466 -0.1938 -0.0297
  388MOL0     H52313  11.647   0.851   6.653 -2.1241 -0.6083 -2.3667
  388MOL0     H52314  11.817   0.714   6.626 -0.8887  3.6511  1.8713
  388MOL0     H52315  11.845   0.291   6.544 -0.4698 -0.2649 -0.2884
  388MOL0     H52316  11.763   0.434   6.520 -0.1093  0.2398  2.2997
  388MOL0     H52317  12.015   0.538   6.567  3.1404  0.2918 -2.5009
  388MOL0     H52318  12.053   0.369   6.523 -0.3037 -0.1770 -3.3878
  388MOL0     H52319  12.077   0.460   6.337  0.6644 -2.9366  0.6356
  388MOL0     H52320  11.907   0.413   6.307 -1.3208  0.5478 -0.0062
  388MOL0     H52321  11.925   0.643   6.229 -1.7089 -0.1011  0.5361
  388MOL0     H52322  11.862   0.661   6.383 -0.6650  2.2051 -1.1408
  388MOL0     H52323  12.090   0.710   6.480 -4.0166  0.4517  1.2392
  388MOL0     H52324  12.163   0.669   6.324 -0.9983 -2.0226  0.0288
  388MOL0     H52325  11.991   0.854   6.230 -2.4905  0.3813  1.2094
  388MOL0     H52326  11.974   0.906   6.405  2.3060  0.0039  0.4264
  388MOL0     H52327  12.235   0.914   6.256  0.8829  0.2173  1.4466
  388MOL0     H52328  12.129   1.054   6.296  2.5398  1.6531  2.4130
  388MOL0     H52329  12.345   0.992   6.432  0.3810 -4.0981  0.5265
  388MOL0     H52330  12.243   0.873   6.509  2.0917  0.2264  0.3963
  388MOL0     H52331  11.981   1.007   6.621  0.5761  0.8366  0.1393
  388MOL0     H52332  11.983   1.302   6.801  2.8575 -0.6842 -1.1167
  388MOL0     H52333  11.903   1.375   6.652 -2.4907 -1.5716  1.1474
  388MOL0     H52334  11.834   1.096   6.777 -1.9528 -1.6097 -2.5744
  388MOL0     H52335  11.745   1.199   6.661 -1.0668 -0.2303  1.2815
  388MOL0     H52336  11.745   1.378   6.843 -3.4351  0.1493 -0.3127
  388MOL0     H52337  11.807   1.264   6.964 -1.6442  1.3354  0.8999
  388MOL0     H52338  11.610   1.116   6.940 -4.2457  0.8193 -0.1050
  388MOL0     H52339  11.540   1.219   6.836 -0.0858  1.3064  0.3026
  388MOL0     H52340  11.533   1.471   6.839 -1.0874  0.9903 -1.3233
  388MOL0     H52341  11.286   1.705   6.815  0.2937 -0.1380 -0.5968
  388MOL0     H52342  11.431   1.795   6.835  0.6915 -1.0436  0.8915
  388MOL0     H52343  11.435   1.648   6.735  0.8908 -1.2882  0.9166
  388MOL0     H52344  11.449   2.054   7.163 -0.9318 -1.1646  2.1227
  388MOL0     H52345  11.394   2.291   7.220  0.0710 -0.4541  4.7706
  388MOL0     H52346  10.951   2.371   7.235 -2.1466 -0.1768  3.9256
  388MOL0     H52347  11.066   2.344   7.362 -0.9706 -2.4974 -1.0712
  388MOL0     H52348  10.934   2.568   7.360 -1.8277  0.7101 -3.3551
  388MOL0     H52349  11.093   2.576   7.417  0.0770  2.2407 -0.0986
  388MOL0     H52350  11.020   2.609   7.127 -2.3886 -0.2463  2.7303
  388MOL0     H52351  11.183   2.664   7.184  0.3398 -2.6812 -3.0139
  388MOL0     H52352  10.938   2.765   7.333 -0.2939 -0.7271 -0.3042
  388MOL0     H52353  11.075   2.862   7.286  1.4026 -0.7287  0.3609
  388MOL0     H52354  10.842   2.764   7.107 -1.4426  1.4184 -1.8247
  388MOL0     H52355  10.976   2.854   7.041  0.0454  0.1808 -0.4604
  388MOL0     H52356  10.932   3.022   7.250 -0.3705 -0.1926  0.7255
  388MOL0     H52357  10.826   3.024   7.099 -1.2042  2.7198  1.9185
  388MOL0     H52358  10.742   2.858   7.336 -0.1241 -0.3253  0.4577
  388MOL0     H52359  10.649   2.922   7.212  0.3690 -0.4653 -0.5751
  388MOL0     H52360  10.581   3.066   7.344 -0.9355 -0.4016  0.5650
  388MOL0     H52361  10.736   3.154   7.343 -0.1671 -0.0368 -0.0034
  388MOL0     H52362  11.027   2.249   7.015  0.9538  0.0437 -0.9192
  388MOL0     H52363  11.092   2.017   6.945 -0.4986  1.4340  0.9000
  388MOL0     H52364  11.364   1.563   7.280  0.1360  2.6243 -0.1953
  388MOL0     H52365  11.483   1.379   7.253 -4.0738 -1.1940  0.9650
  388MOL0     H52366  11.641   0.438   6.917  1.1876  1.1251  1.0460
  388MOL0     H52367  11.445   0.589   6.932 -0.1797 -0.2558 -0.0596
  388MOL0     H52368  11.211   1.086   6.590 -0.3501  1.6814 -1.1305
  388MOL0     H52369  11.080   1.282   6.688  1.3395 -1.8976 -1.9831
  388MOL0     H52370  10.984   1.424   6.787  2.5209  2.2461 -0.6259
  388MOL0     H52371  10.911   1.426   6.959 -1.8960  1.9572 -1.4702
  388MOL0     H52372  11.102   1.626   6.855  0.7565 -2.7940 -1.0391
  388MOL0     H52373  11.027   1.613   7.017  3.0970 -1.3854 -0.0080
  388MOL0     H52374  10.810   1.632   6.903 -0.9536  2.1333  0.3301
  388MOL0     H52375  10.878   1.617   6.736  1.7366 -0.2409  0.9190
  388MOL0     H52376  10.954   1.838   6.945 -0.7082  0.5713  1.2759
  388MOL0     H52377  10.819   1.865   6.839 -0.3904 -0.7302 -1.4721
  388MOL0     H52378  11.195   1.910   6.635 -0.2968  0.3089 -0.2208
  388MOL0     H52379  11.280   1.214   7.062 -0.9699 -1.3706  0.6248
  388MOL0     H52380  11.409   1.029   6.963 -0.9672 -3.0298 -1.6435
  389MOL0     O52381   0.582   7.165   5.087  0.4559  0.6178  0.2120
  389MOL0     C52382   0.691   7.174   5.144 -0.4137 -0.5985  0.0119
  389MOL0     O52383   0.764   7.293   5.145 -0.5796 -0.6722 -0.7589
  389MOL0     C52384   0.704   7.404   5.091  0.3751 -1.0753  0.1871
  389MOL0     C52385   0.769   7.472   4.994 -0.1987  0.5489 -0.0645
  389MOL0     C52386   0.717   7.588   4.931  0.1957 -0.5538 -0.2403
  389MOL0     C52387   0.596   7.639   4.977 -0.1684  0.0861  1.1192
  389MOL0     O52388   0.549   7.750   4.916  0.1368 -1.0690  1.0562
  389MOL0     C52389   0.408   7.789   4.936  0.3498 -0.6004 -1.0139
  389MOL0     C52390   0.381   7.902   4.843 -0.0580  0.9192  0.0934
  389MOL0     C52391   0.463   8.031   4.867 -0.2041 -0.0281 -0.5139
  389MOL0     C52392   0.406   8.160   4.808 -0.7322  0.3516  0.3510
  389MOL0     C52393   0.509   8.252   4.760  1.2815 -0.3614  0.6804
  389MOL0     C52394   0.443   8.387   4.714  1.1490  0.5514 -1.2871
  389MOL0     C52395   0.540   8.487   4.645  0.2327  0.2459 -0.1173
  389MOL0     C52396   0.655   8.543   4.730  0.1945 -0.3728 -0.0240
  389MOL0     N52397   0.597   8.636   4.835  0.2581  0.0379  0.2906
  389MOL0     C52398   0.568   8.598   4.967  0.4089  0.1176 -0.0091
  389MOL0     C52399   0.481   8.693   5.008  0.1248 -0.0759  0.2816
  389MOL0     C52400   0.409   8.708   5.150 -0.2114 -0.2693 -0.0922
  389MOL0     C52401   0.280   8.802   5.141  0.9690 -0.4258  0.6338
  389MOL0     C52402   0.313   8.948   5.168  0.2251 -0.0654  0.1711
  389MOL0     C52403   0.189   9.035   5.169  0.6788  0.8113 -0.0589
  389MOL0     O52404   0.221   9.151   5.238  0.4682  0.1282 -0.1638
  389MOL0     C52405   0.122   9.243   5.269  0.3773  1.4623  0.0559
  389MOL0     C52406   0.159   9.376   5.296 -0.1140  0.4912  0.1336
  389MOL0     C52407   0.077   9.478   5.279  0.2691  0.6281 -1.6950
  389MOL0     C52408   0.133   9.612   5.295 -0.0902  0.2567  1.1655
  389MOL0     C52409  -0.064   9.452   5.271 -0.0795 -1.2304  0.1185
  389MOL0     C52410  -0.168   9.558   5.254  0.6561  0.0365  0.5685
  389MOL0     O52411  -0.284   9.523   5.197 -0.5294 -0.2016  0.4635
  389MOL0     C52412  -0.407   9.588   5.210  0.0988 -0.1677 -0.4596
  389MOL0     C52413  -0.436   9.658   5.328  0.3188 -0.2300  0.5393
  389MOL0     C52414  -0.567   9.697   5.352  0.0103 -0.1736 -0.3631
  389MOL0     C52415  -0.670   9.669   5.258 -0.9808 -0.0699 -0.5018
  389MOL0     O52416  -0.784   9.726   5.275 -0.9098 -0.1279 -0.0349
  389MOL0     C52417  -0.885   9.638   5.300  0.6699  0.3752  0.7804
  389MOL0     C52418  -1.020   9.706   5.321 -0.6450  0.0129 -0.0241
  389MOL0     C52419  -1.132   9.629   5.397  0.3010  0.7946  0.0310
  389MOL0     C52420  -1.100   9.623   5.544 -0.4702  0.1422 -0.3141
  389MOL0     C52421  -1.201   9.536   5.614  0.3167 -0.0659 -1.1951
  389MOL0     C52422  -1.192   9.533   5.771 -0.1706  0.1013 -0.1510
  389MOL0     C52423  -1.202   9.672   5.817 -0.0857 -0.0869 -0.6757
  389MOL0     C52424  -1.199   9.679   5.973 -0.2886  0.1399  0.0794
  389MOL0    Cl52425  -1.185   9.853   6.023 -0.4290 -0.3313  0.5552
  389MOL0     C52426  -0.634   9.612   5.138 -0.1185 -0.5576 -0.1659
  389MOL0     C52427  -0.499   9.574   5.115  0.8929  0.0034  0.4052
  389MOL0     O52428  -0.137   9.667   5.291  0.3568 -0.2635 -0.2219
  389MOL0     C52429  -0.105   9.321   5.257  0.2680 -0.4345 -0.7256
  389MOL0     C52430  -0.012   9.215   5.250 -0.4086 -0.2893  0.8594
  389MOL0     N52431   0.469   8.797   4.905  0.6451  0.6162 -0.3875
  389MOL0     N52432   0.540   8.759   4.805 -0.3435  0.0860  0.3926
  389MOL0     C52433   0.525   7.577   5.088  0.1823  0.6729  1.0934
  389MOL0     C52434   0.583   7.461   5.144 -0.2593 -0.6438  0.3566
  389MOL0     C52435   0.757   7.051   5.181 -0.5521 -0.1190 -0.1694
  389MOL0     C52436   0.894   7.054   5.189 -0.2919  0.2825 -0.0743
  389MOL0     C52437   0.966   6.936   5.225 -0.7466 -0.2317  0.9513
  389MOL0     C52438   0.895   6.819   5.230  0.4117  0.0896 -0.0042
  389MOL0     O52439   0.957   6.708   5.256 -0.8757  0.5033  0.2802
  389MOL0     C52440   0.944   6.596   5.172  0.1248  0.8712 -0.2499
  389MOL0     C52441   0.941   6.614   5.015 -0.8786 -0.5264 -0.0640
  389MOL0     C52442   1.066   6.683   4.957  1.0350 -0.1916  0.0420
  389MOL0     C52443   1.189   6.588   4.934  0.6783 -0.0481 -0.8500
  389MOL0     C52444   1.305   6.670   4.910 -0.0124  0.6135 -0.3664
  389MOL0     C52445   1.403   6.734   4.896  0.5635  0.0407 -0.0352
  389MOL0     C52446   0.754   6.818   5.226  0.2518 -0.0218  1.2098
  389MOL0     C52447   0.677   6.934   5.205 -0.8185  0.7916  0.6628
  389MOL0     H52448   0.864   7.428   4.965 -0.2889 -1.2408  2.0884
  389MOL0     H52449   0.759   7.635   4.842  0.3975  2.0376  1.1276
  389MOL0     H52450   0.338   7.705   4.930 -0.2693 -0.1285 -0.4926
  389MOL0     H52451   0.412   7.837   5.034 -0.0211 -3.0066  0.2560
  389MOL0     H52452   0.404   7.862   4.744 -2.2384  0.1144 -0.1203
  389MOL0     H52453   0.275   7.927   4.845 -0.0688  0.8307  1.2262
  389MOL0     H52454   0.480   8.049   4.973 -0.4419  1.2123 -0.6774
  389MOL0     H52455   0.559   8.013   4.816  0.6432  0.3970  0.8688
  389MOL0     H52456   0.360   8.126   4.715  0.3688 -2.9872  0.9080
  389MOL0     H52457   0.333   8.196   4.881 -0.3676 -0.7763  1.3086
  389MOL0     H52458   0.573   8.288   4.841 -1.3408  0.1646  2.6651
  389MOL0     H52459   0.567   8.206   4.680  1.3193  0.2839  0.3278
  389MOL0     H52460   0.369   8.374   4.635 -0.3224  2.1621 -0.2445
  389MOL0     H52461   0.392   8.440   4.795  2.0866  0.5485 -0.6792
  389MOL0     H52462   0.575   8.433   4.557 -2.7287 -1.9490 -0.0986
  389MOL0     H52463   0.488   8.575   4.606  3.1014  1.9291 -0.4303
  389MOL0     H52464   0.738   8.596   4.681 -0.9157  0.8406 -0.6807
  389MOL0     H52465   0.718   8.462   4.766  3.7386  0.9350 -2.7364
  389MOL0     H52466   0.601   8.507   5.016 -1.3379 -0.9306 -0.6474
  389MOL0     H52467   0.386   8.606   5.184  2.0701 -1.2732 -1.3251
  389MOL0     H52468   0.485   8.738   5.223 -1.4141  1.2532  0.5747
  389MOL0     H52469   0.215   8.770   5.224 -1.5830 -3.1949 -2.1387
  389MOL0     H52470   0.228   8.779   5.047 -0.4253  0.7125  1.0939
  389MOL0     H52471   0.389   8.991   5.102 -0.8987  2.5387  0.4382
  389MOL0     H52472   0.359   8.946   5.267 -1.1561  2.2101  0.9561
  389MOL0     H52473   0.109   8.988   5.227 -1.1779  2.2534 -1.3603
  389MOL0     H52474   0.145   9.049   5.070 -1.0281 -2.0011  0.1914
  389MOL0     H52475   0.264   9.400   5.289  0.1896 -0.4052  1.3405
  389MOL0     H52476   0.097   9.657   5.388 -0.9739  1.7922  0.1090
  389MOL0     H52477   0.240   9.606   5.272 -0.4707 -5.3181 -0.6860
  389MOL0     H52478   0.093   9.679   5.219 -2.1909 -1.4460  0.6883
  389MOL0     H52479  -0.360   9.676   5.403  0.1615  0.5289  0.5285
  389MOL0     H52480  -0.597   9.768   5.429 -0.6946 -0.4159 -0.4035
  389MOL0     H52481  -0.898   9.556   5.228 -0.1107 -0.9673  2.3689
  389MOL0     H52482  -0.868   9.589   5.396 -1.7280  1.0699  1.6353
  389MOL0     H52483  -1.002   9.805   5.363 -1.4323  0.5001 -0.8106
  389MOL0     H52484  -1.033   9.721   5.213 -1.2039  0.1829  0.0648
  389MOL0     H52485  -1.147   9.528   5.357  1.1389  0.2316  1.0646
  389MOL0     H52486  -1.225   9.685   5.385 -0.5077 -0.4476  0.3107
  389MOL0     H52487  -0.999   9.584   5.559 -0.1760  0.5384 -1.1472
  389MOL0     H52488  -1.109   9.723   5.588 -2.0722 -0.5379  1.0012
  389MOL0     H52489  -1.192   9.434   5.575 -0.0146  0.5087 -2.8532
  389MOL0     H52490  -1.301   9.571   5.587  0.5054  1.3191 -0.1953
  389MOL0     H52491  -1.277   9.478   5.815  2.3208 -0.9808  3.8649
  389MOL0     H52492  -1.100   9.484   5.803  0.8149  0.2959 -2.5395
  389MOL0     H52493  -1.293   9.720   5.780  1.7907  3.3366 -1.2614
  389MOL0     H52494  -1.120   9.729   5.774  1.8707 -4.6432 -3.7678
  389MOL0     H52495  -1.120   9.615   6.012  0.2431 -0.7823 -2.3417
  389MOL0     H52496  -1.292   9.652   6.024 -0.8349  0.7161 -0.5828
  389MOL0     H52497  -0.699   9.618   5.052 -0.3832  3.8254  0.1289
  389MOL0     H52498  -0.483   9.532   5.016  3.0557  0.0194  0.6900
  389MOL0     H52499  -0.211   9.297   5.257  0.8750 -3.4613 -1.5110
  389MOL0     H52500  -0.055   9.115   5.244 -1.0661 -0.1371  2.5497
  389MOL0     H52501   0.434   7.624   5.124  0.2979  3.8746 -2.2351
  389MOL0     H52502   0.549   7.420   5.239 -1.0255  0.6978  0.6904
  389MOL0     H52503   0.956   7.143   5.182  0.8429 -0.4756  0.0554
  389MOL0     H52504   1.073   6.933   5.241 -0.3138  0.3603 -1.3468
  389MOL0     H52505   1.027   6.528   5.193 -1.3140 -0.2582  2.2481
  389MOL0     H52506   0.854   6.540   5.200  0.9044 -2.0217 -2.9857
  389MOL0     H52507   0.867   6.689   4.984 -0.9927 -0.7026 -0.2135
  389MOL0     H52508   0.922   6.519   4.964 -3.7734 -0.3646  0.5142
  389MOL0     H52509   1.101   6.760   5.025  1.5108 -3.6593  4.1662
  389MOL0     H52510   1.042   6.732   4.862  0.8499  2.5872  1.4183
  389MOL0     H52511   1.168   6.520   4.851  2.7909 -1.5638 -0.2154
  389MOL0     H52512   1.209   6.533   5.026 -1.3232 -0.8556 -0.8647
  389MOL0     H52513   1.476   6.811   4.881  0.1424 -0.1085 -3.8436
  389MOL0     H52514   0.702   6.723   5.228 -1.8494  1.0326 -0.1065
  389MOL0     H52515   0.569   6.927   5.207 -0.7087 -1.6408  2.6429
  390MOL0     O52516  10.598   0.654   2.343  0.1762  0.3062 -0.3536
  390MOL0     C52517  10.573   0.565   2.424 -0.3407 -0.8169 -0.2425
  390MOL0     O52518  10.624   0.572   2.551 -0.2137  0.1112  0.4474
  390MOL0     C52519  10.723   0.641   2.584 -0.9957  0.2142  0.2826
  390MOL0     C52520  10.723   0.704   2.707 -0.2488 -0.2033 -0.5234
  390MOL0     C52521  10.819   0.811   2.725  0.7514 -0.0761 -0.4011
  390MOL0     C52522  10.937   0.812   2.650  0.4357  0.2251  0.7390
  390MOL0     O52523  11.036   0.897   2.703  0.2437 -0.2350  0.1386
  390MOL0     C52524  11.132   0.955   2.609 -0.0946  0.0605 -0.2994
  390MOL0     C52525  11.209   1.064   2.691  0.2326  0.0760  0.3679
  390MOL0     C52526  11.122   1.182   2.733  0.4486 -0.6070 -0.3094
  390MOL0     C52527  11.210   1.298   2.755  0.1782  0.4150 -0.0987
  390MOL0     C52528  11.117   1.417   2.792  1.0196 -0.8200 -0.0833
  390MOL0     C52529  11.189   1.549   2.826 -0.4412 -0.4871 -0.2397
  390MOL0     C52530  11.085   1.657   2.836  0.2749  0.9560 -0.2532
  390MOL0     C52531  11.071   1.745   2.714  1.1978 -0.0241  0.2870
  390MOL0     N52532  11.199   1.797   2.664  0.2479 -0.0854  0.7633
  390MOL0     C52533  11.259   1.758   2.560 -0.7455  1.0389  1.3325
  390MOL0     C52534  11.367   1.833   2.526 -0.4042 -0.3322 -1.2154
  390MOL0     C52535  11.443   1.827   2.405  0.3848  0.7937  0.1304
  390MOL0     C52536  11.592   1.883   2.418 -0.8005  1.1782  0.2245
  390MOL0     C52537  11.692   1.779   2.477 -0.0904  0.6128  0.1638
  390MOL0     C52538  11.830   1.834   2.493 -0.5705  0.3729  0.4068
  390MOL0     O52539  11.889   1.868   2.370  0.0844 -0.2863  0.6286
  390MOL0     C52540  11.939   1.994   2.349  0.0608 -0.1718  0.2800
  390MOL0     C52541  11.931   2.052   2.222  0.0112  0.1582 -0.9968
  390MOL0     C52542  11.985   2.179   2.195  0.1124 -0.5534  0.2577
  390MOL0     C52543  11.970   2.235   2.045 -0.0980  0.4920 -0.1748
  390MOL0     C52544  12.044   2.246   2.300 -0.6476 -0.7000 -0.5792
  390MOL0     C52545  12.101   2.397   2.285 -0.6292 -0.4995 -0.1040
  390MOL0     O52546  12.084   2.454   2.165 -0.2204 -0.4186 -0.6845
  390MOL0     C52547  12.106   2.582   2.156 -0.3729 -0.0567 -0.5799
  390MOL0     C52548  12.233   2.619   2.131  1.0662  0.0263 -0.4124
  390MOL0     C52549  12.273   2.753   2.162  0.9356 -0.0874  0.2504
  390MOL0     C52550  12.180   2.853   2.196 -0.5848  0.0563 -0.3383
  390MOL0     O52551  12.238   2.979   2.220 -0.5874 -0.3566 -0.3712
  390MOL0     C52552  12.148   3.078   2.263 -0.8506 -0.2363 -0.8391
  390MOL0     C52553  12.079   3.158   2.146  0.5157  0.5472 -0.8223
  390MOL0     C52554  12.177   3.233   2.064 -0.1507  0.5974  0.3639
  390MOL0     C52555  12.113   3.288   1.939  0.4144 -0.2862  0.1156
  390MOL0     C52556  12.121   3.203   1.825 -0.5634 -0.6037 -0.0769
  390MOL0     C52557  12.079   3.276   1.689 -0.5080 -0.0565 -0.5857
  390MOL0     C52558  12.191   3.387   1.649  0.7429 -0.5797 -0.0558
  390MOL0     C52559  12.159   3.448   1.517 -1.0397 -0.4057  0.6399
  390MOL0    Cl52560  12.292   3.567   1.476  0.2995  0.3101  0.5668
  390MOL0     C52561  12.042   2.812   2.208  0.4940 -0.5610 -0.9406
  390MOL0     C52562  12.005   2.679   2.187 -0.0632  0.4259 -0.7350
  390MOL0     O52563  12.138   2.452   2.387 -0.4495  0.1045  0.9869
  390MOL0     C52564  12.054   2.184   2.432 -0.7988  0.6565 -0.2563
  390MOL0     C52565  12.001   2.056   2.455 -0.0928  0.3503 -0.2430
  390MOL0     N52566  11.365   1.925   2.632 -0.0618  0.5922 -0.8277
  390MOL0     N52567  11.256   1.906   2.706  0.6078 -0.5050 -0.0778
  390MOL0     C52568  10.945   0.738   2.540 -0.1608  0.1311  0.2206
  390MOL0     C52569  10.832   0.656   2.500 -0.1030  1.0731 -1.0259
  390MOL0     C52570  10.485   0.453   2.392 -0.0660 -0.2093 -0.7849
  390MOL0     C52571  10.457   0.355   2.494 -0.6886 -0.4940  0.2191
  390MOL0     C52572  10.375   0.253   2.463  0.9055  0.1109 -0.2672
  390MOL0     C52573  10.314   0.241   2.337  0.2053  0.3487  0.8025
  390MOL0     O52574  10.229   0.144   2.296  0.3187  0.5729  0.1710
  390MOL0     C52575  10.101   0.140   2.345 -0.8387 -0.4999 -0.3793
  390MOL0     C52576  10.010   0.050   2.271  0.2278 -0.2585  0.3630
  390MOL0     C52577   9.960   0.110   2.137 -0.4794  0.3866 -0.9201
  390MOL0     C52578   9.887   0.005   2.062  0.2477  0.0132 -0.6784
  390MOL0     C52579   9.971  -0.113   2.020 -0.1883 -0.3884  0.2625
  390MOL0     C52580  10.025  -0.212   1.967 -0.0938 -0.7437 -0.3298
  390MOL0     C52581  10.346   0.327   2.236  0.3209  0.0917  1.1587
  390MOL0     C52582  10.423   0.443   2.265 -0.7430  0.2764  0.0361
  390MOL0     H52583  10.641   0.682   2.775  1.0333  0.4869  1.3637
  390MOL0     H52584  10.811   0.872   2.814  0.6599 -0.5503 -0.0793
  390MOL0     H52585  11.218   0.892   2.583  1.8766  2.0274  1.0985
  390MOL0     H52586  11.100   1.005   2.517  1.6793  0.4226 -0.7429
  390MOL0     H52587  11.258   1.011   2.773  3.3195  0.1882 -1.2477
  390MOL0     H52588  11.273   1.109   2.614 -0.7697  1.5847  0.3699
  390MOL0     H52589  11.053   1.207   2.652 -0.7658  1.1390  1.1794
  390MOL0     H52590  11.055   1.156   2.816 -1.6449  4.2492 -0.1378
  390MOL0     H52591  11.277   1.279   2.838  0.7181  1.4778 -0.2682
  390MOL0     H52592  11.294   1.333   2.694 -0.5989  3.9216  0.6281
  390MOL0     H52593  11.057   1.432   2.701 -0.6926 -0.8412  1.0077
  390MOL0     H52594  11.058   1.393   2.880  1.4570  0.3954  0.5631
  390MOL0     H52595  11.239   1.537   2.923 -0.3177  1.6569  0.0146
  390MOL0     H52596  11.264   1.564   2.748  1.4222  1.5825  1.7804
  390MOL0     H52597  10.988   1.616   2.863 -1.3832  4.3316 -0.5955
  390MOL0     H52598  11.131   1.720   2.912  1.7759  1.8426 -1.8171
  390MOL0     H52599  11.017   1.837   2.733  1.2436  0.0166  0.2201
  390MOL0     H52600  11.018   1.686   2.638 -0.2230 -0.5739  1.6595
  390MOL0     H52601  11.228   1.678   2.493 -1.0881  2.4785 -0.2938
  390MOL0     H52602  11.436   1.729   2.359  0.2335  0.8094  0.1174
  390MOL0     H52603  11.374   1.875   2.335 -2.2764 -2.9696 -0.0938
  390MOL0     H52604  11.607   1.972   2.481  1.5523  0.9581  0.0663
  390MOL0     H52605  11.616   1.911   2.316  0.1841 -2.8060 -0.7932
  390MOL0     H52606  11.686   1.688   2.416 -3.1540 -0.5989  2.0102
  390MOL0     H52607  11.655   1.738   2.572 -0.6949 -3.9364 -1.7900
  390MOL0     H52608  11.897   1.757   2.533 -0.7044  1.5350  3.1382
  390MOL0     H52609  11.820   1.904   2.577  1.8606 -1.3645  2.2917
  390MOL0     H52610  11.899   1.993   2.136  1.9264 -4.2661  1.0196
  390MOL0     H52611  11.949   2.148   1.981  0.0613 -0.4342  1.0027
  390MOL0     H52612  11.882   2.301   2.038  1.5619  2.8257 -0.0176
  390MOL0     H52613  12.052   2.292   2.001 -1.4804  0.7057 -2.6967
  390MOL0     H52614  12.312   2.549   2.106 -0.6404 -2.2569  0.2041
  390MOL0     H52615  12.373   2.790   2.146  1.7788 -1.6584  1.5661
  390MOL0     H52616  12.077   3.039   2.337  1.1101 -0.2080  1.1780
  390MOL0     H52617  12.200   3.152   2.324 -3.1739 -0.6047  1.7867
  390MOL0     H52618  12.016   3.095   2.083  1.0749 -0.9531  0.0571
  390MOL0     H52619  12.017   3.229   2.202  0.8448  1.8039 -2.0230
  390MOL0     H52620  12.267   3.176   2.041 -1.0590 -1.8115  2.3995
  390MOL0     H52621  12.222   3.306   2.132 -0.6581  2.1251 -0.8594
  390MOL0     H52622  12.009   3.309   1.962  0.2932 -1.3947  0.6705
  390MOL0     H52623  12.155   3.384   1.910  1.6577 -0.2171  1.9997
  390MOL0     H52624  12.060   3.113   1.838 -3.1759  1.0654  0.1684
  390MOL0     H52625  12.223   3.165   1.815 -0.9633 -1.5881 -0.5178
  390MOL0     H52626  12.062   3.214   1.600 -0.6622  0.3529 -0.8416
  390MOL0     H52627  11.989   3.332   1.715  0.2370  0.3423  1.3049
  390MOL0     H52628  12.291   3.343   1.648  2.3026  2.6734 -0.8175
  390MOL0     H52629  12.187   3.462   1.729 -0.0558 -1.9786  1.2592
  390MOL0     H52630  12.066   3.502   1.536 -0.3328  0.0926  3.0097
  390MOL0     H52631  12.142   3.382   1.431 -2.3696  0.3945  0.2487
  390MOL0     H52632  11.964   2.885   2.226  1.1175 -0.0461 -0.2678
  390MOL0     H52633  11.903   2.646   2.203  0.7005 -2.4285 -1.2075
  390MOL0     H52634  12.115   2.236   2.506  3.2728 -3.2679 -0.4545
  390MOL0     H52635  11.998   2.001   2.549  1.5718 -3.2624 -2.1014
  390MOL0     H52636  11.037   0.747   2.485 -0.5725  0.1375 -0.4761
  390MOL0     H52637  10.829   0.600   2.407  2.8813 -3.2020  1.1263
  390MOL0     H52638  10.488   0.369   2.597 -2.5986  0.6189  0.6984
  390MOL0     H52639  10.349   0.200   2.554  2.3809  2.7917  1.8584
  390MOL0     H52640  10.098   0.124   2.453 -0.1752  3.2737  0.3329
  390MOL0     H52641  10.056   0.240   2.342 -0.4053 -0.2574  0.5798
  390MOL0     H52642   9.925   0.035   2.339  1.1125  1.9777  2.1054
  390MOL0     H52643  10.072  -0.040   2.257 -1.9801 -1.5445 -2.0785
  390MOL0     H52644  10.033   0.151   2.066  0.0001 -0.0885 -0.7077
  390MOL0     H52645   9.889   0.182   2.177 -0.0654 -0.5745  1.7577
  390MOL0     H52646   9.828   0.050   1.982 -0.8514 -0.0240  0.0863
  390MOL0     H52647   9.809  -0.040   2.124 -2.1769  4.0531 -0.3847
  390MOL0     H52648  10.084  -0.295   1.934 -0.4919 -1.0964 -0.1696
  390MOL0     H52649  10.299   0.302   2.141  2.0324 -0.4597  0.4024
  390MOL0     H52650  10.451   0.524   2.198  0.4245  1.8975  2.3376
  391MOL0     O52651   2.216   7.048   9.081 -0.1443  0.0840  0.1590
  391MOL0     C52652   2.326   7.084   9.045  0.2511  0.3406 -0.3471
  391MOL0     O52653   2.360   7.124   8.909  0.3549 -0.4031 -0.5779
  391MOL0     C52654   2.256   7.103   8.822 -0.0485  0.0518 -0.1575
  391MOL0     C52655   2.254   6.998   8.736  0.6072 -0.6534  0.3816
  391MOL0     C52656   2.139   6.977   8.658 -0.5917  0.4729  0.4719
  391MOL0     C52657   2.032   7.060   8.673  0.0356 -0.4504  0.2969
  391MOL0     O52658   1.916   7.028   8.600 -0.2699  0.0987 -0.9539
  391MOL0     C52659   1.784   7.042   8.665 -0.9704 -0.4891 -0.6842
  391MOL0     C52660   1.681   7.030   8.558 -0.7448  0.1735 -0.1349
  391MOL0     C52661   1.667   6.895   8.497 -0.2510  0.6414  0.0293
  391MOL0     C52662   1.590   6.798   8.589 -1.6516 -0.5023  0.6033
  391MOL0     C52663   1.610   6.653   8.548 -0.5530 -0.9490 -0.3708
  391MOL0     C52664   1.525   6.562   8.641  0.5943  0.3428  0.1466
  391MOL0     C52665   1.555   6.562   8.785  0.8858  0.1791  1.1376
  391MOL0     C52666   1.466   6.457   8.856  0.0114  0.3243 -0.4289
  391MOL0     N52667   1.457   6.494   8.999 -0.5939 -0.1447  0.0303
  391MOL0     C52668   1.569   6.492   9.084 -0.1143 -1.0397  0.4840
  391MOL0     C52669   1.517   6.504   9.212 -0.1618  0.5684  0.2456
  391MOL0     C52670   1.586   6.495   9.339 -0.2002  0.3680 -0.9327
  391MOL0     C52671   1.601   6.339   9.363 -0.2401  0.2580  0.5319
  391MOL0     C52672   1.665   6.310   9.506  0.1197 -0.2566 -0.6006
  391MOL0     C52673   1.577   6.360   9.617 -0.0335  0.1263 -0.0570
  391MOL0     O52674   1.593   6.282   9.736 -0.8342 -0.0107  0.2854
  391MOL0     C52675   1.497   6.289   9.827  0.7987 -0.3546  0.0868
  391MOL0     C52676   1.513   6.205   9.943  0.6806 -0.9260  1.0066
  391MOL0     C52677   1.415   6.203  10.043 -0.1553 -0.0219 -0.2404
  391MOL0     C52678   1.417   6.103  10.151  0.1421  1.1376  1.0426
  391MOL0     C52679   1.300   6.281  10.031 -0.0635  0.0825  0.7668
  391MOL0     C52680   1.187   6.261  10.114  0.1628 -0.3325  0.8908
  391MOL0     O52681   1.073   6.205  10.064 -0.3417  0.0192  0.2401
  391MOL0     C52682   0.953   6.235  10.118  0.3168  0.7454  0.0592
  391MOL0     C52683   0.915   6.366  10.163  0.9362 -0.0276  0.8550
  391MOL0     C52684   0.787   6.394  10.195  0.0655  0.3530  0.7231
  391MOL0     C52685   0.687   6.294  10.187  0.0970  0.2552 -0.6644
  391MOL0     O52686   0.561   6.317  10.243  0.1860 -0.3321  0.7100
  391MOL0     C52687   0.458   6.215  10.242  0.3897 -0.5586 -0.1066
  391MOL0     C52688   0.323   6.302  10.242 -0.3498  0.8501 -0.3153
  391MOL0     C52689   0.290   6.355  10.378  0.1575 -0.9009 -0.0599
  391MOL0     C52690   0.305   6.518  10.385  0.8256  0.4129  0.1629
  391MOL0     C52691   0.366   6.576  10.514  0.1207 -0.4715 -0.3550
  391MOL0     C52692   0.524   6.572  10.520 -0.3686  0.1176  0.2559
  391MOL0     C52693   0.594   6.457  10.595  0.4184 -0.7185 -0.4007
  391MOL0     C52694   0.540   6.428  10.731  0.0348 -0.3212 -0.4894
  391MOL0    Cl52695   0.501   6.578  10.824 -0.2233 -0.1850 -0.3126
  391MOL0     C52696   0.721   6.169  10.146  0.6177  0.3911 -0.6409
  391MOL0     C52697   0.851   6.136  10.112 -0.9206  0.9424 -0.6244
  391MOL0     O52698   1.201   6.297  10.228 -0.9238  0.0357 -0.2430
  391MOL0     C52699   1.286   6.368   9.926  0.0095 -1.0685 -0.2916
  391MOL0     C52700   1.390   6.377   9.826  0.4814 -1.1924 -0.7999
  391MOL0     N52701   1.383   6.533   9.193  0.3550  0.4283 -0.1526
  391MOL0     N52702   1.343   6.523   9.072  0.2988 -0.7613  0.1970
  391MOL0     C52703   2.036   7.176   8.749 -0.0296 -0.6638 -0.2156
  391MOL0     C52704   2.150   7.191   8.837  0.7141  0.1367  0.5364
  391MOL0     C52705   2.433   7.048   9.139 -1.2463 -0.0531 -0.9453
  391MOL0     C52706   2.568   7.077   9.115 -0.0483 -0.2868  0.1004
  391MOL0     C52707   2.674   7.036   9.198 -0.4036  0.2282 -0.0841
  391MOL0     C52708   2.645   6.955   9.309 -0.3529  0.8597  0.1187
  391MOL0     O52709   2.750   6.912   9.382  0.3044  0.0231 -0.6282
  391MOL0     C52710   2.769   6.769   9.393 -0.1472  0.3111  0.1238
  391MOL0     C52711   2.856   6.735   9.269  0.2328 -0.9105  0.1657
  391MOL0     C52712   2.943   6.602   9.292  0.2718 -1.2165 -0.5325
  391MOL0     C52713   3.042   6.588   9.177  0.0749  1.4769 -0.3361
  391MOL0     C52714   3.163   6.513   9.215 -0.0210  0.0251  0.4760
  391MOL0     C52715   3.250   6.447   9.266  0.0989  0.8407  0.0570
  391MOL0     C52716   2.509   6.930   9.347 -0.4863 -0.0495 -0.1915
  391MOL0     C52717   2.412   6.973   9.257  1.1200 -0.6796 -0.5614
  391MOL0     H52718   2.347   6.941   8.728  0.3518 -0.8052 -3.0152
  391MOL0     H52719   2.125   6.881   8.611 -0.3640  1.5285 -1.9143
  391MOL0     H52720   1.773   6.983   8.757 -0.2010  1.7578  0.9424
  391MOL0     H52721   1.765   7.144   8.697  2.8824  0.7317 -1.7528
  391MOL0     H52722   1.587   7.056   8.608 -1.9051 -2.2604 -0.9074
  391MOL0     H52723   1.707   7.113   8.492 -0.3796  0.5559  0.4757
  391MOL0     H52724   1.609   6.905   8.405 -0.4734 -0.8288 -0.0143
  391MOL0     H52725   1.758   6.840   8.473 -0.3428 -0.9780  2.9390
  391MOL0     H52726   1.605   6.814   8.697  1.5069  0.1377  0.1690
  391MOL0     H52727   1.484   6.812   8.565 -1.9744 -2.9482  0.2608
  391MOL0     H52728   1.609   6.636   8.440 -1.6523  0.0881 -0.5465
  391MOL0     H52729   1.715   6.632   8.568  0.2631  2.4374 -0.5343
  391MOL0     H52730   1.418   6.574   8.624  0.5336  0.0571  0.3102
  391MOL0     H52731   1.543   6.464   8.597  0.5846  1.8011 -3.4119
  391MOL0     H52732   1.658   6.525   8.792  0.1267 -1.9436  1.7886
  391MOL0     H52733   1.541   6.664   8.823 -0.6333 -1.4631  5.6092
  391MOL0     H52734   1.522   6.363   8.849  0.8383  0.7636  0.1851
  391MOL0     H52735   1.365   6.438   8.819  0.0530  1.2403 -1.0480
  391MOL0     H52736   1.674   6.482   9.058  1.2333  5.4126  1.7718
  391MOL0     H52737   1.683   6.545   9.333  0.6980 -1.2736 -0.8966
  391MOL0     H52738   1.529   6.545   9.418 -1.4296 -1.6543 -0.4653
  391MOL0     H52739   1.670   6.294   9.291  1.9273 -0.3885  2.8616
  391MOL0     H52740   1.506   6.286   9.361 -0.7104  1.0899 -0.0195
  391MOL0     H52741   1.761   6.362   9.500 -0.3929  0.7424 -0.4361
  391MOL0     H52742   1.685   6.204   9.523 -0.8126 -0.2707  0.5316
  391MOL0     H52743   1.472   6.359   9.587 -0.0461 -2.3612 -0.0968
  391MOL0     H52744   1.611   6.462   9.635  0.0629  0.1689 -0.4688
  391MOL0     H52745   1.606   6.149   9.954  0.0853 -1.8460  1.5234
  391MOL0     H52746   1.501   6.034  10.145 -0.9485 -0.2583  1.1137
  391MOL0     H52747   1.428   6.157  10.245 -1.0203  1.8328  0.7972
  391MOL0     H52748   1.324   6.044  10.148  0.1875  1.0461 -1.7592
  391MOL0     H52749   0.993   6.441  10.163 -0.5509  1.5912 -0.0291
  391MOL0     H52750   0.760   6.493  10.229  0.6752  1.8187 -2.6454
  391MOL0     H52751   0.441   6.168  10.145 -2.5020  1.4184 -0.7059
  391MOL0     H52752   0.467   6.143  10.324  1.3133 -0.3417 -0.0062
  391MOL0     H52753   0.328   6.381  10.166 -0.2922 -1.2358 -2.6317
  391MOL0     H52754   0.241   6.238  10.208  1.1688 -0.6870 -1.3273
  391MOL0     H52755   0.341   6.315  10.465 -1.5429  0.5902  1.7200
  391MOL0     H52756   0.186   6.329  10.401  0.9688 -1.8015  3.0062
  391MOL0     H52757   0.372   6.542  10.302  2.0448  0.6844  1.2021
  391MOL0     H52758   0.203   6.555  10.373 -1.1385 -4.2220  0.3438
  391MOL0     H52759   0.329   6.521  10.601 -0.5214 -1.7606 -1.4098
  391MOL0     H52760   0.343   6.683  10.511 -1.8345 -0.8200  0.9904
  391MOL0     H52761   0.561   6.582  10.418 -0.3772 -1.2630  0.0998
  391MOL0     H52762   0.560   6.663  10.569  1.6693 -0.9924  0.9611
  391MOL0     H52763   0.702   6.472  10.595  0.2238  1.0435  1.0711
  391MOL0     H52764   0.578   6.362  10.543  0.1106 -0.7658 -0.2228
  391MOL0     H52765   0.615   6.363  10.778  0.3488  0.6013  0.3417
  391MOL0     H52766   0.451   6.368  10.711 -1.2186 -0.8106  4.8329
  391MOL0     H52767   0.651   6.087  10.136  3.0278 -1.8185 -0.5562
  391MOL0     H52768   0.872   6.037  10.074 -1.2646  1.6787 -2.9304
  391MOL0     H52769   1.198   6.431   9.926  2.1501  2.1750 -0.2058
  391MOL0     H52770   1.375   6.458   9.756 -2.1951 -0.6466  0.2774
  391MOL0     H52771   1.954   7.247   8.758  0.2932  0.3110 -3.6314
  391MOL0     H52772   2.151   7.273   8.908  1.3692  0.7572 -0.1702
  391MOL0     H52773   2.605   7.117   9.021 -0.4707 -0.8518 -0.3137
  391MOL0     H52774   2.774   7.072   9.179 -0.9230  2.9905  1.6821
  391MOL0     H52775   2.830   6.742   9.480  1.1879  0.8610 -0.6268
  391MOL0     H52776   2.684   6.701   9.386  1.1319 -1.1484 -4.7890
  391MOL0     H52777   2.925   6.819   9.257 -1.7836  0.9162  0.7785
  391MOL0     H52778   2.793   6.734   9.180 -1.0501  1.7006  0.9433
  391MOL0     H52779   2.873   6.518   9.298 -1.1108 -0.0894 -0.2789
  391MOL0     H52780   3.002   6.605   9.384  3.6177  0.4754 -2.5394
  391MOL0     H52781   3.072   6.672   9.113  1.8430 -1.5639 -3.8339
  391MOL0     H52782   2.983   6.521   9.115 -0.5145 -1.1310  2.7488
  391MOL0     H52783   3.329   6.390   9.311 -0.8667 -0.8051 -0.2289
  391MOL0     H52784   2.487   6.877   9.439 -2.4990  2.9769  1.1997
  391MOL0     H52785   2.311   6.957   9.294  1.3957  1.2058  1.2044
  392MOL0     O52786   2.558   9.163   1.113  0.0451  0.5815 -0.4302
  392MOL0     C52787   2.678   9.173   1.079  0.6692  0.7559 -0.2797
  392MOL0     O52788   2.752   9.072   1.029 -0.5673  0.3306  0.6769
  392MOL0     C52789   2.681   8.952   1.021  0.2584  0.3806  0.8721
  392MOL0     C52790   2.664   8.899   0.890  0.9103  0.0615  0.6939
  392MOL0     C52791   2.577   8.786   0.862  0.0640 -0.2113 -0.6037
  392MOL0     C52792   2.528   8.701   0.966 -0.1370 -0.5154 -0.3755
  392MOL0     O52793   2.473   8.576   0.958  0.5837  0.4778  1.2088
  392MOL0     C52794   2.375   8.557   0.852  0.0808  0.2226  0.4293
  392MOL0     C52795   2.361   8.405   0.833  0.3013 -0.1636 -0.0856
  392MOL0     C52796   2.477   8.334   0.774 -0.8654  0.4304 -1.0082
  392MOL0     C52797   2.457   8.176   0.745 -0.8878 -0.9727  0.6644
  392MOL0     C52798   2.340   8.110   0.811  0.2911  0.2989 -0.8871
  392MOL0     C52799   2.334   7.962   0.823 -0.1055 -0.3270  0.0805
  392MOL0     C52800   2.292   7.889   0.693  0.4910 -0.8148 -0.2208
  392MOL0     C52801   2.374   7.921   0.558  0.3548 -0.8764 -0.2236
  392MOL0     N52802   2.357   7.804   0.461 -0.6786  0.2467 -0.1161
  392MOL0     C52803   2.235   7.782   0.413  0.2430  0.1680  0.2410
  392MOL0     C52804   2.245   7.665   0.361 -0.0469  0.2452 -0.3189
  392MOL0     C52805   2.132   7.603   0.287 -0.1068 -0.5887 -0.2184
  392MOL0     C52806   2.156   7.605   0.139 -0.6574 -0.8432  0.0615
  392MOL0     C52807   2.033   7.588   0.053 -0.1763  0.9347 -0.9555
  392MOL0     C52808   2.002   7.717  -0.021 -0.2146 -0.6873  0.9436
  392MOL0     O52809   1.884   7.670  -0.093  0.1634  0.3394  0.1244
  392MOL0     C52810   1.880   7.682  -0.226  0.2952 -0.0595 -0.0246
  392MOL0     C52811   1.986   7.662  -0.316  0.3000 -0.3170  0.1935
  392MOL0     C52812   1.976   7.684  -0.451  0.0890  0.8564  0.6410
  392MOL0     C52813   2.101   7.654  -0.535 -0.5702  0.1207 -0.1263
  392MOL0     C52814   1.852   7.728  -0.510  0.2015 -0.7930 -0.1868
  392MOL0     C52815   1.826   7.735  -0.655 -0.2419 -1.3026 -0.5004
  392MOL0     O52816   1.702   7.781  -0.685 -0.1956  0.4317 -0.0969
  392MOL0     C52817   1.658   7.775  -0.816 -0.7295  0.8272 -0.2554
  392MOL0     C52818   1.633   7.893  -0.884 -0.4899  0.1279 -0.3577
  392MOL0     C52819   1.582   7.890  -1.014 -0.1827  0.5449 -0.5394
  392MOL0     C52820   1.595   7.765  -1.086 -0.2764 -0.3438 -0.5067
  392MOL0     O52821   1.555   7.740  -1.212  0.3820  0.3609 -0.8135
  392MOL0     C52822   1.539   7.850  -1.305  0.4521  0.2875 -0.2751
  392MOL0     C52823   1.397   7.912  -1.306  0.2577  0.5910 -0.1276
  392MOL0     C52824   1.286   7.822  -1.365 -1.0590  0.0784  0.3298
  392MOL0     C52825   1.157   7.906  -1.349 -0.4118  0.1428  0.7415
  392MOL0     C52826   1.023   7.847  -1.382  0.1419  0.0658 -0.3589
  392MOL0     C52827   0.902   7.948  -1.360  0.4931 -0.4545  0.2040
  392MOL0     C52828   0.783   7.898  -1.437 -0.2856 -0.0858  0.1717
  392MOL0     C52829   0.647   7.953  -1.375 -0.8901  0.3162  0.3214
  392MOL0    Cl52830   0.634   8.130  -1.398 -0.0076 -0.6774  0.0420
  392MOL0     C52831   1.630   7.650  -1.018 -0.5036  0.8642 -0.7599
  392MOL0     C52832   1.656   7.647  -0.886 -0.1274 -0.7380 -0.4289
  392MOL0     O52833   1.916   7.713  -0.732  0.7664 -0.0558 -0.7105
  392MOL0     C52834   1.757   7.756  -0.420  0.0741  0.0344 -0.1436
  392MOL0     C52835   1.764   7.730  -0.285  1.3071 -0.8733  0.2700
  392MOL0     N52836   2.372   7.619   0.376 -0.6892  0.9474  0.3037
  392MOL0     N52837   2.441   7.694   0.440  0.4094 -0.2024  0.1375
  392MOL0     C52838   2.562   8.744   1.099  0.5889  0.4427  0.0123
  392MOL0     C52839   2.633   8.875   1.125  0.5610 -0.5896 -0.0716
  392MOL0     C52840   2.738   9.311   1.084 -0.4724  0.4225  0.2470
  392MOL0     C52841   2.838   9.351   0.998 -0.2434  0.1598 -1.0519
  392MOL0     C52842   2.899   9.481   1.022  0.6429  0.0434 -0.0527
  392MOL0     C52843   2.856   9.555   1.127  0.4824 -0.0399  0.8946
  392MOL0     O52844   2.918   9.673   1.160  0.5029  0.5737  0.2621
  392MOL0     C52845   2.938   9.772   1.050  0.1746  0.1985 -0.7435
  392MOL0     C52846   2.806   9.805   0.975  0.0172 -0.1282  0.1255
  392MOL0     C52847   2.769   9.951   0.985 -0.5758 -0.0861 -0.0844
  392MOL0     C52848   2.659   9.998   0.889  0.4914  0.4125 -0.0597
  392MOL0     C52849   2.675   9.950   0.751  0.3559  0.0721  0.0167
  392MOL0     C52850   2.691   9.913   0.633  0.0906 -0.3411  0.1475
  392MOL0     C52851   2.754   9.513   1.213 -0.1709  0.0301  0.3077
  392MOL0     C52852   2.692   9.390   1.190 -0.1249 -0.7837  0.1582
  392MOL0     H52853   2.697   8.959   0.806  1.1808 -0.0049  0.7515
  392MOL0     H52854   2.558   8.763   0.758 -2.5108 -0.8275 -0.0836
  392MOL0     H52855   2.276   8.591   0.884  0.8068  0.7019  2.2690
  392MOL0     H52856   2.400   8.612   0.761 -2.4638  1.3339  0.3166
  392MOL0     H52857   2.335   8.362   0.930 -0.1939  2.4566  1.0244
  392MOL0     H52858   2.272   8.386   0.771 -1.1234 -0.9782  2.0846
  392MOL0     H52859   2.526   8.383   0.689  0.6692 -1.1793 -1.1170
  392MOL0     H52860   2.554   8.340   0.852 -1.4137  1.1026 -0.4993
  392MOL0     H52861   2.470   8.162   0.638  2.7717  0.0674  0.8608
  392MOL0     H52862   2.543   8.122   0.785 -1.5080 -1.2266  1.7165
  392MOL0     H52863   2.344   8.160   0.908 -0.0742  2.8765 -2.1209
  392MOL0     H52864   2.250   8.153   0.767 -0.1576  1.1659  0.8083
  392MOL0     H52865   2.433   7.928   0.856 -0.8983 -0.7510  2.1693
  392MOL0     H52866   2.265   7.935   0.903  0.9520 -0.4027  0.9804
  392MOL0     H52867   2.313   7.782   0.706  0.6307 -0.8899 -1.0030
  392MOL0     H52868   2.186   7.907   0.670  0.3621 -0.5408  0.5487
  392MOL0     H52869   2.482   7.928   0.573  0.8166 -1.8540 -2.6735
  392MOL0     H52870   2.342   8.012   0.507 -2.1452 -1.9810 -0.7781
  392MOL0     H52871   2.149   7.846   0.399  1.3233  1.3381 -1.3693
  392MOL0     H52872   2.124   7.502   0.329 -0.1372  0.1300  1.5944
  392MOL0     H52873   2.043   7.661   0.313  1.0020  0.6865  0.8652
  392MOL0     H52874   2.220   7.518   0.120 -2.1088 -1.7612 -0.9454
  392MOL0     H52875   2.208   7.697   0.113 -0.3097 -0.8394  0.7582
  392MOL0     H52876   1.951   7.562   0.120  1.2955 -3.0940 -0.4373
  392MOL0     H52877   2.040   7.500  -0.011 -2.1283  0.3165 -0.3941
  392MOL0     H52878   2.077   7.739  -0.098  0.3043 -3.5321  0.4976
  392MOL0     H52879   1.984   7.806   0.039 -0.3167 -1.7178  2.4904
  392MOL0     H52880   2.075   7.613  -0.280  1.6754  0.0692 -2.4232
  392MOL0     H52881   2.130   7.747  -0.586 -1.1439  0.8383  0.8194
  392MOL0     H52882   2.191   7.625  -0.480  2.5107 -0.7844 -5.0678
  392MOL0     H52883   2.104   7.571  -0.606  4.4608 -0.3241  0.1866
  392MOL0     H52884   1.631   7.987  -0.829 -0.6080  2.2804 -3.7346
  392MOL0     H52885   1.554   7.985  -1.059 -0.3029  0.1233 -1.3767
  392MOL0     H52886   1.611   7.929  -1.284  0.7380  0.9316 -3.3090
  392MOL0     H52887   1.567   7.805  -1.401  0.5870 -0.3390  0.0531
  392MOL0     H52888   1.368   7.950  -1.208 -0.4554  2.1123 -0.9014
  392MOL0     H52889   1.398   8.010  -1.355  0.5592  1.7297  2.0512
  392MOL0     H52890   1.279   7.727  -1.311 -0.0980  0.4358  1.1163
  392MOL0     H52891   1.310   7.797  -1.469  0.4823 -1.3727  0.9919
  392MOL0     H52892   1.150   7.950  -1.249  1.5881 -0.1188  1.0351
  392MOL0     H52893   1.170   7.995  -1.412 -1.4657  2.5725  3.6914
  392MOL0     H52894   1.005   7.766  -1.311  6.0233  1.2064  3.0980
  392MOL0     H52895   1.013   7.814  -1.486  2.1952 -2.2780  0.0802
  392MOL0     H52896   0.872   7.967  -1.257  1.8291  2.0931  0.2035
  392MOL0     H52897   0.942   8.041  -1.402 -2.8460  0.1456 -1.9763
  392MOL0     H52898   0.773   7.789  -1.437 -2.2625 -0.1823 -4.6787
  392MOL0     H52899   0.796   7.924  -1.543 -1.6839  0.0541  0.0231
  392MOL0     H52900   0.654   7.925  -1.270  3.4952 -0.0698  0.1084
  392MOL0     H52901   0.561   7.905  -1.423 -2.1573  0.3149  2.4504
  392MOL0     H52902   1.631   7.557  -1.073  2.3627 -2.7904  4.5866
  392MOL0     H52903   1.688   7.559  -0.831  1.0378  0.3063  0.6361
  392MOL0     H52904   1.657   7.776  -0.456  0.1044 -2.0960 -1.5878
  392MOL0     H52905   1.670   7.742  -0.233 -0.6382 -1.9955 -2.7151
  392MOL0     H52906   2.533   8.685   1.185 -0.0325 -0.0588 -0.5243
  392MOL0     H52907   2.652   8.896   1.229 -0.1204  0.8858 -0.2254
  392MOL0     H52908   2.885   9.281   0.930 -1.0310 -1.2616 -0.1730
  392MOL0     H52909   2.986   9.501   0.961  0.6511  0.3141  0.0481
  392MOL0     H52910   2.968   9.866   1.097 -0.3276  1.1613 -2.2785
  392MOL0     H52911   3.022   9.752   0.983  3.1415  0.2682  2.6383
  392MOL0     H52912   2.718   9.749   1.007 -1.7472  2.4293  0.0810
  392MOL0     H52913   2.828   9.789   0.869 -2.8997 -1.5978 -0.3369
  392MOL0     H52914   2.856  10.014   0.966  0.6104 -1.2628  1.2458
  392MOL0     H52915   2.728   9.972   1.085  0.0186 -1.5188  0.4923
  392MOL0     H52916   2.620  10.100   0.898 -1.5151 -0.3896  1.0675
  392MOL0     H52917   2.576   9.941   0.932  1.5506 -2.2363 -1.3181
  392MOL0     H52918   2.718   9.864   0.541  4.4578 -0.5369  1.3180
  392MOL0     H52919   2.722   9.582   1.291  0.4594 -0.0686  0.6643
  392MOL0     H52920   2.617   9.365   1.264 -1.7093  3.0558  0.0869
  393MOL0     O52921   7.131   5.631   9.739 -0.2966  0.4194 -0.8798
  393MOL0     C52922   7.043   5.688   9.662  0.3179 -0.6225 -0.6212
  393MOL0     O52923   6.914   5.673   9.688  0.4901 -0.3119 -0.2370
  393MOL0     C52924   6.856   5.615   9.805  0.7668  0.0437  0.2402
  393MOL0     C52925   6.729   5.553   9.780  0.3916  0.1505 -0.5031
  393MOL0     C52926   6.661   5.494   9.882  0.0493 -0.6458 -0.3538
  393MOL0     C52927   6.705   5.486  10.009 -0.3318  0.8436 -0.3614
  393MOL0     O52928   6.624   5.423  10.096 -0.2711  0.4685 -0.2114
  393MOL0     C52929   6.688   5.393  10.224  0.2175 -0.7437 -0.1622
  393MOL0     C52930   6.613   5.295  10.325 -0.1194 -0.2017  0.0026
  393MOL0     C52931   6.468   5.334  10.322  0.4894 -0.5059  0.6021
  393MOL0     C52932   6.378   5.256  10.413  0.7414 -0.0088  0.5113
  393MOL0     C52933   6.420   5.104  10.423  0.0757  0.5320 -0.1367
  393MOL0     C52934   6.418   5.017  10.295  0.4931 -0.6401  0.8213
  393MOL0     C52935   6.445   4.864  10.305  1.2031  0.4786  0.6457
  393MOL0     C52936   6.483   4.821  10.449  0.2636 -0.1421 -0.1721
  393MOL0     N52937   6.517   4.674  10.447 -0.2713 -0.4058 -0.8860
  393MOL0     C52938   6.437   4.562  10.448  0.6605 -0.0463 -0.4833
  393MOL0     C52939   6.510   4.463  10.500 -0.3997 -0.1444  0.0129
  393MOL0     C52940   6.452   4.326  10.521  0.4217 -0.0651  0.5588
  393MOL0     C52941   6.340   4.345  10.626  0.5550  1.0145  0.4221
  393MOL0     C52942   6.212   4.287  10.576  0.3407  0.4095  1.0750
  393MOL0     C52943   6.103   4.311  10.676 -0.0015 -0.4705 -0.3898
  393MOL0     O52944   6.000   4.226  10.644  0.5162  0.4271  0.6467
  393MOL0     C52945   5.904   4.169  10.722 -0.9311 -0.3396 -0.3823
  393MOL0     C52946   5.781   4.134  10.663 -0.1111  0.0119 -0.2061
  393MOL0     C52947   5.680   4.069  10.739  0.4410  0.4735 -0.1788
  393MOL0     C52948   5.552   4.034  10.667 -0.2752 -0.2998 -0.2108
  393MOL0     C52949   5.697   4.058  10.873 -0.1241  0.0304  0.7394
  393MOL0     C52950   5.586   4.023  10.971 -0.0023 -1.1533  0.1132
  393MOL0     O52951   5.526   4.119  11.060 -0.0094  0.3191  0.7920
  393MOL0     C52952   5.416   4.095  11.145 -0.6229  0.4804 -0.1801
  393MOL0     C52953   5.368   4.192  11.229  0.1437 -0.1974 -0.0117
  393MOL0     C52954   5.264   4.180  11.321 -0.2557 -1.6694 -0.6078
  393MOL0     C52955   5.202   4.061  11.335 -0.0065  0.1847 -1.0802
  393MOL0     O52956   5.090   4.036  11.413  0.1441  0.3040  0.0295
  393MOL0     C52957   5.056   4.143  11.507  0.2008 -0.3818 -0.2327
  393MOL0     C52958   4.953   4.087  11.609 -0.0919  0.1922 -0.0038
  393MOL0     C52959   4.971   3.945  11.671 -0.8611  0.0609  0.5315
  393MOL0     C52960   4.845   3.898  11.737  0.0481 -0.4369 -0.6108
  393MOL0     C52961   4.850   3.750  11.785 -0.0403 -0.6416  0.2152
  393MOL0     C52962   4.724   3.694  11.849 -0.0002  0.0038  0.1239
  393MOL0     C52963   4.753   3.553  11.902 -0.9089 -0.5352 -0.4799
  393MOL0     C52964   4.638   3.490  11.982 -0.3209 -0.3050 -0.1558
  393MOL0    Cl52965   4.640   3.555  12.152  0.1171  0.4806 -0.0025
  393MOL0     C52966   5.251   3.954  11.255  0.0679  0.5822 -0.0937
  393MOL0     C52967   5.350   3.970  11.160 -0.9191 -0.6900 -0.4399
  393MOL0     O52968   5.554   3.906  10.963 -0.0113  0.5090 -0.3380
  393MOL0     C52969   5.821   4.099  10.932  0.4632  0.4069  0.6085
  393MOL0     C52970   5.924   4.157  10.857 -0.2956 -0.4721  0.3661
  393MOL0     N52971   6.636   4.507  10.520 -1.0322  0.9442  0.1297
  393MOL0     N52972   6.639   4.632  10.490  0.7366 -0.3641  0.7262
  393MOL0     C52973   6.846   5.532  10.020 -0.7744 -0.6294  0.3104
  393MOL0     C52974   6.917   5.602   9.927 -0.3138 -0.3889  0.0583
  393MOL0     C52975   7.069   5.746   9.523 -0.9333 -0.1743 -1.1335
  393MOL0     C52976   7.178   5.827   9.507  0.0505 -0.2887  0.0759
  393MOL0     C52977   7.216   5.880   9.381 -0.4557 -0.0470 -1.3471
  393MOL0     C52978   7.133   5.853   9.272 -0.1331  0.7973  0.8503
  393MOL0     O52979   7.173   5.905   9.155 -0.3602 -0.3597  0.3823
  393MOL0     C52980   7.198   5.823   9.045 -0.2919  0.6168 -0.2543
  393MOL0     C52981   7.270   5.689   9.071 -0.9956 -0.0344  0.4243
  393MOL0     C52982   7.423   5.719   9.087  0.7478 -0.5213 -1.2034
  393MOL0     C52983   7.521   5.605   9.101  0.4013  0.8728  0.1202
  393MOL0     C52984   7.531   5.512   8.987 -0.1207  0.4347 -0.8471
  393MOL0     C52985   7.529   5.435   8.890  0.1165  0.6749  0.2818
  393MOL0     C52986   7.019   5.771   9.291 -0.1696 -0.5414  0.4520
  393MOL0     C52987   6.989   5.721   9.413  0.5511 -1.2372  0.3397
  393MOL0     H52988   6.677   5.559   9.685 -1.2960 -3.4856  0.0015
  393MOL0     H52989   6.559   5.458   9.877  0.5808 -2.4261  0.7695
  393MOL0     H52990   6.779   5.337  10.204 -0.0399 -1.2429  0.0299
  393MOL0     H52991   6.714   5.489  10.270 -1.4450 -0.4505  0.2359
  393MOL0     H52992   6.639   5.195  10.292 -0.4364  0.0191 -0.9441
  393MOL0     H52993   6.652   5.311  10.426 -0.7346 -1.7408  0.5036
  393MOL0     H52994   6.447   5.438  10.348  0.2635  0.0671 -1.6313
  393MOL0     H52995   6.417   5.330  10.225 -1.4030 -3.0551  1.5940
  393MOL0     H52996   6.372   5.304  10.510 -2.1734 -2.0515  1.4861
  393MOL0     H52997   6.276   5.265  10.374  0.4345  1.6902  1.6231
  393MOL0     H52998   6.519   5.106  10.469 -1.4789 -4.2028  4.4234
  393MOL0     H52999   6.362   5.053  10.501  0.2851  1.0547  0.3749
  393MOL0     H53000   6.314   5.029  10.263  2.0208  2.6779 -4.2900
  393MOL0     H53001   6.473   5.068  10.215  0.1985  0.8027  1.4994
  393MOL0     H53002   6.356   4.801  10.291  2.3495 -0.9065 -0.7502
  393MOL0     H53003   6.508   4.820  10.227 -2.2147 -4.3987  0.1655
  393MOL0     H53004   6.399   4.827  10.519  0.6976 -2.6260  0.6973
  393MOL0     H53005   6.571   4.881  10.472  0.2695 -0.2617  0.1355
  393MOL0     H53006   6.334   4.551  10.414  0.4294  0.8188 -0.0893
  393MOL0     H53007   6.406   4.292  10.428 -1.0843 -0.9942  1.6048
  393MOL0     H53008   6.522   4.247  10.552  1.1217  1.2509  2.4871
  393MOL0     H53009   6.325   4.445  10.667 -2.6614  0.1660  1.5875
  393MOL0     H53010   6.375   4.292  10.715 -1.5112 -0.4996  0.4021
  393MOL0     H53011   6.216   4.178  10.571  0.4323  0.3999  1.3111
  393MOL0     H53012   6.168   4.339  10.491  1.1553  1.1754  1.1031
  393MOL0     H53013   6.078   4.417  10.686 -0.0131 -0.4946 -0.1675
  393MOL0     H53014   6.147   4.275  10.769 -1.5724 -1.6553 -0.0677
  393MOL0     H53015   5.781   4.148  10.555  2.7499 -1.8788 -0.5485
  393MOL0     H53016   5.580   3.958  10.593  0.6715  0.6770 -0.9010
  393MOL0     H53017   5.482   3.985  10.734 -0.3474  0.6524  0.4342
  393MOL0     H53018   5.511   4.112  10.601  0.3476 -0.8566 -1.2854
  393MOL0     H53019   5.403   4.294  11.217 -3.0152  1.5939  3.9845
  393MOL0     H53020   5.227   4.265  11.378 -0.1744 -1.6603 -0.5671
  393MOL0     H53021   5.144   4.184  11.557  0.0805  1.8032 -1.6862
  393MOL0     H53022   5.009   4.221  11.445  3.9209  2.4305  0.1615
  393MOL0     H53023   4.956   4.157  11.693  0.6541  0.5568 -0.3326
  393MOL0     H53024   4.848   4.086  11.578 -1.1005 -2.9329  2.8212
  393MOL0     H53025   5.056   3.956  11.739  1.6565  1.4480 -2.5662
  393MOL0     H53026   4.990   3.872  11.592 -0.7642  0.3308  0.3009
  393MOL0     H53027   4.832   3.960  11.826 -0.2569 -2.3155  0.7254
  393MOL0     H53028   4.755   3.908  11.676  0.3370  2.9986 -0.6251
  393MOL0     H53029   4.935   3.749  11.854  1.1063  3.6150 -0.8578
  393MOL0     H53030   4.888   3.695  11.698  2.5596  1.9246 -0.4073
  393MOL0     H53031   4.675   3.764  11.918 -0.1877  3.0796 -2.8798
  393MOL0     H53032   4.650   3.684  11.769 -0.1770 -0.5155  0.3441
  393MOL0     H53033   4.846   3.559  11.959 -0.9183  0.4524 -0.5535
  393MOL0     H53034   4.759   3.489  11.814 -5.4099 -0.2820 -1.2040
  393MOL0     H53035   4.659   3.382  11.982 -0.9128 -0.4479 -2.0492
  393MOL0     H53036   4.541   3.500  11.932 -0.9272 -0.2937  0.9869
  393MOL0     H53037   5.206   3.855  11.256 -0.8299  0.9214 -1.8527
  393MOL0     H53038   5.374   3.877  11.110  0.1823 -1.3641  1.2775
  393MOL0     H53039   5.833   4.080  11.038  0.6292  0.7229  0.6485
  393MOL0     H53040   6.015   4.195  10.903 -1.3711  2.0731  0.5725
  393MOL0     H53041   6.901   5.532  10.114 -0.5926  0.7840  0.2242
  393MOL0     H53042   7.016   5.645   9.940 -0.2709  0.2334 -1.8941
  393MOL0     H53043   7.241   5.847   9.593  1.2000 -2.5913 -0.1392
  393MOL0     H53044   7.305   5.943   9.379 -0.5560  0.1328 -0.4907
  393MOL0     H53045   7.099   5.806   9.002 -0.8941 -0.7368  1.5549
  393MOL0     H53046   7.248   5.875   8.962 -1.6819  0.3457 -1.3018
  393MOL0     H53047   7.262   5.627   8.981  3.1822 -0.2468 -0.0349
  393MOL0     H53048   7.223   5.631   9.150  0.7931  0.4418  1.9032
  393MOL0     H53049   7.437   5.789   9.170  0.7491 -2.2092  0.2844
  393MOL0     H53050   7.456   5.766   8.994 -3.0793  1.5046 -1.7668
  393MOL0     H53051   7.490   5.549   9.190  3.9398  1.3281  1.8098
  393MOL0     H53052   7.621   5.640   9.126  1.2498  0.9066 -2.9584
  393MOL0     H53053   7.511   5.364   8.812 -3.2793  0.3453  1.2065
  393MOL0     H53054   6.964   5.736   9.205 -1.4114 -0.3340  1.1388
  393MOL0     H53055   6.908   5.650   9.425  1.0892 -1.6123  1.9680
  394MOL0     O53056   9.246   8.383   0.932 -0.2720  1.0047 -0.2927
  394MOL0     C53057   9.301   8.276   0.974 -0.1470  0.3012  0.0560
  394MOL0     O53058   9.434   8.262   1.000 -0.1754  0.7109 -0.0730
  394MOL0     C53059   9.517   8.368   1.030 -0.0604 -0.1257  0.2855
  394MOL0     C53060   9.535   8.480   0.938 -0.0548  0.1049  0.9798
  394MOL0     C53061   9.615   8.581   0.962 -0.6011 -0.3988  0.1322
  394MOL0     C53062   9.690   8.580   1.081 -0.3242  0.6072  0.6501
  394MOL0     O53063   9.769   8.688   1.088 -0.7624 -0.1541  0.3364
  394MOL0     C53064   9.855   8.705   1.195 -0.3114  0.6885 -1.0305
  394MOL0     C53065   9.996   8.641   1.185  0.0146  0.1355 -0.2977
  394MOL0     C53066  10.078   8.695   1.296  0.0111  0.3792 -1.2406
  394MOL0     C53067  10.122   8.838   1.260 -0.2736  0.8309 -0.4298
  394MOL0     C53068  10.185   8.921   1.369 -1.0015 -0.3810  0.2719
  394MOL0     C53069  10.331   8.882   1.399  1.9628  0.8377 -0.8209
  394MOL0     C53070  10.414   8.960   1.296 -0.2011  0.7992  0.6166
  394MOL0     C53071  10.562   8.917   1.298 -0.6221 -0.4148 -0.0976
  394MOL0     N53072  10.596   8.793   1.227 -0.3550  0.5467  0.3784
  394MOL0     C53073  10.646   8.755   1.098 -0.0325  0.6353  0.2756
  394MOL0     C53074  10.653   8.619   1.091  1.1096 -0.2157 -0.3896
  394MOL0     C53075  10.678   8.517   0.984  0.8259 -0.2186  0.6509
  394MOL0     C53076  10.546   8.442   0.952  0.5329 -0.2106  0.4367
  394MOL0     C53077  10.561   8.371   0.817 -0.3124 -0.0841 -0.1596
  394MOL0     C53078  10.448   8.281   0.791 -0.4470 -0.2609 -0.8087
  394MOL0     O53079  10.466   8.207   0.676  0.2531  0.3768 -0.7771
  394MOL0     C53080  10.559   8.098   0.677  0.6797 -0.6649 -1.0218
  394MOL0     C53081  10.628   8.056   0.794 -0.2637  0.5531 -0.9074
  394MOL0     C53082  10.733   7.965   0.791 -0.5325 -0.3095  0.1455
  394MOL0     C53083  10.799   7.944   0.925 -0.6558  0.0024  0.4433
  394MOL0     C53084  10.786   7.923   0.669  0.4370 -0.4402  0.3418
  394MOL0     C53085  10.919   7.853   0.676 -1.0283  0.3643 -0.7828
  394MOL0     O53086  10.936   7.757   0.777  0.3130 -0.8036  0.1904
  394MOL0     C53087  11.057   7.703   0.809  0.8554  0.0055 -0.3328
  394MOL0     C53088  11.185   7.767   0.795  0.0590  0.6729  0.0500
  394MOL0     C53089  11.303   7.687   0.820  0.0829 -0.8628  0.0560
  394MOL0     C53090  11.300   7.548   0.842 -0.6221  0.5756  0.2806
  394MOL0     O53091  11.410   7.463   0.855 -0.8791  0.1654  0.9834
  394MOL0     C53092  11.537   7.519   0.801 -0.4583 -0.1432  0.0726
  394MOL0     C53093  11.626   7.401   0.762 -0.4986  0.4838 -0.3860
  394MOL0     C53094  11.763   7.440   0.704  1.3516  0.3795 -0.6308
  394MOL0     C53095  11.848   7.307   0.674  0.5461 -0.6428 -0.5668
  394MOL0     C53096  11.957   7.263   0.780  0.3702 -0.5739 -0.0137
  394MOL0     C53097  12.011   7.111   0.762  1.0155 -0.7724 -0.2947
  394MOL0     C53098  12.061   7.079   0.632  0.3304 -0.1925  1.0895
  394MOL0     C53099  12.165   7.170   0.585 -1.2667  0.3669  0.3416
  394MOL0    Cl53100  12.315   7.141   0.677  0.3058  0.5204  0.1267
  394MOL0     C53101  11.176   7.487   0.844  0.1458  0.7842  0.3304
  394MOL0     C53102  11.056   7.562   0.831 -0.3367 -0.6746 -0.4235
  394MOL0     O53103  11.008   7.884   0.595  1.3872 -0.0466  0.4708
  394MOL0     C53104  10.718   7.961   0.554  0.7152 -0.3745 -0.2739
  394MOL0     C53105  10.608   8.050   0.557 -0.7745 -0.4427  0.4664
  394MOL0     N53106  10.603   8.578   1.216  0.7449  0.7463  0.2013
  394MOL0     N53107  10.572   8.678   1.292 -0.2502 -0.4791 -0.1803
  394MOL0     C53108   9.683   8.464   1.171  0.3708  0.1998  0.1984
  394MOL0     C53109   9.601   8.357   1.145  0.3186 -0.0405 -0.4393
  394MOL0     C53110   9.205   8.162   0.958  0.0611  0.1865  0.1039
  394MOL0     C53111   9.232   8.034   1.012 -0.6507 -0.0283  0.3117
  394MOL0     C53112   9.138   7.932   1.016  0.0508  0.3036  0.9416
  394MOL0     C53113   9.017   7.944   0.944  1.1663 -0.2046  0.4667
  394MOL0     O53114   8.923   7.838   0.941 -0.2579 -0.4127  0.0504
  394MOL0     C53115   8.791   7.862   0.886 -0.1510  0.6406  0.5708
  394MOL0     C53116   8.691   7.744   0.900  0.0214 -0.3598 -0.1201
  394MOL0     C53117   8.734   7.625   0.811 -0.4230 -1.4134 -0.0322
  394MOL0     C53118   8.720   7.495   0.891  0.1032 -0.4535 -0.0847
  394MOL0     C53119   8.787   7.481   1.021 -0.3386 -1.1191 -0.3630
  394MOL0     C53120   8.860   7.488   1.119 -0.1914 -0.2712 -0.5846
  394MOL0     C53121   8.994   8.063   0.877  0.8396 -0.5794  0.5841
  394MOL0     C53122   9.075   8.176   0.890  0.1204  1.2769  0.1791
  394MOL0     H53123   9.487   8.475   0.841  4.6100 -0.2335 -1.5794
  394MOL0     H53124   9.638   8.660   0.890  0.9855  0.4992  1.5400
  394MOL0     H53125   9.861   8.813   1.210 -1.8321  0.5449  1.1613
  394MOL0     H53126   9.811   8.663   1.286  0.3599  2.3053  0.0831
  394MOL0     H53127   9.979   8.536   1.207 -2.5612  0.9557  2.1995
  394MOL0     H53128  10.040   8.646   1.084  0.2003 -0.3807 -0.2433
  394MOL0     H53129  10.017   8.696   1.387  0.2492  2.4501 -1.0503
  394MOL0     H53130  10.162   8.633   1.328 -0.0450  1.8431  2.1915
  394MOL0     H53131  10.192   8.829   1.176 -3.1709 -0.5106 -2.8660
  394MOL0     H53132  10.040   8.898   1.220 -0.5528 -0.1171 -1.3023
  394MOL0     H53133  10.188   9.027   1.341  1.9946 -0.3092  0.5717
  394MOL0     H53134  10.124   8.909   1.460  0.0292  0.1011  1.0542
  394MOL0     H53135  10.363   8.910   1.500  1.2282 -2.5517  0.4726
  394MOL0     H53136  10.339   8.774   1.385 -1.3391  0.3109  0.3422
  394MOL0     H53137  10.370   8.944   1.198  0.5150  0.0578  0.4065
  394MOL0     H53138  10.404   9.066   1.319 -0.7583  0.9761 -0.3664
  394MOL0     H53139  10.592   8.905   1.402  2.5165 -0.6451 -0.9377
  394MOL0     H53140  10.622   8.993   1.248  0.9686 -3.1928 -2.7861
  394MOL0     H53141  10.655   8.825   1.016  0.7997  1.0523  0.7169
  394MOL0     H53142  10.695   8.571   0.890 -1.2255 -0.5076  0.0802
  394MOL0     H53143  10.747   8.437   1.015  1.2838 -0.5524 -1.0720
  394MOL0     H53144  10.465   8.515   0.940 -0.6112 -1.9319 -3.7874
  394MOL0     H53145  10.524   8.363   1.025 -1.5435 -1.0534 -1.0270
  394MOL0     H53146  10.655   8.316   0.820 -1.3840 -1.9917  2.9093
  394MOL0     H53147  10.565   8.446   0.737 -0.1748 -2.0287 -2.0536
  394MOL0     H53148  10.364   8.349   0.777  0.5546  2.1725  3.3986
  394MOL0     H53149  10.426   8.227   0.883  1.4531  1.6371  0.8504
  394MOL0     H53150  10.599   8.086   0.894  0.8130 -2.0319  0.2794
  394MOL0     H53151  10.898   7.985   0.903 -1.2352  0.4353 -1.6340
  394MOL0     H53152  10.747   8.011   0.993 -0.0530  1.4073 -0.4271
  394MOL0     H53153  10.782   7.845   0.968 -2.7749  0.0603 -0.1431
  394MOL0     H53154  11.196   7.861   0.743  0.5877 -0.8300 -2.7382
  394MOL0     H53155  11.401   7.735   0.816 -0.6651  0.8048  0.8456
  394MOL0     H53156  11.512   7.557   0.701 -0.6926 -0.2175  0.1039
  394MOL0     H53157  11.583   7.589   0.871  2.0616 -1.2621 -0.3590
  394MOL0     H53158  11.642   7.336   0.849  0.9539  0.2396 -0.8103
  394MOL0     H53159  11.572   7.341   0.688  0.6485 -0.6094 -0.3827
  394MOL0     H53160  11.816   7.488   0.787  2.6510 -1.9009 -0.0378
  394MOL0     H53161  11.759   7.512   0.622 -1.4439  1.7655  0.5728
  394MOL0     H53162  11.802   7.213   0.643  0.3239 -0.3341 -1.1849
  394MOL0     H53163  11.901   7.324   0.579  1.8655 -2.5634 -0.2368
  394MOL0     H53164  11.910   7.266   0.879  0.6103 -1.1155  0.1208
  394MOL0     H53165  12.040   7.334   0.774  0.4166 -0.4685  1.4215
  394MOL0     H53166  12.083   7.096   0.843 -0.9397  2.7898  2.4062
  394MOL0     H53167  11.924   7.045   0.772 -0.5433  1.1768 -0.3850
  394MOL0     H53168  11.984   7.052   0.559  0.7894 -0.0916  0.5659
  394MOL0     H53169  12.099   6.979   0.652 -0.6893 -0.9327 -0.5111
  394MOL0     H53170  12.145   7.276   0.564  1.0287  0.9446  0.8346
  394MOL0     H53171  12.208   7.135   0.490  0.4921 -1.2134  1.6437
  394MOL0     H53172  11.167   7.380   0.854  2.3771  0.5649  0.4970
  394MOL0     H53173  10.960   7.512   0.837 -1.4924  1.5183  0.4533
  394MOL0     H53174  10.742   7.924   0.455 -2.4196  0.2292 -1.3782
  394MOL0     H53175  10.578   8.085   0.459  5.2526  1.6138 -1.1069
  394MOL0     H53176   9.749   8.464   1.257  1.3001  1.2120 -0.4853
  394MOL0     H53177   9.603   8.262   1.199  4.2339  1.2814  2.1522
  394MOL0     H53178   9.330   8.023   1.056  0.4582  3.4231 -0.9653
  394MOL0     H53179   9.175   7.846   1.072  3.1023  0.3527 -0.7683
  394MOL0     H53180   8.751   7.951   0.937  3.8375  1.5701  2.5438
  394MOL0     H53181   8.812   7.883   0.781 -1.1231  3.0886  0.8032
  394MOL0     H53182   8.595   7.775   0.859  0.9823 -0.3025 -2.4787
  394MOL0     H53183   8.689   7.722   1.008  3.8557  3.0664  0.9001
  394MOL0     H53184   8.843   7.632   0.799 -0.4848 -1.8477 -0.8991
  394MOL0     H53185   8.680   7.626   0.716 -0.1306 -0.8946 -0.1997
  394MOL0     H53186   8.755   7.410   0.832  1.5040 -0.1633  0.2914
  394MOL0     H53187   8.613   7.476   0.907  0.1835 -0.5804  0.3281
  394MOL0     H53188   8.930   7.504   1.199 -0.1512 -0.0810 -0.6559
  394MOL0     H53189   8.905   8.078   0.816  1.8413 -6.0202 -2.9777
  394MOL0     H53190   9.032   8.270   0.857 -2.8485 -0.9195 -2.9873
  395MOL0     O53191   4.255   5.073   4.152  0.3022 -0.0636  0.2766
  395MOL0     C53192   4.141   5.022   4.171 -0.4843  0.1355  0.6322
  395MOL0     O53193   4.105   4.903   4.120  0.6900  0.1055 -0.2420
  395MOL0     C53194   4.201   4.828   4.056 -1.2009 -0.0635 -0.1669
  395MOL0     C53195   4.262   4.733   4.146  0.5182  0.7979 -0.3451
  395MOL0     C53196   4.350   4.642   4.093  0.8638  0.7241  0.6220
  395MOL0     C53197   4.376   4.644   3.960  0.7644 -0.2202  0.7200
  395MOL0     O53198   4.446   4.540   3.907  0.1090 -0.4844  0.0325
  395MOL0     C53199   4.564   4.477   3.972 -0.0637  0.4895 -0.1096
  395MOL0     C53200   4.584   4.348   3.921  0.3140  0.6652 -0.3557
  395MOL0     C53201   4.603   4.340   3.776  0.4270  0.9044 -0.4995
  395MOL0     C53202   4.630   4.195   3.741 -0.1048  0.2023 -0.2801
  395MOL0     C53203   4.665   4.160   3.598 -0.0715 -0.0381 -0.1670
  395MOL0     C53204   4.565   4.200   3.486 -0.2449  0.5313  0.7087
  395MOL0     C53205   4.619   4.161   3.352 -0.6742 -0.2584  0.4522
  395MOL0     C53206   4.618   4.010   3.332 -0.4800 -0.2161 -0.1520
  395MOL0     N53207   4.635   3.972   3.186  0.0824 -0.1568  0.0586
  395MOL0     C53208   4.714   3.879   3.130  1.0286  0.4712 -0.9159
  395MOL0     C53209   4.668   3.860   3.003  0.2770 -0.6921 -0.1506
  395MOL0     C53210   4.719   3.762   2.902  0.5212 -0.7153 -0.3652
  395MOL0     C53211   4.830   3.829   2.815  0.4876  0.5045 -0.3367
  395MOL0     C53212   4.836   3.766   2.673  0.0530 -1.3087  1.1049
  395MOL0     C53213   4.915   3.865   2.577  0.0685 -0.0396 -1.0921
  395MOL0     O53214   4.871   4.000   2.578  0.4709 -0.4118 -0.6469
  395MOL0     C53215   4.910   4.086   2.472  0.1770  0.1804 -0.5213
  395MOL0     C53216   5.030   4.067   2.402  0.3361 -0.0990 -0.2033
  395MOL0     C53217   5.065   4.151   2.290  0.6162 -0.4792  0.8005
  395MOL0     C53218   5.193   4.121   2.207  0.2648  0.2559  0.0447
  395MOL0     C53219   4.979   4.261   2.256  0.7502 -0.6168 -0.9823
  395MOL0     C53220   5.007   4.374   2.160 -0.1684  0.5032 -0.1617
  395MOL0     O53221   4.906   4.420   2.091  0.2625 -0.3226  0.3493
  395MOL0     C53222   4.928   4.513   1.993  0.4456 -1.3777  0.3783
  395MOL0     C53223   4.802   4.570   1.956 -0.7457 -0.5058 -0.0609
  395MOL0     C53224   4.791   4.651   1.846 -0.2469  0.4690  0.8076
  395MOL0     C53225   4.909   4.679   1.770  0.3355  0.2113 -0.3510
  395MOL0     O53226   4.882   4.766   1.676  0.7658 -0.1132 -0.4284
  395MOL0     C53227   4.968   4.768   1.562  0.1425  0.6903  0.6444
  395MOL0     C53228   4.895   4.840   1.448  1.0541 -0.0609 -0.3552
  395MOL0     C53229   4.907   4.995   1.475 -1.2306 -0.0666  0.3284
  395MOL0     C53230   4.797   5.083   1.411  0.0403  1.2685  0.2879
  395MOL0     C53231   4.822   5.232   1.432  0.0102 -0.8689  0.4119
  395MOL0     C53232   4.722   5.329   1.361  0.0849  0.2863  0.6690
  395MOL0     C53233   4.703   5.296   1.209  0.4273  1.1646 -0.7304
  395MOL0     C53234   4.640   5.411   1.141 -0.3075 -0.1765 -0.0364
  395MOL0    Cl53235   4.472   5.413   1.207 -0.0105  0.2881 -0.0610
  395MOL0     C53236   5.029   4.641   1.819 -0.3539  0.9855 -0.4177
  395MOL0     C53237   5.042   4.558   1.923 -0.7756  1.0962 -0.5492
  395MOL0     O53238   5.127   4.411   2.157  0.0391 -0.8574  0.2501
  395MOL0     C53239   4.861   4.275   2.330 -0.6250  0.5703 -0.3859
  395MOL0     C53240   4.825   4.196   2.430 -0.8169  0.5036  0.2595
  395MOL0     N53241   4.566   3.950   2.977 -0.3140 -0.7023 -0.1603
  395MOL0     N53242   4.561   4.029   3.087  0.8539 -0.5552  0.2168
  395MOL0     C53243   4.311   4.728   3.869  0.4918  1.1065  0.1219
  395MOL0     C53244   4.229   4.825   3.917  0.1120 -0.2918  1.3868
  395MOL0     C53245   4.047   5.087   4.264  0.1596 -0.4514 -0.7350
  395MOL0     C53246   3.993   5.015   4.371 -0.4528 -0.5214  0.3449
  395MOL0     C53247   3.925   5.086   4.459  0.2592  0.4949 -0.6451
  395MOL0     C53248   3.891   5.221   4.448  0.4742  0.5926 -0.2836
  395MOL0     O53249   3.800   5.262   4.546  0.2451  0.6820 -0.8018
  395MOL0     C53250   3.699   5.360   4.532 -0.2824  0.2038  0.1520
  395MOL0     C53251   3.616   5.377   4.652 -0.3799 -0.3561  0.2174
  395MOL0     C53252   3.656   5.501   4.736 -0.1629  0.1939  0.2738
  395MOL0     C53253   3.573   5.623   4.686 -0.4704 -0.0806 -0.1822
  395MOL0     C53254   3.616   5.748   4.744 -0.5639  0.2439  0.4511
  395MOL0     C53255   3.662   5.854   4.785 -0.9701  0.0295 -0.3533
  395MOL0     C53256   3.934   5.291   4.337 -0.4769 -0.8599 -0.5483
  395MOL0     C53257   4.022   5.230   4.243  0.1739 -0.4042  0.5533
  395MOL0     H53258   4.251   4.718   4.253  0.6677 -2.9128 -0.7170
  395MOL0     H53259   4.380   4.558   4.155  3.2225  2.8115  2.5509
  395MOL0     H53260   4.651   4.543   3.967 -0.0421  0.5860  1.3365
  395MOL0     H53261   4.563   4.472   4.081  1.1497 -1.5254 -0.1324
  395MOL0     H53262   4.673   4.310   3.973  0.4668 -0.3885 -1.3564
  395MOL0     H53263   4.489   4.297   3.942  0.7026 -0.5502 -1.4319
  395MOL0     H53264   4.514   4.377   3.722  0.1390  1.2850  0.2132
  395MOL0     H53265   4.693   4.393   3.743  2.9393 -1.6704  1.7538
  395MOL0     H53266   4.712   4.160   3.804  0.8506 -0.0711 -1.6276
  395MOL0     H53267   4.551   4.133   3.782  2.0196 -1.4727  1.4856
  395MOL0     H53268   4.747   4.228   3.571  0.8225 -1.2279 -0.4984
  395MOL0     H53269   4.699   4.057   3.599 -3.5553 -1.3129  0.4561
  395MOL0     H53270   4.468   4.150   3.496 -0.8637  1.3790 -0.6832
  395MOL0     H53271   4.546   4.307   3.496 -1.8749  0.1042  2.6486
  395MOL0     H53272   4.558   4.215   3.279  2.0980  1.4137 -0.7887
  395MOL0     H53273   4.723   4.195   3.346  0.9944 -4.4654  1.9123
  395MOL0     H53274   4.524   3.962   3.358 -1.8177  1.4001 -1.7891
  395MOL0     H53275   4.704   3.971   3.389 -2.7482 -0.9853  3.0251
  395MOL0     H53276   4.790   3.816   3.174 -1.3662 -1.7481  0.3234
  395MOL0     H53277   4.755   3.666   2.939  0.7117  0.7043  3.5545
  395MOL0     H53278   4.630   3.739   2.843 -0.6857 -0.0016  1.1023
  395MOL0     H53279   4.927   3.824   2.865  1.1274 -1.1613 -1.6500
  395MOL0     H53280   4.805   3.935   2.806  0.3501  0.5411  0.3777
  395MOL0     H53281   4.736   3.759   2.630  0.5002 -1.4980  0.0832
  395MOL0     H53282   4.878   3.665   2.680  0.0380 -1.3884  0.1010
  395MOL0     H53283   4.913   3.829   2.473 -0.6347 -1.6160 -0.5606
  395MOL0     H53284   5.014   3.865   2.622 -1.2175 -0.8014  2.0102
  395MOL0     H53285   5.100   3.986   2.422 -0.3061 -2.5810 -5.9028
  395MOL0     H53286   5.181   4.106   2.099 -2.0420  0.6944  0.1811
  395MOL0     H53287   5.274   4.195   2.208  0.7994 -0.0154 -4.1479
  395MOL0     H53288   5.238   4.028   2.243 -0.8339 -0.3453 -0.1101
  395MOL0     H53289   4.713   4.542   2.011 -0.4197 -0.1625  0.6690
  395MOL0     H53290   4.693   4.692   1.821 -1.4660 -2.6502  0.0106
  395MOL0     H53291   5.055   4.834   1.572 -1.2091  3.4734 -3.3103
  395MOL0     H53292   4.991   4.664   1.541 -1.0363  0.3784  0.8327
  395MOL0     H53293   4.945   4.820   1.352  3.1793  0.9657  0.4710
  395MOL0     H53294   4.790   4.814   1.433  1.1826 -2.3711  2.0130
  395MOL0     H53295   5.007   5.032   1.452  1.3642 -5.0560  2.1500
  395MOL0     H53296   4.883   4.988   1.582 -3.2002 -3.6122 -0.2076
  395MOL0     H53297   4.801   5.067   1.303  1.5782  1.4872  0.2990
  395MOL0     H53298   4.695   5.056   1.443  0.1686  0.2767 -0.1062
  395MOL0     H53299   4.927   5.260   1.418  1.0746 -2.0748  4.5042
  395MOL0     H53300   4.811   5.263   1.537  1.2463 -0.2949  0.3944
  395MOL0     H53301   4.627   5.304   1.409  0.3947  0.4507  1.3772
  395MOL0     H53302   4.739   5.436   1.374 -1.2439  0.9899 -2.4515
  395MOL0     H53303   4.634   5.212   1.205 -0.0181  1.4726  0.1877
  395MOL0     H53304   4.797   5.252   1.175  0.9132  1.7742 -0.2202
  395MOL0     H53305   4.639   5.403   1.032 -0.6448 -0.0670 -0.0439
  395MOL0     H53306   4.693   5.504   1.165  3.5951 -2.6476  2.1322
  395MOL0     H53307   5.123   4.669   1.773  0.3580 -1.7015 -0.7663
  395MOL0     H53308   5.141   4.525   1.952 -0.4360  1.9121 -0.7591
  395MOL0     H53309   4.795   4.357   2.303 -1.6906 -0.2301 -0.3164
  395MOL0     H53310   4.734   4.215   2.486 -1.1624  1.4922 -0.6021
  395MOL0     H53311   4.350   4.733   3.768 -2.5358 -2.1016 -1.4605
  395MOL0     H53312   4.177   4.901   3.858  2.2260  1.2236  1.3472
  395MOL0     H53313   4.012   4.910   4.392  0.9066 -0.4470 -0.4461
  395MOL0     H53314   3.872   5.038   4.540  1.8014 -1.3633 -0.6750
  395MOL0     H53315   3.745   5.452   4.492  2.8402 -1.3048 -0.0380
  395MOL0     H53316   3.628   5.329   4.455 -1.1879  3.1360 -0.3350
  395MOL0     H53317   3.642   5.285   4.705  0.3813 -1.1419 -1.4380
  395MOL0     H53318   3.511   5.391   4.625 -0.3652  0.5827  0.6129
  395MOL0     H53319   3.764   5.516   4.724  0.0215 -0.9202  0.4564
  395MOL0     H53320   3.635   5.477   4.840 -3.2932  0.1834 -0.2777
  395MOL0     H53321   3.471   5.611   4.722 -0.8846  2.0162 -0.5216
  395MOL0     H53322   3.568   5.614   4.577 -0.4877  0.6329 -0.2446
  395MOL0     H53323   3.715   5.939   4.823 -1.2036 -1.2288  3.1458
  395MOL0     H53324   3.906   5.396   4.341  0.5928 -0.5918  0.8561
  395MOL0     H53325   4.064   5.297   4.169  3.2718  1.1232  3.3868
  396MOL0     O53326   0.554   8.345   7.411 -0.6022  0.6777 -0.5975
  396MOL0     C53327   0.623   8.263   7.481  0.7534 -0.5266  0.4450
  396MOL0     O53328   0.692   8.145   7.438  0.0209  0.5689  0.8497
  396MOL0     C53329   0.803   8.148   7.355  0.2371  0.1607  0.9357
  396MOL0     C53330   0.885   8.259   7.326 -0.7692 -0.1944 -0.4495
  396MOL0     C53331   1.007   8.249   7.250  0.3987  0.0756  0.3098
  396MOL0     C53332   1.043   8.118   7.193 -0.1684 -0.0262 -1.2571
  396MOL0     O53333   1.155   8.087   7.119  0.1458 -0.7039 -0.3509
  396MOL0     C53334   1.189   7.949   7.118  0.6847  0.9541  0.2346
  396MOL0     C53335   1.334   7.944   7.073 -0.3767 -0.3111  0.9552
  396MOL0     C53336   1.354   7.819   6.988 -0.8328 -0.8067  0.1419
  396MOL0     C53337   1.502   7.806   6.947 -0.1628  0.0351  0.3812
  396MOL0     C53338   1.564   7.924   6.869 -0.2865  0.4131  0.3170
  396MOL0     C53339   1.501   7.928   6.732 -0.4005 -0.3181  1.1668
  396MOL0     C53340   1.545   8.042   6.647 -0.4443 -0.2785 -0.1390
  396MOL0     C53341   1.437   8.078   6.538 -0.1300 -0.5321 -0.4032
  396MOL0     N53342   1.320   8.158   6.585 -0.5198  0.5292  0.0832
  396MOL0     C53343   1.232   8.122   6.684 -0.1688 -0.0865 -1.2641
  396MOL0     C53344   1.166   8.238   6.709 -0.4988 -0.4635  0.3248
  396MOL0     C53345   1.044   8.262   6.810 -0.3507  0.3867 -0.7046
  396MOL0     C53346   0.916   8.281   6.743 -0.1273 -0.6485 -0.2296
  396MOL0     C53347   0.806   8.359   6.826 -0.9995  0.0752 -0.4439
  396MOL0     C53348   0.669   8.286   6.826 -0.0798  0.2435  0.1930
  396MOL0     O53349   0.597   8.343   6.935 -0.0126  0.5444 -0.3374
  396MOL0     C53350   0.552   8.471   6.919  0.1564 -0.5761 -0.7603
  396MOL0     C53351   0.503   8.522   6.795 -0.5293 -0.5421  0.4624
  396MOL0     C53352   0.442   8.651   6.780  0.0168 -0.3628  0.1953
  396MOL0     C53353   0.390   8.671   6.635  0.4150 -0.3821 -0.2281
  396MOL0     C53354   0.419   8.723   6.894  0.3695 -0.6877 -0.2285
  396MOL0     C53355   0.375   8.867   6.878 -0.6042 -0.2039 -0.1067
  396MOL0     O53356   0.276   8.896   6.789  0.6213  0.0304  0.4022
  396MOL0     C53357   0.208   9.015   6.779  0.7285  0.2099  0.5896
  396MOL0     C53358   0.125   9.036   6.669 -0.3697  0.8180  0.0336
  396MOL0     C53359   0.056   9.153   6.660 -0.1890 -1.2309 -0.4621
  396MOL0     C53360   0.048   9.241   6.777 -0.6845  0.5320 -0.2632
  396MOL0     O53361  -0.036   9.349   6.772 -0.0024 -1.0030  0.2566
  396MOL0     C53362   0.033   9.467   6.731  0.6315 -0.1849 -0.1823
  396MOL0     C53363  -0.038   9.605   6.722  1.2705  0.4218 -0.0249
  396MOL0     C53364  -0.098   9.642   6.853  0.9049  0.0005  0.9057
  396MOL0     C53365  -0.223   9.737   6.848  0.0165 -0.4684  0.4736
  396MOL0     C53366  -0.182   9.888   6.845 -0.4733  0.1187  0.7408
  396MOL0     C53367  -0.305   9.976   6.856 -0.2355  0.0808 -0.0166
  396MOL0     C53368  -0.279  10.131   6.845  0.5458 -0.5890 -0.2548
  396MOL0     C53369  -0.400  10.214   6.856 -0.3291 -0.4106  0.1321
  396MOL0    Cl53370  -0.456  10.186   7.020 -0.0390 -0.0745 -0.0297
  396MOL0     C53371   0.119   9.212   6.886 -0.0877  0.0328 -0.2855
  396MOL0     C53372   0.201   9.100   6.889 -0.2392  0.7673  0.2562
  396MOL0     O53373   0.451   8.955   6.936  0.3896  0.1450 -0.1252
  396MOL0     C53374   0.471   8.680   7.016 -0.2318  0.7300  0.3965
  396MOL0     C53375   0.537   8.563   7.032  0.0355  0.0886  0.0302
  396MOL0     N53376   1.216   8.341   6.622  0.4944 -0.2747 -0.9523
  396MOL0     N53377   1.301   8.281   6.545 -0.0994 -0.5197  0.1745
  396MOL0     C53378   0.941   8.014   7.220  1.0121 -0.7107 -0.9003
  396MOL0     C53379   0.830   8.027   7.294  0.6430 -0.9410 -0.5502
  396MOL0     C53380   0.605   8.276   7.628 -0.1155 -0.2977 -0.2655
  396MOL0     C53381   0.677   8.186   7.711 -0.1725  0.0776 -0.2318
  396MOL0     C53382   0.659   8.202   7.850 -0.3733  0.6328  1.0743
  396MOL0     C53383   0.588   8.308   7.904 -0.2348  0.1071  0.7168
  396MOL0     O53384   0.565   8.328   8.042 -0.4530  0.1223 -0.9142
  396MOL0     C53385   0.612   8.231   8.135 -0.4934  1.0623 -0.0211
  396MOL0     C53386   0.524   8.242   8.263  0.7430  0.5852  0.6199
  396MOL0     C53387   0.564   8.141   8.377  0.4302  0.5067 -1.0613
  396MOL0     C53388   0.675   8.177   8.478  0.1093  0.7575 -0.4653
  396MOL0     C53389   0.812   8.177   8.415  0.6662  0.5323 -0.4870
  396MOL0     C53390   0.925   8.166   8.358 -0.5487 -0.0680 -0.9208
  396MOL0     C53391   0.530   8.402   7.825 -0.2845 -0.2652  0.0677
  396MOL0     C53392   0.537   8.385   7.688 -0.0115  0.0713  0.4492
  396MOL0     H53393   0.848   8.355   7.359 -3.9967 -1.9054  1.4954
  396MOL0     H53394   1.082   8.324   7.229 -0.2149 -0.1000 -3.0392
  396MOL0     H53395   1.175   7.897   7.213  1.0595  0.9339  0.2834
  396MOL0     H53396   1.120   7.900   7.049 -1.9912  3.2018  1.1465
  396MOL0     H53397   1.361   8.029   7.009  1.3258 -3.0814 -2.3296
  396MOL0     H53398   1.412   7.943   7.150  1.2235 -2.3546 -0.5843
  396MOL0     H53399   1.323   7.733   7.049 -1.2425 -0.5726  0.2717
  396MOL0     H53400   1.288   7.818   6.901 -0.9514  1.1053  0.1684
  396MOL0     H53401   1.559   7.799   7.040 -1.7036 -1.6658  1.2617
  396MOL0     H53402   1.519   7.721   6.881 -1.9282  0.8775 -1.2574
  396MOL0     H53403   1.559   8.020   6.922  1.5820  0.1377  1.0527
  396MOL0     H53404   1.671   7.902   6.864 -0.3691  0.0390 -4.0857
  396MOL0     H53405   1.534   7.846   6.668  2.5104  4.0671 -3.7352
  396MOL0     H53406   1.393   7.910   6.733 -0.5038  0.3090  1.8872
  396MOL0     H53407   1.570   8.123   6.716  0.9669 -2.2511  1.8180
  396MOL0     H53408   1.644   8.021   6.606 -0.3961 -3.2213  1.2428
  396MOL0     H53409   1.399   7.984   6.496 -0.3058 -0.0845 -1.2634
  396MOL0     H53410   1.485   8.122   6.450  2.9868 -2.9117 -0.0909
  396MOL0     H53411   1.214   8.023   6.724  0.5810  0.4158  0.4147
  396MOL0     H53412   1.044   8.177   6.879  0.7713 -0.1161 -1.2894
  396MOL0     H53413   1.069   8.347   6.874 -3.6819 -0.4038  1.9242
  396MOL0     H53414   0.893   8.185   6.696 -4.5230  0.7640 -1.4642
  396MOL0     H53415   0.926   8.343   6.653 -0.1678  0.6550  0.6462
  396MOL0     H53416   0.785   8.454   6.777  0.7007  0.2244 -0.9532
  396MOL0     H53417   0.836   8.368   6.931  1.4878 -2.2459 -0.8340
  396MOL0     H53418   0.694   8.180   6.839  3.9640  1.0879  0.7654
  396MOL0     H53419   0.613   8.289   6.733 -1.3441  2.7636  0.9379
  396MOL0     H53420   0.522   8.469   6.702 -0.0955  1.1075 -0.4265
  396MOL0     H53421   0.420   8.772   6.605  1.8516 -0.1860  1.6980
  396MOL0     H53422   0.438   8.605   6.562 -0.6792  0.8696 -2.1645
  396MOL0     H53423   0.284   8.669   6.611  0.7151  0.8597 -1.8027
  396MOL0     H53424   0.135   8.950   6.604  3.3148 -1.8464  3.5841
  396MOL0     H53425  -0.003   9.185   6.575 -0.2885  3.5605  1.0714
  396MOL0     H53426   0.118   9.491   6.795 -0.5468  2.6338  0.4732
  396MOL0     H53427   0.077   9.459   6.631  1.5725  1.7216  0.0456
  396MOL0     H53428   0.022   9.693   6.699  0.0558  1.1719 -0.4266
  396MOL0     H53429  -0.124   9.586   6.656  0.2453  1.5446  0.9389
  396MOL0     H53430  -0.026   9.693   6.918 -0.6813  4.2500 -0.3340
  396MOL0     H53431  -0.131   9.551   6.903  0.0716  1.1644  2.5651
  396MOL0     H53432  -0.292   9.699   6.771  1.2047 -2.9908  0.5603
  396MOL0     H53433  -0.271   9.729   6.946 -3.5357 -0.2049 -1.0990
  396MOL0     H53434  -0.132   9.919   6.753 -0.0817  3.5514  1.9550
  396MOL0     H53435  -0.112   9.914   6.925 -2.5522  2.0896  2.0442
  396MOL0     H53436  -0.380   9.951   6.781 -0.4550  0.3247  0.1206
  396MOL0     H53437  -0.335   9.940   6.955  2.8687 -3.0588  0.0018
  396MOL0     H53438  -0.243  10.160   6.746 -2.9065  3.6681 -0.5803
  396MOL0     H53439  -0.207  10.171   6.918 -1.5685  3.2813 -0.0162
  396MOL0     H53440  -0.481  10.192   6.785 -1.0221  0.2053  0.7148
  396MOL0     H53441  -0.369  10.319   6.850 -0.4437 -0.2865  1.3814
  396MOL0     H53442   0.113   9.271   6.977 -0.4755 -1.1157  0.4527
  396MOL0     H53443   0.249   9.069   6.981 -1.2263 -0.1987  0.4632
  396MOL0     H53444   0.442   8.733   7.106  0.7712 -0.7213  1.6201
  396MOL0     H53445   0.574   8.522   7.126  3.1595 -0.1877 -1.1831
  396MOL0     H53446   0.963   7.912   7.189 -2.3836 -2.4433  1.7147
  396MOL0     H53447   0.765   7.943   7.317  0.7036 -0.5489  1.1637
  396MOL0     H53448   0.737   8.101   7.680  1.4852 -0.1080  3.0616
  396MOL0     H53449   0.702   8.127   7.915  0.9383 -0.6091 -1.0899
  396MOL0     H53450   0.605   8.129   8.098 -0.9425  1.1272 -0.1153
  396MOL0     H53451   0.715   8.239   8.170  0.2694  1.9763 -2.2938
  396MOL0     H53452   0.418   8.226   8.240  0.9661 -0.2810  0.1405
  396MOL0     H53453   0.540   8.343   8.303  1.5740 -0.6813  3.7022
  396MOL0     H53454   0.581   8.041   8.336  2.3424  0.9232 -1.3635
  396MOL0     H53455   0.470   8.134   8.432 -0.3720  2.7692 -2.0188
  396MOL0     H53456   0.676   8.105   8.560  2.0776 -1.9779 -2.7042
  396MOL0     H53457   0.643   8.274   8.517 -3.4671 -0.5242  0.2035
  396MOL0     H53458   1.022   8.179   8.315 -1.0981  0.5215 -2.0420
  396MOL0     H53459   0.491   8.492   7.872  0.9055  0.9368 -1.1399
  396MOL0     H53460   0.496   8.455   7.616  1.0876 -0.2582 -0.5368
  397MOL0     O53461   2.451   6.494   1.649  0.5243 -0.0011  0.1382
  397MOL0     C53462   2.527   6.499   1.747  0.1485 -0.2187 -0.5463
  397MOL0     O53463   2.512   6.415   1.860 -0.4137 -0.0014 -0.9498
  397MOL0     C53464   2.405   6.338   1.892 -0.2854 -1.3177  0.6413
  397MOL0     C53465   2.420   6.222   1.963 -0.0102 -0.4107 -0.2268
  397MOL0     C53466   2.313   6.151   2.014  1.0218  0.6497  0.0305
  397MOL0     C53467   2.183   6.186   1.981  0.5082  0.5963  0.1071
  397MOL0     O53468   2.073   6.117   2.039 -0.1888 -0.2352 -0.4359
  397MOL0     C53469   2.006   6.019   1.959  0.6942  1.0809  0.8962
  397MOL0     C53470   1.855   6.010   1.974  1.1306  0.5902  0.0698
  397MOL0     C53471   1.802   5.984   2.117  0.2207  0.3357  1.5828
  397MOL0     C53472   1.652   5.990   2.118  0.2286  0.1059 -0.3832
  397MOL0     C53473   1.587   5.851   2.092 -0.1070 -0.5017 -0.3627
  397MOL0     C53474   1.433   5.860   2.087  0.2121  0.2904  0.5589
  397MOL0     C53475   1.341   5.853   2.212  0.3051  0.0403 -0.3251
  397MOL0     C53476   1.288   5.989   2.275  1.0091  0.7480  0.7504
  397MOL0     N53477   1.377   6.065   2.358  0.0795  0.2953 -0.9610
  397MOL0     C53478   1.439   6.046   2.477 -0.9523 -0.7606 -0.0193
  397MOL0     C53479   1.535   6.131   2.494 -0.3892 -0.1946  0.9201
  397MOL0     C53480   1.626   6.150   2.606 -0.7791  0.4504 -0.7500
  397MOL0     C53481   1.576   6.198   2.747 -0.3868  0.6785 -0.6366
  397MOL0     C53482   1.668   6.289   2.828 -0.9277 -0.7169 -1.0212
  397MOL0     C53483   1.812   6.256   2.836  0.5337 -0.2741 -0.9682
  397MOL0     O53484   1.872   6.350   2.923  0.7304 -1.1436  0.1384
  397MOL0     C53485   2.011   6.360   2.918 -0.0550 -0.7396  0.4263
  397MOL0     C53486   2.066   6.467   2.994  0.5274  1.4957 -0.0774
  397MOL0     C53487   2.205   6.501   2.985 -0.4064  0.6199 -0.3427
  397MOL0     C53488   2.260   6.615   3.077  0.0459  1.1562  0.9695
  397MOL0     C53489   2.289   6.423   2.908  0.1145  0.1210  0.9915
  397MOL0     C53490   2.431   6.442   2.903  0.1252  0.3027  0.8737
  397MOL0     O53491   2.492   6.400   2.788  0.5887 -0.6628  0.6135
  397MOL0     C53492   2.613   6.353   2.791 -0.0862  0.2193  0.1700
  397MOL0     C53493   2.726   6.432   2.774 -0.5616 -0.7712  0.3115
  397MOL0     C53494   2.858   6.367   2.758  0.6583  1.0634 -1.1841
  397MOL0     C53495   2.873   6.225   2.771 -0.1913  0.1269 -0.1660
  397MOL0     O53496   2.985   6.157   2.752 -0.0935  0.2894 -0.4963
  397MOL0     C53497   3.102   6.241   2.726  0.7144  2.1024 -0.2029
  397MOL0     C53498   3.096   6.290   2.583  0.0481  0.1983  0.2514
  397MOL0     C53499   3.187   6.419   2.575 -0.6687 -0.1683  0.0783
  397MOL0     C53500   3.279   6.420   2.462 -0.3811  0.1923  0.2759
  397MOL0     C53501   3.208   6.489   2.338 -0.6832 -0.2678 -0.3772
  397MOL0     C53502   3.196   6.644   2.337  0.5021 -1.4008  0.1296
  397MOL0     C53503   3.325   6.727   2.324  0.7435  0.4067  0.1363
  397MOL0     C53504   3.406   6.710   2.191 -1.0358  0.0341 -1.1205
  397MOL0    Cl53505   3.340   6.836   2.090 -0.0066 -0.1179 -0.1347
  397MOL0     C53506   2.760   6.154   2.786 -0.0639  0.0437 -0.2408
  397MOL0     C53507   2.632   6.218   2.796 -0.8315  0.3299  0.7824
  397MOL0     O53508   2.493   6.475   3.003 -0.5813  0.3484 -0.0768
  397MOL0     C53509   2.235   6.310   2.843  0.1154 -0.5635  0.1861
  397MOL0     C53510   2.098   6.273   2.851 -0.3447  0.1423  0.7570
  397MOL0     N53511   1.524   6.228   2.393 -0.3487 -0.4945 -0.0012
  397MOL0     N53512   1.435   6.181   2.309 -0.4203  0.0750 -0.5422
  397MOL0     C53513   2.163   6.300   1.904  0.9034 -0.3529  0.0529
  397MOL0     C53514   2.270   6.378   1.865 -0.4575 -0.5608 -0.0654
  397MOL0     C53515   2.652   6.565   1.731 -0.0606  0.9215  0.6472
  397MOL0     C53516   2.778   6.491   1.740  0.3665  0.9311  0.0795
  397MOL0     C53517   2.902   6.565   1.740 -0.3236  0.4672 -0.6949
  397MOL0     C53518   2.901   6.701   1.744  0.6327 -0.1584 -0.1654
  397MOL0     O53519   3.015   6.765   1.756 -0.2370  0.3855 -0.3736
  397MOL0     C53520   3.041   6.863   1.655 -0.0734 -0.1119  0.4259
  397MOL0     C53521   3.137   6.796   1.560  1.4386  0.2302 -0.7922
  397MOL0     C53522   3.159   6.874   1.427  0.2344  0.0939  0.6788
  397MOL0     C53523   3.208   7.015   1.444 -0.5648  0.2569  0.4482
  397MOL0     C53524   3.240   7.075   1.313  0.0018  0.3847  0.4152
  397MOL0     C53525   3.269   7.137   1.212  0.3810 -0.5293 -0.8519
  397MOL0     C53526   2.777   6.767   1.742  0.0564  0.8899  0.6596
  397MOL0     C53527   2.658   6.701   1.727 -0.0522 -0.9509 -0.1897
  397MOL0     H53528   2.517   6.192   2.001  2.0609  4.1196 -1.2626
  397MOL0     H53529   2.321   6.061   2.075 -0.1631  0.2289 -0.3966
  397MOL0     H53530   2.031   6.036   1.853  3.3278 -0.0313  1.2584
  397MOL0     H53531   2.036   5.916   1.983  0.3884  0.4870 -1.0981
  397MOL0     H53532   1.817   6.107   1.940 -0.0157  1.2318  2.9189
  397MOL0     H53533   1.819   5.929   1.910  1.1631  0.5749  0.0708
  397MOL0     H53534   1.838   5.883   2.138 -0.5554 -0.1129  0.8317
  397MOL0     H53535   1.849   6.058   2.183 -0.5523  1.1791  1.2103
  397MOL0     H53536   1.612   6.023   2.214 -2.4142 -1.9117 -0.6721
  397MOL0     H53537   1.625   6.060   2.038  2.4248  0.9773 -0.4379
  397MOL0     H53538   1.614   5.817   1.991 -1.2717 -0.3488 -0.7359
  397MOL0     H53539   1.609   5.781   2.173 -1.1952 -0.7478 -0.2684
  397MOL0     H53540   1.395   5.937   2.019  0.0708 -0.2039  0.0625
  397MOL0     H53541   1.418   5.762   2.040  2.3058 -1.1234  2.6701
  397MOL0     H53542   1.257   5.787   2.190 -0.1143 -0.3416  2.1329
  397MOL0     H53543   1.398   5.796   2.285  1.0029 -1.2249 -1.8259
  397MOL0     H53544   1.201   5.965   2.336 -0.2231  2.5894 -0.2277
  397MOL0     H53545   1.258   6.049   2.189 -0.5181 -4.2942 -2.6715
  397MOL0     H53546   1.415   5.960   2.539 -2.6695 -0.4359 -0.1924
  397MOL0     H53547   1.680   6.060   2.637 -3.2919 -0.5768  0.9429
  397MOL0     H53548   1.702   6.223   2.577  0.1038 -0.7016 -1.4248
  397MOL0     H53549   1.560   6.100   2.793  0.7564 -0.4484 -2.5335
  397MOL0     H53550   1.486   6.261   2.749  0.6504  2.2333  1.5917
  397MOL0     H53551   1.634   6.302   2.931 -3.2795 -0.0796 -1.8170
  397MOL0     H53552   1.664   6.385   2.776 -2.5912 -0.0611  0.2218
  397MOL0     H53553   1.847   6.256   2.732  0.4195  2.8650 -1.1111
  397MOL0     H53554   1.828   6.157   2.879 -0.1849  1.1122  2.8464
  397MOL0     H53555   2.004   6.524   3.062  4.1568  2.2590  2.9055
  397MOL0     H53556   2.306   6.563   3.161  2.2547 -0.3845 -1.0440
  397MOL0     H53557   2.326   6.679   3.017  0.3402 -1.8574 -2.2967
  397MOL0     H53558   2.169   6.660   3.118 -1.2117 -1.6598  1.4793
  397MOL0     H53559   2.702   6.535   2.749 -1.8174 -1.3089 -0.8682
  397MOL0     H53560   2.937   6.433   2.723  0.8510  1.8682  0.6763
  397MOL0     H53561   3.101   6.323   2.799  0.2215  2.1769 -0.2864
  397MOL0     H53562   3.196   6.189   2.744 -0.9479 -1.3242 -0.5325
  397MOL0     H53563   3.135   6.214   2.515  0.4888  2.6898 -2.4702
  397MOL0     H53564   3.002   6.321   2.537  0.6245 -0.5392 -1.4989
  397MOL0     H53565   3.250   6.434   2.664  0.8059 -0.1961 -0.9238
  397MOL0     H53566   3.118   6.503   2.564 -0.4451 -0.1563 -1.4711
  397MOL0     H53567   3.368   6.472   2.497 -0.2969  1.1673 -1.2673
  397MOL0     H53568   3.296   6.314   2.439 -2.3389  0.7310 -5.1755
  397MOL0     H53569   3.106   6.452   2.327 -0.7295 -0.7860  1.4039
  397MOL0     H53570   3.263   6.460   2.248  1.3856  1.0654  0.3800
  397MOL0     H53571   3.150   6.668   2.241  3.2173  3.0205 -0.3408
  397MOL0     H53572   3.144   6.680   2.426  0.5258 -0.4364 -0.2330
  397MOL0     H53573   3.390   6.686   2.402  1.3162  0.2689 -0.4053
  397MOL0     H53574   3.312   6.834   2.337  1.3983  0.3233  1.7194
  397MOL0     H53575   3.400   6.610   2.148  2.2520 -0.5410 -0.5449
  397MOL0     H53576   3.513   6.724   2.208 -0.5688  0.5517 -3.9759
  397MOL0     H53577   2.767   6.046   2.778 -3.1420 -0.3878  1.4083
  397MOL0     H53578   2.541   6.159   2.799 -0.9054  0.4345  0.6181
  397MOL0     H53579   2.294   6.236   2.790  0.2555 -0.4579  0.1937
  397MOL0     H53580   2.066   6.179   2.808 -1.1525  0.7783 -0.0923
  397MOL0     H53581   2.059   6.332   1.901  0.7025 -1.0598 -1.4977
  397MOL0     H53582   2.249   6.478   1.830  0.9794 -0.4841 -0.8028
  397MOL0     H53583   2.775   6.385   1.760 -0.5799  0.6517 -1.4424
  397MOL0     H53584   2.994   6.508   1.740 -0.5010  0.1619 -2.0741
  397MOL0     H53585   2.966   6.903   1.587  3.2910  2.8672 -1.9509
  397MOL0     H53586   3.104   6.943   1.696 -0.2725 -0.1964  0.8983
  397MOL0     H53587   3.080   6.703   1.548  0.0882  0.9271 -0.0625
  397MOL0     H53588   3.234   6.775   1.606  1.6696  1.2035 -0.8117
  397MOL0     H53589   3.060   6.899   1.388  0.3136  1.7010  1.4089
  397MOL0     H53590   3.216   6.816   1.354 -0.0765  1.7846 -0.9777
  397MOL0     H53591   3.303   7.007   1.498  0.5333  2.8518 -0.9367
  397MOL0     H53592   3.127   7.066   1.497  0.2596  0.0195  1.9855
  397MOL0     H53593   3.298   7.191   1.124  0.0811  0.2815 -0.4693
  397MOL0     H53594   2.763   6.874   1.741 -1.8797  0.8489 -3.8420
  397MOL0     H53595   2.568   6.761   1.730  1.1894  1.0439 -0.6964
  398MOL0     O53596  10.290   2.499   9.081 -0.3297  0.3615 -0.2330
  398MOL0     C53597  10.226   2.451   8.987 -1.2501  0.2730 -0.4639
  398MOL0     O53598  10.227   2.325   8.947  0.1407  0.0356 -0.1734
  398MOL0     C53599  10.322   2.245   8.998  0.6530  0.0339  0.6625
  398MOL0     C53600  10.387   2.166   8.912  0.3163  0.5757  0.6205
  398MOL0     C53601  10.473   2.064   8.969  0.7400 -0.4966 -0.4067
  398MOL0     C53602  10.473   2.038   9.109 -0.8258  0.0028 -0.4131
  398MOL0     O53603  10.546   1.932   9.158  0.0571  0.5386 -0.3177
  398MOL0     C53604  10.582   1.914   9.295 -1.1200 -0.2798  0.0233
  398MOL0     C53605  10.711   2.006   9.328  0.5451 -0.0948 -0.4527
  398MOL0     C53606  10.841   1.962   9.263  0.2924  0.8704  0.4984
  398MOL0     C53607  10.878   1.817   9.287 -1.0982 -0.3076  0.6251
  398MOL0     C53608  11.000   1.775   9.198  0.3017 -0.5783 -0.6530
  398MOL0     C53609  11.017   1.626   9.208 -0.2813 -0.1960  0.0182
  398MOL0     C53610  11.084   1.580   9.336 -0.0489  0.4856 -0.3374
  398MOL0     C53611  11.081   1.428   9.362  1.1913 -0.7440  0.6994
  398MOL0     N53612  11.143   1.372   9.480 -0.1833  0.2651 -0.4847
  398MOL0     C53613  11.132   1.247   9.523 -0.3864  0.2853  0.2029
  398MOL0     C53614  11.194   1.239   9.645 -0.2971 -0.5288 -0.6889
  398MOL0     C53615  11.186   1.121   9.740  0.1304  0.4097 -0.0501
  398MOL0     C53616  11.300   1.017   9.704  0.5888  0.4632  0.4365
  398MOL0     C53617  11.295   0.899   9.797 -1.6097  0.3661  0.6394
  398MOL0     C53618  11.415   0.808   9.772 -0.1939  0.0274  0.9768
  398MOL0     O53619  11.431   0.777   9.630 -0.7937 -0.2796  0.1384
  398MOL0     C53620  11.333   0.705   9.570 -0.5428  0.4315 -0.2928
  398MOL0     C53621  11.341   0.678   9.432 -0.7379 -0.1308  0.0505
  398MOL0     C53622  11.255   0.602   9.353  0.3060 -0.0601 -0.2546
  398MOL0     C53623  11.254   0.603   9.204  0.9436  0.5257 -0.2312
  398MOL0     C53624  11.153   0.529   9.419  0.4419 -0.0634  1.0379
  398MOL0     C53625  11.043   0.462   9.349  0.9170  0.5143 -0.7166
  398MOL0     O53626  11.043   0.322   9.366  0.1199  0.4344 -0.2134
  398MOL0     C53627  10.937   0.239   9.358  0.6341 -0.4252 -0.3558
  398MOL0     C53628  10.961   0.100   9.387 -0.6533  0.1135 -0.6007
  398MOL0     C53629  10.860   0.001   9.387  0.2039 -0.6366  0.2336
  398MOL0     C53630  10.732   0.044   9.371 -0.2583 -0.4363 -0.0349
  398MOL0     O53631  10.621  -0.038   9.374 -0.6420  0.4870 -0.3343
  398MOL0     C53632  10.598  -0.081   9.511 -0.1524 -0.0332  0.7749
  398MOL0     C53633  10.496  -0.191   9.520  0.6774  0.2449  0.0817
  398MOL0     C53634  10.358  -0.152   9.460  0.1694 -0.4934 -0.2113
  398MOL0     C53635  10.294  -0.050   9.549 -0.6586  0.4094 -0.5577
  398MOL0     C53636  10.135  -0.036   9.532  0.3385  0.6301  0.6189
  398MOL0     C53637  10.054  -0.108   9.641 -1.6594 -0.1122  0.2036
  398MOL0     C53638   9.906  -0.064   9.623 -0.1066 -0.9347  1.1397
  398MOL0     C53639   9.812  -0.181   9.682  0.0398 -0.1530  0.1494
  398MOL0    Cl53640   9.841  -0.183   9.859 -0.3916 -0.6060  0.3910
  398MOL0     C53641  10.703   0.185   9.351  0.0374  0.1562  0.2647
  398MOL0     C53642  10.809   0.279   9.342  0.7494  0.0126  0.4426
  398MOL0     O53643  10.959   0.526   9.290 -0.1392  0.8048  0.7050
  398MOL0     C53644  11.141   0.538   9.554 -0.4772  0.3586  1.2722
  398MOL0     C53645  11.230   0.622   9.627 -0.3049  1.1872  0.1883
  398MOL0     N53646  11.240   1.374   9.678  1.1140  0.1696  0.1986
  398MOL0     N53647  11.227   1.443   9.574 -0.0044  0.1104  0.1153
  398MOL0     C53648  10.398   2.120   9.194  0.3878  0.0519  0.4375
  398MOL0     C53649  10.322   2.225   9.142 -0.6023 -0.0685  0.9225
  398MOL0     C53650  10.134   2.527   8.915 -0.6788 -1.4416 -0.1087
  398MOL0     C53651  10.031   2.472   8.834  0.6386 -0.8681  0.1933
  398MOL0     C53652   9.949   2.553   8.746  0.6728 -0.1110 -0.2999
  398MOL0     C53653   9.977   2.685   8.735  0.8535  0.4969  0.2462
  398MOL0     O53654   9.902   2.757   8.647  0.4546  0.4458 -0.0237
  398MOL0     C53655   9.970   2.812   8.539 -0.2154  0.3875  0.8975
  398MOL0     C53656   9.943   2.968   8.524  0.1915 -0.8888  0.1394
  398MOL0     C53657   9.802   2.994   8.490  0.2256 -0.2321 -0.3228
  398MOL0     C53658   9.779   3.130   8.427  0.1965 -0.6272  0.1774
  398MOL0     C53659   9.667   3.125   8.332  1.3004 -0.7299  0.2297
  398MOL0     C53660   9.598   3.108   8.230  1.4187 -0.3366 -1.3191
  398MOL0     C53661  10.076   2.741   8.821  0.3064  0.1758 -0.9793
  398MOL0     C53662  10.157   2.667   8.915  0.1764  0.0457  0.0278
  398MOL0     H53663  10.375   2.173   8.804 -3.0428 -3.6603  0.4586
  398MOL0     H53664  10.549   2.008   8.914  1.5602  1.9752 -1.9591
  398MOL0     H53665  10.499   1.934   9.363 -1.7125  1.5049 -1.1674
  398MOL0     H53666  10.609   1.808   9.306  0.9299  0.2693  0.7549
  398MOL0     H53667  10.682   2.109   9.303 -0.2035 -0.5106 -1.3788
  398MOL0     H53668  10.728   1.990   9.434  0.6496  1.2004 -0.2521
  398MOL0     H53669  10.819   1.971   9.156  0.0087 -0.4505  0.4310
  398MOL0     H53670  10.921   2.028   9.298  0.2277 -0.0471  2.5468
  398MOL0     H53671  10.902   1.794   9.392 -0.6743  0.6839  0.7593
  398MOL0     H53672  10.797   1.748   9.262 -0.4540 -1.0597  0.5925
  398MOL0     H53673  10.966   1.794   9.096  1.0957 -1.0131 -1.0072
  398MOL0     H53674  11.092   1.826   9.229 -0.4453 -0.2982  1.2906
  398MOL0     H53675  10.918   1.585   9.184  0.0720  0.6632 -3.3764
  398MOL0     H53676  11.077   1.591   9.124 -1.0390 -1.8742  0.1330
  398MOL0     H53677  11.191   1.601   9.341  1.3191 -4.7869 -1.0491
  398MOL0     H53678  11.047   1.635   9.422 -0.3831  0.6475 -0.5809
  398MOL0     H53679  11.138   1.375   9.285  0.3349 -1.4003  0.5011
  398MOL0     H53680  10.975   1.402   9.359  0.0654  3.1888 -2.4184
  398MOL0     H53681  11.082   1.170   9.466 -0.8000  1.9067 -1.7604
  398MOL0     H53682  11.192   1.150   9.845 -4.5005 -1.4348  1.0089
  398MOL0     H53683  11.096   1.060   9.726  1.2184 -0.9116 -1.7556
  398MOL0     H53684  11.388   1.079   9.723 -1.5519  4.7586 -2.1076
  398MOL0     H53685  11.301   0.996   9.597 -0.8262 -1.0876  0.6815
  398MOL0     H53686  11.201   0.842   9.798 -0.0168 -2.4104  1.2478
  398MOL0     H53687  11.307   0.936   9.899  3.4642 -1.3775  0.9314
  398MOL0     H53688  11.402   0.723   9.841  0.3403  0.8223  2.0929
  398MOL0     H53689  11.508   0.853   9.807  0.7854 -0.0019 -1.3816
  398MOL0     H53690  11.412   0.744   9.382  2.1074 -1.6460  1.7946
  398MOL0     H53691  11.199   0.689   9.165  0.6929  0.6214  0.3301
  398MOL0     H53692  11.357   0.611   9.168  1.9822  0.1131  2.4258
  398MOL0     H53693  11.221   0.507   9.162 -0.8262  1.5106 -1.2182
  398MOL0     H53694  11.056   0.051   9.406 -1.4856 -2.5018 -2.4818
  398MOL0     H53695  10.892  -0.103   9.395  0.2317 -0.6392  0.0914
  398MOL0     H53696  10.688  -0.123   9.557  0.1167 -2.0982 -1.4269
  398MOL0     H53697  10.569   0.003   9.574 -3.1972 -1.0226  0.8351
  398MOL0     H53698  10.534  -0.284   9.478 -1.9013  0.9189 -4.5306
  398MOL0     H53699  10.489  -0.197   9.629  0.1879  1.3751  0.1336
  398MOL0     H53700  10.303  -0.247   9.466  3.7550 -2.7408  1.1381
  398MOL0     H53701  10.364  -0.115   9.358  1.2931  2.0707  0.7073
  398MOL0     H53702  10.325  -0.075   9.651  0.6348  0.6345 -0.8721
  398MOL0     H53703  10.341   0.049   9.541 -1.5950  1.1562  2.0922
  398MOL0     H53704  10.101  -0.056   9.430  0.0341 -3.5821  1.3782
  398MOL0     H53705  10.122   0.071   9.551 -0.5582  0.7215 -0.4664
  398MOL0     H53706  10.059  -0.216   9.625 -4.0412 -0.3641  0.6691
  398MOL0     H53707  10.096  -0.080   9.738  1.0551 -3.3161  0.1103
  398MOL0     H53708   9.885  -0.073   9.516  2.0390  1.8364  0.3520
  398MOL0     H53709   9.891   0.036   9.665  0.2808 -0.3824  0.0242
  398MOL0     H53710   9.847  -0.283   9.667 -2.1224 -0.9433  0.1542
  398MOL0     H53711   9.708  -0.158   9.655 -1.6796  0.4564  5.8664
  398MOL0     H53712  10.599   0.208   9.331 -0.1501  0.1040  1.1402
  398MOL0     H53713  10.772   0.382   9.339  2.1710  0.5097 -1.2332
  398MOL0     H53714  11.053   0.488   9.593 -1.6471  0.8794 -0.6244
  398MOL0     H53715  11.209   0.636   9.732 -0.0536  2.1786  0.1209
  398MOL0     H53716  10.389   2.106   9.302  3.3968  0.1592  0.8146
  398MOL0     H53717  10.263   2.287   9.208  2.4154  0.4079  3.4245
  398MOL0     H53718  10.006   2.367   8.832  0.1690 -0.8047  1.6111
  398MOL0     H53719   9.880   2.517   8.671  1.5738  0.1589 -1.2767
  398MOL0     H53720  10.076   2.791   8.556 -0.3579 -2.6041 -1.1177
  398MOL0     H53721   9.942   2.764   8.445  1.5825 -0.7193  0.8986
  398MOL0     H53722  10.008   3.013   8.448 -1.4496  2.9664  0.7723
  398MOL0     H53723   9.980   3.020   8.613 -2.6767 -1.2470  1.6659
  398MOL0     H53724   9.752   2.976   8.586  0.4639 -0.6541 -0.2784
  398MOL0     H53725   9.773   2.917   8.418  0.4027 -0.1283 -0.5050
  398MOL0     H53726   9.869   3.141   8.365  0.9681 -1.0501  1.1984
  398MOL0     H53727   9.779   3.214   8.497 -2.8699 -2.1457  2.1996
  398MOL0     H53728   9.549   3.071   8.142  0.5838  3.7052 -2.7883
  398MOL0     H53729  10.087   2.848   8.812 -0.0968  0.1892 -1.3601
  398MOL0     H53730  10.244   2.717   8.955  2.6435  0.5163 -5.1289
  399MOL0     O53731   5.329   4.429  10.062 -0.0968 -0.3346 -0.6510
  399MOL0     C53732   5.448   4.415  10.048 -0.0511  0.0616  0.2996
  399MOL0     O53733   5.520   4.468   9.951  0.0042 -0.5762 -0.3934
  399MOL0     C53734   5.478   4.577   9.875 -0.0501  0.2887 -0.5638
  399MOL0     C53735   5.558   4.700   9.865  0.9739  0.3332 -0.3196
  399MOL0     C53736   5.514   4.813   9.798  0.2177  0.3663  0.3469
  399MOL0     C53737   5.388   4.818   9.760  1.8347 -0.0887  0.4625
  399MOL0     O53738   5.341   4.933   9.701  0.7662 -0.2805 -0.2420
  399MOL0     C53739   5.408   4.986   9.586 -0.1640 -0.3425 -0.1634
  399MOL0     C53740   5.313   5.094   9.515 -0.9905 -0.1272 -0.2422
  399MOL0     C53741   5.188   5.030   9.455 -0.2356 -0.3394  0.4605
  399MOL0     C53742   5.089   5.134   9.430 -0.1772  0.6735  0.1774
  399MOL0     C53743   4.961   5.078   9.369 -0.3849  0.0239 -0.3130
  399MOL0     C53744   4.890   5.191   9.297  0.8733 -0.5749  0.1114
  399MOL0     C53745   4.758   5.151   9.226  0.6609  0.2326 -0.9691
  399MOL0     C53746   4.714   5.261   9.121 -0.0250 -0.8475  0.0210
  399MOL0     N53747   4.665   5.385   9.182 -0.1358 -0.0257  0.6111
  399MOL0     C53748   4.746   5.467   9.259  0.2061  0.9874 -0.4399
  399MOL0     C53749   4.669   5.560   9.305 -0.5111 -0.5675 -1.1663
  399MOL0     C53750   4.715   5.677   9.396  0.4895 -0.3422  0.3540
  399MOL0     C53751   4.725   5.614   9.542 -0.4230 -0.4100 -0.3021
  399MOL0     C53752   4.705   5.722   9.640  0.2327 -0.6798 -0.1923
  399MOL0     C53753   4.727   5.658   9.773 -0.1023 -0.0778 -0.4316
  399MOL0     O53754   4.723   5.756   9.881 -0.5144 -0.1299 -0.4704
  399MOL0     C53755   4.769   5.722  10.010  0.2768 -0.4652 -0.5555
  399MOL0     C53756   4.820   5.834  10.068  0.2663 -0.1147  0.2832
  399MOL0     C53757   4.852   5.828  10.203 -0.5590 -0.2606 -0.4439
  399MOL0     C53758   4.908   5.943  10.268  0.2838  1.0950 -0.2556
  399MOL0     C53759   4.850   5.700  10.269  0.4864 -1.2333 -0.7008
  399MOL0     C53760   4.893   5.672  10.417 -0.3486 -0.8755  1.3198
  399MOL0     O53761   4.831   5.559  10.473 -0.4592  0.3005 -0.8917
  399MOL0     C53762   4.894   5.494  10.576 -0.0958  0.1044 -1.4403
  399MOL0     C53763   4.959   5.368  10.566 -0.4790  0.3634  0.1972
  399MOL0     C53764   5.000   5.296  10.678 -0.4815  0.3971 -0.7643
  399MOL0     C53765   4.972   5.351  10.805 -0.0994  0.2828 -0.1793
  399MOL0     O53766   5.008   5.288  10.922 -0.6716 -0.3290 -0.5903
  399MOL0     C53767   5.037   5.367  11.044  0.1112 -0.1558  0.0177
  399MOL0     C53768   5.133   5.293  11.152 -0.1199 -0.0392  0.0586
  399MOL0     C53769   5.106   5.146  11.174 -0.1461  0.2487 -0.1708
  399MOL0     C53770   5.160   5.097  11.313 -0.6968 -0.0577  0.9404
  399MOL0     C53771   5.310   5.127  11.341  0.7049 -0.3415 -1.5200
  399MOL0     C53772   5.340   5.093  11.486 -0.0562  0.4514 -0.2215
  399MOL0     C53773   5.489   5.111  11.517  0.3324 -0.3932 -0.5115
  399MOL0     C53774   5.519   5.139  11.663  1.0171  0.1809 -0.4678
  399MOL0    Cl53775   5.427   5.036  11.779  0.3585 -0.5388  0.3588
  399MOL0     C53776   4.899   5.472  10.811 -0.6007 -0.2757  0.7534
  399MOL0     C53777   4.871   5.543  10.698  0.2209  0.3953 -0.3624
  399MOL0     O53778   4.970   5.742  10.477 -0.0343 -0.3714  0.5363
  399MOL0     C53779   4.792   5.592  10.205 -0.4598  0.4751  0.3389
  399MOL0     C53780   4.738   5.603  10.073  0.0077 -0.8627 -0.6814
  399MOL0     N53781   4.542   5.544   9.259 -0.5408  0.0155  0.3926
  399MOL0     N53782   4.548   5.452   9.162 -0.5345  1.2602  0.1387
  399MOL0     C53783   5.315   4.699   9.748 -0.4128 -0.5876 -0.6153
  399MOL0     C53784   5.357   4.582   9.802 -1.1421 -0.2065  0.3219
  399MOL0     C53785   5.516   4.311  10.111 -0.2379  0.2596 -1.3458
  399MOL0     C53786   5.446   4.198  10.144  0.4944  0.5611  0.1245
  399MOL0     C53787   5.502   4.082  10.196  0.0140 -0.2801 -0.4797
  399MOL0     C53788   5.640   4.079  10.234  0.0314 -0.5276 -0.2391
  399MOL0     O53789   5.694   3.966  10.294 -0.3715 -0.0606 -0.2028
  399MOL0     C53790   5.823   3.923  10.246  0.0504 -0.0370  0.3659
  399MOL0     C53791   5.875   3.807  10.325  0.1586  0.3161 -0.0160
  399MOL0     C53792   5.984   3.726  10.251 -0.1379 -0.0616  0.2673
  399MOL0     C53793   6.129   3.748  10.288 -0.1310 -1.0131 -0.4566
  399MOL0     C53794   6.160   3.891  10.318 -0.1738  1.3108 -0.1901
  399MOL0     C53795   6.197   3.995  10.352  0.4264  0.2616  0.3708
  399MOL0     C53796   5.724   4.192  10.206  0.5516 -0.8112  0.1485
  399MOL0     C53797   5.655   4.306  10.155 -0.1587  0.0059 -0.2204
  399MOL0     H53798   5.648   4.693   9.926  0.3712  2.6038  0.9363
  399MOL0     H53799   5.585   4.895   9.796  1.2755 -0.5099 -1.8305
  399MOL0     H53800   5.499   5.033   9.624 -1.3386 -0.8617  3.6873
  399MOL0     H53801   5.446   4.906   9.521  3.5795  2.7216 -2.1731
  399MOL0     H53802   5.283   5.171   9.586 -4.5960 -2.0262  0.5387
  399MOL0     H53803   5.385   5.134   9.443  0.2950 -0.7972  0.6381
  399MOL0     H53804   5.215   4.989   9.358  0.1480 -0.8906  0.7976
  399MOL0     H53805   5.143   4.947   9.510 -0.2363 -1.1373 -0.7179
  399MOL0     H53806   5.067   5.180   9.527 -3.4829 -0.5526  0.1309
  399MOL0     H53807   5.125   5.210   9.360  1.9073  1.3261  1.8579
  399MOL0     H53808   4.978   5.000   9.293  0.5063 -0.0641 -0.0351
  399MOL0     H53809   4.898   5.033   9.447  0.2729  1.0193  0.8187
  399MOL0     H53810   4.867   5.259   9.379  3.3035 -1.2277  1.4097
  399MOL0     H53811   4.962   5.235   9.227  0.9558  2.0057  1.7100
  399MOL0     H53812   4.747   5.052   9.180  2.1088 -0.0545 -0.7482
  399MOL0     H53813   4.682   5.153   9.304  0.9915  0.9348 -0.6514
  399MOL0     H53814   4.640   5.226   9.048 -0.2564  1.2399 -0.8208
  399MOL0     H53815   4.794   5.290   9.052  0.5706 -3.7798 -0.6580
  399MOL0     H53816   4.851   5.453   9.283 -0.2178 -3.1206 -0.2522
  399MOL0     H53817   4.803   5.723   9.350 -1.7355  1.9296 -1.9266
  399MOL0     H53818   4.637   5.752   9.382 -0.8156 -2.1092 -2.6568
  399MOL0     H53819   4.824   5.567   9.545 -0.5613 -0.8698 -1.8444
  399MOL0     H53820   4.647   5.539   9.556 -1.2287  0.8260  2.5527
  399MOL0     H53821   4.606   5.768   9.635  1.3627  1.9712  0.1902
  399MOL0     H53822   4.779   5.799   9.616  1.6821 -0.9205  2.9815
  399MOL0     H53823   4.827   5.613   9.781 -0.7600 -1.9131 -1.8010
  399MOL0     H53824   4.654   5.586   9.812  1.4848 -0.4046  2.1904
  399MOL0     H53825   4.827   5.924  10.009 -1.5158 -1.5552 -2.2862
  399MOL0     H53826   5.017   5.937  10.266  0.2843 -2.4638  1.6499
  399MOL0     H53827   4.876   6.028  10.207  1.9859  0.6505 -1.8623
  399MOL0     H53828   4.855   5.963  10.362  1.8562  0.3321  0.8412
  399MOL0     H53829   4.974   5.329  10.466  1.2345  1.0814  0.1367
  399MOL0     H53830   5.047   5.200  10.663  4.5666  2.2445  1.2110
  399MOL0     H53831   5.082   5.464  11.020 -3.9131  2.5894  2.3330
  399MOL0     H53832   4.940   5.375  11.094  0.5597 -3.2258  1.6560
  399MOL0     H53833   5.235   5.295  11.112  1.2180 -0.9442  3.1281
  399MOL0     H53834   5.136   5.350  11.246 -0.7451  4.0669 -2.1425
  399MOL0     H53835   5.158   5.094  11.094 -0.8163  1.6719 -1.5879
  399MOL0     H53836   4.997   5.131  11.180  0.0073 -0.4016  1.8120
  399MOL0     H53837   5.105   5.131  11.401 -0.2335  2.3399  0.3780
  399MOL0     H53838   5.137   4.990  11.318  0.2621 -0.4469 -1.4358
  399MOL0     H53839   5.337   5.227  11.308 -2.6911  0.9166 -0.8579
  399MOL0     H53840   5.376   5.061  11.283  2.0169  0.5611 -1.0863
  399MOL0     H53841   5.276   5.141  11.561 -2.1751 -0.6586 -1.2439
  399MOL0     H53842   5.313   4.988  11.499  1.0424  0.3526  1.7466
  399MOL0     H53843   5.514   5.209  11.474 -1.2285 -0.0398 -0.6538
  399MOL0     H53844   5.543   5.027  11.472 -1.5535 -1.2690 -1.2075
  399MOL0     H53845   5.487   5.239  11.692  0.2041  0.0226 -0.7937
  399MOL0     H53846   5.627   5.125  11.658  1.0512  0.3670 -0.2471
  399MOL0     H53847   4.880   5.518  10.907 -1.6050 -2.1616  1.5197
  399MOL0     H53848   4.806   5.628  10.714  1.5890  1.0767  1.9752
  399MOL0     H53849   4.790   5.497  10.257 -1.6786  0.1142 -0.3159
  399MOL0     H53850   4.682   5.526  10.021 -1.9500  0.5629 -0.8156
  399MOL0     H53851   5.217   4.687   9.704 -1.2306 -5.5710  1.9047
  399MOL0     H53852   5.299   4.491   9.816 -0.2763 -0.4399  3.2220
  399MOL0     H53853   5.339   4.197  10.124  0.6127  0.8859 -0.5416
  399MOL0     H53854   5.443   3.994  10.221  1.7351 -0.7680  2.4421
  399MOL0     H53855   5.790   3.901  10.144 -1.0199 -0.5110  0.7918
  399MOL0     H53856   5.899   4.001  10.247 -0.6928  0.7070  1.1486
  399MOL0     H53857   5.790   3.739  10.336 -1.3499  2.1239 -0.0537
  399MOL0     H53858   5.902   3.816  10.431 -1.0385 -2.4316  0.6150
  399MOL0     H53859   5.981   3.766  10.149 -3.3663 -1.2091 -0.2192
  399MOL0     H53860   5.965   3.619  10.242  2.5728 -0.5637 -0.3533
  399MOL0     H53861   6.192   3.731  10.201  0.0171  0.2029 -0.6090
  399MOL0     H53862   6.157   3.688  10.375  0.3029  0.3949  0.4125
  399MOL0     H53863   6.219   4.098  10.372 -0.7169  1.9866 -5.4487
  399MOL0     H53864   5.830   4.203  10.226  0.5530  5.1975 -1.3628
  399MOL0     H53865   5.712   4.390  10.118 -1.1990  0.9343  0.2214
  400MOL0     O53866   7.335   7.344   2.406 -0.6355 -0.4445  0.5343
  400MOL0     C53867   7.400   7.421   2.327  1.3120 -0.0786  0.3574
  400MOL0     O53868   7.360   7.544   2.287 -0.2421 -0.2713 -0.1793
  400MOL0     C53869   7.256   7.600   2.357 -0.8002  0.6432 -0.9054
  400MOL0     C53870   7.296   7.694   2.449  0.9960  0.4311 -0.8730
  400MOL0     C53871   7.186   7.753   2.525 -0.9101 -0.0563 -0.2446
  400MOL0     C53872   7.053   7.717   2.510  1.0330  0.6975 -0.2794
  400MOL0     O53873   6.951   7.770   2.582 -0.0657  0.7369  0.5800
  400MOL0     C53874   6.980   7.842   2.695  0.8237  0.2506  0.2227
  400MOL0     C53875   6.847   7.910   2.738 -0.6448  0.9608  0.2306
  400MOL0     C53876   6.856   8.014   2.850  0.1525  0.3994  0.5198
  400MOL0     C53877   6.714   8.066   2.900 -0.0467  0.6578  0.6789
  400MOL0     C53878   6.719   8.139   3.028 -0.5952 -0.3440 -0.8632
  400MOL0     C53879   6.576   8.185   3.063  0.0587  0.8854 -0.5634
  400MOL0     C53880   6.562   8.270   3.192 -0.2086  0.5232  0.7900
  400MOL0     C53881   6.437   8.354   3.197 -0.8791 -0.3470  0.0255
  400MOL0     N53882   6.445   8.439   3.314 -0.3153 -0.4532 -0.5188
  400MOL0     C53883   6.492   8.572   3.311  0.2260  0.6894 -0.4843
  400MOL0     C53884   6.469   8.628   3.435 -0.9338  0.1806  0.8500
  400MOL0     C53885   6.505   8.763   3.491 -0.0843  0.1810  0.3084
  400MOL0     C53886   6.601   8.849   3.402 -0.8215  0.1229 -0.3262
  400MOL0     C53887   6.606   8.984   3.470  0.1770 -1.1392 -0.0734
  400MOL0     C53888   6.689   9.097   3.410  0.8135  0.8017  0.9248
  400MOL0     O53889   6.643   9.235   3.437  0.0183  0.5074  0.1144
  400MOL0     C53890   6.662   9.336   3.340  0.7477 -0.0196 -0.1547
  400MOL0     C53891   6.571   9.438   3.325 -0.3212 -0.8625  0.4230
  400MOL0     C53892   6.593   9.543   3.237  0.9933 -0.2694  0.4054
  400MOL0     C53893   6.495   9.653   3.231 -0.5295 -0.6326 -0.2461
  400MOL0     C53894   6.696   9.534   3.143  0.0536  0.4014  0.0017
  400MOL0     C53895   6.717   9.638   3.037 -0.4929 -0.4668 -0.3931
  400MOL0     O53896   6.824   9.619   2.951  0.1432  0.8391  0.5435
  400MOL0     C53897   6.850   9.707   2.844  0.6920 -1.3857 -0.2812
  400MOL0     C53898   6.780   9.702   2.727 -0.5758 -0.1783 -0.1494
  400MOL0     C53899   6.835   9.780   2.616  0.3015  0.2611 -0.8454
  400MOL0     C53900   6.959   9.847   2.627 -0.9132  1.0211  0.6505
  400MOL0     O53901   7.003   9.889   2.508  0.2305 -0.2669 -0.5452
  400MOL0     C53902   7.148   9.913   2.490 -0.6491 -0.1912 -0.0906
  400MOL0     C53903   7.196   9.892   2.343 -0.2031  0.1071 -0.5393
  400MOL0     C53904   7.182  10.008   2.244 -0.0708  0.9922  0.2962
  400MOL0     C53905   7.250  10.132   2.301 -1.2540 -0.0454  0.4338
  400MOL0     C53906   7.268  10.236   2.185 -0.5252 -0.3418 -0.4525
  400MOL0     C53907   7.145  10.296   2.113 -1.5225 -0.4126 -0.5029
  400MOL0     C53908   7.198  10.394   2.018  0.6304  0.2308  0.3848
  400MOL0     C53909   7.080  10.454   1.949  0.1652 -0.3918 -0.1573
  400MOL0    Cl53910   7.035  10.386   1.787  0.2996  0.4455 -0.0699
  400MOL0     C53911   7.021   9.855   2.752  0.2175 -0.1985  0.1036
  400MOL0     C53912   6.958   9.789   2.865 -0.5588 -0.2898 -0.1559
  400MOL0     O53913   6.653   9.742   3.038 -0.4072  0.0601  0.1909
  400MOL0     C53914   6.787   9.430   3.154  0.5064  0.6399  0.2542
  400MOL0     C53915   6.775   9.334   3.253 -0.3024  0.2617 -0.8489
  400MOL0     N53916   6.409   8.532   3.503 -0.1780 -0.1612  0.2556
  400MOL0     N53917   6.378   8.426   3.430 -0.3176 -0.8146  0.8198
  400MOL0     C53918   7.023   7.620   2.414  0.4886 -0.1579  1.2517
  400MOL0     C53919   7.123   7.563   2.339  0.1371 -0.2961 -0.6838
  400MOL0     C53920   7.531   7.378   2.272  0.0904  0.5574 -0.1181
  400MOL0     C53921   7.576   7.255   2.304  0.7396 -0.0583  0.1540
  400MOL0     C53922   7.697   7.209   2.274 -0.2428 -0.5942 -0.4665
  400MOL0     C53923   7.785   7.291   2.197 -0.1645  0.1986  1.0070
  400MOL0     O53924   7.919   7.274   2.168 -0.0273 -0.4556 -1.1636
  400MOL0     C53925   7.991   7.171   2.225  0.0200 -0.0356 -0.3711
  400MOL0     C53926   8.124   7.198   2.305  0.0233  0.0171  0.1671
  400MOL0     C53927   8.116   7.301   2.417 -0.0069  0.2274  0.7335
  400MOL0     C53928   8.133   7.451   2.369  0.5277 -0.1076  0.5099
  400MOL0     C53929   8.096   7.538   2.482 -0.6601 -1.0308 -0.6002
  400MOL0     C53930   8.063   7.625   2.565  1.0482 -0.5828 -0.4328
  400MOL0     C53931   7.732   7.412   2.162 -0.1498 -0.6208 -0.2261
  400MOL0     C53932   7.609   7.465   2.201  0.6257  0.2343  0.3229
  400MOL0     H53933   7.398   7.721   2.475  0.6699 -0.0330  1.0688
  400MOL0     H53934   7.215   7.830   2.596 -0.7466 -0.3924  0.0572
  400MOL0     H53935   7.021   7.777   2.774  2.7061  1.4664  0.3103
  400MOL0     H53936   7.040   7.930   2.669  0.6607  0.8878  1.8536
  400MOL0     H53937   6.797   7.942   2.646 -1.1528 -3.1056 -1.1282
  400MOL0     H53938   6.778   7.828   2.759 -3.4305  2.2187 -3.0404
  400MOL0     H53939   6.895   7.956   2.934  2.5756  0.4846 -0.4724
  400MOL0     H53940   6.919   8.098   2.819  2.7643 -1.7571 -0.4686
  400MOL0     H53941   6.684   8.128   2.816 -0.2267  1.1359  1.0925
  400MOL0     H53942   6.644   7.983   2.913  0.0895  0.5427  0.6834
  400MOL0     H53943   6.758   8.070   3.104 -1.3787 -0.3143 -0.4273
  400MOL0     H53944   6.783   8.224   3.004 -0.0537 -0.3311  0.5355
  400MOL0     H53945   6.528   8.237   2.980 -2.7279  0.8709  0.9211
  400MOL0     H53946   6.508   8.101   3.083  1.1107 -0.4543 -2.3675
  400MOL0     H53947   6.554   8.198   3.273 -0.6723 -1.4387 -0.9329
  400MOL0     H53948   6.656   8.328   3.192  0.4157 -0.4675  1.4295
  400MOL0     H53949   6.341   8.301   3.201 -3.0175  3.3153  2.1521
  400MOL0     H53950   6.431   8.424   3.113 -3.6208  1.0488  1.2487
  400MOL0     H53951   6.541   8.613   3.222 -3.6162 -0.0507 -3.1690
  400MOL0     H53952   6.414   8.819   3.510  1.3284  3.6909 -2.2102
  400MOL0     H53953   6.543   8.746   3.592  0.4856 -0.8053 -0.0605
  400MOL0     H53954   6.577   8.855   3.296 -4.0899  0.4165  0.3108
  400MOL0     H53955   6.699   8.800   3.408 -0.3725  0.6765 -2.4159
  400MOL0     H53956   6.632   8.984   3.576 -2.7206  1.0172  0.7758
  400MOL0     H53957   6.503   9.020   3.461 -0.5478 -3.2839 -0.9023
  400MOL0     H53958   6.677   9.083   3.302 -3.8109 -3.0971  1.6258
  400MOL0     H53959   6.791   9.091   3.448  0.5534  2.5950  2.0342
  400MOL0     H53960   6.480   9.443   3.385  1.6927 -0.7390  3.6841
  400MOL0     H53961   6.405   9.638   3.291 -1.7039  0.2243 -1.7351
  400MOL0     H53962   6.537   9.753   3.250 -0.3013 -0.6730 -0.5284
  400MOL0     H53963   6.454   9.632   3.132 -0.1246 -2.5486 -0.0447
  400MOL0     H53964   6.690   9.643   2.711  0.0419 -0.9921 -0.7261
  400MOL0     H53965   6.786   9.776   2.519  0.0699 -0.9195 -0.6989
  400MOL0     H53966   7.172  10.017   2.513  0.6264 -0.4659 -0.1120
  400MOL0     H53967   7.210   9.854   2.558 -0.0877  1.1186  0.5741
  400MOL0     H53968   7.297   9.851   2.343 -0.6393 -1.1052 -2.6719
  400MOL0     H53969   7.146   9.807   2.297 -0.5056 -1.3519  2.2420
  400MOL0     H53970   7.076  10.030   2.228  0.2104  1.9903 -0.2760
  400MOL0     H53971   7.223   9.968   2.151 -2.1053 -0.3524 -0.0803
  400MOL0     H53972   7.190  10.179   2.381 -0.6445  2.7942 -0.6669
  400MOL0     H53973   7.348  10.107   2.343 -1.1068  2.0382  1.4639
  400MOL0     H53974   7.324  10.181   2.110 -0.7378  0.7717 -1.4584
  400MOL0     H53975   7.318  10.319   2.237  1.2856 -2.1621  0.8787
  400MOL0     H53976   7.093  10.217   2.058  0.4795 -1.4506 -0.9942
  400MOL0     H53977   7.081  10.328   2.195 -0.5999  0.8222 -0.2411
  400MOL0     H53978   7.262  10.347   1.943 -0.4947 -1.1206  0.2288
  400MOL0     H53979   7.242  10.477   2.075  1.2729 -0.5602  1.0685
  400MOL0     H53980   7.103  10.560   1.932 -0.3624 -0.6330 -2.8356
  400MOL0     H53981   6.994  10.441   2.015 -0.2909 -0.9774 -0.8543
  400MOL0     H53982   7.121   9.894   2.764  0.2219 -0.9139  3.3069
  400MOL0     H53983   7.019   9.781   2.954 -2.5968  1.5530  1.5167
  400MOL0     H53984   6.863   9.413   3.078  0.9055  0.4281  0.6959
  400MOL0     H53985   6.855   9.260   3.257 -1.0360 -0.6222 -1.8579
  400MOL0     H53986   6.928   7.567   2.409  0.8463 -0.7794 -3.5616
  400MOL0     H53987   7.096   7.485   2.268  1.8575  1.1955 -3.1253
  400MOL0     H53988   7.503   7.191   2.354  1.9050 -1.0624  0.6164
  400MOL0     H53989   7.724   7.111   2.312  3.3201 -0.7014 -2.7200
  400MOL0     H53990   7.930   7.117   2.298  1.3980  1.5137  2.0548
  400MOL0     H53991   8.003   7.098   2.145 -0.6201 -2.8552  1.9532
  400MOL0     H53992   8.196   7.228   2.228 -0.6139 -0.7328 -0.7406
  400MOL0     H53993   8.152   7.101   2.348 -3.3678 -0.6608  1.1805
  400MOL0     H53994   8.206   7.293   2.478 -1.4828 -1.1933  2.8956
  400MOL0     H53995   8.023   7.282   2.472 -0.5860  0.7496 -0.0392
  400MOL0     H53996   8.058   7.472   2.293 -2.7741  0.8842  3.7381
  400MOL0     H53997   8.232   7.480   2.333  0.3603 -0.2251 -0.0499
  400MOL0     H53998   8.040   7.681   2.653 -1.4098  0.6829 -1.7508
  400MOL0     H53999   7.797   7.467   2.095  2.1565 -1.5960  1.0950
  400MOL0     H54000   7.580   7.567   2.176 -0.2841  0.0195  0.4981
  401MOL0     O54001  10.862   5.039   2.164  0.1438  0.0736  0.3837
  401MOL0     C54002  10.940   4.946   2.150 -0.0207 -0.3687 -0.0113
  401MOL0     O54003  10.918   4.823   2.196  0.2387  0.2956  0.5078
  401MOL0     C54004  10.808   4.789   2.250  0.4655  1.3093  0.0086
  401MOL0     C54005  10.771   4.842   2.383  0.7715 -0.5450  0.2457
  401MOL0     C54006  10.645   4.817   2.434 -0.3333  0.4882 -0.7791
  401MOL0     C54007  10.549   4.750   2.356  0.6712 -1.0831  0.0519
  401MOL0     O54008  10.426   4.741   2.413 -0.1782  0.6063  0.4173
  401MOL0     C54009  10.313   4.685   2.333 -0.2521  0.4155 -0.1670
  401MOL0     C54010  10.177   4.704   2.411  0.6202 -0.2021  0.1471
  401MOL0     C54011  10.176   4.623   2.536 -0.5963 -0.0871 -0.8027
  401MOL0     C54012  10.052   4.637   2.622  0.7521 -0.4504  0.0735
  401MOL0     C54013  10.049   4.747   2.727 -0.2169 -0.5671  0.6781
  401MOL0     C54014  10.136   4.720   2.852  0.7085 -1.0080  0.0468
  401MOL0     C54015  10.130   4.830   2.962  0.2512 -0.7385 -0.5106
  401MOL0     C54016  10.033   4.794   3.077  0.0450  0.2555  0.6160
  401MOL0     N54017  10.047   4.880   3.199 -0.5103 -0.1376  0.0738
  401MOL0     C54018   9.996   4.867   3.321  0.8044  0.5279  0.7727
  401MOL0     C54019  10.000   4.993   3.380  0.3347  1.1123 -0.1172
  401MOL0     C54020   9.983   4.993   3.530 -0.3841 -0.2260  0.1161
  401MOL0     C54021   9.942   5.130   3.574 -0.4419  0.8853  0.0710
  401MOL0     C54022   9.958   5.139   3.720  1.0679  0.4354 -0.7046
  401MOL0     C54023   9.937   5.286   3.770 -1.0893 -0.2515 -0.2221
  401MOL0     O54024   9.819   5.336   3.712 -0.2407  0.2058 -0.3170
  401MOL0     C54025   9.796   5.467   3.736 -0.4869 -0.4066 -0.4046
  401MOL0     C54026   9.847   5.549   3.838 -0.0366 -0.5546 -0.6688
  401MOL0     C54027   9.821   5.685   3.853  0.2178  0.2172  0.1572
  401MOL0     C54028   9.877   5.749   3.983  0.2493  0.1454  0.3826
  401MOL0     C54029   9.749   5.753   3.758 -0.7069  0.6971  0.6746
  401MOL0     C54030   9.732   5.903   3.754  0.2501 -0.3458 -0.4127
  401MOL0     O54031   9.817   5.979   3.825  0.6854  0.4374 -1.1297
  401MOL0     C54032   9.828   6.113   3.803  0.3127 -0.5755  0.1806
  401MOL0     C54033   9.912   6.172   3.709 -0.5288 -0.2261 -0.6753
  401MOL0     C54034   9.930   6.315   3.705  0.5245  0.7962 -0.5917
  401MOL0     C54035   9.846   6.391   3.789  0.1160 -0.9247  0.1649
  401MOL0     O54036   9.844   6.532   3.786  0.1772  0.0006  0.0603
  401MOL0     C54037   9.892   6.608   3.903  0.3787  0.0282  0.0200
  401MOL0     C54038  10.044   6.599   3.916 -0.9966 -0.2674  0.2507
  401MOL0     C54039  10.087   6.660   4.055 -0.1200 -0.1342 -0.9605
  401MOL0     C54040  10.048   6.581   4.174  0.6530  0.2454  0.5004
  401MOL0     C54041  10.107   6.637   4.301  0.3722  0.0036  0.2327
  401MOL0     C54042  10.064   6.795   4.322  0.1736  0.3744 -0.4956
  401MOL0     C54043  10.091   6.858   4.471  0.1039 -0.5372 -0.4670
  401MOL0     C54044  10.026   6.999   4.490  0.6566  0.1724  1.8422
  401MOL0    Cl54045   9.893   6.984   4.613  0.2697  0.4688 -0.1414
  401MOL0     C54046   9.771   6.339   3.894 -0.5364  0.9974  0.6868
  401MOL0     C54047   9.756   6.197   3.894 -1.1845 -0.5534  0.7506
  401MOL0     O54048   9.643   5.942   3.674 -0.3536 -0.2697  0.2413
  401MOL0     C54049   9.716   5.669   3.645 -0.9965 -0.3502 -0.8517
  401MOL0     C54050   9.726   5.537   3.643 -0.2316  0.4272  0.6007
  401MOL0     N54051  10.048   5.083   3.287 -0.1648 -0.6360 -0.0587
  401MOL0     N54052  10.095   5.010   3.186  0.5177 -0.1603 -0.3128
  401MOL0     C54053  10.582   4.701   2.232 -0.2220  0.7193 -0.4319
  401MOL0     C54054  10.711   4.716   2.190  0.4855 -0.0670 -0.1149
  401MOL0     C54055  11.070   4.966   2.078  0.1663  0.5929  0.0976
  401MOL0     C54056  11.113   5.100   2.063 -0.2162 -0.3514 -1.0375
  401MOL0     C54057  11.226   5.132   1.985  0.8234  0.2723  0.1829
  401MOL0     C54058  11.308   5.030   1.928  0.0587  0.2116 -0.2303
  401MOL0     O54059  11.426   5.058   1.865 -0.2410  0.2457  0.3305
  401MOL0     C54060  11.461   5.191   1.826 -0.6593 -0.0951  0.3702
  401MOL0     C54061  11.560   5.202   1.715  1.5298  1.0298 -0.1663
  401MOL0     C54062  11.521   5.113   1.594 -0.2829 -0.3299  0.4142
  401MOL0     C54063  11.436   5.198   1.503 -0.6347 -0.0089  0.1791
  401MOL0     C54064  11.299   5.195   1.543  0.2646 -0.4211 -0.3645
  401MOL0     C54065  11.185   5.171   1.574  0.2375 -0.1226  0.3200
  401MOL0     C54066  11.259   4.897   1.943 -0.1024  1.1053  0.1547
  401MOL0     C54067  11.140   4.868   2.019 -0.0897  0.3478  0.3608
  401MOL0     H54068  10.844   4.903   2.436  0.3488 -2.2232  2.9251
  401MOL0     H54069  10.626   4.862   2.531 -0.4643  2.3735 -1.6556
  401MOL0     H54070  10.324   4.748   2.245  2.7768  0.2248 -0.0128
  401MOL0     H54071  10.333   4.583   2.300  0.2528  0.7949 -1.0545
  401MOL0     H54072  10.163   4.809   2.439  1.1090 -0.1591  0.2382
  401MOL0     H54073  10.092   4.675   2.349  1.5196 -0.1824 -1.1228
  401MOL0     H54074  10.196   4.516   2.520 -2.1352 -0.8402  1.6525
  401MOL0     H54075  10.258   4.662   2.596 -2.2026 -1.8873  2.8844
  401MOL0     H54076   9.973   4.665   2.551 -1.5552  0.3620  2.7762
  401MOL0     H54077  10.020   4.539   2.659 -0.8301 -0.7508 -1.9289
  401MOL0     H54078  10.083   4.840   2.679 -3.9460  0.3766 -0.4337
  401MOL0     H54079   9.947   4.762   2.763  0.5484 -1.4345  3.4374
  401MOL0     H54080  10.092   4.628   2.892 -0.3160  0.1576  1.7292
  401MOL0     H54081  10.240   4.702   2.822  0.9777  1.1437 -0.4736
  401MOL0     H54082  10.228   4.832   3.011 -0.3495 -0.1643  0.7317
  401MOL0     H54083  10.106   4.931   2.928  0.6060 -0.7504 -0.7927
  401MOL0     H54084  10.044   4.687   3.097 -1.5608 -0.3216 -1.2913
  401MOL0     H54085   9.929   4.796   3.045  0.2677  0.4263 -0.0971
  401MOL0     H54086   9.989   4.772   3.372  0.0674  0.4552  0.5511
  401MOL0     H54087   9.899   4.930   3.560  1.9884 -2.8552  1.6506
  401MOL0     H54088  10.073   4.955   3.577 -1.4889 -2.0010  0.8926
  401MOL0     H54089   9.838   5.142   3.543 -0.2503  0.8212 -0.6055
  401MOL0     H54090   9.999   5.212   3.529 -2.3149  0.5983 -3.0719
  401MOL0     H54091  10.057   5.109   3.755  0.8962  0.7902  0.1315
  401MOL0     H54092   9.877   5.081   3.767  0.4241  0.1960 -2.0629
  401MOL0     H54093  10.027   5.343   3.745 -0.4234  0.2739  2.9253
  401MOL0     H54094   9.921   5.285   3.878 -1.9148  1.5978 -0.2866
  401MOL0     H54095   9.911   5.488   3.901 -0.7501  0.0006  0.6558
  401MOL0     H54096   9.890   5.668   4.055  1.1983  3.1002  3.8451
  401MOL0     H54097   9.977   5.786   3.959  0.8183 -1.9100 -0.6525
  401MOL0     H54098   9.809   5.819   4.033  0.8711  1.8140 -1.0100
  401MOL0     H54099   9.970   6.106   3.644 -0.6807 -0.8808 -0.1651
  401MOL0     H54100   9.989   6.360   3.626  1.8953  1.7506  0.9101
  401MOL0     H54101   9.868   6.715   3.897  1.2973  0.5535  3.3875
  401MOL0     H54102   9.843   6.572   3.995 -0.8080  2.2844  0.3491
  401MOL0     H54103  10.080   6.496   3.914 -1.6934 -0.5181  0.5396
  401MOL0     H54104  10.095   6.650   3.834  0.4247 -1.7607  0.1643
  401MOL0     H54105  10.023   6.748   4.064 -0.4635 -0.4931  0.5671
  401MOL0     H54106  10.194   6.684   4.050 -0.5705  3.1839  1.7910
  401MOL0     H54107   9.942   6.557   4.184  0.7852 -0.3870  0.4269
  401MOL0     H54108  10.104   6.489   4.159  1.3700  0.7277  0.1541
  401MOL0     H54109  10.214   6.625   4.278  0.6502 -0.3875  1.6178
  401MOL0     H54110  10.086   6.577   4.390  0.8113  2.4008  2.0643
  401MOL0     H54111  10.112   6.863   4.252 -1.8231  1.5024 -0.8301
  401MOL0     H54112   9.955   6.788   4.310 -0.0463  1.4539  0.6461
  401MOL0     H54113  10.200   6.863   4.464  0.1185  0.4309  0.2696
  401MOL0     H54114  10.072   6.780   4.545  0.8133 -1.6809 -1.4649
  401MOL0     H54115   9.976   7.023   4.397 -3.4880 -1.6789  3.3569
  401MOL0     H54116  10.100   7.077   4.513 -0.8814  2.8329 -1.4408
  401MOL0     H54117   9.711   6.400   3.960  0.7878  0.1700  2.7837
  401MOL0     H54118   9.693   6.152   3.970 -0.4087 -0.5798  1.3855
  401MOL0     H54119   9.671   5.711   3.556 -0.4410 -0.6046 -1.2568
  401MOL0     H54120   9.690   5.483   3.556  2.7465  0.3416 -0.7080
  401MOL0     H54121  10.505   4.651   2.175 -2.7417  4.0385 -0.2505
  401MOL0     H54122  10.744   4.674   2.096 -0.0437 -0.9666  0.0849
  401MOL0     H54123  11.055   5.176   2.116 -2.3004 -0.3808 -3.0894
  401MOL0     H54124  11.254   5.236   1.971 -0.3621  0.4727 -0.9029
  401MOL0     H54125  11.375   5.255   1.801  1.6123  2.6417 -1.0249
  401MOL0     H54126  11.497   5.234   1.920  3.3322 -1.7540 -0.2255
  401MOL0     H54127  11.643   5.146   1.759 -0.5490 -0.6052  1.9348
  401MOL0     H54128  11.586   5.305   1.691 -3.2635  3.4387  3.2342
  401MOL0     H54129  11.475   5.016   1.617  0.3334 -1.1381 -1.4777
  401MOL0     H54130  11.609   5.095   1.531  0.3243  2.0430  0.5135
  401MOL0     H54131  11.447   5.154   1.404 -0.3154  0.4139  0.0232
  401MOL0     H54132  11.489   5.294   1.496  2.1201 -1.5296 -1.1171
  401MOL0     H54133  11.087   5.151   1.612  0.4858  2.7390  2.8651
  401MOL0     H54134  11.316   4.819   1.895 -0.7767  2.0341 -2.3062
  401MOL0     H54135  11.107   4.764   2.026  0.9926  0.0206  0.8366
  402MOL0     O54136   8.697   7.412  10.349  0.4327  0.4188 -0.4182
  402MOL0     C54137   8.749   7.400  10.237  1.6979 -0.0101 -0.0224
  402MOL0     O54138   8.823   7.491  10.179  0.1637 -0.1024 -0.9983
  402MOL0     C54139   8.849   7.608  10.243 -1.1764  1.2924  0.9749
  402MOL0     C54140   8.975   7.619  10.304  0.3906 -0.2149 -0.4990
  402MOL0     C54141   9.023   7.744  10.344  0.4906  0.0132  0.6161
  402MOL0     C54142   8.947   7.861  10.320 -0.7501 -0.4279 -1.0834
  402MOL0     O54143   9.012   7.977  10.342  0.6513 -0.6438  0.2805
  402MOL0     C54144   8.936   8.082  10.404 -0.9935  0.8822  0.5991
  402MOL0     C54145   9.014   8.168  10.511 -0.5712  0.8723 -1.1119
  402MOL0     C54146   9.053   8.077  10.625 -0.0601 -0.8883  0.3164
  402MOL0     C54147   9.113   8.169  10.731  0.4392  0.7148  0.4418
  402MOL0     C54148   9.145   8.099  10.861  0.5526 -0.2229 -0.5787
  402MOL0     C54149   9.287   8.056  10.882 -0.6718  0.0028  0.3261
  402MOL0     C54150   9.318   7.930  10.967 -0.1237  0.7180  0.9667
  402MOL0     C54151   9.266   7.935  11.104  0.2745  0.4065 -0.0693
  402MOL0     N54152   9.300   7.815  11.183  0.4105  0.0729  0.0746
  402MOL0     C54153   9.426   7.783  11.231 -0.7913  0.5485  0.5850
  402MOL0     C54154   9.408   7.655  11.267  0.0371  0.3945 -0.3206
  402MOL0     C54155   9.508   7.558  11.325  0.3556 -0.0494 -0.3639
  402MOL0     C54156   9.587   7.496  11.218 -0.3362  0.3434 -0.5739
  402MOL0     C54157   9.686   7.391  11.276  0.7026 -0.0358 -0.8218
  402MOL0     C54158   9.787   7.438  11.381  0.2521 -0.1567  0.1071
  402MOL0     O54159   9.854   7.556  11.334  0.1509 -0.2943 -0.2151
  402MOL0     C54160   9.979   7.552  11.290  0.6226 -0.5621  0.2787
  402MOL0     C54161  10.088   7.506  11.369 -0.9523 -0.2629 -0.1854
  402MOL0     C54162  10.218   7.505  11.312 -0.4467  0.9615 -0.7042
  402MOL0     C54163  10.331   7.433  11.383  0.1350  0.2660  0.4803
  402MOL0     C54164  10.242   7.570  11.185  0.3154 -0.3588  0.3534
  402MOL0     C54165  10.369   7.587  11.123  0.1220  0.2272  0.9374
  402MOL0     O54166  10.372   7.586  10.985 -0.0845  0.4948 -0.2180
  402MOL0     C54167  10.494   7.612  10.924  0.0965 -0.0003  0.6342
  402MOL0     C54168  10.538   7.734  10.869 -0.8525  0.6938 -1.0339
  402MOL0     C54169  10.659   7.730  10.801 -0.6517 -0.2462  0.2420
  402MOL0     C54170  10.743   7.620  10.775  0.4009  0.1628 -0.1842
  402MOL0     O54171  10.848   7.616  10.692 -0.1052 -0.2434 -0.2231
  402MOL0     C54172  10.959   7.684  10.754 -0.1289  0.7072  0.2976
  402MOL0     C54173  11.072   7.580  10.738 -0.1612 -0.1372 -0.8067
  402MOL0     C54174  11.157   7.610  10.611  0.1382 -0.1077 -0.6084
  402MOL0     C54175  11.178   7.496  10.522  0.0904  0.1711 -0.7142
  402MOL0     C54176  11.273   7.529  10.401  0.7507  0.1461  0.1077
  402MOL0     C54177  11.332   7.390  10.355  1.2749 -0.1481 -0.0484
  402MOL0     C54178  11.424   7.395  10.237  0.1152  0.1096  0.3893
  402MOL0     C54179  11.494   7.261  10.212  0.4004 -0.2876 -0.1027
  402MOL0    Cl54180  11.602   7.219  10.341  0.2859  0.2592 -0.3191
  402MOL0     C54181  10.683   7.496  10.829 -0.4699 -0.0306 -0.3386
  402MOL0     C54182  10.568   7.490  10.895  0.2783 -0.3020 -0.0349
  402MOL0     O54183  10.468   7.619  11.193 -0.4166 -0.7933  0.2275
  402MOL0     C54184  10.135   7.614  11.108  0.9817 -0.9466  0.9926
  402MOL0     C54185  10.004   7.605  11.166  0.1864 -0.0838 -0.1093
  402MOL0     N54186   9.279   7.606  11.243  0.6096 -0.5817 -0.5960
  402MOL0     N54187   9.217   7.706  11.194 -0.2864 -0.1664  0.1430
  402MOL0     C54188   8.812   7.851  10.264  1.3876 -0.4221 -0.7861
  402MOL0     C54189   8.761   7.718  10.233  0.2262  0.4798  0.0722
  402MOL0     C54190   8.734   7.275  10.168  0.1811  0.2825 -0.0755
  402MOL0     C54191   8.778   7.261  10.041  0.8426 -0.4219  0.2769
  402MOL0     C54192   8.779   7.135   9.976 -0.3651  0.4396  0.4502
  402MOL0     C54193   8.721   7.028  10.036  0.9064  0.6072 -0.1693
  402MOL0     O54194   8.701   6.905   9.977 -0.3631  0.0669 -0.3596
  402MOL0     C54195   8.765   6.866   9.849  1.0742  0.1069  0.0232
  402MOL0     C54196   8.724   6.717   9.817 -0.3103 -0.6396 -0.9643
  402MOL0     C54197   8.794   6.663   9.690 -0.2556 -0.0347 -0.3680
  402MOL0     C54198   8.898   6.552   9.724 -0.1482  0.4849 -0.7142
  402MOL0     C54199   8.952   6.495   9.598  0.6201  0.3383  0.0942
  402MOL0     C54200   8.997   6.467   9.490  0.4393  0.0130 -0.0887
  402MOL0     C54201   8.684   7.044  10.171 -0.3789  0.8377 -0.3197
  402MOL0     C54202   8.688   7.166  10.236  0.4404 -0.1171  1.0198
  402MOL0     H54203   9.032   7.530  10.329  0.6332  0.5179  1.8127
  402MOL0     H54204   9.122   7.750  10.389  1.9441 -2.6459 -1.9139
  402MOL0     H54205   8.902   8.150  10.326 -1.0776 -1.1604 -1.2343
  402MOL0     H54206   8.844   8.054  10.455  0.1619 -2.7620  0.9946
  402MOL0     H54207   9.104   8.213  10.466 -0.7895  2.3792 -0.1233
  402MOL0     H54208   8.948   8.249  10.543  1.1636  2.1264 -0.5371
  402MOL0     H54209   8.964   8.026  10.663 -0.1409  0.1231  1.5571
  402MOL0     H54210   9.128   8.004  10.592 -0.9521 -0.1911 -3.6578
  402MOL0     H54211   9.195   8.227  10.686 -2.6780  3.1737 -2.6112
  402MOL0     H54212   9.034   8.241  10.753  0.6647  1.3847 -0.8628
  402MOL0     H54213   9.126   8.161  10.948 -2.1784 -1.8807  0.1117
  402MOL0     H54214   9.078   8.014  10.873 -2.0676  1.2894 -3.2592
  402MOL0     H54215   9.332   8.050  10.783 -1.3022 -2.8356  0.1185
  402MOL0     H54216   9.341   8.133  10.937  0.7444 -1.5323  1.1737
  402MOL0     H54217   9.279   7.839  10.922  1.1087  0.9910 -0.7814
  402MOL0     H54218   9.426   7.912  10.966 -0.2355 -1.0479 -3.2743
  402MOL0     H54219   9.157   7.935  11.097  0.1328 -2.5541  0.6113
  402MOL0     H54220   9.296   8.030  11.149 -1.5406  3.8717 -5.3122
  402MOL0     H54221   9.521   7.835  11.245  0.2392 -1.6003  2.3694
  402MOL0     H54222   9.571   7.616  11.392  1.3756 -2.2425  0.7022
  402MOL0     H54223   9.452   7.484  11.382 -2.9676  2.7173  0.2778
  402MOL0     H54224   9.646   7.562  11.153  3.9657 -3.2104 -0.7643
  402MOL0     H54225   9.515   7.442  11.155 -1.8071  2.1543 -0.5435
  402MOL0     H54226   9.749   7.385  11.186  2.3858  1.2727  0.1955
  402MOL0     H54227   9.636   7.303  11.316  0.6478  1.4573  2.7243
  402MOL0     H54228   9.861   7.360  11.401  0.1614 -0.0972  0.6882
  402MOL0     H54229   9.743   7.473  11.475 -0.6241  1.8542 -0.9767
  402MOL0     H54230  10.054   7.464  11.463 -2.9585 -2.1097 -1.6476
  402MOL0     H54231  10.417   7.419  11.317 -1.2165  1.0244 -1.4903
  402MOL0     H54232  10.370   7.486  11.471 -1.9394  0.3372  1.4104
  402MOL0     H54233  10.288   7.335  11.408  0.2698  0.1910  0.4215
  402MOL0     H54234  10.495   7.831  10.892  0.0192  1.0471 -0.8453
  402MOL0     H54235  10.678   7.827  10.757 -0.5048 -0.1597  0.4923
  402MOL0     H54236  10.985   7.772  10.695 -1.2817  2.5856  2.4224
  402MOL0     H54237  10.940   7.724  10.854 -0.2511  1.8838 -0.1755
  402MOL0     H54238  11.149   7.595  10.814  1.2153  3.1865 -2.6299
  402MOL0     H54239  11.036   7.477  10.751  2.2884 -0.8451  1.1657
  402MOL0     H54240  11.251   7.651  10.651  0.9587 -1.2839 -1.2584
  402MOL0     H54241  11.113   7.689  10.549  1.0512  0.9829  0.0831
  402MOL0     H54242  11.218   7.411  10.578  1.7351 -0.4198 -2.6553
  402MOL0     H54243  11.079   7.458  10.496 -0.2196 -1.4887  2.4272
  402MOL0     H54244  11.347   7.606  10.422  0.3171  1.2877 -2.2332
  402MOL0     H54245  11.223   7.579  10.317  0.5346 -1.0687 -0.5153
  402MOL0     H54246  11.376   7.347  10.446 -1.4721 -0.4923  1.2261
  402MOL0     H54247  11.251   7.328  10.316 -0.0881  1.7437 -0.3700
  402MOL0     H54248  11.509   7.464  10.245  0.3373 -0.1987  0.6932
  402MOL0     H54249  11.381   7.440  10.147  2.9278 -0.4411 -1.3854
  402MOL0     H54250  11.547   7.274  10.117 -0.9377  0.8599 -0.7221
  402MOL0     H54251  11.430   7.173  10.210  2.3781 -1.8545  1.3953
  402MOL0     H54252  10.733   7.400  10.819 -2.5038 -1.1136 -0.5927
  402MOL0     H54253  10.534   7.393  10.928  2.1868 -1.2463 -0.6841
  402MOL0     H54254  10.143   7.670  11.015  0.2566  2.9473  3.0927
  402MOL0     H54255   9.926   7.649  11.105 -0.3098  1.8811  1.8038
  402MOL0     H54256   8.754   7.939  10.239 -1.8380 -1.6363  1.6311
  402MOL0     H54257   8.665   7.695  10.187  0.0986 -3.3998  1.9013
  402MOL0     H54258   8.817   7.335   9.972 -1.1471  0.8362  0.4200
  402MOL0     H54259   8.825   7.128   9.878 -1.8502  0.5651 -0.2810
  402MOL0     H54260   8.712   6.933   9.781 -3.2810  0.5049  3.3477
  402MOL0     H54261   8.874   6.859   9.849  1.0229 -1.2570 -1.8666
  402MOL0     H54262   8.615   6.705   9.809 -0.4990 -0.0956  0.4916
  402MOL0     H54263   8.755   6.668   9.909 -4.7173 -0.6116  0.7994
  402MOL0     H54264   8.836   6.750   9.639 -2.8853  0.3283 -2.0979
  402MOL0     H54265   8.723   6.619   9.620  0.2425  0.0412 -0.9286
  402MOL0     H54266   8.863   6.477   9.796  1.9571 -0.0371 -0.1889
  402MOL0     H54267   8.976   6.608   9.774 -0.9766  1.5648 -0.5984
  402MOL0     H54268   9.027   6.438   9.391 -2.1745 -1.2705 -0.5786
  402MOL0     H54269   8.659   6.951  10.221 -1.6793  0.2464 -1.9558
  402MOL0     H54270   8.659   7.172  10.340 -1.3893 -1.7818  0.6793
  403MOL0     O54271  10.742   3.574   5.516 -0.3475  0.2392  0.7329
  403MOL0     C54272  10.781   3.619   5.412 -0.3713  0.3678  0.1499
  403MOL0     O54273  10.822   3.545   5.306 -0.8099 -0.0293  0.3733
  403MOL0     C54274  10.844   3.410   5.311 -0.4809  0.7335  0.1213
  403MOL0     C54275  10.836   3.345   5.189  0.3955  0.8658  0.8790
  403MOL0     C54276  10.870   3.209   5.177 -0.5476 -0.4109 -0.1282
  403MOL0     C54277  10.895   3.129   5.291 -0.1513  0.1336  0.0500
  403MOL0     O54278  10.921   2.998   5.264  0.4199  0.1107  0.4235
  403MOL0     C54279  10.889   2.895   5.355  0.0076 -0.4350  0.7304
  403MOL0     C54280  10.973   2.768   5.339 -0.2531 -0.0291  0.2393
  403MOL0     C54281  11.097   2.767   5.420  0.2449  1.3855 -0.4499
  403MOL0     C54282  11.199   2.889   5.393  1.1416 -0.8186  0.1514
  403MOL0     C54283  11.317   2.879   5.477 -0.0322  0.1109  1.5582
  403MOL0     C54284  11.392   2.755   5.446 -0.7596  0.2925 -0.0084
  403MOL0     C54285  11.545   2.758   5.459 -0.7366  0.0400 -0.3087
  403MOL0     C54286  11.627   2.787   5.328 -0.1859  0.5093 -0.1341
  403MOL0     N54287  11.605   2.922   5.263  0.8670 -0.3292  0.2308
  403MOL0     C54288  11.615   3.050   5.317 -0.4083 -0.2244 -0.0701
  403MOL0     C54289  11.528   3.125   5.247 -0.1041  0.6989  0.8122
  403MOL0     C54290  11.495   3.270   5.254 -0.1368 -0.1378 -0.3135
  403MOL0     C54291  11.352   3.315   5.279  0.3029  0.0785 -0.6755
  403MOL0     C54292  11.337   3.455   5.344  0.6888  0.3064  0.0329
  403MOL0     C54293  11.186   3.507   5.339  0.5392  0.8419  0.1716
  403MOL0     O54294  11.165   3.611   5.240  0.3404  0.4977 -0.9811
  403MOL0     C54295  11.210   3.741   5.261  0.7869  0.2586 -0.0481
  403MOL0     C54296  11.261   3.790   5.381  0.1908  0.5001  0.8085
  403MOL0     C54297  11.296   3.927   5.393 -0.1462  0.6833 -0.5716
  403MOL0     C54298  11.365   3.971   5.517  0.1928  0.2544 -0.5310
  403MOL0     C54299  11.273   4.021   5.286  0.5215  0.0205  1.1599
  403MOL0     C54300  11.310   4.166   5.296 -0.1182  0.4463 -0.3677
  403MOL0     O54301  11.291   4.228   5.416  0.1396  0.1309 -0.1967
  403MOL0     C54302  11.320   4.357   5.412  0.1966 -0.1983 -1.1201
  403MOL0     C54303  11.445   4.387   5.471 -0.6244  0.2429 -0.6446
  403MOL0     C54304  11.491   4.523   5.476 -0.1231 -0.2119 -1.0540
  403MOL0     C54305  11.418   4.616   5.396 -1.4803 -0.4106  0.1900
  403MOL0     O54306  11.488   4.724   5.348 -0.6500 -0.2061  0.9417
  403MOL0     C54307  11.583   4.815   5.417  1.1306  0.2373  0.0592
  403MOL0     C54308  11.605   4.953   5.353 -0.1378 -1.3808  0.5645
  403MOL0     C54309  11.735   5.029   5.390 -0.9459 -1.3795 -0.5946
  403MOL0     C54310  11.860   4.944   5.346 -0.4545 -0.3439 -0.2782
  403MOL0     C54311  11.988   5.029   5.359  0.3909  0.0560 -0.9560
  403MOL0     C54312  12.027   5.125   5.249  0.1814 -0.5903  0.2006
  403MOL0     C54313  12.167   5.185   5.285  1.2779 -0.1711  0.7356
  403MOL0     C54314  12.216   5.263   5.157  0.8307 -0.0567 -0.7718
  403MOL0    Cl54315  12.345   5.385   5.191  0.1861 -0.2331  0.2761
  403MOL0     C54316  11.293   4.587   5.336  0.3707  0.2292  0.2148
  403MOL0     C54317  11.241   4.457   5.349 -0.8024  0.4341 -0.2843
  403MOL0     O54318  11.348   4.217   5.190  0.6145  0.0020 -0.1841
  403MOL0     C54319  11.201   3.970   5.171 -0.6743 -0.0549 -0.2045
  403MOL0     C54320  11.182   3.834   5.164  0.2896 -0.5388  1.7359
  403MOL0     N54321  11.478   3.053   5.142  0.4153 -0.6513  1.0116
  403MOL0     N54322  11.521   2.930   5.157 -0.3057  0.4988  0.2538
  403MOL0     C54323  10.899   3.193   5.417 -0.7460  1.6256 -0.0712
  403MOL0     C54324  10.884   3.333   5.425 -0.4701  0.7112  0.5834
  403MOL0     C54325  10.777   3.765   5.398 -0.2473  1.3885 -0.4326
  403MOL0     C54326  10.729   3.842   5.502 -0.1794 -1.3411  0.3822
  403MOL0     C54327  10.726   3.978   5.492 -0.2648  0.3815 -0.1569
  403MOL0     C54328  10.756   4.045   5.374  1.0516  0.1783  0.0714
  403MOL0     O54329  10.742   4.182   5.355  0.5823  0.5513  0.0586
  403MOL0     C54330  10.753   4.276   5.463 -0.5916 -0.2185  0.2635
  403MOL0     C54331  10.606   4.324   5.493  0.1914 -0.0994 -0.4813
  403MOL0     C54332  10.617   4.478   5.495 -0.0462  0.5780 -0.4702
  403MOL0     C54333  10.491   4.548   5.545  0.7167  0.5459  0.0073
  403MOL0     C54334  10.401   4.552   5.429  0.4407 -0.5728 -0.1332
  403MOL0     C54335  10.355   4.555   5.318  0.0234 -0.8909  0.0391
  403MOL0     C54336  10.790   3.968   5.264  0.4985 -0.0759 -0.5288
  403MOL0     C54337  10.816   3.832   5.276 -1.4350 -0.3126  0.0949
  403MOL0     H54338  10.809   3.400   5.100 -2.4541 -1.0365  0.4399
  403MOL0     H54339  10.873   3.160   5.080 -2.2825  2.2431 -1.6367
  403MOL0     H54340  10.906   2.930   5.457  2.1382 -1.8521  0.9352
  403MOL0     H54341  10.785   2.864   5.343  0.1031 -0.8666  0.9912
  403MOL0     H54342  10.911   2.680   5.359 -0.9234 -0.0786 -1.7619
  403MOL0     H54343  10.992   2.773   5.231  0.9017  2.0646  0.4899
  403MOL0     H54344  11.073   2.773   5.527 -1.7964 -1.4978 -0.6304
  403MOL0     H54345  11.143   2.668   5.409 -2.1321  0.0036  1.1019
  403MOL0     H54346  11.235   2.897   5.291 -1.3252  2.1864 -0.6505
  403MOL0     H54347  11.150   2.985   5.415  2.4786 -0.3989  1.4849
  403MOL0     H54348  11.377   2.966   5.448  2.5362 -3.0933 -4.4871
  403MOL0     H54349  11.297   2.887   5.585 -0.6461  4.1307  1.2863
  403MOL0     H54350  11.345   2.681   5.512 -2.6183  0.6991 -0.8053
  403MOL0     H54351  11.364   2.713   5.349  0.1336  0.5389 -0.3890
  403MOL0     H54352  11.573   2.842   5.523 -2.4373 -0.2534  0.8799
  403MOL0     H54353  11.585   2.667   5.505  0.4015  1.0482  0.7509
  403MOL0     H54354  11.597   2.712   5.255  0.4027 -1.9795  2.0479
  403MOL0     H54355  11.732   2.767   5.351 -0.0470  1.3375  0.0162
  403MOL0     H54356  11.677   3.082   5.399 -0.6744  0.0012  0.0460
  403MOL0     H54357  11.558   3.317   5.330  1.0977  0.1964 -1.5067
  403MOL0     H54358  11.532   3.306   5.158  0.0175  0.0929 -0.1686
  403MOL0     H54359  11.299   3.241   5.339  2.3996  0.3658  1.7036
  403MOL0     H54360  11.303   3.303   5.182 -1.5350 -1.5527  0.3627
  403MOL0     H54361  11.386   3.527   5.277 -1.4097  1.6828 -0.1189
  403MOL0     H54362  11.379   3.456   5.445  0.8670 -1.5686  0.0065
  403MOL0     H54363  11.149   3.535   5.438 -0.7334 -1.9880  0.5991
  403MOL0     H54364  11.116   3.427   5.312  0.6916  0.0220  2.0820
  403MOL0     H54365  11.266   3.727   5.469  0.0760  0.7019  0.9601
  403MOL0     H54366  11.443   4.042   5.486  0.4778  0.0257 -0.3464
  403MOL0     H54367  11.313   4.026   5.596  2.7941  0.9508  0.8160
  403MOL0     H54368  11.422   3.891   5.565  0.6934  0.7205 -0.3286
  403MOL0     H54369  11.514   4.321   5.522 -1.3103  1.9885  2.9004
  403MOL0     H54370  11.592   4.537   5.510 -0.3867 -0.8360  0.0244
  403MOL0     H54371  11.549   4.834   5.519 -0.6202 -2.8888  0.1635
  403MOL0     H54372  11.674   4.754   5.418 -0.1115 -1.7780  3.1382
  403MOL0     H54373  11.614   4.941   5.244 -4.3190  0.2700 -0.1935
  403MOL0     H54374  11.510   5.008   5.365 -0.0244 -1.0976  0.2041
  403MOL0     H54375  11.731   5.055   5.497 -1.3854 -1.1686 -0.6594
  403MOL0     H54376  11.738   5.124   5.336  0.9464 -0.7645  0.5077
  403MOL0     H54377  11.868   4.854   5.407 -4.6031  0.5536  1.9578
  403MOL0     H54378  11.847   4.919   5.240 -2.6256 -2.0721  0.3422
  403MOL0     H54379  12.068   4.956   5.340  2.1162  1.3505  0.8817
  403MOL0     H54380  12.019   5.051   5.461 -0.7339 -4.0426  0.4667
  403MOL0     H54381  12.031   5.069   5.156  1.1009  0.3413 -0.3487
  403MOL0     H54382  11.956   5.208   5.242  0.7635  0.0371  1.3879
  403MOL0     H54383  12.241   5.105   5.295  3.1285  1.4401  0.6169
  403MOL0     H54384  12.154   5.242   5.377  1.3304  0.0161  0.6264
  403MOL0     H54385  12.134   5.319   5.111  1.2069  0.3921 -0.8999
  403MOL0     H54386  12.255   5.186   5.089  0.8683 -1.2153  0.5067
  403MOL0     H54387  11.246   4.644   5.257 -0.8413  0.6351  1.1891
  403MOL0     H54388  11.140   4.434   5.318 -1.4564  3.4459 -0.7466
  403MOL0     H54389  11.178   4.027   5.082 -0.5403  2.0939  1.0831
  403MOL0     H54390  11.114   3.804   5.085 -0.0052  1.3376  1.2138
  403MOL0     H54391  10.925   3.134   5.505 -2.1981 -0.2238 -0.8020
  403MOL0     H54392  10.908   3.381   5.519  1.6747  0.2465  0.3130
  403MOL0     H54393  10.682   3.797   5.589  1.4010 -3.8311  0.0633
  403MOL0     H54394  10.696   4.041   5.575 -2.9942 -2.0106  0.8152
  403MOL0     H54395  10.796   4.237   5.555 -3.8394  0.8811  2.4321
  403MOL0     H54396  10.812   4.366   5.443 -1.4307  0.3282  0.1915
  403MOL0     H54397  10.576   4.292   5.593  0.7583 -1.3225 -0.6900
  403MOL0     H54398  10.538   4.288   5.416  0.4341 -0.1962 -0.6538
  403MOL0     H54399  10.647   4.500   5.392  0.7271 -1.1032 -0.6473
  403MOL0     H54400  10.704   4.505   5.554  0.7892 -1.6756 -0.5753
  403MOL0     H54401  10.499   4.649   5.587 -5.1153  2.1213 -1.7627
  403MOL0     H54402  10.449   4.486   5.625 -1.2886 -0.6258 -1.8288
  403MOL0     H54403  10.321   4.546   5.217 -2.1721 -0.8261  0.7119
  403MOL0     H54404  10.820   4.011   5.170 -1.6442  0.4121 -1.0454
  403MOL0     H54405  10.876   3.785   5.199 -1.2321  2.1986 -1.3808
  404MOL0     O54406   6.347   7.726   9.549 -0.5914  0.1083 -0.4749
  404MOL0     C54407   6.243   7.798   9.549 -0.4454 -0.0401 -0.9306
  404MOL0     O54408   6.240   7.929   9.527 -0.6201 -0.2619 -0.1362
  404MOL0     C54409   6.367   7.995   9.537  0.3885  0.5905  0.5915
  404MOL0     C54410   6.419   8.006   9.664 -0.9085 -0.3257 -0.9449
  404MOL0     C54411   6.544   8.066   9.675  0.4821 -0.6623 -0.1805
  404MOL0     C54412   6.608   8.125   9.566 -0.2517  0.9805 -0.1780
  404MOL0     O54413   6.717   8.209   9.593  0.3411  0.5011 -0.3683
  404MOL0     C54414   6.736   8.327   9.506 -0.2606 -0.6384 -0.4674
  404MOL0     C54415   6.724   8.455   9.590  0.6186 -0.4610 -0.0170
  404MOL0     C54416   6.591   8.521   9.570 -0.3155 -0.3603  0.1935
  404MOL0     C54417   6.469   8.427   9.583  1.1969  0.8964  0.5086
  404MOL0     C54418   6.331   8.502   9.609  0.2289 -1.0558  0.1597
  404MOL0     C54419   6.220   8.387   9.626 -0.6437 -1.1026  0.5555
  404MOL0     C54420   6.084   8.438   9.676 -0.4641 -0.0416 -0.1883
  404MOL0     C54421   6.014   8.534   9.578  0.6178 -1.1209 -1.0469
  404MOL0     N54422   5.894   8.581   9.643 -0.5609 -0.0566  0.1061
  404MOL0     C54423   5.879   8.675   9.741  0.5604 -0.1026  0.4017
  404MOL0     C54424   5.747   8.682   9.764  0.2527  0.0861  0.6067
  404MOL0     C54425   5.693   8.761   9.884  0.1066  0.2026  0.4406
  404MOL0     C54426   5.566   8.696   9.941 -0.5208  1.0892  0.6380
  404MOL0     C54427   5.541   8.759  10.080  0.2744  0.6287  0.0106
  404MOL0     C54428   5.411   8.690  10.135  0.2780 -0.3963 -0.2101
  404MOL0     O54429   5.299   8.735  10.059  0.3297  0.2021  0.4859
  404MOL0     C54430   5.170   8.755  10.098  0.1700  0.8350 -0.4113
  404MOL0     C54431   5.082   8.793   9.997  0.8033 -0.1375  0.1674
  404MOL0     C54432   4.950   8.835  10.029 -0.5823  0.2886  0.9843
  404MOL0     C54433   4.859   8.882   9.913  0.0952 -0.0549 -0.5187
  404MOL0     C54434   4.909   8.813  10.167  0.6632  0.2751 -0.1721
  404MOL0     C54435   4.767   8.842  10.214 -1.2444 -0.2830 -0.3761
  404MOL0     O54436   4.717   8.774  10.324 -0.4850  0.6034 -0.2580
  404MOL0     C54437   4.608   8.837  10.381 -0.1012  1.3584  0.5970
  404MOL0     C54438   4.482   8.812  10.320 -0.0604 -0.9514  0.5179
  404MOL0     C54439   4.367   8.872  10.366 -0.9007 -0.3627 -0.3623
  404MOL0     C54440   4.374   8.960  10.475  0.0467 -0.6207 -0.1647
  404MOL0     O54441   4.246   9.008  10.519 -0.4833  0.4274 -0.1056
  404MOL0     C54442   4.244   9.090  10.642 -0.0883 -0.4071 -0.3477
  404MOL0     C54443   4.097   9.125  10.676  0.1479 -0.2910  0.2045
  404MOL0     C54444   4.080   9.184  10.819  0.4097  0.7156 -0.4886
  404MOL0     C54445   3.931   9.201  10.831 -0.2335 -0.3965 -0.3198
  404MOL0     C54446   3.896   9.291  10.947 -0.2137 -0.3381 -0.2785
  404MOL0     C54447   3.746   9.303  10.971  0.5630  0.7809  0.3415
  404MOL0     C54448   3.739   9.387  11.104 -0.1713  0.4755  0.0774
  404MOL0     C54449   3.599   9.405  11.154  0.1184 -0.6312 -0.0823
  404MOL0    Cl54450   3.507   9.523  11.056 -0.3058  0.3677  0.1435
  404MOL0     C54451   4.492   9.001  10.529  0.0762 -0.1704 -0.0875
  404MOL0     C54452   4.610   8.928  10.488  0.1008 -0.9502  0.4550
  404MOL0     O54453   4.713   8.934  10.154 -0.2731  0.6832 -0.1601
  404MOL0     C54454   4.995   8.749  10.261 -0.4934  0.4911  0.1003
  404MOL0     C54455   5.126   8.732  10.230 -0.2158  0.3920 -0.5954
  404MOL0     N54456   5.682   8.601   9.675 -1.2127  0.7643 -0.2965
  404MOL0     N54457   5.772   8.563   9.589 -0.2556  0.1638 -0.7602
  404MOL0     C54458   6.569   8.091   9.437  0.0958 -0.0850 -0.5396
  404MOL0     C54459   6.441   8.035   9.420 -0.0562 -0.1086 -0.3864
  404MOL0     C54460   6.114   7.725   9.563  0.2806  0.6378 -0.1396
  404MOL0     C54461   6.112   7.588   9.597  0.2654  0.3059 -0.7612
  404MOL0     C54462   5.989   7.516   9.596 -1.1495  0.0025  0.1178
  404MOL0     C54463   5.866   7.573   9.559 -0.0606 -0.8777  0.0649
  404MOL0     O54464   5.744   7.516   9.547 -0.0213 -0.2496 -0.2277
  404MOL0     C54465   5.737   7.371   9.524  0.0598 -0.1534 -0.0865
  404MOL0     C54466   5.744   7.333   9.368  0.3112 -0.1896 -0.3304
  404MOL0     C54467   5.625   7.382   9.283 -1.6204  0.1902 -0.8077
  404MOL0     C54468   5.493   7.336   9.332  0.6416  0.9210  0.2572
  404MOL0     C54469   5.392   7.420   9.281 -0.7885 -0.4402 -0.6887
  404MOL0     C54470   5.298   7.484   9.248 -0.6158 -0.0919  0.0833
  404MOL0     C54471   5.875   7.711   9.542  0.9801 -0.1245  1.7862
  404MOL0     C54472   5.990   7.783   9.537 -1.0169 -0.6611  0.2022
  404MOL0     H54473   6.366   7.967   9.750 -0.7900  0.2686 -0.6016
  404MOL0     H54474   6.591   8.099   9.767  0.9603 -2.1862  0.1524
  404MOL0     H54475   6.840   8.324   9.472 -0.5873 -2.0495 -1.4038
  404MOL0     H54476   6.666   8.331   9.422 -3.6086 -2.5489  2.0181
  404MOL0     H54477   6.731   8.435   9.698  1.8060 -1.7191 -0.2930
  404MOL0     H54478   6.803   8.528   9.570 -1.9561  3.3538  2.3765
  404MOL0     H54479   6.589   8.606   9.640 -2.1723  0.6587 -1.0020
  404MOL0     H54480   6.584   8.556   9.466 -0.7457 -3.6364 -0.9761
  404MOL0     H54481   6.466   8.367   9.491  0.8278 -0.6839  1.5160
  404MOL0     H54482   6.480   8.354   9.663 -0.6056  0.3200  0.2628
  404MOL0     H54483   6.330   8.553   9.706  1.8053  0.8405 -0.7707
  404MOL0     H54484   6.318   8.572   9.526  3.6438 -0.9123 -0.3931
  404MOL0     H54485   6.221   8.313   9.545  2.1929 -0.5415 -0.0473
  404MOL0     H54486   6.251   8.323   9.709  1.2840 -0.7554  0.1595
  404MOL0     H54487   6.024   8.347   9.691 -0.1525 -0.3098 -0.5696
  404MOL0     H54488   6.092   8.469   9.781 -1.8717 -2.3787  0.6970
  404MOL0     H54489   5.993   8.485   9.483  0.2550 -0.0838 -1.5230
  404MOL0     H54490   6.083   8.617   9.564  1.8210 -1.4184  2.2200
  404MOL0     H54491   5.949   8.732   9.802  2.4658 -0.1859 -1.5947
  404MOL0     H54492   5.777   8.762   9.953  1.0716  0.9008 -0.7100
  404MOL0     H54493   5.654   8.862   9.865 -2.0640 -0.3070  1.8063
  404MOL0     H54494   5.581   8.588   9.936 -1.7835  0.9027  0.4913
  404MOL0     H54495   5.494   8.719   9.862  0.1039  1.4035  0.1534
  404MOL0     H54496   5.521   8.866  10.069  1.0247  0.7473 -0.2413
  404MOL0     H54497   5.618   8.745  10.156  0.5966  0.1341 -0.4003
  404MOL0     H54498   5.389   8.716  10.239 -1.5481 -4.5602  0.6367
  404MOL0     H54499   5.420   8.582  10.149 -1.9386 -0.7748 -1.1545
  404MOL0     H54500   5.129   8.798   9.899 -0.8429 -1.1394 -0.7282
  404MOL0     H54501   4.911   8.868   9.817  2.0345 -2.5021  0.7625
  404MOL0     H54502   4.765   8.827   9.920  0.1697 -0.9974 -4.4674
  404MOL0     H54503   4.824   8.984   9.929  0.3650  0.2237 -1.5802
  404MOL0     H54504   4.466   8.745  10.236 -5.8075  1.7619 -1.0643
  404MOL0     H54505   4.274   8.832  10.327  0.0460 -1.2345 -1.7730
  404MOL0     H54506   4.273   9.052  10.740 -1.7427  0.9234  0.6990
  404MOL0     H54507   4.292   9.185  10.615 -1.7961  1.6654  3.2179
  404MOL0     H54508   4.070   9.198  10.599  5.5460  0.2239 -1.6165
  404MOL0     H54509   4.034   9.038  10.655 -0.4761  0.1998  0.0018
  404MOL0     H54510   4.131   9.276  10.849 -2.4800  2.0471  0.7346
  404MOL0     H54511   4.117   9.109  10.889 -4.5209  0.4216  2.2929
  404MOL0     H54512   3.880   9.241  10.743 -1.1407  0.6040  0.6229
  404MOL0     H54513   3.886   9.102  10.842  4.3758 -2.9645 -1.8979
  404MOL0     H54514   3.927   9.393  10.925 -4.6236  1.6182  1.2297
  404MOL0     H54515   3.944   9.262  11.041  0.5585  0.7227 -0.3408
  404MOL0     H54516   3.704   9.357  10.886  1.3622  0.1601 -0.4675
  404MOL0     H54517   3.678   9.218  10.988 -1.2031  2.1254  0.3061
  404MOL0     H54518   3.802   9.476  11.110 -2.2423  1.9825  0.4128
  404MOL0     H54519   3.781   9.327  11.185 -4.7842  0.7273  3.0029
  404MOL0     H54520   3.602   9.442  11.257 -0.0920 -2.1218  0.4897
  404MOL0     H54521   3.550   9.309  11.138 -0.4370 -0.8738  2.5526
  404MOL0     H54522   4.508   9.074  10.608  4.9917 -2.5937  1.5810
  404MOL0     H54523   4.707   8.971  10.513 -0.3224  1.0383 -1.0391
  404MOL0     H54524   4.962   8.711  10.357 -1.4323 -0.0061 -0.4004
  404MOL0     H54525   5.185   8.690  10.310 -0.2419 -0.7027 -1.1233
  404MOL0     H54526   6.613   8.140   9.350 -1.5706  3.9263  0.6500
  404MOL0     H54527   6.401   8.008   9.323 -1.9217  2.4208 -0.4164
  404MOL0     H54528   6.209   7.540   9.610  1.6471  2.8414 -1.0223
  404MOL0     H54529   6.004   7.415   9.631  0.5248 -0.3344 -1.4225
  404MOL0     H54530   5.831   7.322   9.550  1.1204 -1.5973 -5.3014
  404MOL0     H54531   5.651   7.327   9.576  0.8428 -2.1377 -0.3574
  404MOL0     H54532   5.736   7.224   9.366  1.4503 -0.2870 -0.1553
  404MOL0     H54533   5.843   7.344   9.323  0.2283 -0.9156 -0.7077
  404MOL0     H54534   5.634   7.353   9.178 -0.5217  0.9270 -0.9330
  404MOL0     H54535   5.637   7.491   9.281 -1.2379  0.1445 -2.3379
  404MOL0     H54536   5.482   7.322   9.440  0.7969 -2.8037 -0.0885
  404MOL0     H54537   5.473   7.241   9.283  0.3669  2.7765 -3.6298
  404MOL0     H54538   5.216   7.553   9.246  1.4697  2.6153  1.4011
  404MOL0     H54539   5.784   7.765   9.516  1.3062  0.5474  2.0333
  404MOL0     H54540   5.978   7.886   9.506 -2.4131 -0.9452 -0.2776
  405MOL0     O54541   8.790   3.052   1.251  0.4724 -0.1043  0.7372
  405MOL0     C54542   8.866   3.120   1.184  0.1099  0.3478 -0.6042
  405MOL0     O54543   8.833   3.198   1.068  0.2541 -0.2817 -0.7363
  405MOL0     C54544   8.694   3.214   1.034 -0.4373  0.5137  0.5182
  405MOL0     C54545   8.590   3.235   1.131 -0.3950  0.4529  0.3132
  405MOL0     C54546   8.456   3.239   1.099  0.4036  0.2131  0.6237
  405MOL0     C54547   8.416   3.255   0.954  0.0228 -0.1491 -0.0228
  405MOL0     O54548   8.285   3.284   0.925 -0.5787  0.3891 -1.2661
  405MOL0     C54549   8.273   3.375   0.815 -0.0311 -0.5890  0.3078
  405MOL0     C54550   8.226   3.340   0.679 -1.4348  0.3873 -0.2531
  405MOL0     C54551   8.095   3.284   0.674  0.8631  1.2974 -0.1939
  405MOL0     C54552   8.010   3.313   0.552 -0.2183 -0.3555 -0.2598
  405MOL0     C54553   7.866   3.263   0.582 -0.0879  0.0189 -1.0978
  405MOL0     C54554   7.752   3.301   0.477  0.2296  0.2019 -0.7761
  405MOL0     C54555   7.617   3.275   0.548  0.2962  0.2275  0.7303
  405MOL0     C54556   7.505   3.298   0.448 -0.1770 -0.7757  0.1552
  405MOL0     N54557   7.508   3.428   0.372  0.4986  0.1224 -1.3373
  405MOL0     C54558   7.462   3.546   0.428  0.8288 -0.2850  0.0521
  405MOL0     C54559   7.480   3.639   0.336 -0.6064  0.4706  0.4608
  405MOL0     C54560   7.448   3.787   0.345 -0.1009  0.6090  0.0704
  405MOL0     C54561   7.555   3.872   0.413 -0.0211  1.3236  0.2825
  405MOL0     C54562   7.519   4.016   0.418  1.1433 -0.7781 -0.3067
  405MOL0     C54563   7.625   4.077   0.500  0.2112 -0.2958  1.0364
  405MOL0     O54564   7.736   4.120   0.415 -0.0632 -0.4581 -0.0346
  405MOL0     C54565   7.848   4.177   0.474  0.0818  0.4863  0.2430
  405MOL0     C54566   7.901   4.291   0.411  0.2063 -0.1226 -0.1418
  405MOL0     C54567   8.000   4.374   0.462 -1.0580  0.3182 -0.5221
  405MOL0     C54568   8.049   4.492   0.394  0.3058 -0.4609 -0.4233
  405MOL0     C54569   8.050   4.335   0.586 -0.4328  0.0462 -0.8450
  405MOL0     C54570   8.158   4.406   0.657 -0.9097  0.3819  1.1637
  405MOL0     O54571   8.147   4.396   0.795  0.0049 -0.1443 -0.7881
  405MOL0     C54572   8.220   4.474   0.880 -0.2016  0.3476 -0.5200
  405MOL0     C54573   8.243   4.612   0.863  0.4042  0.2869 -0.6779
  405MOL0     C54574   8.322   4.681   0.959 -0.1708  0.5547 -0.0496
  405MOL0     C54575   8.385   4.620   1.064  0.1176 -0.1108  0.1478
  405MOL0     O54576   8.456   4.698   1.154 -0.5585  1.2998  0.0632
  405MOL0     C54577   8.560   4.648   1.240  0.2804 -0.3897 -0.2443
  405MOL0     C54578   8.651   4.768   1.281 -0.0406  0.1700 -0.4562
  405MOL0     C54579   8.735   4.814   1.157 -0.6596 -0.3551 -0.1936
  405MOL0     C54580   8.879   4.768   1.150 -0.2205 -0.8021  0.0580
  405MOL0     C54581   8.951   4.797   1.022  0.3742  0.2025 -0.3894
  405MOL0     C54582   9.099   4.792   1.043  0.0151 -0.4821  0.6150
  405MOL0     C54583   9.162   4.764   0.899  0.1742 -0.0683 -1.1032
  405MOL0     C54584   9.321   4.747   0.901  0.6838 -0.8176 -0.3007
  405MOL0    Cl54585   9.401   4.900   0.960  0.1085 -0.3818 -0.3699
  405MOL0     C54586   8.345   4.490   1.085  0.5898 -1.2528 -0.1742
  405MOL0     C54587   8.270   4.414   0.997  0.1505  0.8238 -0.1590
  405MOL0     O54588   8.253   4.454   0.599 -0.2381 -0.7219  0.2383
  405MOL0     C54589   7.994   4.218   0.650 -1.0093  0.5446 -0.1960
  405MOL0     C54590   7.890   4.149   0.604  0.3964  0.4861 -0.4710
  405MOL0     N54591   7.542   3.580   0.231  0.0332 -0.5704  0.7732
  405MOL0     N54592   7.568   3.455   0.252 -0.3893  0.4484  0.2012
  405MOL0     C54593   8.523   3.230   0.861 -0.8416  0.4134 -0.0138
  405MOL0     C54594   8.655   3.211   0.905  0.3891  0.5511  0.8038
  405MOL0     C54595   9.014   3.127   1.217 -0.1471  0.2527 -1.0845
  405MOL0     C54596   9.105   3.202   1.145  0.2532  0.2862  0.1538
  405MOL0     C54597   9.244   3.197   1.178 -1.0185 -0.2762  0.9929
  405MOL0     C54598   9.300   3.125   1.275 -1.1030  0.8057 -0.1988
  405MOL0     O54599   9.432   3.140   1.309 -0.4177  0.8764 -0.3494
  405MOL0     C54600   9.495   3.052   1.411  1.6151 -0.7338 -1.3444
  405MOL0     C54601   9.563   2.929   1.338 -0.5598 -0.5195  0.0672
  405MOL0     C54602   9.677   2.965   1.227 -0.4925 -0.6367 -0.1801
  405MOL0     C54603   9.769   3.086   1.262  0.5160  0.8674  0.1020
  405MOL0     C54604   9.845   3.056   1.385 -0.0356  0.6341 -0.2000
  405MOL0     C54605   9.892   3.022   1.493  0.8140 -0.7708 -0.0712
  405MOL0     C54606   9.211   3.037   1.335 -0.2820  0.7244  1.0259
  405MOL0     C54607   9.069   3.038   1.312 -0.6259  0.2951  0.1621
  405MOL0     H54608   8.626   3.245   1.233 -1.3303  1.1242  0.5929
  405MOL0     H54609   8.379   3.268   1.170 -3.5854  0.1914 -3.2643
  405MOL0     H54610   8.208   3.452   0.857 -2.8375 -2.9170  0.5415
  405MOL0     H54611   8.375   3.414   0.800 -0.0936 -1.1998 -2.2605
  405MOL0     H54612   8.242   3.423   0.609  0.8377 -0.0188 -0.2691
  405MOL0     H54613   8.298   3.264   0.650  0.8811  2.3652 -0.0362
  405MOL0     H54614   8.105   3.180   0.706 -0.2166  1.5957  1.2061
  405MOL0     H54615   8.036   3.331   0.753 -0.4998  3.3443 -2.2946
  405MOL0     H54616   7.989   3.418   0.530 -2.6089 -1.3471 -3.4852
  405MOL0     H54617   8.050   3.265   0.462 -0.2035 -0.9882  0.0742
  405MOL0     H54618   7.865   3.154   0.594 -2.3161 -0.1986 -2.7527
  405MOL0     H54619   7.832   3.310   0.675  1.8038 -1.0622  0.2143
  405MOL0     H54620   7.761   3.405   0.446 -0.4761 -0.3065 -2.8450
  405MOL0     H54621   7.763   3.242   0.385 -2.2202 -0.2348 -0.8714
  405MOL0     H54622   7.610   3.172   0.583 -1.5052 -0.1379 -0.5362
  405MOL0     H54623   7.612   3.343   0.633  0.9702 -1.1259  1.8810
  405MOL0     H54624   7.412   3.304   0.504 -0.6561 -1.1061 -0.5949
  405MOL0     H54625   7.497   3.206   0.390 -0.0785 -0.6197 -0.1141
  405MOL0     H54626   7.403   3.567   0.517  1.6987  2.4891  0.0832
  405MOL0     H54627   7.431   3.827   0.245 -1.7868 -1.1459 -0.4163
  405MOL0     H54628   7.349   3.785   0.392  0.8305  0.3947  2.1615
  405MOL0     H54629   7.652   3.863   0.364  1.8617  1.5184  3.6733
  405MOL0     H54630   7.580   3.840   0.514  2.9460  0.2669 -0.6743
  405MOL0     H54631   7.428   4.049   0.468  1.9286 -0.1889  0.7543
  405MOL0     H54632   7.531   4.055   0.316  3.1926 -2.1955 -0.6682
  405MOL0     H54633   7.658   4.021   0.588  1.9815  0.1388  0.6969
  405MOL0     H54634   7.582   4.169   0.539  1.2032  0.5019  0.3186
  405MOL0     H54635   7.855   4.321   0.317  1.5658 -2.1737 -1.5546
  405MOL0     H54636   8.083   4.578   0.453 -1.5060  0.2209 -0.2974
  405MOL0     H54637   8.124   4.466   0.319 -1.3487 -0.4939 -2.1571
  405MOL0     H54638   7.969   4.534   0.332 -3.7414 -2.9753  2.5675
  405MOL0     H54639   8.188   4.648   0.776 -2.5145  1.6151  1.5418
  405MOL0     H54640   8.328   4.786   0.932 -1.4449  0.8049  0.5571
  405MOL0     H54641   8.515   4.589   1.320  0.6023  3.6226  3.1902
  405MOL0     H54642   8.614   4.572   1.182 -0.5540 -0.5541 -0.8348
  405MOL0     H54643   8.593   4.845   1.333 -2.0180 -2.1360  0.9890
  405MOL0     H54644   8.721   4.722   1.352 -0.5929 -0.6499 -0.4171
  405MOL0     H54645   8.720   4.922   1.148  1.8225  0.0987  0.3004
  405MOL0     H54646   8.697   4.754   1.074  0.9388 -1.0273 -0.4796
  405MOL0     H54647   8.939   4.823   1.224  0.0738  3.6733 -3.0903
  405MOL0     H54648   8.883   4.661   1.170 -0.6747 -1.5752 -3.3450
  405MOL0     H54649   8.924   4.899   0.993 -1.7496 -0.4818 -0.9866
  405MOL0     H54650   8.909   4.726   0.951  0.4681 -0.8985  0.6300
  405MOL0     H54651   9.137   4.887   1.082 -0.7672  0.5532 -1.0149
  405MOL0     H54652   9.134   4.718   1.115 -0.5443 -1.7203 -0.3382
  405MOL0     H54653   9.151   4.858   0.846  1.2606  0.7868  0.1315
  405MOL0     H54654   9.127   4.671   0.852 -0.3200 -0.6773  0.3775
  405MOL0     H54655   9.355   4.726   0.800  1.6931  0.5499 -0.2779
  405MOL0     H54656   9.359   4.658   0.951  0.8531 -1.0293 -0.8022
  405MOL0     H54657   8.392   4.443   1.170  2.3326  0.0599 -0.3786
  405MOL0     H54658   8.251   4.307   1.005 -1.5851  0.9141 -2.1256
  405MOL0     H54659   8.053   4.194   0.738 -1.3621 -3.1710 -0.8284
  405MOL0     H54660   7.845   4.079   0.674 -1.3954 -0.5526 -2.5360
  405MOL0     H54661   8.503   3.243   0.755 -2.3845 -0.4777  0.1437
  405MOL0     H54662   8.732   3.204   0.828 -0.7984 -1.0785 -0.2995
  405MOL0     H54663   9.062   3.259   1.064  1.0337 -1.2080 -1.3852
  405MOL0     H54664   9.300   3.261   1.111 -0.1326 -0.6051  1.4012
  405MOL0     H54665   9.573   3.107   1.465 -1.4477 -1.4178  4.6165
  405MOL0     H54666   9.430   3.027   1.496 -1.0899 -0.1941 -3.1596
  405MOL0     H54667   9.484   2.876   1.285 -0.2543 -0.4780 -0.4357
  405MOL0     H54668   9.605   2.868   1.419 -0.7650 -1.4779 -0.5386
  405MOL0     H54669   9.623   2.993   1.136 -2.7733  1.5988  1.7116
  405MOL0     H54670   9.728   2.869   1.211  0.7565  0.3573 -2.7011
  405MOL0     H54671   9.709   3.177   1.269 -0.7163  0.0924 -0.1000
  405MOL0     H54672   9.843   3.094   1.182  1.7685 -0.0457  1.1226
  405MOL0     H54673   9.942   2.998   1.585  1.3949 -3.5874 -1.0302
  405MOL0     H54674   9.249   2.963   1.404  1.2622 -1.3585 -1.8845
  405MOL0     H54675   8.999   2.974   1.364  0.9385 -1.2039  0.5117
  406MOL0     O54676   7.747   2.740   9.502 -0.1961 -0.1257 -0.5472
  406MOL0     C54677   7.793   2.852   9.528  0.3028 -0.0934 -0.6399
  406MOL0     O54678   7.747   2.969   9.490  0.1918 -0.4843 -0.4428
  406MOL0     C54679   7.628   2.999   9.429  0.2968  0.2468  0.1196
  406MOL0     C54680   7.553   2.904   9.344  0.4951 -1.0113 -0.2751
  406MOL0     C54681   7.449   2.962   9.264  0.1531 -0.0069 -0.1722
  406MOL0     C54682   7.410   3.092   9.268  0.9140  0.2979 -0.5882
  406MOL0     O54683   7.287   3.125   9.208  0.6125 -0.4460 -0.2589
  406MOL0     C54684   7.215   3.248   9.247  0.9910 -0.4223  0.3599
  406MOL0     C54685   7.084   3.280   9.172  0.3028  0.0310  0.8983
  406MOL0     C54686   7.096   3.326   9.033  0.7390 -0.2000  1.0184
  406MOL0     C54687   6.973   3.323   8.943 -0.0320  0.2910 -0.1561
  406MOL0     C54688   7.008   3.387   8.806  0.2744  0.0669 -0.2145
  406MOL0     C54689   6.894   3.398   8.707  0.5179 -0.5941 -0.1822
  406MOL0     C54690   6.829   3.546   8.717 -0.5168  0.1363 -0.9128
  406MOL0     C54691   6.716   3.564   8.615  0.4051 -0.1717  0.5848
  406MOL0     N54692   6.686   3.706   8.587 -0.4784 -0.0433 -0.4416
  406MOL0     C54693   6.569   3.768   8.634  0.0995  0.4564  0.3168
  406MOL0     C54694   6.599   3.897   8.610  0.6460  0.1444 -0.5628
  406MOL0     C54695   6.493   4.007   8.650  0.3060  0.7871  0.5985
  406MOL0     C54696   6.480   4.029   8.804 -0.2165 -0.1987 -0.6715
  406MOL0     C54697   6.615   4.050   8.875  0.2853  0.2198 -0.1799
  406MOL0     C54698   6.683   4.175   8.817  0.6940 -0.5377 -0.8409
  406MOL0     O54699   6.802   4.201   8.883 -0.4563  0.5300  0.1712
  406MOL0     C54700   6.889   4.105   8.918  0.2329 -0.0206 -0.0231
  406MOL0     C54701   6.926   4.085   9.053 -0.2630  1.3813  0.0681
  406MOL0     C54702   7.017   3.979   9.082 -0.4173  0.4098 -0.7119
  406MOL0     C54703   7.041   3.970   9.232  0.4130  0.1325  0.0359
  406MOL0     C54704   7.078   3.898   8.974  0.1049 -0.0702 -0.2383
  406MOL0     C54705   7.192   3.803   8.998 -0.0479  0.1042  0.4286
  406MOL0     O54706   7.279   3.774   8.897  0.1634  0.3465  0.3785
  406MOL0     C54707   7.379   3.677   8.915  0.9003  0.4355  0.0253
  406MOL0     C54708   7.498   3.721   8.972 -0.5051  0.1191  0.0652
  406MOL0     C54709   7.607   3.645   8.955  0.4337  0.9314  0.1117
  406MOL0     C54710   7.602   3.516   8.902 -0.5150  0.4574  0.5772
  406MOL0     O54711   7.712   3.433   8.902  0.2517  0.9917 -1.2191
  406MOL0     C54712   7.793   3.453   8.782 -0.3021 -0.6691  0.2797
  406MOL0     C54713   7.745   3.403   8.640 -1.2962 -0.6475 -0.2146
  406MOL0     C54714   7.829   3.453   8.521  0.6384 -0.6937  0.2420
  406MOL0     C54715   7.975   3.413   8.520  0.0764 -0.0198  0.3293
  406MOL0     C54716   7.989   3.270   8.559  0.4325  0.0465  0.2133
  406MOL0     C54717   8.122   3.222   8.499 -0.3166  0.1595  0.3327
  406MOL0     C54718   8.133   3.069   8.516 -0.1316  0.5866 -0.5555
  406MOL0     C54719   8.064   2.971   8.426  0.0928 -0.7897  0.3990
  406MOL0    Cl54720   8.115   2.989   8.257 -0.3523 -0.3343 -0.1983
  406MOL0     C54721   7.484   3.467   8.852  0.0417  0.3393 -0.0392
  406MOL0     C54722   7.374   3.553   8.854  0.5002 -0.2032 -0.8445
  406MOL0     O54723   7.187   3.750   9.104 -0.1482  0.0328  0.7343
  406MOL0     C54724   7.026   3.927   8.848  0.5048  0.5845 -0.0003
  406MOL0     C54725   6.944   4.024   8.816 -0.0723 -0.4761 -0.3511
  406MOL0     N54726   6.735   3.912   8.564  0.5035  0.5832 -0.1053
  406MOL0     N54727   6.779   3.796   8.550 -0.3387  0.0270  0.3774
  406MOL0     C54728   7.491   3.180   9.340 -0.2633 -0.4587  0.3263
  406MOL0     C54729   7.592   3.133   9.424  0.1207  1.2445 -0.3761
  406MOL0     C54730   7.920   2.848   9.618 -0.3822  1.5199  0.3957
  406MOL0     C54731   7.982   2.965   9.654 -0.6715 -0.6465 -0.3925
  406MOL0     C54732   8.108   2.957   9.734  0.9016  0.7212  0.5499
  406MOL0     C54733   8.159   2.834   9.782 -0.2857  0.8384  0.3512
  406MOL0     O54734   8.266   2.810   9.866  0.3552  0.0687  0.3076
  406MOL0     C54735   8.341   2.908   9.928 -0.2050  0.4456 -0.4304
  406MOL0     C54736   8.286   2.934  10.065 -0.4844  0.6086  0.6352
  406MOL0     C54737   8.373   3.041  10.140  0.4581 -0.1414 -0.1925
  406MOL0     C54738   8.404   3.171  10.067 -1.1185  1.9405 -0.3500
  406MOL0     C54739   8.298   3.245  10.005 -0.5218 -0.6093 -0.7350
  406MOL0     C54740   8.217   3.310   9.954  0.7875  0.2604 -0.4904
  406MOL0     C54741   8.078   2.716   9.750 -0.2263 -1.0236 -1.0358
  406MOL0     C54742   7.965   2.723   9.674  0.0739  0.4744 -0.3475
  406MOL0     H54743   7.582   2.800   9.335 -0.1909 -1.1877 -0.4827
  406MOL0     H54744   7.401   2.890   9.198 -1.1360 -0.6941  1.4615
  406MOL0     H54745   7.191   3.241   9.354 -0.7716 -2.5801 -0.1146
  406MOL0     H54746   7.284   3.333   9.238  1.8264 -1.0355  0.8065
  406MOL0     H54747   7.018   3.193   9.165  0.7987 -0.2307 -2.5785
  406MOL0     H54748   7.036   3.364   9.223 -4.8847  0.2434 -3.4422
  406MOL0     H54749   7.134   3.428   9.018  1.1238 -0.7528 -2.6894
  406MOL0     H54750   7.177   3.272   8.982  0.6895  1.0302 -0.4420
  406MOL0     H54751   6.950   3.217   8.928  0.1619  0.6073 -3.3254
  406MOL0     H54752   6.890   3.364   9.001  0.2865 -0.5629  0.9447
  406MOL0     H54753   7.055   3.486   8.812 -0.3422  0.4651 -1.6344
  406MOL0     H54754   7.093   3.323   8.779 -1.2206 -1.8210 -0.6599
  406MOL0     H54755   6.933   3.367   8.610  1.9195 -1.3757  0.5950
  406MOL0     H54756   6.817   3.322   8.726 -0.9229  0.6607 -0.7754
  406MOL0     H54757   6.797   3.554   8.821  1.2416 -3.8682  0.1153
  406MOL0     H54758   6.902   3.623   8.689 -2.2844  1.3706 -2.4558
  406MOL0     H54759   6.633   3.505   8.655  0.1163 -1.8118 -2.1939
  406MOL0     H54760   6.757   3.509   8.530 -1.2270 -0.7441  0.1185
  406MOL0     H54761   6.482   3.717   8.674 -1.2284  0.3755 -2.4375
  406MOL0     H54762   6.519   4.101   8.600  0.4852 -0.0745 -0.9801
  406MOL0     H54763   6.395   3.973   8.614  0.1521  2.4814 -0.7082
  406MOL0     H54764   6.435   3.934   8.833 -0.1370 -0.4513 -1.3578
  406MOL0     H54765   6.405   4.106   8.823 -1.2935 -0.7207 -2.5080
  406MOL0     H54766   6.682   3.964   8.865  1.2314  0.3226  3.8031
  406MOL0     H54767   6.598   4.063   8.982  3.5518 -0.6164  0.5516
  406MOL0     H54768   6.629   4.264   8.852  0.5784 -1.1493  0.6232
  406MOL0     H54769   6.686   4.192   8.709 -0.0387  0.7017 -0.6946
  406MOL0     H54770   6.886   4.150   9.130  1.1808  0.7292  1.4194
  406MOL0     H54771   6.990   4.042   9.296  1.4719  1.0563 -0.1164
  406MOL0     H54772   7.016   3.866   9.252  0.2057  0.4541  1.5231
  406MOL0     H54773   7.147   3.992   9.250  0.3738 -0.5873  1.2516
  406MOL0     H54774   7.513   3.819   9.017 -0.2047 -0.2339  0.7484
  406MOL0     H54775   7.706   3.672   8.991 -0.2045  2.7003  0.6754
  406MOL0     H54776   7.800   3.562   8.773 -1.8758 -0.6037 -0.7367
  406MOL0     H54777   7.891   3.406   8.790 -1.6450 -4.0046 -1.0698
  406MOL0     H54778   7.741   3.294   8.642 -0.7937 -0.6639  0.0382
  406MOL0     H54779   7.643   3.437   8.618 -0.9940 -0.6556 -1.7691
  406MOL0     H54780   7.841   3.562   8.513  1.9859 -0.9477 -2.5011
  406MOL0     H54781   7.782   3.410   8.432 -1.6333 -3.8373  2.7405
  406MOL0     H54782   8.018   3.432   8.422  0.1133 -1.1045  0.1253
  406MOL0     H54783   8.024   3.475   8.596 -3.2253  5.0297 -1.2055
  406MOL0     H54784   7.905   3.210   8.520 -1.9364  1.9137  2.1290
  406MOL0     H54785   7.977   3.257   8.667  0.2617 -1.4190  0.0426
  406MOL0     H54786   8.130   3.243   8.392 -0.6402  2.7243  0.7529
  406MOL0     H54787   8.207   3.273   8.546 -0.0267  0.5271 -0.5830
  406MOL0     H54788   8.091   3.042   8.613  2.3941 -2.4392 -0.1511
  406MOL0     H54789   8.235   3.030   8.522 -0.4334 -0.1246  0.2706
  406MOL0     H54790   7.957   2.996   8.425 -0.0393 -0.8626  3.1272
  406MOL0     H54791   8.074   2.867   8.458 -2.5740 -0.9219  1.0852
  406MOL0     H54792   7.478   3.371   8.801 -0.0741  0.5388 -0.4018
  406MOL0     H54793   7.282   3.519   8.808 -0.3682 -0.3236  0.8978
  406MOL0     H54794   7.065   3.880   8.758  1.1175 -0.9682  1.0265
  406MOL0     H54795   6.918   4.038   8.712 -0.0177  0.2344 -0.2697
  406MOL0     H54796   7.487   3.287   9.319  1.3346 -0.5269 -0.4640
  406MOL0     H54797   7.658   3.204   9.471  1.2818  0.2300 -0.4163
  406MOL0     H54798   7.966   3.065   9.613 -1.7018  0.5862  2.7611
  406MOL0     H54799   8.139   3.055   9.769 -0.0680  0.5780  1.8753
  406MOL0     H54800   8.447   2.880   9.928 -0.1392  0.6911 -0.3240
  406MOL0     H54801   8.346   2.991   9.857 -1.8148 -1.7184 -3.2825
  406MOL0     H54802   8.297   2.839  10.118  1.8298  0.7101  0.4392
  406MOL0     H54803   8.186   2.980  10.058  0.1253  1.9619  0.4552
  406MOL0     H54804   8.470   2.993  10.158 -0.1199 -1.3589 -0.1778
  406MOL0     H54805   8.333   3.071  10.237  0.9290  4.3556 -1.1649
  406MOL0     H54806   8.484   3.149   9.995  0.3813  2.0866  1.2011
  406MOL0     H54807   8.450   3.228  10.147  3.1666 -3.5595  1.7594
  406MOL0     H54808   8.139   3.350   9.892  1.0351 -3.0577 -3.2904
  406MOL0     H54809   8.117   2.616   9.766  1.1533 -0.8000 -2.6745
  406MOL0     H54810   7.916   2.631   9.645 -1.0149  1.1814 -0.7864
  407MOL0     O54811   6.749   5.595   3.007 -0.6457 -0.0195 -0.3329
  407MOL0     C54812   6.856   5.549   2.983 -0.3772  1.3279 -0.1988
  407MOL0     O54813   6.958   5.540   3.066  0.0208 -0.5752  0.0658
  407MOL0     C54814   6.917   5.547   3.199  0.6605 -0.6921  0.4813
  407MOL0     C54815   6.899   5.427   3.261 -0.2913  0.4957  0.0513
  407MOL0     C54816   6.865   5.433   3.399 -0.3169  0.4689 -0.0143
  407MOL0     C54817   6.841   5.541   3.466  0.6924 -0.7112 -0.8931
  407MOL0     O54818   6.799   5.519   3.597 -0.7707 -0.0506  0.1241
  407MOL0     C54819   6.715   5.409   3.637 -0.1813  0.1871 -0.8560
  407MOL0     C54820   6.616   5.458   3.747 -0.0631 -0.6770  0.1004
  407MOL0     C54821   6.516   5.354   3.795  0.6555  0.8409  0.2474
  407MOL0     C54822   6.437   5.273   3.690  0.3232 -0.4339 -0.4354
  407MOL0     C54823   6.337   5.179   3.769 -0.7934 -0.0790  1.1754
  407MOL0     C54824   6.258   5.092   3.668 -0.1431 -0.1374  0.0959
  407MOL0     C54825   6.193   5.177   3.566  0.7919  0.1407  0.1220
  407MOL0     C54826   6.085   5.107   3.485 -0.6863  0.5325  0.6049
  407MOL0     N54827   5.991   5.031   3.570 -0.3599  0.1340  0.9237
  407MOL0     C54828   5.944   4.907   3.548  0.5960  0.2193 -0.7177
  407MOL0     C54829   5.862   4.879   3.656  0.0025 -0.5936  0.4031
  407MOL0     C54830   5.787   4.756   3.678 -1.0595 -0.4862 -0.0175
  407MOL0     C54831   5.789   4.715   3.833 -1.1009 -0.1277 -0.0007
  407MOL0     C54832   5.758   4.566   3.869  0.1702  0.6410  0.1686
  407MOL0     C54833   5.643   4.503   3.797 -0.2291 -0.1446  0.1819
  407MOL0     O54834   5.520   4.544   3.856  0.1913  0.3838 -0.1539
  407MOL0     C54835   5.408   4.463   3.869  0.7076 -0.7525  0.1795
  407MOL0     C54836   5.297   4.522   3.928  0.1217 -0.0599  0.1565
  407MOL0     C54837   5.170   4.453   3.943  0.2224  0.9032 -0.2526
  407MOL0     C54838   5.067   4.531   4.012  0.1093  0.3059  0.0854
  407MOL0     C54839   5.170   4.320   3.907 -0.1627 -0.3878 -0.4131
  407MOL0     C54840   5.050   4.232   3.924  0.8014  0.4045  0.0314
  407MOL0     O54841   5.069   4.095   3.935  0.0900  0.2671  0.3623
  407MOL0     C54842   4.959   4.015   3.935  0.0673 -0.3522  0.9848
  407MOL0     C54843   4.874   4.008   4.041  0.6862 -0.1446  0.1091
  407MOL0     C54844   4.758   3.932   4.036  0.5386 -0.7519  1.2799
  407MOL0     C54845   4.735   3.857   3.923 -0.3427 -0.2483 -0.5685
  407MOL0     O54846   4.623   3.780   3.889  0.3799  0.6178  0.1203
  407MOL0     C54847   4.500   3.786   3.958  0.4314  0.0855  0.0736
  407MOL0     C54848   4.382   3.766   3.868 -0.2716  0.7120  0.3849
  407MOL0     C54849   4.380   3.871   3.752  0.0854 -0.6226 -0.6641
  407MOL0     C54850   4.291   3.840   3.633 -0.4304  0.2481 -0.3744
  407MOL0     C54851   4.158   3.808   3.682  0.3225  0.3332 -0.7765
  407MOL0     C54852   4.058   3.819   3.562  1.0418  0.6022  0.6397
  407MOL0     C54853   3.907   3.803   3.614  0.2164 -0.5153 -0.3202
  407MOL0     C54854   3.876   3.677   3.693  0.2005 -0.5988  0.1535
  407MOL0    Cl54855   3.882   3.554   3.565 -0.6714 -0.6586 -0.2476
  407MOL0     C54856   4.825   3.862   3.815  0.3474 -0.2447  0.3083
  407MOL0     C54857   4.947   3.934   3.821  0.8968  0.2452  0.1273
  407MOL0     O54858   4.941   4.288   3.927  0.3749 -0.5789 -0.5194
  407MOL0     C54859   5.285   4.259   3.846 -0.8519  0.5984  0.2448
  407MOL0     C54860   5.402   4.333   3.831  0.2789  0.0626 -0.3986
  407MOL0     N54861   5.846   4.991   3.725  0.0716  0.9580  0.1405
  407MOL0     N54862   5.925   5.081   3.676 -0.0830  1.2087  0.4008
  407MOL0     C54863   6.850   5.663   3.406 -0.3597  0.2373  0.1368
  407MOL0     C54864   6.889   5.667   3.269 -0.0534 -0.8524  0.6667
  407MOL0     C54865   6.887   5.504   2.843  0.4122 -0.2337  0.0573
  407MOL0     C54866   7.002   5.420   2.810  0.4336 -0.0836 -0.7392
  407MOL0     C54867   7.016   5.367   2.689 -0.2990 -0.0139  0.6946
  407MOL0     C54868   6.919   5.386   2.589  0.0462  0.5468 -0.3276
  407MOL0     O54869   6.937   5.327   2.466 -0.9618  0.0346 -0.5572
  407MOL0     C54870   7.007   5.409   2.368  0.5994  0.2444 -0.2247
  407MOL0     C54871   7.162   5.405   2.400 -0.2381 -0.2301  0.4699
  407MOL0     C54872   7.261   5.419   2.286 -0.3697  0.3151 -0.1251
  407MOL0     C54873   7.391   5.356   2.325 -0.2608 -0.0184  0.1917
  407MOL0     C54874   7.497   5.420   2.238  0.1428  0.3485  0.3813
  407MOL0     C54875   7.573   5.476   2.159  0.1943  0.1508 -0.2308
  407MOL0     C54876   6.816   5.477   2.616  0.5016  0.1283 -0.1144
  407MOL0     C54877   6.793   5.527   2.745 -0.6555 -0.0346  0.3156
  407MOL0     H54878   6.917   5.333   3.210 -0.2549  0.0619  0.8338
  407MOL0     H54879   6.866   5.337   3.450  2.3652  0.6157  0.3752
  407MOL0     H54880   6.654   5.378   3.552  1.1551 -1.7032 -1.1723
  407MOL0     H54881   6.770   5.326   3.682 -2.0469  0.1103  1.4841
  407MOL0     H54882   6.666   5.508   3.830  0.6569 -0.3854 -0.4969
  407MOL0     H54883   6.551   5.530   3.697  1.6689 -0.2484 -1.6826
  407MOL0     H54884   6.567   5.282   3.858  1.2867  2.8573  2.1645
  407MOL0     H54885   6.443   5.413   3.851 -1.1716 -1.9511  0.9930
  407MOL0     H54886   6.403   5.349   3.619  0.9923 -0.8256 -1.1930
  407MOL0     H54887   6.507   5.208   3.637  0.5084 -1.1088  0.5999
  407MOL0     H54888   6.393   5.109   3.832 -0.6715 -1.4751 -0.4103
  407MOL0     H54889   6.268   5.231   3.836 -1.2523 -0.7366  1.2223
  407MOL0     H54890   6.323   5.026   3.610 -1.6214  0.0648 -1.8631
  407MOL0     H54891   6.197   5.025   3.730  1.1908 -0.2467  1.3634
  407MOL0     H54892   6.142   5.260   3.616  1.1895  2.3679 -2.8760
  407MOL0     H54893   6.269   5.220   3.500  1.8846  0.6402  1.6748
  407MOL0     H54894   6.138   5.054   3.406  2.9990  1.3473  2.3011
  407MOL0     H54895   6.027   5.184   3.435  0.5599  0.8735 -0.3617
  407MOL0     H54896   5.986   4.846   3.469  3.8021  1.0349  0.1985
  407MOL0     H54897   5.680   4.766   3.658 -0.6902  0.8442 -1.5824
  407MOL0     H54898   5.839   4.679   3.619 -0.5577  0.4168 -0.7835
  407MOL0     H54899   5.708   4.772   3.881 -1.2166 -0.8991  0.7359
  407MOL0     H54900   5.884   4.750   3.875 -0.7502  0.6580 -1.3909
  407MOL0     H54901   5.730   4.550   3.973 -1.0445 -1.4019 -0.4343
  407MOL0     H54902   5.852   4.517   3.842  0.3147  0.9039  0.1799
  407MOL0     H54903   5.648   4.394   3.803 -2.7930 -0.2510  1.6467
  407MOL0     H54904   5.635   4.538   3.694 -2.3499 -2.9671 -0.7509
  407MOL0     H54905   5.298   4.625   3.960 -1.1106 -0.3471  1.1764
  407MOL0     H54906   5.046   4.484   4.108 -1.1877 -0.5839 -0.6053
  407MOL0     H54907   5.089   4.637   4.024 -1.1084  1.0709 -3.2751
  407MOL0     H54908   4.975   4.530   3.952  2.0718  4.1257 -3.5196
  407MOL0     H54909   4.873   4.084   4.119 -1.7133 -0.1754  0.2017
  407MOL0     H54910   4.678   3.934   4.109 -3.0543 -0.2583 -2.3342
  407MOL0     H54911   4.490   3.716   4.042 -0.0438 -2.6967 -2.1644
  407MOL0     H54912   4.500   3.887   4.001  1.9680 -0.2139  0.8637
  407MOL0     H54913   4.391   3.666   3.824  0.8611  0.4186  1.2588
  407MOL0     H54914   4.285   3.776   3.919 -0.5099  4.4841 -0.5222
  407MOL0     H54915   4.480   3.901   3.719  0.4589  2.0622  2.4227
  407MOL0     H54916   4.340   3.960   3.802 -2.3058 -2.2701  0.5584
  407MOL0     H54917   4.285   3.932   3.575 -0.0076  0.8721  0.5401
  407MOL0     H54918   4.342   3.757   3.584 -1.3329 -2.1126  2.4136
  407MOL0     H54919   4.133   3.882   3.759 -1.3939 -1.7265  0.7694
  407MOL0     H54920   4.161   3.709   3.728  2.4257  0.8066  0.2014
  407MOL0     H54921   4.067   3.912   3.506 -3.3553  0.8182 -0.0540
  407MOL0     H54922   4.079   3.731   3.500  0.4922 -0.0334  1.3473
  407MOL0     H54923   3.849   3.791   3.521 -0.8403 -0.0136  0.2534
  407MOL0     H54924   3.885   3.886   3.681 -1.3940 -0.6941 -0.5819
  407MOL0     H54925   3.774   3.679   3.732  1.0253  1.0343  2.3727
  407MOL0     H54926   3.950   3.668   3.772 -4.1634 -3.5758  4.5423
  407MOL0     H54927   4.796   3.809   3.725  1.6506  2.4908 -1.8855
  407MOL0     H54928   5.021   3.940   3.742 -0.1464  3.2527 -0.7459
  407MOL0     H54929   5.291   4.159   3.806 -0.2637  0.7434 -0.0465
  407MOL0     H54930   5.478   4.289   3.767  0.3742 -3.0431  1.6424
  407MOL0     H54931   6.815   5.744   3.470 -2.5461 -2.1187  2.1813
  407MOL0     H54932   6.879   5.763   3.220  0.1407 -0.1425  1.9685
  407MOL0     H54933   7.065   5.385   2.891 -0.1936  2.1089  0.7759
  407MOL0     H54934   7.100   5.299   2.677  1.9817  2.3875  1.8659
  407MOL0     H54935   6.974   5.371   2.271  0.7682  0.5548 -0.4052
  407MOL0     H54936   6.969   5.512   2.375 -1.7606 -0.5128 -0.9568
  407MOL0     H54937   7.176   5.305   2.442  1.9956 -0.2264 -0.1210
  407MOL0     H54938   7.182   5.472   2.484 -0.7155 -1.2497  1.4160
  407MOL0     H54939   7.258   5.519   2.242  0.7078 -0.3148 -1.7123
  407MOL0     H54940   7.223   5.352   2.208  1.3570  1.0179 -1.6263
  407MOL0     H54941   7.374   5.248   2.314 -1.2947  0.2227 -0.7687
  407MOL0     H54942   7.423   5.373   2.428  2.0220 -0.3731 -0.4007
  407MOL0     H54943   7.642   5.515   2.086  0.0418 -0.6244 -0.8019
  407MOL0     H54944   6.746   5.513   2.540 -0.5955 -0.1863  0.7144
  407MOL0     H54945   6.700   5.584   2.751  1.3779  3.8111 -1.2999
  408MOL0     O54946   7.051   2.366   4.066  0.4695 -0.1523  0.8192
  408MOL0     C54947   6.959   2.393   4.139 -0.0040  0.0956 -0.2466
  408MOL0     O54948   6.878   2.514   4.134  0.4422  0.7493  0.2530
  408MOL0     C54949   6.924   2.599   4.031  0.1777 -0.1071  0.0880
  408MOL0     C54950   6.835   2.624   3.919 -0.6489 -0.0090 -0.2828
  408MOL0     C54951   6.876   2.718   3.822  0.4586  0.5194 -0.0678
  408MOL0     C54952   6.994   2.793   3.831 -0.2772  0.4246  0.3811
  408MOL0     O54953   7.036   2.875   3.724 -0.2087 -0.7335  1.1750
  408MOL0     C54954   7.112   2.997   3.751  0.3245  0.1146 -1.5117
  408MOL0     C54955   7.133   3.063   3.617 -0.3657 -0.4012  0.0285
  408MOL0     C54956   7.173   3.209   3.637  1.3969 -0.2647  0.0481
  408MOL0     C54957   7.089   3.309   3.556  0.7085 -0.3942  0.4477
  408MOL0     C54958   7.131   3.456   3.559  0.5312 -0.2642  0.2007
  408MOL0     C54959   7.271   3.472   3.502  0.8763  0.1195 -0.3251
  408MOL0     C54960   7.287   3.622   3.442  0.1853  1.0411 -0.5803
  408MOL0     C54961   7.428   3.627   3.390 -0.7119  0.7811 -0.2812
  408MOL0     N54962   7.469   3.763   3.368  0.0820  0.9057 -0.0695
  408MOL0     C54963   7.515   3.857   3.454 -1.1367 -0.4575  0.6900
  408MOL0     C54964   7.550   3.962   3.369 -0.2247  0.3227 -0.0635
  408MOL0     C54965   7.609   4.090   3.407  0.2603 -0.1797  0.0377
  408MOL0     C54966   7.755   4.049   3.441  0.6582  0.7412 -0.2167
  408MOL0     C54967   7.762   4.054   3.596 -0.5880 -0.3007 -0.7662
  408MOL0     C54968   7.881   3.973   3.661  0.0910 -0.3861  0.5260
  408MOL0     O54969   8.001   4.037   3.621 -0.0948 -0.1620  0.6487
  408MOL0     C54970   8.110   3.965   3.635 -0.3536  0.3306  0.4811
  408MOL0     C54971   8.134   3.879   3.741 -0.0895  0.8864  0.9492
  408MOL0     C54972   8.259   3.819   3.746 -0.2615  0.0975  0.2191
  408MOL0     C54973   8.281   3.716   3.850 -1.0778 -0.6036 -1.0972
  408MOL0     C54974   8.354   3.830   3.641  0.0956  0.4053  0.6239
  408MOL0     C54975   8.484   3.756   3.626  0.3400 -1.2665 -0.1440
  408MOL0     O54976   8.551   3.751   3.744  0.2404 -0.3799  0.3645
  408MOL0     C54977   8.681   3.707   3.727 -0.4216  0.9365  0.8027
  408MOL0     C54978   8.727   3.582   3.772 -1.0859 -0.0689 -0.5294
  408MOL0     C54979   8.860   3.531   3.773 -1.3089 -0.5180 -0.0125
  408MOL0     C54980   8.958   3.616   3.718  0.0191 -0.0765  1.2173
  408MOL0     O54981   9.097   3.585   3.713 -0.3158  0.0026 -0.9356
  408MOL0     C54982   9.154   3.469   3.769  0.3465 -0.2700 -0.0924
  408MOL0     C54983   9.296   3.493   3.817 -0.8062  0.3124  0.8627
  408MOL0     C54984   9.380   3.364   3.839  0.9425 -0.2384 -0.0272
  408MOL0     C54985   9.520   3.389   3.895  1.0110 -0.0931 -0.0729
  408MOL0     C54986   9.609   3.266   3.917 -0.2026  1.0328 -0.4687
  408MOL0     C54987   9.665   3.204   3.792  0.9095  0.4013 -0.4852
  408MOL0     C54988   9.700   3.055   3.801  0.2574 -1.0572  0.1745
  408MOL0     C54989   9.818   3.029   3.899 -0.5350  0.3384  0.3936
  408MOL0    Cl54990   9.926   3.178   3.915 -0.7461  0.2089  0.1839
  408MOL0     C54991   8.913   3.742   3.663 -0.2666 -0.2872 -0.4760
  408MOL0     C54992   8.779   3.784   3.669  0.4048  0.6110 -0.1568
  408MOL0     O54993   8.525   3.732   3.509  0.1056 -1.0208 -0.2839
  408MOL0     C54994   8.327   3.919   3.540  0.8824 -0.4855  0.8987
  408MOL0     C54995   8.203   3.983   3.535 -0.1629  0.4584  0.1021
  408MOL0     N54996   7.523   3.921   3.233  0.3663  0.2196 -0.1766
  408MOL0     N54997   7.466   3.807   3.245  0.2767  0.9684 -0.5815
  408MOL0     C54998   7.086   2.766   3.935 -0.6138  0.1547  0.5972
  408MOL0     C54999   7.049   2.658   4.034 -0.2988 -1.3216  0.5285
  408MOL0     C55000   6.936   2.309   4.256 -0.1414 -0.2235  0.1136
  408MOL0     C55001   7.008   2.189   4.261 -1.2304 -0.1821  0.4988
  408MOL0     C55002   7.001   2.106   4.376  0.0117  0.4363  0.8025
  408MOL0     C55003   6.903   2.132   4.475  0.2282 -0.4388  0.5519
  408MOL0     O55004   6.879   2.049   4.582 -0.1755 -0.3603  0.4645
  408MOL0     C55005   6.961   1.938   4.598 -0.0262 -0.1381 -0.9618
  408MOL0     C55006   6.910   1.841   4.712 -0.0323 -0.1746  0.2916
  408MOL0     C55007   7.003   1.721   4.718 -0.2157  1.1394  0.0723
  408MOL0     C55008   6.962   1.617   4.833  0.1047 -0.1600 -0.4422
  408MOL0     C55009   6.851   1.526   4.800 -0.3631 -0.4469  0.1381
  408MOL0     C55010   6.760   1.468   4.748 -0.0816 -0.3020  0.1934
  408MOL0     C55011   6.820   2.244   4.461 -0.5155 -0.3837  0.1715
  408MOL0     C55012   6.840   2.334   4.354  0.8437  0.6801  0.6376
  408MOL0     H55013   6.736   2.582   3.909 -0.3284 -0.9206  0.2175
  408MOL0     H55014   6.827   2.744   3.729 -0.1027  3.7871  1.0202
  408MOL0     H55015   7.049   3.063   3.811 -0.0592 -0.3859 -1.3657
  408MOL0     H55016   7.209   2.977   3.798 -0.9766 -0.8929  0.9430
  408MOL0     H55017   7.220   3.016   3.570  0.5977  0.8021  0.5512
  408MOL0     H55018   7.045   3.056   3.553 -0.1777 -1.1375 -0.1517
  408MOL0     H55019   7.172   3.243   3.741  2.8402 -2.1540  0.7253
  408MOL0     H55020   7.275   3.228   3.602  1.2453 -0.3956 -0.4795
  408MOL0     H55021   7.094   3.268   3.454 -0.7522 -1.0258  0.6085
  408MOL0     H55022   6.982   3.314   3.580  1.0833  1.0432  1.9909
  408MOL0     H55023   7.065   3.525   3.505 -0.9547 -2.6219 -1.1817
  408MOL0     H55024   7.135   3.499   3.660  0.6044  2.7533 -0.9813
  408MOL0     H55025   7.357   3.453   3.567  0.4551 -1.0053 -0.0870
  408MOL0     H55026   7.281   3.395   3.425 -2.3932  1.0242 -1.8416
  408MOL0     H55027   7.219   3.651   3.361 -1.4010  1.0328  0.6956
  408MOL0     H55028   7.264   3.695   3.520 -0.8339  1.6721 -1.4329
  408MOL0     H55029   7.445   3.559   3.306  0.8415 -2.8707  2.7013
  408MOL0     H55030   7.491   3.581   3.466 -0.3112  0.4421 -0.8114
  408MOL0     H55031   7.541   3.853   3.559 -0.9160  1.2685  0.7320
  408MOL0     H55032   7.609   4.160   3.324 -0.3627 -0.0354  0.1551
  408MOL0     H55033   7.558   4.133   3.494 -1.0078 -1.4294 -0.0574
  408MOL0     H55034   7.824   4.124   3.401 -0.5106  2.6134  1.1266
  408MOL0     H55035   7.777   3.953   3.392 -0.5893  0.4233 -0.1872
  408MOL0     H55036   7.670   4.024   3.646  0.4110  0.6533  1.8331
  408MOL0     H55037   7.779   4.159   3.623 -1.4159 -0.1060 -0.9695
  408MOL0     H55038   7.874   3.873   3.615 -0.7040 -1.4342  2.7940
  408MOL0     H55039   7.868   3.959   3.769 -2.8251  0.2252  0.3430
  408MOL0     H55040   8.053   3.869   3.813  0.1880  0.7278  1.2430
  408MOL0     H55041   8.185   3.694   3.897 -0.2317 -3.1355 -0.3558
  408MOL0     H55042   8.318   3.623   3.804  3.2676  0.2477  0.2090
  408MOL0     H55043   8.355   3.751   3.922 -0.5428  0.4037 -2.1070
  408MOL0     H55044   8.653   3.510   3.804  0.0629 -1.5855 -1.1924
  408MOL0     H55045   8.872   3.427   3.801  0.1518 -0.3946 -0.0694
  408MOL0     H55046   9.096   3.434   3.855  0.2950 -0.3871 -0.1757
  408MOL0     H55047   9.152   3.392   3.692 -2.2933 -1.1252  0.7142
  408MOL0     H55048   9.348   3.570   3.758 -1.6739  1.2001  1.2267
  408MOL0     H55049   9.277   3.529   3.918 -1.9110 -0.4006  0.9250
  408MOL0     H55050   9.386   3.313   3.742 -1.7049 -1.0355  0.1476
  408MOL0     H55051   9.324   3.301   3.909  2.3480 -0.9277  0.5092
  408MOL0     H55052   9.578   3.454   3.828  1.4626 -2.2061 -1.8527
  408MOL0     H55053   9.509   3.444   3.989  1.6026 -0.5598  0.2794
  408MOL0     H55054   9.566   3.191   3.983 -1.1371 -0.6291 -2.8245
  408MOL0     H55055   9.702   3.305   3.959 -0.8909  0.4399  1.7307
  408MOL0     H55056   9.592   3.221   3.712  1.8319  0.0960 -1.4109
  408MOL0     H55057   9.750   3.261   3.753  2.3003 -0.3532  1.3433
  408MOL0     H55058   9.726   3.019   3.701 -1.8979 -0.3066 -0.7196
  408MOL0     H55059   9.616   2.993   3.833  0.4292  0.3842  3.9991
  408MOL0     H55060   9.884   2.944   3.882 -1.2805 -0.2318  0.2840
  408MOL0     H55061   9.773   3.021   3.999 -2.4716 -0.4905 -0.4803
  408MOL0     H55062   8.981   3.795   3.597 -1.5175  0.1478 -1.4830
  408MOL0     H55063   8.751   3.882   3.632 -1.1562  1.1098  2.0960
  408MOL0     H55064   8.397   3.936   3.459 -2.8778 -0.6281 -2.7516
  408MOL0     H55065   8.180   4.034   3.442  3.0149  1.4702 -0.2358
  408MOL0     H55066   7.188   2.802   3.942  0.5421 -1.8901 -3.2206
  408MOL0     H55067   7.121   2.625   4.108  0.3135 -5.7471 -1.6443
  408MOL0     H55068   7.085   2.162   4.190 -1.8027  0.1798 -0.2848
  408MOL0     H55069   7.070   2.022   4.376 -0.6451 -0.1195 -0.2301
  408MOL0     H55070   6.962   1.876   4.507 -1.5791 -1.6318 -0.0206
  408MOL0     H55071   7.064   1.965   4.623 -0.5295 -0.2335  1.4154
  408MOL0     H55072   6.808   1.810   4.687  0.7335 -1.3582 -1.6584
  408MOL0     H55073   6.909   1.902   4.803 -2.2068  2.8146 -1.5295
  408MOL0     H55074   7.106   1.753   4.735  1.2027 -2.0721 -1.7213
  408MOL0     H55075   7.003   1.665   4.625 -3.6343  0.2948  0.4382
  408MOL0     H55076   6.943   1.668   4.928 -0.9553 -0.4749 -0.4793
  408MOL0     H55077   7.050   1.553   4.845  0.9332  1.0895  0.4349
  408MOL0     H55078   6.679   1.418   4.698 -1.2957  2.0333 -0.3362
  408MOL0     H55079   6.745   2.263   4.537 -0.0647 -1.1655  0.8239
  408MOL0     H55080   6.766   2.410   4.330  0.9935  0.2106 -1.5047
  409MOL0     O55081   1.573  11.156   9.129 -0.4703  0.1029  0.1779
  409MOL0     C55082   1.520  11.051   9.166 -0.0440  0.6402 -0.1481
  409MOL0     O55083   1.532  10.928   9.107 -0.4913 -0.0992  0.2680
  409MOL0     C55084   1.574  10.940   8.973 -0.8060 -0.9967 -0.1417
  409MOL0     C55085   1.503  11.023   8.878  1.4748 -0.5863 -0.6964
  409MOL0     C55086   1.544  11.029   8.745  0.3220 -0.3226 -0.1761
  409MOL0     C55087   1.652  10.956   8.711 -0.5472  0.2005  0.2697
  409MOL0     O55088   1.687  10.971   8.578  0.3710 -0.1321 -0.1438
  409MOL0     C55089   1.814  10.935   8.526  0.3241 -0.5092 -0.4478
  409MOL0     C55090   1.796  10.801   8.458  0.0044 -0.2705 -0.0240
  409MOL0     C55091   1.932  10.754   8.398 -0.3595  0.4920  0.1828
  409MOL0     C55092   1.919  10.641   8.304  0.2966  0.3123 -0.2534
  409MOL0     C55093   2.046  10.611   8.237  1.4049 -0.1111 -0.4287
  409MOL0     C55094   2.045  10.467   8.191  0.7203 -0.5532 -0.9847
  409MOL0     C55095   2.178  10.431   8.119  0.1942  0.2289 -0.3593
  409MOL0     C55096   2.176  10.293   8.067  0.4888 -1.0046 -0.5162
  409MOL0     N55097   2.288  10.271   7.992 -0.7229 -0.4754 -1.0539
  409MOL0     C55098   2.357  10.346   7.903  0.0767  0.7726 -0.3005
  409MOL0     C55099   2.485  10.294   7.889 -0.5643 -0.4277  0.9815
  409MOL0     C55100   2.599  10.335   7.800  0.0646 -0.5791  0.2588
  409MOL0     C55101   2.597  10.269   7.654  0.5315  0.3108  0.9122
  409MOL0     C55102   2.509  10.339   7.547  0.5150 -0.8053  0.0478
  409MOL0     C55103   2.534  10.486   7.516 -0.4773 -0.2764 -0.7257
  409MOL0     O55104   2.466  10.535   7.402 -0.0711  0.4274  0.1684
  409MOL0     C55105   2.504  10.496   7.275  0.4564  0.1880  1.0548
  409MOL0     C55106   2.628  10.445   7.232 -0.2348  0.6748 -0.3518
  409MOL0     C55107   2.659  10.387   7.112  0.0723 -0.7330  0.3533
  409MOL0     C55108   2.795  10.328   7.095 -0.8305  0.7816  0.1519
  409MOL0     C55109   2.555  10.407   7.011 -0.8553  0.1019 -1.1193
  409MOL0     C55110   2.588  10.386   6.863  0.3721  0.9063 -0.6434
  409MOL0     O55111   2.518  10.447   6.771  0.5087  0.0007  0.4982
  409MOL0     C55112   2.574  10.461   6.646  0.1706 -0.0462 -0.8447
  409MOL0     C55113   2.689  10.543   6.632 -0.2450  0.1074 -0.2883
  409MOL0     C55114   2.738  10.568   6.505 -0.2735 -0.1076  0.4150
  409MOL0     C55115   2.672  10.521   6.384  0.1222  0.3092 -0.9893
  409MOL0     O55116   2.733  10.554   6.263  0.5484 -0.1522 -0.8402
  409MOL0     C55117   2.799  10.445   6.197 -0.5405 -0.2636  0.2112
  409MOL0     C55118   2.810  10.478   6.046  0.1801  0.1083  0.7401
  409MOL0     C55119   2.931  10.570   6.010  0.5874 -0.5730 -0.7115
  409MOL0     C55120   3.050  10.497   5.957 -1.0431  0.6925 -0.0865
  409MOL0     C55121   3.115  10.413   6.081  0.4164 -0.0698  0.8746
  409MOL0     C55122   3.252  10.364   6.039 -0.1539  0.1976  0.6673
  409MOL0     C55123   3.348  10.330   6.158  0.0292 -0.0922 -0.9624
  409MOL0     C55124   3.485  10.292   6.107 -0.0176 -0.5155 -0.6373
  409MOL0    Cl55125   3.530  10.120   6.148  0.5330 -0.7857 -0.4471
  409MOL0     C55126   2.560  10.439   6.408  0.4987 -0.6053  0.7381
  409MOL0     C55127   2.510  10.417   6.533  0.1517 -0.1073  0.2738
  409MOL0     O55128   2.685  10.311   6.845  0.0062 -0.1962  0.0393
  409MOL0     C55129   2.432  10.464   7.050 -0.3295 -0.1551 -0.0426
  409MOL0     C55130   2.404  10.511   7.174  0.4767  0.3350 -0.2042
  409MOL0     N55131   2.492  10.179   7.974 -0.3577 -0.0282 -0.5893
  409MOL0     N55132   2.372  10.176   8.038 -0.2245  0.0496  0.5323
  409MOL0     C55133   1.723  10.880   8.793  0.3007  0.2942 -0.5365
  409MOL0     C55134   1.682  10.876   8.926  1.0468  0.3928  0.4118
  409MOL0     C55135   1.428  11.051   9.283  0.6305  0.8127 -0.5379
  409MOL0     C55136   1.405  11.165   9.361  0.3324  0.2269  0.5781
  409MOL0     C55137   1.311  11.166   9.468 -0.4206 -0.2079 -0.2304
  409MOL0     C55138   1.246  11.048   9.512 -0.0513 -0.4628 -0.4567
  409MOL0     O55139   1.165  11.036   9.623  0.0376  0.2746 -1.1045
  409MOL0     C55140   1.142  11.149   9.714 -0.2632 -0.1965  0.0709
  409MOL0     C55141   1.256  11.159   9.805  0.2983  0.5756  0.7369
  409MOL0     C55142   1.237  11.265   9.904 -0.5094 -0.1588  0.2364
  409MOL0     C55143   1.330  11.257  10.024  0.2011  0.2979 -0.6585
  409MOL0     C55144   1.469  11.282   9.987 -0.0525  0.5102 -0.1706
  409MOL0     C55145   1.585  11.313   9.978 -0.1120  0.7814  0.0888
  409MOL0     C55146   1.267  10.933   9.435  0.1184 -1.1105  0.0063
  409MOL0     C55147   1.359  10.939   9.330 -0.8117  0.6279  0.3380
  409MOL0     H55148   1.406  11.067   8.900  3.4327  4.2024 -0.3994
  409MOL0     H55149   1.506  11.090   8.663  0.6982  0.3591  0.1463
  409MOL0     H55150   1.851  11.010   8.455  0.5489  0.3066  0.5157
  409MOL0     H55151   1.874  10.944   8.617 -3.1997  2.3500  1.8857
  409MOL0     H55152   1.768  10.722   8.529  2.2401 -1.4640 -0.3757
  409MOL0     H55153   1.723  10.817   8.377  1.1499  2.2621 -0.6477
  409MOL0     H55154   1.981  10.836   8.345  0.8682 -2.0190 -2.8916
  409MOL0     H55155   1.998  10.733   8.484  0.6222  1.8249 -0.2245
  409MOL0     H55156   1.881  10.549   8.350  0.2894 -1.8041 -4.0976
  409MOL0     H55157   1.841  10.653   8.228  0.1004 -2.5550 -0.6007
  409MOL0     H55158   2.055  10.674   8.148  0.9497  2.7360  1.4283
  409MOL0     H55159   2.136  10.636   8.294  1.9112  1.6132 -1.9061
  409MOL0     H55160   2.015  10.408   8.278  2.5064  1.9522  1.5460
  409MOL0     H55161   1.971  10.462   8.111 -0.0841  2.6389 -0.6195
  409MOL0     H55162   2.187  10.514   8.048 -2.1332 -0.8207 -2.0265
  409MOL0     H55163   2.257  10.450   8.192  0.6585 -0.3413 -0.7100
  409MOL0     H55164   2.086  10.272   8.008  0.6650 -4.1936  0.1481
  409MOL0     H55165   2.166  10.229   8.155 -2.4454 -0.4058 -0.2871
  409MOL0     H55166   2.316  10.436   7.858  1.6804  1.8036  0.2567
  409MOL0     H55167   2.608  10.442   7.782  0.6740 -0.8538 -1.1990
  409MOL0     H55168   2.692  10.296   7.845  0.4782 -0.2782 -0.3207
  409MOL0     H55169   2.570  10.163   7.664  0.1195  0.1823 -1.0578
  409MOL0     H55170   2.700  10.273   7.616  0.5763  2.2413  1.1617
  409MOL0     H55171   2.402  10.329   7.564  0.8429 -0.2108  2.9081
  409MOL0     H55172   2.538  10.284   7.457  3.1798  2.0938 -1.0394
  409MOL0     H55173   2.641  10.507   7.516 -0.1963 -0.5611  3.9439
  409MOL0     H55174   2.491  10.533   7.605  0.0210 -1.2557  0.0519
  409MOL0     H55175   2.704  10.444   7.310 -1.8566  2.6127  1.3776
  409MOL0     H55176   2.785  10.224   7.065 -0.2255 -0.0915  2.6641
  409MOL0     H55177   2.859  10.385   7.026  2.4677 -1.0150  1.4723
  409MOL0     H55178   2.835  10.320   7.197 -2.5545  1.3636  0.9017
  409MOL0     H55179   2.739  10.586   6.718 -0.0238 -0.0744 -0.3224
  409MOL0     H55180   2.819  10.639   6.493 -0.7495  0.5601  1.0523
  409MOL0     H55181   2.902  10.432   6.231  1.0068  0.7985 -3.4970
  409MOL0     H55182   2.754  10.346   6.209  1.5956 -1.2421  0.4707
  409MOL0     H55183   2.821  10.387   5.987  0.1545  0.5018  0.1175
  409MOL0     H55184   2.709  10.508   6.016 -0.4752 -0.8669  1.8546
  409MOL0     H55185   2.950  10.618   6.106 -1.4822 -2.9218  0.9853
  409MOL0     H55186   2.905  10.645   5.935 -2.5665  0.5600  1.3169
  409MOL0     H55187   3.022  10.426   5.878  3.5075 -1.2584 -0.2524
  409MOL0     H55188   3.115  10.569   5.907 -3.5557  2.1179 -1.5309
  409MOL0     H55189   3.050  10.335   6.123  0.7007 -1.6396 -1.4399
  409MOL0     H55190   3.132  10.486   6.161  2.7626 -0.3016  0.6451
  409MOL0     H55191   3.236  10.276   5.977 -1.0516  0.9184 -0.1567
  409MOL0     H55192   3.289  10.447   5.977 -0.8537 -0.4228 -0.6203
  409MOL0     H55193   3.298  10.249   6.212  3.0488 -1.4024  0.0869
  409MOL0     H55194   3.345  10.412   6.230  0.1438  0.3005 -1.4038
  409MOL0     H55195   3.552  10.368   6.149 -3.0603  1.4169  1.1191
  409MOL0     H55196   3.480  10.297   5.998  2.0848  3.9165 -0.7452
  409MOL0     H55197   2.508  10.401   6.321  0.1660 -0.6103  0.9373
  409MOL0     H55198   2.416  10.364   6.548  1.3842 -2.8603 -0.8815
  409MOL0     H55199   2.350  10.470   6.979  1.3023  2.2390 -1.9283
  409MOL0     H55200   2.310  10.557   7.200  0.8043 -0.2249  2.2136
  409MOL0     H55201   1.812  10.825   8.762 -1.1693 -0.5025 -3.7312
  409MOL0     H55202   1.735  10.797   8.979  0.5616 -2.8586 -3.4359
  409MOL0     H55203   1.440  11.264   9.332 -1.1726  1.2188  1.9778
  409MOL0     H55204   1.292  11.264   9.511  0.6019  0.0890 -0.4220
  409MOL0     H55205   1.138  11.243   9.659  0.9855 -0.3351 -0.2828
  409MOL0     H55206   1.052  11.124   9.772  1.2405 -3.8953  1.1245
  409MOL0     H55207   1.339  11.183   9.738 -1.7479 -0.8814 -2.5948
  409MOL0     H55208   1.281  11.062   9.850 -0.2651 -0.6158 -1.3917
  409MOL0     H55209   1.135  11.274   9.941 -0.1402  1.8919  0.8681
  409MOL0     H55210   1.267  11.349   9.841 -2.2387 -0.1843 -0.6640
  409MOL0     H55211   1.322  11.158  10.070 -2.0162 -0.1119 -1.7835
  409MOL0     H55212   1.287  11.340  10.080 -0.8092  0.5531 -1.7543
  409MOL0     H55213   1.687  11.345   9.979 -0.0200  0.7188  3.5117
  409MOL0     H55214   1.227  10.835   9.457 -1.6727 -0.0211  1.9106
  409MOL0     H55215   1.370  10.841   9.283 -0.2175  1.1398 -0.6255
  410MOL0     O55216   7.428   9.574   3.109 -0.3565 -0.4946 -0.4789
  410MOL0     C55217   7.530   9.606   3.046  0.2019 -0.3196 -0.3963
  410MOL0     O55218   7.648   9.539   3.067  1.0888 -0.3968 -0.1369
  410MOL0     C55219   7.645   9.435   3.161 -0.5423 -0.8729  0.4656
  410MOL0     C55220   7.643   9.439   3.301  0.1419  0.1635  0.1700
  410MOL0     C55221   7.655   9.321   3.373  0.5212 -1.0338  0.3704
  410MOL0     C55222   7.675   9.197   3.308 -0.2937  0.4575  0.9868
  410MOL0     O55223   7.682   9.074   3.370  0.3722 -0.0735  0.0907
  410MOL0     C55224   7.735   9.069   3.502 -0.3541 -1.2977  0.1378
  410MOL0     C55225   7.738   8.911   3.522 -0.0025 -0.4224 -0.4723
  410MOL0     C55226   7.638   8.849   3.633 -0.8451  0.6026 -0.5069
  410MOL0     C55227   7.493   8.856   3.599 -0.4519 -0.8539  1.1803
  410MOL0     C55228   7.395   8.826   3.716  0.4090  0.1196 -0.8107
  410MOL0     C55229   7.403   8.682   3.765  0.6303  0.3786  0.7120
  410MOL0     C55230   7.380   8.565   3.668  0.5689 -0.0807  0.7419
  410MOL0     C55231   7.394   8.427   3.720 -0.4133 -0.3767  0.5164
  410MOL0     N55232   7.280   8.376   3.798  0.5333 -0.3215  0.6220
  410MOL0     C55233   7.258   8.387   3.926  1.0865 -0.3373 -0.2801
  410MOL0     C55234   7.142   8.319   3.951 -0.4407 -0.4169 -0.7600
  410MOL0     C55235   7.073   8.309   4.085 -0.0492  0.0598  0.2226
  410MOL0     C55236   7.126   8.206   4.190 -0.6530  0.5672  1.0181
  410MOL0     C55237   7.078   8.067   4.174 -0.0645 -0.3417 -0.4832
  410MOL0     C55238   7.144   7.968   4.286  0.1222 -0.7035  0.4957
  410MOL0     O55239   7.037   7.864   4.303 -0.3425  0.2755  0.2164
  410MOL0     C55240   7.090   7.765   4.381  0.0220 -1.1172  0.8497
  410MOL0     C55241   7.056   7.638   4.355  0.3776  0.0359 -0.3764
  410MOL0     C55242   7.127   7.521   4.406  1.1005  0.4983 -0.1509
  410MOL0     C55243   7.070   7.388   4.347 -0.6964  0.1557 -0.6940
  410MOL0     C55244   7.230   7.539   4.502 -0.1378 -0.2759 -0.8523
  410MOL0     C55245   7.299   7.430   4.582  0.7429  0.8918 -0.0688
  410MOL0     O55246   7.365   7.478   4.694 -0.0971  0.6279  0.0807
  410MOL0     C55247   7.445   7.407   4.780  0.1788 -0.0664  1.0365
  410MOL0     C55248   7.466   7.264   4.780 -0.2796  0.2207 -0.1625
  410MOL0     C55249   7.537   7.197   4.881 -0.4554 -0.4920  0.5023
  410MOL0     C55250   7.595   7.272   4.985  0.7915 -0.0925 -0.8046
  410MOL0     O55251   7.667   7.216   5.087  0.1984 -0.1997  0.5051
  410MOL0     C55252   7.781   7.128   5.049 -0.4458  0.3674  0.3365
  410MOL0     C55253   7.885   7.134   5.160 -0.7402  0.8999 -0.1560
  410MOL0     C55254   8.016   7.062   5.133  0.1744 -0.9027  0.5882
  410MOL0     C55255   8.119   7.091   5.238  0.1097  0.4516 -0.8755
  410MOL0     C55256   8.266   7.046   5.199  1.0612  0.3186 -0.6859
  410MOL0     C55257   8.288   6.904   5.154  0.1050  0.0293  1.0210
  410MOL0     C55258   8.441   6.872   5.148  0.6304 -0.7389  0.1917
  410MOL0     C55259   8.466   6.723   5.152 -0.0452  0.1795  0.3279
  410MOL0    Cl55260   8.400   6.642   5.006 -0.2069  0.3719  0.2938
  410MOL0     C55261   7.566   7.403   4.994 -0.1542 -0.3384  0.1152
  410MOL0     C55262   7.499   7.473   4.892 -0.7548  0.0402 -0.1915
  410MOL0     O55263   7.268   7.313   4.567 -0.3302  0.3732  0.1525
  410MOL0     C55264   7.263   7.676   4.536 -0.1212 -0.0516  0.5065
  410MOL0     C55265   7.190   7.784   4.480  0.3725 -0.2678  0.8910
  410MOL0     N55266   7.094   8.270   3.837  0.3283 -0.5715 -0.6715
  410MOL0     N55267   7.165   8.320   3.750 -0.4185 -0.8648  0.6497
  410MOL0     C55268   7.689   9.195   3.169  0.2371 -0.1613  0.2723
  410MOL0     C55269   7.660   9.314   3.101  0.5622  0.1696 -0.6520
  410MOL0     C55270   7.514   9.703   2.945 -0.8831  0.3101 -0.8958
  410MOL0     C55271   7.405   9.789   2.935  0.6335  0.3548  0.5674
  410MOL0     C55272   7.400   9.890   2.837  0.7238  0.4651 -0.0501
  410MOL0     C55273   7.504   9.898   2.747  0.8579  0.2186  0.0326
  410MOL0     O55274   7.508  10.002   2.670 -1.0935  0.6597  0.4464
  410MOL0     C55275   7.626  10.086   2.680 -0.7748  0.6352  0.1230
  410MOL0     C55276   7.657  10.171   2.556 -0.2274  0.0993  0.3050
  410MOL0     C55277   7.686  10.078   2.430  0.8692 -0.0437  0.5029
  410MOL0     C55278   7.815   9.995   2.448  0.5095 -0.3752  0.3094
  410MOL0     C55279   7.862   9.938   2.320  0.3789 -0.2879 -0.3305
  410MOL0     C55280   7.899   9.873   2.222  0.2762 -0.8332  0.3662
  410MOL0     C55281   7.620   9.818   2.760 -0.0095  0.0106 -0.1407
  410MOL0     C55282   7.618   9.714   2.856  0.4585 -0.7634  0.1597
  410MOL0     H55283   7.657   9.539   3.341  4.2197  0.6510 -1.9551
  410MOL0     H55284   7.640   9.334   3.479  1.8910 -1.1792  0.6047
  410MOL0     H55285   7.834   9.114   3.509 -0.3965 -0.5943 -2.5146
  410MOL0     H55286   7.657   9.113   3.565 -0.6264  1.6116 -2.0257
  410MOL0     H55287   7.704   8.861   3.431  0.1510 -2.6967  0.6433
  410MOL0     H55288   7.837   8.870   3.544 -0.9161 -2.1401  0.6778
  410MOL0     H55289   7.669   8.746   3.657  0.8022  1.7296  2.7339
  410MOL0     H55290   7.653   8.900   3.728 -2.0374 -1.5955  0.9533
  410MOL0     H55291   7.478   8.961   3.570 -1.1586 -1.2053  0.2487
  410MOL0     H55292   7.463   8.798   3.512  1.2891  0.7674 -0.6148
  410MOL0     H55293   7.419   8.885   3.805  3.6841 -2.6633  0.3705
  410MOL0     H55294   7.293   8.853   3.688  0.7789 -0.0296 -2.4195
  410MOL0     H55295   7.497   8.659   3.817  0.9496 -0.8956 -0.3721
  410MOL0     H55296   7.319   8.671   3.834  0.0945  2.0122  0.3498
  410MOL0     H55297   7.281   8.582   3.626  0.8297 -1.5838 -0.5469
  410MOL0     H55298   7.441   8.564   3.577  0.1294 -1.9093  0.4265
  410MOL0     H55299   7.487   8.416   3.776  0.7900  0.4930 -1.2312
  410MOL0     H55300   7.412   8.349   3.644 -0.4454 -0.7483  0.8846
  410MOL0     H55301   7.323   8.430   4.001 -1.5694 -0.7644  2.4740
  410MOL0     H55302   7.075   8.401   4.143  0.8620 -0.7478  1.5219
  410MOL0     H55303   6.969   8.287   4.060 -0.4728  2.6215 -0.5615
  410MOL0     H55304   7.083   8.234   4.286 -5.0185  0.8539 -0.7653
  410MOL0     H55305   7.235   8.208   4.194 -0.6357 -1.5268  3.2724
  410MOL0     H55306   7.103   8.032   4.074 -4.2342  2.3096 -2.7267
  410MOL0     H55307   6.972   8.069   4.200  0.6605 -0.2869  2.9638
  410MOL0     H55308   7.152   8.019   4.383  0.9244  0.8557 -0.3680
  410MOL0     H55309   7.241   7.927   4.258  0.2761 -0.1660  0.2384
  410MOL0     H55310   6.976   7.625   4.283 -0.5351 -3.2939  1.0912
  410MOL0     H55311   7.117   7.368   4.250 -0.3297  2.7804 -1.1295
  410MOL0     H55312   7.088   7.299   4.408 -0.1706  1.1693  0.6489
  410MOL0     H55313   6.962   7.387   4.327 -0.8694 -4.4026 -0.6004
  410MOL0     H55314   7.419   7.202   4.703  1.0927 -0.9486 -0.0908
  410MOL0     H55315   7.547   7.090   4.867 -2.3772 -0.9481  2.1500
  410MOL0     H55316   7.749   7.024   5.037 -0.0136 -0.2443  3.5442
  410MOL0     H55317   7.824   7.161   4.954 -2.0542  1.2856 -0.1054
  410MOL0     H55318   7.897   7.241   5.180  1.4413  1.3125 -3.1127
  410MOL0     H55319   7.827   7.093   5.244 -1.2407 -2.6529 -2.0590
  410MOL0     H55320   8.046   7.074   5.028 -2.5538 -3.1350 -0.5880
  410MOL0     H55321   7.987   6.956   5.138  0.0749 -0.9568 -0.6626
  410MOL0     H55322   8.133   7.199   5.251  0.6862  0.1649  1.1250
  410MOL0     H55323   8.089   7.038   5.328 -2.7069  0.5745 -1.6600
  410MOL0     H55324   8.322   7.069   5.290  0.8644 -1.4076 -0.1020
  410MOL0     H55325   8.293   7.112   5.116  0.5243  4.2163  1.9568
  410MOL0     H55326   8.239   6.837   5.225  0.2615 -1.0825  0.1146
  410MOL0     H55327   8.240   6.896   5.056  0.0702  1.3948  0.9092
  410MOL0     H55328   8.506   6.916   5.224 -0.3365  1.1798 -0.0002
  410MOL0     H55329   8.467   6.919   5.053  0.5915  1.7268  1.3034
  410MOL0     H55330   8.432   6.671   5.242  0.5602 -0.5362  0.1483
  410MOL0     H55331   8.574   6.706   5.147  0.0412  1.0668 -1.7356
  410MOL0     H55332   7.593   7.445   5.090 -1.9150 -1.7559  1.3117
  410MOL0     H55333   7.488   7.578   4.916  0.3875 -0.1201  1.1666
  410MOL0     H55334   7.338   7.707   4.608 -0.7620  0.3719  1.0052
  410MOL0     H55335   7.218   7.882   4.518  1.6321 -0.4927  0.5979
  410MOL0     H55336   7.690   9.104   3.110  0.9826 -0.2267  0.3756
  410MOL0     H55337   7.648   9.305   2.993 -1.3325 -0.4391 -0.4288
  410MOL0     H55338   7.339   9.780   3.020 -2.0149  1.9420 -1.1565
  410MOL0     H55339   7.318   9.961   2.843  0.0551 -0.2410 -0.6262
  410MOL0     H55340   7.617  10.154   2.765  1.0470  0.3979  0.5565
  410MOL0     H55341   7.720  10.033   2.702 -1.8731 -0.4787  2.5043
  410MOL0     H55342   7.738  10.242   2.574  0.7984 -0.8672 -0.3819
  410MOL0     H55343   7.567  10.231   2.537 -1.1638 -1.1408  0.6708
  410MOL0     H55344   7.706  10.133   2.338  1.5194 -5.1468 -2.8554
  410MOL0     H55345   7.599  10.011   2.422  1.0860 -0.1179 -1.6500
  410MOL0     H55346   7.780   9.913   2.512 -3.1695 -1.4452 -2.6928
  410MOL0     H55347   7.894  10.041   2.507 -2.3376  4.5722  0.7967
  410MOL0     H55348   7.938   9.815   2.140 -0.5383 -0.7555 -0.0828
  410MOL0     H55349   7.702   9.827   2.690 -1.3806  0.0474 -1.7886
  410MOL0     H55350   7.702   9.647   2.839  0.0156 -0.8306 -1.9996
  411MOL0     O55351   9.636   0.333   4.518  0.1724 -1.2755  0.4153
  411MOL0     C55352   9.614   0.220   4.552 -0.2017 -0.5214 -0.9963
  411MOL0     O55353   9.531   0.139   4.495 -0.7101 -0.6680 -0.1374
  411MOL0     C55354   9.513   0.148   4.353  0.7117 -0.0775 -0.6263
  411MOL0     C55355   9.416   0.065   4.300  0.7202 -0.1306 -0.5285
  411MOL0     C55356   9.389   0.053   4.164  0.9586 -0.0602  0.5811
  411MOL0     C55357   9.451   0.134   4.077 -0.3849 -0.2234 -0.0753
  411MOL0     O55358   9.409   0.157   3.944  0.3887 -0.2168 -0.8176
  411MOL0     C55359   9.350   0.039   3.880 -0.3075 -0.0958  0.0406
  411MOL0     C55360   9.382   0.036   3.730  0.6090 -0.0259  0.0333
  411MOL0     C55361   9.492  -0.058   3.691  0.8545  1.7392 -0.2207
  411MOL0     C55362   9.501  -0.109   3.543  0.1845 -0.1837 -0.8533
  411MOL0     C55363   9.647  -0.140   3.525 -0.2450 -0.2400  0.8162
  411MOL0     C55364   9.726  -0.026   3.456 -0.3327 -0.3149 -0.7139
  411MOL0     C55365   9.864  -0.068   3.421  0.3233 -0.0833 -1.2897
  411MOL0     C55366   9.926   0.027   3.327  0.2643  0.7248  0.3222
  411MOL0     N55367  10.069  -0.011   3.306 -1.3950  0.5833 -0.0507
  411MOL0     C55368  10.178   0.038   3.370 -0.5383  0.1741 -0.8111
  411MOL0     C55369  10.294  -0.007   3.306  0.8313 -0.5007 -0.2241
  411MOL0     C55370  10.438   0.032   3.331 -0.2769  0.1585  0.5580
  411MOL0     C55371  10.490  -0.041   3.459  1.5361 -0.1882  0.3752
  411MOL0     C55372  10.627   0.006   3.478  0.1264 -0.2485  0.5078
  411MOL0     C55373  10.700  -0.111   3.560  0.2819  0.3241  0.8920
  411MOL0     O55374  10.803  -0.041   3.642  0.4470  0.1638 -0.1300
  411MOL0     C55375  10.867  -0.110   3.742 -0.4902 -0.9863 -0.7872
  411MOL0     C55376  10.933  -0.028   3.837  1.3288  0.5960 -0.0760
  411MOL0     C55377  11.013  -0.082   3.935 -0.1622 -0.8916  0.6968
  411MOL0     C55378  11.113   0.009   4.003  0.4170 -0.2427  0.0194
  411MOL0     C55379  11.016  -0.221   3.949 -0.4836 -0.2341  0.3033
  411MOL0     C55380  11.090  -0.286   4.061  0.1516  0.1328  0.4430
  411MOL0     O55381  11.022  -0.391   4.103  0.0960 -0.2665 -0.1808
  411MOL0     C55382  11.064  -0.519   4.120  0.6285  0.6448 -0.1439
  411MOL0     C55383  11.195  -0.563   4.092 -0.9067 -0.2905 -1.0092
  411MOL0     C55384  11.225  -0.701   4.103 -0.5932  0.5293 -0.0160
  411MOL0     C55385  11.133  -0.789   4.146  0.1242  0.4443 -0.2350
  411MOL0     O55386  11.169  -0.923   4.130  0.4313  0.1473 -0.5706
  411MOL0     C55387  11.071  -1.016   4.160  0.3917  0.0255  1.0448
  411MOL0     C55388  11.122  -1.161   4.135  0.4607 -0.8893 -0.3486
  411MOL0     C55389  11.062  -1.232   4.016 -0.0242 -0.4746 -0.1808
  411MOL0     C55390  11.118  -1.187   3.886  0.5530  0.7534 -0.4368
  411MOL0     C55391  11.048  -1.229   3.756 -0.0793  0.4201 -0.1164
  411MOL0     C55392  11.080  -1.376   3.716  0.6269 -0.2243 -0.0256
  411MOL0     C55393  10.994  -1.440   3.606  0.5007 -0.7088 -0.2617
  411MOL0     C55394  11.010  -1.378   3.473 -0.0616 -0.6299 -0.3354
  411MOL0    Cl55395  10.909  -1.461   3.365 -0.7392 -0.3223  0.3114
  411MOL0     C55396  11.004  -0.740   4.184 -0.4851 -0.5162 -0.5519
  411MOL0     C55397  10.966  -0.603   4.164 -0.3607 -0.0076 -1.1502
  411MOL0     O55398  11.206  -0.263   4.090 -0.3664 -0.0812  0.0708
  411MOL0     C55399  10.959  -0.301   3.843 -0.1560  0.0120  1.1551
  411MOL0     C55400  10.884  -0.241   3.742  0.0199  0.1692  0.4068
  411MOL0     N55401  10.246  -0.090   3.213  0.6217 -0.6304  0.5419
  411MOL0     N55402  10.122  -0.091   3.206  0.7952 -0.2419 -0.1171
  411MOL0     C55403   9.555   0.220   4.120  0.6210 -0.3281 -0.0884
  411MOL0     C55404   9.583   0.225   4.257  0.0997 -0.0338  0.6964
  411MOL0     C55405   9.691   0.175   4.666  0.9062  0.2666  0.0570
  411MOL0     C55406   9.749   0.259   4.752 -0.3348  0.0465  0.1026
  411MOL0     C55407   9.826   0.220   4.862  0.2719  1.3496 -1.1268
  411MOL0     C55408   9.827   0.077   4.899 -1.2415 -1.2758  0.2267
  411MOL0     O55409   9.913   0.049   5.001  0.2520  0.0617  0.3697
  411MOL0     C55410   9.902  -0.073   5.074 -0.4508  0.9338  0.2696
  411MOL0     C55411   9.763  -0.106   5.133  0.1704  0.5161  1.2797
  411MOL0     C55412   9.748  -0.045   5.266  0.2717  0.1159  0.5396
  411MOL0     C55413   9.597  -0.061   5.309 -0.1794 -0.3897 -0.0614
  411MOL0     C55414   9.533  -0.194   5.305  0.4831  0.1895 -0.1758
  411MOL0     C55415   9.466  -0.291   5.311  0.8669  0.6294  0.7810
  411MOL0     C55416   9.754  -0.012   4.813 -0.5817  0.3661 -0.7425
  411MOL0     C55417   9.693   0.028   4.692 -0.0012  0.5612  0.2910
  411MOL0     H55418   9.347   0.011   4.364 -0.1069  1.9622  0.4290
  411MOL0     H55419   9.301  -0.008   4.144  1.0169  0.4546 -1.4043
  411MOL0     H55420   9.384  -0.055   3.925  2.3385  1.3059  1.1631
  411MOL0     H55421   9.242   0.041   3.897 -0.2665  0.3794  0.2538
  411MOL0     H55422   9.285  -0.000   3.693  0.7291 -1.5063  1.0920
  411MOL0     H55423   9.390   0.139   3.693  0.5410 -0.1628 -0.3643
  411MOL0     H55424   9.585  -0.004   3.709  3.1361 -1.9552  0.1083
  411MOL0     H55425   9.487  -0.145   3.757 -0.1273  2.0249  0.1044
  411MOL0     H55426   9.444  -0.203   3.539  1.0209 -0.9531  2.3074
  411MOL0     H55427   9.464  -0.031   3.476  1.6012  1.1246 -0.1720
  411MOL0     H55428   9.697  -0.172   3.617  1.7996  0.4445  0.0067
  411MOL0     H55429   9.651  -0.229   3.461 -1.8142  1.5299 -1.9810
  411MOL0     H55430   9.675   0.021   3.372 -2.7644  1.4515  1.5623
  411MOL0     H55431   9.739   0.052   3.533 -1.0456  0.4830 -1.3818
  411MOL0     H55432   9.911  -0.069   3.520 -3.6394 -0.7430  0.8097
  411MOL0     H55433   9.871  -0.167   3.373 -1.6599  0.0618 -1.9599
  411MOL0     H55434   9.932   0.125   3.377  0.1551  0.6504  0.4815
  411MOL0     H55435   9.876   0.020   3.230  3.1904 -1.4986 -1.1843
  411MOL0     H55436  10.160   0.112   3.447 -1.2449  1.2469 -1.9515
  411MOL0     H55437  10.507   0.010   3.249  1.8136  5.3344  0.5521
  411MOL0     H55438  10.451   0.140   3.335  0.3923  0.2305 -2.0891
  411MOL0     H55439  10.491  -0.150   3.443  0.2652  0.0526 -1.6440
  411MOL0     H55440  10.438  -0.029   3.554  1.1825  0.2640  0.1263
  411MOL0     H55441  10.633   0.099   3.535 -0.8191 -1.8643  3.4370
  411MOL0     H55442  10.671   0.028   3.380  0.8475 -2.7681  0.1831
  411MOL0     H55443  10.746  -0.178   3.487 -0.7461  1.5125 -0.9250
  411MOL0     H55444  10.630  -0.160   3.628  0.1557  0.7892  1.1070
  411MOL0     H55445  10.923   0.076   3.810 -1.5343  0.3558 -0.3359
  411MOL0     H55446  11.096  -0.004   4.110 -1.1049 -0.1944 -0.1959
  411MOL0     H55447  11.216  -0.022   3.982  0.7277  1.0883 -0.5394
  411MOL0     H55448  11.103   0.114   3.976  0.0803 -0.3428 -0.2532
  411MOL0     H55449  11.280  -0.501   4.068  0.2400 -0.1413  2.7146
  411MOL0     H55450  11.315  -0.738   4.055 -0.4948  0.3497  0.2980
  411MOL0     H55451  11.032  -1.018   4.262 -2.3001 -1.0677  0.0910
  411MOL0     H55452  10.979  -0.996   4.103  2.5952 -0.6752 -3.1095
  411MOL0     H55453  11.231  -1.168   4.146  0.2278 -1.9335  1.7223
  411MOL0     H55454  11.077  -1.220   4.215  0.1934 -0.3637 -0.1057
  411MOL0     H55455  10.955  -1.211   4.012  0.1332  2.3341  3.9912
  411MOL0     H55456  11.076  -1.340   4.031  1.6345 -0.0849  1.4714
  411MOL0     H55457  11.116  -1.078   3.876 -1.5265  0.5887 -2.6043
  411MOL0     H55458  11.220  -1.226   3.875 -0.6399 -2.3486 -1.6714
  411MOL0     H55459  11.091  -1.171   3.674  0.6237 -0.7015 -0.5754
  411MOL0     H55460  10.941  -1.209   3.771 -0.5184 -2.6292  1.6252
  411MOL0     H55461  11.182  -1.377   3.676  0.2592  0.4272 -1.0194
  411MOL0     H55462  11.084  -1.438   3.806  0.9727 -0.1346  0.0226
  411MOL0     H55463  10.889  -1.424   3.632  0.7288  0.1509  0.1723
  411MOL0     H55464  11.011  -1.547   3.613  1.4910 -0.4901  1.0374
  411MOL0     H55465  11.115  -1.389   3.444  1.0389 -1.2822  3.3062
  411MOL0     H55466  10.991  -1.270   3.473  2.1011 -0.1114  2.4826
  411MOL0     H55467  10.918  -0.799   4.214 -3.5001  2.5463 -2.4157
  411MOL0     H55468  10.862  -0.574   4.175  0.1310  1.6462 -0.6832
  411MOL0     H55469  10.945  -0.409   3.848 -3.0593  0.3578  4.7227
  411MOL0     H55470  10.845  -0.309   3.668  0.5517  0.6654 -0.3400
  411MOL0     H55471   9.608   0.284   4.050  3.3727 -1.0575  1.1781
  411MOL0     H55472   9.665   0.295   4.270 -0.1415  0.1399  1.3123
  411MOL0     H55473   9.762   0.366   4.736  1.4489 -0.0971  0.3324
  411MOL0     H55474   9.872   0.296   4.924  1.6453 -0.4474  0.1534
  411MOL0     H55475   9.916  -0.155   5.004 -1.4829  0.9401  0.0325
  411MOL0     H55476   9.980  -0.077   5.151  0.7435 -1.7227 -0.9663
  411MOL0     H55477   9.751  -0.214   5.139  0.7201  0.3845  0.2393
  411MOL0     H55478   9.689  -0.062   5.066  1.3445  2.2249  1.0304
  411MOL0     H55479   9.770   0.062   5.267  1.2438 -0.0376  2.9005
  411MOL0     H55480   9.813  -0.092   5.341  2.6425 -0.3795 -1.7076
  411MOL0     H55481   9.530   0.007   5.255 -1.2772 -0.0899  1.6087
  411MOL0     H55482   9.594  -0.020   5.410 -4.2343 -2.0654  0.6925
  411MOL0     H55483   9.402  -0.377   5.302  1.3778  0.4898 -3.1385
  411MOL0     H55484   9.775  -0.118   4.811  1.5716  0.6916  0.6604
  411MOL0     H55485   9.661  -0.049   4.623  0.0243  0.2915  0.5805
  412MOL0     O55486   7.501   8.428   5.902  0.6971  0.2748 -0.3771
  412MOL0     C55487   7.379   8.426   5.930  1.0830 -1.0550 -0.5026
  412MOL0     O55488   7.287   8.337   5.890 -0.3494 -0.1438 -0.0481
  412MOL0     C55489   7.308   8.236   5.801  0.2629  0.2553  0.0374
  412MOL0     C55490   7.345   8.274   5.675 -0.4412  0.4184  1.1869
  412MOL0     C55491   7.377   8.178   5.581 -0.0969  1.0824 -0.1570
  412MOL0     C55492   7.356   8.036   5.595  0.4281 -0.9752 -0.1603
  412MOL0     O55493   7.387   7.939   5.507  0.0491  0.6125  1.0474
  412MOL0     C55494   7.388   7.973   5.363  0.7925 -0.5970 -0.2843
  412MOL0     C55495   7.370   7.839   5.286  0.3838 -0.0612  0.0982
  412MOL0     C55496   7.228   7.828   5.218  0.1296 -0.6204 -0.5697
  412MOL0     C55497   7.222   7.714   5.113 -0.7148  0.3772 -0.6544
  412MOL0     C55498   7.097   7.725   5.028 -0.7496 -0.6383 -0.7347
  412MOL0     C55499   7.122   7.646   4.901 -1.1621 -0.0304 -0.9465
  412MOL0     C55500   7.007   7.675   4.809  0.5804  0.4767 -0.4218
  412MOL0     C55501   6.885   7.604   4.865 -0.2109  0.1310 -0.1211
  412MOL0     N55502   6.804   7.680   4.966  0.7783 -0.2460 -1.0345
  412MOL0     C55503   6.787   7.816   4.947  0.6189 -0.4620  0.6067
  412MOL0     C55504   6.725   7.858   5.054  0.0985  0.9680 -0.9192
  412MOL0     C55505   6.666   7.989   5.084  0.2076  0.5857  0.2036
  412MOL0     C55506   6.711   8.075   5.197 -0.6383  0.0840 -0.3720
  412MOL0     C55507   6.634   8.036   5.331  0.1574  0.6831  0.1337
  412MOL0     C55508   6.673   7.911   5.402 -0.0211 -0.7212 -0.0337
  412MOL0     O55509   6.627   7.917   5.536  1.1118  0.4021 -1.5613
  412MOL0     C55510   6.686   7.981   5.645  0.1117  0.3689  0.5672
  412MOL0     C55511   6.813   8.035   5.634  0.3829 -0.3001 -0.5548
  412MOL0     C55512   6.874   8.094   5.742  0.0268 -0.2333 -0.1994
  412MOL0     C55513   6.995   8.173   5.698  0.7961 -0.2899 -0.0452
  412MOL0     C55514   6.818   8.095   5.875 -0.3173  1.0566  0.3715
  412MOL0     C55515   6.875   8.142   6.004 -0.6999  0.2277 -0.1293
  412MOL0     O55516   6.815   8.088   6.109  0.0711  1.0114  1.0671
  412MOL0     C55517   6.845   8.127   6.234 -0.3740  0.1033  0.3143
  412MOL0     C55518   6.818   8.248   6.292  0.0315  0.1437  0.4947
  412MOL0     C55519   6.867   8.284   6.419  1.1923 -0.4663 -0.9029
  412MOL0     C55520   6.923   8.187   6.501 -0.6365  1.0249  0.4406
  412MOL0     O55521   6.974   8.226   6.628 -0.0396 -0.6282  0.5695
  412MOL0     C55522   7.051   8.135   6.698  0.0819 -0.0729  0.5274
  412MOL0     C55523   7.103   8.195   6.831  0.5940  0.4574  0.9875
  412MOL0     C55524   7.196   8.084   6.892 -0.2176  1.0466 -0.2176
  412MOL0     C55525   7.230   8.098   7.034 -0.1754  0.4199 -0.1623
  412MOL0     C55526   7.321   7.986   7.088  1.0064  0.6724 -0.0872
  412MOL0     C55527   7.358   8.026   7.230 -0.0177  0.2630 -0.6404
  412MOL0     C55528   7.441   7.920   7.308 -0.1704 -0.4561  0.1796
  412MOL0     C55529   7.376   7.790   7.350 -0.5163  0.0184  0.1137
  412MOL0    Cl55530   7.448   7.734   7.502 -0.0259  0.6374  0.1209
  412MOL0     C55531   6.932   8.053   6.450  0.3946 -0.9754 -1.2879
  412MOL0     C55532   6.897   8.030   6.317  0.4467 -0.5710  0.5434
  412MOL0     O55533   6.972   8.219   6.012 -0.7689 -0.5627  0.8176
  412MOL0     C55534   6.690   8.030   5.880 -0.3395  0.0099 -0.0710
  412MOL0     C55535   6.626   7.977   5.772  0.0812  0.5328  0.6248
  412MOL0     N55536   6.692   7.740   5.124  0.2417 -0.1232  0.7450
  412MOL0     N55537   6.729   7.630   5.072 -0.4393  0.5259 -0.1564
  412MOL0     C55538   7.310   7.999   5.726 -1.0068 -0.6785  0.8107
  412MOL0     C55539   7.288   8.096   5.825 -0.6152  0.6390  0.0183
  412MOL0     C55540   7.334   8.543   6.008  1.0043 -0.5968 -0.2271
  412MOL0     C55541   7.223   8.529   6.086  1.0316 -0.2017 -0.4932
  412MOL0     C55542   7.158   8.642   6.147 -0.8389  0.7114 -0.0618
  412MOL0     C55543   7.218   8.769   6.133 -0.2526  0.6785 -0.7839
  412MOL0     O55544   7.163   8.884   6.191 -0.3584  0.7914  0.3508
  412MOL0     C55545   7.179   9.017   6.129  0.2379 -0.9548  0.5327
  412MOL0     C55546   7.043   9.079   6.087  0.1435 -0.6362  0.5099
  412MOL0     C55547   6.983   9.047   5.950 -0.0304 -0.5920  0.0565
  412MOL0     C55548   6.838   9.114   5.921 -0.1985 -1.1025  0.4478
  412MOL0     C55549   6.732   9.108   6.021  0.7856 -0.3721 -0.0330
  412MOL0     C55550   6.633   9.104   6.098  0.5501 -0.7953 -0.5660
  412MOL0     C55551   7.346   8.781   6.079 -0.7076  0.5722  1.2197
  412MOL0     C55552   7.394   8.669   6.010 -1.1367 -0.3513  0.3119
  412MOL0     H55553   7.373   8.376   5.648 -1.9471 -0.0714 -2.9766
  412MOL0     H55554   7.409   8.221   5.486  1.0661  2.2349  0.7304
  412MOL0     H55555   7.306   8.041   5.337  2.7568  0.9935 -2.7265
  412MOL0     H55556   7.481   8.021   5.330 -0.3517  2.5350  0.6647
  412MOL0     H55557   7.446   7.837   5.207 -0.6820 -5.6333 -1.2024
  412MOL0     H55558   7.382   7.749   5.348 -2.0370 -1.5203 -1.4114
  412MOL0     H55559   7.154   7.791   5.290  0.7157 -0.7707 -0.0337
  412MOL0     H55560   7.190   7.929   5.198  1.1648  0.0318  0.6041
  412MOL0     H55561   7.301   7.729   5.040  0.2731 -1.8557 -0.1319
  412MOL0     H55562   7.236   7.617   5.162  1.1600  1.4687  1.1351
  412MOL0     H55563   7.014   7.679   5.082 -0.7808 -1.5220 -1.5133
  412MOL0     H55564   7.083   7.831   5.004  2.8139  0.0411 -0.4104
  412MOL0     H55565   7.211   7.667   4.840 -2.4462 -0.5006 -3.1118
  412MOL0     H55566   7.131   7.540   4.927  0.5270  0.3013 -0.0419
  412MOL0     H55567   6.990   7.779   4.779  1.1649  0.2852 -1.5156
  412MOL0     H55568   7.035   7.632   4.712  1.1537  4.3766 -2.1988
  412MOL0     H55569   6.919   7.503   4.890  1.1270 -0.3401 -3.3378
  412MOL0     H55570   6.814   7.583   4.785 -0.2105  2.2668 -0.7424
  412MOL0     H55571   6.827   7.884   4.872  0.4206  0.2793  1.1620
  412MOL0     H55572   6.680   8.047   4.992 -1.4192  0.6347 -0.0539
  412MOL0     H55573   6.557   7.978   5.075  0.1313  0.6394  1.0015
  412MOL0     H55574   6.689   8.180   5.178 -2.3339  0.0671  1.1845
  412MOL0     H55575   6.820   8.065   5.204 -0.5067  1.6475  0.1720
  412MOL0     H55576   6.527   8.048   5.314  0.3484 -1.3585 -3.1725
  412MOL0     H55577   6.664   8.122   5.393  1.0031  0.9293 -0.5852
  412MOL0     H55578   6.782   7.897   5.402 -0.3187 -3.7334 -1.7931
  412MOL0     H55579   6.626   7.819   5.368 -0.3360  0.0717 -1.8338
  412MOL0     H55580   6.854   8.052   5.535  3.4527  1.1509  0.8481
  412MOL0     H55581   7.075   8.103   5.673 -0.5532 -2.3184  1.0011
  412MOL0     H55582   6.975   8.225   5.604 -2.5708  2.5399  1.9774
  412MOL0     H55583   7.010   8.248   5.776 -0.1369 -1.1112  0.9487
  412MOL0     H55584   6.782   8.330   6.230  2.5352 -0.4232 -1.8824
  412MOL0     H55585   6.854   8.380   6.467 -5.7112 -0.6050 -1.4464
  412MOL0     H55586   6.990   8.045   6.712  0.6910 -0.1517  3.2514
  412MOL0     H55587   7.134   8.109   6.632  1.1378  0.1774  1.7202
  412MOL0     H55588   7.168   8.281   6.815  1.8673 -0.5215  0.7216
  412MOL0     H55589   7.021   8.228   6.896  1.9407  0.6525  2.6530
  412MOL0     H55590   7.283   8.074   6.827 -0.3007  0.6171 -0.2639
  412MOL0     H55591   7.154   7.984   6.882  1.3823  0.0471  2.3208
  412MOL0     H55592   7.270   8.196   7.061 -0.7584  0.1633  1.7418
  412MOL0     H55593   7.145   8.091   7.102 -0.3356  1.7360 -0.2006
  412MOL0     H55594   7.405   7.959   7.022 -0.8698  1.2667 -2.9228
  412MOL0     H55595   7.268   7.891   7.080  2.1705  0.0345 -0.6126
  412MOL0     H55596   7.408   8.123   7.232  1.8216 -0.6477  0.5077
  412MOL0     H55597   7.271   8.040   7.295 -0.0992  2.9910 -1.2214
  412MOL0     H55598   7.493   7.963   7.394 -1.3922 -0.3580  0.8847
  412MOL0     H55599   7.520   7.905   7.233 -0.4679  1.9000 -0.7101
  412MOL0     H55600   7.385   7.715   7.271 -3.7359  2.3655 -2.7905
  412MOL0     H55601   7.270   7.813   7.368 -1.7664 -2.0819 -3.5233
  412MOL0     H55602   6.986   7.977   6.506  0.0642 -0.0224  0.4051
  412MOL0     H55603   6.922   7.931   6.281  1.0163  0.0318 -0.7822
  412MOL0     H55604   6.635   8.026   5.973  0.6731  0.7164  0.5739
  412MOL0     H55605   6.531   7.925   5.779  0.5469 -0.1399  3.7688
  412MOL0     H55606   7.302   7.894   5.754  1.3941 -1.3160 -0.6261
  412MOL0     H55607   7.241   8.065   5.918 -1.1540  2.4895  0.4043
  412MOL0     H55608   7.166   8.438   6.097 -0.9503  0.7398 -2.1996
  412MOL0     H55609   7.067   8.619   6.201  0.4198 -1.8794  1.1434
  412MOL0     H55610   7.228   9.077   6.206 -1.9829  0.4920  0.9149
  412MOL0     H55611   7.231   9.012   6.033 -2.0609  2.8585 -1.1387
  412MOL0     H55612   7.063   9.185   6.073 -2.8934  0.0884  0.9908
  412MOL0     H55613   6.970   9.058   6.166 -1.8907  4.3753  0.3166
  412MOL0     H55614   6.985   8.938   5.935  0.2793 -0.2033 -3.6998
  412MOL0     H55615   7.052   9.079   5.871 -0.1131 -1.2123 -0.2727
  412MOL0     H55616   6.799   9.083   5.823 -3.5872 -1.3174  1.7240
  412MOL0     H55617   6.853   9.220   5.899  2.8463 -1.5879 -0.3714
  412MOL0     H55618   6.557   9.093   6.172  1.0468  1.4015  0.3414
  412MOL0     H55619   7.410   8.868   6.072  4.4122 -2.8042  0.1273
  412MOL0     H55620   7.490   8.685   5.962 -1.0679 -0.9976  0.2290
  413MOL0     O55621  10.887   7.496   7.650  0.3529  0.1359 -0.4998
  413MOL0     C55622  10.872   7.406   7.562  1.3687 -0.4887 -0.6260
  413MOL0     O55623  10.788   7.401   7.454  0.5116  0.6916  0.3703
  413MOL0     C55624  10.717   7.506   7.410  0.4480 -0.7417  0.5445
  413MOL0     C55625  10.577   7.501   7.387  0.2774 -0.0430  0.0018
  413MOL0     C55626  10.511   7.612   7.326 -0.4175  0.0566 -0.0671
  413MOL0     C55627  10.592   7.725   7.305  0.8733 -0.9306  0.0465
  413MOL0     O55628  10.535   7.829   7.228 -0.0895  0.4889 -0.4441
  413MOL0     C55629  10.522   7.794   7.092 -0.6146  0.2169  0.8579
  413MOL0     C55630  10.491   7.912   7.000 -0.7938 -0.0214  0.0907
  413MOL0     C55631  10.454   7.873   6.858  0.7800  0.1405 -0.5502
  413MOL0     C55632  10.460   7.989   6.766 -0.7428  0.1379 -0.8731
  413MOL0     C55633  10.417   7.933   6.630  0.6431 -0.1233  0.0753
  413MOL0     C55634  10.413   8.051   6.532 -0.5415 -0.1275  0.1782
  413MOL0     C55635  10.394   8.004   6.385 -0.7241 -0.7000  0.3772
  413MOL0     C55636  10.527   7.985   6.305 -0.5547 -0.4419 -1.4829
  413MOL0     N55637  10.503   7.980   6.169  0.0823  0.9736 -0.4352
  413MOL0     C55638  10.555   8.070   6.081 -0.3386  0.5436 -0.3155
  413MOL0     C55639  10.544   8.016   5.958 -0.9125 -0.4346  0.5057
  413MOL0     C55640  10.568   8.103   5.837  0.0015 -0.4196 -0.6276
  413MOL0     C55641  10.541   8.022   5.706 -0.8482 -0.0131 -0.8465
  413MOL0     C55642  10.539   8.118   5.584 -0.2303 -0.0087  0.1183
  413MOL0     C55643  10.445   8.238   5.595  0.7845 -0.8359 -0.0057
  413MOL0     O55644  10.329   8.210   5.687  0.3732 -0.3957  0.3435
  413MOL0     C55645  10.211   8.284   5.678 -0.3087  0.0250 -0.9821
  413MOL0     C55646  10.184   8.386   5.592 -0.1789 -0.2447 -0.0776
  413MOL0     C55647  10.082   8.478   5.614  0.3402  0.6267 -0.0534
  413MOL0     C55648  10.074   8.580   5.509  0.0482 -0.4001 -0.1923
  413MOL0     C55649   9.989   8.451   5.715 -0.5898 -0.4626  0.8313
  413MOL0     C55650   9.862   8.520   5.736 -0.8430  0.0124  0.2668
  413MOL0     O55651   9.825   8.601   5.639  0.3931  0.1907 -0.2653
  413MOL0     C55652   9.705   8.667   5.652  0.5144  0.0446 -0.8602
  413MOL0     C55653   9.585   8.598   5.640  0.0838 -0.0012 -0.3259
  413MOL0     C55654   9.466   8.663   5.645 -0.0544 -0.5233 -0.9554
  413MOL0     C55655   9.461   8.805   5.676  0.3500 -0.0460  1.0840
  413MOL0     O55656   9.346   8.882   5.686  0.1725  0.3618 -0.0096
  413MOL0     C55657   9.217   8.827   5.720  0.9427  0.4328 -0.4417
  413MOL0     C55658   9.222   8.742   5.848 -0.3783  0.8146 -0.5495
  413MOL0     C55659   9.085   8.714   5.903 -0.0070  0.1509 -0.6739
  413MOL0     C55660   9.076   8.689   6.059  0.0889 -0.1324 -0.9542
  413MOL0     C55661   8.928   8.680   6.094 -0.5698 -0.0282  0.1871
  413MOL0     C55662   8.905   8.622   6.233 -0.6272  0.1745  0.1302
  413MOL0     C55663   8.788   8.690   6.302  0.1220 -0.2341  0.1635
  413MOL0     C55664   8.736   8.592   6.421  0.1763 -0.2428 -0.2123
  413MOL0    Cl55665   8.583   8.532   6.355  0.1364  0.7926  0.2194
  413MOL0     C55666   9.582   8.878   5.680 -0.7032  0.8617 -0.0018
  413MOL0     C55667   9.700   8.807   5.674 -0.2034  0.2538  0.7372
  413MOL0     O55668   9.797   8.497   5.832 -0.2357  0.1271 -0.8428
  413MOL0     C55669  10.018   8.345   5.802  0.0604 -0.3617  0.8156
  413MOL0     C55670  10.128   8.259   5.784 -0.5043 -0.2078  0.4197
  413MOL0     N55671  10.488   7.883   5.974  0.1536 -0.0696 -0.2004
  413MOL0     N55672  10.468   7.866   6.100  0.2027 -0.0728 -0.2308
  413MOL0     C55673  10.729   7.736   7.329 -0.1799  0.1474  0.4106
  413MOL0     C55674  10.793   7.614   7.364  0.0673 -0.0269 -0.0386
  413MOL0     C55675  10.943   7.288   7.602 -0.6080  0.3996  0.3903
  413MOL0     C55676  10.954   7.172   7.511 -0.4002 -0.5652 -1.2444
  413MOL0     C55677  11.033   7.065   7.539  0.0201 -1.6112 -0.8459
  413MOL0     C55678  11.095   7.054   7.665 -0.1115  0.9397  0.0838
  413MOL0     O55679  11.160   6.930   7.688  0.1911 -0.1296  0.3249
  413MOL0     C55680  11.158   6.864   7.821 -0.4358 -0.2544  0.9779
  413MOL0     C55681  11.305   6.884   7.867  0.0201 -0.0263 -0.0384
  413MOL0     C55682  11.343   6.780   7.965 -0.3907  0.9626 -0.7631
  413MOL0     C55683  11.291   6.783   8.111 -0.8520 -0.8354  1.0806
  413MOL0     C55684  11.293   6.915   8.181 -0.2272  0.6740 -0.1763
  413MOL0     C55685  11.286   7.029   8.222 -0.4557  0.0230  0.4422
  413MOL0     C55686  11.089   7.157   7.756 -0.1034 -0.1451  0.0153
  413MOL0     C55687  11.014   7.277   7.721  0.3723 -1.0366  0.3110
  413MOL0     H55688  10.524   7.411   7.417  1.9997 -0.8959  0.5800
  413MOL0     H55689  10.406   7.603   7.304 -0.3958 -1.3686  0.2857
  413MOL0     H55690  10.619   7.755   7.060  1.8026  4.9261  1.4589
  413MOL0     H55691  10.431   7.734   7.082  1.5283 -3.6315  2.2979
  413MOL0     H55692  10.410   7.975   7.038 -1.8473 -0.2804 -1.6361
  413MOL0     H55693  10.581   7.974   6.994  0.3411 -1.6082 -0.1242
  413MOL0     H55694  10.509   7.784   6.827 -2.5116 -1.7040 -1.6592
  413MOL0     H55695  10.357   7.822   6.854  1.0110 -0.2644 -1.2201
  413MOL0     H55696  10.392   8.068   6.801  0.9690  1.2260  0.1603
  413MOL0     H55697  10.568   8.006   6.766 -0.4288 -1.4943 -2.7019
  413MOL0     H55698  10.489   7.867   6.581  0.0437  0.3069 -1.4195
  413MOL0     H55699  10.313   7.899   6.626  0.1482  1.3969 -0.3892
  413MOL0     H55700  10.337   8.127   6.554 -0.9531 -1.0963  2.3306
  413MOL0     H55701  10.502   8.114   6.542 -1.8821  1.7095  1.1809
  413MOL0     H55702  10.337   7.911   6.390 -1.6996 -0.1093  0.5662
  413MOL0     H55703  10.327   8.075   6.337  0.7745  2.0631  2.0422
  413MOL0     H55704  10.571   7.894   6.345 -2.5736 -0.3971  1.0836
  413MOL0     H55705  10.601   8.062   6.329  1.3142 -1.5344 -3.2980
  413MOL0     H55706  10.594   8.171   6.093  4.7054 -0.8286 -2.4172
  413MOL0     H55707  10.500   8.187   5.851  0.1686 -0.3381 -0.2779
  413MOL0     H55708  10.673   8.133   5.842  0.1015 -0.7543 -0.6457
  413MOL0     H55709  10.443   7.974   5.712 -1.5234  1.4945  0.5713
  413MOL0     H55710  10.615   7.942   5.693  0.5197  1.1394 -0.4253
  413MOL0     H55711  10.519   8.057   5.496  0.6156 -0.1010 -0.0156
  413MOL0     H55712  10.637   8.164   5.565 -0.3238 -0.6386 -2.2018
  413MOL0     H55713  10.410   8.270   5.496 -1.6301 -2.0094  0.4083
  413MOL0     H55714  10.490   8.330   5.634 -1.7342  1.6287 -2.3742
  413MOL0     H55715  10.249   8.411   5.509 -1.2632  1.1274 -0.5481
  413MOL0     H55716   9.986   8.578   5.444  0.0820 -0.3850 -0.2400
  413MOL0     H55717  10.074   8.679   5.555 -0.4072 -0.2399 -0.5214
  413MOL0     H55718  10.163   8.579   5.446  0.5659 -5.1718  0.2789
  413MOL0     H55719   9.579   8.491   5.627 -1.3104 -0.1686  1.3021
  413MOL0     H55720   9.368   8.618   5.636 -1.4122  1.9115  0.5303
  413MOL0     H55721   9.148   8.908   5.744  2.2205  2.3108 -2.6818
  413MOL0     H55722   9.166   8.763   5.648  0.0951 -0.8427  1.2306
  413MOL0     H55723   9.266   8.645   5.827 -1.2900  0.5150 -1.1481
  413MOL0     H55724   9.282   8.792   5.925 -1.7259 -0.2994  1.3049
  413MOL0     H55725   9.038   8.626   5.857 -1.2193 -0.3254  1.3711
  413MOL0     H55726   9.031   8.804   5.873  4.7427  4.0236  1.0476
  413MOL0     H55727   9.113   8.592   6.093 -2.2550 -0.7207  0.1258
  413MOL0     H55728   9.128   8.759   6.125 -0.9201 -2.6695  2.8229
  413MOL0     H55729   8.869   8.623   6.022 -4.4879 -0.2142  3.2455
  413MOL0     H55730   8.889   8.782   6.086 -2.9087 -1.0006 -2.1038
  413MOL0     H55731   8.906   8.513   6.230  1.3462  0.1797 -1.4316
  413MOL0     H55732   8.990   8.650   6.297 -0.9497  0.6667  0.3498
  413MOL0     H55733   8.703   8.714   6.238  1.4433 -1.2020 -2.0734
  413MOL0     H55734   8.818   8.783   6.350  0.3216 -0.4291  0.4248
  413MOL0     H55735   8.729   8.656   6.509  1.1887 -4.8217  3.5409
  413MOL0     H55736   8.801   8.510   6.452  1.1816  0.3751 -0.6346
  413MOL0     H55737   9.589   8.986   5.677 -1.3730  0.9669  1.5399
  413MOL0     H55738   9.799   8.852   5.668  0.0621 -0.4076 -0.0906
  413MOL0     H55739   9.945   8.299   5.868  0.7610  0.3429  2.1360
  413MOL0     H55740  10.140   8.178   5.855  2.2534  0.1307  0.4338
  413MOL0     H55741  10.780   7.825   7.295  1.5497 -0.8348  0.3320
  413MOL0     H55742  10.902   7.615   7.359  0.1721  0.7151  1.7423
  413MOL0     H55743  10.919   7.182   7.409 -1.9057 -1.5627 -0.8506
  413MOL0     H55744  11.045   6.998   7.455  0.7661  1.2660 -3.2153
  413MOL0     H55745  11.084   6.905   7.890 -1.4070  1.0386 -0.7278
  413MOL0     H55746  11.139   6.757   7.805 -0.4194 -0.5184  2.5691
  413MOL0     H55747  11.316   6.986   7.906  0.9130 -0.8745  2.0890
  413MOL0     H55748  11.373   6.896   7.782  1.0270  0.7898  0.8580
  413MOL0     H55749  11.452   6.785   7.969 -0.2705  0.7155  5.3848
  413MOL0     H55750  11.328   6.676   7.934 -0.2207 -0.5182  3.5103
  413MOL0     H55751  11.344   6.712   8.176  1.1439 -0.5599 -0.1518
  413MOL0     H55752  11.186   6.755   8.099 -0.7724 -1.0842  0.9542
  413MOL0     H55753  11.262   7.127   8.259 -1.8424 -0.1479  0.0481
  413MOL0     H55754  11.134   7.157   7.854  3.5588 -1.5325 -1.4865
  413MOL0     H55755  11.017   7.362   7.789  1.3775 -0.7437 -0.0839
  414MOL0     O55756   9.569   1.196   1.707 -0.0882  0.6343  1.9054
  414MOL0     C55757   9.591   1.192   1.586 -0.8944 -0.9498  0.4559
  414MOL0     O55758   9.505   1.147   1.485  0.3610  0.3353 -0.2110
  414MOL0     C55759   9.370   1.118   1.530  0.0140  0.0495  1.2683
  414MOL0     C55760   9.312   0.999   1.478  0.8068 -0.5526 -0.3404
  414MOL0     C55761   9.176   0.967   1.489 -0.8267  1.3697 -0.2418
  414MOL0     C55762   9.093   1.057   1.555 -0.4355  0.1598 -0.2453
  414MOL0     O55763   8.957   1.025   1.560 -0.5361 -0.1318 -0.8087
  414MOL0     C55764   8.889   1.004   1.685 -0.3684  1.1148 -0.3233
  414MOL0     C55765   8.816   0.864   1.685 -0.2950 -0.1393  0.9102
  414MOL0     C55766   8.713   0.852   1.794  0.5053 -0.2749  0.1789
  414MOL0     C55767   8.584   0.926   1.761 -0.2280  0.5817  0.4026
  414MOL0     C55768   8.472   0.896   1.867 -0.8202  0.8855 -0.2549
  414MOL0     C55769   8.334   0.954   1.841 -0.1881 -0.2159 -0.6461
  414MOL0     C55770   8.244   0.889   1.730 -0.2888  0.2611  0.4014
  414MOL0     C55771   8.142   0.787   1.789 -0.1907 -0.5511 -0.8151
  414MOL0     N55772   8.020   0.765   1.710 -0.2443  0.2156 -0.4553
  414MOL0     C55773   7.911   0.859   1.697 -0.2918 -0.1557  0.5634
  414MOL0     C55774   7.814   0.788   1.643 -0.1507  0.2055  0.4741
  414MOL0     C55775   7.684   0.846   1.611 -0.0727 -0.1473  0.6933
  414MOL0     C55776   7.649   0.965   1.702  0.4962  0.0153 -0.1216
  414MOL0     C55777   7.504   1.017   1.685 -1.0477 -0.0740 -0.0405
  414MOL0     C55778   7.481   1.175   1.661  0.9453 -0.0308 -0.6564
  414MOL0     O55779   7.546   1.263   1.757 -0.0773 -0.0940 -0.0571
  414MOL0     C55780   7.482   1.291   1.876 -0.7005  0.9634  0.1437
  414MOL0     C55781   7.352   1.327   1.895  0.1653 -0.1043 -0.0358
  414MOL0     C55782   7.304   1.346   2.027 -0.6374 -0.2887 -0.0184
  414MOL0     C55783   7.169   1.412   2.035 -0.1088  0.4168  0.3423
  414MOL0     C55784   7.387   1.325   2.140 -0.3067 -0.4719  0.3489
  414MOL0     C55785   7.339   1.331   2.277 -0.5987 -1.2618  0.0071
  414MOL0     O55786   7.427   1.389   2.370  0.3394 -1.2784 -0.1640
  414MOL0     C55787   7.359   1.452   2.474  0.6680  0.5728  0.1449
  414MOL0     C55788   7.322   1.380   2.590  0.5932  0.2090  0.1910
  414MOL0     C55789   7.242   1.438   2.678  0.6438 -1.3764  0.2767
  414MOL0     C55790   7.207   1.575   2.666  1.8847 -0.1591  1.1549
  414MOL0     O55791   7.153   1.654   2.765  0.3247  0.1637  0.4175
  414MOL0     C55792   7.019   1.625   2.798  0.0102  0.7684 -0.6946
  414MOL0     C55793   6.906   1.710   2.744  0.9191  1.2528 -0.0283
  414MOL0     C55794   6.776   1.635   2.771 -0.5197  0.2488 -0.1147
  414MOL0     C55795   6.672   1.744   2.777  0.5382 -0.0254  0.4094
  414MOL0     C55796   6.540   1.689   2.732  0.3492 -0.5194  0.2671
  414MOL0     C55797   6.534   1.674   2.573 -0.0886 -0.0974 -0.9548
  414MOL0     C55798   6.397   1.626   2.510  0.2945 -0.2683 -0.4440
  414MOL0     C55799   6.409   1.644   2.359 -0.4393  0.9805  0.3178
  414MOL0    Cl55800   6.285   1.539   2.290 -0.3109 -0.1748  0.1468
  414MOL0     C55801   7.265   1.653   2.556 -0.1154 -0.4151 -0.2872
  414MOL0     C55802   7.342   1.582   2.459 -0.1746 -0.7008 -1.0794
  414MOL0     O55803   7.229   1.280   2.303 -0.7215  0.4147  0.1027
  414MOL0     C55804   7.523   1.293   2.117 -1.0867 -0.5090  0.0778
  414MOL0     C55805   7.570   1.283   1.990 -0.6785 -0.1051  0.8497
  414MOL0     N55806   7.843   0.649   1.646 -0.8554 -0.7917 -0.6929
  414MOL0     N55807   7.967   0.641   1.691  0.0541 -0.2137  0.8697
  414MOL0     C55808   9.148   1.174   1.614  1.7208 -0.3006  0.5042
  414MOL0     C55809   9.287   1.209   1.596 -0.1387 -0.3736 -0.7330
  414MOL0     C55810   9.725   1.241   1.543  0.8969  0.4558  0.0154
  414MOL0     C55811   9.804   1.320   1.632 -0.0523 -0.9917 -0.1954
  414MOL0     C55812   9.918   1.392   1.588  0.6158 -0.6678  0.3691
  414MOL0     C55813   9.959   1.381   1.448  0.7454  0.1809 -1.1699
  414MOL0     O55814  10.047   1.463   1.386 -0.5012  0.0704  0.8510
  414MOL0     C55815  10.172   1.476   1.448 -0.9228 -0.1127 -0.8151
  414MOL0     C55816  10.296   1.489   1.365  0.0958  0.1124  0.2041
  414MOL0     C55817  10.277   1.608   1.265  1.0111 -0.3734 -0.1607
  414MOL0     C55818  10.405   1.627   1.184  0.3924 -0.2804 -0.7310
  414MOL0     C55819  10.381   1.712   1.066 -0.4905 -0.4225  0.4293
  414MOL0     C55820  10.364   1.795   0.978 -0.4414  0.3407  0.0637
  414MOL0     C55821   9.894   1.288   1.365  0.8347 -0.4378 -1.0052
  414MOL0     C55822   9.771   1.228   1.399  0.6373  0.6062 -0.5791
  414MOL0     H55823   9.379   0.931   1.426 -0.2722 -2.5712  0.7580
  414MOL0     H55824   9.149   0.865   1.466  1.2658  0.5807  0.6072
  414MOL0     H55825   8.959   1.003   1.769 -4.4481  2.1371  3.4443
  414MOL0     H55826   8.822   1.089   1.700 -1.0703  1.2812 -3.6599
  414MOL0     H55827   8.769   0.850   1.587 -2.3450  1.7192  1.5561
  414MOL0     H55828   8.885   0.780   1.697  0.7701  0.5883  0.1057
  414MOL0     H55829   8.697   0.744   1.805  4.3948 -1.0185 -0.0562
  414MOL0     H55830   8.754   0.881   1.891  0.6884 -1.6340  0.5384
  414MOL0     H55831   8.616   1.030   1.763 -2.0279  1.1577  1.0113
  414MOL0     H55832   8.541   0.905   1.663  0.7284 -1.9159  0.4376
  414MOL0     H55833   8.463   0.789   1.884  1.1263  0.4423 -1.6672
  414MOL0     H55834   8.497   0.948   1.960 -0.8127  1.1221 -0.3865
  414MOL0     H55835   8.275   0.949   1.933  1.0548  2.5490  0.4095
  414MOL0     H55836   8.356   1.060   1.827 -0.4953 -0.0041  0.3890
  414MOL0     H55837   8.194   0.973   1.682 -0.2369 -0.6241 -1.2653
  414MOL0     H55838   8.307   0.836   1.657 -0.8559 -1.3936  1.0747
  414MOL0     H55839   8.112   0.831   1.884  3.0885  0.8191 -0.2791
  414MOL0     H55840   8.182   0.689   1.817 -1.1159 -0.1829  2.0612
  414MOL0     H55841   7.912   0.959   1.739  1.5111 -0.8763  2.3880
  414MOL0     H55842   7.697   0.891   1.512 -1.4144  0.0405  0.5863
  414MOL0     H55843   7.602   0.775   1.627  0.4614 -0.8103  0.5387
  414MOL0     H55844   7.722   1.046   1.688  0.8576 -0.0745  1.1208
  414MOL0     H55845   7.653   0.915   1.800  2.6904  0.3785  0.0349
  414MOL0     H55846   7.448   0.987   1.774  0.7835 -2.3255  0.4589
  414MOL0     H55847   7.463   0.972   1.593  2.9102 -1.1889 -1.4457
  414MOL0     H55848   7.376   1.204   1.652  0.2407 -1.3107  2.2889
  414MOL0     H55849   7.529   1.190   1.563  1.0948 -1.3330 -0.8021
  414MOL0     H55850   7.289   1.339   1.808 -1.8183  2.7932  1.6431
  414MOL0     H55851   7.184   1.520   2.043 -0.8147  0.5548 -0.0468
  414MOL0     H55852   7.112   1.391   1.944 -0.3851  1.7066  0.1941
  414MOL0     H55853   7.100   1.385   2.115 -0.1330  3.0958  1.3268
  414MOL0     H55854   7.347   1.275   2.599 -1.2860 -0.5844 -2.4671
  414MOL0     H55855   7.208   1.378   2.761  0.3208 -2.3918 -0.5628
  414MOL0     H55856   7.000   1.522   2.770  1.3280 -0.6788  3.0878
  414MOL0     H55857   7.008   1.620   2.907  0.9117 -1.6282 -0.6523
  414MOL0     H55858   6.906   1.807   2.794 -0.9186  1.1510  0.2512
  414MOL0     H55859   6.915   1.720   2.636 -3.7237  0.4250 -0.6744
  414MOL0     H55860   6.784   1.583   2.867 -0.7962 -1.1705 -0.8374
  414MOL0     H55861   6.768   1.563   2.689  1.9964 -1.2647  0.8638
  414MOL0     H55862   6.659   1.780   2.879 -3.6302  1.6736 -0.5534
  414MOL0     H55863   6.698   1.831   2.716  2.1393  0.4328  1.6762
  414MOL0     H55864   6.464   1.766   2.753 -3.9545 -4.0787 -0.5920
  414MOL0     H55865   6.518   1.595   2.783 -1.8925 -0.8799 -1.2329
  414MOL0     H55866   6.560   1.773   2.535 -1.3503  0.1384 -1.2561
  414MOL0     H55867   6.611   1.602   2.545  0.9253  0.0007  1.3455
  414MOL0     H55868   6.311   1.680   2.551 -0.4686  0.0921 -2.4081
  414MOL0     H55869   6.392   1.524   2.550  2.9512  0.3032  1.5782
  414MOL0     H55870   6.503   1.615   2.309 -1.5939  1.4858 -2.3293
  414MOL0     H55871   6.389   1.751   2.344  4.9558  2.3253  0.4732
  414MOL0     H55872   7.244   1.759   2.541 -0.7770 -0.8251 -2.7283
  414MOL0     H55873   7.385   1.609   2.363 -1.8109 -1.4925 -2.0891
  414MOL0     H55874   7.590   1.282   2.202  0.3859  0.1879 -0.9394
  414MOL0     H55875   7.677   1.269   1.985 -0.0835  3.6075 -0.9376
  414MOL0     H55876   9.068   1.235   1.654  2.4012  1.6003 -0.8474
  414MOL0     H55877   9.333   1.297   1.641 -0.9305  0.5824 -1.7536
  414MOL0     H55878   9.783   1.334   1.737 -1.0179  1.9784 -0.6852
  414MOL0     H55879   9.973   1.456   1.656 -1.4301  0.9295  0.6035
  414MOL0     H55880  10.167   1.562   1.515  1.4502 -0.0821 -0.5925
  414MOL0     H55881  10.189   1.389   1.512 -2.4692 -0.9233 -1.4484
  414MOL0     H55882  10.317   1.397   1.310  1.0401  0.2291  0.3422
  414MOL0     H55883  10.374   1.517   1.437  1.4606  0.5010 -1.3621
  414MOL0     H55884  10.261   1.709   1.305  3.7228  0.1255 -0.1610
  414MOL0     H55885  10.193   1.588   1.197 -1.5299  3.3674  1.5588
  414MOL0     H55886  10.438   1.529   1.149 -2.4658 -0.8744 -2.0660
  414MOL0     H55887  10.485   1.678   1.240  2.1189 -2.7616 -0.7882
  414MOL0     H55888  10.342   1.867   0.902 -0.2824 -0.8915 -1.2049
  414MOL0     H55889   9.933   1.275   1.265  1.4335  1.3983 -1.0600
  414MOL0     H55890   9.715   1.169   1.327  0.3282 -0.0358  0.1665
  415MOL0     O55891   4.690  11.101  11.076 -0.1116 -0.4873 -1.1069
  415MOL0     C55892   4.637  11.002  11.133 -0.0205  0.1414  0.6527
  415MOL0     O55893   4.544  11.007  11.237 -0.5902  1.0239  0.5927
  415MOL0     C55894   4.488  11.121  11.281 -0.5421 -0.9802  0.5229
  415MOL0     C55895   4.432  11.113  11.409  0.2390 -0.0173 -1.1578
  415MOL0     C55896   4.370  11.235  11.451 -0.6561  1.2029 -0.3434
  415MOL0     C55897   4.356  11.349  11.378  0.8026 -0.1192  0.0709
  415MOL0     O55898   4.309  11.466  11.429  0.4590  0.4132  0.4678
  415MOL0     C55899   4.180  11.452  11.493  0.7056  0.5445  0.3426
  415MOL0     C55900   4.105  11.584  11.505 -0.0315  0.0174 -0.9413
  415MOL0     C55901   3.965  11.554  11.566 -0.0172 -0.5162 -0.0265
  415MOL0     C55902   3.896  11.694  11.571 -0.3064 -0.6985  0.2041
  415MOL0     C55903   3.743  11.699  11.593  0.1826 -0.0029  0.5294
  415MOL0     C55904   3.666  11.601  11.491 -1.0192 -0.7463  0.5964
  415MOL0     C55905   3.703  11.639  11.342  0.0571 -0.6212 -0.0728
  415MOL0     C55906   3.587  11.625  11.238  0.0655 -0.4918  0.2162
  415MOL0     N55907   3.565  11.495  11.165 -0.6138  0.2972 -1.0882
  415MOL0     C55908   3.497  11.383  11.227 -0.2301  0.0983  0.1459
  415MOL0     C55909   3.512  11.287  11.128 -0.7968  0.1870 -0.3857
  415MOL0     C55910   3.459  11.140  11.130  0.0102  0.0958  0.3593
  415MOL0     C55911   3.304  11.148  11.103 -0.5295 -0.2507 -0.9592
  415MOL0     C55912   3.218  11.027  11.147  1.6702  0.2398 -1.4636
  415MOL0     C55913   3.224  10.907  11.050  0.6337  0.0950  0.9979
  415MOL0     O55914   3.347  10.864  11.025  0.7471 -0.3040 -0.8268
  415MOL0     C55915   3.371  10.786  10.912  0.5408 -0.7251 -0.0524
  415MOL0     C55916   3.497  10.791  10.848  0.2574 -0.0501 -0.0366
  415MOL0     C55917   3.532  10.702  10.751  0.4690  0.2892 -0.8507
  415MOL0     C55918   3.679  10.693  10.720 -0.1124 -0.1437 -0.6222
  415MOL0     C55919   3.432  10.609  10.705 -1.0186  0.5682  0.0969
  415MOL0     C55920   3.460  10.510  10.597  1.2702  0.3356  0.6299
  415MOL0     O55921   3.360  10.427  10.552  0.6748 -0.6220  0.0526
  415MOL0     C55922   3.381  10.321  10.470  0.3307  0.5240  0.3994
  415MOL0     C55923   3.271  10.267  10.407 -0.0839 -1.1388 -0.2770
  415MOL0     C55924   3.277  10.171  10.303 -0.2544 -0.6621  0.1748
  415MOL0     C55925   3.399  10.111  10.271  0.0852  0.0407 -0.1258
  415MOL0     O55926   3.415  10.014  10.177  0.1578  0.2612  0.3054
  415MOL0     C55927   3.307   9.989  10.086  0.1734 -0.2671  0.8117
  415MOL0     C55928   3.339   9.901   9.971 -0.1705 -0.0870 -0.4694
  415MOL0     C55929   3.451   9.958   9.888 -0.4365 -0.3540 -0.0920
  415MOL0     C55930   3.480   9.876   9.762 -0.5581  0.1944  0.4824
  415MOL0     C55931   3.551   9.754   9.779  0.0698  0.4563 -0.1060
  415MOL0     C55932   3.592   9.662   9.656  0.2493 -0.1860 -0.9590
  415MOL0     C55933   3.474   9.640   9.560  1.3388  0.0797 -0.0339
  415MOL0     C55934   3.367   9.540   9.606  0.2106  0.1717 -0.1870
  415MOL0    Cl55935   3.244   9.621   9.724 -0.4989  0.0185 -0.4406
  415MOL0     C55936   3.505  10.155  10.343  0.3366 -0.0946 -0.4756
  415MOL0     C55937   3.498  10.251  10.439  0.8304 -0.3518 -0.0119
  415MOL0     O55938   3.574  10.503  10.554  0.3396 -0.3515 -0.2201
  415MOL0     C55939   3.310  10.587  10.772  0.0697 -0.2015 -0.5248
  415MOL0     C55940   3.288  10.673  10.882 -0.5778 -0.7243 -0.1021
  415MOL0     N55941   3.568  11.353  11.020 -0.4550 -0.0310  0.1098
  415MOL0     N55942   3.599  11.474  11.035  0.0002  0.4270 -0.1566
  415MOL0     C55943   4.402  11.349  11.247  0.7663 -0.2387  1.1290
  415MOL0     C55944   4.465  11.235  11.198  0.0188  0.7076 -0.5969
  415MOL0     C55945   4.673  10.860  11.074 -0.6059 -0.0334 -0.2448
  415MOL0     C55946   4.757  10.857  10.963 -0.2982  0.1712  0.1244
  415MOL0     C55947   4.805  10.729  10.920  0.4346  0.6583  0.0157
  415MOL0     C55948   4.792  10.611  11.005  0.0185 -0.7781  0.6000
  415MOL0     O55949   4.860  10.494  11.007 -0.5421  0.7994 -0.2344
  415MOL0     C55950   4.990  10.466  10.951 -0.8815 -0.8578 -0.0712
  415MOL0     C55951   4.974  10.433  10.800 -0.4980 -0.1170 -0.1034
  415MOL0     C55952   4.943  10.291  10.769 -0.6236  0.2784 -1.1927
  415MOL0     C55953   5.057  10.193  10.769  0.3323  0.2539 -0.8210
  415MOL0     C55954   5.014  10.062  10.737  0.8194 -0.4054 -0.0284
  415MOL0     C55955   4.967   9.944  10.730  1.2523  0.0595  1.7212
  415MOL0     C55956   4.703  10.622  11.114 -0.1849 -0.4742 -0.8069
  415MOL0     C55957   4.652  10.745  11.154  0.4022 -0.3224 -0.2690
  415MOL0     H55958   4.444  11.025  11.472  0.9508  0.9732  0.1463
  415MOL0     H55959   4.325  11.223  11.549  1.3854 -2.1919  0.3351
  415MOL0     H55960   4.111  11.390  11.435  2.3831 -0.2801 -0.8365
  415MOL0     H55961   4.196  11.407  11.591  4.3912  0.9920  0.0649
  415MOL0     H55962   4.162  11.657  11.563 -0.6309 -0.0635 -0.2407
  415MOL0     H55963   4.078  11.616  11.404  0.0612  1.7342 -0.4386
  415MOL0     H55964   3.911  11.486  11.500  1.8041 -1.0184 -1.0887
  415MOL0     H55965   3.986  11.516  11.666  3.4309 -1.4291 -0.9458
  415MOL0     H55966   3.938  11.762  11.646 -1.1122  3.4144 -2.7012
  415MOL0     H55967   3.913  11.754  11.481 -0.1903  5.1853  3.6288
  415MOL0     H55968   3.722  11.676  11.697  2.1282  3.7458  1.9532
  415MOL0     H55969   3.703  11.798  11.568 -0.0593 -0.3788 -0.6288
  415MOL0     H55970   3.678  11.493  11.503  1.3025 -0.5208  0.7708
  415MOL0     H55971   3.557  11.615  11.496 -1.4464 -2.3296 -2.2211
  415MOL0     H55972   3.754  11.734  11.326 -2.0016  1.4268  4.1161
  415MOL0     H55973   3.774  11.560  11.314  0.8167  0.0613 -0.1065
  415MOL0     H55974   3.606  11.698  11.160 -0.0587  0.0145  0.6512
  415MOL0     H55975   3.491  11.659  11.279 -1.4652 -3.6148 -0.4662
  415MOL0     H55976   3.461  11.375  11.330  0.9240  3.6025  0.9454
  415MOL0     H55977   3.511  11.092  11.047 -0.4710  0.5639 -0.2145
  415MOL0     H55978   3.486  11.089  11.224 -2.9448  0.8712  1.7530
  415MOL0     H55979   3.302  11.173  10.996 -1.1153  1.6089 -0.5473
  415MOL0     H55980   3.259  11.233  11.155  1.4372 -0.7498  1.7534
  415MOL0     H55981   3.116  11.061  11.167  1.5211  1.4009 -3.8204
  415MOL0     H55982   3.252  10.999  11.247  2.5956 -0.7129 -2.0285
  415MOL0     H55983   3.171  10.936  10.959 -0.2150  1.4300  1.8733
  415MOL0     H55984   3.175  10.821  11.097  0.8798 -0.7505 -0.2668
  415MOL0     H55985   3.576  10.855  10.886  0.5340 -1.7643  2.5108
  415MOL0     H55986   3.688  10.709  10.612  1.7026  0.1204 -0.4670
  415MOL0     H55987   3.737  10.773  10.768 -1.8232  2.4558 -2.6125
  415MOL0     H55988   3.712  10.593  10.748 -1.5899  0.4412  4.1015
  415MOL0     H55989   3.174  10.291  10.451  0.2098  0.3779 -0.4051
  415MOL0     H55990   3.182  10.134  10.264  0.7488 -2.0820 -1.0490
  415MOL0     H55991   3.223   9.945  10.140  0.0653 -1.5183 -0.3180
  415MOL0     H55992   3.266  10.084  10.048 -3.9337 -0.9866  2.9120
  415MOL0     H55993   3.361   9.805  10.018  1.0482  0.0717 -0.6736
  415MOL0     H55994   3.250   9.895   9.908  0.9919 -0.5274 -2.1609
  415MOL0     H55995   3.547   9.975   9.937 -0.0223  1.3420 -1.4146
  415MOL0     H55996   3.417  10.058   9.861  0.9671 -0.0589 -0.8745
  415MOL0     H55997   3.385   9.860   9.710  0.9522  1.1801 -2.8482
  415MOL0     H55998   3.537   9.934   9.690  0.4573 -1.8968 -0.5039
  415MOL0     H55999   3.491   9.687   9.842  1.4413 -0.7194 -0.0150
  415MOL0     H56000   3.637   9.795   9.831  1.4192  0.6508 -2.3431
  415MOL0     H56001   3.672   9.709   9.600 -0.3746  1.1961 -0.7223
  415MOL0     H56002   3.633   9.564   9.683  1.8207  0.4868 -0.8171
  415MOL0     H56003   3.511   9.600   9.465 -2.7526  2.0724 -2.7568
  415MOL0     H56004   3.427   9.735   9.535  1.4742  0.0436 -0.4248
  415MOL0     H56005   3.401   9.446   9.652 -1.9157  0.0385  1.2615
  415MOL0     H56006   3.320   9.495   9.518 -2.8270  0.0217  1.3691
  415MOL0     H56007   3.598  10.104  10.323 -0.0419 -1.2681  0.6187
  415MOL0     H56008   3.586  10.282  10.495  1.3743  0.5841 -1.3412
  415MOL0     H56009   3.234  10.516  10.739  1.7150 -2.2518 -0.1285
  415MOL0     H56010   3.204  10.652  10.948  1.2386 -1.7733  2.0191
  415MOL0     H56011   4.394  11.438  11.185  0.5834 -1.2461 -0.3320
  415MOL0     H56012   4.506  11.237  11.098  0.3528 -1.1789 -0.5392
  415MOL0     H56013   4.797  10.942  10.909  1.0211 -0.7711 -0.4480
  415MOL0     H56014   4.872  10.720  10.835 -0.6766  0.8473 -0.9065
  415MOL0     H56015   5.053  10.552  10.976 -0.1446 -1.2708 -0.4741
  415MOL0     H56016   5.018  10.375  11.005  0.0756 -0.3756  0.2770
  415MOL0     H56017   5.066  10.460  10.748  0.8504 -0.3909  1.9938
  415MOL0     H56018   4.897  10.503  10.766  1.0219  3.2445  2.6501
  415MOL0     H56019   4.902  10.286  10.668 -2.7679 -3.4100 -0.3198
  415MOL0     H56020   4.871  10.247  10.838 -0.0823 -0.0011 -0.7950
  415MOL0     H56021   5.109  10.201  10.865  1.4075  0.0355 -1.3605
  415MOL0     H56022   5.134  10.213  10.694  1.4089 -0.4719  0.0528
  415MOL0     H56023   4.936   9.842  10.717  0.9880  0.4441 -1.2372
  415MOL0     H56024   4.676  10.542  11.182 -1.9402 -0.1661 -1.1110
  415MOL0     H56025   4.582  10.751  11.236  2.5273  2.1294  1.5521
  416MOL0     O56026   4.261   2.294   4.057 -0.5719  0.7756 -0.4427
  416MOL0     C56027   4.341   2.357   3.987  0.7519  0.1993  0.2048
  416MOL0     O56028   4.356   2.354   3.853  0.1356  0.4564  0.0569
  416MOL0     C56029   4.265   2.281   3.786  0.3959  1.1340  1.0018
  416MOL0     C56030   4.250   2.328   3.657 -0.0676  0.1370 -0.4876
  416MOL0     C56031   4.155   2.275   3.569  0.7517 -0.1110 -0.4056
  416MOL0     C56032   4.067   2.177   3.611  0.0202  0.3229 -0.0515
  416MOL0     O56033   3.975   2.104   3.544 -0.4020 -0.3171  0.3062
  416MOL0     C56034   3.958   2.132   3.404  0.9077 -0.8145 -0.2822
  416MOL0     C56035   3.862   2.245   3.394 -0.6968 -0.4638 -0.8406
  416MOL0     C56036   3.853   2.319   3.266  0.4696  0.3185  1.0234
  416MOL0     C56037   3.729   2.408   3.277  0.1110  0.8710  1.0799
  416MOL0     C56038   3.701   2.501   3.162 -0.0016 -1.1305 -1.6556
  416MOL0     C56039   3.572   2.571   3.178 -0.8578 -0.2694 -0.0871
  416MOL0     C56040   3.534   2.655   3.051  0.7394  0.2010 -0.7757
  416MOL0     C56041   3.403   2.719   3.077 -0.5747 -0.7519  0.3859
  416MOL0     N56042   3.297   2.618   3.074  0.0321 -0.0501 -0.0004
  416MOL0     C56043   3.213   2.569   3.176  0.7181  0.6615  0.9721
  416MOL0     C56044   3.118   2.494   3.118  0.0662  1.1133  0.4060
  416MOL0     C56045   3.013   2.414   3.190  0.9818 -0.7745  0.1747
  416MOL0     C56046   2.973   2.447   3.343  0.3746 -0.0907  0.3487
  416MOL0     C56047   2.932   2.589   3.365 -0.1633  0.3108 -0.6934
  416MOL0     C56048   2.904   2.624   3.514 -0.6110 -0.2444  0.8074
  416MOL0     O56049   3.032   2.619   3.578 -0.1164 -0.2230 -0.0888
  416MOL0     C56050   3.056   2.619   3.715 -0.3344  0.2017  0.0184
  416MOL0     C56051   3.184   2.601   3.747 -0.6029 -0.4761  0.5752
  416MOL0     C56052   3.231   2.581   3.877 -0.5236 -0.8071 -1.0517
  416MOL0     C56053   3.381   2.568   3.892  1.0017 -0.2291 -0.3955
  416MOL0     C56054   3.134   2.603   3.983  0.0420 -0.3974  0.3454
  416MOL0     C56055   3.159   2.590   4.139  0.7016  0.1846  0.3670
  416MOL0     O56056   3.285   2.560   4.194  0.2525  0.4070  0.6206
  416MOL0     C56057   3.292   2.525   4.328  0.5015 -0.4709 -0.0850
  416MOL0     C56058   3.361   2.610   4.431  0.4270  0.2426 -0.0602
  416MOL0     C56059   3.374   2.574   4.560 -0.0801 -0.3426 -0.5235
  416MOL0     C56060   3.323   2.450   4.603 -0.1962 -0.1876 -0.3577
  416MOL0     O56061   3.347   2.432   4.737  0.4539 -0.1952 -0.1506
  416MOL0     C56062   3.291   2.310   4.798 -0.2622 -1.0355 -1.3977
  416MOL0     C56063   3.272   2.330   4.948 -1.6428 -0.0468  0.0884
  416MOL0     C56064   3.150   2.406   4.979 -0.1417  0.6868 -0.4913
  416MOL0     C56065   3.106   2.404   5.127 -0.4790  0.1473  0.2258
  416MOL0     C56066   2.989   2.494   5.169 -0.2050  0.8511  0.2829
  416MOL0     C56067   3.035   2.641   5.183  0.0093  0.0188  0.4927
  416MOL0     C56068   2.912   2.732   5.189  0.0162  0.7065 -0.1714
  416MOL0     C56069   2.843   2.743   5.322 -0.4698  0.0359  1.0927
  416MOL0    Cl56070   2.693   2.848   5.312 -0.2184 -0.5238 -0.0366
  416MOL0     C56071   3.252   2.360   4.515 -0.7586 -0.2281  0.4813
  416MOL0     C56072   3.236   2.402   4.371 -0.7737 -0.1029  0.6622
  416MOL0     O56073   3.046   2.604   4.203  0.1686  0.5245 -0.3224
  416MOL0     C56074   2.996   2.631   3.943 -0.3550  0.4754 -0.3547
  416MOL0     C56075   2.958   2.627   3.814 -0.1584 -0.6305  1.2510
  416MOL0     N56076   3.134   2.515   2.982  0.0456 -0.4942 -0.1841
  416MOL0     N56077   3.246   2.575   2.958  0.6021  1.4994  0.6679
  416MOL0     C56078   4.082   2.134   3.738  0.1347  0.9666 -0.8129
  416MOL0     C56079   4.191   2.165   3.816  1.1208 -0.9437 -0.6218
  416MOL0     C56080   4.432   2.447   4.058 -0.0805 -0.3683  0.2647
  416MOL0     C56081   4.523   2.539   4.003 -0.0275 -0.6875  0.2615
  416MOL0     C56082   4.617   2.604   4.076 -0.8650 -0.2262 -0.2567
  416MOL0     C56083   4.623   2.606   4.213  0.1070 -0.3487  0.3932
  416MOL0     O56084   4.696   2.700   4.287 -0.5976 -0.4133 -0.3064
  416MOL0     C56085   4.783   2.651   4.391 -0.7162 -0.5970  0.7765
  416MOL0     C56086   4.906   2.740   4.358  0.0700  0.4905 -0.4326
  416MOL0     C56087   5.000   2.661   4.269  0.3372 -0.0178 -0.2450
  416MOL0     C56088   5.054   2.732   4.150  0.2740 -0.3714  0.8194
  416MOL0     C56089   5.143   2.847   4.186 -0.3560 -0.3760 -0.2190
  416MOL0     C56090   5.230   2.932   4.213 -0.2177  0.1851  0.2449
  416MOL0     C56091   4.541   2.516   4.269  0.2577  0.3081 -0.1719
  416MOL0     C56092   4.450   2.439   4.204 -0.5525  0.0787  0.3987
  416MOL0     H56093   4.313   2.406   3.615 -4.0148  2.8784 -1.8203
  416MOL0     H56094   4.162   2.310   3.466  3.4120  0.8667  0.0339
  416MOL0     H56095   4.052   2.157   3.353 -0.2728  1.5764 -1.4901
  416MOL0     H56096   3.928   2.036   3.361 -0.1531 -1.7566  2.3819
  416MOL0     H56097   3.764   2.203   3.418 -0.3274 -0.3111  1.0887
  416MOL0     H56098   3.887   2.322   3.468  0.4065  0.2513 -1.9106
  416MOL0     H56099   3.944   2.377   3.250  0.7077 -0.5920 -1.2492
  416MOL0     H56100   3.848   2.243   3.189 -2.8628 -0.4221  1.7899
  416MOL0     H56101   3.648   2.335   3.288  0.7002  0.2515  1.3949
  416MOL0     H56102   3.729   2.471   3.367  1.1217  2.6027 -0.0608
  416MOL0     H56103   3.774   2.582   3.172 -0.5552 -0.8692  0.9906
  416MOL0     H56104   3.700   2.445   3.068 -0.2868 -1.3207 -1.5401
  416MOL0     H56105   3.496   2.495   3.197 -0.5517 -0.6479 -0.3569
  416MOL0     H56106   3.569   2.629   3.271 -2.1611  0.3055 -0.4608
  416MOL0     H56107   3.606   2.732   3.023 -1.8376  2.6430 -1.0983
  416MOL0     H56108   3.523   2.588   2.965 -0.2854  1.0706 -1.3335
  416MOL0     H56109   3.392   2.795   2.999 -0.3127 -2.3776 -1.3053
  416MOL0     H56110   3.409   2.767   3.175 -0.4159 -0.5035  0.2546
  416MOL0     H56111   3.245   2.587   3.278  2.5997  1.5842  0.2719
  416MOL0     H56112   2.916   2.424   3.139 -1.4772 -0.1829  4.4382
  416MOL0     H56113   3.037   2.307   3.193  2.0235 -0.7975 -3.8391
  416MOL0     H56114   3.058   2.431   3.411  1.4188 -0.9409 -1.0888
  416MOL0     H56115   2.896   2.374   3.372 -0.1044  0.2190 -0.1356
  416MOL0     H56116   2.838   2.598   3.310 -1.0800 -0.9234  0.5973
  416MOL0     H56117   3.013   2.655   3.331  1.1153 -0.2929  1.0555
  416MOL0     H56118   2.842   2.542   3.551 -0.3136 -0.6331  0.4653
  416MOL0     H56119   2.877   2.728   3.532  1.1745  0.3573  0.2521
  416MOL0     H56120   3.245   2.584   3.659 -2.7568 -0.2658 -1.0570
  416MOL0     H56121   3.394   2.480   3.956 -1.4217 -2.7491 -3.0680
  416MOL0     H56122   3.438   2.561   3.799  2.8925 -3.4712  0.8007
  416MOL0     H56123   3.422   2.659   3.938 -1.7873  2.5568 -3.0061
  416MOL0     H56124   3.421   2.688   4.386 -2.0077  0.6488 -3.0064
  416MOL0     H56125   3.423   2.649   4.620  0.8460 -0.5497 -0.9990
  416MOL0     H56126   3.187   2.306   4.764 -1.3278  2.5387  0.9301
  416MOL0     H56127   3.348   2.217   4.787  1.0991 -1.3454  4.7041
  416MOL0     H56128   3.256   2.235   5.000  0.0916  0.6706  2.0936
  416MOL0     H56129   3.356   2.383   4.995 -0.0745 -0.7413 -1.8133
  416MOL0     H56130   3.069   2.353   4.928 -0.7835  0.1439  1.0498
  416MOL0     H56131   3.157   2.510   4.945 -0.9874  1.6281  2.0086
  416MOL0     H56132   3.084   2.299   5.148  4.2044 -1.3002 -0.7957
  416MOL0     H56133   3.191   2.432   5.190 -0.7558  2.0215 -0.1714
  416MOL0     H56134   2.952   2.464   5.267  2.1527 -1.5207  0.5883
  416MOL0     H56135   2.909   2.484   5.095  0.9865 -2.1188 -0.7559
  416MOL0     H56136   3.097   2.656   5.272  2.9022 -2.0715 -1.0107
  416MOL0     H56137   3.089   2.656   5.089 -1.0841 -2.7688 -0.6994
  416MOL0     H56138   2.834   2.712   5.115  0.6667 -2.9331 -0.0449
  416MOL0     H56139   2.951   2.829   5.157  4.2154 -0.6003  0.4382
  416MOL0     H56140   2.911   2.771   5.403  1.4739 -2.3440  0.3915
  416MOL0     H56141   2.811   2.642   5.350 -0.5890 -0.3770 -0.4656
  416MOL0     H56142   3.207   2.267   4.549 -1.5831  0.1291  0.3979
  416MOL0     H56143   3.167   2.350   4.305 -0.4839  0.1643  0.1498
  416MOL0     H56144   2.914   2.628   4.013  0.2582  2.0926  0.4989
  416MOL0     H56145   2.858   2.646   3.776  0.5051  1.1161  0.3105
  416MOL0     H56146   4.024   2.053   3.781  0.2089  3.0027  3.7464
  416MOL0     H56147   4.215   2.097   3.897 -0.5545 -2.1580 -1.1117
  416MOL0     H56148   4.513   2.569   3.899 -0.7464  0.8247  0.7325
  416MOL0     H56149   4.671   2.678   4.017  2.3202 -3.8974 -2.4769
  416MOL0     H56150   4.741   2.671   4.491  2.2671  1.5595  1.7451
  416MOL0     H56151   4.814   2.546   4.381 -1.1612 -0.7523  1.0093
  416MOL0     H56152   4.969   2.756   4.446 -0.3029  1.9867 -0.3953
  416MOL0     H56153   4.885   2.840   4.318  0.7362  0.1835 -1.6170
  416MOL0     H56154   4.934   2.584   4.228  0.0832  1.5283 -2.9966
  416MOL0     H56155   5.084   2.622   4.327  1.1488  1.9780  0.0092
  416MOL0     H56156   4.971   2.748   4.081  2.5924 -2.5693 -2.8474
  416MOL0     H56157   5.118   2.662   4.096 -0.5910 -0.2959 -0.3304
  416MOL0     H56158   5.311   3.001   4.222 -0.8711  1.0289 -0.2649
  416MOL0     H56159   4.565   2.509   4.375  2.3224  0.8257 -0.5561
  416MOL0     H56160   4.385   2.377   4.265 -0.9708  1.9396  1.9247
  417MOL0     O56161   4.499   3.060   1.999 -0.9520 -0.6555 -0.1285
  417MOL0     C56162   4.488   3.097   1.879 -0.4478 -0.0968  0.1402
  417MOL0     O56163   4.409   3.032   1.787 -0.0726  0.1062 -0.0167
  417MOL0     C56164   4.356   2.900   1.813 -0.0080  0.0304  0.1684
  417MOL0     C56165   4.226   2.868   1.804  0.4927  0.5678 -0.4136
  417MOL0     C56166   4.174   2.736   1.797 -0.4125  0.3840 -0.2221
  417MOL0     C56167   4.260   2.632   1.829  0.0128  0.4380 -0.4064
  417MOL0     O56168   4.227   2.498   1.819 -0.6247  0.5017 -0.2050
  417MOL0     C56169   4.102   2.456   1.872 -0.9247  0.9004 -0.4524
  417MOL0     C56170   4.010   2.403   1.762 -0.7178 -0.2480 -0.0311
  417MOL0     C56171   3.888   2.322   1.815  0.8580  1.3991  0.3650
  417MOL0     C56172   3.835   2.395   1.931  0.0535 -0.4161  0.2688
  417MOL0     C56173   3.697   2.339   1.971  0.3885  0.4058 -1.4830
  417MOL0     C56174   3.705   2.190   2.008 -1.2175  0.1196 -0.4466
  417MOL0     C56175   3.553   2.131   2.015 -0.5391 -0.5112 -0.4271
  417MOL0     C56176   3.509   2.061   1.883  1.5110 -0.0093  0.2146
  417MOL0     N56177   3.571   1.926   1.871  0.2918 -0.0058 -1.4372
  417MOL0     C56178   3.541   1.805   1.927 -0.3505 -0.7419 -0.6541
  417MOL0     C56179   3.641   1.717   1.878 -0.9035 -0.5284 -0.8321
  417MOL0     C56180   3.666   1.568   1.909 -0.0624  0.1412 -0.4055
  417MOL0     C56181   3.567   1.477   1.836 -0.5332  0.9425 -0.3579
  417MOL0     C56182   3.591   1.489   1.682  0.0480  0.3620  0.5201
  417MOL0     C56183   3.510   1.382   1.618 -0.1380  0.6720 -0.0600
  417MOL0     O56184   3.375   1.430   1.619 -0.1122  0.6060 -0.0994
  417MOL0     C56185   3.326   1.497   1.511 -0.6004  1.0452 -0.1797
  417MOL0     C56186   3.282   1.431   1.399 -0.5723  0.2494 -0.5243
  417MOL0     C56187   3.245   1.499   1.276 -0.6068  1.1897  0.4156
  417MOL0     C56188   3.216   1.413   1.155 -0.3194 -0.2511  0.1512
  417MOL0     C56189   3.248   1.647   1.276 -0.5261  0.2231 -0.2233
  417MOL0     C56190   3.200   1.731   1.157 -1.5328  0.1649 -1.0741
  417MOL0     O56191   3.211   1.868   1.177 -0.7775  0.1374  0.1375
  417MOL0     C56192   3.204   1.964   1.076  0.3622  0.4878  0.0508
  417MOL0     C56193   3.113   2.070   1.084 -0.6377  0.2921 -0.8250
  417MOL0     C56194   3.111   2.164   0.982 -0.0636 -0.0042 -0.2913
  417MOL0     C56195   3.197   2.155   0.873  1.4092  0.6266  0.3448
  417MOL0     O56196   3.182   2.242   0.770 -0.4638 -0.0431 -0.9788
  417MOL0     C56197   3.210   2.181   0.649  0.0356 -0.1136  0.8800
  417MOL0     C56198   3.198   2.288   0.540 -0.6739  0.4493 -0.3822
  417MOL0     C56199   3.080   2.247   0.438  0.5919 -0.4608  0.5954
  417MOL0     C56200   3.059   2.360   0.333 -0.0742 -0.5452 -0.1791
  417MOL0     C56201   2.978   2.487   0.390  0.3365  0.5266  0.9470
  417MOL0     C56202   2.974   2.603   0.293 -0.1025 -0.2128 -0.4025
  417MOL0     C56203   2.856   2.703   0.321 -0.2255  0.8128 -0.0342
  417MOL0     C56204   2.806   2.778   0.201 -1.0520 -0.1279  0.0000
  417MOL0    Cl56205   2.672   2.680   0.122  0.1190 -0.3801 -0.0412
  417MOL0     C56206   3.302   2.052   0.873  0.2730 -0.1502  0.3909
  417MOL0     C56207   3.301   1.960   0.975  0.2138 -0.3302  0.3261
  417MOL0     O56208   3.176   1.676   1.045  0.6728 -0.0294 -0.8630
  417MOL0     C56209   3.298   1.712   1.398  0.4554 -0.0943  1.1189
  417MOL0     C56210   3.328   1.640   1.512 -0.0285  0.2181  0.6719
  417MOL0     N56211   3.726   1.799   1.804 -0.6751 -0.4503 -0.0842
  417MOL0     N56212   3.683   1.919   1.802 -0.7732 -0.5822 -0.2674
  417MOL0     C56213   4.392   2.665   1.872  0.1120  0.7490 -0.0573
  417MOL0     C56214   4.439   2.791   1.850  0.1544  0.0518  0.3214
  417MOL0     C56215   4.538   3.223   1.822 -0.1462  0.2202  0.5136
  417MOL0     C56216   4.530   3.275   1.694 -0.0702 -0.2390  0.3758
  417MOL0     C56217   4.575   3.404   1.654  0.5652  0.2174  0.9441
  417MOL0     C56218   4.639   3.481   1.758 -1.2633  0.1116  0.7707
  417MOL0     O56219   4.672   3.612   1.737 -0.3812 -0.6502  0.0223
  417MOL0     C56220   4.613   3.682   1.632 -0.5141 -0.5851  0.6816
  417MOL0     C56221   4.653   3.840   1.633 -0.7928  0.2624 -0.0484
  417MOL0     C56222   4.566   3.932   1.547  0.2004  1.0323  0.0754
  417MOL0     C56223   4.417   3.932   1.572  0.4700 -0.5910 -0.3057
  417MOL0     C56224   4.367   4.046   1.497 -0.3559 -0.5865  0.2147
  417MOL0     C56225   4.319   4.126   1.424 -0.2343  0.5869 -1.4957
  417MOL0     C56226   4.666   3.429   1.878 -0.9236  0.6349 -0.6397
  417MOL0     C56227   4.614   3.303   1.911  1.6500 -0.4530 -0.7669
  417MOL0     H56228   4.152   2.942   1.775 -1.7384 -2.2717 -2.6525
  417MOL0     H56229   4.069   2.716   1.779 -0.2187 -0.2023 -0.7334
  417MOL0     H56230   4.118   2.380   1.949  0.4458  1.7764  0.1672
  417MOL0     H56231   4.069   2.544   1.928  1.3023  2.6062 -1.6683
  417MOL0     H56232   3.971   2.488   1.705 -2.4001  0.7172  2.3801
  417MOL0     H56233   4.069   2.339   1.696  1.0622 -1.9816  3.0236
  417MOL0     H56234   3.812   2.324   1.737  1.2434  0.2991 -0.0710
  417MOL0     H56235   3.914   2.217   1.836 -2.1645  0.5795  0.4183
  417MOL0     H56236   3.893   2.381   2.023 -1.7508  1.1244  1.7346
  417MOL0     H56237   3.825   2.501   1.906 -2.2189 -0.8456 -0.9822
  417MOL0     H56238   3.671   2.387   2.066  4.2436 -0.0095 -0.0375
  417MOL0     H56239   3.616   2.354   1.899 -3.0059  1.7802  2.2317
  417MOL0     H56240   3.756   2.127   1.935  0.8914 -0.6569  1.6001
  417MOL0     H56241   3.753   2.179   2.105  0.9563  0.8507 -1.3878
  417MOL0     H56242   3.545   2.063   2.100  0.5651  1.6884  1.5605
  417MOL0     H56243   3.477   2.210   2.021 -1.8551 -1.5082 -2.7654
  417MOL0     H56244   3.543   2.125   1.801 -2.6301  0.7614 -1.1663
  417MOL0     H56245   3.400   2.052   1.881  1.4339  0.9829 -0.3331
  417MOL0     H56246   3.450   1.780   1.980 -1.0868  2.1517 -0.3927
  417MOL0     H56247   3.768   1.549   1.872  0.6191  0.3859  1.2462
  417MOL0     H56248   3.662   1.539   2.015  1.7116 -0.2212 -0.4003
  417MOL0     H56249   3.462   1.497   1.860 -2.1658 -2.2612 -3.7484
  417MOL0     H56250   3.575   1.371   1.863 -0.7129  1.8425  4.0736
  417MOL0     H56251   3.693   1.465   1.653  0.0166  0.7560  0.0616
  417MOL0     H56252   3.566   1.589   1.643  0.6853  0.2693 -0.1486
  417MOL0     H56253   3.517   1.281   1.658  0.5115  0.7962  0.1542
  417MOL0     H56254   3.534   1.365   1.512  1.9207  0.4422  0.3971
  417MOL0     H56255   3.283   1.323   1.408 -0.0961  0.1747 -1.3672
  417MOL0     H56256   3.115   1.438   1.120  0.2818  1.1211 -0.6607
  417MOL0     H56257   3.291   1.445   1.083 -0.2059 -0.6563  0.0867
  417MOL0     H56258   3.233   1.306   1.174  0.0864  0.2622  3.0248
  417MOL0     H56259   3.054   2.094   1.172 -0.0807  1.1235 -0.6654
  417MOL0     H56260   3.042   2.247   0.972  0.7686  0.6217 -0.9618
  417MOL0     H56261   3.309   2.136   0.636  0.7269  0.9694  2.1049
  417MOL0     H56262   3.136   2.106   0.621  0.6203  0.8046 -4.0193
  417MOL0     H56263   3.178   2.390   0.575 -1.2114  0.2652 -0.1456
  417MOL0     H56264   3.296   2.288   0.492  1.2251 -0.6682  3.1531
  417MOL0     H56265   2.987   2.223   0.491  1.7025  1.1859  3.5469
  417MOL0     H56266   3.111   2.163   0.376  0.3830  0.8041 -1.3191
  417MOL0     H56267   3.159   2.392   0.305  0.0179  1.3143  1.9356
  417MOL0     H56268   3.013   2.326   0.240 -0.8230  1.1563 -0.4770
  417MOL0     H56269   3.024   2.521   0.483  3.1915 -1.6826  0.4931
  417MOL0     H56270   2.875   2.452   0.400  1.3094 -2.3935  1.7541
  417MOL0     H56271   3.073   2.648   0.307 -0.7834  0.8506  1.3244
  417MOL0     H56272   2.966   2.576   0.188  1.2569 -1.0781 -0.3142
  417MOL0     H56273   2.901   2.772   0.393  1.4881 -0.1693 -0.1085
  417MOL0     H56274   2.773   2.645   0.361  0.4152 -1.6823 -2.0194
  417MOL0     H56275   2.876   2.793   0.118  0.6080  0.1948  1.4252
  417MOL0     H56276   2.766   2.873   0.238 -1.3149  0.8581 -2.5741
  417MOL0     H56277   3.374   2.030   0.795  0.5505  0.1299  0.5645
  417MOL0     H56278   3.381   1.887   0.964 -1.6968 -2.5677  0.5322
  417MOL0     H56279   3.291   1.818   1.421  0.6759 -0.6908  4.3660
  417MOL0     H56280   3.344   1.682   1.611 -0.9648 -0.9612  1.3611
  417MOL0     H56281   4.461   2.595   1.918  0.4930  0.3478 -1.2068
  417MOL0     H56282   4.545   2.799   1.873  0.0926 -1.1351  1.1123
  417MOL0     H56283   4.467   3.207   1.636 -1.3068  0.7570  0.5086
  417MOL0     H56284   4.547   3.444   1.557  2.6891  1.2306  0.6952
  417MOL0     H56285   4.651   3.636   1.540  2.8319  0.9298  1.1537
  417MOL0     H56286   4.504   3.675   1.638 -0.5142  0.6417  3.6550
  417MOL0     H56287   4.755   3.854   1.595 -0.2184 -0.0980  1.3119
  417MOL0     H56288   4.655   3.875   1.736 -0.0440  0.4676 -0.1214
  417MOL0     H56289   4.583   3.892   1.447 -1.2390  0.8165 -0.0975
  417MOL0     H56290   4.603   4.035   1.553  2.9914  0.3741 -2.8502
  417MOL0     H56291   4.406   3.940   1.680 -1.9737  1.2389 -0.6095
  417MOL0     H56292   4.351   3.848   1.547 -0.7376  0.3233 -0.2600
  417MOL0     H56293   4.271   4.209   1.376  0.6939  1.8875 -0.2628
  417MOL0     H56294   4.736   3.471   1.949  1.1899 -0.2577 -2.1041
  417MOL0     H56295   4.640   3.274   2.012  1.1617 -1.4850 -0.9258
  418MOL0     O56296  10.979   4.288   4.257  0.0840  0.5863  0.4386
  418MOL0     C56297  10.918   4.361   4.342  0.0722  0.3920 -0.4716
  418MOL0     O56298  10.783   4.381   4.340  0.5605  0.4599  0.2857
  418MOL0     C56299  10.694   4.300   4.272  0.1384  0.0188 -0.2560
  418MOL0     C56300  10.707   4.170   4.293 -0.7854  0.5841 -0.4705
  418MOL0     C56301  10.624   4.081   4.224 -0.2319 -0.4911 -0.4704
  418MOL0     C56302  10.521   4.132   4.152  0.2768 -0.2738  0.1818
  418MOL0     O56303  10.446   4.044   4.079 -0.4051 -0.1500  0.3935
  418MOL0     C56304  10.313   4.021   4.134  0.6490 -0.0670 -0.2716
  418MOL0     C56305  10.223   3.939   4.047  0.7157  0.1515  0.1656
  418MOL0     C56306  10.205   3.987   3.904 -0.1942 -0.2620 -0.4473
  418MOL0     C56307  10.064   4.026   3.861 -0.3434  0.0890 -0.9420
  418MOL0     C56308  10.081   4.132   3.747  0.6043 -0.0251 -1.3419
  418MOL0     C56309   9.937   4.145   3.682 -0.1243 -0.2939 -0.9414
  418MOL0     C56310   9.918   4.256   3.581  0.3235 -0.4305  0.0914
  418MOL0     C56311   9.769   4.291   3.587  0.3706 -0.5311 -1.2987
  418MOL0     N56312   9.755   4.408   3.513 -0.4419 -0.4641 -0.3395
  418MOL0     C56313   9.753   4.422   3.377  1.1476  0.2041  0.5452
  418MOL0     C56314   9.717   4.544   3.341  0.0605  0.7295 -0.1790
  418MOL0     C56315   9.679   4.583   3.197 -0.1567 -0.0935 -1.1738
  418MOL0     C56316   9.524   4.568   3.182 -0.9972 -0.0867 -0.8278
  418MOL0     C56317   9.491   4.569   3.035  0.2012 -0.6940 -0.2372
  418MOL0     C56318   9.336   4.555   3.014 -0.6759  0.0617 -0.3147
  418MOL0     O56319   9.298   4.429   3.070  1.0607  0.7435  0.2053
  418MOL0     C56320   9.200   4.359   2.996  0.1212 -0.1428 -0.5848
  418MOL0     C56321   9.094   4.414   2.922 -0.6524 -0.3917 -0.6319
  418MOL0     C56322   8.995   4.333   2.867  0.2672 -0.2378 -0.1452
  418MOL0     C56323   8.895   4.401   2.780 -0.5378 -0.1744  0.3905
  418MOL0     C56324   9.005   4.198   2.876 -0.0870 -0.5109  0.8546
  418MOL0     C56325   8.912   4.106   2.814  0.2390 -0.1472  0.1754
  418MOL0     O56326   8.953   4.037   2.706  0.2920 -0.4850  0.7163
  418MOL0     C56327   8.860   4.025   2.596 -0.0112 -0.1078  0.0457
  418MOL0     C56328   8.878   3.917   2.513  0.6248  0.3572 -1.1440
  418MOL0     C56329   8.784   3.893   2.406  1.8428  0.2949 -0.6132
  418MOL0     C56330   8.670   3.973   2.393  0.4546 -0.1687 -0.9610
  418MOL0     O56331   8.597   3.961   2.279 -0.0307 -0.3183  1.0441
  418MOL0     C56332   8.456   3.969   2.293 -0.3145  0.1622  0.0262
  418MOL0     C56333   8.379   3.950   2.158  1.1337 -0.2580 -0.3670
  418MOL0     C56334   8.449   4.021   2.040 -0.0279 -0.6250  0.3893
  418MOL0     C56335   8.355   4.048   1.918  0.3843 -0.1363  0.3712
  418MOL0     C56336   8.424   4.091   1.787  0.7716 -0.4847  0.9052
  418MOL0     C56337   8.518   4.216   1.794 -0.4357 -0.0075 -0.0789
  418MOL0     C56338   8.435   4.342   1.839 -0.0212 -0.9888  0.4868
  418MOL0     C56339   8.513   4.482   1.850 -0.5286  0.8212 -1.1419
  418MOL0    Cl56340   8.399   4.614   1.832  0.2321  0.2892 -0.0738
  418MOL0     C56341   8.649   4.070   2.486  0.6666  0.1618  0.4196
  418MOL0     C56342   8.741   4.100   2.584  0.5713 -0.0172 -0.8613
  418MOL0     O56343   8.811   4.075   2.880  0.3845 -0.1607  0.1157
  418MOL0     C56344   9.102   4.142   2.958 -0.4747  0.5566  0.7097
  418MOL0     C56345   9.201   4.226   3.022 -0.0398  0.9723  0.7603
  418MOL0     N56346   9.694   4.609   3.462 -0.4925 -0.4221 -0.3465
  418MOL0     N56347   9.721   4.526   3.562  0.7248 -0.8173  0.3932
  418MOL0     C56348  10.491   4.268   4.153  0.8947 -0.2090  0.2304
  418MOL0     C56349  10.581   4.351   4.207  0.6066 -0.6205  0.4826
  418MOL0     C56350  10.997   4.448   4.431 -0.2487 -0.6972  0.1244
  418MOL0     C56351  10.923   4.531   4.522 -0.9277 -0.8554  0.1659
  418MOL0     C56352  11.001   4.615   4.608  0.2165  0.8717  0.3698
  418MOL0     C56353  11.139   4.630   4.590  0.2086 -0.1382  0.0047
  418MOL0     O56354  11.201   4.730   4.648 -0.2782  0.2561 -0.1820
  418MOL0     C56355  11.328   4.777   4.609 -0.9587 -1.0416 -0.3347
  418MOL0     C56356  11.361   4.922   4.647 -0.3570  0.0977 -0.3354
  418MOL0     C56357  11.497   4.942   4.718  0.1262  0.4372 -0.4383
  418MOL0     C56358  11.493   5.090   4.770  0.6809  0.2728  0.3845
  418MOL0     C56359  11.510   5.179   4.655 -0.1884 -0.5123 -0.2805
  418MOL0     C56360  11.515   5.255   4.568  0.3143  0.2282  1.3158
  418MOL0     C56361  11.201   4.538   4.508  0.1159  0.8036 -0.4575
  418MOL0     C56362  11.135   4.441   4.436  0.1911  0.1744 -1.0859
  418MOL0     H56363  10.790   4.123   4.345 -1.6759 -0.1946  0.2893
  418MOL0     H56364  10.622   3.973   4.228 -0.8812 -0.4825 -0.4516
  418MOL0     H56365  10.314   3.974   4.232 -2.5479  1.4498  0.6159
  418MOL0     H56366  10.267   4.116   4.163  3.5262  1.7187 -1.1134
  418MOL0     H56367  10.257   3.835   4.047  0.8636  0.1503  2.6212
  418MOL0     H56368  10.124   3.942   4.095  1.1003 -1.4658  1.1282
  418MOL0     H56369  10.281   4.058   3.872 -0.7178  1.2591  1.5275
  418MOL0     H56370  10.226   3.896   3.845  1.1743  0.3882 -1.0106
  418MOL0     H56371  10.004   3.938   3.838  0.5523 -0.0688 -2.9036
  418MOL0     H56372  10.007   4.084   3.934 -3.1694 -0.7291 -2.3649
  418MOL0     H56373  10.107   4.228   3.792  0.1119  0.2206 -1.5686
  418MOL0     H56374  10.153   4.115   3.667  1.0151  2.0256 -1.4797
  418MOL0     H56375   9.907   4.047   3.642 -1.3453 -0.9390  1.3460
  418MOL0     H56376   9.869   4.180   3.761 -1.5260  1.6896 -2.9170
  418MOL0     H56377   9.990   4.338   3.592 -0.4427  0.2492  0.1381
  418MOL0     H56378   9.951   4.223   3.482  0.2444  1.2679 -0.5245
  418MOL0     H56379   9.725   4.299   3.687  1.0112 -3.0424 -0.7260
  418MOL0     H56380   9.720   4.206   3.538 -0.4332  0.5299 -2.4103
  418MOL0     H56381   9.762   4.330   3.319  1.0480 -3.9120  6.2396
  418MOL0     H56382   9.709   4.685   3.172 -0.4905  0.2994 -0.0550
  418MOL0     H56383   9.727   4.512   3.130 -0.8303 -0.1115 -1.6438
  418MOL0     H56384   9.467   4.653   3.221  1.1545  0.4261  1.5253
  418MOL0     H56385   9.481   4.474   3.218 -2.2594  1.2640  1.4359
  418MOL0     H56386   9.541   4.487   2.983  0.1426 -1.2176  0.5077
  418MOL0     H56387   9.535   4.659   2.991 -0.5425 -1.2023 -2.0907
  418MOL0     H56388   9.323   4.553   2.906 -1.2179 -1.6861 -0.2511
  418MOL0     H56389   9.272   4.634   3.055 -0.7296  0.4418 -1.1042
  418MOL0     H56390   9.092   4.523   2.916 -0.4047 -0.0732  3.1290
  418MOL0     H56391   8.874   4.506   2.800  0.6841  0.4267 -1.1811
  418MOL0     H56392   8.939   4.411   2.680  0.0723  0.5616  0.7256
  418MOL0     H56393   8.797   4.353   2.774 -1.4692  1.3343  2.3883
  418MOL0     H56394   8.967   3.859   2.531  2.3222  3.1632  0.2110
  418MOL0     H56395   8.788   3.803   2.345  0.0298 -0.3065  0.0723
  418MOL0     H56396   8.428   3.890   2.364 -0.8851 -0.7555 -1.1912
  418MOL0     H56397   8.429   4.063   2.341 -0.7647  0.0366  0.0188
  418MOL0     H56398   8.347   3.851   2.127  0.4110  0.0867 -0.7474
  418MOL0     H56399   8.284   4.002   2.169  1.3041 -0.2308  1.2705
  418MOL0     H56400   8.543   3.975   2.009 -0.5794 -0.6038 -1.3917
  418MOL0     H56401   8.480   4.121   2.071 -2.3431  0.5769 -0.9096
  418MOL0     H56402   8.305   3.955   1.890  1.8970 -0.9724  0.3495
  418MOL0     H56403   8.284   4.127   1.943 -0.4152 -0.6123 -0.3568
  418MOL0     H56404   8.352   4.116   1.709  2.5551  0.8288 -0.4177
  418MOL0     H56405   8.477   4.005   1.745  0.8444 -0.3873  0.7942
  418MOL0     H56406   8.597   4.196   1.867 -0.4057  1.7927  0.4161
  418MOL0     H56407   8.565   4.235   1.697 -1.8867 -1.4189 -1.1256
  418MOL0     H56408   8.396   4.323   1.940 -0.1670 -0.6236  0.5018
  418MOL0     H56409   8.350   4.371   1.776 -0.1448 -0.7128  0.7720
  418MOL0     H56410   8.575   4.489   1.760  0.9602 -2.0098 -0.4449
  418MOL0     H56411   8.572   4.499   1.940 -1.8367  3.9123 -0.7366
  418MOL0     H56412   8.555   4.123   2.471  0.6537 -0.0305 -0.2414
  418MOL0     H56413   8.726   4.181   2.655 -1.1060  1.1663 -2.4603
  418MOL0     H56414   9.115   4.044   3.003 -0.7807 -0.0961 -0.5815
  418MOL0     H56415   9.275   4.175   3.082  1.4477 -2.8166 -3.6638
  418MOL0     H56416  10.404   4.308   4.103  1.7328  2.4198  0.6723
  418MOL0     H56417  10.565   4.458   4.210  0.2530 -0.6752  0.5492
  418MOL0     H56418  10.816   4.538   4.538 -0.9746  0.8260 -0.5735
  418MOL0     H56419  10.954   4.685   4.676  2.7236  2.7645  0.2647
  418MOL0     H56420  11.396   4.720   4.673 -0.1165  1.0126  0.6897
  418MOL0     H56421  11.359   4.754   4.507  2.7153 -2.7557  1.0057
  418MOL0     H56422  11.281   4.977   4.697  2.5787  3.7417  0.8859
  418MOL0     H56423  11.375   4.986   4.559  1.8697  0.9333  0.5557
  418MOL0     H56424  11.580   4.932   4.647 -1.1712  1.1155 -2.1032
  418MOL0     H56425  11.506   4.875   4.804  2.5445 -1.4682 -2.0161
  418MOL0     H56426  11.577   5.101   4.839  0.2859 -2.9908  1.5661
  418MOL0     H56427  11.403   5.111   4.829  1.2085  2.6551  0.4726
  418MOL0     H56428  11.515   5.331   4.493  0.7262 -0.0438  1.0333
  418MOL0     H56429  11.310   4.533   4.508  0.0872  0.0962 -0.9035
  418MOL0     H56430  11.191   4.376   4.370 -0.5989 -0.5709 -1.0348
  419MOL0     O56431  11.076   6.412   7.766 -0.1230 -0.6085  0.7254
  419MOL0     C56432  11.009   6.507   7.815  0.2495  0.0178  0.6154
  419MOL0     O56433  10.937   6.597   7.744  0.2149 -0.2704 -0.0084
  419MOL0     C56434  10.925   6.592   7.609 -0.1408 -0.5237  0.0571
  419MOL0     C56435  10.928   6.702   7.535 -0.6526 -0.8593  0.0554
  419MOL0     C56436  10.893   6.699   7.398  0.5575 -0.2163 -0.5922
  419MOL0     C56437  10.873   6.573   7.331 -0.1447 -0.2859 -0.8176
  419MOL0     O56438  10.839   6.566   7.198  0.8682 -0.3316  0.5521
  419MOL0     C56439  10.842   6.445   7.116  0.5696 -0.1177  0.2004
  419MOL0     C56440  10.975   6.365   7.123  0.2863 -0.1847 -0.8504
  419MOL0     C56441  11.016   6.286   7.004 -0.5301  0.0379 -0.1817
  419MOL0     C56442  11.112   6.172   7.015 -0.6761  0.0526 -0.0509
  419MOL0     C56443  11.097   6.076   7.124  0.0536 -0.0636 -0.1012
  419MOL0     C56444  11.191   5.965   7.116 -0.5380  0.4555  0.0183
  419MOL0     C56445  11.197   5.868   7.242 -1.0607 -0.0097 -0.1473
  419MOL0     C56446  11.304   5.758   7.254  0.2689 -0.3404 -0.2840
  419MOL0     N56447  11.294   5.662   7.151 -0.4223 -0.4767  0.0577
  419MOL0     C56448  11.241   5.537   7.170  0.8855  0.4336 -0.4919
  419MOL0     C56449  11.298   5.466   7.071 -0.2462  0.1903  0.1671
  419MOL0     C56450  11.302   5.322   7.053 -0.1072 -0.1044  0.3327
  419MOL0     C56451  11.393   5.257   7.160 -0.9592  0.0712  0.0039
  419MOL0     C56452  11.389   5.096   7.156  1.0338 -0.8844  0.5887
  419MOL0     C56453  11.363   5.024   7.026  1.0583  0.7707  0.7290
  419MOL0     O56454  11.371   4.886   7.055 -0.0608  0.2823 -1.1776
  419MOL0     C56455  11.332   4.778   6.973  0.8299  0.1298 -0.3253
  419MOL0     C56456  11.357   4.644   7.030  0.2001 -0.5772 -0.7090
  419MOL0     C56457  11.320   4.524   6.974 -0.1028 -0.4336 -0.3397
  419MOL0     C56458  11.348   4.411   7.064  1.1203  0.4036  0.2898
  419MOL0     C56459  11.234   4.530   6.864 -0.9931  0.7170  0.6713
  419MOL0     C56460  11.178   4.408   6.792  0.1827  0.3898  0.2673
  419MOL0     O56461  11.124   4.437   6.668  0.3565 -0.3837 -0.0431
  419MOL0     C56462  11.076   4.334   6.588 -0.7511  0.3768  0.1257
  419MOL0     C56463  11.124   4.199   6.576  0.4829 -0.5490  0.6267
  419MOL0     C56464  11.086   4.110   6.472 -0.7024  0.5749  1.2775
  419MOL0     C56465  11.014   4.166   6.365  0.0895 -0.0394  0.5102
  419MOL0     O56466  10.988   4.097   6.248  0.1746  0.3919  0.5318
  419MOL0     C56467  11.045   3.972   6.231 -0.3142  0.2114  0.4975
  419MOL0     C56468  11.010   3.914   6.086  0.4998  0.0558 -0.6614
  419MOL0     C56469  11.067   3.780   6.056 -0.2264 -0.0220  1.0609
  419MOL0     C56470  11.009   3.738   5.920 -0.2338 -0.2019  0.4475
  419MOL0     C56471  11.035   3.592   5.859 -0.2226  0.0992  0.1071
  419MOL0     C56472  11.156   3.512   5.915  0.5841 -1.0802 -0.2832
  419MOL0     C56473  11.183   3.373   5.837  0.1550 -0.5953  0.2690
  419MOL0     C56474  11.289   3.284   5.896 -0.3566  0.6381  0.0131
  419MOL0    Cl56475  11.312   3.121   5.805  1.1345 -1.0423  0.0542
  419MOL0     C56476  10.958   4.287   6.382  1.1657  0.6698  0.2951
  419MOL0     C56477  10.987   4.370   6.491 -0.2206  0.5364  0.9084
  419MOL0     O56478  11.171   4.304   6.845  0.1452  0.8253 -0.8460
  419MOL0     C56479  11.214   4.657   6.806 -0.5582  0.4993 -0.8544
  419MOL0     C56480  11.248   4.783   6.861 -0.9230 -0.8112 -0.1626
  419MOL0     N56481  11.370   5.549   6.989 -0.6940 -0.4813 -0.4404
  419MOL0     N56482  11.374   5.663   7.040  0.1075 -0.7491 -0.2342
  419MOL0     C56483  10.864   6.468   7.422  0.0398  0.1597 -0.2598
  419MOL0     C56484  10.879   6.476   7.556  0.7836  0.3518 -0.1353
  419MOL0     C56485  11.008   6.527   7.961 -1.3077  0.2423  0.4099
  419MOL0     C56486  10.920   6.603   8.022 -0.4494  0.3088 -0.0391
  419MOL0     C56487  10.925   6.625   8.163  0.1719 -0.1637  0.2948
  419MOL0     C56488  11.029   6.569   8.240 -0.0524  0.4745 -0.0799
  419MOL0     O56489  11.025   6.562   8.374  0.0231 -0.5370 -0.0253
  419MOL0     C56490  11.127   6.639   8.434 -0.8084  1.3055 -0.6807
  419MOL0     C56491  11.073   6.733   8.546  0.2092 -0.8176  0.6242
  419MOL0     C56492  11.184   6.769   8.642 -0.7462  0.0034  0.0581
  419MOL0     C56493  11.273   6.880   8.587 -0.6721  0.8405 -1.1758
  419MOL0     C56494  11.195   7.006   8.574  0.9639  0.5462  0.3986
  419MOL0     C56495  11.132   7.116   8.558 -0.5671  0.4225 -0.4704
  419MOL0     C56496  11.116   6.477   8.172  0.4675 -0.3848  0.0556
  419MOL0     C56497  11.107   6.468   8.035  0.2159  0.3079 -0.1566
  419MOL0     H56498  10.959   6.797   7.579 -0.1869 -1.8439  1.9601
  419MOL0     H56499  10.892   6.780   7.326 -0.5215 -1.6976 -2.3628
  419MOL0     H56500  10.756   6.385   7.147 -0.9003  1.1115 -1.2974
  419MOL0     H56501  10.814   6.472   7.013 -2.7077  0.3935  1.0985
  419MOL0     H56502  11.055   6.434   7.149 -1.4384  0.6566  3.0450
  419MOL0     H56503  10.959   6.312   7.218 -2.4182  0.6666 -0.7285
  419MOL0     H56504  10.927   6.252   6.950  0.4820 -0.2319 -1.7477
  419MOL0     H56505  11.062   6.363   6.942 -1.5017  0.2126 -0.7015
  419MOL0     H56506  11.097   6.109   6.927 -2.3586 -2.0726  1.6440
  419MOL0     H56507  11.208   6.222   7.030 -0.5005 -0.8756  2.5698
  419MOL0     H56508  11.099   6.125   7.222 -1.4420  0.2137 -0.1940
  419MOL0     H56509  10.998   6.032   7.116 -0.3238  0.3890  1.5821
  419MOL0     H56510  11.173   5.905   7.026 -0.2224 -1.0834  0.9328
  419MOL0     H56511  11.294   6.003   7.112 -0.1437 -0.6445 -1.0429
  419MOL0     H56512  11.216   5.932   7.329  2.0913 -1.2471  0.2179
  419MOL0     H56513  11.096   5.827   7.243 -0.2328 -2.2808 -1.7716
  419MOL0     H56514  11.302   5.712   7.353 -2.3942 -4.9337 -2.1763
  419MOL0     H56515  11.405   5.799   7.251  0.4478 -0.6609  0.8285
  419MOL0     H56516  11.176   5.500   7.248 -0.2215 -0.1537 -1.6508
  419MOL0     H56517  11.198   5.289   7.057 -0.5106  1.1850  1.9904
  419MOL0     H56518  11.335   5.287   6.955 -1.4814 -1.9239  0.4630
  419MOL0     H56519  11.367   5.298   7.259  3.7293  0.9151  1.1104
  419MOL0     H56520  11.497   5.288   7.145 -0.2915 -0.0661  3.4177
  419MOL0     H56521  11.317   5.053   7.225  2.0751  2.5197  4.1887
  419MOL0     H56522  11.487   5.066   7.194  0.4864 -3.2213  0.2735
  419MOL0     H56523  11.434   5.057   6.949  1.2795 -0.4749  0.3890
  419MOL0     H56524  11.262   5.042   6.987  0.3999  1.6887  2.7130
  419MOL0     H56525  11.406   4.648   7.127 -0.9371 -0.0192 -0.1386
  419MOL0     H56526  11.430   4.349   7.029  1.2313  0.6995  0.0320
  419MOL0     H56527  11.369   4.440   7.168  2.3614 -0.7600  0.3792
  419MOL0     H56528  11.254   4.355   7.076  2.7819 -3.0452 -1.5076
  419MOL0     H56529  11.206   4.163   6.638  1.3891  0.3302 -0.0250
  419MOL0     H56530  11.132   4.012   6.469 -0.1728  0.8303 -0.4407
  419MOL0     H56531  11.154   3.979   6.238  0.1860 -0.0914 -4.0919
  419MOL0     H56532  10.980   3.919   6.302 -2.9834 -1.1243 -2.7062
  419MOL0     H56533  10.900   3.908   6.089  0.5778 -1.2161  0.5452
  419MOL0     H56534  11.028   3.991   6.011 -0.8800  0.0521 -1.0344
  419MOL0     H56535  11.031   3.706   6.127  0.6911 -0.8721  0.6638
  419MOL0     H56536  11.177   3.781   6.053 -0.0873 -0.3207  3.7745
  419MOL0     H56537  10.901   3.750   5.914 -0.0743  0.5898 -1.6019
  419MOL0     H56538  11.055   3.808   5.850 -0.2786 -0.2809  0.3383
  419MOL0     H56539  11.045   3.619   5.753 -1.5618 -2.0467 -0.6119
  419MOL0     H56540  10.943   3.534   5.857 -2.3888  3.2754 -1.2926
  419MOL0     H56541  11.243   3.577   5.920 -0.5040  0.4102 -0.2362
  419MOL0     H56542  11.129   3.471   6.012  1.0538  0.8589  0.7142
  419MOL0     H56543  11.205   3.415   5.738 -2.0021  1.8947  0.7322
  419MOL0     H56544  11.088   3.319   5.826  0.8172 -1.9271  0.8892
  419MOL0     H56545  11.245   3.251   5.991 -1.4166 -0.8120 -0.9325
  419MOL0     H56546  11.380   3.337   5.924  0.7798 -1.7633  1.2009
  419MOL0     H56547  10.895   4.334   6.308  0.3070  0.8833  1.1455
  419MOL0     H56548  10.970   4.477   6.484 -1.6395  0.3119 -4.7379
  419MOL0     H56549  11.149   4.657   6.719  1.1755 -3.7495 -2.4042
  419MOL0     H56550  11.218   4.878   6.817  0.9684  0.1616  0.5056
  419MOL0     H56551  10.843   6.364   7.399 -0.0974 -1.1173  4.4761
  419MOL0     H56552  10.861   6.388   7.617 -1.6912  0.9488  0.0846
  419MOL0     H56553  10.834   6.656   7.984 -0.6201 -0.8182 -1.3353
  419MOL0     H56554  10.843   6.669   8.219  0.0328 -0.0783  0.0277
  419MOL0     H56555  11.199   6.578   8.491 -2.0478 -0.7855 -1.2531
  419MOL0     H56556  11.190   6.706   8.374  1.9914  1.1380  1.8259
  419MOL0     H56557  11.004   6.669   8.602  0.0241 -0.2851  1.0079
  419MOL0     H56558  11.025   6.820   8.502  1.2008 -0.4326  0.2670
  419MOL0     H56559  11.246   6.682   8.665 -0.3332 -0.6255 -3.0107
  419MOL0     H56560  11.152   6.811   8.738  1.2313 -0.0357  0.7813
  419MOL0     H56561  11.312   6.841   8.492 -0.6729  1.8488 -1.6082
  419MOL0     H56562  11.357   6.898   8.654 -2.0303 -0.1065  0.8665
  419MOL0     H56563  11.088   7.214   8.551  0.7712  0.9790 -1.6952
  419MOL0     H56564  11.188   6.409   8.217  0.0058  0.4028  2.1034
  419MOL0     H56565  11.179   6.401   7.988  2.0237 -0.2242  3.0658
  420MOL0     O56566   2.080   7.017  10.003  0.2276 -0.3051 -0.4593
  420MOL0     C56567   2.126   7.109  10.078 -0.1041 -0.0688 -0.0909
  420MOL0     O56568   2.140   7.100  10.212 -0.1522 -0.0926  0.4670
  420MOL0     C56569   2.099   7.002  10.292  0.6977  0.1833  0.6542
  420MOL0     C56570   2.179   6.979  10.398 -0.1368  0.1305 -0.6583
  420MOL0     C56571   2.143   6.882  10.491  0.3386 -0.4110  0.0191
  420MOL0     C56572   2.020   6.819  10.475 -0.2472  0.2522 -0.3240
  420MOL0     O56573   1.983   6.725  10.569  0.1872  0.2870 -0.5016
  420MOL0     C56574   1.878   6.626  10.544 -0.5048 -1.0561  0.4216
  420MOL0     C56575   1.865   6.536  10.671 -0.7969 -0.5944 -0.2412
  420MOL0     C56576   1.973   6.431  10.652  0.3767 -0.2196  0.9844
  420MOL0     C56577   1.960   6.332  10.757  0.6231  0.0166 -0.2589
  420MOL0     C56578   2.038   6.198  10.742 -1.2353  0.3502 -0.0399
  420MOL0     C56579   1.996   6.092  10.847  0.4007  0.2074 -0.7224
  420MOL0     C56580   2.015   5.948  10.799 -0.0922 -0.0312  0.2548
  420MOL0     C56581   1.908   5.870  10.873  0.2999  0.4947  0.5997
  420MOL0     N56582   1.978   5.750  10.927  0.3057 -0.4747 -0.5473
  420MOL0     C56583   2.052   5.743  11.035 -0.0664  0.6957 -0.3285
  420MOL0     C56584   2.062   5.609  11.057  0.8598  0.8487 -0.7865
  420MOL0     C56585   2.127   5.548  11.171 -0.2542  0.0474 -1.4777
  420MOL0     C56586   2.272   5.571  11.184 -0.6816  0.0713 -0.1318
  420MOL0     C56587   2.345   5.469  11.266 -1.0135  0.5100 -0.0105
  420MOL0     C56588   2.498   5.497  11.259  0.3445 -0.5105  0.2484
  420MOL0     O56589   2.529   5.629  11.316  0.7497  0.2850 -0.3557
  420MOL0     C56590   2.519   5.630  11.455 -0.8098  0.1302  0.0389
  420MOL0     C56591   2.470   5.744  11.508 -0.3882  1.1387 -0.5068
  420MOL0     C56592   2.470   5.751  11.651  0.0099 -0.6671 -0.1836
  420MOL0     C56593   2.412   5.874  11.702  0.1430  0.4159  0.0233
  420MOL0     C56594   2.526   5.655  11.738 -1.1682 -0.3168  0.5141
  420MOL0     C56595   2.535   5.660  11.889  0.6685  0.2337  1.0472
  420MOL0     O56596   2.618   5.561  11.947  0.7427  0.8255 -0.1877
  420MOL0     C56597   2.645   5.591  12.082  0.1776 -0.3870 -0.7850
  420MOL0     C56598   2.618   5.494  12.181 -0.1901 -0.1158 -1.1353
  420MOL0     C56599   2.636   5.540  12.322 -1.5529  0.0891 -1.1461
  420MOL0     C56600   2.673   5.669  12.354 -0.1150 -0.0583 -0.6715
  420MOL0     O56601   2.670   5.716  12.485 -0.1087  0.4879  0.6406
  420MOL0     C56602   2.800   5.744  12.532  0.2846  0.5348  0.8449
  420MOL0     C56603   2.791   5.884  12.595  1.0016  0.5465 -0.6713
  420MOL0     C56604   2.928   5.916  12.648 -0.0134 -0.1064  0.3330
  420MOL0     C56605   3.002   6.003  12.551  0.2909 -0.4737 -0.0893
  420MOL0     C56606   3.135   6.049  12.616  0.2475  0.3389  0.3019
  420MOL0     C56607   3.244   6.097  12.517  0.1232 -0.3965 -1.2719
  420MOL0     C56608   3.191   6.203  12.420 -0.1994  0.7591  0.2595
  420MOL0     C56609   3.170   6.345  12.487 -0.5695  0.4464  0.3570
  420MOL0    Cl56610   3.064   6.430  12.370  0.4236 -0.1401  0.1065
  420MOL0     C56611   2.698   5.760  12.255  0.2475  0.8828 -0.2363
  420MOL0     C56612   2.699   5.721  12.125  0.0215  0.1752  0.2199
  420MOL0     O56613   2.473   5.741  11.953  0.6409  0.0478 -0.0947
  420MOL0     C56614   2.578   5.536  11.681  0.0603 -0.3272 -0.1502
  420MOL0     C56615   2.574   5.528  11.542  0.6341  0.6096  0.3131
  420MOL0     N56616   2.005   5.538  10.952  0.7942  0.2846  0.0091
  420MOL0     N56617   1.952   5.626  10.871 -0.6934 -0.0489  0.6948
  420MOL0     C56618   1.940   6.834  10.361  0.3209  0.2580  0.0435
  420MOL0     C56619   1.975   6.925  10.267 -1.0863 -0.1483 -0.5082
  420MOL0     C56620   2.174   7.229  10.004  0.2446  0.6539  0.1636
  420MOL0     C56621   2.294   7.299  10.055 -1.3598 -0.4240 -0.5274
  420MOL0     C56622   2.342   7.408   9.983 -0.2624 -0.5824  0.2452
  420MOL0     C56623   2.256   7.464   9.876 -0.8580  0.7186  1.3724
  420MOL0     O56624   2.301   7.586   9.829  0.1921  0.5942  0.3059
  420MOL0     C56625   2.247   7.659   9.717  0.5037 -0.6542  0.1397
  420MOL0     C56626   2.365   7.739   9.647  0.3563  0.7658 -0.2035
  420MOL0     C56627   2.353   7.889   9.662 -0.1378 -0.3391 -0.4630
  420MOL0     C56628   2.425   7.963   9.550 -1.3318 -0.3487 -0.2833
  420MOL0     C56629   2.566   7.994   9.586  0.1006 -0.5928 -1.1785
  420MOL0     C56630   2.688   8.023   9.610  0.5188  0.0803  0.9004
  420MOL0     C56631   2.133   7.409   9.841 -0.3101 -1.2584 -0.0045
  420MOL0     C56632   2.104   7.276   9.894 -0.1526 -0.9693 -0.7036
  420MOL0     H56633   2.260   7.048  10.416  1.0873 -1.1885 -0.9345
  420MOL0     H56634   2.185   6.852  10.586  2.0294  0.6262 -0.3647
  420MOL0     H56635   1.781   6.677  10.540  0.1337  0.1263 -0.5320
  420MOL0     H56636   1.905   6.563  10.458 -2.2069  0.7385 -1.5419
  420MOL0     H56637   1.899   6.596  10.756  2.6608  2.3526 -3.3375
  420MOL0     H56638   1.767   6.496  10.699 -1.0216 -0.6520 -1.0742
  420MOL0     H56639   1.977   6.381  10.554  0.9902  0.9518  0.3986
  420MOL0     H56640   2.066   6.481  10.681  0.6738 -0.7743  1.0178
  420MOL0     H56641   1.988   6.380  10.851 -0.0153 -0.9472  0.4411
  420MOL0     H56642   1.854   6.307  10.763  0.3310  0.1109 -3.2537
  420MOL0     H56643   2.031   6.156  10.642 -0.5283 -0.0342  0.0661
  420MOL0     H56644   2.145   6.220  10.740 -1.2854  0.7993 -3.3973
  420MOL0     H56645   2.049   6.106  10.942  0.5409 -0.0424 -0.7627
  420MOL0     H56646   1.895   6.121  10.875  1.3739  2.2381  0.9497
  420MOL0     H56647   1.994   5.929  10.693  1.8091 -0.5179 -0.0709
  420MOL0     H56648   2.118   5.914  10.814 -0.5570 -2.2926 -1.1983
  420MOL0     H56649   1.831   5.845  10.799 -0.3224  1.6710  0.8179
  420MOL0     H56650   1.858   5.930  10.950 -0.7985  2.9065 -1.8541
  420MOL0     H56651   2.101   5.825  11.087  3.6603 -1.5219  0.0738
  420MOL0     H56652   2.072   5.591  11.255  0.5926  3.1084 -2.3868
  420MOL0     H56653   2.105   5.441  11.176 -1.0390  0.2466  2.2357
  420MOL0     H56654   2.280   5.673  11.223  1.6943 -1.2737  3.3832
  420MOL0     H56655   2.325   5.579  11.088  0.8726  1.8549  0.8182
  420MOL0     H56656   2.317   5.366  11.244 -0.7695  0.6591 -1.0771
  420MOL0     H56657   2.317   5.485  11.370 -1.5009 -1.5044  0.2163
  420MOL0     H56658   2.516   5.507  11.151  1.2847  0.6211  0.4828
  420MOL0     H56659   2.559   5.415  11.297 -1.8119 -1.9002  0.8663
  420MOL0     H56660   2.409   5.807  11.444  0.7585  2.7677 -0.0632
  420MOL0     H56661   2.484   5.911  11.775  0.0571  0.1496  0.2447
  420MOL0     H56662   2.388   5.951  11.628  0.9787  0.2008 -0.4777
  420MOL0     H56663   2.316   5.842  11.744 -0.6434 -0.9452 -2.5419
  420MOL0     H56664   2.571   5.400  12.152  0.1893 -0.5135 -0.5035
  420MOL0     H56665   2.610   5.478  12.407  1.2549  2.3311  1.5789
  420MOL0     H56666   2.839   5.667  12.598  2.7466  1.2443  0.3092
  420MOL0     H56667   2.870   5.744  12.448 -0.7874 -1.0424 -0.1159
  420MOL0     H56668   2.763   5.960  12.522 -1.6124  2.5503  2.1534
  420MOL0     H56669   2.712   5.893  12.671  0.1244 -1.7227 -1.2325
  420MOL0     H56670   2.988   5.834  12.687 -0.2759  0.3805  1.8362
  420MOL0     H56671   2.902   5.982  12.732  1.8705  0.7672  0.2850
  420MOL0     H56672   3.015   5.947  12.458 -1.9755  0.5759 -1.1104
  420MOL0     H56673   2.938   6.090  12.533  2.9391  1.2333 -1.8581
  420MOL0     H56674   3.175   5.967  12.676  2.5772 -0.1191 -1.7495
  420MOL0     H56675   3.108   6.125  12.690 -0.2674 -1.0214  1.5702
  420MOL0     H56676   3.322   6.135  12.584 -0.6644  2.5028 -1.8343
  420MOL0     H56677   3.280   6.018  12.451 -0.9237  0.8968 -3.5006
  420MOL0     H56678   3.106   6.158  12.367 -0.1541 -1.4495  1.9099
  420MOL0     H56679   3.263   6.216  12.339 -0.2776  0.8803  0.2095
  420MOL0     H56680   3.265   6.396  12.501 -1.4768  2.7711 -1.3574
  420MOL0     H56681   3.119   6.341  12.584  1.0373 -1.5105  1.1862
  420MOL0     H56682   2.724   5.861  12.285  0.5623  0.1227  2.2855
  420MOL0     H56683   2.715   5.807  12.060 -1.4283 -1.3822 -2.3540
  420MOL0     H56684   2.610   5.451  11.741 -1.3249 -0.7271  0.0640
  420MOL0     H56685   2.613   5.448  11.480  0.5440  3.4630 -3.8653
  420MOL0     H56686   1.857   6.765  10.346  1.4628 -0.7335 -2.2919
  420MOL0     H56687   1.917   6.939  10.177 -1.3054  3.1366  0.0171
  420MOL0     H56688   2.339   7.265  10.147 -5.2703  1.0361  2.1835
  420MOL0     H56689   2.424   7.472  10.014  0.7449  0.1422 -3.3587
  420MOL0     H56690   2.202   7.585   9.649 -1.3555  0.2591  0.3118
  420MOL0     H56691   2.166   7.723   9.752  1.0259 -0.8798  1.8305
  420MOL0     H56692   2.364   7.707   9.543 -2.2630 -0.4682  0.1327
  420MOL0     H56693   2.460   7.695   9.682  0.2127  0.4772 -0.1696
  420MOL0     H56694   2.373   7.943   9.755  2.7151  1.3440 -1.9038
  420MOL0     H56695   2.249   7.921   9.650  0.2308  0.9298 -0.4442
  420MOL0     H56696   2.387   8.063   9.530 -1.3544 -0.3509 -0.2518
  420MOL0     H56697   2.418   7.912   9.453 -0.1079  1.6828 -1.5162
  420MOL0     H56698   2.790   8.052   9.628  0.3234  0.6110  1.1908
  420MOL0     H56699   2.083   7.459   9.758  1.8712  1.4979  0.2140
  420MOL0     H56700   2.019   7.223   9.852 -0.4336 -0.0415 -1.3184
  421MOL0     O56701   3.766   4.171   5.024  0.6035  0.2060 -0.5449
  421MOL0     C56702   3.797   4.212   4.914 -0.0930 -0.2862 -1.1094
  421MOL0     O56703   3.911   4.282   4.888 -0.6135 -0.0380  0.5221
  421MOL0     C56704   3.992   4.331   4.989 -0.2975 -0.2567  1.1431
  421MOL0     C56705   4.121   4.281   4.990 -0.3397  0.8531 -0.0919
  421MOL0     C56706   4.213   4.328   5.087  0.4185 -0.6332  0.2806
  421MOL0     C56707   4.180   4.426   5.184 -0.3238  0.0196 -0.1083
  421MOL0     O56708   4.279   4.473   5.267  0.1647 -0.0610  0.2400
  421MOL0     C56709   4.277   4.609   5.312  0.4089  0.5679 -0.3773
  421MOL0     C56710   4.422   4.646   5.346  0.5734 -0.0964 -0.0325
  421MOL0     C56711   4.541   4.593   5.263  0.4495  0.0706 -0.8795
  421MOL0     C56712   4.669   4.677   5.268  0.0599  0.0948  1.5577
  421MOL0     C56713   4.777   4.612   5.176  0.5875  0.1821  0.1965
  421MOL0     C56714   4.923   4.654   5.192 -0.5366  0.3286  0.4863
  421MOL0     C56715   4.945   4.793   5.258  0.7187 -0.6537 -0.0010
  421MOL0     C56716   5.097   4.821   5.272 -0.3595  0.4368 -1.2381
  421MOL0     N56717   5.178   4.827   5.149 -0.3756 -0.6229 -0.3269
  421MOL0     C56718   5.285   4.756   5.112 -0.0561  0.0854 -0.2783
  421MOL0     C56719   5.344   4.813   5.004 -0.5884  0.5535 -0.0778
  421MOL0     C56720   5.469   4.778   4.931 -0.0664  0.9684  0.2698
  421MOL0     C56721   5.582   4.878   4.939 -0.9596 -0.4428 -0.4615
  421MOL0     C56722   5.619   4.908   5.090 -0.1939 -0.9756 -0.4336
  421MOL0     C56723   5.689   5.036   5.093 -0.1591 -0.2228 -0.1882
  421MOL0     O56724   5.712   5.096   5.228  0.4527 -0.4897  0.7035
  421MOL0     C56725   5.689   5.229   5.251 -0.5811 -0.3845 -0.4975
  421MOL0     C56726   5.679   5.327   5.159  1.4457  0.5562 -0.1516
  421MOL0     C56727   5.617   5.456   5.188 -0.2687 -0.1771 -0.4688
  421MOL0     C56728   5.578   5.550   5.077  0.6349  0.4521 -0.6116
  421MOL0     C56729   5.584   5.477   5.328  1.0939  1.4158  1.0126
  421MOL0     C56730   5.531   5.611   5.385 -0.1571 -0.4142 -0.4406
  421MOL0     O56731   5.474   5.594   5.514 -1.4817  0.1423  0.0716
  421MOL0     C56732   5.403   5.707   5.572 -0.5039 -0.7589  0.4761
  421MOL0     C56733   5.472   5.785   5.670  0.1203 -0.0020  0.0877
  421MOL0     C56734   5.412   5.892   5.719  0.2666 -0.7845 -0.6666
  421MOL0     C56735   5.282   5.933   5.686 -0.3970 -0.3491  0.0615
  421MOL0     O56736   5.235   6.050   5.745  0.4804 -0.3770  0.0319
  421MOL0     C56737   5.105   6.043   5.809 -0.2260  1.3631  0.7404
  421MOL0     C56738   5.096   6.162   5.903  0.4591 -1.3646  0.4173
  421MOL0     C56739   4.960   6.159   5.981 -0.0736 -0.1622  0.8102
  421MOL0     C56740   4.955   6.274   6.076  0.2549 -0.4211  0.1046
  421MOL0     C56741   4.924   6.418   6.021 -0.6174  0.5311 -0.4654
  421MOL0     C56742   4.987   6.534   6.104  0.7241 -0.4640 -0.0441
  421MOL0     C56743   4.939   6.659   6.043  0.2651  0.2478  0.4351
  421MOL0     C56744   5.009   6.782   6.090 -0.0557  0.1840 -0.6562
  421MOL0    Cl56745   4.989   6.918   5.982  0.0967  0.1553  0.5963
  421MOL0     C56746   5.216   5.862   5.580 -0.1441 -0.0961  0.7827
  421MOL0     C56747   5.277   5.756   5.517  0.3554 -0.8108 -0.3107
  421MOL0     O56748   5.547   5.721   5.333  0.2594 -0.3707  0.0361
  421MOL0     C56749   5.606   5.373   5.421 -0.2032  0.2364 -0.0205
  421MOL0     C56750   5.662   5.246   5.386 -0.4374  0.1641  0.7075
  421MOL0     N56751   5.262   4.925   4.981  0.1294 -0.3122 -0.2972
  421MOL0     N56752   5.161   4.930   5.067 -0.6823 -0.0857 -0.3650
  421MOL0     C56753   4.043   4.470   5.188  0.7253  0.8142 -0.3352
  421MOL0     C56754   3.948   4.418   5.090  0.2835 -0.2676  0.8139
  421MOL0     C56755   3.730   4.160   4.802  0.1280 -1.1134  0.9106
  421MOL0     C56756   3.797   4.156   4.677  0.0423 -0.5124  0.8859
  421MOL0     C56757   3.735   4.118   4.561  0.7915  1.1252  0.2653
  421MOL0     C56758   3.607   4.086   4.561 -0.3309  1.3032  0.2842
  421MOL0     O56759   3.556   4.027   4.447 -0.1434  0.1144 -0.5334
  421MOL0     C56760   3.473   4.100   4.356  0.6746  1.0251 -1.5136
  421MOL0     C56761   3.520   4.070   4.213 -0.4897 -0.7784  0.0795
  421MOL0     C56762   3.657   4.127   4.183 -1.2097  0.9817 -0.2937
  421MOL0     C56763   3.687   4.142   4.032  0.1078 -0.5519  0.3734
  421MOL0     C56764   3.682   4.020   3.953 -0.3919  0.0898  0.4465
  421MOL0     C56765   3.682   3.911   3.895 -0.3694 -0.6761  0.0291
  421MOL0     C56766   3.530   4.090   4.688  0.2895 -0.9664  0.5449
  421MOL0     C56767   3.588   4.134   4.807  0.5196  0.0839 -0.1243
  421MOL0     H56768   4.131   4.202   4.915  1.8274 -1.0655  2.0353
  421MOL0     H56769   4.317   4.295   5.090  1.0854  0.9759 -2.2567
  421MOL0     H56770   4.222   4.675   5.243 -0.5142 -1.8460 -2.0928
  421MOL0     H56771   4.228   4.604   5.409 -2.2060  0.8448 -1.5934
  421MOL0     H56772   4.423   4.754   5.329 -2.1843 -0.3793 -3.2190
  421MOL0     H56773   4.448   4.614   5.447 -1.0053  2.5192  1.3346
  421MOL0     H56774   4.559   4.488   5.291 -0.9195  0.1141  0.2971
  421MOL0     H56775   4.514   4.592   5.157 -0.0939 -1.6919 -0.7594
  421MOL0     H56776   4.650   4.781   5.239  1.4134 -0.2139 -0.6390
  421MOL0     H56777   4.705   4.679   5.372  0.9855  1.9272  1.2473
  421MOL0     H56778   4.777   4.504   5.191 -0.1111  0.4010  2.0034
  421MOL0     H56779   4.746   4.638   5.075 -0.9096  3.3011  1.3252
  421MOL0     H56780   4.968   4.586   5.265 -2.4405 -2.9843 -1.1940
  421MOL0     H56781   4.972   4.633   5.096  0.3137 -0.4051  1.0679
  421MOL0     H56782   4.895   4.874   5.203 -1.4988  0.0233  2.7704
  421MOL0     H56783   4.909   4.803   5.361  0.3743  2.8239 -0.3228
  421MOL0     H56784   5.149   4.743   5.328 -0.2173  0.8286 -0.8221
  421MOL0     H56785   5.108   4.914   5.329  0.1642 -0.7857  0.7417
  421MOL0     H56786   5.323   4.674   5.172  1.0924  3.0955  3.5144
  421MOL0     H56787   5.494   4.675   4.956 -0.5863  0.5900 -0.7136
  421MOL0     H56788   5.440   4.776   4.825 -1.7043 -0.2890  0.6937
  421MOL0     H56789   5.541   4.966   4.887  2.2132  1.6419  0.2847
  421MOL0     H56790   5.673   4.844   4.889 -0.2058  0.8768 -0.0301
  421MOL0     H56791   5.689   4.835   5.132 -2.0070 -1.9226  1.0699
  421MOL0     H56792   5.530   4.907   5.154  1.3299  1.9431  1.9753
  421MOL0     H56793   5.634   5.104   5.028 -2.3374 -2.7898 -1.2282
  421MOL0     H56794   5.791   5.013   5.061  0.2936  0.9073  0.4083
  421MOL0     H56795   5.708   5.307   5.056 -2.7167 -0.0664 -1.4034
  421MOL0     H56796   5.481   5.594   5.100  1.9386  1.6253  3.4842
  421MOL0     H56797   5.640   5.640   5.083 -0.7738  1.4767 -0.8962
  421MOL0     H56798   5.577   5.510   4.975 -0.5523 -2.0197  0.2840
  421MOL0     H56799   5.568   5.750   5.706  1.3766  0.4623 -2.5003
  421MOL0     H56800   5.463   5.949   5.796  0.8156  0.2492 -1.7603
  421MOL0     H56801   5.032   6.041   5.727  0.0183  4.9434  0.2459
  421MOL0     H56802   5.093   5.946   5.857  2.0225  1.4926  1.6806
  421MOL0     H56803   5.181   6.163   5.972  0.5097  0.3276  0.3682
  421MOL0     H56804   5.106   6.246   5.833  1.7294 -0.5110  1.5716
  421MOL0     H56805   4.971   6.062   6.030  0.6897 -0.0574  0.8719
  421MOL0     H56806   4.877   6.156   5.911 -0.2927 -2.4706  1.1106
  421MOL0     H56807   4.876   6.246   6.145 -3.7646  0.7600 -3.6015
  421MOL0     H56808   5.050   6.292   6.129  1.1710  0.6712 -1.7960
  421MOL0     H56809   4.817   6.438   6.013 -0.8728 -0.8509 -0.8439
  421MOL0     H56810   4.968   6.406   5.921 -0.9167  1.4351 -0.7153
  421MOL0     H56811   4.948   6.532   6.206 -2.1917  0.2426 -1.0579
  421MOL0     H56812   5.095   6.521   6.093  0.6852 -0.3198 -0.6558
  421MOL0     H56813   4.831   6.670   6.057  0.4498  2.8745  0.3252
  421MOL0     H56814   4.959   6.638   5.937 -3.0737 -0.8494 -0.0893
  421MOL0     H56815   5.117   6.764   6.101  0.3398  1.6604 -1.8223
  421MOL0     H56816   4.962   6.807   6.186 -0.3999  1.1596 -1.0764
  421MOL0     H56817   5.112   5.884   5.554  0.0339 -1.2801 -1.2092
  421MOL0     H56818   5.238   5.707   5.429  0.9860 -2.3548  0.2364
  421MOL0     H56819   5.586   5.401   5.524  0.4519  0.8509 -0.0498
  421MOL0     H56820   5.700   5.167   5.449 -0.8185  0.0109  0.7484
  421MOL0     H56821   4.010   4.545   5.259  0.7369  1.8049 -1.3478
  421MOL0     H56822   3.849   4.461   5.081 -1.2457 -2.8767  3.4116
  421MOL0     H56823   3.890   4.211   4.675 -1.3848  2.0645 -0.9952
  421MOL0     H56824   3.787   4.113   4.466 -2.7824  1.1861 -1.8830
  421MOL0     H56825   3.371   4.062   4.361  0.9235  0.5551  1.2636
  421MOL0     H56826   3.485   4.206   4.379  1.6324  0.6855 -0.3477
  421MOL0     H56827   3.456   4.128   4.146  0.2844 -2.2416 -2.0222
  421MOL0     H56828   3.508   3.963   4.196 -2.0702 -0.1462 -3.9939
  421MOL0     H56829   3.729   4.049   4.209  0.1638  2.5246  0.6449
  421MOL0     H56830   3.677   4.215   4.245 -3.0709  1.5307 -0.3862
  421MOL0     H56831   3.792   4.170   4.038  0.0361 -0.6483  2.9834
  421MOL0     H56832   3.622   4.217   3.986 -1.3214 -2.3002 -0.6093
  421MOL0     H56833   3.667   3.816   3.846  1.2230  0.8913 -3.9669
  421MOL0     H56834   3.432   4.042   4.679 -0.4082  0.5305 -0.3365
  421MOL0     H56835   3.536   4.135   4.902 -0.8627  2.1056 -0.8193
  422MOL0     O56836   0.195   9.182  11.332 -0.2712  0.0627 -0.2011
  422MOL0     C56837   0.249   9.186  11.446  0.1351  0.0385  0.7983
  422MOL0     O56838   0.305   9.296  11.490  0.1714 -0.4763 -0.0457
  422MOL0     C56839   0.328   9.410  11.419 -0.4817  0.2369 -0.6633
  422MOL0     C56840   0.360   9.518  11.505 -0.2211  0.4642 -0.3532
  422MOL0     C56841   0.367   9.648  11.453 -0.6915  0.0294 -1.2100
  422MOL0     C56842   0.359   9.666  11.314  0.0756  0.2502 -0.7308
  422MOL0     O56843   0.383   9.787  11.253  0.0882  0.5072 -0.5523
  422MOL0     C56844   0.520   9.839  11.269  1.1189  0.2979 -0.1086
  422MOL0     C56845   0.572   9.897  11.136 -0.3708  0.2884  0.0221
  422MOL0     C56846   0.626   9.797  11.041  0.3501 -0.6121 -0.1231
  422MOL0     C56847   0.750   9.718  11.081 -0.5304 -0.1596 -0.8635
  422MOL0     C56848   0.815   9.641  10.960  0.2983  0.2900 -0.6357
  422MOL0     C56849   0.912   9.534  11.019 -0.6618  0.0357 -0.7267
  422MOL0     C56850   0.988   9.479  10.893  0.2980  0.1539 -0.8961
  422MOL0     C56851   1.057   9.337  10.907 -1.2735 -0.4290  0.0071
  422MOL0     N56852   0.966   9.241  10.980  0.3995  0.0261  0.0138
  422MOL0     C56853   0.944   9.215  11.116  0.2878  0.5322 -0.1659
  422MOL0     C56854   0.866   9.105  11.125  0.1526 -0.9084 -1.0649
  422MOL0     C56855   0.838   9.040  11.265  0.4724 -0.6381  0.5062
  422MOL0     C56856   0.760   8.905  11.257  1.6913  0.2087  0.4403
  422MOL0     C56857   0.670   8.868  11.384 -0.0919 -0.1991  0.3198
  422MOL0     C56858   0.548   8.776  11.343  1.0446 -0.2153  0.3182
  422MOL0     O56859   0.499   8.731  11.469  0.1384  0.6613 -0.0761
  422MOL0     C56860   0.468   8.595  11.491  0.0735  0.5641 -0.3943
  422MOL0     C56861   0.425   8.577  11.624  0.5444  1.6193 -0.3259
  422MOL0     C56862   0.393   8.450  11.671 -0.2025 -0.4296 -0.7657
  422MOL0     C56863   0.333   8.433  11.813 -0.6217 -0.1405  0.0525
  422MOL0     C56864   0.421   8.336  11.589 -1.3069  0.4299 -0.2468
  422MOL0     C56865   0.403   8.185  11.624  0.7871 -0.0590  0.3169
  422MOL0     O56866   0.450   8.089  11.530 -0.6628  0.0532 -0.3252
  422MOL0     C56867   0.457   7.971  11.595 -0.3704  0.0350  0.0281
  422MOL0     C56868   0.535   7.957  11.712 -0.0840  0.4331 -0.6077
  422MOL0     C56869   0.546   7.827  11.777 -0.2384  0.3963  0.5776
  422MOL0     C56870   0.479   7.720  11.721  0.4965 -0.7528  0.1798
  422MOL0     O56871   0.483   7.591  11.782 -0.2463 -0.9463  0.5310
  422MOL0     C56872   0.396   7.582  11.903 -0.0614  0.1018 -0.2646
  422MOL0     C56873   0.457   7.653  12.026  0.5417  0.7396  1.0033
  422MOL0     C56874   0.598   7.590  12.041  0.0921  0.9307  1.0226
  422MOL0     C56875   0.650   7.626  12.180  0.0915  0.8449 -0.2901
  422MOL0     C56876   0.783   7.558  12.207  0.3745 -0.3758 -0.3292
  422MOL0     C56877   0.841   7.557  12.351 -0.1902 -0.6357 -0.4458
  422MOL0     C56878   0.768   7.458  12.437 -0.7164  0.1422  0.2741
  422MOL0     C56879   0.854   7.436  12.568  0.3811  0.7394  0.3599
  422MOL0    Cl56880   0.867   7.581  12.661 -0.1253 -0.3891  0.0187
  422MOL0     C56881   0.398   7.736  11.611  1.1757 -0.2413  0.2740
  422MOL0     C56882   0.398   7.859  11.538  1.4528  0.8196 -0.0313
  422MOL0     O56883   0.343   8.163  11.733 -0.8186  0.0427  0.2654
  422MOL0     C56884   0.466   8.353  11.458  0.2791 -0.1759  0.3883
  422MOL0     C56885   0.486   8.479  11.407 -0.2659  0.2079 -1.3458
  422MOL0     N56886   0.830   9.066  10.996  0.8984 -0.1630  0.6392
  422MOL0     N56887   0.887   9.148  10.916 -0.5561 -0.1658  0.3049
  422MOL0     C56888   0.361   9.562  11.228 -0.3477 -0.1131  0.7350
  422MOL0     C56889   0.341   9.430  11.278  0.1744 -0.5438  0.8233
  422MOL0     C56890   0.240   9.081  11.539  0.3461  0.4750 -0.2833
  422MOL0     C56891   0.231   8.947  11.507 -0.6730 -0.1787  1.1545
  422MOL0     C56892   0.209   8.841  11.603  0.3823 -1.0923  0.0591
  422MOL0     C56893   0.222   8.878  11.734 -0.4225  0.4330  0.5938
  422MOL0     O56894   0.224   8.772  11.821 -0.0184 -0.4329 -0.0340
  422MOL0     C56895   0.119   8.781  11.925  0.8388 -0.4155  0.7742
  422MOL0     C56896  -0.006   8.685  11.878  0.3980 -0.3525  0.8617
  422MOL0     C56897  -0.134   8.724  11.957  0.0774 -0.4791  0.8877
  422MOL0     C56898  -0.246   8.628  11.911 -0.1564  0.4962 -0.9265
  422MOL0     C56899  -0.244   8.500  11.993  0.7614 -0.0096 -0.1832
  422MOL0     C56900  -0.240   8.406  12.070 -0.2605  0.5872  1.2743
  422MOL0     C56901   0.234   9.014  11.767  0.7920 -0.0801  0.2205
  422MOL0     C56902   0.234   9.116  11.676 -0.9098  0.9250  0.4235
  422MOL0     H56903   0.371   9.502  11.612  1.3203 -0.1960 -0.5962
  422MOL0     H56904   0.385   9.739  11.508 -3.0204  1.1646 -2.1631
  422MOL0     H56905   0.507   9.919  11.344 -1.0448 -2.6159  2.9210
  422MOL0     H56906   0.591   9.763  11.302  0.7958 -0.5014 -1.2081
  422MOL0     H56907   0.496   9.960  11.090 -1.8264  0.2889  2.2781
  422MOL0     H56908   0.654   9.959  11.172  2.6371 -4.5805  2.6865
  422MOL0     H56909   0.548   9.726  11.012 -1.6385  1.7667 -0.9522
  422MOL0     H56910   0.649   9.846  10.946  0.7839 -2.1034 -0.8227
  422MOL0     H56911   0.821   9.787  11.128 -1.3380  1.2519 -1.6657
  422MOL0     H56912   0.723   9.652  11.164  0.1936 -1.4493 -1.6100
  422MOL0     H56913   0.729   9.588  10.918  0.4034 -2.1222  1.8857
  422MOL0     H56914   0.868   9.703  10.887  2.1461 -2.2480 -1.6131
  422MOL0     H56915   0.959   9.572  11.110 -0.3565  2.8017 -1.9247
  422MOL0     H56916   0.849   9.454  11.058 -1.8402  1.2034 -0.1669
  422MOL0     H56917   0.917   9.469  10.810  1.3040  2.3561 -2.1162
  422MOL0     H56918   1.066   9.547  10.856  1.3905 -1.0462 -0.8976
  422MOL0     H56919   1.137   9.355  10.980 -2.1137 -0.3101  0.9065
  422MOL0     H56920   1.093   9.293  10.813  0.7273 -2.0029  1.4131
  422MOL0     H56921   0.988   9.251  11.208  1.2074  0.7917 -0.6931
  422MOL0     H56922   0.935   9.014  11.310  0.2332  1.6531  2.5444
  422MOL0     H56923   0.784   9.115  11.324  1.3131  0.1336  0.3193
  422MOL0     H56924   0.817   8.814  11.233  0.1889 -0.9243  0.9768
  422MOL0     H56925   0.695   8.919  11.170  0.4342  0.5043  1.3945
  422MOL0     H56926   0.625   8.957  11.428 -0.7266 -0.2012 -0.3083
  422MOL0     H56927   0.740   8.823  11.455 -1.3086 -0.6900  1.2305
  422MOL0     H56928   0.574   8.696  11.272 -2.3760 -1.8184  0.6588
  422MOL0     H56929   0.462   8.829  11.299 -0.0118 -0.7508  1.6715
  422MOL0     H56930   0.422   8.656  11.699 -0.6139  2.8627 -1.6091
  422MOL0     H56931   0.235   8.385  11.812 -0.4356 -0.5537  1.2854
  422MOL0     H56932   0.401   8.369  11.870 -0.8102  1.2776  1.9618
  422MOL0     H56933   0.324   8.532  11.859  2.4767  0.2978 -0.0704
  422MOL0     H56934   0.593   8.036  11.758 -1.5714  0.2739  1.7173
  422MOL0     H56935   0.614   7.824  11.861 -1.4603 -2.2815  1.5537
  422MOL0     H56936   0.294   7.619  11.891 -0.0585  0.3499  0.4483
  422MOL0     H56937   0.369   7.479  11.931  0.0891 -0.1810 -1.1167
  422MOL0     H56938   0.466   7.760  12.007 -2.1677  0.9003  0.1040
  422MOL0     H56939   0.393   7.642  12.114 -1.2425 -1.1792 -0.4163
  422MOL0     H56940   0.673   7.620  11.967  0.9913 -2.0074  0.6051
  422MOL0     H56941   0.578   7.483  12.045 -1.4402  1.2243  2.0711
  422MOL0     H56942   0.666   7.733  12.190  1.7566  0.5220  0.9600
  422MOL0     H56943   0.574   7.591  12.251 -0.9492 -0.0590 -1.7839
  422MOL0     H56944   0.847   7.616  12.140 -1.9521  2.2389 -0.4712
  422MOL0     H56945   0.792   7.453  12.175 -1.1706 -0.9132  0.8254
  422MOL0     H56946   0.941   7.512  12.357 -0.4759 -1.1151  2.5412
  422MOL0     H56947   0.841   7.657  12.396 -1.5739 -1.3909  1.3590
  422MOL0     H56948   0.762   7.364  12.382 -3.0567 -0.2475  1.0969
  422MOL0     H56949   0.665   7.487  12.459 -1.5010 -1.5669 -0.9533
  422MOL0     H56950   0.959   7.404  12.560  0.8036  2.3387 -1.0232
  422MOL0     H56951   0.803   7.370  12.639  1.4688 -0.3097  0.2101
  422MOL0     H56952   0.348   7.648  11.571  0.9188 -0.8605  1.8774
  422MOL0     H56953   0.351   7.871  11.441 -0.1192  1.0795  0.7404
  422MOL0     H56954   0.497   8.274  11.390  2.5673  0.9891 -0.0007
  422MOL0     H56955   0.520   8.483  11.304  0.0956  3.1729 -1.2006
  422MOL0     H56956   0.364   9.575  11.120 -1.5093 -2.7374  0.3029
  422MOL0     H56957   0.330   9.349  11.207  0.4141  0.2364 -0.1369
  422MOL0     H56958   0.239   8.910  11.406  1.9238 -2.2459  2.0000
  422MOL0     H56959   0.213   8.739  11.568  0.9181 -0.6314 -1.2704
  422MOL0     H56960   0.141   8.759  12.030 -1.0898  2.0075  1.7886
  422MOL0     H56961   0.076   8.881  11.931 -1.8792 -1.2932 -1.8709
  422MOL0     H56962   0.027   8.582  11.895  1.3014  0.1122  2.0685
  422MOL0     H56963  -0.027   8.690  11.771  0.3277 -2.9349  0.7108
  422MOL0     H56964  -0.144   8.832  11.945  1.7775 -0.4559 -0.7044
  422MOL0     H56965  -0.114   8.711  12.064 -6.2888 -2.6156  2.3088
  422MOL0     H56966  -0.244   8.599  11.806 -0.5124 -1.5942 -0.4048
  422MOL0     H56967  -0.345   8.674  11.909 -1.0816 -1.4049 -2.7392
  422MOL0     H56968  -0.234   8.315  12.126 -2.4078  0.9354  2.1886
  422MOL0     H56969   0.228   9.041  11.872 -1.6324 -2.2954  0.7727
  422MOL0     H56970   0.226   9.217  11.714 -3.8032  0.2376  1.9886
  423MOL0     O56971  11.322   6.980   0.474  0.0552 -0.3015  0.9578
  423MOL0     C56972  11.423   6.925   0.493  0.1421  0.1256 -0.2065
  423MOL0     O56973  11.488   6.849   0.402 -0.0404 -0.2218 -1.1694
  423MOL0     C56974  11.427   6.741   0.344  0.2783  0.7343 -0.5968
  423MOL0     C56975  11.483   6.685   0.230  0.7151  0.0811 -0.3376
  423MOL0     C56976  11.432   6.562   0.181 -0.9052  0.1576  0.0152
  423MOL0     C56977  11.323   6.500   0.238  0.6288  1.6083  0.3062
  423MOL0     O56978  11.276   6.375   0.199 -0.4228  0.4951 -0.3812
  423MOL0     C56979  11.367   6.286   0.125  0.9189  0.0855 -0.7544
  423MOL0     C56980  11.335   6.138   0.077  0.1661 -0.7818 -0.3263
  423MOL0     C56981  11.290   6.038   0.189  0.1557  0.4164 -0.4485
  423MOL0     C56982  11.394   5.957   0.261 -0.1404  0.8432 -0.2072
  423MOL0     C56983  11.455   6.029   0.379 -0.4042 -0.2003  0.0834
  423MOL0     C56984  11.538   5.935   0.473 -0.1119  0.0950  0.6720
  423MOL0     C56985  11.589   6.022   0.590  0.0335 -0.0843  0.4312
  423MOL0     C56986  11.660   5.951   0.699 -1.0346  0.2431 -0.1462
  423MOL0     N56987  11.803   5.935   0.682  0.1491 -0.9843 -0.5800
  423MOL0     C56988  11.905   5.969   0.769 -0.5555  0.1229 -0.0599
  423MOL0     C56989  12.012   5.917   0.697 -0.3447 -0.2777  0.2529
  423MOL0     C56990  12.152   5.904   0.744  0.0109 -0.0876 -0.8361
  423MOL0     C56991  12.158   5.754   0.810 -0.3052  0.0650 -0.7693
  423MOL0     C56992  12.293   5.735   0.871  0.9952  0.8584  0.6500
  423MOL0     C56993  12.314   5.606   0.950  0.0820 -0.2140  0.7809
  423MOL0     O56994  12.210   5.594   1.045 -0.0304 -0.5378 -0.0349
  423MOL0     C56995  12.230   5.636   1.182  0.7040  0.6209 -0.0003
  423MOL0     C56996  12.111   5.678   1.235 -0.1509  0.2004 -1.8671
  423MOL0     C56997  12.104   5.722   1.371  0.1659  0.2482 -0.7529
  423MOL0     C56998  11.968   5.774   1.416 -0.1962  0.2792 -0.7228
  423MOL0     C56999  12.227   5.731   1.451 -0.8722  0.8283 -0.1243
  423MOL0     C57000  12.242   5.768   1.595 -0.3687 -0.3264 -0.4295
  423MOL0     O57001  12.123   5.789   1.656  0.0734 -0.1755 -0.2806
  423MOL0     C57002  12.102   5.798   1.794  0.2825 -0.3880 -0.7618
  423MOL0     C57003  11.996   5.872   1.833  0.2017 -0.1780 -0.3703
  423MOL0     C57004  11.971   5.899   1.971 -0.3690  0.4707 -0.2903
  423MOL0     C57005  12.035   5.819   2.059  0.3384  0.0804  0.1375
  423MOL0     O57006  11.994   5.821   2.186 -0.0929 -0.0875  0.0964
  423MOL0     C57007  12.087   5.774   2.285  0.3098 -0.3374 -0.5532
  423MOL0     C57008  11.996   5.793   2.419 -1.0438 -0.0337 -0.2124
  423MOL0     C57009  12.085   5.781   2.544 -0.3039 -0.1206  0.1319
  423MOL0     C57010  12.195   5.668   2.529 -0.7044 -0.4383 -0.4536
  423MOL0     C57011  12.242   5.637   2.667 -1.2272 -0.3435 -0.2252
  423MOL0     C57012  12.155   5.551   2.750 -0.1229  0.2151 -0.0901
  423MOL0     C57013  12.198   5.554   2.894 -0.4435 -0.1695  0.2083
  423MOL0     C57014  12.142   5.430   2.977  0.6636  0.2634 -0.7582
  423MOL0    Cl57015  12.236   5.298   2.929 -0.4879 -0.5404 -0.6404
  423MOL0     C57016  12.135   5.730   2.016  0.5091 -0.0579 -0.1556
  423MOL0     C57017  12.181   5.717   1.886 -0.4938  0.7221 -0.5707
  423MOL0     O57018  12.354   5.789   1.647 -0.6107  0.3463  1.0967
  423MOL0     C57019  12.348   5.688   1.387  0.8160 -0.7081 -0.2825
  423MOL0     C57020  12.349   5.645   1.247 -0.1643 -0.0471 -0.4515
  423MOL0     N57021  11.967   5.880   0.574  0.8658  0.0056  0.3684
  423MOL0     N57022  11.850   5.903   0.560  0.2487  0.1479  0.0406
  423MOL0     C57023  11.264   6.551   0.360 -0.0655  0.4107  0.1845
  423MOL0     C57024  11.317   6.676   0.409  0.4369  0.8626 -0.1795
  423MOL0     C57025  11.499   6.928   0.618 -0.4548  0.3174  0.2186
  423MOL0     C57026  11.466   7.031   0.712 -0.3472  0.4694 -0.9123
  423MOL0     C57027  11.529   7.045   0.836 -0.0495  0.1486  1.5659
  423MOL0     C57028  11.630   6.949   0.863  0.1085  0.5556  0.2064
  423MOL0     O57029  11.715   6.955   0.967 -0.3302  0.0030 -0.1864
  423MOL0     C57030  11.690   7.020   1.086 -0.0283 -0.1734  0.5193
  423MOL0     C57031  11.573   6.955   1.170 -0.1987 -0.4716  0.7551
  423MOL0     C57032  11.547   6.805   1.166  0.1217 -0.6616  0.0297
  423MOL0     C57033  11.412   6.793   1.241  0.0104  0.1120 -0.9274
  423MOL0     C57034  11.352   6.662   1.216  0.7179  0.2569  0.3489
  423MOL0     C57035  11.314   6.559   1.167 -0.7490  0.5627 -0.2909
  423MOL0     C57036  11.656   6.852   0.777 -0.4731  0.3478 -1.1787
  423MOL0     C57037  11.589   6.829   0.659  0.3849 -0.0287 -0.5450
  423MOL0     H57038  11.552   6.732   0.161 -3.4744  0.7857 -4.5006
  423MOL0     H57039  11.469   6.533   0.083 -1.7902  1.4815 -0.7471
  423MOL0     H57040  11.378   6.339   0.029  2.4063 -0.6030 -0.9959
  423MOL0     H57041  11.457   6.277   0.186 -0.5128 -1.6061  1.2312
  423MOL0     H57042  11.244   6.143   0.016 -0.0667  0.1507  0.0844
  423MOL0     H57043  11.416   6.099   0.014  0.7439 -2.8705  1.6115
  423MOL0     H57044  11.221   6.089   0.256 -1.4174 -1.5322 -0.4819
  423MOL0     H57045  11.226   5.962   0.143 -1.2760  0.2799  1.6357
  423MOL0     H57046  11.335   5.872   0.299 -1.3577  0.6935 -2.3204
  423MOL0     H57047  11.473   5.928   0.191 -1.5054 -0.4568 -1.2680
  423MOL0     H57048  11.513   6.115   0.344 -3.9042  1.4485 -2.2959
  423MOL0     H57049  11.383   6.074   0.448  2.4113 -0.0229  3.1215
  423MOL0     H57050  11.479   5.851   0.511  2.3960 -2.5750 -0.9143
  423MOL0     H57051  11.609   5.877   0.413 -1.3563 -1.2491  0.4404
  423MOL0     H57052  11.656   6.103   0.560  0.9580 -1.7612 -2.3926
  423MOL0     H57053  11.497   6.066   0.628 -1.9325 -2.2347 -1.5678
  423MOL0     H57054  11.609   5.858   0.729 -0.0133 -0.3731 -0.2911
  423MOL0     H57055  11.647   6.010   0.790 -0.5731 -1.1924  0.8834
  423MOL0     H57056  11.910   6.012   0.868  1.2817  1.0318 -0.4948
  423MOL0     H57057  12.211   5.923   0.654 -0.5093  1.4899 -0.8759
  423MOL0     H57058  12.184   5.972   0.823  1.7543 -0.0784 -1.5098
  423MOL0     H57059  12.165   5.688   0.723  2.9561 -0.8562  0.0257
  423MOL0     H57060  12.076   5.728   0.877 -1.5028  2.4711 -1.2050
  423MOL0     H57061  12.291   5.804   0.956 -1.1682 -3.4926  4.6358
  423MOL0     H57062  12.374   5.749   0.799  0.5273  1.5160  0.2422
  423MOL0     H57063  12.409   5.605   1.004  1.2515 -1.7232 -1.1366
  423MOL0     H57064  12.301   5.526   0.876 -6.7348  1.9472 -1.0862
  423MOL0     H57065  12.028   5.669   1.166  1.5878 -0.2044 -4.0013
  423MOL0     H57066  11.893   5.739   1.344  1.2963 -3.3100 -0.7803
  423MOL0     H57067  11.929   5.726   1.506 -0.2252 -0.0168 -0.8887
  423MOL0     H57068  11.965   5.882   1.430 -1.5963  0.0868  0.7262
  423MOL0     H57069  11.935   5.913   1.752 -2.5675 -3.7022 -0.3591
  423MOL0     H57070  11.903   5.971   2.015 -1.0547 -0.3679  0.0496
  423MOL0     H57071  12.111   5.668   2.270 -0.5897 -0.3219 -2.5521
  423MOL0     H57072  12.172   5.842   2.276 -0.2049  0.3699 -0.1418
  423MOL0     H57073  11.951   5.893   2.420 -2.5121 -0.6122 -1.9353
  423MOL0     H57074  11.917   5.719   2.407  0.3899 -1.4860 -1.0102
  423MOL0     H57075  12.011   5.773   2.624 -2.1640  3.4533 -1.0147
  423MOL0     H57076  12.134   5.877   2.563 -1.5276  0.6394 -0.3758
  423MOL0     H57077  12.159   5.575   2.486  0.8320 -2.8004  2.9158
  423MOL0     H57078  12.277   5.705   2.467  1.9429 -1.6778  2.0322
  423MOL0     H57079  12.255   5.724   2.732  2.9315 -0.6050 -0.4294
  423MOL0     H57080  12.342   5.594   2.659 -0.2681  1.7521 -0.2170
  423MOL0     H57081  12.052   5.587   2.749 -0.7647 -1.2902 -4.0226
  423MOL0     H57082  12.161   5.447   2.716  1.6004  0.3339 -0.2127
  423MOL0     H57083  12.141   5.640   2.931 -1.0187  0.5028 -2.0472
  423MOL0     H57084  12.305   5.570   2.912  0.0575 -0.7843 -1.9201
  423MOL0     H57085  12.033   5.419   2.966  0.3321  2.2865  0.0038
  423MOL0     H57086  12.146   5.445   3.085 -1.9378  1.4751 -0.7455
  423MOL0     H57087  12.186   5.667   2.090  0.7148 -1.7282 -1.6453
  423MOL0     H57088  12.269   5.661   1.858 -0.3336 -0.9045  2.7079
  423MOL0     H57089  12.438   5.669   1.445  1.6192 -0.7745 -1.5170
  423MOL0     H57090  12.443   5.607   1.208  0.0544 -0.7538  0.7182
  423MOL0     H57091  11.190   6.498   0.420  0.4755  0.4931  0.9505
  423MOL0     H57092  11.276   6.708   0.504 -0.0172 -3.1022  1.1574
  423MOL0     H57093  11.406   7.117   0.687  0.8648  1.0111 -2.0843
  423MOL0     H57094  11.503   7.119   0.911  2.7383  0.2804  2.5045
  423MOL0     H57095  11.775   7.015   1.154  1.1189 -0.1085 -0.8821
  423MOL0     H57096  11.674   7.127   1.068 -5.2476 -1.1093 -2.7172
  423MOL0     H57097  11.483   7.007   1.137  0.2272  0.3772  0.8946
  423MOL0     H57098  11.588   6.982   1.275  0.3369 -0.3248  0.6415
  423MOL0     H57099  11.630   6.750   1.211  0.0284 -1.0160 -0.2239
  423MOL0     H57100  11.530   6.780   1.061  1.6166  2.9738 -1.2134
  423MOL0     H57101  11.346   6.878   1.224 -1.1882 -0.6808 -0.4016
  423MOL0     H57102  11.439   6.793   1.347  1.6919 -0.4245 -1.3128
  423MOL0     H57103  11.284   6.479   1.103 -0.0394 -2.7119  3.1694
  423MOL0     H57104  11.740   6.785   0.794 -0.2699  0.6974 -0.7713
  423MOL0     H57105  11.624   6.748   0.596 -0.4719 -2.0109  1.4048
  424MOL0     O57106   3.229   2.516   6.812 -0.3782  0.0055 -0.0739
  424MOL0     C57107   3.156   2.578   6.890  0.2914  1.2416  0.2348
  424MOL0     O57108   3.055   2.528   6.974 -0.3890 -0.2660  0.4804
  424MOL0     C57109   2.988   2.412   6.935  0.4281 -0.5367  0.2602
  424MOL0     C57110   2.958   2.308   7.031  0.1428 -0.0203  0.1694
  424MOL0     C57111   2.911   2.180   6.991  0.1462  0.2402 -0.0378
  424MOL0     C57112   2.878   2.150   6.853  0.2217  0.3924  0.1336
  424MOL0     O57113   2.818   2.034   6.815  0.3443  0.0348  0.1732
  424MOL0     C57114   2.835   1.978   6.687 -0.1957 -0.3271  0.2543
  424MOL0     C57115   2.974   1.933   6.645  0.4703  0.6068 -0.0388
  424MOL0     C57116   3.018   1.813   6.726  0.3555 -0.5399 -0.7832
  424MOL0     C57117   3.129   1.730   6.672 -0.7915 -0.2128  1.7584
  424MOL0     C57118   3.155   1.624   6.774  0.0791 -0.0811  0.2221
  424MOL0     C57119   3.289   1.557   6.754 -0.1101  0.7554  0.0042
  424MOL0     C57120   3.319   1.485   6.618 -0.7232 -0.0821 -0.1335
  424MOL0     C57121   3.463   1.455   6.603  1.1379 -0.1679 -1.1886
  424MOL0     N57122   3.483   1.380   6.489 -0.3890  0.1400 -0.0840
  424MOL0     C57123   3.531   1.421   6.364  0.6550  0.1369  0.0744
  424MOL0     C57124   3.562   1.315   6.299 -0.3908  0.4364 -0.6122
  424MOL0     C57125   3.605   1.307   6.159 -1.7181 -0.9719 -0.5449
  424MOL0     C57126   3.504   1.323   6.045  0.4169 -0.7036  0.0194
  424MOL0     C57127   3.569   1.323   5.905 -0.5590  0.1349  0.1639
  424MOL0     C57128   3.467   1.305   5.793 -0.6023 -0.2421  0.3697
  424MOL0     O57129   3.382   1.423   5.783  0.1807 -0.6170 -0.1707
  424MOL0     C57130   3.420   1.530   5.702  1.1484  0.2971  0.4942
  424MOL0     C57131   3.329   1.641   5.707  0.5606  0.3773  0.3350
  424MOL0     C57132   3.353   1.758   5.635  0.8199 -0.1446 -0.8164
  424MOL0     C57133   3.237   1.858   5.652 -1.4987 -0.7037  0.0928
  424MOL0     C57134   3.457   1.760   5.533  0.7995  0.0764  0.2344
  424MOL0     C57135   3.460   1.868   5.431 -0.0493  0.5821 -0.1184
  424MOL0     O57136   3.525   1.831   5.316  0.1645 -0.2706 -0.0759
  424MOL0     C57137   3.501   1.868   5.184 -1.0476 -0.2279 -1.1733
  424MOL0     C57138   3.393   1.947   5.133 -1.6510  0.2401  1.3743
  424MOL0     C57139   3.382   1.971   4.998  0.6918  0.4024  0.1869
  424MOL0     C57140   3.477   1.929   4.902  0.2135 -0.1948 -0.4733
  424MOL0     O57141   3.449   1.957   4.772  0.0867  0.1907  0.1042
  424MOL0     C57142   3.521   1.884   4.674  0.3842 -0.1959  1.1512
  424MOL0     C57143   3.473   1.909   4.530 -0.0721  0.4236 -0.2230
  424MOL0     C57144   3.477   2.054   4.480  0.1656 -0.5390  0.0440
  424MOL0     C57145   3.593   2.074   4.389  0.4690  0.6989 -1.1904
  424MOL0     C57146   3.578   2.210   4.320  0.2552 -0.6031  0.1081
  424MOL0     C57147   3.695   2.235   4.221  0.3583  1.2405  0.5692
  424MOL0     C57148   3.710   2.378   4.175 -0.7984 -0.6277  0.2926
  424MOL0     C57149   3.738   2.383   4.028 -0.9116  0.4275  0.5845
  424MOL0    Cl57150   3.898   2.296   4.000 -0.2308  0.4851  0.3197
  424MOL0     C57151   3.585   1.850   4.954  0.0734 -1.0115 -0.6507
  424MOL0     C57152   3.596   1.823   5.093  0.1726  0.7359  0.7916
  424MOL0     O57153   3.392   1.967   5.443  0.1661 -0.2182  0.5219
  424MOL0     C57154   3.542   1.649   5.527  0.2681 -0.3489 -0.2369
  424MOL0     C57155   3.532   1.535   5.614  0.2578 -0.0892 -0.3874
  424MOL0     N57156   3.541   1.204   6.386  0.0973 -0.6137  0.4514
  424MOL0     N57157   3.488   1.244   6.494 -0.1473  0.6789 -0.0377
  424MOL0     C57158   2.899   2.256   6.754 -0.2332 -0.3075 -0.6057
  424MOL0     C57159   2.957   2.377   6.798 -0.5242  0.6067  0.0873
  424MOL0     C57160   3.185   2.720   6.905  0.1070 -0.3889 -0.1112
  424MOL0     C57161   3.254   2.805   6.811 -0.2178 -0.6219  0.4983
  424MOL0     C57162   3.268   2.946   6.829 -1.0959 -0.9042  0.1939
  424MOL0     C57163   3.216   3.013   6.942 -0.1638 -0.2845 -0.3407
  424MOL0     O57164   3.239   3.140   6.980 -0.2695  0.2912 -0.5032
  424MOL0     C57165   3.318   3.223   6.898  0.2403  0.8741  0.7403
  424MOL0     C57166   3.227   3.274   6.779 -0.8796  0.1990  0.2327
  424MOL0     C57167   3.289   3.389   6.691 -0.9533  1.2386  0.8825
  424MOL0     C57168   3.189   3.450   6.599  0.0053 -0.3887  0.6265
  424MOL0     C57169   3.079   3.521   6.668 -0.9233 -0.0920  0.4563
  424MOL0     C57170   3.003   3.573   6.747  0.0857  0.0509 -0.1214
  424MOL0     C57171   3.138   2.933   7.019  0.5166  0.8571 -0.9371
  424MOL0     C57172   3.132   2.794   7.013  0.2444 -1.4372  0.0104
  424MOL0     H57173   2.977   2.316   7.138  3.0684 -2.0412 -0.0784
  424MOL0     H57174   2.888   2.100   7.061 -3.0566  0.5561 -0.5537
  424MOL0     H57175   2.761   1.898   6.676  0.6583 -0.9568 -1.1946
  424MOL0     H57176   2.789   2.046   6.615 -2.1757 -0.9539  0.8730
  424MOL0     H57177   2.962   1.909   6.538 -0.0788 -2.0586  0.5398
  424MOL0     H57178   3.052   2.005   6.667  1.7950 -1.0476  0.9441
  424MOL0     H57179   3.031   1.855   6.826 -0.4735  2.4208 -1.7957
  424MOL0     H57180   2.932   1.746   6.733 -0.8915  1.2092  2.9701
  424MOL0     H57181   3.109   1.698   6.569  0.8042  0.0397  1.3369
  424MOL0     H57182   3.210   1.802   6.655 -0.7409 -0.4254  1.0707
  424MOL0     H57183   3.152   1.676   6.870  0.6636 -0.1271  0.2691
  424MOL0     H57184   3.084   1.541   6.783  0.9710 -0.8119  0.6907
  424MOL0     H57185   3.371   1.628   6.767  2.9669 -2.3554 -0.9249
  424MOL0     H57186   3.298   1.481   6.832  0.8465  2.1498  1.3225
  424MOL0     H57187   3.260   1.393   6.609  0.5088 -0.7631 -1.5967
  424MOL0     H57188   3.298   1.563   6.546 -1.6773  0.9321  1.1915
  424MOL0     H57189   3.503   1.404   6.691  0.4981  3.0465  1.1521
  424MOL0     H57190   3.515   1.551   6.593  1.5654 -0.1783  0.6405
  424MOL0     H57191   3.520   1.517   6.315 -0.8923  0.1222  0.3352
  424MOL0     H57192   3.694   1.368   6.139  0.7992 -2.8438  3.4693
  424MOL0     H57193   3.643   1.204   6.165 -0.8588 -0.6497 -0.2447
  424MOL0     H57194   3.437   1.408   6.062 -0.6973 -2.0801  3.3015
  424MOL0     H57195   3.436   1.238   6.051 -3.0311  1.6262 -2.2878
  424MOL0     H57196   3.639   1.239   5.901  0.8509  1.3102 -2.2943
  424MOL0     H57197   3.618   1.419   5.886 -1.8256  0.7188 -0.3370
  424MOL0     H57198   3.403   1.217   5.805  0.3826 -1.8684 -4.3900
  424MOL0     H57199   3.499   1.272   5.694 -0.6613 -1.6123  0.7850
  424MOL0     H57200   3.247   1.635   5.777  0.8349  0.0738  0.6380
  424MOL0     H57201   3.278   1.955   5.680  1.0930 -0.9911 -2.2832
  424MOL0     H57202   3.204   1.865   5.548  0.6369 -0.7224 -0.6216
  424MOL0     H57203   3.152   1.828   5.715 -1.4851  1.5616  1.2953
  424MOL0     H57204   3.317   1.994   5.196 -1.6132 -0.8922  2.2955
  424MOL0     H57205   3.304   2.039   4.965  0.2541 -0.2895 -0.2266
  424MOL0     H57206   3.627   1.912   4.684  0.4431  0.0177  0.0092
  424MOL0     H57207   3.495   1.782   4.703 -3.5765  0.5991  0.8810
  424MOL0     H57208   3.535   1.844   4.468 -0.1854 -0.2069  0.3138
  424MOL0     H57209   3.369   1.875   4.520 -0.2563  0.4286  1.3324
  424MOL0     H57210   3.479   2.128   4.560 -0.5512 -1.1393  0.6251
  424MOL0     H57211   3.387   2.077   4.422  0.4855 -1.1977 -0.7413
  424MOL0     H57212   3.676   2.076   4.460  0.2516  2.8295 -0.9304
  424MOL0     H57213   3.614   1.990   4.321  1.6225  1.8825 -2.3540
  424MOL0     H57214   3.578   2.290   4.395  3.3126 -0.2053 -0.1857
  424MOL0     H57215   3.484   2.203   4.266  0.0538 -0.1512  0.3926
  424MOL0     H57216   3.788   2.193   4.259 -0.1425  3.2529  4.5410
  424MOL0     H57217   3.671   2.170   4.137  2.4081 -0.7135  1.3986
  424MOL0     H57218   3.793   2.424   4.228 -0.4659  4.0127 -3.5432
  424MOL0     H57219   3.622   2.439   4.198  0.4816  1.3555  0.2007
  424MOL0     H57220   3.745   2.485   3.988 -0.4747 -0.4214 -1.6410
  424MOL0     H57221   3.655   2.325   3.987 -0.0259 -0.6530  0.2934
  424MOL0     H57222   3.664   1.806   4.894 -1.5590 -2.1870 -2.0248
  424MOL0     H57223   3.670   1.762   5.144 -2.3693 -0.1827  3.6479
  424MOL0     H57224   3.621   1.658   5.453  0.7720  0.2591  0.3659
  424MOL0     H57225   3.609   1.460   5.603 -1.5976 -1.9193 -1.6227
  424MOL0     H57226   2.881   2.242   6.647 -2.7941 -2.4780 -0.0182
  424MOL0     H57227   2.998   2.436   6.717 -0.4228 -2.2202 -2.0560
  424MOL0     H57228   3.282   2.758   6.718  1.1662 -1.3899  1.2590
  424MOL0     H57229   3.322   3.006   6.756 -0.8484  0.0332  1.1230
  424MOL0     H57230   3.370   3.305   6.949  1.9666  3.2039 -4.1118
  424MOL0     H57231   3.405   3.171   6.858  0.4533  1.5138  0.3515
  424MOL0     H57232   3.131   3.306   6.819 -1.1161 -2.0668  1.6704
  424MOL0     H57233   3.223   3.188   6.711  4.7463 -0.5585  0.3320
  424MOL0     H57234   3.369   3.343   6.633 -1.0817 -2.9165  3.5659
  424MOL0     H57235   3.336   3.460   6.759  2.6122  0.3773 -0.4537
  424MOL0     H57236   3.160   3.381   6.520  1.3217 -2.2268  1.6767
  424MOL0     H57237   3.238   3.537   6.554 -2.6442  2.3349  2.5329
  424MOL0     H57238   2.941   3.623   6.819  0.5901 -1.1083  1.1648
  424MOL0     H57239   3.082   2.976   7.101  3.4049 -2.0952  2.9875
  424MOL0     H57240   3.064   2.743   7.081 -1.2031 -2.2376 -1.9517
  425MOL0     O57241   4.238   7.734  11.385  0.3203  0.1778 -0.7928
  425MOL0     C57242   4.135   7.688  11.441 -0.3624 -0.3598 -0.0179
  425MOL0     O57243   4.066   7.758  11.543 -0.5090 -0.0507  0.4240
  425MOL0     C57244   4.109   7.886  11.569  0.2724  0.0485 -0.2185
  425MOL0     C57245   4.027   8.003  11.533 -1.0111  0.5075  0.2312
  425MOL0     C57246   4.063   8.126  11.592  0.7294 -0.5357  0.5627
  425MOL0     C57247   4.182   8.151  11.658  0.1719  0.7963  0.2548
  425MOL0     O57248   4.188   8.252  11.738  0.7122  0.0560 -1.2338
  425MOL0     C57249   4.317   8.283  11.797  0.0740  0.5733 -0.2225
  425MOL0     C57250   4.282   8.405  11.891  0.2773 -0.2162  0.2404
  425MOL0     C57251   4.410   8.474  11.950  0.5790 -0.2097 -0.8802
  425MOL0     C57252   4.349   8.601  12.021 -0.8582  1.0605  0.4229
  425MOL0     C57253   4.457   8.676  12.098  0.4910  0.4636  0.1137
  425MOL0     C57254   4.379   8.794  12.167 -0.4102  0.5791 -1.3200
  425MOL0     C57255   4.450   8.828  12.305  0.1136  0.0571  0.9410
  425MOL0     C57256   4.402   8.945  12.369  0.3169  0.3115 -0.6202
  425MOL0     N57257   4.351   8.917  12.503  1.1284 -0.3034 -0.0554
  425MOL0     C57258   4.435   8.889  12.606  0.0855  0.1434 -0.6454
  425MOL0     C57259   4.346   8.874  12.707 -0.5989 -1.4330 -1.3773
  425MOL0     C57260   4.369   8.846  12.851 -0.2434  0.1215 -0.4899
  425MOL0     C57261   4.424   8.705  12.877 -0.1495  0.3281 -0.0448
  425MOL0     C57262   4.557   8.672  12.819 -0.5622  0.5986 -0.1036
  425MOL0     C57263   4.594   8.529  12.867 -0.8513 -0.2919 -0.6446
  425MOL0     O57264   4.497   8.433  12.814 -0.3893 -0.3983  0.1645
  425MOL0     C57265   4.479   8.314  12.879 -0.3272 -0.1908  0.1547
  425MOL0     C57266   4.548   8.273  12.985  0.7131  0.2156  0.5014
  425MOL0     C57267   4.514   8.160  13.058  0.4478  1.1722 -0.4713
  425MOL0     C57268   4.584   8.119  13.181 -0.4594  0.7696 -0.1888
  425MOL0     C57269   4.422   8.067  13.012  0.2387  0.1324  0.3743
  425MOL0     C57270   4.388   7.941  13.074  0.6217 -0.2936  0.8051
  425MOL0     O57271   4.260   7.935  13.132 -0.2046  0.3025 -0.3225
  425MOL0     C57272   4.201   7.811  13.151 -0.0893 -0.2407 -0.8709
  425MOL0     C57273   4.218   7.694  13.082  0.4629  0.8636  0.2635
  425MOL0     C57274   4.149   7.584  13.103  0.2624 -0.0586  0.1379
  425MOL0     C57275   4.052   7.578  13.205 -0.9740  0.6623  0.0412
  425MOL0     O57276   4.009   7.450  13.225 -0.3857  0.0518  0.4777
  425MOL0     C57277   3.910   7.436  13.333 -0.3336 -0.8984  0.6174
  425MOL0     C57278   3.980   7.367  13.444 -0.6651  0.2354  0.0541
  425MOL0     C57279   4.003   7.462  13.560  0.6455  0.6289  0.2118
  425MOL0     C57280   4.105   7.415  13.657  0.0713  1.2952  0.4002
  425MOL0     C57281   4.116   7.509  13.771 -0.1447 -0.5724 -0.4902
  425MOL0     C57282   4.197   7.443  13.885 -0.0943 -0.7554 -0.0699
  425MOL0     C57283   4.214   7.560  13.990 -0.6910  1.0047 -0.6968
  425MOL0     C57284   4.094   7.603  14.080 -0.2157  0.0474 -0.6822
  425MOL0    Cl57285   4.027   7.758  14.007  0.0732 -0.2153 -0.2622
  425MOL0     C57286   4.012   7.701  13.264 -0.7000  0.5656  0.6164
  425MOL0     C57287   4.092   7.816  13.236  0.6472 -0.2811 -0.6820
  425MOL0     O57288   4.471   7.851  13.077  0.1123  0.3791  0.9403
  425MOL0     C57289   4.342   8.116  12.912 -0.0371  0.0405 -0.0914
  425MOL0     C57290   4.382   8.226  12.832  0.6012 -0.1054 -0.3614
  425MOL0     N57291   4.217   8.904  12.668 -0.2005  0.2350  0.3095
  425MOL0     N57292   4.218   8.916  12.541 -0.0920  1.0046  0.1196
  425MOL0     C57293   4.274   8.042  11.658 -0.0927  0.2090  0.6704
  425MOL0     C57294   4.240   7.910  11.620  0.0471 -0.3127 -0.1579
  425MOL0     C57295   4.071   7.567  11.403 -0.3424  0.1030  0.5762
  425MOL0     C57296   4.155   7.463  11.369  0.4149 -0.1673 -0.1440
  425MOL0     C57297   4.108   7.339  11.319  0.9743  0.4054 -0.5629
  425MOL0     C57298   3.968   7.318  11.309  0.3930 -0.2902 -0.0558
  425MOL0     O57299   3.919   7.203  11.264  0.5290 -0.1104  0.2354
  425MOL0     C57300   3.944   7.179  11.134 -0.2493  0.0624  0.7462
  425MOL0     C57301   3.885   7.045  11.077 -0.2590  0.1910  0.4030
  425MOL0     C57302   3.957   6.921  11.138 -1.2167 -0.2287 -0.2176
  425MOL0     C57303   3.867   6.792  11.149 -0.7384 -0.2922 -0.2261
  425MOL0     C57304   3.789   6.770  11.269 -0.6021  0.6623  0.6732
  425MOL0     C57305   3.726   6.729  11.364 -0.0847 -0.8696 -1.1702
  425MOL0     C57306   3.886   7.426  11.341 -0.4803 -1.4976  0.5496
  425MOL0     C57307   3.936   7.546  11.401 -0.7604  0.2831 -0.1176
  425MOL0     H57308   3.946   7.988  11.463 -0.3460 -0.0258 -0.4432
  425MOL0     H57309   3.994   8.207  11.572 -0.0088 -1.5886 -1.4069
  425MOL0     H57310   4.372   8.200  11.840  1.5115  0.0215 -2.9256
  425MOL0     H57311   4.381   8.319  11.716 -0.7524 -2.7469 -2.5823
  425MOL0     H57312   4.232   8.480  11.830  0.9693  1.1249  1.2608
  425MOL0     H57313   4.217   8.380  11.975  3.0757  1.3914  3.1208
  425MOL0     H57314   4.467   8.420  12.026 -0.6942  2.0771  1.8406
  425MOL0     H57315   4.474   8.498  11.864  2.1798  2.5655  0.9458
  425MOL0     H57316   4.305   8.663  11.943 -0.4993  1.9529  0.9180
  425MOL0     H57317   4.275   8.563  12.092 -0.0565  1.6735  1.6154
  425MOL0     H57318   4.502   8.610  12.173 -2.4231 -1.4925  0.3085
  425MOL0     H57319   4.545   8.710  12.043  0.5686  0.5174  0.2704
  425MOL0     H57320   4.376   8.883  12.104  3.6770  1.8548 -0.0422
  425MOL0     H57321   4.279   8.758  12.194  1.3005 -2.4912  1.7358
  425MOL0     H57322   4.449   8.732  12.357  1.3598 -0.0190  0.8721
  425MOL0     H57323   4.557   8.847  12.290  0.3658 -1.9448 -0.1523
  425MOL0     H57324   4.327   8.995  12.307 -1.1961  0.1271  0.9796
  425MOL0     H57325   4.486   9.015  12.375  1.6443 -1.3252  0.7970
  425MOL0     H57326   4.544   8.891  12.603  0.1433  0.6024  0.7935
  425MOL0     H57327   4.448   8.915  12.883 -1.0684  0.8324  0.0458
  425MOL0     H57328   4.279   8.857  12.911  0.9889  1.2781  1.2561
  425MOL0     H57329   4.358   8.632  12.830  1.9236 -1.3886 -0.4250
  425MOL0     H57330   4.420   8.689  12.985 -0.4274 -1.7499 -0.3255
  425MOL0     H57331   4.623   8.747  12.864  1.1015  0.0247 -1.4514
  425MOL0     H57332   4.558   8.671  12.709  1.0181  0.5789 -0.1242
  425MOL0     H57333   4.586   8.527  12.976  1.8603  0.9566 -0.3485
  425MOL0     H57334   4.700   8.512  12.848 -0.3586 -0.7378  2.0587
  425MOL0     H57335   4.630   8.330  13.029 -1.0463  2.9787  0.4143
  425MOL0     H57336   4.634   8.023  13.172  0.6836  1.4430 -1.3498
  425MOL0     H57337   4.648   8.201  13.215 -1.8024  0.9573  2.1119
  425MOL0     H57338   4.513   8.107  13.264 -1.4494  0.4596 -1.0514
  425MOL0     H57339   4.301   7.687  13.013  0.2750  0.3274  0.0883
  425MOL0     H57340   4.167   7.500  13.036  2.7545  2.1951 -2.2979
  425MOL0     H57341   3.852   7.524  13.363  0.6367  0.3850 -1.0320
  425MOL0     H57342   3.841   7.365  13.289 -2.5777  2.5793 -2.0072
  425MOL0     H57343   3.916   7.281  13.470  1.0994 -0.7824  1.2427
  425MOL0     H57344   4.074   7.325  13.408  0.9721  3.9253 -0.3880
  425MOL0     H57345   3.906   7.480  13.608 -0.1968  2.5498 -1.9939
  425MOL0     H57346   4.045   7.555  13.520  0.2406  0.6025 -0.2817
  425MOL0     H57347   4.068   7.320  13.698  1.9482 -0.8804 -2.4871
  425MOL0     H57348   4.200   7.392  13.608  0.6148 -1.6369  2.5073
  425MOL0     H57349   4.016   7.538  13.805  0.1088  1.7991 -1.5645
  425MOL0     H57350   4.167   7.599  13.735 -3.2960  1.3374 -0.5572
  425MOL0     H57351   4.136   7.359  13.919 -0.8156 -0.5752 -0.8819
  425MOL0     H57352   4.295   7.413  13.846 -0.0354  0.6703 -1.1327
  425MOL0     H57353   4.277   7.637  13.945 -0.1400 -1.1734 -4.0416
  425MOL0     H57354   4.285   7.516  14.061  0.8623  0.8161 -2.2888
  425MOL0     H57355   4.125   7.625  14.182 -0.8802  1.2588 -0.7256
  425MOL0     H57356   4.011   7.532  14.070 -0.3613  0.4288 -2.5591
  425MOL0     H57357   3.927   7.715  13.330 -0.6526  0.5487  0.6824
  425MOL0     H57358   4.056   7.911  13.274  0.7178 -0.9726  1.2603
  425MOL0     H57359   4.263   8.051  12.877  1.8982 -1.5872 -1.6717
  425MOL0     H57360   4.331   8.257  12.742  4.4506  3.3195 -1.6366
  425MOL0     H57361   4.369   8.042  11.712 -0.3478 -1.0215  1.1527
  425MOL0     H57362   4.318   7.838  11.643 -0.8745 -1.4307 -0.4118
  425MOL0     H57363   4.262   7.475  11.379  0.5763 -2.1300  1.0801
  425MOL0     H57364   4.162   7.250  11.288 -0.9489  0.2274 -3.9492
  425MOL0     H57365   3.904   7.266  11.080  1.1008 -0.9934 -2.1485
  425MOL0     H57366   4.049   7.192  11.106 -1.0885  3.1443 -1.5726
  425MOL0     H57367   3.904   7.038  10.969 -0.4250  2.3755  0.1932
  425MOL0     H57368   3.778   7.023  11.082  0.1969 -2.1526  1.0526
  425MOL0     H57369   4.011   6.942  11.231  1.2009 -3.4758 -0.7029
  425MOL0     H57370   4.027   6.886  11.061 -2.6744 -1.8723 -0.8683
  425MOL0     H57371   3.932   6.706  11.137 -1.5532 -0.7330 -1.7054
  425MOL0     H57372   3.797   6.799  11.065 -4.3312  0.4235  2.5703
  425MOL0     H57373   3.674   6.694  11.451 -0.9397  2.7564 -0.0385
  425MOL0     H57374   3.777   7.425  11.333 -0.4407 -0.9070 -0.2378
  425MOL0     H57375   3.871   7.625  11.438 -3.1413 -2.4118  1.9301
  426MOL0     O57376   6.962   4.943   1.864 -0.0195 -0.1070 -0.5171
  426MOL0     C57377   6.939   4.967   1.984 -0.6133  0.0175 -0.1103
  426MOL0     O57378   7.013   5.050   2.061  0.1344  0.6110  0.6762
  426MOL0     C57379   7.138   5.070   2.001 -0.7008 -1.0693  1.0155
  426MOL0     C57380   7.161   5.210   1.970  0.1652  0.0796 -0.0979
  426MOL0     C57381   7.289   5.253   1.932 -0.2730 -0.1197 -0.8997
  426MOL0     C57382   7.396   5.165   1.908  0.3486  0.0936  0.1486
  426MOL0     O57383   7.523   5.202   1.857  0.3317 -0.4034 -0.1774
  426MOL0     C57384   7.518   5.308   1.753 -0.8466  0.8419  0.4525
  426MOL0     C57385   7.639   5.283   1.669  0.1675 -0.2162  0.1875
  426MOL0     C57386   7.617   5.196   1.545  0.3848 -0.0137 -0.8723
  426MOL0     C57387   7.535   5.259   1.435 -0.8566  0.5319  0.8296
  426MOL0     C57388   7.534   5.185   1.292  0.8803 -0.0843 -1.1470
  426MOL0     C57389   7.521   5.035   1.303 -0.1697  0.3408 -0.1151
  426MOL0     C57390   7.470   4.959   1.178 -0.7960  0.8594  0.5230
  426MOL0     C57391   7.472   4.805   1.194 -1.1751 -0.3128 -0.8967
  426MOL0     N57392   7.374   4.732   1.127 -0.1720  0.2462  1.1171
  426MOL0     C57393   7.274   4.670   1.196  0.2921  0.0561 -0.6251
  426MOL0     C57394   7.243   4.561   1.138  0.5825  0.3500 -0.2848
  426MOL0     C57395   7.162   4.444   1.195  0.4026 -0.5103 -0.1640
  426MOL0     C57396   7.015   4.471   1.209 -0.1645 -0.6751  1.2708
  426MOL0     C57397   6.942   4.346   1.255  0.1777  1.2861  0.8970
  426MOL0     C57398   6.802   4.386   1.261  0.3626 -0.1091 -0.7989
  426MOL0     O57399   6.708   4.323   1.345  0.1601 -0.1667 -0.0300
  426MOL0     C57400   6.667   4.202   1.308 -0.0030 -0.2089 -0.0338
  426MOL0     C57401   6.687   4.116   1.406  0.4078 -0.5284  0.1969
  426MOL0     C57402   6.644   3.984   1.398 -0.5023 -0.5585 -0.7990
  426MOL0     C57403   6.659   3.896   1.512  0.0356 -0.3986  0.3922
  426MOL0     C57404   6.569   3.943   1.284 -0.5819  0.0671  0.0862
  426MOL0     C57405   6.507   3.815   1.266  0.5010 -0.0532  0.6587
  426MOL0     O57406   6.458   3.805   1.142 -0.8111 -0.4726  0.4069
  426MOL0     C57407   6.376   3.712   1.079  0.3243  0.9893  1.3824
  426MOL0     C57408   6.357   3.713   0.945 -0.1846 -0.2541 -0.0820
  426MOL0     C57409   6.282   3.620   0.884 -0.1878 -0.7278  0.1245
  426MOL0     C57410   6.205   3.529   0.957  0.1471 -0.5626  0.5563
  426MOL0     O57411   6.111   3.452   0.896 -0.6810 -0.4613 -0.1606
  426MOL0     C57412   6.118   3.310   0.917 -0.7990 -0.7168 -0.5593
  426MOL0     C57413   6.008   3.247   0.833 -0.0284  0.3114 -0.1460
  426MOL0     C57414   6.002   3.283   0.678 -0.0498 -0.2551  0.6101
  426MOL0     C57415   6.128   3.240   0.603  0.8020 -0.0100  0.5899
  426MOL0     C57416   6.158   3.090   0.601  0.1181  1.5250 -0.1074
  426MOL0     C57417   6.299   3.061   0.558  0.1613 -0.1326 -0.7025
  426MOL0     C57418   6.334   2.920   0.561 -0.0268  0.2372  0.0321
  426MOL0     C57419   6.301   2.841   0.427  0.7677 -0.5278 -0.7428
  426MOL0    Cl57420   6.216   2.682   0.455  0.8366  0.2171  0.0815
  426MOL0     C57421   6.222   3.519   1.096 -0.7015 -0.7970 -0.6866
  426MOL0     C57422   6.318   3.611   1.153  0.1069  0.0014 -0.5616
  426MOL0     O57423   6.479   3.737   1.353  0.3923  0.8745 -0.8524
  426MOL0     C57424   6.560   4.041   1.181 -0.7077  1.6005 -0.2261
  426MOL0     C57425   6.605   4.168   1.187  0.2000  0.0547 -0.3383
  426MOL0     N57426   7.306   4.567   1.017 -0.3727  0.7828 -0.1798
  426MOL0     N57427   7.398   4.660   1.014  0.3955  1.0950  0.6131
  426MOL0     C57428   7.376   5.032   1.932  0.4021  0.1282 -0.2288
  426MOL0     C57429   7.247   4.990   1.985  0.7442  0.1448  0.4354
  426MOL0     C57430   6.831   4.894   2.063  0.6638 -0.3557  0.8414
  426MOL0     C57431   6.810   4.931   2.203 -0.6979 -0.2494  0.3790
  426MOL0     C57432   6.727   4.841   2.272 -0.3554 -1.0905  0.0317
  426MOL0     C57433   6.645   4.747   2.214 -0.1889  0.5565 -0.0872
  426MOL0     O57434   6.568   4.668   2.293  0.0773  0.3036  0.1823
  426MOL0     C57435   6.543   4.535   2.235 -0.2945 -0.6767 -0.4372
  426MOL0     C57436   6.532   4.443   2.360  0.7257 -1.2024 -0.5761
  426MOL0     C57437   6.505   4.293   2.328  0.0487  0.6361 -0.0954
  426MOL0     C57438   6.396   4.274   2.216 -0.6291  1.3328  0.5630
  426MOL0     C57439   6.270   4.349   2.228  0.6842  0.7861 -0.4776
  426MOL0     C57440   6.175   4.418   2.256 -0.4115 -0.6131 -0.2716
  426MOL0     C57441   6.652   4.743   2.073  0.4897  0.4416  0.2219
  426MOL0     C57442   6.750   4.804   1.997  0.5649  0.0106 -0.5066
  426MOL0     H57443   7.099   5.299   1.976  1.1953  0.9500 -1.5481
  426MOL0     H57444   7.299   5.360   1.926 -0.1757  0.2972  3.4684
  426MOL0     H57445   7.436   5.310   1.682  0.6234  0.3451 -1.3365
  426MOL0     H57446   7.524   5.411   1.792 -0.6155  1.7366 -1.8098
  426MOL0     H57447   7.679   5.382   1.645 -0.4910  0.3153  1.2531
  426MOL0     H57448   7.714   5.229   1.728 -0.9557  0.3351  2.2143
  426MOL0     H57449   7.715   5.170   1.504  0.7970  0.1432 -0.0049
  426MOL0     H57450   7.572   5.103   1.579  2.2005 -0.9003 -0.7708
  426MOL0     H57451   7.431   5.243   1.464 -2.0482 -0.4203 -3.2964
  426MOL0     H57452   7.554   5.365   1.420 -1.1465  0.1860 -3.0420
  426MOL0     H57453   7.450   5.222   1.233  2.6629  0.7945 -3.2571
  426MOL0     H57454   7.625   5.217   1.240  1.3797  2.9348  1.3221
  426MOL0     H57455   7.618   4.996   1.336 -0.6070  0.2595  1.0920
  426MOL0     H57456   7.447   5.020   1.381  0.3705 -1.3366  0.1154
  426MOL0     H57457   7.364   4.985   1.176 -1.3163 -1.1346  0.1573
  426MOL0     H57458   7.532   4.978   1.089 -4.0806 -0.5642 -2.3191
  426MOL0     H57459   7.466   4.782   1.301  2.0978 -6.8001 -1.6090
  426MOL0     H57460   7.572   4.772   1.168  0.6992  3.0846  1.2242
  426MOL0     H57461   7.234   4.704   1.291 -2.6410  0.2662 -1.8154
  426MOL0     H57462   7.160   4.368   1.117 -5.6463 -2.2124  1.1348
  426MOL0     H57463   7.209   4.409   1.287  0.7634 -3.6932 -1.4595
  426MOL0     H57464   6.977   4.514   1.116  1.8041 -0.9335  0.3004
  426MOL0     H57465   7.004   4.553   1.281 -3.0509  0.2340 -0.0385
  426MOL0     H57466   6.970   4.294   1.347 -0.8534  0.9652  1.0419
  426MOL0     H57467   6.964   4.267   1.181  0.9933  0.8381  1.6049
  426MOL0     H57468   6.772   4.382   1.156  3.7425 -1.6777 -1.8387
  426MOL0     H57469   6.801   4.493   1.284  3.5946  0.4812 -2.8042
  426MOL0     H57470   6.745   4.143   1.494  0.4149 -1.7058  0.5758
  426MOL0     H57471   6.724   3.941   1.587  1.5068  2.5505 -2.4043
  426MOL0     H57472   6.568   3.875   1.568  0.1426  1.6470  1.4143
  426MOL0     H57473   6.692   3.796   1.481 -0.0693  0.1142 -1.5278
  426MOL0     H57474   6.409   3.798   0.901 -1.3725  1.4873  1.6761
  426MOL0     H57475   6.265   3.645   0.780  0.8331  3.4395  0.7577
  426MOL0     H57476   6.217   3.270   0.897  0.3819  0.9885  1.4286
  426MOL0     H57477   6.095   3.294   1.023 -3.0262  1.2386 -0.6483
  426MOL0     H57478   6.009   3.138   0.837 -2.5748  0.1888 -1.0106
  426MOL0     H57479   5.919   3.284   0.884  0.7877  2.3176 -0.0523
  426MOL0     H57480   5.974   3.389   0.674  1.6567  0.2107 -2.2338
  426MOL0     H57481   5.919   3.225   0.638  4.3056 -5.7212 -1.7843
  426MOL0     H57482   6.108   3.272   0.501 -4.2043 -1.2339  0.9479
  426MOL0     H57483   6.211   3.295   0.648  2.8042 -0.6812 -1.9927
  426MOL0     H57484   6.084   3.039   0.539 -0.1231 -0.9905  2.0812
  426MOL0     H57485   6.137   3.042   0.698 -0.1500 -1.7008 -1.6345
  426MOL0     H57486   6.327   3.123   0.472 -0.8084  3.3287  1.2775
  426MOL0     H57487   6.364   3.111   0.631 -3.0903  1.1239  1.5313
  426MOL0     H57488   6.276   2.875   0.643  1.1996 -2.2209 -0.3607
  426MOL0     H57489   6.440   2.901   0.578  0.5858 -0.4664 -3.6660
  426MOL0     H57490   6.393   2.820   0.371  1.6245  2.0839 -0.4225
  426MOL0     H57491   6.236   2.904   0.365 -0.2759 -0.4348  0.4127
  426MOL0     H57492   6.172   3.441   1.153  3.3171 -2.7247  0.5272
  426MOL0     H57493   6.324   3.594   1.260 -0.6719  2.3800 -0.0910
  426MOL0     H57494   6.516   4.010   1.086 -0.3155  0.5470 -0.0761
  426MOL0     H57495   6.591   4.239   1.106 -0.4972 -1.5425 -1.6683
  426MOL0     H57496   7.455   4.958   1.928 -0.4899 -0.7955 -2.2508
  426MOL0     H57497   7.240   4.885   2.009  3.2123 -0.2340 -0.2170
  426MOL0     H57498   6.867   5.011   2.248 -3.6259  1.4303  1.3954
  426MOL0     H57499   6.712   4.849   2.379 -1.6245 -1.4174 -0.1116
  426MOL0     H57500   6.458   4.532   2.166  1.3058  0.8882 -2.6314
  426MOL0     H57501   6.636   4.512   2.182  4.1780  4.1497  4.1286
  426MOL0     H57502   6.440   4.474   2.410  0.6288 -0.8625 -0.9556
  426MOL0     H57503   6.613   4.452   2.432 -0.3539  1.2473  0.4461
  426MOL0     H57504   6.463   4.246   2.417  0.0520 -2.6029 -1.6829
  426MOL0     H57505   6.596   4.236   2.310  0.8089  1.1200  1.9993
  426MOL0     H57506   6.372   4.167   2.208 -0.2049  1.2579  0.2382
  426MOL0     H57507   6.443   4.302   2.121 -0.0777  0.3863  0.5438
  426MOL0     H57508   6.090   4.483   2.257 -0.4416 -0.6099 -1.6149
  426MOL0     H57509   6.575   4.681   2.028  0.8616  0.4954 -0.4968
  426MOL0     H57510   6.764   4.779   1.892  1.0275 -1.5043 -0.1227
  427MOL0     O57511   6.884   5.863   6.671  1.3320 -0.1095  0.0884
  427MOL0     C57512   6.900   5.784   6.587 -0.0372  1.6168 -0.7882
  427MOL0     O57513   6.810   5.725   6.517  0.6094 -0.3847  0.1638
  427MOL0     C57514   6.673   5.740   6.549 -0.5913 -0.1441  0.0167
  427MOL0     C57515   6.588   5.789   6.453  0.8439 -0.3653  0.3688
  427MOL0     C57516   6.456   5.821   6.476 -0.6230  0.2975  0.9170
  427MOL0     C57517   6.400   5.800   6.599 -0.4896 -0.5874 -0.2547
  427MOL0     O57518   6.275   5.835   6.649 -0.1310  0.7032 -0.3102
  427MOL0     C57519   6.182   5.896   6.570  0.2879  0.2974  0.1568
  427MOL0     C57520   6.069   5.907   6.664  0.2132 -0.2584 -0.0985
  427MOL0     C57521   5.941   5.972   6.600  0.0761  0.2216  0.7283
  427MOL0     C57522   5.968   6.116   6.547 -0.8336 -0.6091 -0.0062
  427MOL0     C57523   5.832   6.179   6.498  0.0756 -0.7308  0.6613
  427MOL0     C57524   5.822   6.329   6.501 -0.2381  0.4430 -0.1483
  427MOL0     C57525   5.888   6.395   6.384  0.5227  0.4139  0.8850
  427MOL0     C57526   5.863   6.553   6.371 -0.6179 -0.9648 -0.2138
  427MOL0     N57527   5.883   6.632   6.498 -0.5075  0.5177  0.2918
  427MOL0     C57528   5.998   6.663   6.541 -0.8923 -0.0500 -0.1508
  427MOL0     C57529   5.980   6.728   6.654  0.2396  0.0404 -0.7015
  427MOL0     C57530   6.099   6.788   6.730  1.1509 -0.3560 -0.1160
  427MOL0     C57531   6.136   6.680   6.837  0.0032 -1.0839 -0.5943
  427MOL0     C57532   6.026   6.617   6.931 -0.6011  0.1404 -0.1321
  427MOL0     C57533   5.938   6.720   7.011  0.6981  0.0248 -0.2256
  427MOL0     O57534   6.014   6.802   7.089  0.4450 -0.9142 -0.4588
  427MOL0     C57535   5.944   6.893   7.170  0.0901  0.3901 -0.1744
  427MOL0     C57536   6.002   6.934   7.291  0.0206 -0.0789 -0.5754
  427MOL0     C57537   5.947   7.029   7.377 -0.1415  0.5412 -0.6150
  427MOL0     C57538   6.015   7.028   7.511  0.2044  0.3924 -0.1958
  427MOL0     C57539   5.821   7.085   7.335 -1.4403  0.4499 -0.3410
  427MOL0     C57540   5.770   7.211   7.400 -0.7292 -0.6789  0.1791
  427MOL0     O57541   5.643   7.253   7.363  0.5006 -0.6714 -0.3609
  427MOL0     C57542   5.583   7.358   7.433  0.5639  0.5866 -0.6977
  427MOL0     C57543   5.599   7.382   7.574 -0.0267  0.0341  0.5297
  427MOL0     C57544   5.507   7.457   7.650  0.5223 -0.1871  0.2219
  427MOL0     C57545   5.401   7.523   7.583 -0.3500 -1.2287 -0.3204
  427MOL0     O57546   5.304   7.601   7.642 -0.9147 -0.0903  0.0964
  427MOL0     C57547   5.346   7.669   7.765  0.1513  1.1743  1.2469
  427MOL0     C57548   5.252   7.766   7.818  0.7853 -0.5720 -0.1779
  427MOL0     C57549   5.284   7.821   7.953  0.9950  0.0703  0.0714
  427MOL0     C57550   5.176   7.927   8.008 -0.3597 -0.4086  0.8528
  427MOL0     C57551   5.225   7.991   8.147 -0.1882  0.9088  1.1053
  427MOL0     C57552   5.132   7.938   8.256 -0.3059 -0.3758 -1.0063
  427MOL0     C57553   5.144   8.028   8.381  0.5436  1.1836  0.2658
  427MOL0     C57554   5.070   7.980   8.502  0.5580 -0.1886  0.9466
  427MOL0    Cl57555   5.065   8.095   8.636 -0.0211  0.0465  0.2374
  427MOL0     C57556   5.391   7.516   7.438  0.3266  0.0845  0.1091
  427MOL0     C57557   5.479   7.433   7.371 -0.0032 -0.1381  0.8044
  427MOL0     O57558   5.846   7.278   7.469 -0.2215  0.0458 -0.0041
  427MOL0     C57559   5.764   7.040   7.217 -1.4754 -0.5570 -0.8413
  427MOL0     C57560   5.826   6.949   7.136 -0.6029  0.4530  0.4266
  427MOL0     N57561   5.845   6.742   6.673 -0.4129 -0.0467  0.2185
  427MOL0     N57562   5.788   6.688   6.571 -0.7270 -0.0013 -0.0478
  427MOL0     C57563   6.483   5.747   6.698  0.2899  0.6061 -0.1587
  427MOL0     C57564   6.624   5.714   6.680  0.3443 -0.1459  0.0946
  427MOL0     C57565   7.035   5.727   6.558 -0.7014  0.1138  0.4290
  427MOL0     C57566   7.073   5.638   6.450 -0.9818 -0.4868 -0.1533
  427MOL0     C57567   7.190   5.564   6.453  0.4025 -0.2857  0.3839
  427MOL0     C57568   7.295   5.594   6.552  0.2038  0.0159  1.5929
  427MOL0     O57569   7.416   5.541   6.552 -0.2112  0.5038 -0.4798
  427MOL0     C57570   7.441   5.437   6.455  0.1773 -0.1986  0.5432
  427MOL0     C57571   7.593   5.404   6.470 -0.6132 -1.1143  0.0251
  427MOL0     C57572   7.608   5.319   6.602  0.2639 -0.7833 -0.2133
  427MOL0     C57573   7.746   5.250   6.614 -0.0431  1.0089 -0.9581
  427MOL0     C57574   7.748   5.122   6.545  0.0381 -0.5735 -0.1289
  427MOL0     C57575   7.746   5.025   6.473  0.0160 -0.2942 -0.5678
  427MOL0     C57576   7.271   5.691   6.637  0.1507  0.0168  0.2652
  427MOL0     C57577   7.152   5.760   6.645  0.4777  0.5389  0.0575
  427MOL0     H57578   6.614   5.807   6.349 -1.1815  0.2719 -0.0607
  427MOL0     H57579   6.399   5.864   6.394  3.2269  0.3659 -1.9776
  427MOL0     H57580   6.216   5.991   6.525 -0.6637 -0.1318 -1.5531
  427MOL0     H57581   6.136   5.828   6.498 -3.8653  3.6490 -0.7841
  427MOL0     H57582   6.035   5.809   6.698  0.5656 -0.6281 -0.7751
  427MOL0     H57583   6.114   5.957   6.750  0.5619 -1.0062  0.1592
  427MOL0     H57584   5.906   5.918   6.512  2.4035  1.5580 -1.1159
  427MOL0     H57585   5.864   5.974   6.678  1.1509 -2.7563  2.0200
  427MOL0     H57586   5.993   6.173   6.637 -2.1596  0.3518 -0.2022
  427MOL0     H57587   6.036   6.117   6.461 -1.2523 -2.6495 -0.4087
  427MOL0     H57588   5.819   6.143   6.396  1.3944  0.6836 -0.0459
  427MOL0     H57589   5.742   6.143   6.549 -1.0177 -2.1600 -2.1180
  427MOL0     H57590   5.717   6.356   6.493  0.1447  1.7378 -1.1982
  427MOL0     H57591   5.866   6.362   6.596 -0.0067 -1.0134  0.2703
  427MOL0     H57592   5.994   6.379   6.402  1.0768  2.8359  0.2270
  427MOL0     H57593   5.852   6.349   6.292  0.1272 -1.9994  2.1533
  427MOL0     H57594   5.763   6.572   6.331 -0.1997  1.6420 -0.2137
  427MOL0     H57595   5.927   6.594   6.293 -4.0404  1.9938 -1.7672
  427MOL0     H57596   6.095   6.648   6.494 -1.8313 -0.8603 -1.9138
  427MOL0     H57597   6.176   6.803   6.654 -0.6184 -0.1495 -1.9522
  427MOL0     H57598   6.074   6.884   6.776 -1.7806 -1.0554 -0.0121
  427MOL0     H57599   6.189   6.728   6.919 -3.5381  1.9172  0.2223
  427MOL0     H57600   6.199   6.602   6.792  0.5764  0.9988 -3.7232
  427MOL0     H57601   6.081   6.552   6.999 -0.7256  1.3629  1.1757
  427MOL0     H57602   5.952   6.558   6.875 -0.8670 -0.0566  0.4219
  427MOL0     H57603   5.871   6.659   7.072  1.8412 -3.5047 -2.1896
  427MOL0     H57604   5.875   6.767   6.935  0.9489  1.0295  0.1661
  427MOL0     H57605   6.098   6.896   7.323  0.0499 -0.5899 -1.2417
  427MOL0     H57606   6.120   7.043   7.485 -0.7917  3.7475 -3.0761
  427MOL0     H57607   5.977   7.111   7.572  1.1637  0.8539 -0.2127
  427MOL0     H57608   5.984   6.934   7.558 -1.0557  0.4085 -0.9484
  427MOL0     H57609   5.669   7.320   7.629  1.3793 -0.2276 -1.4829
  427MOL0     H57610   5.509   7.443   7.757 -3.1266 -0.2473  0.4076
  427MOL0     H57611   5.359   7.591   7.841  0.9197 -0.2704 -0.3084
  427MOL0     H57612   5.439   7.725   7.756  0.7717  0.2761  1.8066
  427MOL0     H57613   5.236   7.846   7.746 -2.1781 -0.1875  0.8103
  427MOL0     H57614   5.151   7.728   7.832  0.8655 -0.0962  2.0124
  427MOL0     H57615   5.387   7.860   7.955  0.7947  0.9778  4.9099
  427MOL0     H57616   5.292   7.734   8.019  1.8136 -0.3413 -0.5426
  427MOL0     H57617   5.168   7.998   7.925 -2.3732 -0.9522  0.5104
  427MOL0     H57618   5.077   7.881   8.017 -0.3299 -0.5128  0.6558
  427MOL0     H57619   5.214   8.100   8.151  2.8854  1.2846  2.8722
  427MOL0     H57620   5.333   7.978   8.163  1.1217  4.2881 -2.9071
  427MOL0     H57621   5.032   7.945   8.213 -1.2534 -2.4841  0.6699
  427MOL0     H57622   5.147   7.834   8.287 -4.2267 -1.1398 -1.1888
  427MOL0     H57623   5.102   8.127   8.360 -2.4405  0.5957  2.6093
  427MOL0     H57624   5.250   8.049   8.398  0.9591 -0.0552 -0.6668
  427MOL0     H57625   5.114   7.889   8.545 -0.4155 -1.3823 -0.4680
  427MOL0     H57626   4.965   7.962   8.477  0.9581 -1.4373  0.0433
  427MOL0     H57627   5.314   7.568   7.382  1.1538  1.3369  0.0738
  427MOL0     H57628   5.470   7.425   7.263 -0.8191  4.1199  0.3689
  427MOL0     H57629   5.676   7.097   7.188 -1.3597  0.1430  0.1352
  427MOL0     H57630   5.769   6.928   7.046 -1.8907  1.4669  0.9650
  427MOL0     H57631   6.445   5.740   6.800  2.1266 -1.4719  0.4650
  427MOL0     H57632   6.692   5.671   6.753  3.5530 -0.1783 -2.7033
  427MOL0     H57633   7.001   5.620   6.370 -1.1075 -0.0123 -0.1511
  427MOL0     H57634   7.199   5.483   6.381 -1.1185 -1.1202  1.0860
  427MOL0     H57635   7.371   5.353   6.465 -1.0519  0.8330  0.8607
  427MOL0     H57636   7.437   5.476   6.353  0.9855  0.2668  0.6817
  427MOL0     H57637   7.663   5.488   6.469  1.7229 -2.9450 -1.2723
  427MOL0     H57638   7.634   5.341   6.390  1.4305 -0.5372  0.5630
  427MOL0     H57639   7.523   5.254   6.624 -0.3440 -1.3769 -3.7730
  427MOL0     H57640   7.598   5.399   6.677 -0.0024  0.8927 -1.9601
  427MOL0     H57641   7.768   5.231   6.719 -2.6048  2.1216 -0.1514
  427MOL0     H57642   7.820   5.307   6.556  0.0505  2.9347  0.9121
  427MOL0     H57643   7.739   4.939   6.410  0.4272 -1.2937  0.6950
  427MOL0     H57644   7.346   5.715   6.712 -1.9261 -0.1363  2.5336
  427MOL0     H57645   7.131   5.832   6.724 -2.5740  0.0502 -0.2116
  428MOL0     O57646   8.083   2.692   1.808  0.0912 -0.4912 -1.1613
  428MOL0     C57647   8.052   2.744   1.915 -0.2717  0.0567  0.5485
  428MOL0     O57648   7.956   2.700   1.996 -0.5150 -0.9267 -0.5578
  428MOL0     C57649   7.873   2.596   1.962  1.1778 -1.0791 -0.1259
  428MOL0     C57650   7.889   2.474   2.023 -0.5558 -0.2429 -0.3961
  428MOL0     C57651   7.794   2.363   2.001 -0.3533  0.0455 -0.4515
  428MOL0     C57652   7.682   2.395   1.917 -0.2319  0.2218  0.5917
  428MOL0     O57653   7.575   2.309   1.886 -0.5719 -0.2828 -0.7090
  428MOL0     C57654   7.589   2.175   1.910  0.3613 -0.0135 -0.1085
  428MOL0     C57655   7.573   2.126   2.054  0.2933  0.3066 -1.7134
  428MOL0     C57656   7.662   1.995   2.069 -1.3118  1.0739 -0.4474
  428MOL0     C57657   7.640   1.923   2.206 -0.5706 -0.4961  0.5839
  428MOL0     C57658   7.696   1.778   2.211  0.7519  0.7769 -0.3398
  428MOL0     C57659   7.848   1.758   2.190  0.0161 -0.1510 -0.2030
  428MOL0     C57660   7.894   1.792   2.043  0.0069 -0.2259  0.7688
  428MOL0     C57661   8.020   1.709   1.994  0.3735  0.2284 -0.7430
  428MOL0     N57662   8.120   1.667   2.104  0.1915 -0.2045 -0.3251
  428MOL0     C57663   8.104   1.575   2.208  0.6277 -0.9886  0.0533
  428MOL0     C57664   8.205   1.590   2.293  0.7474  0.3225 -0.6751
  428MOL0     C57665   8.244   1.508   2.414 -0.6126 -0.2451 -1.1610
  428MOL0     C57666   8.141   1.544   2.518 -0.2399  0.1445  0.5923
  428MOL0     C57667   8.157   1.454   2.646 -0.3562  0.2510 -1.1195
  428MOL0     C57668   8.149   1.524   2.788  0.0852 -0.1948  0.1962
  428MOL0     O57669   8.182   1.445   2.893  0.2750  0.3520  0.3832
  428MOL0     C57670   8.314   1.427   2.926  0.2062  0.5568 -0.2255
  428MOL0     C57671   8.345   1.345   3.028 -0.2738  0.5954  0.7525
  428MOL0     C57672   8.469   1.295   3.062 -0.0832  0.5694 -0.0087
  428MOL0     C57673   8.470   1.169   3.145 -0.6057  0.0545 -0.9126
  428MOL0     C57674   8.584   1.348   2.988  0.3095 -0.6717  0.6418
  428MOL0     C57675   8.724   1.294   2.989 -0.6365 -0.3636  0.1668
  428MOL0     O57676   8.815   1.338   2.888  0.1630  0.3717 -0.6663
  428MOL0     C57677   8.949   1.327   2.925  0.3180  0.5414 -1.2833
  428MOL0     C57678   9.004   1.380   3.039  0.5347 -0.9899 -0.4711
  428MOL0     C57679   9.140   1.379   3.067  0.3461  0.2115 -0.1195
  428MOL0     C57680   9.225   1.327   2.980  1.1138 -0.3670  0.0164
  428MOL0     O57681   9.359   1.350   3.006  0.4692  0.5326 -0.3662
  428MOL0     C57682   9.451   1.371   2.895  0.0224  0.8285 -1.1753
  428MOL0     C57683   9.588   1.358   2.963 -0.3635 -0.5912 -0.7714
  428MOL0     C57684   9.705   1.363   2.867 -1.1001 -0.0437 -0.1175
  428MOL0     C57685   9.699   1.288   2.732  0.0014  0.5162  1.0023
  428MOL0     C57686   9.825   1.307   2.644  0.2069  0.0215  1.5343
  428MOL0     C57687   9.884   1.446   2.615  0.0181  0.0684 -0.2045
  428MOL0     C57688   9.970   1.454   2.484 -0.1418  0.1973 -0.5309
  428MOL0     C57689  10.053   1.586   2.482  0.0662  0.6218  0.2174
  428MOL0    Cl57690   9.937   1.707   2.404  0.3881  0.4821 -0.4198
  428MOL0     C57691   9.174   1.259   2.868 -0.3998 -0.4457  1.2295
  428MOL0     C57692   9.040   1.262   2.841  1.1973  0.7655  0.4329
  428MOL0     O57693   8.755   1.218   3.077 -0.0406 -0.6040 -0.1862
  428MOL0     C57694   8.556   1.448   2.891 -0.2449 -0.1546 -0.8645
  428MOL0     C57695   8.426   1.484   2.861  0.6575  0.8772  0.1144
  428MOL0     N57696   8.272   1.702   2.247  0.5101  0.7449  0.5733
  428MOL0     N57697   8.219   1.753   2.143  0.5901  0.1187 -0.1825
  428MOL0     C57698   7.674   2.516   1.863 -0.2146 -0.3279 -0.6271
  428MOL0     C57699   7.760   2.617   1.882  0.1474  0.9160 -0.2419
  428MOL0     C57700   8.140   2.855   1.961  0.4554  0.4063  0.1092
  428MOL0     C57701   8.153   2.889   2.097 -0.4595  0.0956  0.7517
  428MOL0     C57702   8.254   2.981   2.145 -0.0187 -0.5786  0.2916
  428MOL0     C57703   8.331   3.050   2.055  0.8077 -0.3458 -0.0660
  428MOL0     O57704   8.424   3.136   2.098  0.3519  0.3414  0.8235
  428MOL0     C57705   8.543   3.083   2.147  0.3561 -0.8685  0.1148
  428MOL0     C57706   8.632   3.016   2.039 -0.0872 -0.5634 -0.8099
  428MOL0     C57707   8.685   3.112   1.928  0.2976  0.8443 -0.6687
  428MOL0     C57708   8.783   3.051   1.829  0.3357  0.7124 -0.6261
  428MOL0     C57709   8.751   3.046   1.685  0.0945  0.4719 -0.4539
  428MOL0     C57710   8.703   3.022   1.572 -0.6502  0.0341  0.2801
  428MOL0     C57711   8.304   3.032   1.916 -0.5052 -0.8737  1.0027
  428MOL0     C57712   8.214   2.931   1.875 -0.1612 -0.2047  0.4192
  428MOL0     H57713   7.988   2.444   2.057 -0.5794  0.6475  0.5247
  428MOL0     H57714   7.814   2.263   2.037  3.9321  1.3714  1.6037
  428MOL0     H57715   7.508   2.126   1.855 -1.7503  3.1761 -0.0935
  428MOL0     H57716   7.685   2.136   1.874 -0.0727 -1.2338 -0.0080
  428MOL0     H57717   7.599   2.210   2.119 -0.7283 -0.8991  0.3575
  428MOL0     H57718   7.467   2.104   2.069 -0.5263  3.3962 -2.2905
  428MOL0     H57719   7.633   1.932   1.984  0.3456  1.3141 -1.2398
  428MOL0     H57720   7.766   2.030   2.065 -2.2373  4.0291 -1.6704
  428MOL0     H57721   7.687   1.980   2.287 -1.5511  0.5272  0.4570
  428MOL0     H57722   7.535   1.934   2.234 -1.4918  1.9370 -3.0092
  428MOL0     H57723   7.664   1.735   2.307 -3.9038 -1.4171 -2.5671
  428MOL0     H57724   7.638   1.715   2.144 -1.7889  2.2523  0.3398
  428MOL0     H57725   7.899   1.823   2.263  2.2761 -0.8572 -1.0782
  428MOL0     H57726   7.868   1.653   2.212 -0.7359 -0.3130 -0.2590
  428MOL0     H57727   7.808   1.774   1.978 -0.1456 -0.7821  1.1128
  428MOL0     H57728   7.921   1.897   2.033  0.2873 -0.3270  0.4442
  428MOL0     H57729   8.055   1.772   1.912 -1.1614  0.3270 -1.3563
  428MOL0     H57730   7.986   1.618   1.944  3.4184 -1.2510 -0.3393
  428MOL0     H57731   8.030   1.497   2.223 -3.9436  2.2164 -3.2114
  428MOL0     H57732   8.254   1.401   2.397  1.3175 -0.2102 -0.4973
  428MOL0     H57733   8.338   1.547   2.454 -0.5861  0.7963 -2.1729
  428MOL0     H57734   8.046   1.537   2.464  1.5549 -1.0718 -2.6857
  428MOL0     H57735   8.159   1.650   2.540  1.5154 -0.2075  1.0011
  428MOL0     H57736   8.256   1.408   2.645 -0.8923 -1.3965  2.7672
  428MOL0     H57737   8.077   1.379   2.639  1.4377 -2.1240  1.6353
  428MOL0     H57738   8.045   1.553   2.806 -0.5672 -1.9732 -0.4821
  428MOL0     H57739   8.210   1.613   2.772 -0.2774  0.0618  0.2195
  428MOL0     H57740   8.260   1.298   3.077 -1.5534  0.2561 -1.6632
  428MOL0     H57741   8.506   1.085   3.085 -0.2999  0.6620 -1.5953
  428MOL0     H57742   8.532   1.165   3.235 -1.1884 -1.7581 -0.5460
  428MOL0     H57743   8.378   1.135   3.193 -0.2935  2.9532  2.1412
  428MOL0     H57744   8.933   1.414   3.113  3.2218 -0.2152  1.9569
  428MOL0     H57745   9.171   1.438   3.153 -2.0949  0.8604  0.3724
  428MOL0     H57746   9.437   1.287   2.826  2.1152 -0.4047 -0.1789
  428MOL0     H57747   9.453   1.466   2.842  1.7688  2.0008  0.8448
  428MOL0     H57748   9.596   1.444   3.031  2.4416 -0.8332 -0.6538
  428MOL0     H57749   9.599   1.273   3.032  3.8234 -0.6579 -1.2378
  428MOL0     H57750   9.798   1.328   2.913 -1.0595 -0.1285 -0.2653
  428MOL0     H57751   9.726   1.468   2.848  1.0882 -0.7845 -2.2471
  428MOL0     H57752   9.701   1.186   2.771 -1.3294  0.2574  0.4297
  428MOL0     H57753   9.612   1.317   2.674  0.6619 -2.7133 -1.9042
  428MOL0     H57754   9.814   1.252   2.550  1.7084 -1.4903  2.1763
  428MOL0     H57755   9.905   1.253   2.696 -0.1403 -1.3610  0.6867
  428MOL0     H57756   9.791   1.502   2.605 -1.8959 -2.0529  3.4986
  428MOL0     H57757   9.933   1.491   2.702  0.0583 -1.1730  0.4412
  428MOL0     H57758   9.920   1.432   2.390  1.8338 -3.7417 -0.8933
  428MOL0     H57759  10.039   1.370   2.498 -1.7480 -1.0981 -0.0792
  428MOL0     H57760  10.145   1.580   2.424  1.0532 -0.4732  1.8158
  428MOL0     H57761  10.072   1.605   2.588  1.0901 -3.7940  1.0398
  428MOL0     H57762   9.233   1.210   2.791 -0.1982  2.3070 -0.5080
  428MOL0     H57763   9.005   1.215   2.750  1.1888 -0.3280  0.9898
  428MOL0     H57764   8.641   1.494   2.843 -1.2831  1.3704 -1.3134
  428MOL0     H57765   8.415   1.549   2.774 -2.1167 -0.6085 -0.7767
  428MOL0     H57766   7.587   2.536   1.801  0.5014  2.2463 -0.8934
  428MOL0     H57767   7.751   2.716   1.840  3.5564  1.5413  0.1682
  428MOL0     H57768   8.096   2.828   2.166 -0.3016 -2.1374 -0.9597
  428MOL0     H57769   8.253   3.016   2.248 -2.0004 -3.3882  1.3662
  428MOL0     H57770   8.616   3.157   2.179 -2.3933  1.2467  1.9114
  428MOL0     H57771   8.530   3.004   2.221 -0.0125 -2.9694 -2.0345
  428MOL0     H57772   8.568   2.940   1.993 -0.6931 -0.2470 -0.4939
  428MOL0     H57773   8.711   2.960   2.091  1.3910  0.0340 -2.3155
  428MOL0     H57774   8.711   3.214   1.959 -1.6378  1.1186  0.2356
  428MOL0     H57775   8.592   3.136   1.876 -0.3033  2.2297  0.9702
  428MOL0     H57776   8.814   2.954   1.868 -1.2136  1.7480  3.6940
  428MOL0     H57777   8.871   3.115   1.834  1.4956 -0.8340 -0.6662
  428MOL0     H57778   8.669   3.010   1.471 -1.1044  2.2310  0.1235
  428MOL0     H57779   8.364   3.091   1.848  0.6833 -2.0273  1.0075
  428MOL0     H57780   8.190   2.901   1.773  1.1637 -1.6910  0.5148
  429MOL0     O57781   6.593   5.299   1.289 -0.4519 -0.3967  0.1295
  429MOL0     C57782   6.642   5.218   1.211 -0.7807  0.4867  0.4285
  429MOL0     O57783   6.739   5.242   1.123 -0.2154 -0.2644  0.5278
  429MOL0     C57784   6.801   5.367   1.137 -0.4317 -0.8362  0.3003
  429MOL0     C57785   6.865   5.430   1.244  0.3540 -0.2149 -0.7915
  429MOL0     C57786   6.938   5.555   1.237 -0.2736  0.0999  1.0202
  429MOL0     C57787   6.949   5.620   1.117 -1.5022 -0.1202  0.0591
  429MOL0     O57788   7.011   5.740   1.095 -0.8305  0.5484  0.1881
  429MOL0     C57789   7.116   5.770   1.186 -0.8766  0.5510 -0.3256
  429MOL0     C57790   7.161   5.909   1.161  0.2909  0.4926  0.0747
  429MOL0     C57791   7.049   6.008   1.192 -1.2146 -0.1100 -0.1105
  429MOL0     C57792   7.095   6.149   1.161  0.8250 -0.2634 -0.0096
  429MOL0     C57793   6.993   6.255   1.197  0.9165  1.5704 -0.8409
  429MOL0     C57794   7.045   6.402   1.177 -0.8555  0.4411 -0.4462
  429MOL0     C57795   6.955   6.494   1.253  0.7848  0.3349  0.5576
  429MOL0     C57796   7.038   6.596   1.329 -0.7310  0.8604 -0.2310
  429MOL0     N57797   7.080   6.698   1.240  0.7676 -0.7182  0.9290
  429MOL0     C57798   7.043   6.837   1.258 -0.5504  0.4252  0.0381
  429MOL0     C57799   7.103   6.903   1.160 -1.4226 -1.1550 -0.3098
  429MOL0     C57800   7.085   7.050   1.127  0.2370  0.1633 -0.4785
  429MOL0     C57801   7.203   7.116   1.059  0.7255  0.6998  0.7389
  429MOL0     C57802   7.165   7.253   1.000 -0.6750 -0.3288  0.4880
  429MOL0     C57803   7.294   7.320   0.956 -0.0188 -0.2182 -0.5880
  429MOL0     O57804   7.276   7.461   0.900  0.1356  0.2044 -0.1288
  429MOL0     C57805   7.233   7.459   0.772  0.1147  0.1205 -0.2221
  429MOL0     C57806   7.328   7.493   0.674  0.0455  0.2835 -0.2745
  429MOL0     C57807   7.294   7.486   0.542 -0.0460  0.2983 -1.0344
  429MOL0     C57808   7.412   7.491   0.449 -0.3136 -0.5619  0.4747
  429MOL0     C57809   7.155   7.478   0.506  0.3037  0.1002 -0.4186
  429MOL0     C57810   7.117   7.467   0.370 -0.5179 -0.4953  0.0626
  429MOL0     O57811   6.999   7.394   0.345 -0.4034  0.5921 -1.4034
  429MOL0     C57812   6.929   7.407   0.228  0.8173 -0.3161  0.0836
  429MOL0     C57813   6.938   7.518   0.145  0.1844 -0.3136 -0.0591
  429MOL0     C57814   6.879   7.512   0.016 -0.4007  0.0907 -0.6297
  429MOL0     C57815   6.795   7.409  -0.021 -0.2935 -0.3324 -0.0656
  429MOL0     O57816   6.732   7.435  -0.142 -0.0724 -0.2145 -0.9193
  429MOL0     C57817   6.596   7.399  -0.135 -0.7812 -0.0467 -0.1538
  429MOL0     C57818   6.509   7.511  -0.108  0.8308  0.4760 -0.2196
  429MOL0     C57819   6.537   7.636  -0.214  0.2686 -0.1341  0.0845
  429MOL0     C57820   6.621   7.749  -0.153  0.0510 -0.5058 -0.0970
  429MOL0     C57821   6.615   7.879  -0.219 -0.7165 -0.2878  0.1449
  429MOL0     C57822   6.696   7.986  -0.135 -0.5354  0.1710  0.1231
  429MOL0     C57823   6.745   8.093  -0.239  0.2507 -0.3440 -0.5586
  429MOL0     C57824   6.800   8.209  -0.163 -0.2698 -0.5399  0.3927
  429MOL0    Cl57825   6.953   8.147  -0.088  0.1026  0.8619 -0.2564
  429MOL0     C57826   6.791   7.299   0.061  0.5909 -1.1420 -0.0358
  429MOL0     C57827   6.852   7.300   0.185 -0.4306 -0.0140 -0.2050
  429MOL0     O57828   7.182   7.520   0.281  0.3656 -1.2274  0.6126
  429MOL0     C57829   7.056   7.479   0.610 -0.1401 -0.0950  0.5534
  429MOL0     C57830   7.092   7.469   0.740  0.2455 -0.0401 -0.5030
  429MOL0     N57831   7.163   6.812   1.083 -0.9060 -0.7608 -0.6827
  429MOL0     N57832   7.153   6.691   1.121 -0.2860 -0.2492 -0.2288
  429MOL0     C57833   6.885   5.555   1.009  0.5557 -0.7119  0.1901
  429MOL0     C57834   6.826   5.431   1.019 -0.0546  0.0161  0.3357
  429MOL0     C57835   6.616   5.074   1.221  0.2973 -0.5913 -0.3700
  429MOL0     C57836   6.578   5.017   1.344 -0.4562  0.0439  0.0665
  429MOL0     C57837   6.565   4.884   1.360  0.3490  0.2243  0.1855
  429MOL0     C57838   6.583   4.805   1.253 -0.0518 -0.4507 -0.4540
  429MOL0     O57839   6.582   4.665   1.272  0.7418 -1.1017  0.2400
  429MOL0     C57840   6.457   4.598   1.304  0.5795 -0.2677  0.3049
  429MOL0     C57841   6.385   4.535   1.187  1.0710 -0.7266  1.0138
  429MOL0     C57842   6.264   4.443   1.204 -0.9121  0.6120  0.5692
  429MOL0     C57843   6.282   4.333   1.313  0.1906  0.1995  0.6896
  429MOL0     C57844   6.170   4.247   1.304  0.1340  0.0065  0.8282
  429MOL0     C57845   6.068   4.180   1.309  0.0334  0.6595 -0.6287
  429MOL0     C57846   6.626   4.855   1.130  0.5099 -0.3772  1.2475
  429MOL0     C57847   6.654   4.987   1.117 -0.0521  1.4483 -0.4121
  429MOL0     H57848   6.855   5.393   1.346 -2.7193 -0.4169 -1.0678
  429MOL0     H57849   6.984   5.580   1.332 -0.7284 -0.1185  1.3013
  429MOL0     H57850   7.109   5.760   1.295  3.4551 -2.9187 -0.0235
  429MOL0     H57851   7.203   5.708   1.163 -0.8317  0.7385 -0.6676
  429MOL0     H57852   7.245   5.925   1.229  0.2765 -1.2855  0.5406
  429MOL0     H57853   7.186   5.915   1.054  4.0367  4.0601  0.8647
  429MOL0     H57854   6.951   5.988   1.147 -0.6459  0.5806 -1.7060
  429MOL0     H57855   7.034   6.001   1.301  1.6619  0.6571  0.4025
  429MOL0     H57856   7.182   6.165   1.226 -0.9112  0.5834  2.2263
  429MOL0     H57857   7.123   6.156   1.055  2.1797  2.5472  0.4524
  429MOL0     H57858   6.897   6.235   1.148 -0.1318 -0.9432  1.9689
  429MOL0     H57859   6.961   6.237   1.300  0.2149 -0.8787 -1.4394
  429MOL0     H57860   7.148   6.399   1.213 -0.5665  1.2147 -1.1571
  429MOL0     H57861   7.051   6.430   1.071  0.0181 -2.8605 -1.3794
  429MOL0     H57862   6.897   6.548   1.177 -1.8344 -2.6882  0.2253
  429MOL0     H57863   6.885   6.449   1.324  0.9013  1.7875  1.6334
  429MOL0     H57864   7.134   6.553   1.356  0.6808  2.3748 -2.5367
  429MOL0     H57865   6.979   6.627   1.416  2.1517  0.5493  1.9948
  429MOL0     H57866   6.965   6.880   1.320  1.2201  1.5556  1.6056
  429MOL0     H57867   6.986   7.074   1.085  0.6391  2.0912 -0.3893
  429MOL0     H57868   7.074   7.083   1.230 -0.2632 -4.6837  1.3041
  429MOL0     H57869   7.260   7.048   0.995  0.4039 -0.2795  1.4686
  429MOL0     H57870   7.273   7.137   1.140  1.5454 -2.6087  1.0584
  429MOL0     H57871   7.117   7.317   1.074 -2.0403  1.2848 -1.6830
  429MOL0     H57872   7.092   7.236   0.920  2.5436 -2.6606 -2.2775
  429MOL0     H57873   7.343   7.265   0.875 -0.6699 -0.0016 -1.1369
  429MOL0     H57874   7.356   7.321   1.046 -4.7704 -1.5891  3.0572
  429MOL0     H57875   7.430   7.515   0.704  0.4626 -1.7739 -0.0797
  429MOL0     H57876   7.410   7.574   0.379  1.2022 -0.0119  1.0278
  429MOL0     H57877   7.500   7.498   0.514 -2.1792  0.4547  3.0342
  429MOL0     H57878   7.418   7.402   0.386  1.1432 -0.2585  0.1367
  429MOL0     H57879   6.995   7.609   0.160  3.1846 -2.4951  3.4394
  429MOL0     H57880   6.883   7.600  -0.047  3.1816  1.1754  0.8648
  429MOL0     H57881   6.569   7.366  -0.236 -1.2696 -0.6817  0.1764
  429MOL0     H57882   6.573   7.312  -0.073 -0.8428  1.2645  1.7396
  429MOL0     H57883   6.408   7.475  -0.130  1.7736 -1.9233 -0.9446
  429MOL0     H57884   6.513   7.549  -0.006 -3.3095  1.9356 -0.4003
  429MOL0     H57885   6.447   7.683  -0.254  2.2460  0.1497 -4.7570
  429MOL0     H57886   6.585   7.606  -0.308 -2.7095  2.0307 -2.3412
  429MOL0     H57887   6.580   7.764  -0.053  0.3754 -1.4538  0.1903
  429MOL0     H57888   6.726   7.722  -0.137 -0.7096 -2.4069  2.2623
  429MOL0     H57889   6.514   7.921  -0.221  0.3028  2.3257 -1.6222
  429MOL0     H57890   6.653   7.859  -0.319 -0.0608  2.2905 -0.1979
  429MOL0     H57891   6.661   8.033  -0.043  1.8550 -0.3922  1.4231
  429MOL0     H57892   6.792   7.939  -0.110  0.1951  1.0489 -0.8915
  429MOL0     H57893   6.654   8.123  -0.293  0.9977  2.1056 -0.5699
  429MOL0     H57894   6.815   8.048  -0.310 -3.9032 -3.0992 -3.4216
  429MOL0     H57895   6.731   8.224  -0.079 -0.3845  1.8431 -0.0499
  429MOL0     H57896   6.821   8.300  -0.220  1.7804 -1.2235  0.0022
  429MOL0     H57897   6.724   7.219   0.032  0.6703 -1.7739  1.4428
  429MOL0     H57898   6.846   7.205   0.238 -1.2190  0.5292  0.7007
  429MOL0     H57899   6.952   7.486   0.580 -0.0176 -0.1209  0.1103
  429MOL0     H57900   7.017   7.475   0.819 -0.2302  1.1610 -1.0278
  429MOL0     H57901   6.884   5.618   0.921 -2.9032  1.7238  1.7271
  429MOL0     H57902   6.806   5.389   0.921  0.5167 -0.4967  0.4384
  429MOL0     H57903   6.560   5.080   1.430 -1.3120  1.2817 -0.9793
  429MOL0     H57904   6.543   4.844   1.459 -0.5015  0.0606 -0.0643
  429MOL0     H57905   6.484   4.525   1.381 -3.3346 -1.0413  1.1760
  429MOL0     H57906   6.382   4.657   1.359  1.9085  0.2091  1.6769
  429MOL0     H57907   6.449   4.475   1.122 -3.6004 -3.1321 -1.8783
  429MOL0     H57908   6.369   4.622   1.123  0.1664 -2.5253 -1.3359
  429MOL0     H57909   6.236   4.394   1.110  2.8095  0.0414 -0.4166
  429MOL0     H57910   6.176   4.490   1.247  0.6133  0.6769  3.9412
  429MOL0     H57911   6.292   4.371   1.415  2.2653  0.4034  0.4572
  429MOL0     H57912   6.371   4.275   1.291  0.5580  1.7012 -2.3733
  429MOL0     H57913   5.972   4.132   1.311 -0.3725  1.4140 -1.3369
  429MOL0     H57914   6.650   4.794   1.043 -2.4592  2.3304 -1.8006
  429MOL0     H57915   6.693   5.024   1.023  1.5804 -0.4832 -0.5575
  430MOL0     O57916  10.088   6.576  11.391 -0.2921 -0.2223 -0.5763
  430MOL0     C57917  10.211   6.568  11.362 -0.2129  0.3690 -0.5159
  430MOL0     O57918  10.296   6.665  11.339  0.0920 -0.0749 -0.2045
  430MOL0     C57919  10.268   6.793  11.390  0.0969 -0.6883 -0.8201
  430MOL0     C57920  10.359   6.846  11.481 -0.5312 -0.1096  0.2216
  430MOL0     C57921  10.333   6.972  11.534 -0.6166  0.8508  0.4518
  430MOL0     C57922  10.221   7.041  11.512  0.7371 -0.3575 -0.8057
  430MOL0     O57923  10.189   7.163  11.562  0.2775  0.0049  0.0976
  430MOL0     C57924  10.185   7.178  11.711  0.9531 -0.6172  1.1569
  430MOL0     C57925  10.048   7.148  11.751  0.0571 -0.3225 -0.0320
  430MOL0     C57926   9.953   7.263  11.726 -0.2917 -0.7443  0.6493
  430MOL0     C57927   9.806   7.250  11.786  0.5736  0.3992 -0.5770
  430MOL0     C57928   9.718   7.361  11.747 -0.3047  0.2005  0.5381
  430MOL0     C57929   9.566   7.342  11.775 -0.0627  0.3154  0.1141
  430MOL0     C57930   9.530   7.313  11.928  0.9515 -0.0343  0.2084
  430MOL0     C57931   9.380   7.275  11.952 -0.2146  0.7742 -0.8165
  430MOL0     N57932   9.341   7.135  11.932  0.8933 -0.1006  0.4917
  430MOL0     C57933   9.360   7.040  12.031 -1.2080 -1.2554  0.0456
  430MOL0     C57934   9.314   6.921  11.979 -0.2942  0.3721  0.3136
  430MOL0     C57935   9.333   6.786  12.047  0.5199 -0.6373  0.7205
  430MOL0     C57936   9.462   6.712  12.007  0.1166  0.9807 -0.1273
  430MOL0     C57937   9.581   6.808  12.048 -1.3334  0.7497  0.2439
  430MOL0     C57938   9.715   6.741  12.038 -0.0470  1.0412 -0.0177
  430MOL0     O57939   9.817   6.819  12.096 -0.7216  0.4422  0.0525
  430MOL0     C57940   9.941   6.768  12.061  0.0724 -0.7369 -0.1934
  430MOL0     C57941   9.998   6.788  11.933  0.1365  0.6538 -0.8311
  430MOL0     C57942  10.129   6.735  11.905 -0.1902 -0.7288 -0.1987
  430MOL0     C57943  10.174   6.758  11.761 -0.2574  0.2455  0.2216
  430MOL0     C57944  10.186   6.646  11.999  0.0502 -0.4343 -0.0681
  430MOL0     C57945  10.315   6.579  11.971 -0.3256 -0.3999  0.0929
  430MOL0     O57946  10.392   6.631  11.870  0.4732  0.2801  0.5583
  430MOL0     C57947  10.488   6.556  11.833 -1.3797  0.7870  0.5321
  430MOL0     C57948  10.466   6.448  11.743  0.0891 -0.0108  0.7825
  430MOL0     C57949  10.567   6.366  11.706 -0.7120 -0.2125  0.2977
  430MOL0     C57950  10.703   6.373  11.757  0.0880  0.0257  0.4731
  430MOL0     O57951  10.801   6.294  11.704  0.2080  0.2315 -0.4889
  430MOL0     C57952  10.874   6.211  11.796  0.0504 -0.2323 -0.1538
  430MOL0     C57953  10.887   6.075  11.722 -0.3967  0.2075  0.6447
  430MOL0     C57954  10.755   5.987  11.717  0.0460 -0.1199  0.0130
  430MOL0     C57955  10.715   5.907  11.849 -1.0667 -0.0374  0.4472
  430MOL0     C57956  10.808   5.793  11.885  0.6326 -0.8801  0.1372
  430MOL0     C57957  10.807   5.680  11.779  0.6878 -0.7709 -0.1285
  430MOL0     C57958  10.677   5.596  11.765  0.0519  1.4590  0.0707
  430MOL0     C57959  10.677   5.501  11.646 -0.1474 -0.8973 -0.3114
  430MOL0    Cl57960  10.523   5.424  11.628 -0.5510 -0.0122  0.1985
  430MOL0     C57961  10.729   6.481  11.845  0.2989 -0.0675 -0.6170
  430MOL0     C57962  10.618   6.567  11.888 -0.4200  0.1868 -0.0056
  430MOL0     O57963  10.348   6.477  12.034  0.2718  0.3468 -0.4915
  430MOL0     C57964  10.121   6.625  12.125  0.1442 -0.5210  1.1271
  430MOL0     C57965  10.000   6.678  12.151  0.2151  0.1924 -0.3703
  430MOL0     N57966   9.257   6.948  11.858  0.1887 -0.1235  0.2172
  430MOL0     N57967   9.268   7.074  11.834 -0.5012 -0.8433 -0.0881
  430MOL0     C57968  10.134   6.989  11.427  0.7573  0.1099  0.0327
  430MOL0     C57969  10.153   6.868  11.355  0.0964  0.3079 -0.4015
  430MOL0     C57970  10.260   6.422  11.342  1.2582  0.1375  0.7370
  430MOL0     C57971  10.186   6.305  11.379 -0.2945 -0.0411  0.3764
  430MOL0     C57972  10.234   6.176  11.372  0.1315 -0.0410  0.3467
  430MOL0     C57973  10.362   6.160  11.308  0.3274 -0.4001  0.1352
  430MOL0     O57974  10.406   6.036  11.308 -0.2836  0.2682  0.1711
  430MOL0     C57975  10.354   5.971  11.197 -0.4524 -0.5417  0.0919
  430MOL0     C57976  10.365   5.824  11.210 -0.2400  0.6059 -0.1273
  430MOL0     C57977  10.260   5.734  11.272 -0.1317  0.3727  0.0751
  430MOL0     C57978  10.117   5.792  11.275 -0.2413  0.9040 -0.0132
  430MOL0     C57979  10.031   5.693  11.354  0.2977  0.3956  0.2759
  430MOL0     C57980   9.953   5.632  11.419 -0.0861  0.4125  0.3301
  430MOL0     C57981  10.442   6.268  11.274  0.5239 -0.2808  0.3143
  430MOL0     C57982  10.389   6.397  11.280  0.5940 -0.7405 -0.8696
  430MOL0     H57983  10.450   6.793  11.506  1.2551  2.6528 -0.0517
  430MOL0     H57984  10.413   7.014  11.595  2.4814 -1.1786 -1.8716
  430MOL0     H57985  10.250   7.109  11.766 -0.8152  0.1197  4.4443
  430MOL0     H57986  10.214   7.282  11.726  1.7178  0.6709 -5.7737
  430MOL0     H57987  10.017   7.056  11.699  1.7235 -0.9871  0.0855
  430MOL0     H57988  10.044   7.126  11.858 -1.2788 -1.2793 -0.2481
  430MOL0     H57989   9.994   7.361  11.753 -2.0139  0.0172  0.6192
  430MOL0     H57990   9.945   7.271  11.618  2.4762 -0.3918  0.3864
  430MOL0     H57991   9.762   7.159  11.745 -0.9192  1.1758 -0.7754
  430MOL0     H57992   9.816   7.235  11.894 -1.0745 -0.0181 -0.4677
  430MOL0     H57993   9.749   7.450  11.802 -0.1825  0.1267  0.5889
  430MOL0     H57994   9.724   7.382  11.640 -2.2699 -0.4184  0.2636
  430MOL0     H57995   9.519   7.426  11.722  3.3315  2.0926 -0.3786
  430MOL0     H57996   9.550   7.250  11.718  0.4183 -0.4504  1.1885
  430MOL0     H57997   9.602   7.244  11.972 -0.1752 -0.8658  0.8010
  430MOL0     H57998   9.542   7.408  11.981 -0.8268 -0.5379  1.6243
  430MOL0     H57999   9.325   7.348  11.892  1.0605  3.3958  1.0022
  430MOL0     H58000   9.364   7.310  12.054  2.3883  2.5084 -0.8983
  430MOL0     H58001   9.410   7.059  12.125 -0.4627  1.8707 -0.8568
  430MOL0     H58002   9.340   6.810  12.153  0.8180 -0.2243  0.6119
  430MOL0     H58003   9.246   6.722  12.031  3.2561 -4.4316 -0.5584
  430MOL0     H58004   9.461   6.703  11.898  0.6183  2.5646 -0.2857
  430MOL0     H58005   9.473   6.617  12.061 -3.7007  0.9036  0.7842
  430MOL0     H58006   9.562   6.842  12.150  3.8129  1.5133  1.2028
  430MOL0     H58007   9.597   6.891  11.978  2.9296  1.0648  1.3338
  430MOL0     H58008   9.727   6.727  11.931  0.7220 -0.5557  0.2521
  430MOL0     H58009   9.727   6.642  12.083 -2.5064 -1.3419 -4.0201
  430MOL0     H58010   9.946   6.850  11.860  0.5584  2.0345  0.0048
  430MOL0     H58011  10.091   6.797  11.701 -0.5855  0.7724  0.9985
  430MOL0     H58012  10.255   6.832  11.762  0.0715  0.0935 -3.1576
  430MOL0     H58013  10.216   6.670  11.711  2.0354  2.2157 -1.5687
  430MOL0     H58014  10.370   6.441  11.693 -1.2703  2.7767  2.7439
  430MOL0     H58015  10.548   6.292  11.629  0.4180 -0.0831 -0.1281
  430MOL0     H58016  10.973   6.254  11.814  1.0016 -1.8652 -1.2333
  430MOL0     H58017  10.810   6.192  11.883 -1.5117 -0.8974 -1.4111
  430MOL0     H58018  10.932   6.069  11.622  1.9653 -3.0043  1.7160
  430MOL0     H58019  10.954   6.013  11.782  0.8473 -1.8337 -2.5689
  430MOL0     H58020  10.758   5.931  11.623 -0.5027  2.7332 -1.8158
  430MOL0     H58021  10.665   6.045  11.699 -0.8112 -1.6758 -0.9758
  430MOL0     H58022  10.700   5.974  11.934  0.1199 -1.1020  1.5400
  430MOL0     H58023  10.620   5.858  11.824 -1.2152 -0.8917  2.4892
  430MOL0     H58024  10.785   5.748  11.982  0.9391  1.0044  1.1274
  430MOL0     H58025  10.906   5.841  11.890 -0.7784  2.6926 -2.3748
  430MOL0     H58026  10.826   5.737  11.687 -3.2607 -0.9074 -1.2117
  430MOL0     H58027  10.889   5.612  11.805 -0.2583 -1.7588  0.3185
  430MOL0     H58028  10.591   5.663  11.757 -3.1415 -2.2403  0.8962
  430MOL0     H58029  10.666   5.532  11.853  1.3493 -0.9662 -1.4276
  430MOL0     H58030  10.758   5.428  11.648  2.0704  1.4140  1.5393
  430MOL0     H58031  10.690   5.574  11.565  4.7357  1.9968  2.5675
  430MOL0     H58032  10.832   6.501  11.873  0.5769 -0.1013 -1.5979
  430MOL0     H58033  10.627   6.644  11.964  1.4110 -0.5115  0.5178
  430MOL0     H58034  10.170   6.563  12.199 -0.8393 -2.0433  0.5711
  430MOL0     H58035   9.961   6.657  12.250 -1.4390 -2.0616 -1.3996
  430MOL0     H58036  10.029   7.011  11.406  0.7537  1.3600  1.2263
  430MOL0     H58037  10.080   6.839  11.280  1.2273 -0.5167 -1.2138
  430MOL0     H58038  10.087   6.321  11.420  0.5513 -1.8114  3.3645
  430MOL0     H58039  10.177   6.089  11.403  0.6369 -1.3500 -2.0976
  430MOL0     H58040  10.252   6.006  11.178  0.7996  2.1544 -2.4347
  430MOL0     H58041  10.405   6.005  11.106 -0.4280  1.3456  0.7808
  430MOL0     H58042  10.457   5.801  11.266  0.2285  0.0801 -1.0793
  430MOL0     H58043  10.392   5.790  11.109 -1.3579  2.3150 -1.0323
  430MOL0     H58044  10.280   5.711  11.377 -0.0443  0.5965  0.1087
  430MOL0     H58045  10.276   5.636  11.225 -1.3610 -0.4256  1.2421
  430MOL0     H58046  10.085   5.792  11.170 -2.6059  0.4377  0.6374
  430MOL0     H58047  10.109   5.893  11.317 -3.0568  0.5475  0.5452
  430MOL0     H58048   9.896   5.574  11.489 -0.6067  2.9518  2.1467
  430MOL0     H58049  10.547   6.254  11.250  0.1058 -1.9859 -0.6985
  430MOL0     H58050  10.451   6.478  11.242 -0.8379  0.5929 -0.4872
  431MOL0     O58051   6.137   2.721   1.978  0.6338 -0.3186 -0.4122
  431MOL0     C58052   6.217   2.647   2.032 -0.6745  0.3086  0.4176
  431MOL0     O58053   6.294   2.549   1.967  0.0130 -0.1545 -0.3948
  431MOL0     C58054   6.299   2.535   1.828 -0.0825  0.3859  0.2016
  431MOL0     C58055   6.322   2.407   1.770 -0.4414  0.9703  0.3883
  431MOL0     C58056   6.307   2.394   1.628 -0.3664 -1.0544 -0.5095
  431MOL0     C58057   6.300   2.502   1.541 -0.0461 -0.0718  0.6908
  431MOL0     O58058   6.280   2.472   1.411 -0.3561 -0.6230 -0.3092
  431MOL0     C58059   6.264   2.593   1.334  0.0320 -0.3981  0.3412
  431MOL0     C58060   6.277   2.570   1.180 -0.0411 -0.0587 -0.7929
  431MOL0     C58061   6.372   2.456   1.142  0.7546  0.3812  0.1036
  431MOL0     C58062   6.335   2.397   1.008 -0.0372 -0.0694  0.5552
  431MOL0     C58063   6.433   2.279   0.976  0.7794 -0.4078  0.8452
  431MOL0     C58064   6.377   2.157   0.904 -0.4056  0.3518 -0.1855
  431MOL0     C58065   6.282   2.183   0.790  0.1375 -0.6741  0.3504
  431MOL0     C58066   6.209   2.065   0.721 -0.0976 -0.3545  0.5620
  431MOL0     N58067   6.305   1.968   0.666  0.1165 -0.1801 -0.8916
  431MOL0     C58068   6.313   1.841   0.721 -0.2117  0.4621  0.5251
  431MOL0     C58069   6.426   1.784   0.666 -0.1864 -0.2851  0.1222
  431MOL0     C58070   6.489   1.653   0.717  0.6580  0.0332  0.2137
  431MOL0     C58071   6.567   1.678   0.841 -0.6731  0.5667 -1.0339
  431MOL0     C58072   6.565   1.563   0.947  0.8850 -0.4883  0.4825
  431MOL0     C58073   6.681   1.539   1.036 -0.0963  0.5615  0.4660
  431MOL0     O58074   6.777   1.640   1.018 -0.4982  0.5974  0.0378
  431MOL0     C58075   6.903   1.605   1.067 -0.7922 -0.2983  0.5411
  431MOL0     C58076   6.920   1.526   1.187 -0.7186 -0.0643 -0.4571
  431MOL0     C58077   7.046   1.488   1.243 -0.3448  1.5303 -0.2390
  431MOL0     C58078   7.052   1.388   1.354 -1.0332  0.0054  0.7719
  431MOL0     C58079   7.163   1.551   1.179  0.4242  0.6550 -0.4059
  431MOL0     C58080   7.304   1.532   1.223  0.5125 -0.1804  0.3278
  431MOL0     O58081   7.408   1.578   1.144  0.3604  0.2430  0.4175
  431MOL0     C58082   7.542   1.589   1.169 -0.5845 -0.7927  0.0730
  431MOL0     C58083   7.632   1.661   1.075  0.5052 -0.1056  0.0893
  431MOL0     C58084   7.757   1.680   1.113 -0.3135  0.5750  0.5427
  431MOL0     C58085   7.813   1.617   1.225 -1.4512  0.2539 -0.7558
  431MOL0     O58086   7.951   1.623   1.240 -0.1772  0.2301  0.3659
  431MOL0     C58087   8.012   1.504   1.188 -0.2163  0.3129 -0.0902
  431MOL0     C58088   8.137   1.472   1.274  0.6663  0.1940  0.0587
  431MOL0     C58089   8.262   1.535   1.215 -0.0446  0.2432  0.5001
  431MOL0     C58090   8.302   1.484   1.075  0.7408  0.7819 -0.1236
  431MOL0     C58091   8.441   1.518   1.020  0.0959 -0.4422 -0.0978
  431MOL0     C58092   8.548   1.466   1.109  0.3555  0.2445 -0.5663
  431MOL0     C58093   8.684   1.474   1.037  0.0034 -0.5543 -0.4900
  431MOL0     C58094   8.815   1.429   1.115  0.7455  0.2245 -0.5619
  431MOL0    Cl58095   8.825   1.520   1.265  0.3548  0.1607  0.6286
  431MOL0     C58096   7.740   1.528   1.308 -0.1644 -0.2759 -0.9366
  431MOL0     C58097   7.602   1.527   1.283  0.6742  0.2929  0.6449
  431MOL0     O58098   7.316   1.463   1.325 -0.0993 -0.0244  0.4382
  431MOL0     C58099   7.144   1.634   1.066  0.3784 -0.3353 -0.3113
  431MOL0     C58100   7.016   1.658   1.013  0.7941  0.6979 -0.1762
  431MOL0     N58101   6.485   1.875   0.581  0.6132  0.4352 -0.0709
  431MOL0     N58102   6.411   1.985   0.580 -0.6908 -0.5247  0.3627
  431MOL0     C58103   6.287   2.634   1.602  0.4076  0.5152  0.3489
  431MOL0     C58104   6.283   2.644   1.741 -0.6262  1.1229 -0.1462
  431MOL0     C58105   6.252   2.668   2.178 -0.4022 -0.0666  0.7861
  431MOL0     C58106   6.259   2.803   2.236  0.1058  0.4813  0.2195
  431MOL0     C58107   6.281   2.817   2.373 -0.1090  0.4399  0.0588
  431MOL0     C58108   6.306   2.701   2.453  0.3007 -0.0632 -0.1178
  431MOL0     O58109   6.328   2.731   2.582  0.2991  0.1193 -0.0051
  431MOL0     C58110   6.358   2.633   2.677 -0.1214  0.3744 -1.0660
  431MOL0     C58111   6.346   2.687   2.822  1.2397  0.0538  0.4040
  431MOL0     C58112   6.377   2.577   2.923  0.4362 -0.3734 -0.0782
  431MOL0     C58113   6.349   2.610   3.069  0.2188  0.1303  0.1622
  431MOL0     C58114   6.415   2.498   3.142  0.3184 -0.6917  1.3646
  431MOL0     C58115   6.473   2.406   3.203  0.9007  0.6262  0.4700
  431MOL0     C58116   6.305   2.570   2.394 -0.8842 -0.2023  0.2225
  431MOL0     C58117   6.274   2.556   2.257 -0.2201 -0.3415 -0.2850
  431MOL0     H58118   6.342   2.328   1.841 -3.1381  2.2729  2.7769
  431MOL0     H58119   6.300   2.301   1.571  0.5172 -2.4234  1.5327
  431MOL0     H58120   6.172   2.652   1.347 -0.4401  0.3941 -4.4165
  431MOL0     H58121   6.347   2.661   1.354  0.4005 -0.0379 -2.0665
  431MOL0     H58122   6.173   2.558   1.150 -1.5681  3.2627  2.3282
  431MOL0     H58123   6.309   2.667   1.141 -0.2584  0.0537 -0.6941
  431MOL0     H58124   6.473   2.496   1.142  2.0669 -2.6080  1.8151
  431MOL0     H58125   6.385   2.386   1.225 -0.0444 -0.5070 -0.5072
  431MOL0     H58126   6.229   2.372   1.013 -0.3449  1.3236  2.1306
  431MOL0     H58127   6.344   2.462   0.921  1.4396 -1.8885 -0.7252
  431MOL0     H58128   6.521   2.327   0.933 -0.8352  3.9926  1.9276
  431MOL0     H58129   6.466   2.245   1.074 -0.7235  0.8148  1.8109
  431MOL0     H58130   6.466   2.098   0.879  0.2852 -0.9920  4.4442
  431MOL0     H58131   6.317   2.100   0.976 -0.3642  0.0545 -0.3878
  431MOL0     H58132   6.196   2.238   0.830  0.2362 -0.4725  0.2870
  431MOL0     H58133   6.339   2.243   0.718  0.4076 -0.5406  0.6785
  431MOL0     H58134   6.156   2.112   0.638  0.0175 -0.2389  0.5526
  431MOL0     H58135   6.150   2.017   0.799 -0.3098  0.8264  1.1441
  431MOL0     H58136   6.249   1.799   0.798  0.2969 -1.2943  0.0474
  431MOL0     H58137   6.407   1.590   0.752 -0.3484  2.0880  1.7693
  431MOL0     H58138   6.553   1.594   0.651 -1.6842 -0.0007 -2.1892
  431MOL0     H58139   6.531   1.767   0.893 -0.0718  1.9538 -2.8810
  431MOL0     H58140   6.669   1.687   0.802 -0.8251 -1.7477 -2.1066
  431MOL0     H58141   6.555   1.469   0.891 -0.0825 -1.8921  2.8734
  431MOL0     H58142   6.469   1.566   0.999  0.0696 -0.1659 -0.9701
  431MOL0     H58143   6.715   1.435   1.027 -3.6190 -0.6110 -5.7238
  431MOL0     H58144   6.644   1.552   1.138  0.7463  1.9522  0.6172
  431MOL0     H58145   6.828   1.493   1.234 -2.1645  3.2131 -0.7107
  431MOL0     H58146   7.081   1.432   1.449 -1.9246  1.8565  0.2193
  431MOL0     H58147   6.957   1.335   1.364 -0.2249 -3.2870 -4.4685
  431MOL0     H58148   7.120   1.311   1.316  0.8583  0.6950  2.5880
  431MOL0     H58149   7.586   1.679   0.978 -1.6206 -2.3978  0.5484
  431MOL0     H58150   7.818   1.723   1.034  0.4927 -1.7794 -0.1962
  431MOL0     H58151   7.945   1.418   1.191 -1.4655  1.2882  1.0360
  431MOL0     H58152   8.035   1.518   1.082  1.0567  0.0417  0.1298
  431MOL0     H58153   8.123   1.507   1.376  0.1391  0.1785 -0.0046
  431MOL0     H58154   8.148   1.363   1.279  0.2539  0.0166 -1.9804
  431MOL0     H58155   8.338   1.512   1.291 -0.9797  1.2057  1.7706
  431MOL0     H58156   8.257   1.644   1.213 -0.1040  0.4324 -4.8916
  431MOL0     H58157   8.301   1.375   1.075 -1.5688  0.7533 -1.0437
  431MOL0     H58158   8.221   1.498   1.002  0.6014 -0.1091 -0.1428
  431MOL0     H58159   8.451   1.619   0.979  0.4654  0.2145  1.5566
  431MOL0     H58160   8.439   1.452   0.932 -0.2668  0.4567 -0.7817
  431MOL0     H58161   8.540   1.523   1.201 -1.8011 -1.7830  0.6022
  431MOL0     H58162   8.542   1.358   1.125  0.9113  0.4253  0.9514
  431MOL0     H58163   8.698   1.579   1.008 -0.5235  0.1735  1.7232
  431MOL0     H58164   8.676   1.408   0.950 -1.2230 -0.5444 -0.4095
  431MOL0     H58165   8.904   1.449   1.055  0.6076 -0.3204 -0.9577
  431MOL0     H58166   8.811   1.323   1.143  2.4109  0.9500  2.9692
  431MOL0     H58167   7.770   1.476   1.399 -0.8225 -0.6126 -0.9032
  431MOL0     H58168   7.540   1.468   1.350  3.2596 -0.5520  2.4199
  431MOL0     H58169   7.225   1.667   1.002  1.6240 -4.4117 -1.1251
  431MOL0     H58170   6.992   1.720   0.927 -0.6815 -0.6837 -0.8275
  431MOL0     H58171   6.263   2.721   1.542 -4.0776 -1.0825 -0.5370
  431MOL0     H58172   6.264   2.742   1.784 -3.4044  0.1121  1.1205
  431MOL0     H58173   6.261   2.893   2.175  1.9769  1.0158  1.0264
  431MOL0     H58174   6.278   2.918   2.413 -2.4588  0.9108 -1.0944
  431MOL0     H58175   6.283   2.553   2.669 -1.6021  1.4549  1.2326
  431MOL0     H58176   6.459   2.594   2.661 -0.2048 -0.1631 -0.3237
  431MOL0     H58177   6.245   2.723   2.845  0.6376 -1.3979  0.1874
  431MOL0     H58178   6.406   2.778   2.828 -1.6764  2.1130  0.6365
  431MOL0     H58179   6.483   2.558   2.903 -0.6756 -2.8306 -5.0538
  431MOL0     H58180   6.322   2.484   2.908  1.2028 -0.4657 -2.6941
  431MOL0     H58181   6.242   2.610   3.091  0.0884 -0.5365 -0.4309
  431MOL0     H58182   6.393   2.708   3.086  1.8189 -0.6395  0.6408
  431MOL0     H58183   6.523   2.334   3.265  0.5063  1.7506  2.1608
  431MOL0     H58184   6.319   2.482   2.454 -0.3189 -0.2494  0.0242
  431MOL0     H58185   6.264   2.458   2.212 -3.2524  0.1076 -0.7691
  432MOL0     O58186  11.334   9.425   0.403  0.4868 -0.5059 -0.7352
  432MOL0     C58187  11.413   9.396   0.310  0.2916 -0.1717 -0.3698
  432MOL0     O58188  11.483   9.279   0.303 -0.1260 -0.4015 -0.8837
  432MOL0     C58189  11.495   9.191   0.411  0.1737 -0.4210 -0.3980
  432MOL0     C58190  11.393   9.118   0.459 -0.6940 -0.3630 -0.5863
  432MOL0     C58191  11.404   9.040   0.572  0.0433 -0.1873 -0.0942
  432MOL0     C58192  11.524   9.036   0.645 -0.2463  0.5303  0.4894
  432MOL0     O58193  11.531   8.949   0.752  0.7718  0.0929 -0.3604
  432MOL0     C58194  11.649   8.930   0.814  0.7709 -0.4283  0.6810
  432MOL0     C58195  11.634   8.865   0.950  0.3876 -1.1313 -0.1659
  432MOL0     C58196  11.573   8.957   1.047 -0.2182  0.5612  0.0646
  432MOL0     C58197  11.548   8.878   1.181 -0.8290 -0.2031 -0.5423
  432MOL0     C58198  11.553   8.969   1.307 -0.1717  0.7180 -1.1425
  432MOL0     C58199  11.440   9.070   1.324 -1.0817  0.4438 -0.0853
  432MOL0     C58200  11.434   9.131   1.472 -0.0597 -0.1436  0.0400
  432MOL0     C58201  11.577   9.180   1.516 -0.3582  0.0401  0.3011
  432MOL0     N58202  11.559   9.283   1.611  0.4308 -0.4411 -0.7322
  432MOL0     C58203  11.581   9.416   1.591  0.4634  0.1633  0.1516
  432MOL0     C58204  11.545   9.476   1.711  0.2369  0.2382  0.2120
  432MOL0     C58205  11.584   9.615   1.747  0.1504  0.3587 -0.2483
  432MOL0     C58206  11.480   9.718   1.696  0.2669 -0.3804 -0.5253
  432MOL0     C58207  11.343   9.718   1.761  0.3285  0.9095  0.3583
  432MOL0     C58208  11.309   9.813   1.880  0.6123 -0.0902 -0.5018
  432MOL0     O58209  11.310   9.949   1.843 -0.1724 -0.2633 -0.6345
  432MOL0     C58210  11.215  10.031   1.891 -0.0379  0.5322  0.2663
  432MOL0     C58211  11.200  10.051   2.028 -0.5750 -0.4438  0.5486
  432MOL0     C58212  11.104  10.134   2.085  0.4345  0.5516 -0.7726
  432MOL0     C58213  11.118  10.153   2.231  0.9444 -0.8623  0.4555
  432MOL0     C58214  11.001  10.181   1.999 -0.3217  0.3839  0.9804
  432MOL0     C58215  10.875  10.250   2.036  0.8630 -0.1826  0.1813
  432MOL0     O58216  10.797  10.299   1.930  0.1107 -0.5271  0.7678
  432MOL0     C58217  10.723  10.402   1.957 -0.2684  0.1057 -0.2310
  432MOL0     C58218  10.780  10.524   1.928  0.2308 -1.0665  0.6157
  432MOL0     C58219  10.709  10.639   1.943 -0.1101  0.3138  0.4566
  432MOL0     C58220  10.582  10.637   2.000  0.1400 -0.4758  0.5621
  432MOL0     O58221  10.501  10.745   2.014 -0.7829 -0.3712  0.3137
  432MOL0     C58222  10.563  10.871   2.004 -0.4314  0.5578 -0.7584
  432MOL0     C58223  10.446  10.976   2.028  0.7723 -0.1869  0.3634
  432MOL0     C58224  10.388  10.969   2.175 -0.3505 -0.2671  0.3044
  432MOL0     C58225  10.296  11.079   2.211  0.0309  0.4226 -0.7628
  432MOL0     C58226  10.212  11.053   2.343  0.5296 -0.1556 -0.6182
  432MOL0     C58227  10.152  10.907   2.362 -0.4134  0.1126 -0.2456
  432MOL0     C58228  10.025  10.887   2.277  0.5885  0.7446 -0.0603
  432MOL0     C58229  10.001  10.740   2.260 -0.3407  0.1111 -0.2408
  432MOL0    Cl58230   9.999  10.661   2.417 -0.0653  0.0608  0.0409
  432MOL0     C58231  10.528  10.522   2.034 -0.4402 -1.2660  0.0706
  432MOL0     C58232  10.590  10.403   2.004 -0.1989 -0.2177 -0.8632
  432MOL0     O58233  10.830  10.246   2.151  0.1469 -0.3100  0.7767
  432MOL0     C58234  11.021  10.163   1.855  1.1731  0.1590 -0.2981
  432MOL0     C58235  11.120  10.088   1.808  0.3711 -0.1764 -0.2174
  432MOL0     N58236  11.515   9.370   1.800  0.9195 -0.2925 -0.5555
  432MOL0     N58237  11.509   9.256   1.733  0.3097  0.0765 -0.6162
  432MOL0     C58238  11.633   9.124   0.613  0.2206 -0.0685  0.1815
  432MOL0     C58239  11.608   9.205   0.496  0.2349 -0.0064  0.1514
  432MOL0     C58240  11.434   9.494   0.200 -0.1152 -0.4449  1.1144
  432MOL0     C58241  11.503   9.473   0.073  0.3453 -0.1277 -0.3951
  432MOL0     C58242  11.510   9.572  -0.025 -0.6129  0.1921  0.6393
  432MOL0     C58243  11.457   9.695  -0.002  0.4151 -0.0423 -0.2448
  432MOL0     O58244  11.469   9.811  -0.079  0.2898  0.0065 -0.0989
  432MOL0     C58245  11.562   9.804  -0.193  0.0789 -0.1338  0.3628
  432MOL0     C58246  11.488   9.735  -0.312  0.0197 -0.1436  0.4735
  432MOL0     C58247  11.356   9.806  -0.354 -0.2269 -0.7603  0.3475
  432MOL0     C58248  11.374   9.945  -0.398  0.1652 -0.7863  0.5913
  432MOL0     C58249  11.439   9.957  -0.528  0.6928 -0.3843  0.4075
  432MOL0     C58250  11.495  10.001  -0.630 -0.1172  0.5570  0.2560
  432MOL0     C58251  11.366   9.717   0.104 -0.3622 -0.0362 -0.2369
  432MOL0     C58252  11.357   9.617   0.202 -0.5194  0.2141 -0.3197
  432MOL0     H58253  11.302   9.108   0.400 -1.8602 -1.9396  1.4009
  432MOL0     H58254  11.313   8.986   0.598 -0.5202  0.9385  0.3425
  432MOL0     H58255  11.713   8.865   0.754 -2.2989 -1.1729 -2.0480
  432MOL0     H58256  11.697   9.026   0.836 -2.9491  2.2649 -1.7967
  432MOL0     H58257  11.573   8.775   0.937  0.3137 -1.0018 -0.7478
  432MOL0     H58258  11.737   8.843   0.979  1.3008  1.5702 -1.0697
  432MOL0     H58259  11.632   9.047   1.067  0.8039 -0.0063 -0.3397
  432MOL0     H58260  11.473   8.990   1.016 -0.6327 -3.6870 -4.2188
  432MOL0     H58261  11.444   8.843   1.175 -1.0968  0.5906 -0.8041
  432MOL0     H58262  11.611   8.790   1.189 -5.0871 -3.8333 -2.5247
  432MOL0     H58263  11.578   8.900   1.388 -0.7052  0.3590 -1.2780
  432MOL0     H58264  11.641   9.033   1.292  1.0692 -0.9099 -1.0445
  432MOL0     H58265  11.466   9.155   1.260  3.4252  0.3765  1.3151
  432MOL0     H58266  11.344   9.023   1.302 -0.9249  0.3596 -0.6134
  432MOL0     H58267  11.364   9.214   1.456 -2.5415 -2.4223 -1.8723
  432MOL0     H58268  11.393   9.066   1.549 -1.1932  0.1271 -0.3183
  432MOL0     H58269  11.640   9.224   1.437 -0.1408  1.9542  1.4771
  432MOL0     H58270  11.623   9.089   1.553  0.2100 -0.3060 -1.1763
  432MOL0     H58271  11.624   9.467   1.505 -1.2842 -0.5355 -1.2015
  432MOL0     H58272  11.597   9.637   1.853  2.6858 -0.8080 -0.2426
  432MOL0     H58273  11.685   9.630   1.706 -0.7315 -1.0643 -3.2271
  432MOL0     H58274  11.474   9.686   1.592  3.1424  0.6284 -1.1106
  432MOL0     H58275  11.510   9.823   1.705 -4.0918  1.1693 -1.5209
  432MOL0     H58276  11.322   9.613   1.778  2.6556  0.1698 -0.8423
  432MOL0     H58277  11.269   9.745   1.686  2.2039  3.0930 -0.8581
  432MOL0     H58278  11.361   9.798   1.975 -2.6739 -3.1155  1.0601
  432MOL0     H58279  11.204   9.797   1.906  0.8744 -1.7658 -0.3911
  432MOL0     H58280  11.275  10.007   2.093  0.3125  0.4976  0.1938
  432MOL0     H58281  11.204  10.218   2.252 -0.7161  1.0369  1.7061
  432MOL0     H58282  11.028  10.199   2.273  0.6976 -0.4224 -0.5443
  432MOL0     H58283  11.130  10.058   2.285  0.3262 -0.0796  2.0365
  432MOL0     H58284  10.882  10.524   1.889 -0.4937 -3.4443 -1.5297
  432MOL0     H58285  10.768  10.721   1.904 -0.2530  0.4199  0.4598
  432MOL0     H58286  10.638  10.875   2.084 -0.9348 -3.0803  0.0354
  432MOL0     H58287  10.620  10.880   1.911 -0.6150 -2.8215 -1.3091
  432MOL0     H58288  10.481  11.079   2.018 -1.3443  0.3056 -3.3522
  432MOL0     H58289  10.371  10.955   1.952 -1.9185 -2.7541  3.4355
  432MOL0     H58290  10.464  10.962   2.254  0.5759  0.0871 -0.5371
  432MOL0     H58291  10.329  10.877   2.171  0.2544 -0.6256 -1.1515
  432MOL0     H58292  10.362  11.166   2.223  3.7831 -2.1442 -1.0788
  432MOL0     H58293  10.224  11.093   2.129 -2.3595  2.2207  1.4539
  432MOL0     H58294  10.132  11.127   2.344  0.0881 -0.6298 -0.5679
  432MOL0     H58295  10.274  11.078   2.430 -1.9902 -2.2321  1.9775
  432MOL0     H58296  10.226  10.829   2.345 -1.0280 -0.2901 -1.1247
  432MOL0     H58297  10.126  10.905   2.468 -2.0944 -1.2346 -0.6454
  432MOL0     H58298  10.037  10.935   2.180  0.0675  0.6544 -0.1704
  432MOL0     H58299   9.949  10.948   2.325 -0.6197 -0.2566 -0.6452
  432MOL0     H58300  10.083  10.688   2.209  0.1755  0.0483  0.6380
  432MOL0     H58301   9.907  10.721   2.206  0.3680  0.0253 -1.4847
  432MOL0     H58302  10.429  10.529   2.078 -0.3191  0.2286  0.1814
  432MOL0     H58303  10.542  10.314   2.045  0.4746  0.6237  2.0049
  432MOL0     H58304  10.945  10.182   1.781 -1.1702 -3.8565  0.7880
  432MOL0     H58305  11.119  10.076   1.700 -1.1353  1.9720 -0.5118
  432MOL0     H58306  11.722   9.152   0.669  0.3612  4.0941 -1.7692
  432MOL0     H58307  11.675   9.290   0.494  0.0987  0.0875 -1.2317
  432MOL0     H58308  11.557   9.383   0.047 -4.0568 -3.0367 -0.4881
  432MOL0     H58309  11.562   9.545  -0.117 -0.6750  5.8490 -1.3989
  432MOL0     H58310  11.589   9.908  -0.216  2.5336 -0.9873 -1.0367
  432MOL0     H58311  11.654   9.750  -0.168  0.4592  0.3248 -0.0286
  432MOL0     H58312  11.452   9.637  -0.279 -3.4409  0.9447  0.3772
  432MOL0     H58313  11.554   9.724  -0.398  1.0939 -2.1956  1.4838
  432MOL0     H58314  11.287   9.812  -0.269  0.2280  1.2062  0.6379
  432MOL0     H58315  11.303   9.741  -0.424  2.7989 -2.5709 -0.4521
  432MOL0     H58316  11.433  10.017  -0.341 -0.0911  1.2680 -1.5642
  432MOL0     H58317  11.272   9.980  -0.416 -0.2836 -0.8499  2.7670
  432MOL0     H58318  11.567  10.032  -0.703 -0.8784  0.6318 -0.4796
  432MOL0     H58319  11.336   9.820   0.118 -0.5607  0.0904 -1.4793
  432MOL0     H58320  11.279   9.631   0.275 -1.6411 -0.4995 -1.3446
  433MOL0     O58321  10.083  10.132   1.370 -0.1055 -0.5135  0.6974
  433MOL0     C58322  10.201  10.178   1.344  0.4736  0.2217  0.6163
  433MOL0     O58323  10.310  10.109   1.311 -0.2974 -0.3692  0.1181
  433MOL0     C58324  10.300   9.975   1.316  0.3778  0.0161 -0.0501
  433MOL0     C58325  10.383   9.898   1.405 -0.7245 -0.2897  0.1360
  433MOL0     C58326  10.384   9.759   1.414 -0.7385  0.2630  0.6616
  433MOL0     C58327  10.315   9.682   1.311  0.0115 -0.6143  0.0954
  433MOL0     O58328  10.319   9.550   1.299 -1.4500 -0.7160  1.0359
  433MOL0     C58329  10.441   9.487   1.258  0.0741  1.2752 -0.0535
  433MOL0     C58330  10.420   9.365   1.158  0.4973 -0.1971 -1.0128
  433MOL0     C58331  10.550   9.339   1.081 -0.3300 -0.6085 -1.0875
  433MOL0     C58332  10.534   9.209   1.002 -0.3666 -0.5954 -0.1442
  433MOL0     C58333  10.679   9.179   0.945 -0.2404  1.2302 -0.0055
  433MOL0     C58334  10.679   9.060   0.852 -0.2731 -0.2304 -1.1176
  433MOL0     C58335  10.647   9.111   0.710 -0.0203  0.1204  0.1635
  433MOL0     C58336  10.616   8.988   0.627 -1.2251 -1.1441 -0.1217
  433MOL0     N58337  10.496   8.910   0.647  0.1657  0.1900  0.7836
  433MOL0     C58338  10.369   8.963   0.650  0.0661  0.3285  0.8888
  433MOL0     C58339  10.289   8.853   0.644 -0.1734 -0.5089 -0.0695
  433MOL0     C58340  10.139   8.856   0.645 -0.0341  0.0224 -0.2698
  433MOL0     C58341  10.088   8.929   0.768 -0.2676 -0.1611  0.8609
  433MOL0     C58342   9.949   8.902   0.794  0.1161  0.1252  0.8252
  433MOL0     C58343   9.908   8.952   0.931  0.4611  0.5768 -0.2096
  433MOL0     O58344   9.907   9.099   0.926  0.0452  0.0526 -0.1126
  433MOL0     C58345   9.932   9.164   1.042  0.2195 -0.9366  0.0877
  433MOL0     C58346   9.866   9.143   1.159 -0.1694  1.4371 -0.5554
  433MOL0     C58347   9.890   9.209   1.277 -0.4911 -0.0674 -0.0002
  433MOL0     C58348   9.809   9.175   1.401 -0.5350 -0.5900 -0.2563
  433MOL0     C58349   9.970   9.322   1.268 -0.3966 -0.3882 -0.2604
  433MOL0     C58350  10.034   9.381   1.387  0.1545  0.7711  0.3724
  433MOL0     O58351  10.146   9.322   1.429 -0.1953  0.6857  0.9837
  433MOL0     C58352  10.214   9.367   1.534  0.6359 -1.1610 -0.0554
  433MOL0     C58353  10.283   9.274   1.612 -0.4682 -0.4265  0.1876
  433MOL0     C58354  10.358   9.314   1.725 -0.1677 -0.9663  0.6918
  433MOL0     C58355  10.343   9.443   1.774  0.3985 -0.3586  0.1957
  433MOL0     O58356  10.396   9.474   1.896 -0.6475  0.1432 -0.1234
  433MOL0     C58357  10.357   9.600   1.961  0.3581  0.0453 -0.2461
  433MOL0     C58358  10.392   9.585   2.109 -0.0354  0.2879  0.5312
  433MOL0     C58359  10.294   9.492   2.182  0.5702  0.2897  0.0788
  433MOL0     C58360  10.316   9.508   2.333  0.2825 -0.0314  0.3836
  433MOL0     C58361  10.198   9.458   2.427 -0.0057  0.3534  0.6241
  433MOL0     C58362  10.215   9.517   2.564  0.0975  0.3269  0.0555
  433MOL0     C58363  10.351   9.496   2.633 -0.4355 -0.8962  1.5363
  433MOL0     C58364  10.354   9.576   2.758  0.2387 -0.8050  0.1700
  433MOL0    Cl58365  10.307   9.757   2.741  0.2363 -0.5457  0.2293
  433MOL0     C58366  10.284   9.547   1.692 -0.5492 -0.5029 -0.5857
  433MOL0     C58367  10.223   9.507   1.572 -1.2613  0.2371 -0.1704
  433MOL0     O58368   9.957   9.434   1.468 -0.1194  0.1174 -0.4460
  433MOL0     C58369  10.025   9.361   1.150  0.3021 -0.1259 -0.5297
  433MOL0     C58370  10.000   9.284   1.038 -0.0641 -0.7315 -0.2221
  433MOL0     N58371  10.371   8.739   0.650  0.1057 -0.2582 -0.3450
  433MOL0     N58372  10.494   8.778   0.654 -0.3888  0.1714 -0.3363
  433MOL0     C58373  10.217   9.756   1.233  1.0376 -0.6179 -0.0137
  433MOL0     C58374  10.215   9.896   1.229  0.4533 -0.2227 -0.6262
  433MOL0     C58375  10.223  10.324   1.338 -0.0863  0.4432 -0.0151
  433MOL0     C58376  10.330  10.381   1.264 -1.2718  0.0404  0.3339
  433MOL0     C58377  10.355  10.516   1.280 -0.1396 -0.6749  0.4569
  433MOL0     C58378  10.270  10.604   1.357 -0.4842 -0.0897 -0.6472
  433MOL0     O58379  10.296  10.745   1.373 -0.2289  0.1390  0.0018
  433MOL0     C58380  10.381  10.801   1.271 -0.3847 -0.5159 -0.8559
  433MOL0     C58381  10.327  10.786   1.133  1.1975 -0.3742 -0.1059
  433MOL0     C58382  10.218  10.886   1.095 -0.0043  0.2938  0.7391
  433MOL0     C58383  10.286  11.027   1.056  0.3951 -0.4093  0.3244
  433MOL0     C58384  10.187  11.140   1.061  0.4318 -0.1173  0.7140
  433MOL0     C58385  10.109  11.235   1.053  0.1882 -0.9522 -0.9285
  433MOL0     C58386  10.155  10.546   1.422 -1.1736  0.1487 -0.4676
  433MOL0     C58387  10.132  10.402   1.414  0.2406 -0.7961  0.0030
  433MOL0     H58388  10.432   9.957   1.482 -1.1119 -0.2642  0.3647
  433MOL0     H58389  10.446   9.706   1.485 -1.9120 -1.5860  0.3669
  433MOL0     H58390  10.505   9.553   1.198 -0.0144 -2.0599 -4.2897
  433MOL0     H58391  10.494   9.465   1.351 -3.6316  3.1151  2.7290
  433MOL0     H58392  10.409   9.274   1.218  1.7574  0.3116  0.0186
  433MOL0     H58393  10.337   9.395   1.093 -1.9643 -1.8165  1.1802
  433MOL0     H58394  10.581   9.420   1.015 -2.2372  0.2789 -0.9606
  433MOL0     H58395  10.627   9.311   1.154 -1.7897 -1.6879  0.1000
  433MOL0     H58396  10.491   9.137   1.072 -4.0016  1.6510  0.1703
  433MOL0     H58397  10.462   9.222   0.921  2.5847  2.5446 -2.5914
  433MOL0     H58398  10.720   9.264   0.890 -1.3119  1.1313 -0.9934
  433MOL0     H58399  10.757   9.161   1.020 -1.1356  0.4054  0.7560
  433MOL0     H58400  10.769   8.999   0.858  0.0396 -0.8306 -6.4532
  433MOL0     H58401  10.600   8.990   0.881  1.3604 -0.7005  2.7197
  433MOL0     H58402  10.571   9.190   0.710 -1.7989 -1.4770  1.4564
  433MOL0     H58403  10.732   9.157   0.659  0.1307  0.1299  0.4265
  433MOL0     H58404  10.705   8.928   0.645 -0.7050  0.4554  3.7411
  433MOL0     H58405  10.612   9.031   0.526 -0.2713  0.3562  0.4456
  433MOL0     H58406  10.331   9.065   0.658  0.9239  1.0921 -2.9311
  433MOL0     H58407  10.102   8.906   0.554  2.4669  1.4018 -0.6226
  433MOL0     H58408  10.115   8.750   0.640 -1.5061  0.3498 -0.8272
  433MOL0     H58409  10.105   9.034   0.746 -2.1902 -0.1808 -0.9841
  433MOL0     H58410  10.149   8.889   0.850  3.3175  0.1497 -1.4315
  433MOL0     H58411   9.932   8.794   0.789  1.6318 -0.1954  1.9181
  433MOL0     H58412   9.891   8.954   0.717  2.1408  1.9191  0.4195
  433MOL0     H58413   9.968   8.916   1.016 -0.4011  2.1952  1.1485
  433MOL0     H58414   9.804   8.922   0.950  0.3748 -0.3231 -1.9532
  433MOL0     H58415   9.786   9.069   1.161 -2.7714  4.1019  0.4598
  433MOL0     H58416   9.854   9.088   1.448 -2.0245 -1.3903 -0.2430
  433MOL0     H58417   9.795   9.260   1.469  1.5877  0.4142 -0.9917
  433MOL0     H58418   9.710   9.141   1.368  0.3595 -1.7928 -1.8088
  433MOL0     H58419  10.289   9.167   1.597  3.2867 -0.2443 -0.3724
  433MOL0     H58420  10.405   9.238   1.787  3.1109 -0.0718 -0.4515
  433MOL0     H58421  10.401   9.689   1.914 -1.3641  1.1614  0.1761
  433MOL0     H58422  10.249   9.603   1.943  0.3673 -3.5283 -1.7386
  433MOL0     H58423  10.494   9.548   2.121 -0.4360 -0.4550  1.9192
  433MOL0     H58424  10.395   9.690   2.140  1.4617  0.2038  0.7602
  433MOL0     H58425  10.303   9.386   2.157 -0.6230 -0.4473  2.4054
  433MOL0     H58426  10.194   9.535   2.170 -0.2563 -0.8452  2.1705
  433MOL0     H58427  10.400   9.443   2.357 -0.2071 -0.4016  1.1220
  433MOL0     H58428  10.324   9.616   2.353  0.7201 -0.3387  2.0810
  433MOL0     H58429  10.202   9.349   2.438  1.9056  0.4992  1.6541
  433MOL0     H58430  10.098   9.476   2.386  0.3781  4.1232  1.0166
  433MOL0     H58431  10.198   9.624   2.550 -0.2314  0.3126  0.3350
  433MOL0     H58432  10.143   9.472   2.632 -0.9751  1.3553 -0.3504
  433MOL0     H58433  10.427   9.523   2.559 -0.1292  1.0898  2.4933
  433MOL0     H58434  10.361   9.390   2.660 -3.5659 -1.5415  0.5802
  433MOL0     H58435  10.452   9.573   2.808  0.1263 -1.5958  0.3515
  433MOL0     H58436  10.279   9.533   2.826 -0.0918 -2.7494 -1.3378
  433MOL0     H58437  10.278   9.653   1.714 -1.9406  0.2907 -4.1366
  433MOL0     H58438  10.171   9.579   1.509 -0.6717  0.8554  0.0411
  433MOL0     H58439  10.084   9.452   1.162 -1.3860  0.7116  2.6963
  433MOL0     H58440  10.048   9.311   0.944  0.5958 -2.7586 -0.5327
  433MOL0     H58441  10.141   9.713   1.169  0.4840 -1.3467  1.1123
  433MOL0     H58442  10.147   9.948   1.161  2.3838  2.7870 -0.4535
  433MOL0     H58443  10.413  10.327   1.219 -1.2569 -1.3783  1.9628
  433MOL0     H58444  10.458  10.545   1.260  0.3579 -2.3164  0.5067
  433MOL0     H58445  10.389  10.906   1.298 -2.7489  0.2123 -2.6203
  433MOL0     H58446  10.482  10.761   1.285  0.2911  1.2535 -0.4719
  433MOL0     H58447  10.293  10.684   1.111  1.3714 -0.8751  1.7843
  433MOL0     H58448  10.415  10.798   1.070  2.0601  3.5036  1.5805
  433MOL0     H58449  10.145  10.902   1.174 -0.8364 -1.1722  0.3019
  433MOL0     H58450  10.168  10.851   1.004  2.4455  2.4797 -1.6165
  433MOL0     H58451  10.327  11.026   0.954 -1.3964 -1.9869 -0.4542
  433MOL0     H58452  10.363  11.053   1.129  0.7402 -0.5101  0.0000
  433MOL0     H58453  10.056  11.323   1.082 -0.8500 -2.1555  1.1293
  433MOL0     H58454  10.094  10.614   1.481 -2.6031 -1.8073  0.4242
  433MOL0     H58455  10.052  10.360   1.474  0.8931 -0.7767  0.9177
  434MOL0     O58456   6.131   0.052   9.172  0.4914  0.4772 -0.8254
  434MOL0     C58457   6.076  -0.061   9.149 -0.1802 -0.4330  0.3599
  434MOL0     O58458   6.149  -0.173   9.113  0.9771 -0.4964  0.5229
  434MOL0     C58459   6.277  -0.190   9.167  0.1257 -0.7532 -0.9258
  434MOL0     C58460   6.391  -0.180   9.091  0.5097  0.2928 -0.7714
  434MOL0     C58461   6.516  -0.215   9.134  0.3643  0.0195  0.5751
  434MOL0     C58462   6.529  -0.255   9.264  0.6991  0.2899 -0.1550
  434MOL0     O58463   6.646  -0.309   9.315 -0.2454 -0.5992 -0.2482
  434MOL0     C58464   6.765  -0.245   9.283  0.1296  0.0778 -0.5733
  434MOL0     C58465   6.851  -0.343   9.196  0.2812  0.3315  0.1888
  434MOL0     C58466   6.929  -0.434   9.297 -0.0979  0.2176 -0.9707
  434MOL0     C58467   7.032  -0.522   9.228  0.0165 -0.4010 -0.3050
  434MOL0     C58468   7.104  -0.613   9.330  0.5732 -0.6849 -0.7781
  434MOL0     C58469   7.234  -0.667   9.275 -1.0583  0.3121  0.0839
  434MOL0     C58470   7.207  -0.772   9.162  0.1362  0.1116 -0.8994
  434MOL0     C58471   7.331  -0.831   9.103 -0.5401  0.0427  0.5791
  434MOL0     N58472   7.419  -0.740   9.035  0.4606  0.0569 -0.6025
  434MOL0     C58473   7.384  -0.633   8.944 -0.7476  0.3225 -0.4944
  434MOL0     C58474   7.493  -0.556   8.932 -0.9448  0.7097  0.1043
  434MOL0     C58475   7.483  -0.422   8.864  1.5333 -0.9892  0.4880
  434MOL0     C58476   7.396  -0.427   8.732  0.1820  0.5446 -0.1944
  434MOL0     C58477   7.458  -0.508   8.612  0.0518 -0.3426 -0.0623
  434MOL0     C58478   7.346  -0.569   8.525 -0.0915  0.3822 -0.1663
  434MOL0     O58479   7.296  -0.691   8.581 -0.1448 -0.0203  0.9049
  434MOL0     C58480   7.176  -0.728   8.531 -0.9756  0.5563  0.1004
  434MOL0     C58481   7.140  -0.749   8.398  0.4986 -0.0783  0.8616
  434MOL0     C58482   7.005  -0.797   8.361 -1.0695  0.7048 -0.1140
  434MOL0     C58483   6.983  -0.838   8.220 -0.1200 -0.2380  0.5159
  434MOL0     C58484   6.907  -0.821   8.462 -0.1407 -0.6007  0.1798
  434MOL0     C58485   6.769  -0.877   8.450 -0.3157  0.1513  0.6653
  434MOL0     O58486   6.700  -0.898   8.561 -0.5433 -0.3748 -0.5578
  434MOL0     C58487   6.564  -0.920   8.554 -1.1260 -0.7635 -0.0354
  434MOL0     C58488   6.500  -1.023   8.497 -0.2668  1.0319 -0.1356
  434MOL0     C58489   6.363  -1.019   8.473  0.0015  0.1726 -1.0483
  434MOL0     C58490   6.294  -0.898   8.509 -0.2566 -0.4645 -0.1084
  434MOL0     O58491   6.156  -0.882   8.501  0.0221 -0.6758  0.1900
  434MOL0     C58492   6.076  -1.001   8.538 -0.1954  0.0069 -0.5946
  434MOL0     C58493   6.077  -1.027   8.686  0.3927 -0.0530 -0.0434
  434MOL0     C58494   5.978  -0.953   8.770 -0.1952 -0.4286 -0.6637
  434MOL0     C58495   5.978  -1.005   8.915 -0.0804  0.5279 -0.6852
  434MOL0     C58496   5.862  -0.970   9.007  0.2581  0.5733 -0.6304
  434MOL0     C58497   5.847  -1.056   9.133  0.6357  0.1041 -0.7403
  434MOL0     C58498   5.710  -1.034   9.204  0.0360 -0.0388  0.4322
  434MOL0     C58499   5.705  -1.071   9.349 -0.6281 -0.6980 -1.1823
  434MOL0    Cl58500   5.827  -0.954   9.413  0.0505 -0.2276 -0.2759
  434MOL0     C58501   6.365  -0.797   8.578  0.6066  0.5351  0.1391
  434MOL0     C58502   6.496  -0.810   8.598 -0.3599  0.5661 -0.0084
  434MOL0     O58503   6.725  -0.893   8.339 -0.0669 -0.4103  0.0168
  434MOL0     C58504   6.945  -0.799   8.591  0.1313  0.8640 -0.4023
  434MOL0     C58505   7.074  -0.754   8.625 -0.2603 -0.1940 -0.5919
  434MOL0     N58506   7.594  -0.616   9.007  0.0659 -0.3194 -0.8652
  434MOL0     N58507   7.551  -0.721   9.061 -0.4736  0.7370  0.6617
  434MOL0     C58508   6.417  -0.255   9.342 -1.1778  0.4050  0.1616
  434MOL0     C58509   6.293  -0.232   9.294  0.4491 -0.6843 -0.2398
  434MOL0     C58510   5.925  -0.064   9.119 -0.7614  0.1869 -0.6120
  434MOL0     C58511   5.846   0.043   9.067  1.2345 -0.1915 -0.8162
  434MOL0     C58512   5.710   0.040   9.053  1.1178  0.2671 -0.4725
  434MOL0     C58513   5.647  -0.090   9.072 -0.5116 -0.3280  0.3563
  434MOL0     O58514   5.522  -0.135   9.063  0.3675 -1.2445 -0.2786
  434MOL0     C58515   5.411  -0.042   9.046 -0.4701 -0.2130  0.3118
  434MOL0     C58516   5.372   0.047   9.172  0.1109  0.2377 -0.2098
  434MOL0     C58517   5.327  -0.040   9.298 -0.1088  0.3394  0.0335
  434MOL0     C58518   5.242  -0.166   9.264 -0.5886  0.5261 -0.6908
  434MOL0     C58519   5.122  -0.140   9.174 -0.0874 -0.8245  0.4520
  434MOL0     C58520   5.024  -0.115   9.104 -0.8737 -0.4497  0.3786
  434MOL0     C58521   5.724  -0.200   9.107 -0.3722  0.6793 -1.1387
  434MOL0     C58522   5.864  -0.189   9.135 -0.5223 -0.6076 -0.3966
  434MOL0     H58523   6.402  -0.153   8.987  1.0916 -1.0786 -1.0849
  434MOL0     H58524   6.602  -0.202   9.069  2.7387 -3.0653  2.8159
  434MOL0     H58525   6.750  -0.150   9.231 -0.6036  0.4315  0.2736
  434MOL0     H58526   6.826  -0.224   9.371 -1.4445 -0.5586  0.7180
  434MOL0     H58527   6.785  -0.411   9.141 -0.3037 -0.0388  1.3139
  434MOL0     H58528   6.908  -0.286   9.122 -2.6522  0.5968 -2.0398
  434MOL0     H58529   6.989  -0.379   9.371  2.4397 -0.2741 -2.5507
  434MOL0     H58530   6.859  -0.490   9.360  1.5126  1.0692  1.7755
  434MOL0     H58531   6.995  -0.589   9.150  0.8277  0.1801 -1.2025
  434MOL0     H58532   7.113  -0.458   9.194 -1.6073  1.9315 -0.0380
  434MOL0     H58533   7.130  -0.559   9.422  4.0424 -0.2067 -1.8905
  434MOL0     H58534   7.033  -0.690   9.361  1.5586 -1.3166 -0.0441
  434MOL0     H58535   7.314  -0.600   9.244  3.8711 -3.8537  2.3547
  434MOL0     H58536   7.273  -0.729   9.356 -1.4849  2.8023  2.3028
  434MOL0     H58537   7.148  -0.844   9.219 -0.2507  2.3868  1.7758
  434MOL0     H58538   7.148  -0.720   9.087 -0.5989 -1.4869 -1.4818
  434MOL0     H58539   7.290  -0.901   9.030 -1.3016  1.6987 -0.6392
  434MOL0     H58540   7.388  -0.896   9.170  0.2609 -2.9921 -2.7176
  434MOL0     H58541   7.285  -0.611   8.905 -2.3368 -0.2955  2.8424
  434MOL0     H58542   7.417  -0.369   8.933  2.5810  0.3710  0.4868
  434MOL0     H58543   7.574  -0.362   8.851 -0.2533  1.9427  0.7277
  434MOL0     H58544   7.371  -0.325   8.701  0.5820  0.1300 -1.9780
  434MOL0     H58545   7.297  -0.473   8.746 -0.3152  1.0893 -1.7194
  434MOL0     H58546   7.527  -0.586   8.645  4.0649  2.0882 -1.9361
  434MOL0     H58547   7.518  -0.434   8.559  0.5472  0.6328  1.7399
  434MOL0     H58548   7.390  -0.603   8.431 -0.1383  0.9697 -0.4054
  434MOL0     H58549   7.276  -0.489   8.499  0.0706  0.3527 -0.7220
  434MOL0     H58550   7.218  -0.738   8.324  0.7434 -0.5869  1.0361
  434MOL0     H58551   7.073  -0.818   8.160  0.5048 -0.2707  1.4225
  434MOL0     H58552   6.961  -0.945   8.207  2.3559 -0.6643 -0.7776
  434MOL0     H58553   6.914  -0.772   8.167  1.6307  0.6918 -0.7298
  434MOL0     H58554   6.557  -1.113   8.474 -1.4635 -0.4952  2.3909
  434MOL0     H58555   6.302  -1.103   8.441  2.0120 -2.9015  2.4021
  434MOL0     H58556   5.969  -0.995   8.512 -0.2357 -3.5227 -1.8087
  434MOL0     H58557   6.121  -1.078   8.475  2.9114 -0.6377  2.1600
  434MOL0     H58558   6.055  -1.132   8.706  3.0521 -0.7358 -0.3066
  434MOL0     H58559   6.178  -1.001   8.718  0.4825  0.4608 -0.7298
  434MOL0     H58560   5.875  -0.957   8.733 -0.9825 -1.3432  1.4850
  434MOL0     H58561   6.019  -0.853   8.785  2.7496 -1.7930  1.2497
  434MOL0     H58562   5.977  -1.114   8.904 -0.6031  0.3313  1.0379
  434MOL0     H58563   6.076  -0.989   8.960 -0.8829 -1.0608  1.8613
  434MOL0     H58564   5.775  -0.977   8.940 -0.5453  0.9431  0.3376
  434MOL0     H58565   5.893  -0.867   9.029 -2.8281  1.4089  0.3498
  434MOL0     H58566   5.851  -1.156   9.090 -0.7279  1.2592 -3.8673
  434MOL0     H58567   5.937  -1.047   9.194 -0.7421  2.2847  1.1283
  434MOL0     H58568   5.637  -1.083   9.138 -1.0126  2.2438 -0.1930
  434MOL0     H58569   5.686  -0.928   9.193  0.7503 -0.0007 -1.0800
  434MOL0     H58570   5.730  -1.175   9.369 -0.7418 -0.2361  1.8076
  434MOL0     H58571   5.606  -1.044   9.388  0.4559  0.2018  1.0986
  434MOL0     H58572   6.314  -0.712   8.622 -0.0220  1.4963 -2.2565
  434MOL0     H58573   6.528  -0.727   8.659  1.8272  0.5149 -0.9585
  434MOL0     H58574   6.872  -0.814   8.670 -0.1491 -1.9118 -1.0995
  434MOL0     H58575   7.100  -0.735   8.729  0.3892  1.1466 -0.9795
  434MOL0     H58576   6.412  -0.295   9.443 -1.3763  1.9701  0.8053
  434MOL0     H58577   6.202  -0.240   9.353 -0.8199  0.2237 -1.9684
  434MOL0     H58578   5.903   0.135   9.054  1.5004 -0.5968 -2.7932
  434MOL0     H58579   5.649   0.126   9.024  2.0972  0.0417 -3.5511
  434MOL0     H58580   5.430   0.018   8.957 -1.7656 -1.6136 -0.9759
  434MOL0     H58581   5.327  -0.107   9.019  0.3973 -1.5062  0.6250
  434MOL0     H58582   5.305   0.128   9.137  0.0678  0.7634  1.0465
  434MOL0     H58583   5.463   0.106   9.188  3.2467 -3.0100 -3.9808
  434MOL0     H58584   5.294   0.019   9.384  1.4290  4.0744 -1.7087
  434MOL0     H58585   5.419  -0.078   9.344 -1.7482 -3.4280  0.5795
  434MOL0     H58586   5.197  -0.220   9.348  1.8042 -2.8530 -1.3519
  434MOL0     H58587   5.310  -0.234   9.213  0.7381  1.1309  0.2336
  434MOL0     H58588   4.950  -0.109   9.026  0.4807  1.5374 -0.8720
  434MOL0     H58589   5.678  -0.297   9.113 -0.1483  0.6535  2.7363
  434MOL0     H58590   5.928  -0.274   9.159 -0.3737 -0.5103 -0.4458
  435MOL0     O58591   8.842   4.965   2.057  0.5707 -0.2889 -0.3109
  435MOL0     C58592   8.860   4.869   1.984 -0.0526  1.1459  0.7224
  435MOL0     O58593   8.791   4.750   1.981 -0.0863  0.4164 -1.1559
  435MOL0     C58594   8.691   4.749   2.078  0.9089  0.8446 -1.4179
  435MOL0     C58595   8.563   4.793   2.047  0.5626 -0.3554  0.7740
  435MOL0     C58596   8.461   4.803   2.148  0.6068 -0.2442 -0.3127
  435MOL0     C58597   8.493   4.762   2.281  0.5627  0.4024 -0.3456
  435MOL0     O58598   8.407   4.758   2.388  0.9208  0.5531  0.7478
  435MOL0     C58599   8.262   4.775   2.364 -0.0118  0.1113 -0.1832
  435MOL0     C58600   8.186   4.732   2.492  0.0210  0.8082 -0.9113
  435MOL0     C58601   8.199   4.836   2.604 -0.5237  0.0107 -0.1674
  435MOL0     C58602   8.138   4.789   2.742 -0.5455 -0.0719  0.9055
  435MOL0     C58603   8.172   4.879   2.863 -0.7888 -0.1576 -1.0753
  435MOL0     C58604   8.086   4.845   2.986 -0.1150 -0.1380 -0.6170
  435MOL0     C58605   8.124   4.945   3.100 -0.6682 -0.3761 -0.6806
  435MOL0     C58606   8.276   4.947   3.146  0.1852  0.1546 -0.1582
  435MOL0     N58607   8.301   4.838   3.239 -0.4249 -0.3537 -0.5419
  435MOL0     C58608   8.371   4.722   3.217 -0.6594  0.0563  0.7355
  435MOL0     C58609   8.376   4.653   3.330  0.1805  0.5780 -1.2863
  435MOL0     C58610   8.453   4.526   3.361 -0.9430  0.4353  0.0245
  435MOL0     C58611   8.381   4.399   3.318 -0.1589  0.3139  0.1548
  435MOL0     C58612   8.247   4.363   3.391  0.1503 -0.1277 -0.3122
  435MOL0     C58613   8.260   4.342   3.536  0.3744  0.4035  0.2303
  435MOL0     O58614   8.370   4.252   3.553  0.5212  1.1980 -0.2741
  435MOL0     C58615   8.398   4.196   3.674  0.1893  1.0901 -0.4798
  435MOL0     C58616   8.317   4.196   3.794 -0.2888 -0.2442  0.6308
  435MOL0     C58617   8.347   4.138   3.913  0.3659 -0.0825  0.0767
  435MOL0     C58618   8.242   4.149   4.017  0.0877  1.2544  0.0076
  435MOL0     C58619   8.472   4.066   3.920 -0.1030 -0.0591 -0.0218
  435MOL0     C58620   8.524   4.008   4.050  0.8971  0.4149 -0.4551
  435MOL0     O58621   8.655   3.990   4.057  0.2962 -0.0231 -0.3497
  435MOL0     C58622   8.705   3.901   4.147  0.5779  0.3110 -0.5261
  435MOL0     C58623   8.679   3.904   4.283 -0.3624 -0.4601 -0.8884
  435MOL0     C58624   8.732   3.816   4.373  0.0430  0.8613 -0.3316
  435MOL0     C58625   8.797   3.697   4.322 -0.1214  0.4488  0.7525
  435MOL0     O58626   8.837   3.590   4.390  0.4999  0.1158 -0.6666
  435MOL0     C58627   8.740   3.552   4.484 -0.9119 -0.4783 -0.6457
  435MOL0     C58628   8.745   3.411   4.529 -0.1718 -0.2122  0.5674
  435MOL0     C58629   8.710   3.391   4.669 -0.0595 -0.3822 -0.6853
  435MOL0     C58630   8.808   3.438   4.780  1.0431 -0.1130 -0.0949
  435MOL0     C58631   8.741   3.440   4.921  0.7541 -0.1502 -0.1350
  435MOL0     C58632   8.826   3.494   5.039  0.8154 -0.5534  0.2616
  435MOL0     C58633   8.977   3.443   5.042  0.3434 -0.0886 -0.7481
  435MOL0     C58634   9.051   3.532   5.135  0.4098  0.7253 -0.0163
  435MOL0    Cl58635   9.082   3.691   5.077  0.2915  0.0992  0.2294
  435MOL0     C58636   8.824   3.696   4.181 -0.0597 -0.7249  0.6531
  435MOL0     C58637   8.765   3.792   4.096 -0.1828  0.2344 -0.1433
  435MOL0     O58638   8.441   3.987   4.139 -0.2053 -0.5208  0.2370
  435MOL0     C58639   8.556   4.047   3.814  0.1307  0.0865  0.5679
  435MOL0     C58640   8.515   4.117   3.695 -0.3548  1.1426 -0.3376
  435MOL0     N58641   8.308   4.719   3.421 -0.6496 -0.7493 -0.5443
  435MOL0     N58642   8.274   4.838   3.370 -0.1495 -0.0843  0.0426
  435MOL0     C58643   8.618   4.708   2.308 -0.2909  1.1434 -0.0686
  435MOL0     C58644   8.719   4.693   2.203 -0.7511  0.5609  0.2104
  435MOL0     C58645   8.969   4.892   1.889 -0.0880  0.5219 -0.3208
  435MOL0     C58646   9.057   4.997   1.896 -0.3980 -0.1088  0.1352
  435MOL0     C58647   9.166   5.004   1.811  0.6238  0.2169 -1.1309
  435MOL0     C58648   9.195   4.914   1.705  0.2922 -0.0003  0.5915
  435MOL0     O58649   9.310   4.928   1.625  0.7485 -0.1672 -0.4718
  435MOL0     C58650   9.342   5.053   1.578 -0.1482 -0.0935  0.5332
  435MOL0     C58651   9.395   5.047   1.427 -0.0953 -0.2529 -0.8201
  435MOL0     C58652   9.294   4.990   1.329 -0.0250  0.5754 -0.0833
  435MOL0     C58653   9.182   5.099   1.287 -0.4344 -0.3189 -0.4852
  435MOL0     C58654   9.238   5.176   1.173 -0.1411 -0.3965 -0.5647
  435MOL0     C58655   9.263   5.236   1.072 -0.6875  0.2673 -0.6249
  435MOL0     C58656   9.101   4.812   1.684  0.0470  0.0298 -0.4340
  435MOL0     C58657   8.996   4.800   1.776 -0.2104 -0.5413 -0.4144
  435MOL0     H58658   8.542   4.818   1.943  0.5864  2.1298  1.2879
  435MOL0     H58659   8.363   4.832   2.113  1.0295  0.7744 -0.7010
  435MOL0     H58660   8.248   4.883   2.350  0.6648  0.4397  1.4432
  435MOL0     H58661   8.232   4.699   2.292 -3.4832 -1.8871  3.0427
  435MOL0     H58662   8.083   4.736   2.454 -0.0015  2.6163 -0.7202
  435MOL0     H58663   8.210   4.630   2.524 -1.6423  0.9319  0.9001
  435MOL0     H58664   8.304   4.864   2.606  0.5090 -3.3408 -0.6322
  435MOL0     H58665   8.141   4.924   2.573  0.9476 -0.2905 -4.4072
  435MOL0     H58666   8.029   4.782   2.728 -0.2689 -4.1409 -0.5015
  435MOL0     H58667   8.175   4.687   2.756 -1.4475 -0.5564 -0.0767
  435MOL0     H58668   8.280   4.874   2.876 -0.7824  1.4383 -0.1659
  435MOL0     H58669   8.170   4.984   2.835  2.2458  0.2950  0.0388
  435MOL0     H58670   7.977   4.844   2.977 -0.3481 -0.6973  1.6931
  435MOL0     H58671   8.108   4.742   3.016 -2.8429 -0.2009  1.5773
  435MOL0     H58672   8.096   5.047   3.074 -1.8306 -0.2540  0.8943
  435MOL0     H58673   8.056   4.929   3.184  3.9339  1.0065  3.8117
  435MOL0     H58674   8.289   5.045   3.193 -2.1740 -0.8617  2.8969
  435MOL0     H58675   8.339   4.946   3.057  0.1722  3.5851 -0.3613
  435MOL0     H58676   8.423   4.696   3.126 -0.6403 -0.2337  0.8292
  435MOL0     H58677   8.558   4.531   3.328 -1.3301 -1.4163 -1.7529
  435MOL0     H58678   8.463   4.529   3.470 -1.6304 -0.5757  0.1320
  435MOL0     H58679   8.443   4.309   3.316 -1.3456 -0.5191 -0.2416
  435MOL0     H58680   8.369   4.430   3.214  0.4961  3.4707  0.8934
  435MOL0     H58681   8.229   4.260   3.359 -0.8824 -1.4740  3.9699
  435MOL0     H58682   8.171   4.436   3.361  0.3543  0.1555 -0.1434
  435MOL0     H58683   8.170   4.290   3.570  1.2099 -2.0043 -0.9548
  435MOL0     H58684   8.278   4.439   3.582  4.8832 -1.0070  1.9683
  435MOL0     H58685   8.223   4.249   3.785 -1.4374 -2.4020 -0.8835
  435MOL0     H58686   8.169   4.227   3.997  1.4832  2.0871 -2.1529
  435MOL0     H58687   8.195   4.055   4.048  1.7747  0.7487  1.1699
  435MOL0     H58688   8.291   4.178   4.110  1.6315 -1.1511  0.0628
  435MOL0     H58689   8.622   3.987   4.323 -1.9934 -2.0518  0.2428
  435MOL0     H58690   8.721   3.822   4.481  2.4017 -1.3690  0.1489
  435MOL0     H58691   8.757   3.607   4.577 -1.4317 -2.6008  0.7864
  435MOL0     H58692   8.643   3.559   4.434  1.0123  3.6433 -4.4589
  435MOL0     H58693   8.681   3.349   4.466 -2.0221  2.3979 -0.3166
  435MOL0     H58694   8.847   3.378   4.506 -0.2789 -0.2668  0.1584
  435MOL0     H58695   8.693   3.286   4.695  1.8233 -0.2511  1.4757
  435MOL0     H58696   8.630   3.461   4.695 -0.2899 -0.9283  0.1093
  435MOL0     H58697   8.902   3.385   4.767  0.4580 -1.5156  1.1842
  435MOL0     H58698   8.829   3.545   4.766 -1.6384  0.6319  0.9047
  435MOL0     H58699   8.707   3.337   4.938  2.4498 -1.2317 -2.6063
  435MOL0     H58700   8.653   3.504   4.908  2.0158  1.4162 -1.3550
  435MOL0     H58701   8.805   3.600   5.018  2.3143 -0.4703 -1.0590
  435MOL0     H58702   8.778   3.471   5.134  0.4465 -3.9548 -0.6241
  435MOL0     H58703   9.009   3.457   4.938  0.0954 -0.7024 -0.9117
  435MOL0     H58704   8.999   3.339   5.070  3.5557  0.4313 -0.9842
  435MOL0     H58705   9.149   3.496   5.169  0.3243 -0.0036 -0.5110
  435MOL0     H58706   8.978   3.536   5.216 -1.5753 -3.3054 -1.3292
  435MOL0     H58707   8.878   3.614   4.134 -1.4886 -0.2159 -2.0722
  435MOL0     H58708   8.786   3.790   3.989 -2.1090  0.1945 -0.5464
  435MOL0     H58709   8.643   3.984   3.828  0.1110  0.6505  4.0980
  435MOL0     H58710   8.575   4.088   3.610  0.1916 -0.6381  0.5971
  435MOL0     H58711   8.640   4.685   2.412 -0.4080 -1.2594 -0.5153
  435MOL0     H58712   8.809   4.636   2.219 -2.6674 -2.8615 -0.3446
  435MOL0     H58713   9.049   5.075   1.971 -2.4908 -0.6242  0.5043
  435MOL0     H58714   9.238   5.085   1.819  0.9765 -0.1795 -0.0915
  435MOL0     H58715   9.262   5.127   1.589  0.6480  0.6774  1.4124
  435MOL0     H58716   9.431   5.095   1.626  0.5775  1.1825 -1.7684
  435MOL0     H58717   9.483   4.983   1.434 -1.0690 -1.4654  1.1098
  435MOL0     H58718   9.410   5.151   1.396 -1.7957  0.9680  2.0394
  435MOL0     H58719   9.235   4.909   1.374  2.4357  0.4388  3.2004
  435MOL0     H58720   9.345   4.942   1.245 -0.9227 -1.1976  0.3345
  435MOL0     H58721   9.151   5.167   1.367  1.1231 -0.1244  0.0087
  435MOL0     H58722   9.090   5.058   1.246 -1.0762 -0.8467  1.3784
  435MOL0     H58723   9.278   5.295   0.983  3.5711  1.3110  0.5349
  435MOL0     H58724   9.104   4.748   1.597 -0.3590 -1.3269  0.5175
  435MOL0     H58725   8.923   4.721   1.760 -4.1336  2.5650  0.5414
  436MOL0     O58726   3.813   8.661   5.499 -0.0448 -0.2434 -0.8185
  436MOL0     C58727   3.817   8.741   5.604  0.1900  0.6942  0.5287
  436MOL0     O58728   3.713   8.761   5.690 -1.0109 -0.1714 -0.5992
  436MOL0     C58729   3.584   8.744   5.657  0.1542 -0.2397  0.0479
  436MOL0     C58730   3.540   8.635   5.588  0.0765  0.5702  0.6644
  436MOL0     C58731   3.408   8.626   5.550 -0.2993  0.2093  0.2605
  436MOL0     C58732   3.316   8.717   5.599  0.6239 -0.0513 -0.6841
  436MOL0     O58733   3.181   8.711   5.571 -0.3880  0.3774  0.1666
  436MOL0     C58734   3.112   8.635   5.475 -0.6514  0.4341 -0.2177
  436MOL0     C58735   3.168   8.653   5.336 -0.5931 -0.8837 -0.3626
  436MOL0     C58736   3.081   8.574   5.245  0.0638 -0.8129  0.1775
  436MOL0     C58737   3.094   8.601   5.096  0.0152 -0.7779  0.3979
  436MOL0     C58738   2.986   8.539   5.017 -0.1717  0.1072  0.4857
  436MOL0     C58739   3.000   8.571   4.868 -1.2039 -0.7943  0.0748
  436MOL0     C58740   2.937   8.456   4.780 -0.4486  0.1501  0.0054
  436MOL0     C58741   2.958   8.480   4.625 -0.2041  0.1840  0.2451
  436MOL0     N58742   2.909   8.613   4.585  0.0667  0.0143  0.3052
  436MOL0     C58743   2.778   8.658   4.567  0.3879  0.5655 -0.4074
  436MOL0     C58744   2.790   8.781   4.523 -1.2865 -0.0551 -0.6622
  436MOL0     C58745   2.676   8.871   4.478  0.9607 -0.0552  0.8454
  436MOL0     C58746   2.577   8.924   4.584  0.5141  0.1119 -0.4039
  436MOL0     C58747   2.501   9.036   4.527 -0.3996  0.2087 -0.8196
  436MOL0     C58748   2.573   9.170   4.525 -0.0980  0.7092 -0.3269
  436MOL0     O58749   2.499   9.257   4.447  0.3168  0.7052  0.0077
  436MOL0     C58750   2.497   9.244   4.311  0.9326 -0.5615 -1.1643
  436MOL0     C58751   2.382   9.192   4.245 -0.3306 -0.4260  0.0582
  436MOL0     C58752   2.372   9.197   4.107 -0.4037 -0.2316  0.9168
  436MOL0     C58753   2.242   9.151   4.046 -0.0587  0.1020 -0.4042
  436MOL0     C58754   2.488   9.231   4.029 -0.1427  0.2614  0.2196
  436MOL0     C58755   2.487   9.228   3.878  0.1758 -0.8965 -0.7738
  436MOL0     O58756   2.594   9.288   3.820 -0.2245  0.0050 -0.8420
  436MOL0     C58757   2.609   9.279   3.683 -0.5815  0.3757 -0.4828
  436MOL0     C58758   2.710   9.198   3.622  0.0583  0.0019 -0.1935
  436MOL0     C58759   2.732   9.197   3.491 -0.1981  0.3954 -0.7337
  436MOL0     C58760   2.655   9.274   3.399  0.5638 -0.7779 -0.6964
  436MOL0     O58761   2.677   9.261   3.272 -0.1911  0.0232 -0.1461
  436MOL0     C58762   2.570   9.198   3.202  0.5586 -0.7166  0.4423
  436MOL0     C58763   2.603   9.158   3.060  0.1860  0.4232  0.5540
  436MOL0     C58764   2.736   9.079   3.050 -0.6091  0.2208 -1.2604
  436MOL0     C58765   2.825   9.132   2.933  0.2840 -0.8163 -0.0726
  436MOL0     C58766   2.967   9.074   2.924  0.5139 -0.4208  0.5030
  436MOL0     C58767   2.988   9.005   2.785  0.6384 -1.8113  0.3606
  436MOL0     C58768   2.924   8.868   2.773  0.0669 -0.2603 -0.4028
  436MOL0     C58769   3.009   8.789   2.673  0.9009 -0.9726  0.4831
  436MOL0    Cl58770   3.056   8.896   2.513 -0.4872 -0.1268 -0.0259
  436MOL0     C58771   2.556   9.355   3.454 -0.3381  0.4846  0.1719
  436MOL0     C58772   2.539   9.348   3.600  0.0803  0.1545  0.1865
  436MOL0     O58773   2.384   9.199   3.816  0.3188 -0.7803  0.4009
  436MOL0     C58774   2.604   9.270   4.103  0.8426  0.0964  0.4036
  436MOL0     C58775   2.601   9.282   4.243  0.8217 -0.1680 -0.6473
  436MOL0     N58776   2.924   8.825   4.526 -0.0687  0.1716  0.3084
  436MOL0     N58777   2.994   8.718   4.559 -0.0765 -0.4615 -0.1738
  436MOL0     C58778   3.363   8.818   5.694 -0.2948  1.0322 -0.0828
  436MOL0     C58779   3.494   8.827   5.720  0.4818  0.1538  0.0001
  436MOL0     C58780   3.936   8.811   5.635 -0.1520 -0.1930 -0.1940
  436MOL0     C58781   4.040   8.839   5.549 -1.2314 -0.0614 -0.2711
  436MOL0     C58782   4.143   8.923   5.581 -0.1714 -0.2957  0.2450
  436MOL0     C58783   4.166   8.974   5.706  0.3818 -0.4013  1.3999
  436MOL0     O58784   4.269   9.066   5.720 -0.0708 -0.6915  0.1082
  436MOL0     C58785   4.248   9.174   5.814 -0.3067  0.0893  0.2943
  436MOL0     C58786   4.388   9.232   5.824 -0.0428  0.3098  0.2616
  436MOL0     C58787   4.458   9.232   5.958  0.0680  0.7701  0.8116
  436MOL0     C58788   4.488   9.090   6.008 -0.6610  0.6830  0.5278
  436MOL0     C58789   4.541   9.007   5.898 -0.0347  0.0858  0.2116
  436MOL0     C58790   4.589   8.932   5.818  0.8411  0.6259 -0.7937
  436MOL0     C58791   4.069   8.944   5.803 -0.3456 -0.4541  0.2839
  436MOL0     C58792   3.950   8.876   5.761  0.0345 -0.3136 -0.9014
  436MOL0     H58793   3.606   8.554   5.558  1.1128 -0.0147  4.1294
  436MOL0     H58794   3.376   8.534   5.501  3.3013 -2.0781  1.7595
  436MOL0     H58795   3.122   8.528   5.496 -1.2463  0.4625  0.2311
  436MOL0     H58796   3.004   8.656   5.475 -0.2565  2.7206  0.1149
  436MOL0     H58797   3.173   8.759   5.307 -3.2977 -1.6179 -4.2894
  436MOL0     H58798   3.269   8.613   5.324  0.4180  2.0320 -2.8194
  436MOL0     H58799   3.111   8.470   5.260  1.8633  0.1089  4.4600
  436MOL0     H58800   2.979   8.595   5.278  0.2669  0.1701  0.2171
  436MOL0     H58801   3.093   8.710   5.085 -4.9139 -0.6540 -0.0607
  436MOL0     H58802   3.187   8.555   5.060  0.0252  0.4907 -1.3615
  436MOL0     H58803   3.004   8.431   5.022  1.7736  0.0936 -3.1709
  436MOL0     H58804   2.884   8.551   5.052 -0.3152 -0.0814  0.1418
  436MOL0     H58805   2.957   8.668   4.842  1.8633  1.0980  1.4790
  436MOL0     H58806   3.102   8.571   4.828 -1.5035 -4.2379 -1.0936
  436MOL0     H58807   2.986   8.360   4.800  1.3304  0.3865 -2.7153
  436MOL0     H58808   2.831   8.443   4.804  0.0716  0.2358  2.6632
  436MOL0     H58809   2.908   8.411   4.556 -0.0624  2.1284 -1.9395
  436MOL0     H58810   3.066   8.471   4.610 -0.1247 -1.7043  1.6029
  436MOL0     H58811   2.690   8.599   4.589  1.3717 -1.2861 -1.1694
  436MOL0     H58812   2.725   8.958   4.434 -0.2889 -0.2169 -0.9912
  436MOL0     H58813   2.628   8.825   4.390 -0.8480 -2.0461  2.7179
  436MOL0     H58814   2.618   8.958   4.679  0.4447 -0.7710 -0.0460
  436MOL0     H58815   2.511   8.839   4.603 -1.4300  1.4991 -0.6342
  436MOL0     H58816   2.408   9.056   4.580  0.2121  1.9066 -0.3363
  436MOL0     H58817   2.479   9.013   4.423 -2.2688 -1.3877 -0.1355
  436MOL0     H58818   2.673   9.157   4.484 -0.3839 -2.3803 -0.2561
  436MOL0     H58819   2.590   9.203   4.628  1.0913  1.7404 -0.8381
  436MOL0     H58820   2.292   9.160   4.296 -3.3008  2.0378 -3.1402
  436MOL0     H58821   2.239   9.065   3.979 -0.5673  1.2385 -1.8775
  436MOL0     H58822   2.168   9.114   4.118 -1.0492 -1.2603 -2.0507
  436MOL0     H58823   2.205   9.240   3.994  0.4743 -0.9241 -2.6156
  436MOL0     H58824   2.776   9.142   3.688  0.3108  2.0726  1.4137
  436MOL0     H58825   2.813   9.137   3.453  0.0193 -0.6211  1.2437
  436MOL0     H58826   2.527   9.109   3.249  3.1442 -1.7967  0.9704
  436MOL0     H58827   2.491   9.272   3.191  1.6908  0.4424 -0.2488
  436MOL0     H58828   2.531   9.089   3.017 -1.2907  2.7333 -0.8866
  436MOL0     H58829   2.606   9.244   2.993  0.5982 -1.0244 -1.3736
  436MOL0     H58830   2.716   8.972   3.034  3.2976 -1.2543  1.9508
  436MOL0     H58831   2.786   9.091   3.146 -3.2716  2.1203  0.0350
  436MOL0     H58832   2.772   9.119   2.838  0.6098  2.2889 -0.7741
  436MOL0     H58833   2.827   9.240   2.943 -4.8231 -0.6337  2.4937
  436MOL0     H58834   2.985   9.009   3.010 -3.3600 -1.9745  0.3538
  436MOL0     H58835   3.035   9.159   2.917 -1.4816  1.4855  2.7137
  436MOL0     H58836   2.953   9.068   2.702  3.9116 -0.0197  0.1850
  436MOL0     H58837   3.092   8.995   2.753 -0.8651 -2.1735 -5.8630
  436MOL0     H58838   2.819   8.874   2.742  0.6400  0.5547 -2.4050
  436MOL0     H58839   2.917   8.816   2.869 -1.9401  1.9841  0.7784
  436MOL0     H58840   2.956   8.697   2.649 -0.9689  0.6108 -1.9667
  436MOL0     H58841   3.108   8.772   2.717  1.2312  0.0046  0.1532
  436MOL0     H58842   2.494   9.430   3.406 -0.5061  1.5652  1.9816
  436MOL0     H58843   2.463   9.411   3.644  1.4814  0.1095  2.9153
  436MOL0     H58844   2.693   9.304   4.051 -1.4055  2.1631 -2.3895
  436MOL0     H58845   2.689   9.326   4.290  0.5006  1.2165 -1.2878
  436MOL0     H58846   3.306   8.900   5.737  0.2426  1.0196  0.6835
  436MOL0     H58847   3.541   8.907   5.777  2.7556 -0.5486 -0.7711
  436MOL0     H58848   4.035   8.795   5.450 -0.8049 -0.7237 -0.0076
  436MOL0     H58849   4.214   8.944   5.502 -0.2434 -0.2060  0.2041
  436MOL0     H58850   4.182   9.251   5.773  0.9919  0.8928 -0.3638
  436MOL0     H58851   4.225   9.146   5.918 -0.7012 -3.2920 -0.5809
  436MOL0     H58852   4.376   9.338   5.799 -1.2696  0.3295  0.8443
  436MOL0     H58853   4.445   9.196   5.738 -0.0205  1.4054 -0.1974
  436MOL0     H58854   4.391   9.271   6.036 -1.4602 -2.2972  1.1941
  436MOL0     H58855   4.550   9.291   5.956  0.3263  0.3998 -2.5012
  436MOL0     H58856   4.399   9.037   6.045 -0.8559 -1.6581 -2.8743
  436MOL0     H58857   4.565   9.099   6.085  1.3411 -0.2155 -1.2712
  436MOL0     H58858   4.614   8.843   5.765  0.3192  1.3011 -2.2385
  436MOL0     H58859   4.101   8.986   5.898  3.6539  2.4744 -2.0366
  436MOL0     H58860   3.879   8.860   5.842  0.0937  3.1285 -0.0441
  437MOL0     O58861  10.647   0.204   1.574  0.4300 -0.4291  0.2914
  437MOL0     C58862  10.707   0.122   1.637 -0.1859  1.1391 -0.6895
  437MOL0     O58863  10.765   0.009   1.588  1.4926 -0.1660  0.4904
  437MOL0     C58864  10.736  -0.021   1.459 -0.8980 -0.2437  0.2205
  437MOL0     C58865  10.828   0.002   1.358 -0.6808 -0.1879  0.0732
  437MOL0     C58866  10.779  -0.019   1.226 -0.1139  1.2511  0.0098
  437MOL0     C58867  10.656  -0.071   1.195  0.1568  0.1489 -0.0879
  437MOL0     O58868  10.619  -0.067   1.067  0.0196 -0.0196  0.1475
  437MOL0     C58869  10.479  -0.079   1.037  0.0790  0.4714  0.0178
  437MOL0     C58870  10.450  -0.031   0.896 -0.8561 -0.0836  1.0742
  437MOL0     C58871  10.500  -0.127   0.791 -0.2425 -0.8239  0.1724
  437MOL0     C58872  10.429  -0.109   0.656  0.0231  0.0049 -0.4157
  437MOL0     C58873  10.436  -0.231   0.555  0.1943  0.0707  0.0932
  437MOL0     C58874  10.419  -0.166   0.413  0.2248 -0.1052  0.7013
  437MOL0     C58875  10.474  -0.248   0.286  0.3672 -0.0630  0.1896
  437MOL0     C58876  10.465  -0.171   0.165 -0.7235  0.3615 -0.2062
  437MOL0     N58877  10.531  -0.237   0.053  0.7141 -0.1832 -0.4091
  437MOL0     C58878  10.490  -0.351  -0.015  0.3201 -0.0592  0.2432
  437MOL0     C58879  10.575  -0.365  -0.127 -0.0578  0.1278 -0.8799
  437MOL0     C58880  10.567  -0.463  -0.237  0.0557  0.2107  0.2463
  437MOL0     C58881  10.701  -0.521  -0.282  0.3705  0.0342  0.1169
  437MOL0     C58882  10.749  -0.639  -0.196  1.1621 -0.1248  0.6079
  437MOL0     C58883  10.765  -0.616  -0.042 -0.0163  0.5085  0.6708
  437MOL0     O58884  10.632  -0.630   0.024 -0.0178  0.3631 -0.3427
  437MOL0     C58885  10.636  -0.620   0.158  1.0918 -0.1026  0.4573
  437MOL0     C58886  10.509  -0.620   0.222 -0.5981 -0.7161  0.3727
  437MOL0     C58887  10.490  -0.601   0.361  0.6190  0.6126 -0.0749
  437MOL0     C58888  10.346  -0.590   0.407 -0.4851 -1.1318 -0.5104
  437MOL0     C58889  10.605  -0.584   0.448 -0.0438 -0.2092  0.1814
  437MOL0     C58890  10.603  -0.573   0.592 -0.5662  0.8016 -0.1530
  437MOL0     O58891  10.713  -0.511   0.653  0.5534 -0.1209  0.3497
  437MOL0     C58892  10.720  -0.505   0.789  0.7991  0.0777 -0.6994
  437MOL0     C58893  10.675  -0.600   0.874  0.0195  0.5825 -0.0209
  437MOL0     C58894  10.696  -0.590   1.012 -0.4841  0.5705 -0.3237
  437MOL0     C58895  10.758  -0.483   1.072 -0.8249  0.2481 -0.1788
  437MOL0     O58896  10.779  -0.482   1.208 -0.3385 -0.3489 -0.7164
  437MOL0     C58897  10.872  -0.392   1.265  0.4861  0.0513 -0.2100
  437MOL0     C58898  10.870  -0.401   1.417 -0.8350 -0.7377 -0.6040
  437MOL0     C58899  10.718  -0.421   1.454 -0.0888  0.7738  0.2645
  437MOL0     C58900  10.684  -0.398   1.596  0.6430 -0.0501  0.2354
  437MOL0     C58901  10.552  -0.448   1.640  0.6931  0.6700  0.6025
  437MOL0     C58902  10.431  -0.359   1.590  0.2185  0.4738  0.2697
  437MOL0     C58903  10.298  -0.413   1.636  0.0847  0.1767 -0.4227
  437MOL0     C58904  10.178  -0.333   1.586 -1.0228  0.4131  0.4897
  437MOL0    Cl58905  10.207  -0.274   1.407 -0.3301  0.3426  0.2632
  437MOL0     C58906  10.795  -0.378   0.984  1.1730 -0.4388  0.3085
  437MOL0     C58907  10.781  -0.398   0.847  0.1141 -0.9876 -0.5089
  437MOL0     O58908  10.498  -0.609   0.652  0.5316  0.2138  0.2059
  437MOL0     C58909  10.730  -0.574   0.384  0.7895 -0.2913  0.0674
  437MOL0     C58910  10.745  -0.593   0.244  0.2510 -0.4095 -1.2543
  437MOL0     N58911  10.659  -0.261  -0.124  0.0868  0.3620 -0.3586
  437MOL0     N58912  10.641  -0.187  -0.022  0.6500 -0.5663  0.0918
  437MOL0     C58913  10.576  -0.115   1.300  0.2908  1.2177  0.4391
  437MOL0     C58914  10.615  -0.080   1.432  1.0185 -0.2810  0.1100
  437MOL0     C58915  10.739   0.145   1.783  1.0335 -1.1170 -0.2427
  437MOL0     C58916  10.768   0.042   1.869  0.0431 -0.2672  0.5036
  437MOL0     C58917  10.790   0.060   1.999 -0.0427 -0.3667 -0.6535
  437MOL0     C58918  10.779   0.184   2.069 -0.1130 -0.6292  0.8552
  437MOL0     O58919  10.793   0.186   2.199  0.3760  0.8112 -0.1096
  437MOL0     C58920  10.844   0.301   2.269 -0.0538  0.2504 -0.1780
  437MOL0     C58921  10.981   0.271   2.317 -0.0158 -1.1862  0.1666
  437MOL0     C58922  11.089   0.257   2.206 -0.0032  0.2208 -0.9859
  437MOL0     C58923  11.090   0.367   2.099 -0.4103 -0.2293  1.0148
  437MOL0     C58924  11.215   0.399   2.027 -0.1438  0.5338  0.4609
  437MOL0     C58925  11.313   0.420   1.963  0.0149 -0.3546  0.4423
  437MOL0     C58926  10.746   0.295   1.987  0.5359 -0.6895 -0.1371
  437MOL0     C58927  10.721   0.273   1.850  0.4177  0.8670 -0.0857
  437MOL0     H58928  10.925   0.049   1.374 -0.3405 -1.0199  0.5076
  437MOL0     H58929  10.845  -0.000   1.142 -0.7011  0.8698 -0.5485
  437MOL0     H58930  10.439  -0.180   1.043 -0.5163  0.6257 -1.1137
  437MOL0     H58931  10.418  -0.015   1.102 -1.8268  0.9652 -2.1345
  437MOL0     H58932  10.342  -0.016   0.889 -0.7446  1.8016  2.4417
  437MOL0     H58933  10.494   0.069   0.894 -0.8357 -0.0638  2.2119
  437MOL0     H58934  10.608  -0.113   0.782 -0.2248 -0.3394  1.1012
  437MOL0     H58935  10.482  -0.226   0.835 -2.0836  0.4322  2.3951
  437MOL0     H58936  10.324  -0.085   0.673  0.6939  1.0125  3.2632
  437MOL0     H58937  10.472  -0.020   0.610  0.2590  0.1449  0.0687
  437MOL0     H58938  10.537  -0.273   0.564  0.0792 -0.4468 -0.8596
  437MOL0     H58939  10.360  -0.307   0.571 -0.0445  0.6595  1.9724
  437MOL0     H58940  10.314  -0.141   0.395  0.1476 -0.3689  0.7796
  437MOL0     H58941  10.473  -0.071   0.418 -1.5872  0.9166  2.0837
  437MOL0     H58942  10.578  -0.278   0.299  1.4428  2.2168 -2.2640
  437MOL0     H58943  10.411  -0.337   0.278  0.6085 -0.1708 -0.4810
  437MOL0     H58944  10.500  -0.069   0.181 -0.4165  0.6326 -2.3633
  437MOL0     H58945  10.361  -0.157   0.133 -1.4992  0.3967  2.1131
  437MOL0     H58946  10.405  -0.417  -0.002 -0.8150  1.5551  1.2896
  437MOL0     H58947  10.488  -0.538  -0.224  0.8518 -0.4965  1.1076
  437MOL0     H58948  10.536  -0.405  -0.324 -1.6977  0.6464  1.1078
  437MOL0     H58949  10.783  -0.448  -0.289 -1.2121  1.7325 -3.3529
  437MOL0     H58950  10.682  -0.549  -0.386 -3.8252  2.6960 -0.0834
  437MOL0     H58951  10.850  -0.655  -0.234  1.9642  0.1902  2.4668
  437MOL0     H58952  10.682  -0.724  -0.210 -0.4411  1.1567  0.1075
  437MOL0     H58953  10.811  -0.518  -0.026 -0.6644  0.7406  1.1532
  437MOL0     H58954  10.841  -0.691  -0.017  0.5439 -0.1782 -2.6565
  437MOL0     H58955  10.418  -0.631   0.164 -1.7834  1.9546  1.5668
  437MOL0     H58956  10.304  -0.684   0.443  3.6724 -3.3075 -0.7988
  437MOL0     H58957  10.332  -0.513   0.484 -0.0949  0.0489 -1.5816
  437MOL0     H58958  10.296  -0.538   0.324  4.4681  3.5151 -1.1140
  437MOL0     H58959  10.631  -0.697   0.854 -1.7266  0.4509  3.7484
  437MOL0     H58960  10.662  -0.660   1.088  2.8583 -0.4866  0.3783
  437MOL0     H58961  10.974  -0.419   1.238  1.2589  0.5100  2.1125
  437MOL0     H58962  10.851  -0.288   1.237 -0.8519 -0.0400  0.3960
  437MOL0     H58963  10.932  -0.485   1.449  0.4753  1.5487  3.7294
  437MOL0     H58964  10.913  -0.311   1.462  2.0157 -1.8557 -0.8562
  437MOL0     H58965  10.675  -0.519   1.431 -2.4140  1.7204  0.3029
  437MOL0     H58966  10.654  -0.359   1.390 -2.2224 -1.4116  0.1735
  437MOL0     H58967  10.752  -0.462   1.653  1.4919  1.5957  1.1391
  437MOL0     H58968  10.716  -0.299   1.629  0.0296  0.3386 -0.3079
  437MOL0     H58969  10.549  -0.446   1.750 -0.6630 -0.1946  0.6124
  437MOL0     H58970  10.535  -0.553   1.612  2.1912  0.9490 -1.5713
  437MOL0     H58971  10.442  -0.256   1.627 -3.2160 -0.0015  3.1728
  437MOL0     H58972  10.420  -0.357   1.481  0.5159  0.9537  0.2460
  437MOL0     H58973  10.290  -0.418   1.745  0.5822 -0.1269 -0.3986
  437MOL0     H58974  10.286  -0.515   1.598 -0.6563  0.1327 -0.0717
  437MOL0     H58975  10.178  -0.245   1.651 -0.8433 -1.4305  3.1321
  437MOL0     H58976  10.084  -0.390   1.590 -0.7972 -0.0511 -0.4524
  437MOL0     H58977  10.839  -0.282   1.009  1.7293 -0.7287  0.4619
  437MOL0     H58978  10.808  -0.317   0.781 -0.5256  1.3983  1.9340
  437MOL0     H58979  10.816  -0.544   0.443  0.8080 -0.7788  0.2897
  437MOL0     H58980  10.846  -0.578   0.205  0.0764 -2.6969 -2.7605
  437MOL0     H58981  10.481  -0.160   1.272  1.4499 -1.9667  1.2047
  437MOL0     H58982  10.545  -0.088   1.515 -0.3741  4.3033 -0.3570
  437MOL0     H58983  10.783  -0.053   1.818 -0.1722  1.3186 -2.7489
  437MOL0     H58984  10.827  -0.029   2.049  1.8918  0.6459 -0.1681
  437MOL0     H58985  10.836   0.388   2.203 -0.9159 -0.8174 -1.5461
  437MOL0     H58986  10.779   0.325   2.353 -0.5042 -0.5385 -0.2882
  437MOL0     H58987  10.975   0.184   2.383  0.1636 -0.1099  1.6298
  437MOL0     H58988  11.012   0.355   2.379  1.9438  1.4414 -3.9059
  437MOL0     H58989  11.078   0.166   2.147 -1.1132  1.0075 -2.0501
  437MOL0     H58990  11.185   0.258   2.258 -2.1260  0.5020  3.4473
  437MOL0     H58991  11.047   0.463   2.131 -0.0718  0.0270  0.7172
  437MOL0     H58992  11.026   0.335   2.017  1.0489 -1.0803  0.1643
  437MOL0     H58993  11.397   0.450   1.904  2.5152  0.1147  3.9701
  437MOL0     H58994  10.737   0.393   2.032  0.3959 -1.1131  0.7716
  437MOL0     H58995  10.713   0.354   1.778  2.5708 -0.6731 -2.2332
  438MOL0     O58996   6.678   3.068   6.888 -0.0924 -0.6833 -0.2491
  438MOL0     C58997   6.792   3.027   6.887  0.0911 -0.0607  0.0623
  438MOL0     O58998   6.906   3.099   6.894  0.3403 -0.4688  0.5997
  438MOL0     C58999   6.891   3.229   6.939  0.2482 -0.3614  0.0120
  438MOL0     C59000   6.876   3.259   7.080 -0.3915  0.6473  0.4921
  438MOL0     C59001   6.852   3.393   7.115  0.4963 -0.1846  0.3041
  438MOL0     C59002   6.851   3.491   7.015  0.2729 -0.0858  0.0499
  438MOL0     O59003   6.841   3.627   7.032 -0.6205  0.6584 -0.3990
  438MOL0     C59004   6.859   3.677   7.164  0.2968 -0.8791 -0.1815
  438MOL0     C59005   6.757   3.798   7.173  0.1826 -0.1580  0.0340
  438MOL0     C59006   6.619   3.753   7.158  0.3672  0.4397  0.0011
  438MOL0     C59007   6.518   3.864   7.193  0.7746  0.0216  0.3458
  438MOL0     C59008   6.366   3.824   7.193 -1.0109  0.0690 -0.0812
  438MOL0     C59009   6.320   3.783   7.052  0.5511  0.1646  0.7456
  438MOL0     C59010   6.177   3.822   7.013 -0.2939 -0.9654 -0.1341
  438MOL0     C59011   6.068   3.739   7.078  0.4046  1.3449  0.1252
  438MOL0     N59012   5.936   3.796   7.047  0.6276  0.3331 -0.1324
  438MOL0     C59013   5.913   3.916   6.988 -0.1276  0.2546  0.1636
  438MOL0     C59014   5.779   3.925   6.967  0.7121 -0.2399  0.9377
  438MOL0     C59015   5.713   4.059   6.937  0.8082 -0.1731 -0.6201
  438MOL0     C59016   5.616   4.115   7.046 -0.9235 -0.9794  0.0476
  438MOL0     C59017   5.544   4.247   6.993 -0.3655  0.5606 -0.2931
  438MOL0     C59018   5.632   4.353   6.919 -0.1671  0.6960 -0.4342
  438MOL0     O59019   5.745   4.368   6.997  0.0843 -0.3511  0.6356
  438MOL0     C59020   5.853   4.436   6.944  0.4152 -0.2783  0.0825
  438MOL0     C59021   5.849   4.543   6.856  0.2602  0.2442 -0.3544
  438MOL0     C59022   5.961   4.624   6.826  0.6454 -0.7482  0.6342
  438MOL0     C59023   5.932   4.733   6.719  0.0886 -0.2634 -0.6520
  438MOL0     C59024   6.082   4.583   6.868  0.8881 -0.4081  0.2112
  438MOL0     C59025   6.211   4.654   6.822 -0.7391  0.4151 -0.2069
  438MOL0     O59026   6.316   4.572   6.822  0.3542  0.6408  0.7248
  438MOL0     C59027   6.436   4.628   6.862 -0.9694  0.3065 -2.6034
  438MOL0     C59028   6.503   4.731   6.792 -0.4417  0.1821  0.3740
  438MOL0     C59029   6.622   4.786   6.839  0.1770  0.5012 -0.0939
  438MOL0     C59030   6.698   4.732   6.943 -0.0876  0.8365 -0.5941
  438MOL0     O59031   6.817   4.780   6.991  0.8230 -0.0948 -0.0713
  438MOL0     C59032   6.881   4.882   6.900 -0.5650  0.6910 -0.1668
  438MOL0     C59033   7.014   4.928   6.964  0.6208 -0.8481 -1.1967
  438MOL0     C59034   6.992   5.001   7.098  1.0722  0.4539  0.6162
  438MOL0     C59035   7.136   5.038   7.149  0.0091 -0.9164 -0.7951
  438MOL0     C59036   7.132   5.120   7.279 -0.1806  0.4753 -0.7693
  438MOL0     C59037   7.113   5.034   7.413  0.7796 -0.2805  0.3328
  438MOL0     C59038   7.107   5.127   7.528  0.3174 -0.1726  0.4590
  438MOL0     C59039   7.086   5.039   7.657  0.0730 -0.2166  0.0821
  438MOL0    Cl59040   6.910   5.031   7.702  0.2061 -0.6878  0.5528
  438MOL0     C59041   6.640   4.615   7.006 -1.6221 -0.9140  0.5346
  438MOL0     C59042   6.511   4.571   6.968  0.7414  0.4232 -0.1868
  438MOL0     O59043   6.213   4.774   6.788  0.5982  0.2503  0.5904
  438MOL0     C59044   6.092   4.469   6.953 -0.0689  0.5527 -1.4509
  438MOL0     C59045   5.974   4.398   6.996  0.6615 -0.8986  0.3018
  438MOL0     N59046   5.720   3.808   6.997 -0.1760  0.4759 -0.8857
  438MOL0     N59047   5.821   3.727   7.028  0.1988  0.2730 -0.4967
  438MOL0     C59048   6.864   3.456   6.882 -0.5450 -0.2852  0.1429
  438MOL0     C59049   6.888   3.326   6.839 -0.1657 -1.0313  0.4507
  438MOL0     C59050   6.816   2.881   6.866  0.5215 -0.2714  0.7272
  438MOL0     C59051   6.709   2.793   6.887  0.3535  1.1383 -0.1847
  438MOL0     C59052   6.741   2.661   6.865 -0.6294  0.1845  0.3693
  438MOL0     C59053   6.870   2.618   6.839  0.3671  0.2226 -0.3891
  438MOL0     O59054   6.908   2.486   6.829  0.2571  0.1872  0.5338
  438MOL0     C59055   6.799   2.383   6.804 -1.6814 -0.3256  2.2571
  438MOL0     C59056   6.860   2.249   6.769 -0.5276 -0.6377  0.0453
  438MOL0     C59057   6.964   2.183   6.866  0.7723 -0.0739  0.3598
  438MOL0     C59058   7.048   2.286   6.948 -0.5040 -0.3424  0.4228
  438MOL0     C59059   7.127   2.210   7.048 -0.9883 -0.7632 -0.3649
  438MOL0     C59060   7.178   2.135   7.136  0.4680 -0.3022 -0.2601
  438MOL0     C59061   6.970   2.706   6.827  0.0224 -1.1650 -0.4288
  438MOL0     C59062   6.944   2.835   6.841 -0.2818 -0.8790 -0.4342
  438MOL0     H59063   6.867   3.178   7.152  3.0879 -1.0752 -0.7795
  438MOL0     H59064   6.831   3.414   7.220  1.1515 -3.1416  1.1461
  438MOL0     H59065   6.834   3.607   7.244 -1.6742 -0.4155 -0.3467
  438MOL0     H59066   6.959   3.721   7.177 -0.2822 -0.0998  2.0150
  438MOL0     H59067   6.774   3.840   7.273 -1.9375 -0.9283  0.7733
  438MOL0     H59068   6.782   3.869   7.093 -1.2704  2.2127  1.5579
  438MOL0     H59069   6.605   3.735   7.051 -0.0417  4.3242 -0.7253
  438MOL0     H59070   6.601   3.668   7.225 -2.0653 -0.2856 -1.4756
  438MOL0     H59071   6.543   3.902   7.292 -1.4807  0.5679  0.7586
  438MOL0     H59072   6.522   3.946   7.121 -0.6374  0.0422  0.2646
  438MOL0     H59073   6.352   3.740   7.261  1.6060 -1.4640 -1.3022
  438MOL0     H59074   6.303   3.904   7.233 -2.1677  0.3135 -2.2178
  438MOL0     H59075   6.378   3.842   6.981 -2.5776  0.8734 -1.4435
  438MOL0     H59076   6.348   3.678   7.038 -2.3626 -0.5657 -0.4649
  438MOL0     H59077   6.164   3.929   7.032  0.2087 -0.6961 -1.2555
  438MOL0     H59078   6.158   3.818   6.906  1.1451 -1.6902 -0.3844
  438MOL0     H59079   6.095   3.723   7.183  0.7197 -0.4888 -0.2007
  438MOL0     H59080   6.075   3.640   7.032  1.6773  1.8675 -0.8660
  438MOL0     H59081   5.990   3.992   6.975 -0.6864  0.6967 -0.7416
  438MOL0     H59082   5.794   4.132   6.930 -1.4039  2.7824  1.7994
  438MOL0     H59083   5.664   4.049   6.840  1.6787  4.2966 -1.7337
  438MOL0     H59084   5.671   4.130   7.140 -0.3253 -0.9552 -0.2993
  438MOL0     H59085   5.540   4.039   7.066 -0.8527 -0.2128  4.1831
  438MOL0     H59086   5.492   4.289   7.079 -0.0337 -0.3634  0.3836
  438MOL0     H59087   5.465   4.198   6.935  1.6690 -2.7335 -0.5513
  438MOL0     H59088   5.580   4.447   6.902 -0.5367 -0.1046 -5.0734
  438MOL0     H59089   5.668   4.317   6.822  1.0591 -0.0752  0.2763
  438MOL0     H59090   5.757   4.580   6.812  0.0849  0.4763  0.1999
  438MOL0     H59091   6.000   4.722   6.634 -0.2709  1.5031 -1.1992
  438MOL0     H59092   5.835   4.733   6.670  0.6593  0.1851 -1.8082
  438MOL0     H59093   5.940   4.827   6.775  0.6629 -0.6675 -0.0399
  438MOL0     H59094   6.458   4.759   6.697  2.0679 -0.3373 -1.0391
  438MOL0     H59095   6.659   4.874   6.788  0.1749  2.2902  2.7712
  438MOL0     H59096   6.888   4.830   6.804 -3.1568 -0.7648  0.3141
  438MOL0     H59097   6.816   4.968   6.881 -1.6222 -0.6461 -3.4330
  438MOL0     H59098   7.059   4.831   6.989 -0.4307 -1.2324 -0.7654
  438MOL0     H59099   7.081   4.986   6.899 -1.5842  1.8050 -1.2856
  438MOL0     H59100   6.938   4.941   7.172 -0.5801 -1.2285 -1.8076
  438MOL0     H59101   6.925   5.085   7.077 -1.3212 -1.9822 -2.4437
  438MOL0     H59102   7.194   4.948   7.172  2.0418  0.2021 -1.3368
  438MOL0     H59103   7.191   5.102   7.079 -1.6399 -0.6049 -1.8520
  438MOL0     H59104   7.054   5.197   7.272  0.0407  0.7287 -0.4696
  438MOL0     H59105   7.225   5.169   7.308  1.7664 -4.2722  2.0488
  438MOL0     H59106   7.017   4.982   7.405  1.7498 -2.3058  1.2451
  438MOL0     H59107   7.200   4.970   7.433  0.4521 -0.6146  0.7087
  438MOL0     H59108   7.020   5.192   7.522  1.0975  1.1737  2.5610
  438MOL0     H59109   7.200   5.183   7.547 -0.8235  0.8779  3.4954
  438MOL0     H59110   7.140   5.069   7.748 -2.8407 -3.4939  3.2497
  438MOL0     H59111   7.127   4.939   7.639  0.3241  0.3892 -3.3628
  438MOL0     H59112   6.678   4.571   7.098  0.1102 -0.9588 -0.1526
  438MOL0     H59113   6.464   4.480   7.003  1.4401 -0.5095 -1.5532
  438MOL0     H59114   6.194   4.446   6.981 -0.7161  0.0537  0.6698
  438MOL0     H59115   5.977   4.323   7.075 -1.8447  1.2033  2.5748
  438MOL0     H59116   6.865   3.531   6.803 -2.0759 -1.0733 -0.6548
  438MOL0     H59117   6.909   3.291   6.739  0.0102 -0.9273  0.4500
  438MOL0     H59118   6.608   2.830   6.900 -0.7078 -2.1403  2.1864
  438MOL0     H59119   6.664   2.587   6.850 -3.3211  2.6870  0.8312
  438MOL0     H59120   6.740   2.379   6.895 -2.1331  3.6722  2.3282
  438MOL0     H59121   6.737   2.424   6.723  0.2136  0.7783  1.2819
  438MOL0     H59122   6.904   2.263   6.669 -1.5300  3.7876  0.0229
  438MOL0     H59123   6.790   2.168   6.747 -0.7062 -0.0466 -1.7256
  438MOL0     H59124   7.034   2.121   6.810  1.1659 -2.0337  2.8467
  438MOL0     H59125   6.901   2.105   6.909 -0.2955 -1.7582 -3.7920
  438MOL0     H59126   6.986   2.356   7.005 -0.2115  0.2785  0.0021
  438MOL0     H59127   7.114   2.351   6.889 -1.3690  0.7988  0.6623
  438MOL0     H59128   7.227   2.060   7.194  0.1831  0.3785  0.8829
  438MOL0     H59129   7.072   2.675   6.806  0.0492 -2.5652  1.4951
  438MOL0     H59130   7.021   2.909   6.820 -2.5952  1.1519 -2.3587
  439MOL0     O59131   5.907   6.229   5.536 -0.0425  0.6179 -0.3217
  439MOL0     C59132   5.964   6.311   5.466  0.4020  0.2657 -0.9792
  439MOL0     O59133   6.019   6.287   5.345 -0.9762 -0.5245  0.1680
  439MOL0     C59134   6.017   6.164   5.286 -0.1619  0.5200  0.2048
  439MOL0     C59135   6.120   6.129   5.205  0.5103  0.3953 -0.0923
  439MOL0     C59136   6.120   6.008   5.132 -0.3734  0.0700 -0.1015
  439MOL0     C59137   6.013   5.924   5.130 -0.0918  1.3405 -0.3934
  439MOL0     O59138   6.027   5.810   5.056  0.1603  0.0748  1.4163
  439MOL0     C59139   6.111   5.714   5.118  0.9779 -0.1367 -0.4955
  439MOL0     C59140   6.110   5.589   5.033 -0.3404  0.0775  0.5511
  439MOL0     C59141   5.976   5.541   4.975 -0.0156 -0.7487  0.6341
  439MOL0     C59142   5.979   5.458   4.849 -0.7095  0.4048  0.3751
  439MOL0     C59143   5.841   5.425   4.795  0.3147 -0.0550 -0.6133
  439MOL0     C59144   5.847   5.346   4.657  0.5883 -0.0793 -0.8181
  439MOL0     C59145   5.878   5.200   4.694  0.7067 -1.3846  0.8385
  439MOL0     C59146   5.882   5.102   4.571  0.1069  0.1815 -0.1515
  439MOL0     N59147   5.950   4.973   4.608  0.3708  0.0786  0.3429
  439MOL0     C59148   6.086   4.946   4.604  0.0465 -0.2554 -0.1442
  439MOL0     C59149   6.099   4.818   4.628 -0.5303  0.2206 -0.7394
  439MOL0     C59150   6.227   4.739   4.628  0.1320 -0.0773  0.6833
  439MOL0     C59151   6.271   4.739   4.778  1.3319 -0.3102  0.2662
  439MOL0     C59152   6.386   4.642   4.805 -0.8859 -0.4880 -0.1230
  439MOL0     C59153   6.357   4.496   4.791  0.5583 -0.4485  0.9999
  439MOL0     O59154   6.275   4.484   4.908 -1.0100 -0.1089  0.1119
  439MOL0     C59155   6.193   4.370   4.916 -0.7326  0.6155  0.6512
  439MOL0     C59156   6.157   4.340   5.049 -0.1469 -0.2613  0.0472
  439MOL0     C59157   6.091   4.226   5.083 -0.0840  1.1664 -0.3147
  439MOL0     C59158   6.077   4.191   5.231 -0.5170  0.3095 -0.2108
  439MOL0     C59159   6.042   4.145   4.983  0.3937 -0.3723  0.4351
  439MOL0     C59160   5.969   4.016   4.996  0.4107  0.5042  1.2220
  439MOL0     O59161   5.975   3.918   4.898  0.4734  0.2928 -0.4846
  439MOL0     C59162   5.910   3.797   4.901  0.4631  0.7798 -0.0238
  439MOL0     C59163   5.897   3.728   5.022 -0.6460 -0.5134  0.7341
  439MOL0     C59164   5.840   3.599   5.029  0.4045 -0.8046  0.8582
  439MOL0     C59165   5.786   3.542   4.912  0.2887 -0.2429  0.4303
  439MOL0     O59166   5.732   3.414   4.898 -0.3303 -0.0731 -0.3735
  439MOL0     C59167   5.682   3.336   5.010 -0.6294  1.1062 -0.6380
  439MOL0     C59168   5.606   3.215   4.961  0.1852  0.4268 -0.0982
  439MOL0     C59169   5.458   3.239   4.897 -0.3290  0.1587  1.3059
  439MOL0     C59170   5.457   3.292   4.754 -0.5360 -0.0460  0.2265
  439MOL0     C59171   5.326   3.249   4.673  0.0954 -0.6430 -0.0390
  439MOL0     C59172   5.330   3.114   4.607 -0.4328  0.2321  0.3087
  439MOL0     C59173   5.210   3.083   4.522 -0.4722 -0.9360 -0.5939
  439MOL0     C59174   5.095   3.022   4.597 -0.1277 -0.0840  0.0337
  439MOL0    Cl59175   5.127   2.852   4.641  0.1366 -0.1409 -0.0859
  439MOL0     C59176   5.790   3.618   4.793  0.0176  0.3670  0.1874
  439MOL0     C59177   5.851   3.741   4.784  0.1739 -0.5994 -0.0260
  439MOL0     O59178   5.893   4.014   5.090  0.4016  0.1230 -0.6063
  439MOL0     C59179   6.083   4.176   4.851  0.3115  0.4745 -0.4518
  439MOL0     C59180   6.156   4.288   4.819 -1.3314  1.2732 -0.1766
  439MOL0     N59181   5.984   4.762   4.657  0.2969 -0.5110 -0.5059
  439MOL0     N59182   5.893   4.853   4.647 -0.2008 -0.2673 -0.9746
  439MOL0     C59183   5.899   5.955   5.206 -1.0448  0.0169 -0.1291
  439MOL0     C59184   5.905   6.077   5.289 -0.9377  0.3596 -0.5034
  439MOL0     C59185   5.983   6.451   5.504  0.2932  0.0896  0.0270
  439MOL0     C59186   5.921   6.493   5.624 -0.2324  0.5299 -0.3333
  439MOL0     C59187   5.920   6.629   5.665 -0.7037  1.1607 -0.9459
  439MOL0     C59188   5.970   6.725   5.584  0.0056 -0.7481 -0.5276
  439MOL0     O59189   5.959   6.851   5.635 -0.0866 -0.1579 -0.0666
  439MOL0     C59190   6.063   6.941   5.613 -0.3698 -0.8965  0.4731
  439MOL0     C59191   6.040   7.048   5.720  0.5645 -0.5252  0.1486
  439MOL0     C59192   5.903   7.112   5.706  0.0715  0.3033 -0.7064
  439MOL0     C59193   5.893   7.237   5.777 -0.0418  0.0930 -0.9981
  439MOL0     C59194   5.973   7.337   5.709 -0.2263 -0.7315  0.2274
  439MOL0     C59195   6.037   7.427   5.667 -0.2931 -0.4986 -0.4504
  439MOL0     C59196   6.032   6.686   5.469 -0.9864  0.5465  0.7084
  439MOL0     C59197   6.034   6.554   5.425 -0.2873  0.0460  0.0830
  439MOL0     H59198   6.209   6.192   5.206  0.8954 -0.1545  0.8362
  439MOL0     H59199   6.205   5.964   5.079 -2.0603 -2.3621 -0.9982
  439MOL0     H59200   6.217   5.738   5.128  1.7184 -1.4802 -3.6800
  439MOL0     H59201   6.078   5.692   5.220  0.4166  0.5405 -0.5229
  439MOL0     H59202   6.172   5.615   4.946  1.3940 -3.6359  0.4825
  439MOL0     H59203   6.166   5.506   5.076  0.0609  1.2054  2.2824
  439MOL0     H59204   5.927   5.488   5.057 -0.5178  0.2335  0.9874
  439MOL0     H59205   5.913   5.631   4.965 -0.7733 -0.9730  2.8341
  439MOL0     H59206   6.021   5.515   4.766  1.7583  1.0309  1.9507
  439MOL0     H59207   6.029   5.363   4.869  0.7151  1.1612  0.4943
  439MOL0     H59208   5.793   5.365   4.872  0.8486 -0.4554 -0.5889
  439MOL0     H59209   5.782   5.515   4.776  1.5667  0.3617 -3.0682
  439MOL0     H59210   5.755   5.344   4.597 -0.5719 -0.6907  0.9112
  439MOL0     H59211   5.920   5.403   4.599  0.6734  0.9210  0.2439
  439MOL0     H59212   5.973   5.190   4.748  2.4179 -0.1489 -1.7437
  439MOL0     H59213   5.801   5.170   4.766 -0.9489 -1.8687 -1.0382
  439MOL0     H59214   5.921   5.148   4.480 -0.2272  1.8546  0.5056
  439MOL0     H59215   5.778   5.074   4.551  0.6385 -1.0045 -1.3676
  439MOL0     H59216   6.170   5.013   4.588  0.5141  1.2529  6.1399
  439MOL0     H59217   6.209   4.636   4.596 -0.5290  0.5693 -1.0879
  439MOL0     H59218   6.300   4.787   4.562 -1.0019  0.1073 -0.4547
  439MOL0     H59219   6.191   4.721   4.851  2.0325  2.6257  1.9324
  439MOL0     H59220   6.304   4.838   4.811  0.5153 -0.5984  2.1080
  439MOL0     H59221   6.409   4.665   4.909 -0.7442 -1.1115 -0.0118
  439MOL0     H59222   6.473   4.672   4.745 -1.6346  2.5988  0.1845
  439MOL0     H59223   6.437   4.421   4.789 -0.7620 -1.9204  1.4574
  439MOL0     H59224   6.297   4.474   4.703 -0.3517  0.2008  1.4463
  439MOL0     H59225   6.202   4.403   5.125 -0.3969  1.5754 -1.2617
  439MOL0     H59226   6.065   4.087   5.261  2.2084  0.1538  0.5957
  439MOL0     H59227   6.165   4.232   5.281  2.0133 -1.4472 -2.9066
  439MOL0     H59228   5.987   4.249   5.255 -1.0630 -0.1674 -1.0619
  439MOL0     H59229   5.947   3.764   5.111  0.2270  2.6123 -0.8991
  439MOL0     H59230   5.848   3.535   5.116  1.0529 -1.7841  0.1111
  439MOL0     H59231   5.756   3.299   5.082 -1.3170 -1.2253 -1.0284
  439MOL0     H59232   5.622   3.403   5.073  0.6475  0.9928  0.7515
  439MOL0     H59233   5.667   3.160   4.888  0.7203 -0.0154  0.6724
  439MOL0     H59234   5.592   3.146   5.045 -1.0626  1.0234  0.2147
  439MOL0     H59235   5.399   3.303   4.963 -1.9980  0.6397 -0.5590
  439MOL0     H59236   5.402   3.145   4.890  1.0417 -0.5805 -2.9725
  439MOL0     H59237   5.460   3.401   4.753  1.1480 -0.0422 -1.5839
  439MOL0     H59238   5.543   3.257   4.695 -1.3354 -0.3065 -0.8115
  439MOL0     H59239   5.313   3.322   4.592  1.8675 -0.5770 -0.3062
  439MOL0     H59240   5.239   3.255   4.740 -0.6032  3.2175 -1.0159
  439MOL0     H59241   5.413   3.118   4.535 -0.2285  3.2271  0.5799
  439MOL0     H59242   5.339   3.031   4.677 -1.4540 -1.5249 -1.5341
  439MOL0     H59243   5.240   3.016   4.441  2.9334 -1.4095  0.8760
  439MOL0     H59244   5.173   3.175   4.476  0.9247 -0.3730 -0.6304
  439MOL0     H59245   5.006   3.009   4.535  0.5497 -1.0433 -0.7544
  439MOL0     H59246   5.070   3.082   4.685  0.7133 -1.2373  1.0817
  439MOL0     H59247   5.748   3.578   4.701  0.5886 -1.6812  0.7469
  439MOL0     H59248   5.853   3.803   4.695  2.0149 -1.5576 -0.6986
  439MOL0     H59249   6.065   4.106   4.770 -0.1166  0.4696 -0.3508
  439MOL0     H59250   6.184   4.288   4.714  1.8833  0.9580  0.5461
  439MOL0     H59251   5.808   5.896   5.203  0.1204 -1.7899 -1.6907
  439MOL0     H59252   5.828   6.096   5.363  0.1000 -1.6141  1.1885
  439MOL0     H59253   5.871   6.425   5.692 -0.2192  1.1237  0.2772
  439MOL0     H59254   5.868   6.657   5.756 -0.0739  1.0470 -0.5477
  439MOL0     H59255   6.164   6.899   5.609 -0.0091  0.0515 -2.2536
  439MOL0     H59256   6.064   6.988   5.514  3.1854  0.5382  1.0363
  439MOL0     H59257   6.118   7.121   5.698 -0.9709  1.4826  1.0040
  439MOL0     H59258   6.035   6.994   5.815 -2.8698 -4.3706 -1.9136
  439MOL0     H59259   5.835   7.040   5.752  0.5424  2.7080  4.3822
  439MOL0     H59260   5.868   7.122   5.602 -2.3278 -0.8404 -0.0928
  439MOL0     H59261   5.940   7.222   5.875  1.2651  2.0145 -1.2883
  439MOL0     H59262   5.789   7.261   5.797 -0.3850  0.3092 -2.8823
  439MOL0     H59263   6.078   7.515   5.624  0.1876 -1.5233 -2.1861
  439MOL0     H59264   6.078   6.769   5.416 -1.0376 -0.2500 -0.6076
  439MOL0     H59265   6.087   6.516   5.338  5.2243 -1.3328  3.5092
  440MOL0     O59266   8.667   8.237  10.442 -0.4643 -0.9855  0.6332
  440MOL0     C59267   8.638   8.356  10.408  0.0092  0.9941  0.3454
  440MOL0     O59268   8.639   8.461  10.495 -0.3482 -0.4399  0.6273
  440MOL0     C59269   8.661   8.428  10.631 -0.1964 -0.2255  0.1357
  440MOL0     C59270   8.782   8.463  10.693  0.8154  0.5040 -0.2916
  440MOL0     C59271   8.791   8.429  10.834 -0.6927  0.7070  0.3657
  440MOL0     C59272   8.688   8.370  10.905 -0.1691  0.3012 -0.1857
  440MOL0     O59273   8.697   8.355  11.040  0.0403 -0.1693 -0.2934
  440MOL0     C59274   8.579   8.298  11.102 -0.0591  0.5918 -0.3340
  440MOL0     C59275   8.631   8.264  11.245  0.1871  0.0408 -0.0940
  440MOL0     C59276   8.509   8.269  11.342  0.2934 -0.1943 -0.3224
  440MOL0     C59277   8.534   8.195  11.472 -0.0944  0.1812 -0.0659
  440MOL0     C59278   8.597   8.268  11.592  0.2886 -0.5279 -1.2805
  440MOL0     C59279   8.582   8.178  11.716 -0.3506  0.1746  0.4644
  440MOL0     C59280   8.635   8.221  11.856  0.2133  0.1696  0.4782
  440MOL0     C59281   8.593   8.113  11.961  0.0321 -0.5660 -0.0075
  440MOL0     N59282   8.618   8.147  12.106  0.2490 -0.7593 -0.1490
  440MOL0     C59283   8.521   8.213  12.184  0.1935 -0.4984 -1.1580
  440MOL0     C59284   8.590   8.245  12.296  0.6390  0.4698  0.6521
  440MOL0     C59285   8.518   8.295  12.418 -0.2210 -0.2470 -0.0032
  440MOL0     C59286   8.607   8.339  12.534 -0.4005  0.3192  0.5794
  440MOL0     C59287   8.510   8.397  12.641  0.6372  0.0595 -0.0595
  440MOL0     C59288   8.584   8.422  12.774 -0.0263  0.6894 -0.5257
  440MOL0     O59289   8.493   8.477  12.872  0.7649  0.0114 -0.7094
  440MOL0     C59290   8.478   8.613  12.881 -0.1256  1.8049  0.6007
  440MOL0     C59291   8.589   8.684  12.914 -0.2869 -0.6623 -0.7773
  440MOL0     C59292   8.584   8.829  12.925 -1.3550  0.2434 -0.7679
  440MOL0     C59293   8.710   8.909  12.950 -1.2957 -0.0918 -0.0097
  440MOL0     C59294   8.461   8.898  12.908 -1.3330  0.8710 -0.5588
  440MOL0     C59295   8.454   9.040  12.898  1.0259 -0.9777  0.3494
  440MOL0     O59296   8.521   9.105  12.804 -0.0918  0.5573 -0.1855
  440MOL0     C59297   8.526   9.238  12.781  0.9472  0.3772  0.3769
  440MOL0     C59298   8.410   9.321  12.800 -1.1502 -0.8276  0.5948
  440MOL0     C59299   8.420   9.459  12.758 -0.7575 -1.2481 -0.1632
  440MOL0     C59300   8.538   9.511  12.703  0.7077  0.3242  1.2649
  440MOL0     O59301   8.528   9.639  12.674  0.4130  0.4903 -0.0033
  440MOL0     C59302   8.580   9.705  12.551  0.3193 -0.0198 -0.0891
  440MOL0     C59303   8.706   9.782  12.586 -0.7767  0.4495  0.7773
  440MOL0     C59304   8.783   9.800  12.453 -0.6157  0.7850  0.0093
  440MOL0     C59305   8.896   9.900  12.469 -0.0744  0.6687  0.3682
  440MOL0     C59306   8.945   9.956  12.332  0.5128 -0.8876  0.6288
  440MOL0     C59307   9.024  10.084  12.359  1.2344  1.4405 -0.0576
  440MOL0     C59308   9.065  10.176  12.249  0.8232 -0.4965 -0.5796
  440MOL0     C59309   8.958  10.245  12.168  0.4858 -0.5181 -0.0043
  440MOL0    Cl59310   8.867  10.376  12.248 -0.3882  0.0369 -0.1539
  440MOL0     C59311   8.636   9.426  12.669 -0.0782  0.6198 -0.3611
  440MOL0     C59312   8.639   9.287  12.717 -0.8794 -0.4999 -0.4333
  440MOL0     O59313   8.376   9.096  12.970 -0.5152  0.2397  0.6528
  440MOL0     C59314   8.349   8.818  12.876  0.1697 -0.2406 -0.0122
  440MOL0     C59315   8.354   8.674  12.868 -0.3066 -0.6685 -0.9007
  440MOL0     N59316   8.720   8.203  12.283  0.9054 -0.4185 -0.3567
  440MOL0     N59317   8.741   8.151  12.165  0.4216 -0.0787  0.5282
  440MOL0     C59318   8.569   8.338  10.831  0.1737  0.2024  0.8767
  440MOL0     C59319   8.559   8.369  10.699  0.9283 -0.6033  0.7037
  440MOL0     C59320   8.613   8.370  10.265  0.8869  0.4574 -0.2565
  440MOL0     C59321   8.589   8.500  10.211 -0.4600  0.1952 -0.2197
  440MOL0     C59322   8.562   8.517  10.072  0.1068  0.2476 -0.0832
  440MOL0     C59323   8.554   8.406   9.986  0.8485  0.7023  0.3726
  440MOL0     O59324   8.519   8.440   9.858  0.3491  0.3287 -0.1124
  440MOL0     C59325   8.524   8.336   9.763  0.1792  0.3534 -1.0303
  440MOL0     C59326   8.518   8.412   9.636 -1.3440 -0.1008 -0.2094
  440MOL0     C59327   8.393   8.487   9.610 -0.4679 -0.6119 -0.8559
  440MOL0     C59328   8.397   8.582   9.493  0.0947  0.3933  1.2682
  440MOL0     C59329   8.491   8.685   9.515 -0.5186 -0.5407 -0.3349
  440MOL0     C59330   8.584   8.766   9.521 -0.4610 -0.2019 -1.0840
  440MOL0     C59331   8.581   8.282  10.037  0.1783  0.8047  0.1018
  440MOL0     C59332   8.608   8.261  10.171 -0.8655 -0.0583  0.6364
  440MOL0     H59333   8.849   8.520  10.629  0.0762 -0.8094 -2.3186
  440MOL0     H59334   8.869   8.485  10.885  1.5328  0.0049 -2.0810
  440MOL0     H59335   8.497   8.370  11.095 -1.5708 -1.0146  0.1726
  440MOL0     H59336   8.547   8.208  11.050  1.7208  1.7432 -3.7064
  440MOL0     H59337   8.688   8.170  11.246 -1.3211 -0.9548 -1.5725
  440MOL0     H59338   8.699   8.340  11.283 -0.2293  0.7335 -0.7192
  440MOL0     H59339   8.507   8.375  11.369  1.1200 -0.1177 -0.5531
  440MOL0     H59340   8.410   8.236  11.308 -0.6644  0.1503  1.9428
  440MOL0     H59341   8.431   8.168  11.495  0.5600 -0.9674  1.8327
  440MOL0     H59342   8.586   8.100  11.453  0.2809  0.1334  1.0834
  440MOL0     H59343   8.703   8.287  11.571 -0.0398 -0.3017 -2.8912
  440MOL0     H59344   8.531   8.355  11.604 -0.9635 -1.8683  2.9409
  440MOL0     H59345   8.480   8.142  11.731  0.6349 -1.8350  3.0977
  440MOL0     H59346   8.645   8.096  11.681 -0.0020  0.7774 -0.3586
  440MOL0     H59347   8.744   8.223  11.848  0.2245 -0.3076  0.5385
  440MOL0     H59348   8.591   8.317  11.887 -0.6848 -0.0369 -0.1223
  440MOL0     H59349   8.648   8.020  11.942 -1.7296 -2.0140  1.6606
  440MOL0     H59350   8.487   8.090  11.955  0.7916 -4.3658 -2.5241
  440MOL0     H59351   8.413   8.220  12.174  0.3579  0.2934 -2.7089
  440MOL0     H59352   8.462   8.384  12.389  3.0503  1.8560 -0.4305
  440MOL0     H59353   8.448   8.218  12.450  1.3993 -3.2330 -3.0434
  440MOL0     H59354   8.682   8.415  12.514  1.2363 -1.5898 -1.0786
  440MOL0     H59355   8.664   8.252  12.568  0.4109  0.4742 -0.3421
  440MOL0     H59356   8.427   8.329  12.663  1.7302 -2.0776 -2.0941
  440MOL0     H59357   8.461   8.487  12.601 -1.3064 -1.8638 -2.3737
  440MOL0     H59358   8.678   8.475  12.753  1.0450 -1.0663 -0.3216
  440MOL0     H59359   8.617   8.323  12.807 -0.1438 -0.1037 -2.6563
  440MOL0     H59360   8.677   8.623  12.934 -1.5046 -2.0228  0.6765
  440MOL0     H59361   8.711   8.996  13.015  3.4424 -1.1578  1.7517
  440MOL0     H59362   8.797   8.848  12.977 -1.6412 -0.6009 -0.0305
  440MOL0     H59363   8.749   8.951  12.856  2.0192  0.8289  1.6349
  440MOL0     H59364   8.317   9.279  12.840 -0.4515 -2.7577  0.2977
  440MOL0     H59365   8.337   9.528  12.769  0.5996  0.3961  0.1395
  440MOL0     H59366   8.590   9.631  12.472 -2.1128  1.2221 -1.7150
  440MOL0     H59367   8.511   9.784  12.518  0.4218 -0.4108 -1.2461
  440MOL0     H59368   8.680   9.879  12.629 -2.3296  1.3475 -1.9411
  440MOL0     H59369   8.765   9.731  12.663  1.5162 -0.5027 -1.4723
  440MOL0     H59370   8.713   9.839  12.378 -2.1005  1.9889  1.9116
  440MOL0     H59371   8.817   9.703  12.417 -2.2750 -0.5564  1.8291
  440MOL0     H59372   8.846   9.975  12.531 -2.4137  0.1062 -0.7440
  440MOL0     H59373   8.983   9.863  12.524  2.2384  0.3188 -3.1995
  440MOL0     H59374   8.858   9.984  12.273  1.6970  1.4112 -0.1650
  440MOL0     H59375   9.009   9.882  12.283  2.6033 -0.7199  2.9187
  440MOL0     H59376   8.965  10.142  12.429  1.4155 -1.0844  2.3732
  440MOL0     H59377   9.117  10.048  12.405  1.0198  0.9373 -0.0122
  440MOL0     H59378   9.126  10.120  12.177  3.5486  1.2360  0.2537
  440MOL0     H59379   9.119  10.261  12.292  3.4402 -1.6065 -1.4857
  440MOL0     H59380   8.887  10.171  12.128 -2.4233  2.3175 -0.4526
  440MOL0     H59381   9.014  10.298  12.091 -0.5377 -0.5586 -0.7860
  440MOL0     H59382   8.730   9.470  12.638  3.0076 -3.1198  2.6831
  440MOL0     H59383   8.727   9.227  12.695 -2.5401 -2.2801 -2.7763
  440MOL0     H59384   8.254   8.863  12.851  1.2404  2.8887  1.0753
  440MOL0     H59385   8.265   8.615  12.849 -0.0377 -1.2491 -0.3708
  440MOL0     H59386   8.483   8.290  10.877 -0.1934 -0.7078 -0.6989
  440MOL0     H59387   8.462   8.340  10.660  0.8460  2.1698 -1.4409
  440MOL0     H59388   8.574   8.580  10.283 -1.1874 -1.6156  1.7674
  440MOL0     H59389   8.528   8.615  10.041 -0.9945  0.0270  0.3777
  440MOL0     H59390   8.613   8.273   9.770  0.6998  1.1647 -0.0228
  440MOL0     H59391   8.426   8.288   9.774 -1.5889  3.7192 -0.5118
  440MOL0     H59392   8.549   8.351   9.550 -1.3683  1.2937 -1.2601
  440MOL0     H59393   8.589   8.494   9.647 -1.2420  0.1489 -2.3245
  440MOL0     H59394   8.369   8.555   9.693  1.4464  1.7651 -2.1056
  440MOL0     H59395   8.310   8.418   9.596 -1.3575  0.5511 -1.5145
  440MOL0     H59396   8.302   8.633   9.477  0.6060  1.3520  1.1431
  440MOL0     H59397   8.437   8.534   9.403 -0.6673 -0.3509  1.3242
  440MOL0     H59398   8.641   8.853   9.548 -3.0823  1.6636 -1.1042
  440MOL0     H59399   8.581   8.193   9.975 -0.6004 -1.4498  3.1036
  440MOL0     H59400   8.641   8.162  10.202 -1.9394 -0.7312 -0.2729
  441MOL0     O59401   6.389   9.330   9.520 -0.0544  0.4300 -0.0411
  441MOL0     C59402   6.419   9.414   9.602 -0.3736 -0.3874 -0.3770
  441MOL0     O59403   6.497   9.389   9.706 -0.1479  1.2043 -0.2713
  441MOL0     C59404   6.520   9.257   9.733 -0.6847 -0.2057 -0.4364
  441MOL0     C59405   6.622   9.193   9.660 -0.4781  0.2011  0.2109
  441MOL0     C59406   6.660   9.058   9.684  0.8425  0.1333 -0.2488
  441MOL0     C59407   6.578   8.992   9.779  0.3555  1.0404  0.6060
  441MOL0     O59408   6.604   8.856   9.808 -0.3063  0.5355 -0.0996
  441MOL0     C59409   6.590   8.804   9.944  0.4356 -0.5942  1.2107
  441MOL0     C59410   6.670   8.678   9.964 -0.3237 -0.4624 -0.0199
  441MOL0     C59411   6.823   8.685   9.940  0.5802 -0.4487 -0.3381
  441MOL0     C59412   6.869   8.544   9.987  0.1979  1.1553  1.0333
  441MOL0     C59413   7.007   8.520   9.933 -0.4653 -0.5882 -0.2752
  441MOL0     C59414   7.055   8.384   9.967 -0.0386  0.2189 -0.4475
  441MOL0     C59415   6.997   8.274   9.891 -0.4726 -0.3490  0.3864
  441MOL0     C59416   7.066   8.140   9.921  0.2319 -0.6241  0.3059
  441MOL0     N59417   6.992   8.021   9.873 -0.0069 -0.0625 -0.5168
  441MOL0     C59418   6.909   7.980   9.764 -0.5074  0.2723  0.5212
  441MOL0     C59419   6.849   7.863   9.803 -0.2205 -0.2965  0.6827
  441MOL0     C59420   6.755   7.771   9.722  0.2870  0.8029 -0.1250
  441MOL0     C59421   6.826   7.664   9.640 -0.4147 -0.5017  0.0707
  441MOL0     C59422   6.928   7.709   9.532  0.5698 -0.6126 -0.6671
  441MOL0     C59423   6.956   7.607   9.413 -0.1832 -0.1563 -0.2510
  441MOL0     O59424   6.846   7.599   9.322 -0.4537  0.1944 -0.1742
  441MOL0     C59425   6.790   7.699   9.252  0.5512 -0.3450 -0.6458
  441MOL0     C59426   6.849   7.828   9.234 -0.5390 -0.3511 -0.4565
  441MOL0     C59427   6.771   7.932   9.167  0.3198  1.1264  0.6843
  441MOL0     C59428   6.836   8.065   9.140  0.7894  0.1858 -0.0044
  441MOL0     C59429   6.643   7.899   9.115 -1.1819 -0.4330 -0.3903
  441MOL0     C59430   6.556   7.993   9.042 -0.7933  0.7826 -1.0096
  441MOL0     O59431   6.610   8.026   8.923 -0.3111 -0.4148 -1.0737
  441MOL0     C59432   6.554   8.115   8.838 -0.1706  0.5521  0.0720
  441MOL0     C59433   6.417   8.144   8.826  0.4194  1.0271 -0.7124
  441MOL0     C59434   6.365   8.246   8.742 -0.0025 -0.5538 -0.7562
  441MOL0     C59435   6.460   8.329   8.670  0.8366  0.1326 -0.5131
  441MOL0     O59436   6.433   8.432   8.584 -0.5677 -0.5588 -0.6045
  441MOL0     C59437   6.292   8.458   8.561  0.1179 -1.0548  0.8436
  441MOL0     C59438   6.276   8.562   8.451  0.1066 -0.2262 -0.0471
  441MOL0     C59439   6.301   8.496   8.312 -0.5414  0.2323 -0.8158
  441MOL0     C59440   6.328   8.599   8.191 -0.0540 -0.1113  0.5019
  441MOL0     C59441   6.347   8.522   8.063 -0.4796 -0.5309  0.6412
  441MOL0     C59442   6.478   8.439   8.027 -0.2733 -0.4118  0.0862
  441MOL0     C59443   6.464   8.359   7.901 -0.8598  0.0892  0.6638
  441MOL0     C59444   6.502   8.423   7.771 -0.3111  0.4543 -0.0147
  441MOL0    Cl59445   6.349   8.490   7.694 -0.1273 -0.2276  0.1164
  441MOL0     C59446   6.595   8.279   8.667  0.5952 -0.9409 -0.6617
  441MOL0     C59447   6.646   8.183   8.749  0.1536  0.3236 -0.0241
  441MOL0     O59448   6.460   8.048   9.096 -0.0589  0.5588  0.2692
  441MOL0     C59449   6.597   7.768   9.117 -0.2723 -0.3343 -0.6586
  441MOL0     C59450   6.673   7.668   9.183  0.5145  0.2352 -0.0077
  441MOL0     N59451   6.883   7.834   9.925 -0.0691  0.0762 -0.1617
  441MOL0     N59452   6.979   7.913   9.960  0.9723 -0.8402 -0.3915
  441MOL0     C59453   6.488   9.062   9.860  0.4624 -0.6834  0.2841
  441MOL0     C59454   6.452   9.192   9.834 -0.1867 -0.1589  0.2106
  441MOL0     C59455   6.379   9.553   9.585 -0.4222 -0.2267  0.7560
  441MOL0     C59456   6.404   9.617   9.459  0.9618  1.3116 -0.8772
  441MOL0     C59457   6.362   9.745   9.441  0.6245 -0.0448 -0.4881
  441MOL0     C59458   6.303   9.826   9.540  0.0220 -0.1111 -0.9758
  441MOL0     O59459   6.246   9.940   9.499  0.7045 -0.4594  0.3397
  441MOL0     C59460   6.188  10.021   9.609  0.3858  0.1161  1.3299
  441MOL0     C59461   6.133  10.148   9.556  0.8910 -0.1278  0.0666
  441MOL0     C59462   6.086  10.250   9.670 -0.1818  0.2162 -0.4665
  441MOL0     C59463   6.009  10.367   9.612  0.2943  0.4278 -0.5899
  441MOL0     C59464   6.010  10.479   9.703  0.1428  0.0947 -1.1469
  441MOL0     C59465   6.020  10.577   9.779 -0.0351 -0.4550 -0.5463
  441MOL0     C59466   6.297   9.766   9.671  0.4522  0.0702  0.3109
  441MOL0     C59467   6.324   9.629   9.689  0.3037 -0.9671 -0.1705
  441MOL0     H59468   6.663   9.251   9.577 -1.6374 -2.5180 -2.4770
  441MOL0     H59469   6.746   9.009   9.641  0.6223  0.4225 -1.0305
  441MOL0     H59470   6.642   8.880  10.004 -0.6360  1.6013 -0.4712
  441MOL0     H59471   6.485   8.803   9.976 -0.6482 -3.7080 -1.8774
  441MOL0     H59472   6.658   8.658  10.071  1.5909  0.2860  0.3721
  441MOL0     H59473   6.628   8.596   9.904  0.4548 -0.2974 -0.8068
  441MOL0     H59474   6.851   8.713   9.838  2.8015  1.3144  0.6510
  441MOL0     H59475   6.868   8.761  10.005  0.7901  0.7536 -1.8138
  441MOL0     H59476   6.881   8.538  10.095  3.4600 -0.7740  0.7008
  441MOL0     H59477   6.802   8.464   9.954 -0.2675  1.4197  1.3403
  441MOL0     H59478   7.020   8.532   9.825  3.1175  2.4477  0.2727
  441MOL0     H59479   7.070   8.592   9.986 -2.5406  0.7880  0.4429
  441MOL0     H59480   7.163   8.387   9.958  0.2234 -0.4125  1.8354
  441MOL0     H59481   7.038   8.352  10.071  6.4769 -3.3588  0.0572
  441MOL0     H59482   6.890   8.258   9.907 -1.0361  1.5566 -1.1812
  441MOL0     H59483   7.023   8.303   9.789 -0.0515 -1.6127  0.1163
  441MOL0     H59484   7.077   8.131  10.029 -3.6171  1.2691  1.0118
  441MOL0     H59485   7.161   8.140   9.865  0.3891 -1.7553  0.5551
  441MOL0     H59486   6.897   8.025   9.665 -0.7348 -1.9658 -0.5256
  441MOL0     H59487   6.692   7.711   9.789  0.5763  0.7799  0.1268
  441MOL0     H59488   6.690   7.836   9.663  0.4143  1.4476  0.4262
  441MOL0     H59489   6.745   7.612   9.588 -2.0609  1.3489  0.6316
  441MOL0     H59490   6.890   7.601   9.702 -0.4627 -0.5581  0.0632
  441MOL0     H59491   7.021   7.735   9.585 -1.0476  1.2216  1.4826
  441MOL0     H59492   6.898   7.811   9.506  0.3906  0.2843  2.6469
  441MOL0     H59493   6.976   7.506   9.453 -1.0113 -0.0831  0.3622
  441MOL0     H59494   7.048   7.641   9.364  0.2915 -1.6146 -0.4551
  441MOL0     H59495   6.950   7.848   9.267 -0.7345 -1.4658  0.9229
  441MOL0     H59496   6.905   8.088   9.221 -0.7308  0.2300  1.3234
  441MOL0     H59497   6.895   8.071   9.048 -0.6511 -1.0810 -1.0570
  441MOL0     H59498   6.751   8.132   9.152 -0.6895 -2.0963  4.6145
  441MOL0     H59499   6.333   8.102   8.880 -0.3547 -0.9408 -3.2574
  441MOL0     H59500   6.261   8.276   8.754  0.5269  0.2584  2.9204
  441MOL0     H59501   6.231   8.368   8.553 -1.0495 -0.7023  4.1967
  441MOL0     H59502   6.251   8.497   8.654 -1.7928 -1.1903  0.1094
  441MOL0     H59503   6.179   8.611   8.463  0.8054  2.1213 -2.8832
  441MOL0     H59504   6.349   8.643   8.463  1.2603 -1.5154  2.2023
  441MOL0     H59505   6.205   8.444   8.300  0.1683 -0.8384 -2.0995
  441MOL0     H59506   6.372   8.413   8.315 -1.8574 -0.9477 -0.8975
  441MOL0     H59507   6.235   8.655   8.178 -1.1688 -1.7264  1.1423
  441MOL0     H59508   6.407   8.673   8.209  0.2363 -0.1521 -0.5459
  441MOL0     H59509   6.323   8.593   7.983 -0.4033 -2.2716 -0.9991
  441MOL0     H59510   6.271   8.443   8.065  1.2850 -2.3264  3.0443
  441MOL0     H59511   6.563   8.508   8.022  0.1753 -0.7699  2.1485
  441MOL0     H59512   6.489   8.385   8.121 -2.8949 -1.4546 -0.1056
  441MOL0     H59513   6.361   8.324   7.889 -0.0919 -2.0627 -0.2485
  441MOL0     H59514   6.515   8.264   7.921 -3.4245 -1.5084  0.1041
  441MOL0     H59515   6.548   8.348   7.706 -1.2396  0.3611 -0.5796
  441MOL0     H59516   6.592   8.478   7.799  0.1443  0.1531 -0.8586
  441MOL0     H59517   6.669   8.320   8.598 -0.0061 -1.5277 -1.6693
  441MOL0     H59518   6.748   8.147   8.747  0.2600  0.3925  2.3496
  441MOL0     H59519   6.502   7.743   9.071  0.4668 -1.3430 -1.6869
  441MOL0     H59520   6.631   7.569   9.193  1.8566 -0.4710 -1.0732
  441MOL0     H59521   6.428   9.021   9.941 -0.1715  3.3072  2.0789
  441MOL0     H59522   6.382   9.252   9.892 -1.6966 -1.2435 -0.4344
  441MOL0     H59523   6.432   9.554   9.376  0.6102  3.1198 -2.4324
  441MOL0     H59524   6.367   9.770   9.336 -2.9059 -0.8130 -0.9576
  441MOL0     H59525   6.115   9.960   9.665  1.6764 -1.0060  1.8584
  441MOL0     H59526   6.273  10.042   9.675  2.6343  0.0547 -1.3942
  441MOL0     H59527   6.048  10.123   9.492  0.3426 -0.7976  1.0274
  441MOL0     H59528   6.208  10.201   9.498  1.5713 -0.7088  0.4026
  441MOL0     H59529   6.169  10.278   9.735 -2.1981 -1.7115  3.3395
  441MOL0     H59530   6.020  10.200   9.742  1.6470 -0.8884  0.5082
  441MOL0     H59531   5.909  10.335   9.581 -0.0934  2.5152 -1.7010
  441MOL0     H59532   6.056  10.403   9.520  0.8939  1.4390  0.0972
  441MOL0     H59533   6.028  10.666   9.837  1.8031  1.1871 -3.0932
  441MOL0     H59534   6.264   9.834   9.749  0.4072 -0.4172  0.7251
  441MOL0     H59535   6.301   9.598   9.791 -2.0608  0.4763 -0.1849
  442MOL0     O59536   6.161  10.607  10.136  0.3410  0.1756 -0.2912
  442MOL0     C59537   6.119  10.713  10.093  0.0238 -0.4108  0.1317
  442MOL0     O59538   6.192  10.814  10.041 -0.4200 -0.1295 -0.2753
  442MOL0     C59539   6.318  10.776   9.999  0.0109 -0.5144 -0.2171
  442MOL0     C59540   6.425  10.726  10.079 -0.2541  0.8915 -1.1191
  442MOL0     C59541   6.546  10.682  10.026  0.6569  0.1557 -0.9792
  442MOL0     C59542   6.567  10.692   9.890 -0.7141 -0.0306  0.6122
  442MOL0     O59543   6.677  10.650   9.827 -0.5440 -0.2365 -0.5509
  442MOL0     C59544   6.765  10.567   9.891  1.0231 -0.0443 -0.0254
  442MOL0     C59545   6.852  10.514   9.784  0.1404 -0.8662 -0.1184
  442MOL0     C59546   6.949  10.419   9.859 -0.8033  0.1090 -0.2035
  442MOL0     C59547   6.975  10.291   9.777  0.0805 -0.2949  0.9236
  442MOL0     C59548   7.010  10.322   9.636  0.7245  0.0070 -0.1568
  442MOL0     C59549   7.024  10.187   9.555  0.8070  0.0233 -0.5346
  442MOL0     C59550   7.108  10.203   9.426 -0.2208  0.4377  0.3052
  442MOL0     C59551   7.048  10.305   9.328 -0.6852  0.6069 -0.6192
  442MOL0     N59552   7.120  10.320   9.208  0.3509 -0.0391  0.9687
  442MOL0     C59553   7.121  10.226   9.115  0.6680 -0.0238 -0.8337
  442MOL0     C59554   7.213  10.264   9.022  0.8916  0.0156 -0.2699
  442MOL0     C59555   7.238  10.200   8.890  0.0441  0.0226 -0.0284
  442MOL0     C59556   7.340  10.269   8.807 -0.5733 -0.2453  0.2715
  442MOL0     C59557   7.431  10.172   8.722  0.0874 -1.1503 -0.5652
  442MOL0     C59558   7.343  10.097   8.616 -0.6363  0.2439  0.0047
  442MOL0     O59559   7.294  10.176   8.510 -0.6477 -0.4180  0.4021
  442MOL0     C59560   7.241  10.100   8.409 -0.3837 -0.1292 -0.0999
  442MOL0     C59561   7.326  10.048   8.310  0.1559 -0.0465 -0.8810
  442MOL0     C59562   7.277   9.960   8.202 -0.2440 -0.7955  0.7024
  442MOL0     C59563   7.382   9.890   8.110 -0.0816  0.1995  0.4173
  442MOL0     C59564   7.138   9.957   8.189 -0.2937 -0.0074  0.1072
  442MOL0     C59565   7.066   9.876   8.088  0.3399  0.6087  0.2385
  442MOL0     O59566   6.927   9.872   8.093  0.7014 -0.2304 -0.6914
  442MOL0     C59567   6.860   9.811   7.990 -0.1636 -0.4467 -0.4746
  442MOL0     C59568   6.748   9.745   8.039  0.0602  0.3934  0.5294
  442MOL0     C59569   6.657   9.676   7.955 -0.3023  0.4937 -0.7295
  442MOL0     C59570   6.675   9.674   7.815  0.0252  0.3563 -0.0765
  442MOL0     O59571   6.581   9.623   7.723 -0.2967  0.2505 -0.4562
  442MOL0     C59572   6.449   9.577   7.784 -0.0846 -0.2265  0.4361
  442MOL0     C59573   6.361   9.524   7.669  1.2112  0.4414 -0.5368
  442MOL0     C59574   6.217   9.506   7.725 -0.1450  0.4368 -0.3295
  442MOL0     C59575   6.133   9.437   7.617  0.3983  1.3079  0.1693
  442MOL0     C59576   5.978   9.402   7.669  0.0153  0.0434 -0.0930
  442MOL0     C59577   5.916   9.316   7.552  0.3967 -0.5630 -0.1530
  442MOL0     C59578   5.759   9.284   7.560 -0.3501  1.2314 -0.6282
  442MOL0     C59579   5.725   9.207   7.683  0.4818 -0.5930 -0.8872
  442MOL0    Cl59580   5.544   9.171   7.702 -0.3688  0.2499 -0.0543
  442MOL0     C59581   6.793   9.732   7.764 -0.3358 -0.2539 -0.2071
  442MOL0     C59582   6.878   9.795   7.851  0.2745  0.5295 -0.2270
  442MOL0     O59583   7.134   9.819   8.006  0.4740  0.0372 -0.1693
  442MOL0     C59584   7.060  10.019   8.285 -0.0303 -0.2930  0.3155
  442MOL0     C59585   7.110  10.082   8.396  0.0417 -0.0835 -0.1297
  442MOL0     N59586   7.264  10.387   9.074 -0.6672 -0.0639 -0.5137
  442MOL0     N59587   7.208  10.416   9.179 -0.3338  0.5690  0.1249
  442MOL0     C59588   6.473  10.756   9.810 -0.3571 -0.3587  0.6137
  442MOL0     C59589   6.352  10.788   9.868 -0.2794 -0.9597  0.2345
  442MOL0     C59590   5.974  10.738  10.095 -0.3699  0.4076  0.2025
  442MOL0     C59591   5.915  10.861  10.068 -0.5631  0.0983 -0.2407
  442MOL0     C59592   5.775  10.872  10.076 -0.2121 -0.5598  0.9363
  442MOL0     C59593   5.691  10.766  10.105  0.4412 -0.4370  0.2477
  442MOL0     O59594   5.556  10.800  10.094  1.0830 -0.7622 -0.6511
  442MOL0     C59595   5.482  10.775  10.207 -0.2175 -0.4753 -0.0350
  442MOL0     C59596   5.344  10.716  10.154  0.9358  0.1347  0.4352
  442MOL0     C59597   5.373  10.574  10.089 -0.1645  0.6605 -0.3179
  442MOL0     C59598   5.289  10.528   9.963 -0.5504  0.4486 -1.3479
  442MOL0     C59599   5.149  10.528   9.998  0.5678  0.5717  0.5058
  442MOL0     C59600   5.026  10.527  10.018 -0.4904 -0.1555  0.3278
  442MOL0     C59601   5.742  10.641  10.109 -0.1810  0.2015  0.0107
  442MOL0     C59602   5.882  10.626  10.124 -0.5815  0.2040  0.2725
  442MOL0     H59603   6.426  10.727  10.187  1.1789  1.9768 -1.1029
  442MOL0     H59604   6.610  10.649  10.107 -0.4770  0.4277  0.0499
  442MOL0     H59605   6.824  10.626   9.962 -0.3987 -0.9337  1.9927
  442MOL0     H59606   6.715  10.488   9.948  0.7399 -1.6952 -2.4162
  442MOL0     H59607   6.781  10.453   9.727 -1.5912 -0.5102  1.5241
  442MOL0     H59608   6.890  10.593   9.719 -3.3806  1.0413 -0.1240
  442MOL0     H59609   7.041  10.476   9.873 -2.4961  2.6221  1.5751
  442MOL0     H59610   6.920  10.390   9.960 -0.2951 -0.1345 -0.1258
  442MOL0     H59611   7.060  10.244   9.827  0.7458  2.0953  2.1952
  442MOL0     H59612   6.884  10.230   9.778 -1.8326  2.2959 -0.3378
  442MOL0     H59613   6.939  10.387   9.584 -2.0714 -1.8415  1.1173
  442MOL0     H59614   7.102  10.382   9.632 -0.0391  1.2105 -0.1377
  442MOL0     H59615   7.064  10.107   9.618 -1.3397 -0.4592  0.3025
  442MOL0     H59616   6.931  10.144   9.516  0.4863 -1.6373  1.8013
  442MOL0     H59617   7.211  10.219   9.459  0.3787 -2.3347  0.0417
  442MOL0     H59618   7.109  10.103   9.383  0.6831  0.8218 -0.6142
  442MOL0     H59619   7.034  10.405   9.370 -0.8657  0.3670 -0.0953
  442MOL0     H59620   6.947  10.268   9.315 -0.5603 -0.3870  0.9153
  442MOL0     H59621   7.053  10.142   9.120  1.1804 -0.3880  0.3943
  442MOL0     H59622   7.269  10.099   8.915  0.7201  0.7621  2.3657
  442MOL0     H59623   7.144  10.192   8.835  0.4816 -0.7407 -0.6877
  442MOL0     H59624   7.406  10.332   8.867 -0.8591  2.2472 -1.8492
  442MOL0     H59625   7.288  10.337   8.739 -3.3190 -2.7279 -0.2920
  442MOL0     H59626   7.482  10.099   8.785  0.0005 -1.2767 -0.6428
  442MOL0     H59627   7.498  10.234   8.661 -2.7274 -1.1604 -4.0541
  442MOL0     H59628   7.258  10.060   8.674  0.3039  1.3917  2.2485
  442MOL0     H59629   7.388  10.005   8.577  1.2119  0.1488  2.1283
  442MOL0     H59630   7.435  10.053   8.312  0.1088  0.7874  0.4376
  442MOL0     H59631   7.472   9.952   8.106  0.3153 -0.3763  0.3218
  442MOL0     H59632   7.387   9.786   8.143  1.9833 -0.1911 -0.9106
  442MOL0     H59633   7.353   9.904   8.005  0.6573  0.2360  0.2137
  442MOL0     H59634   6.719   9.737   8.143  0.6791 -1.3144  0.6078
  442MOL0     H59635   6.565   9.645   8.003 -0.1053  2.2834  0.8930
  442MOL0     H59636   6.467   9.509   7.868 -2.0121  2.3068  3.0797
  442MOL0     H59637   6.403   9.664   7.830 -3.5058 -2.0775  0.8747
  442MOL0     H59638   6.345   9.592   7.584 -0.1611  2.5995  1.3016
  442MOL0     H59639   6.409   9.431   7.640 -3.7523 -2.6201 -0.1424
  442MOL0     H59640   6.182   9.605   7.756  0.4093  0.0462  1.7025
  442MOL0     H59641   6.228   9.435   7.808  1.2940 -0.9448 -1.6431
  442MOL0     H59642   6.121   9.494   7.524 -3.6312  0.9450  0.2796
  442MOL0     H59643   6.195   9.350   7.595 -0.2931  0.6461  0.8064
  442MOL0     H59644   5.919   9.493   7.673  0.6994  0.4733  2.8779
  442MOL0     H59645   5.970   9.353   7.766  0.0239 -0.7091 -0.4647
  442MOL0     H59646   5.932   9.388   7.470  3.4865 -1.5124 -0.4838
  442MOL0     H59647   5.971   9.227   7.522 -0.0370 -1.4888  1.6531
  442MOL0     H59648   5.720   9.230   7.473  0.0145 -0.7006  0.3490
  442MOL0     H59649   5.706   9.380   7.560 -1.8045  0.4580 -0.0165
  442MOL0     H59650   5.767   9.270   7.762 -1.2973 -1.3036  0.7278
  442MOL0     H59651   5.773   9.109   7.689 -0.1214 -0.8136  1.6880
  442MOL0     H59652   6.807   9.743   7.657  2.0937 -3.5395 -0.3972
  442MOL0     H59653   6.965   9.846   7.811  0.1997 -0.7626 -2.1737
  442MOL0     H59654   6.953  10.005   8.278  0.2229 -2.1351 -0.4216
  442MOL0     H59655   7.044  10.133   8.466  1.3761  1.3247  0.1670
  442MOL0     H59656   6.496  10.764   9.704 -3.0468 -1.9373 -0.1972
  442MOL0     H59657   6.283  10.835   9.798  0.1782  1.8936  1.5681
  442MOL0     H59658   5.986  10.940  10.045  1.4010 -1.5232 -0.0344
  442MOL0     H59659   5.724  10.965  10.052  0.0848 -0.7261 -0.3748
  442MOL0     H59660   5.526  10.707  10.281  1.3816  0.6937  0.1324
  442MOL0     H59661   5.472  10.867  10.265 -0.1465  0.2838 -1.1883
  442MOL0     H59662   5.314  10.790  10.079  4.2446  1.3595  0.1263
  442MOL0     H59663   5.265  10.714  10.229  0.5503  0.0918  0.0298
  442MOL0     H59664   5.374  10.490  10.159  0.1153  1.1548  0.2825
  442MOL0     H59665   5.477  10.576  10.053  0.1804  2.3894  0.6773
  442MOL0     H59666   5.316  10.427   9.931 -0.1658 -0.5695  1.7853
  442MOL0     H59667   5.295  10.593   9.875 -0.1421  1.4050 -0.6463
  442MOL0     H59668   4.922  10.527  10.044 -0.7401 -3.5167 -0.2214
  442MOL0     H59669   5.673  10.558  10.121  2.9869 -2.6940 -0.2196
  442MOL0     H59670   5.915  10.526  10.149 -4.0085 -0.6186  2.0686
  443MOL0     O59671   4.442   0.214   5.252  0.5431  0.4285 -0.1322
  443MOL0     C59672   4.347   0.139   5.255  0.4624  0.5042 -0.3736
  443MOL0     O59673   4.249   0.144   5.347  0.0734  1.6174  0.1880
  443MOL0     C59674   4.274   0.216   5.458  0.8167 -0.6030 -0.1115
  443MOL0     C59675   4.360   0.177   5.564  0.7443  0.3282  0.0719
  443MOL0     C59676   4.383   0.273   5.671 -0.0727 -0.3108 -0.4487
  443MOL0     C59677   4.310   0.392   5.685 -0.5371 -0.6058 -0.0160
  443MOL0     O59678   4.330   0.476   5.791 -0.6148 -0.0377 -0.5337
  443MOL0     C59679   4.398   0.441   5.906 -0.3920 -1.0750 -0.1413
  443MOL0     C59680   4.421   0.584   5.990 -0.8593  1.5153 -0.4614
  443MOL0     C59681   4.298   0.676   5.991  0.4266  0.7539 -0.3077
  443MOL0     C59682   4.160   0.600   6.018 -0.0995 -0.0904  1.0505
  443MOL0     C59683   4.137   0.582   6.167 -0.0038  0.2593 -0.3357
  443MOL0     C59684   4.092   0.708   6.238  0.2323 -0.3726  0.2443
  443MOL0     C59685   4.001   0.690   6.358  0.7592  0.5190 -0.0355
  443MOL0     C59686   4.049   0.606   6.472  0.4440 -0.0830 -0.4499
  443MOL0     N59687   3.949   0.592   6.583 -0.5113  0.2183  0.7942
  443MOL0     C59688   3.895   0.693   6.657  0.8279  0.2040  0.9307
  443MOL0     C59689   3.803   0.641   6.734 -0.0538  0.8538 -0.9702
  443MOL0     C59690   3.728   0.718   6.851 -0.6142  0.1917  0.3202
  443MOL0     C59691   3.821   0.792   6.958 -0.2496  1.2536  0.4912
  443MOL0     C59692   3.738   0.871   7.071 -0.8281 -0.2931  0.0151
  443MOL0     C59693   3.801   0.868   7.207 -0.5280 -0.5669  0.1214
  443MOL0     O59694   3.933   0.927   7.215 -0.2605 -0.1553 -0.8408
  443MOL0     C59695   3.964   1.049   7.268  0.5418  0.6674 -0.2679
  443MOL0     C59696   3.870   1.144   7.314  0.3163  0.1405  0.4223
  443MOL0     C59697   3.906   1.272   7.355 -0.7130 -0.3988  0.0344
  443MOL0     C59698   3.800   1.374   7.394 -0.2317 -0.0323  0.4663
  443MOL0     C59699   4.048   1.297   7.372 -0.1351 -0.0748 -0.0762
  443MOL0     C59700   4.106   1.411   7.449 -0.0565  0.1133  0.1421
  443MOL0     O59701   4.064   1.440   7.571 -0.6935 -0.1503  1.0643
  443MOL0     C59702   4.135   1.526   7.649 -0.3968  0.0852 -0.2348
  443MOL0     C59703   4.197   1.458   7.754 -0.2131 -0.8487  0.3070
  443MOL0     C59704   4.269   1.539   7.852  1.2668  0.5865  0.0256
  443MOL0     C59705   4.269   1.677   7.846  0.6755 -0.2293  0.3249
  443MOL0     O59706   4.318   1.761   7.946 -0.2427 -0.0897  0.5765
  443MOL0     C59707   4.276   1.737   8.082 -0.6069  0.6278  0.1980
  443MOL0     C59708   4.206   1.851   8.134  0.0409 -0.4265  0.4641
  443MOL0     C59709   4.166   1.837   8.278 -0.2885 -0.7820  0.4630
  443MOL0     C59710   4.304   1.843   8.358  0.9805  0.1099 -0.2816
  443MOL0     C59711   4.289   1.852   8.513 -0.0540  0.2454  0.4160
  443MOL0     C59712   4.412   1.796   8.590  0.7273 -0.0267 -0.0723
  443MOL0     C59713   4.378   1.759   8.735 -0.3490 -0.8521  0.3800
  443MOL0     C59714   4.355   1.895   8.811 -1.0955 -0.0772 -0.2503
  443MOL0    Cl59715   4.375   1.857   8.984 -0.3651  0.2150 -0.2103
  443MOL0     C59716   4.217   1.733   7.732 -1.2354  1.0495  0.0055
  443MOL0     C59717   4.139   1.657   7.639  1.0263 -0.4663 -1.0787
  443MOL0     O59718   4.209   1.460   7.402 -0.5384 -0.6995  0.4397
  443MOL0     C59719   4.139   1.195   7.344  0.1088  0.0980  1.0683
  443MOL0     C59720   4.103   1.078   7.284  0.8904 -0.5300 -0.4910
  443MOL0     N59721   3.797   0.508   6.697  0.2252 -0.4251 -0.3381
  443MOL0     N59722   3.883   0.476   6.604 -0.2959  0.4405  0.2126
  443MOL0     C59723   4.224   0.430   5.586 -0.7690  0.2176  0.1062
  443MOL0     C59724   4.205   0.343   5.476  0.2815  0.5388  0.4310
  443MOL0     C59725   4.330   0.052   5.142  1.2087 -0.2195 -0.1097
  443MOL0     C59726   4.422   0.056   5.031  0.5284  0.2936 -1.1401
  443MOL0     C59727   4.413  -0.041   4.931 -1.1794  0.1557  0.1655
  443MOL0     C59728   4.322  -0.141   4.942 -0.1923  0.2376 -0.7351
  443MOL0     O59729   4.331  -0.231   4.839  0.3528  0.0265 -0.5275
  443MOL0     C59730   4.263  -0.359   4.849 -0.0460 -0.7255 -0.3675
  443MOL0     C59731   4.133  -0.343   4.763  0.7907  0.1221  0.2860
  443MOL0     C59732   4.046  -0.458   4.815 -0.2753 -0.4724  0.0805
  443MOL0     C59733   3.982  -0.437   4.948  0.7338 -0.8962 -0.5248
  443MOL0     C59734   3.863  -0.508   4.975  1.5704 -0.9926  0.4172
  443MOL0     C59735   3.764  -0.579   4.996 -0.4971  0.2100 -0.4096
  443MOL0     C59736   4.233  -0.141   5.044  0.1339 -0.0929  0.0391
  443MOL0     C59737   4.245  -0.057   5.156 -0.7569 -0.1646 -0.1961
  443MOL0     H59738   4.427   0.093   5.548  1.3004  0.5262  1.2785
  443MOL0     H59739   4.455   0.249   5.748 -0.9863 -0.9081  0.2343
  443MOL0     H59740   4.346   0.372   5.973 -0.2329  1.1437  2.4810
  443MOL0     H59741   4.498   0.409   5.876  0.2822  0.9339 -0.2240
  443MOL0     H59742   4.458   0.555   6.089  3.3038  3.8331 -1.1282
  443MOL0     H59743   4.504   0.641   5.948  0.1424  0.6821  0.3511
  443MOL0     H59744   4.313   0.755   6.066  2.5293 -0.7886  0.9866
  443MOL0     H59745   4.294   0.724   5.893 -0.0935  0.1479 -0.5876
  443MOL0     H59746   4.077   0.663   5.985  0.6241 -0.1200 -0.9091
  443MOL0     H59747   4.143   0.504   5.967 -0.0600  0.8177 -0.7353
  443MOL0     H59748   4.060   0.507   6.189  2.2954 -1.0932  4.4578
  443MOL0     H59749   4.225   0.531   6.207 -1.6738 -4.5620 -2.0411
  443MOL0     H59750   4.176   0.772   6.265  1.5171 -1.1676 -1.6494
  443MOL0     H59751   4.035   0.760   6.161  0.5941 -1.7761 -1.0224
  443MOL0     H59752   3.963   0.787   6.390 -1.2972 -0.4961  0.8268
  443MOL0     H59753   3.908   0.636   6.336  1.2720 -1.1826  1.7056
  443MOL0     H59754   4.147   0.647   6.499  0.9702 -1.3362 -0.4005
  443MOL0     H59755   4.069   0.505   6.436 -1.8410 -0.4178 -0.9279
  443MOL0     H59756   3.918   0.799   6.667  1.1248  0.5998 -2.5990
  443MOL0     H59757   3.655   0.786   6.806 -0.3978  2.1741  2.7133
  443MOL0     H59758   3.655   0.652   6.898 -2.4855 -0.5369 -3.2864
  443MOL0     H59759   3.890   0.858   6.904  2.4696 -1.1701  0.7832
  443MOL0     H59760   3.890   0.727   7.012  0.8561  0.6216 -1.5723
  443MOL0     H59761   3.638   0.829   7.070 -1.8784  2.0509  0.4922
  443MOL0     H59762   3.726   0.974   7.036  1.2422  0.0173  0.0658
  443MOL0     H59763   3.804   0.760   7.223 -0.1556 -0.7642 -1.1769
  443MOL0     H59764   3.741   0.916   7.285  0.6007 -1.3221  1.5062
  443MOL0     H59765   3.763   1.132   7.309  0.0543  2.1579  0.1356
  443MOL0     H59766   3.759   1.430   7.309 -0.8731 -1.1941 -0.0161
  443MOL0     H59767   3.711   1.329   7.440 -1.4165  2.8741  1.2565
  443MOL0     H59768   3.841   1.438   7.473  2.1999  0.1752 -0.8972
  443MOL0     H59769   4.195   1.350   7.758  0.5338 -0.9084 -0.5202
  443MOL0     H59770   4.327   1.499   7.936  2.2821  1.8596 -0.0435
  443MOL0     H59771   4.232   1.640   8.107  1.4033 -0.0643  1.2765
  443MOL0     H59772   4.376   1.746   8.125 -0.5521  5.1507 -0.4572
  443MOL0     H59773   4.260   1.946   8.124 -1.5020  0.2437 -3.5656
  443MOL0     H59774   4.119   1.862   8.069  1.7802  4.1618 -1.4884
  443MOL0     H59775   4.102   1.753   8.304  1.0557 -1.9924  0.0070
  443MOL0     H59776   4.106   1.925   8.302  2.7703  2.0564 -1.3078
  443MOL0     H59777   4.362   1.756   8.328  1.5989 -0.0008  1.1456
  443MOL0     H59778   4.352   1.934   8.323  0.6763 -0.3044 -1.8522
  443MOL0     H59779   4.191   1.811   8.537 -0.9432  1.4195 -1.0320
  443MOL0     H59780   4.278   1.959   8.530 -1.1399 -0.0229  1.4846
  443MOL0     H59781   4.457   1.707   8.544 -1.3247 -0.2941 -1.7479
  443MOL0     H59782   4.494   1.865   8.573  0.1820  0.5016 -0.6398
  443MOL0     H59783   4.448   1.695   8.791  0.4398 -1.7492 -1.5530
  443MOL0     H59784   4.278   1.715   8.738 -1.3277  1.2806  2.2422
  443MOL0     H59785   4.255   1.931   8.783 -0.4872  1.4060 -0.5826
  443MOL0     H59786   4.428   1.973   8.788  0.5071 -2.1215 -2.6491
  443MOL0     H59787   4.221   1.842   7.731  0.4519  1.0717  1.9443
  443MOL0     H59788   4.083   1.687   7.551 -1.3662 -0.5928  0.3088
  443MOL0     H59789   4.245   1.214   7.358  0.1328 -1.2915  3.3514
  443MOL0     H59790   4.176   1.007   7.247  0.3931 -1.7573  0.7599
  443MOL0     H59791   4.161   0.518   5.596 -0.7159  0.2376  0.2573
  443MOL0     H59792   4.116   0.360   5.417  0.3495  3.4300  0.9957
  443MOL0     H59793   4.489   0.138   5.008 -1.6332  1.8004 -2.4941
  443MOL0     H59794   4.486  -0.044   4.851 -1.0501 -2.0541  0.3044
  443MOL0     H59795   4.313  -0.443   4.800  0.9900 -1.7805  2.3175
  443MOL0     H59796   4.246  -0.386   4.954 -1.6200  0.1527 -0.3645
  443MOL0     H59797   4.134  -0.349   4.654 -2.6458  1.1562  0.0638
  443MOL0     H59798   4.073  -0.253   4.784 -0.9750 -1.3880  2.1382
  443MOL0     H59799   4.099  -0.554   4.818 -1.9596 -1.5200 -1.4118
  443MOL0     H59800   3.966  -0.465   4.740 -1.7036  2.8638  1.1170
  443MOL0     H59801   3.949  -0.333   4.961  1.0179 -0.7528 -0.9157
  443MOL0     H59802   4.054  -0.456   5.028  0.7013  0.0784 -0.2495
  443MOL0     H59803   3.679  -0.636   5.026 -0.5395  1.9494  3.3957
  443MOL0     H59804   4.153  -0.215   5.035 -0.6194  0.7693 -0.5611
  443MOL0     H59805   4.171  -0.057   5.236  0.2308 -0.3596  0.7450
  444MOL0     O59806   6.908   2.672   5.282  0.8914  0.9540 -0.5929
  444MOL0     C59807   6.948   2.614   5.181  0.6816 -0.2594  1.0641
  444MOL0     O59808   6.917   2.652   5.050 -0.1012 -0.3431  0.2394
  444MOL0     C59809   6.808   2.729   5.014 -0.0060  0.1646 -1.1190
  444MOL0     C59810   6.825   2.813   4.899 -0.6213  0.8407 -0.8037
  444MOL0     C59811   6.722   2.899   4.861  0.1825 -0.6947 -0.4441
  444MOL0     C59812   6.595   2.897   4.927 -0.9764 -0.6279  0.3895
  444MOL0     O59813   6.480   2.949   4.872  0.4871  0.4070 -0.4686
  444MOL0     C59814   6.494   3.018   4.748  0.2745 -0.2338  0.0769
  444MOL0     C59815   6.345   3.069   4.720 -0.2384 -0.2379  0.1617
  444MOL0     C59816   6.330   3.158   4.590 -0.2605  0.6306 -0.1445
  444MOL0     C59817   6.398   3.300   4.608 -0.1089 -0.3658 -0.2382
  444MOL0     C59818   6.344   3.416   4.524 -0.5808 -0.3303  1.2649
  444MOL0     C59819   6.198   3.471   4.561  0.5056  1.2524 -0.0390
  444MOL0     C59820   6.130   3.561   4.460 -0.8540  0.0740  0.7494
  444MOL0     C59821   6.072   3.479   4.338  0.4959 -0.1495 -1.2145
  444MOL0     N59822   5.949   3.397   4.362  0.1105  0.2467  0.9928
  444MOL0     C59823   5.818   3.434   4.355 -0.7224 -0.2345 -0.4024
  444MOL0     C59824   5.755   3.315   4.380 -0.4024 -1.1783  0.5491
  444MOL0     C59825   5.603   3.306   4.380  0.0146  0.7666  0.5141
  444MOL0     C59826   5.534   3.362   4.250 -0.3154  0.1012 -1.1694
  444MOL0     C59827   5.599   3.327   4.114 -0.6255  0.0812 -0.3930
  444MOL0     C59828   5.656   3.179   4.103  0.2178 -0.9148 -0.2826
  444MOL0     O59829   5.682   3.144   3.970 -0.2332 -0.2027 -0.1563
  444MOL0     C59830   5.783   3.204   3.901  0.1946 -0.0502 -1.0680
  444MOL0     C59831   5.904   3.239   3.962  0.5313 -0.7822 -0.5521
  444MOL0     C59832   6.008   3.289   3.888  0.1190 -0.7916 -0.8698
  444MOL0     C59833   6.145   3.332   3.952  0.6769  0.1812  0.3481
  444MOL0     C59834   6.005   3.293   3.742  0.4862 -0.1396  0.6346
  444MOL0     C59835   6.107   3.329   3.644  0.4370  0.3281  0.9096
  444MOL0     O59836   6.212   3.406   3.674 -0.1969  0.3588  0.2591
  444MOL0     C59837   6.271   3.460   3.560  0.6077  0.5770  0.7198
  444MOL0     C59838   6.197   3.555   3.483 -0.3759  0.0878  0.1541
  444MOL0     C59839   6.259   3.590   3.359  0.3623 -0.5293  0.3708
  444MOL0     C59840   6.387   3.540   3.315 -0.0305 -0.2389 -1.2741
  444MOL0     O59841   6.441   3.588   3.207  0.4536 -0.3408  0.5373
  444MOL0     C59842   6.357   3.645   3.096 -1.8660  0.0841 -0.7638
  444MOL0     C59843   6.420   3.619   2.960  1.0693  0.4440 -0.5463
  444MOL0     C59844   6.561   3.669   2.939  0.7129  0.0472 -0.2370
  444MOL0     C59845   6.602   3.651   2.794 -0.1297 -0.3563 -0.0187
  444MOL0     C59846   6.751   3.697   2.778 -0.0177 -0.0431  0.5100
  444MOL0     C59847   6.800   3.689   2.632 -1.2544  0.0701  1.6938
  444MOL0     C59848   6.772   3.810   2.557  0.2255 -0.1499  0.1433
  444MOL0     C59849   6.647   3.786   2.467  0.2457  0.4068 -0.6594
  444MOL0    Cl59850   6.585   3.948   2.418 -0.2653 -0.2667 -0.0166
  444MOL0     C59851   6.459   3.451   3.397  0.0835 -0.9134 -1.1763
  444MOL0     C59852   6.399   3.416   3.515 -0.5030  0.1951 -0.3841
  444MOL0     O59853   6.092   3.273   3.533 -0.4183 -0.4037  0.3406
  444MOL0     C59854   5.873   3.260   3.685  0.2825 -0.6323  0.0660
  444MOL0     C59855   5.765   3.207   3.762  0.9789  0.1278 -0.1791
  444MOL0     N59856   5.840   3.220   4.427 -0.2464  0.3639  0.3208
  444MOL0     N59857   5.960   3.266   4.402 -0.0426 -0.2454 -0.2122
  444MOL0     C59858   6.585   2.807   5.033 -0.5191 -1.0593 -0.8133
  444MOL0     C59859   6.688   2.725   5.077  0.7173 -0.6064  0.9601
  444MOL0     C59860   7.028   2.484   5.187  0.1417 -0.5972 -0.1665
  444MOL0     C59861   7.111   2.443   5.073  0.5369 -0.3538  0.2871
  444MOL0     C59862   7.196   2.330   5.080  0.1951  0.0083  0.8395
  444MOL0     C59863   7.186   2.247   5.195  0.8875  0.1329  0.6664
  444MOL0     O59864   7.255   2.131   5.198  0.2762  0.0119 -0.4795
  444MOL0     C59865   7.209   2.018   5.122 -0.4019  0.4961  1.6154
  444MOL0     C59866   7.238   1.894   5.195  0.7470  0.4417  0.2636
  444MOL0     C59867   7.163   1.763   5.165 -0.8285 -0.5832  0.6712
  444MOL0     C59868   7.217   1.644   5.241 -0.4169 -0.3419  0.2501
  444MOL0     C59869   7.199   1.655   5.386  0.5315 -0.7862 -0.6524
  444MOL0     C59870   7.196   1.685   5.510 -0.0206  0.1876  0.5544
  444MOL0     C59871   7.091   2.278   5.291 -0.8998  0.6914 -0.3585
  444MOL0     C59872   7.035   2.409   5.304 -0.1148  0.9350 -0.1221
  444MOL0     H59873   6.913   2.815   4.835 -2.2443  0.7345 -3.1782
  444MOL0     H59874   6.730   2.974   4.783 -3.8388 -0.9537 -1.3420
  444MOL0     H59875   6.562   3.103   4.757  2.0405 -1.3668 -1.7788
  444MOL0     H59876   6.521   2.966   4.656  1.1823  1.3791 -0.6118
  444MOL0     H59877   6.282   2.987   4.685 -0.1676  0.2776 -1.2541
  444MOL0     H59878   6.298   3.123   4.803  0.7189  2.6532 -1.0557
  444MOL0     H59879   6.388   3.113   4.508 -1.1372 -0.8089 -0.0101
  444MOL0     H59880   6.225   3.168   4.561  0.6709  5.2244 -3.0231
  444MOL0     H59881   6.394   3.323   4.715 -0.9559 -1.1303 -0.0876
  444MOL0     H59882   6.500   3.277   4.577  0.9353 -0.6751  2.9953
  444MOL0     H59883   6.403   3.507   4.541  1.5655 -1.5171  0.5346
  444MOL0     H59884   6.343   3.384   4.420  1.9903  0.2404  1.0012
  444MOL0     H59885   6.135   3.387   4.590  1.6590  0.8766  1.5498
  444MOL0     H59886   6.198   3.539   4.648 -4.2149 -0.9446  2.0317
  444MOL0     H59887   6.043   3.617   4.498  0.3392  1.8171  1.0390
  444MOL0     H59888   6.205   3.631   4.421 -1.2375 -0.8618 -1.8686
  444MOL0     H59889   6.142   3.408   4.293 -0.3511 -1.5571 -0.3894
  444MOL0     H59890   6.043   3.554   4.265  1.1060  2.0739  0.6947
  444MOL0     H59891   5.775   3.531   4.330  0.5719 -0.2136 -2.8654
  444MOL0     H59892   5.573   3.201   4.388 -0.3670  0.3747 -3.6039
  444MOL0     H59893   5.567   3.356   4.470 -0.1690  0.7061  0.4761
  444MOL0     H59894   5.529   3.472   4.248  5.4851  0.6501 -1.0771
  444MOL0     H59895   5.433   3.320   4.255  0.9538 -3.4039 -2.3177
  444MOL0     H59896   5.679   3.400   4.099 -0.9044  1.4360  3.4669
  444MOL0     H59897   5.517   3.331   4.041 -0.5603 -1.2044 -0.5647
  444MOL0     H59898   5.589   3.101   4.138  0.4554 -0.5291  1.1343
  444MOL0     H59899   5.740   3.162   4.171  0.3013  1.9016  0.4526
  444MOL0     H59900   5.905   3.231   4.070 -5.1382 -0.0028 -0.1503
  444MOL0     H59901   6.156   3.440   3.941  2.1512  0.0024 -0.1033
  444MOL0     H59902   6.151   3.305   4.058 -1.2912 -3.3708 -0.3009
  444MOL0     H59903   6.226   3.282   3.898  1.1031 -1.7155  2.5873
  444MOL0     H59904   6.098   3.582   3.519 -1.7512 -4.6307  0.6141
  444MOL0     H59905   6.210   3.665   3.298  0.4485  0.5316  1.5524
  444MOL0     H59906   6.252   3.614   3.096 -2.2650  1.2865  0.5920
  444MOL0     H59907   6.364   3.753   3.112  3.8371  0.1867 -1.9632
  444MOL0     H59908   6.411   3.510   2.963 -1.5000  0.4882  4.4845
  444MOL0     H59909   6.352   3.654   2.882 -1.2396 -1.8038  0.3092
  444MOL0     H59910   6.631   3.627   3.012  2.6666  1.8321 -0.9817
  444MOL0     H59911   6.566   3.775   2.966  1.2633 -0.0665  0.1253
  444MOL0     H59912   6.591   3.547   2.764  3.0757 -2.0878  3.8694
  444MOL0     H59913   6.546   3.722   2.733  0.2781 -1.8914 -2.2864
  444MOL0     H59914   6.818   3.629   2.833 -0.9766 -2.4720 -1.1482
  444MOL0     H59915   6.755   3.794   2.828 -3.9020 -1.2933  3.7886
  444MOL0     H59916   6.909   3.681   2.641 -0.9827  0.8888 -0.4791
  444MOL0     H59917   6.766   3.608   2.567  0.9585  0.4266 -0.0124
  444MOL0     H59918   6.861   3.847   2.504 -0.4612 -0.3742 -1.2008
  444MOL0     H59919   6.744   3.882   2.634 -0.5228 -0.7340  0.4241
  444MOL0     H59920   6.568   3.743   2.529 -0.0533 -1.4747 -2.2410
  444MOL0     H59921   6.657   3.717   2.382  0.0773 -1.4687  0.7699
  444MOL0     H59922   6.551   3.412   3.354 -0.2729 -2.8283 -0.3472
  444MOL0     H59923   6.449   3.336   3.570 -0.7189 -2.1412 -3.3363
  444MOL0     H59924   5.867   3.272   3.577  3.4086  1.7353  0.0123
  444MOL0     H59925   5.668   3.181   3.722 -0.0305  4.1010 -0.7761
  444MOL0     H59926   6.490   2.799   5.085 -2.1050  4.2609 -2.2172
  444MOL0     H59927   6.667   2.647   5.149  2.7491 -0.8829  1.3071
  444MOL0     H59928   7.122   2.508   4.987  3.7295  0.7145  1.3789
  444MOL0     H59929   7.270   2.299   5.007  1.0604  2.9036  0.3712
  444MOL0     H59930   7.101   2.021   5.104 -0.2114 -0.2201  0.2148
  444MOL0     H59931   7.258   2.020   5.024 -1.1623  1.7535  1.2286
  444MOL0     H59932   7.218   1.910   5.301  0.7335  1.7693  0.0796
  444MOL0     H59933   7.347   1.889   5.192  0.8081  1.9650 -1.7186
  444MOL0     H59934   7.169   1.741   5.059 -3.4883 -2.5038  0.8299
  444MOL0     H59935   7.055   1.773   5.183 -1.6537 -4.4031 -1.2264
  444MOL0     H59936   7.324   1.632   5.225 -0.5384 -0.7553 -0.2748
  444MOL0     H59937   7.165   1.550   5.219  3.8091 -3.3729  1.9709
  444MOL0     H59938   7.162   1.696   5.611 -1.1070 -0.6327  0.2985
  444MOL0     H59939   7.074   2.194   5.358 -3.5979 -1.1274 -3.0662
  444MOL0     H59940   6.971   2.421   5.391 -1.6894 -1.7412 -0.7902
  445MOL0     O59941   5.142   4.627   8.846 -0.2960  0.8988  0.0126
  445MOL0     C59942   5.118   4.733   8.898  1.6361  0.7012 -0.1686
  445MOL0     O59943   5.067   4.742   9.033  1.5993  0.0945  0.2660
  445MOL0     C59944   5.036   4.626   9.101  0.3018  0.6370  0.2194
  445MOL0     C59945   5.048   4.643   9.243  0.3163 -0.2263  0.9056
  445MOL0     C59946   5.014   4.537   9.324  0.1280  0.3293 -0.7275
  445MOL0     C59947   4.967   4.409   9.272 -0.7082  0.7867  0.0626
  445MOL0     O59948   4.927   4.300   9.348 -0.2170 -0.2996 -0.7875
  445MOL0     C59949   4.983   4.296   9.488 -1.0177 -0.2428 -0.4395
  445MOL0     C59950   4.957   4.154   9.541  0.3988  0.5823 -0.0147
  445MOL0     C59951   4.815   4.127   9.594 -0.1926  0.4312  1.0710
  445MOL0     C59952   4.794   4.203   9.725  0.5222  0.1131 -0.0350
  445MOL0     C59953   4.667   4.162   9.793  0.5868 -0.1898 -0.2551
  445MOL0     C59954   4.683   4.221   9.940  0.5030 -0.0232  0.4312
  445MOL0     C59955   4.542   4.234  10.006  0.1481 -0.3260 -0.1118
  445MOL0     C59956   4.547   4.210  10.156  0.1961  0.5043  0.6342
  445MOL0     N59957   4.416   4.194  10.219 -0.4305  0.4586  0.1410
  445MOL0     C59958   4.299   4.142  10.170  0.2578  0.4344  0.0085
  445MOL0     C59959   4.216   4.127  10.277 -0.1618  0.3895 -1.2491
  445MOL0     C59960   4.067   4.089  10.268  0.7022 -0.0190  0.0591
  445MOL0     C59961   4.034   3.963  10.355 -0.9828 -0.6271 -0.7194
  445MOL0     C59962   4.109   3.842  10.303  0.1917  0.6365  0.7154
  445MOL0     C59963   4.055   3.717  10.369  0.1886  0.7042  0.1789
  445MOL0     O59964   4.076   3.600  10.286 -0.6031 -0.6816  0.7245
  445MOL0     C59965   4.056   3.476  10.342  0.3776  0.0904  0.0789
  445MOL0     C59966   4.162   3.386  10.338  0.7906 -0.1829  0.4444
  445MOL0     C59967   4.144   3.258  10.394 -0.3062  0.5549  0.4141
  445MOL0     C59968   4.267   3.161  10.384  0.3745 -0.2586  0.6150
  445MOL0     C59969   4.021   3.227  10.460  0.3406 -1.3782 -0.3189
  445MOL0     C59970   3.992   3.104  10.537  0.3073  0.0628  0.4290
  445MOL0     O59971   4.102   3.029  10.566 -0.1576 -0.5337  0.2287
  445MOL0     C59972   4.104   2.905  10.623 -0.3653 -0.0627 -0.2629
  445MOL0     C59973   4.211   2.819  10.588 -1.2389 -0.0461  0.0067
  445MOL0     C59974   4.218   2.683  10.646  0.2889 -1.3621  0.5597
  445MOL0     C59975   4.117   2.641  10.731  0.0855 -1.0730  0.6098
  445MOL0     O59976   4.112   2.519  10.797  0.5131 -0.2179 -0.0978
  445MOL0     C59977   4.157   2.410  10.714  0.8024 -0.2189 -0.4925
  445MOL0     C59978   4.215   2.307  10.818 -0.1119 -0.0638 -0.2231
  445MOL0     C59979   4.298   2.202  10.739  0.1286  0.3582  0.4361
  445MOL0     C59980   4.343   2.074  10.817 -0.2079 -0.4860  0.4758
  445MOL0     C59981   4.390   1.975  10.712 -0.2038  0.0926  0.0361
  445MOL0     C59982   4.302   1.842  10.688  0.2897 -0.3558 -0.5153
  445MOL0     C59983   4.302   1.761  10.814  0.3754  0.6841  0.2346
  445MOL0     C59984   4.194   1.652  10.823  0.3443  0.5974 -0.0316
  445MOL0    Cl59985   4.192   1.613  11.008  0.1032  0.1028  0.7573
  445MOL0     C59986   4.016   2.729  10.763 -0.0958 -0.3803  0.1571
  445MOL0     C59987   4.016   2.861  10.715  0.5190  0.3890  0.3638
  445MOL0     O59988   3.884   3.083  10.575  0.8935  0.1112 -0.2654
  445MOL0     C59989   3.917   3.327  10.461 -0.2888  0.4576 -0.0202
  445MOL0     C59990   3.937   3.452  10.406 -0.3745  0.3191  0.0693
  445MOL0     N59991   4.281   4.195  10.388  0.1156  0.4681  0.6590
  445MOL0     N59992   4.404   4.228  10.353 -0.0586 -0.0291  0.5090
  445MOL0     C59993   4.964   4.400   9.139  0.3271  0.3933  0.6610
  445MOL0     C59994   4.995   4.506   9.053  0.2437 -0.3898  0.0799
  445MOL0     C59995   5.128   4.850   8.815 -0.3921 -0.1019 -0.2515
  445MOL0     C59996   5.116   4.980   8.868 -0.7787  1.1121 -0.0825
  445MOL0     C59997   5.139   5.089   8.789  0.4748  0.4370  0.3491
  445MOL0     C59998   5.185   5.069   8.654  0.1234  0.1432 -0.8980
  445MOL0     O59999   5.210   5.185   8.581 -0.2023 -0.2604 -0.8571
  445MOL0     C60000   5.179   5.183   8.442 -0.5631 -0.0530  0.5618
  445MOL0     C60001   5.298   5.170   8.346  0.0592 -0.3502 -0.5812
  445MOL0     C60002   5.263   5.185   8.198 -0.5848  0.0072 -0.7433
  445MOL0     C60003   5.187   5.064   8.153 -1.2609  0.6592 -0.4985
  445MOL0     C60004   5.149   5.075   8.011  0.3351 -0.1343  0.5163
  445MOL0     C60005   5.135   5.099   7.897 -0.6744 -0.5533 -0.5986
  445MOL0     C60006   5.192   4.945   8.596 -0.2840  0.6952 -0.5865
  445MOL0     C60007   5.160   4.837   8.678  0.2969 -0.5797 -0.3918
  445MOL0     H60008   5.064   4.740   9.289  2.5202 -0.0907  0.0059
  445MOL0     H60009   5.023   4.544   9.432  0.1285 -0.4579 -0.6745
  445MOL0     H60010   5.091   4.314   9.488 -0.9425 -0.6774  0.2952
  445MOL0     H60011   4.945   4.373   9.556  2.8894  1.1805  0.4294
  445MOL0     H60012   4.984   4.070   9.476 -1.9619  0.3049 -0.7098
  445MOL0     H60013   5.023   4.143   9.627 -2.6121 -4.7923  2.0976
  445MOL0     H60014   4.746   4.161   9.517 -1.1634 -2.9464  0.2724
  445MOL0     H60015   4.798   4.020   9.606 -3.2945  0.8541  1.2118
  445MOL0     H60016   4.880   4.181   9.789 -1.2876 -1.4180  2.0091
  445MOL0     H60017   4.773   4.306   9.697 -0.8746 -0.6034 -1.8764
  445MOL0     H60018   4.588   4.204   9.732  0.4902 -1.9513 -1.4232
  445MOL0     H60019   4.643   4.056   9.805 -0.5893  0.3376  3.1962
  445MOL0     H60020   4.754   4.175  10.009  0.8991  0.7606  0.5541
  445MOL0     H60021   4.714   4.324   9.922 -0.3658  0.6381  2.4039
  445MOL0     H60022   4.496   4.330   9.982  1.5435  0.3321 -0.2323
  445MOL0     H60023   4.471   4.156   9.974 -1.6089  0.9534  0.5545
  445MOL0     H60024   4.604   4.291  10.203  2.0235 -1.3722  1.7915
  445MOL0     H60025   4.592   4.113  10.176  3.0493  2.1267  2.9671
  445MOL0     H60026   4.281   4.108  10.069 -0.9538  0.1860  0.2883
  445MOL0     H60027   4.009   4.173  10.307 -1.7814 -2.1479  1.2914
  445MOL0     H60028   4.047   4.056  10.166 -2.8343  1.5118  0.1097
  445MOL0     H60029   3.927   3.945  10.342 -1.4304  1.3841 -0.2215
  445MOL0     H60030   4.040   3.973  10.464 -3.6188 -2.7960 -0.2504
  445MOL0     H60031   4.217   3.851  10.311  0.6688  1.0870 -3.9273
  445MOL0     H60032   4.084   3.833  10.197  0.7241  3.0563  0.3271
  445MOL0     H60033   3.950   3.735  10.393 -0.5517 -3.2608  0.6927
  445MOL0     H60034   4.100   3.708  10.468 -3.0093 -1.8625  1.6028
  445MOL0     H60035   4.257   3.421  10.301  0.6463 -1.2201 -1.0329
  445MOL0     H60036   4.344   3.200  10.317  0.4762 -2.1577 -0.4546
  445MOL0     H60037   4.305   3.150  10.486  0.1754 -0.5100  0.6628
  445MOL0     H60038   4.227   3.064  10.354 -0.0345 -0.2012  0.9689
  445MOL0     H60039   4.300   2.858  10.540 -0.1204 -0.7642  1.3851
  445MOL0     H60040   4.309   2.626  10.632  0.0413 -1.3473 -1.4309
  445MOL0     H60041   4.070   2.370  10.662 -0.1060 -0.9924  1.4949
  445MOL0     H60042   4.237   2.439  10.645  2.4291 -0.7195  1.1000
  445MOL0     H60043   4.286   2.358  10.885 -2.2219  1.3333  1.0790
  445MOL0     H60044   4.130   2.263  10.872 -2.0430 -0.5975 -3.4652
  445MOL0     H60045   4.391   2.243  10.700  0.5901 -1.6071 -0.6999
  445MOL0     H60046   4.230   2.168  10.659  0.2123  1.8714 -0.3127
  445MOL0     H60047   4.419   2.091  10.893 -0.4295  1.3656  0.3237
  445MOL0     H60048   4.260   2.031  10.875 -0.3482  0.1857  0.7798
  445MOL0     H60049   4.498   1.957  10.719 -0.1245  1.0827  1.7722
  445MOL0     H60050   4.402   2.027  10.617 -3.3084 -0.8011 -0.9815
  445MOL0     H60051   4.202   1.865  10.649 -0.2904 -1.0384  0.5009
  445MOL0     H60052   4.346   1.797  10.598  1.7445  2.3377 -1.2387
  445MOL0     H60053   4.303   1.814  10.909  0.8818 -1.4177  1.4603
  445MOL0     H60054   4.391   1.696  10.817 -1.9363 -2.7223  3.1364
  445MOL0     H60055   4.203   1.565  10.757 -0.3652  1.2643 -1.0149
  445MOL0     H60056   4.097   1.693  10.795  0.8312  0.0119 -2.9066
  445MOL0     H60057   3.948   2.692  10.839  1.3551 -2.4531  0.5414
  445MOL0     H60058   3.946   2.934  10.754  1.2047 -1.8941  7.2404
  445MOL0     H60059   3.822   3.307  10.510 -1.7540 -0.1527 -2.9204
  445MOL0     H60060   3.857   3.526  10.404 -0.8453 -0.1530  0.7736
  445MOL0     H60061   4.923   4.312   9.091 -2.5143  1.6178  0.6357
  445MOL0     H60062   4.975   4.486   8.948  3.9745  0.6288 -0.9432
  445MOL0     H60063   5.068   4.991   8.965 -5.1110  1.4908 -2.0301
  445MOL0     H60064   5.114   5.191   8.817  2.6217  0.9648  0.5159
  445MOL0     H60065   5.111   5.105   8.408  2.1677 -1.8702 -1.1741
  445MOL0     H60066   5.133   5.278   8.412 -1.5865 -0.1200  1.8165
  445MOL0     H60067   5.347   5.075   8.371 -0.2890  0.6778  5.4537
  445MOL0     H60068   5.363   5.255   8.366 -0.5183  0.6960 -2.7877
  445MOL0     H60069   5.347   5.217   8.136  0.6267 -0.1984  0.7248
  445MOL0     H60070   5.198   5.270   8.178  0.6495  0.6494 -2.2919
  445MOL0     H60071   5.102   5.049   8.220 -1.6372 -1.8442 -1.4344
  445MOL0     H60072   5.254   4.979   8.168  0.1526  1.4976 -1.6942
  445MOL0     H60073   5.107   5.117   7.795  2.4021  3.2341 -1.0109
  445MOL0     H60074   5.209   4.915   8.493 -1.4846 -3.5277  0.2622
  445MOL0     H60075   5.168   4.738   8.634  2.8537 -0.3862 -0.5100
  446MOL0     O60076   3.271   8.082  11.042  0.4648  0.3051 -0.0184
  446MOL0     C60077   3.182   8.104  10.957 -1.1363 -0.8180 -0.4487
  446MOL0     O60078   3.179   8.070  10.833  0.1046  0.8916  0.0824
  446MOL0     C60079   3.281   8.000  10.775  0.4429 -0.7914 -0.1856
  446MOL0     C60080   3.389   7.932  10.835  0.3663  0.1464 -0.4927
  446MOL0     C60081   3.514   7.903  10.774  0.5459 -0.0784 -0.1313
  446MOL0     C60082   3.528   7.917  10.639  0.3658  0.0421 -0.8670
  446MOL0     O60083   3.645   7.866  10.575 -0.2707 -0.0106 -0.4425
  446MOL0     C60084   3.697   7.937  10.459  0.2192  0.0723 -0.7019
  446MOL0     C60085   3.759   7.820  10.365  1.0975 -0.0178  0.6169
  446MOL0     C60086   3.850   7.729  10.435  0.6253 -0.0563 -0.4496
  446MOL0     C60087   3.906   7.628  10.336 -1.1651 -0.4403  0.1269
  446MOL0     C60088   3.962   7.517  10.415 -0.4791 -0.7565  0.4183
  446MOL0     C60089   4.023   7.408  10.321  1.4619  0.3141 -0.7027
  446MOL0     C60090   4.066   7.283  10.397  0.0818  0.0214 -0.1989
  446MOL0     C60091   4.187   7.297  10.502 -0.1539 -0.0429  1.2878
  446MOL0     N60092   4.310   7.336  10.436  0.3481  0.5117 -0.0046
  446MOL0     C60093   4.340   7.325  10.300  0.2800  0.2875  0.1315
  446MOL0     C60094   4.444   7.406  10.292  0.0638 -0.7049  0.1463
  446MOL0     C60095   4.512   7.431  10.160 -0.2817 -0.9175 -0.3600
  446MOL0     C60096   4.591   7.309  10.098  0.8127 -0.1835 -0.0824
  446MOL0     C60097   4.486   7.225  10.014 -0.3927  0.5370  0.0787
  446MOL0     C60098   4.562   7.116   9.948  0.3039  0.5680  0.4862
  446MOL0     O60099   4.475   7.039   9.854 -0.4276 -0.2428 -0.4612
  446MOL0     C60100   4.542   6.965   9.757 -1.2315  0.5439 -0.0179
  446MOL0     C60101   4.472   6.891   9.662  0.0376  0.3378  0.7411
  446MOL0     C60102   4.528   6.811   9.561  0.9533 -0.1201 -0.8712
  446MOL0     C60103   4.430   6.762   9.457 -0.1807 -0.6865 -1.1833
  446MOL0     C60104   4.668   6.796   9.561 -0.1026  0.2591 -0.5085
  446MOL0     C60105   4.739   6.703   9.459 -0.4857  0.7702 -0.5245
  446MOL0     O60106   4.870   6.675   9.499  0.5793 -1.0488  0.1354
  446MOL0     C60107   4.938   6.609   9.395  1.0315  0.0158  0.1275
  446MOL0     C60108   5.041   6.679   9.330  0.7263  0.8277 -0.4893
  446MOL0     C60109   5.122   6.609   9.243 -0.7423  0.2087 -0.2188
  446MOL0     C60110   5.106   6.470   9.218 -0.0237  1.3153  0.9300
  446MOL0     O60111   5.181   6.401   9.116 -0.1447 -0.3104 -0.2385
  446MOL0     C60112   5.252   6.475   9.021 -0.5589 -0.0268  0.5608
  446MOL0     C60113   5.312   6.376   8.921 -0.3854  1.0588  0.0257
  446MOL0     C60114   5.200   6.318   8.834  0.6847  0.3133 -0.2351
  446MOL0     C60115   5.214   6.358   8.685 -1.2373  0.0182 -0.3766
  446MOL0     C60116   5.106   6.287   8.605  0.4159 -0.2194 -0.2360
  446MOL0     C60117   5.092   6.336   8.460 -0.8025  1.1778 -0.3064
  446MOL0     C60118   4.958   6.291   8.401 -0.1532 -0.8394 -0.0145
  446MOL0     C60119   4.944   6.334   8.257  0.8246  0.0387 -0.3250
  446MOL0    Cl60120   4.800   6.251   8.208  0.1137 -0.6251 -0.1516
  446MOL0     C60121   5.010   6.391   9.285 -0.5483 -1.4421 -0.0644
  446MOL0     C60122   4.923   6.467   9.376 -0.7366  0.3833 -0.8275
  446MOL0     O60123   4.683   6.659   9.360  0.6257  0.6394 -0.3625
  446MOL0     C60124   4.745   6.866   9.660 -0.5327 -0.5546 -0.7983
  446MOL0     C60125   4.687   6.953   9.743 -0.2710 -0.5388 -0.1094
  446MOL0     N60126   4.468   7.472  10.407  0.2238  0.2597  0.7379
  446MOL0     N60127   4.405   7.410  10.503  0.4440  0.2706  0.2983
  446MOL0     C60128   3.416   7.963  10.568  0.2265 -0.4095 -0.1812
  446MOL0     C60129   3.292   8.005  10.633 -0.5743  0.3352 -0.6526
  446MOL0     C60130   3.089   8.210  11.001  0.5998 -0.3383 -0.1347
  446MOL0     C60131   2.988   8.266  10.908  0.2177  0.4015 -0.3056
  446MOL0     C60132   2.895   8.361  10.953 -0.1103 -0.5459 -1.0249
  446MOL0     C60133   2.903   8.428  11.085  0.5780 -0.2934  0.8705
  446MOL0     O60134   2.817   8.533  11.115  0.5240  0.3574  0.1169
  446MOL0     C60135   2.830   8.613  11.234 -0.3150 -0.1956  0.0195
  446MOL0     C60136   2.844   8.768  11.211 -0.2250  0.5200 -0.3979
  446MOL0     C60137   2.704   8.825  11.175 -0.7535 -0.7238 -0.7948
  446MOL0     C60138   2.696   8.972  11.211  0.4680  0.9805 -0.0235
  446MOL0     C60139   2.669   9.004  11.349 -0.1982 -0.0447  0.5583
  446MOL0     C60140   2.638   9.037  11.461  0.6246 -0.0200 -0.0929
  446MOL0     C60141   2.997   8.373  11.172 -0.2384  0.0242  0.7775
  446MOL0     C60142   3.088   8.274  11.133  1.0292 -0.4574  0.2970
  446MOL0     H60143   3.375   7.924  10.942 -1.3486 -0.7249 -0.7410
  446MOL0     H60144   3.591   7.845  10.823  0.0185 -3.7175 -3.1047
  446MOL0     H60145   3.633   8.004  10.400 -2.0426  0.6543  2.1696
  446MOL0     H60146   3.776   8.005  10.493  0.0243  1.0283 -2.0405
  446MOL0     H60147   3.673   7.759  10.339 -1.7698  3.4786  1.0836
  446MOL0     H60148   3.800   7.861  10.272 -1.8497 -0.9957 -1.2457
  446MOL0     H60149   3.935   7.781  10.482  0.7276 -1.8812  1.5209
  446MOL0     H60150   3.795   7.670  10.509 -0.9796  2.0445  0.1408
  446MOL0     H60151   3.828   7.578  10.278  0.7775 -1.4248 -1.7770
  446MOL0     H60152   3.975   7.683  10.271 -2.4731  2.7251  1.1774
  446MOL0     H60153   4.033   7.556  10.489 -2.8699  1.9305  1.4843
  446MOL0     H60154   3.881   7.480  10.478 -2.4804  2.4230 -0.0690
  446MOL0     H60155   3.939   7.390  10.252  3.3251  1.1302 -3.3341
  446MOL0     H60156   4.102   7.454  10.261  2.1877 -2.6299 -2.1783
  446MOL0     H60157   3.973   7.251  10.445 -0.7588  0.8544 -1.2348
  446MOL0     H60158   4.090   7.207  10.323 -0.3598  1.7741 -2.2343
  446MOL0     H60159   4.206   7.194  10.535  0.0702 -0.2194  0.6152
  446MOL0     H60160   4.151   7.359  10.585 -0.7854  0.9693  0.2975
  446MOL0     H60161   4.284   7.271  10.224  0.3335  4.8138 -3.6155
  446MOL0     H60162   4.426   7.459  10.099  1.0041  0.5878 -1.5711
  446MOL0     H60163   4.576   7.519  10.169 -1.2974 -0.1908  0.0611
  446MOL0     H60164   4.629   7.243  10.177 -1.8028 -0.5737  0.9516
  446MOL0     H60165   4.680   7.340  10.043  2.2191 -1.7899  1.1659
  446MOL0     H60166   4.444   7.290   9.937 -1.2444  0.3076  0.3361
  446MOL0     H60167   4.411   7.192  10.087  0.1876  2.2226  1.5173
  446MOL0     H60168   4.611   7.048  10.018  1.2176 -0.1745 -0.8415
  446MOL0     H60169   4.641   7.165   9.890  0.3675 -0.9501 -0.7739
  446MOL0     H60170   4.366   6.888   9.684  0.4514 -0.2017  2.8760
  446MOL0     H60171   4.334   6.812   9.471 -0.6714 -1.7903 -0.5398
  446MOL0     H60172   4.469   6.793   9.359  5.7790  3.4333  1.8818
  446MOL0     H60173   4.420   6.654   9.466 -2.2247 -0.3047  4.1566
  446MOL0     H60174   5.081   6.775   9.358 -1.9085  1.4455  1.5818
  446MOL0     H60175   5.193   6.679   9.202 -0.4235 -0.6516 -1.1564
  446MOL0     H60176   5.180   6.539   8.968  0.7103  2.4017  1.6073
  446MOL0     H60177   5.327   6.537   9.071 -1.7575  0.0474  2.3177
  446MOL0     H60178   5.395   6.414   8.861  2.6391 -3.6807  0.6410
  446MOL0     H60179   5.355   6.297   8.983 -1.3908  2.5608  2.7983
  446MOL0     H60180   5.102   6.352   8.870  1.1650  0.5506  0.8682
  446MOL0     H60181   5.206   6.209   8.839  1.3444  0.3714  0.3116
  446MOL0     H60182   5.191   6.465   8.678 -2.9099 -0.1740  1.3170
  446MOL0     H60183   5.311   6.336   8.641 -1.3669  1.0931 -1.2293
  446MOL0     H60184   5.013   6.308   8.659  0.3376  0.4921 -0.6395
  446MOL0     H60185   5.125   6.179   8.596  3.2954  0.1547  0.4379
  446MOL0     H60186   5.104   6.444   8.449  2.5982  0.9672  0.4675
  446MOL0     H60187   5.176   6.292   8.405 -1.3756  0.1229 -0.3775
  446MOL0     H60188   4.890   6.355   8.458  1.2452  2.0082 -1.3381
  446MOL0     H60189   4.953   6.182   8.404 -0.5566 -0.8167  0.2084
  446MOL0     H60190   5.019   6.304   8.183 -1.4795 -1.7199 -2.0992
  446MOL0     H60191   4.935   6.443   8.258 -0.9032 -0.0796 -0.6585
  446MOL0     H60192   4.998   6.289   9.249 -1.2225 -1.8876  1.3222
  446MOL0     H60193   4.845   6.407   9.423  0.9639  0.1232  1.8649
  446MOL0     H60194   4.849   6.851   9.684 -1.0165 -2.3201  0.4314
  446MOL0     H60195   4.751   6.993   9.821 -3.3025 -2.9792  4.0420
  446MOL0     H60196   3.417   7.963  10.460 -1.1758  1.5845 -0.2367
  446MOL0     H60197   3.208   8.053  10.586 -1.9062 -0.1213  1.1568
  446MOL0     H60198   2.981   8.233  10.804  0.4622 -2.3525  0.4722
  446MOL0     H60199   2.827   8.397  10.876 -0.8520 -1.9704 -1.0663
  446MOL0     H60200   2.743   8.596  11.298  0.1698  4.1042  2.1696
  446MOL0     H60201   2.911   8.584  11.302  0.1562 -1.2428 -0.9586
  446MOL0     H60202   2.910   8.784  11.125  1.3029 -1.3826  0.3375
  446MOL0     H60203   2.882   8.825  11.296  0.4176 -0.8653  0.2683
  446MOL0     H60204   2.630   8.778  11.240  1.7939  0.5144  3.4213
  446MOL0     H60205   2.676   8.799  11.073  3.9202  1.5786 -2.9875
  446MOL0     H60206   2.615   9.008  11.147 -1.0602 -1.1513  0.5887
  446MOL0     H60207   2.788   9.021  11.179  2.1540 -1.1835  1.1970
  446MOL0     H60208   2.604   9.076  11.555  0.5528 -1.4500  0.4920
  446MOL0     H60209   3.003   8.418  11.271  0.5157 -1.1212  1.2740
  446MOL0     H60210   3.168   8.258  11.205  1.8164  1.2472 -0.1492
  447MOL0     O60211   3.302   9.088  11.050  0.1046  0.3037  0.0663
  447MOL0     C60212   3.199   9.065  11.113 -0.3587 -0.0388  0.3349
  447MOL0     O60213   3.132   8.946  11.122  0.8035 -0.3146 -0.0825
  447MOL0     C60214   3.170   8.838  11.036 -0.9001  0.0705 -0.6748
  447MOL0     C60215   3.191   8.860  10.903  0.2800  0.5918 -0.4315
  447MOL0     C60216   3.216   8.750  10.811  0.5043 -0.2556  0.5257
  447MOL0     C60217   3.244   8.626  10.863  0.6292 -0.1380  0.1028
  447MOL0     O60218   3.282   8.520  10.794  0.0074 -0.3119  0.2253
  447MOL0     C60219   3.327   8.529  10.657  0.0306 -0.2930 -0.0753
  447MOL0     C60220   3.403   8.393  10.642  0.5346 -0.6821 -0.0119
  447MOL0     C60221   3.546   8.414  10.695 -0.7022  0.1307 -0.3017
  447MOL0     C60222   3.614   8.276  10.694 -0.0521  0.0919  0.0342
  447MOL0     C60223   3.758   8.281  10.758 -0.0386  0.3689  0.4257
  447MOL0     C60224   3.872   8.308  10.650  0.5556  0.1302  0.0774
  447MOL0     C60225   3.943   8.436  10.689 -0.4928 -0.8194  0.5576
  447MOL0     C60226   4.076   8.470  10.617  0.2429 -0.4625 -0.1366
  447MOL0     N60227   4.056   8.509  10.475 -0.6243  0.0557 -0.5883
  447MOL0     C60228   4.045   8.424  10.364  0.8984 -0.2604  0.6163
  447MOL0     C60229   4.068   8.509  10.254 -0.8753 -0.0595 -0.7347
  447MOL0     C60230   4.048   8.483  10.106 -0.5605 -0.3033  0.4205
  447MOL0     C60231   4.185   8.516  10.022  0.3861  0.3627  0.8251
  447MOL0     C60232   4.221   8.664   9.984  0.6367  0.3321 -0.4280
  447MOL0     C60233   4.344   8.675   9.895 -0.3729 -0.7642  0.3913
  447MOL0     O60234   4.460   8.680   9.984  0.8550 -0.1197  0.2072
  447MOL0     C60235   4.577   8.624   9.932  0.0484  0.3066  0.6112
  447MOL0     C60236   4.623   8.647   9.803 -0.0679 -0.1621 -0.3248
  447MOL0     C60237   4.755   8.604   9.756  0.1151 -0.5599 -0.7464
  447MOL0     C60238   4.792   8.625   9.608 -0.6834 -0.0513 -0.4816
  447MOL0     C60239   4.829   8.524   9.854  0.1736  0.3244 -0.2641
  447MOL0     C60240   4.960   8.457   9.817 -0.2687  0.7406 -0.4810
  447MOL0     O60241   5.038   8.427   9.921 -0.0752 -0.4558  0.2812
  447MOL0     C60242   5.158   8.365   9.891 -0.7012 -0.2539  0.7135
  447MOL0     C60243   5.276   8.436   9.831 -0.1444 -0.5146 -0.1418
  447MOL0     C60244   5.391   8.366   9.785  0.3054  0.5953  0.5534
  447MOL0     C60245   5.416   8.234   9.816  0.9687 -0.2098  0.4679
  447MOL0     O60246   5.519   8.157   9.771  0.6918  0.4587 -0.3185
  447MOL0     C60247   5.633   8.223   9.708  0.8188 -0.3196 -0.4880
  447MOL0     C60248   5.757   8.136   9.701  0.1030  0.1019 -0.5120
  447MOL0     C60249   5.827   8.141   9.831  1.2727 -0.0227 -0.4402
  447MOL0     C60250   5.968   8.089   9.826  0.2943 -0.0561 -0.2152
  447MOL0     C60251   6.025   8.078   9.963 -0.4807  0.4296  0.2820
  447MOL0     C60252   6.156   8.004   9.967 -1.1141  0.7345  0.1384
  447MOL0     C60253   6.217   7.984  10.104 -0.2744 -0.0451  0.2179
  447MOL0     C60254   6.342   7.902  10.105  0.0630  0.3276  0.7270
  447MOL0    Cl60255   6.466   8.014  10.025  0.3421 -0.4307 -0.0259
  447MOL0     C60256   5.315   8.168   9.889  0.2115 -1.0387  0.1506
  447MOL0     C60257   5.188   8.229   9.929  0.1747  0.7842 -0.4837
  447MOL0     O60258   4.992   8.444   9.697  0.0400 -1.1719 -0.1076
  447MOL0     C60259   4.773   8.500   9.988 -0.2082 -0.0343  0.3083
  447MOL0     C60260   4.652   8.558  10.023  0.0806  0.7853  0.3580
  447MOL0     N60261   4.080   8.645  10.302  0.3964  0.7407 -0.9201
  447MOL0     N60262   4.070   8.636  10.430 -0.3484 -0.3729 -0.4272
  447MOL0     C60263   3.233   8.607  11.001  0.0913 -0.3713 -0.0390
  447MOL0     C60264   3.187   8.705  11.083 -0.7276 -0.2226 -0.7323
  447MOL0     C60265   3.130   9.181  11.182 -0.1011 -0.3900 -0.5213
  447MOL0     C60266   3.179   9.311  11.181 -0.4601 -0.4443  0.5548
  447MOL0     C60267   3.114   9.410  11.254 -0.4757 -0.1773 -0.3224
  447MOL0     C60268   2.986   9.390  11.299 -0.6204 -0.2423  1.6342
  447MOL0     O60269   2.913   9.509  11.311 -0.0319  0.2302  0.0365
  447MOL0     C60270   2.778   9.490  11.326  1.5834 -1.9982  0.0338
  447MOL0     C60271   2.721   9.636  11.364  0.4179  0.6513 -0.6340
  447MOL0     C60272   2.581   9.608  11.420  0.4432  0.3098 -0.3436
  447MOL0     C60273   2.471   9.575  11.315 -0.3752  0.0586  0.0317
  447MOL0     C60274   2.446   9.435  11.314 -0.2071  0.1887  0.5965
  447MOL0     C60275   2.417   9.320  11.311 -0.1696  0.7830  0.3847
  447MOL0     C60276   2.933   9.253  11.311 -1.1393  0.3832 -0.3192
  447MOL0     C60277   3.012   9.157  11.254  0.3357 -0.7065  0.3665
  447MOL0     H60278   3.180   8.959  10.860  1.8963 -0.5022 -3.7230
  447MOL0     H60279   3.235   8.772  10.706 -1.5545 -1.5870 -0.1910
  447MOL0     H60280   3.237   8.536  10.596 -1.4808  0.8227  2.1414
  447MOL0     H60281   3.376   8.626  10.641 -0.2423 -0.0248  0.6488
  447MOL0     H60282   3.342   8.318  10.693  0.3893  1.2716  2.8778
  447MOL0     H60283   3.415   8.363  10.537 -2.1814 -0.1352 -0.5631
  447MOL0     H60284   3.611   8.473  10.630 -1.1793  2.2717  1.0641
  447MOL0     H60285   3.546   8.460  10.795 -1.9935  1.5300 -0.9130
  447MOL0     H60286   3.572   8.208  10.769  1.7512  0.9393  1.9244
  447MOL0     H60287   3.608   8.239  10.591 -0.1305  4.4384 -1.7326
  447MOL0     H60288   3.748   8.357  10.836 -1.4773  0.7235 -0.0649
  447MOL0     H60289   3.774   8.177  10.788  0.7592 -0.3594 -2.2986
  447MOL0     H60290   3.944   8.227  10.649  5.2056  3.8163 -1.7776
  447MOL0     H60291   3.816   8.305  10.556 -0.2757 -0.9779  0.5896
  447MOL0     H60292   3.867   8.513  10.673  1.0396  0.8363  0.9127
  447MOL0     H60293   3.974   8.432  10.794 -0.2912 -1.4328  0.4802
  447MOL0     H60294   4.150   8.390  10.608  0.1000 -0.4522 -1.6367
  447MOL0     H60295   4.113   8.556  10.675 -2.5112 -0.0843  1.2623
  447MOL0     H60296   4.037   8.316  10.356  0.3706 -0.1144 -1.3866
  447MOL0     H60297   4.024   8.378  10.087  1.3538 -0.5613 -0.8225
  447MOL0     H60298   3.970   8.551  10.070  2.6627  3.6006  0.0008
  447MOL0     H60299   4.173   8.462   9.928  0.0164 -0.3314  1.2629
  447MOL0     H60300   4.272   8.463  10.062  0.6507  0.5404  0.4909
  447MOL0     H60301   4.236   8.709  10.082 -0.5828  1.4107 -0.7014
  447MOL0     H60302   4.145   8.725   9.934  1.3208  0.3630 -1.4612
  447MOL0     H60303   4.341   8.764   9.831  3.6990 -1.3356 -0.8968
  447MOL0     H60304   4.355   8.591   9.825  2.2858 -2.0365  2.1754
  447MOL0     H60305   4.558   8.695   9.731  0.1923 -2.0951 -1.9330
  447MOL0     H60306   4.896   8.658   9.611 -1.2178  1.9651 -2.2460
  447MOL0     H60307   4.778   8.528   9.560  3.0988 -1.2232  0.4261
  447MOL0     H60308   4.729   8.699   9.557  2.4750  0.8785 -3.3521
  447MOL0     H60309   5.273   8.541   9.804 -0.9766 -0.9064 -1.7069
  447MOL0     H60310   5.461   8.411   9.716  0.4030 -4.0130 -2.7989
  447MOL0     H60311   5.597   8.270   9.616  0.8942  3.0774  1.0676
  447MOL0     H60312   5.652   8.300   9.784 -1.6347 -1.1724  1.1564
  447MOL0     H60313   5.727   8.037   9.666  0.0567  0.8484 -2.7887
  447MOL0     H60314   5.832   8.173   9.630  2.2063  0.9589  1.9998
  447MOL0     H60315   5.771   8.086   9.907 -0.5517 -0.8776 -2.2965
  447MOL0     H60316   5.833   8.239   9.879 -2.5346 -1.3364  3.4102
  447MOL0     H60317   5.955   7.987   9.787 -4.8531  0.4648 -0.5660
  447MOL0     H60318   6.029   8.151   9.759 -3.3374  1.7812 -2.1146
  447MOL0     H60319   5.961   8.020  10.030 -0.2829  0.8650  0.8551
  447MOL0     H60320   6.041   8.177  10.005  3.4290 -0.9611  2.6832
  447MOL0     H60321   6.132   7.907   9.922 -1.2296  0.8706 -0.0965
  447MOL0     H60322   6.228   8.050   9.899  1.9753 -0.3795  2.4229
  447MOL0     H60323   6.150   7.928  10.169  0.6986 -0.5645  0.7922
  447MOL0     H60324   6.227   8.072  10.168 -0.8601 -0.9618  1.6147
  447MOL0     H60325   6.318   7.806  10.059  0.3974 -0.3295  1.8851
  447MOL0     H60326   6.367   7.870  10.206 -0.0314 -2.1624  0.0270
  447MOL0     H60327   5.316   8.063   9.914 -0.1960 -0.8204  1.1571
  447MOL0     H60328   5.112   8.181   9.990  0.1504 -0.5575 -1.5312
  447MOL0     H60329   4.833   8.446  10.061 -0.2711 -1.5213 -0.6958
  447MOL0     H60330   4.609   8.547  10.122  0.7521  1.2083  0.6976
  447MOL0     H60331   3.248   8.509  11.046 -0.4715 -0.5040 -0.1365
  447MOL0     H60332   3.171   8.672  11.185  0.0989  1.9656  0.1769
  447MOL0     H60333   3.271   9.323  11.125 -1.5591 -2.2286 -1.7781
  447MOL0     H60334   3.147   9.513  11.266  4.2620 -1.7400  3.0722
  447MOL0     H60335   2.728   9.436  11.245  0.4413 -1.5008  0.3765
  447MOL0     H60336   2.754   9.423  11.409 -1.7018 -1.5095 -0.3816
  447MOL0     H60337   2.725   9.712  11.285  2.2997 -1.5897 -2.8628
  447MOL0     H60338   2.784   9.673  11.445 -0.4628 -1.5272  1.1628
  447MOL0     H60339   2.542   9.696  11.470 -0.1894  1.3227 -2.5111
  447MOL0     H60340   2.591   9.532  11.498  1.6161  1.2933  0.5047
  447MOL0     H60341   2.489   9.610  11.213  1.5478  0.3630  0.4319
  447MOL0     H60342   2.381   9.624  11.352  1.2202  1.8906  1.6913
  447MOL0     H60343   2.382   9.220  11.295  2.6432 -0.2881  0.4266
  447MOL0     H60344   2.834   9.243  11.354 -0.8472  1.9309  0.8265
  447MOL0     H60345   2.967   9.058  11.253 -0.3150 -0.4347 -1.6178
  448MOL0     O60346   9.388   4.347   9.291  1.2004  0.2526 -0.7341
  448MOL0     C60347   9.411   4.334   9.177 -0.3513  0.8784  0.3273
  448MOL0     O60348   9.444   4.433   9.086  0.0363 -0.0575  0.3183
  448MOL0     C60349   9.467   4.558   9.131  0.0391  0.6422  1.0768
  448MOL0     C60350   9.367   4.648   9.095 -0.7816  0.8843 -0.6403
  448MOL0     C60351   9.367   4.764   9.170  0.4287 -0.2455  0.4644
  448MOL0     C60352   9.475   4.803   9.255 -0.2361 -0.3803  1.2834
  448MOL0     O60353   9.468   4.929   9.296 -0.0183  0.2809 -0.1111
  448MOL0     C60354   9.534   4.968   9.418 -0.2734 -0.0276  0.0409
  448MOL0     C60355   9.587   5.110   9.428  0.1652 -0.4584 -0.6340
  448MOL0     C60356   9.680   5.130   9.541  0.3386 -0.0474  0.0775
  448MOL0     C60357   9.715   5.285   9.557  0.0885  0.3693  0.0914
  448MOL0     C60358   9.778   5.322   9.691 -0.4786  0.5549 -0.2270
  448MOL0     C60359   9.680   5.403   9.777 -0.0575 -0.2014 -1.9075
  448MOL0     C60360   9.652   5.336   9.920  0.1487  0.0340 -0.6242
  448MOL0     C60361   9.524   5.242   9.921 -0.4942  0.3298  0.3444
  448MOL0     N60362   9.404   5.311   9.960 -0.0590  0.2622 -0.3104
  448MOL0     C60363   9.313   5.276  10.058 -0.1487  0.6764 -0.6687
  448MOL0     C60364   9.226   5.377  10.068 -0.8958  0.1629 -0.8379
  448MOL0     C60365   9.111   5.381  10.161  0.2539 -1.3106  0.1105
  448MOL0     C60366   8.990   5.306  10.121  0.0162 -0.1240 -0.1645
  448MOL0     C60367   8.916   5.375  10.004 -0.3072 -0.9588  0.7958
  448MOL0     C60368   8.862   5.520  10.030 -0.4350  0.0295  0.3714
  448MOL0     O60369   8.756   5.507  10.129  0.2863 -0.3296  0.5298
  448MOL0     C60370   8.687   5.629  10.151  0.4303 -0.2347 -1.4835
  448MOL0     C60371   8.550   5.620  10.175 -0.6554  0.5000  0.8229
  448MOL0     C60372   8.463   5.727  10.213 -0.2742  0.0926  0.4688
  448MOL0     C60373   8.318   5.703  10.251 -0.4322  0.3654  0.9523
  448MOL0     C60374   8.519   5.851  10.189 -0.2332 -0.0709 -0.2137
  448MOL0     C60375   8.443   5.976  10.213 -0.4970  0.1526 -0.7492
  448MOL0     O60376   8.320   5.976  10.176 -0.5517 -0.3272  0.5773
  448MOL0     C60377   8.255   6.089  10.223 -0.4973 -0.1627  0.3110
  448MOL0     C60378   8.265   6.202  10.147 -0.6161  0.6473  0.6904
  448MOL0     C60379   8.186   6.317  10.169 -0.4591  0.0516 -0.8944
  448MOL0     C60380   8.102   6.323  10.289 -0.4943  0.6350  0.3188
  448MOL0     O60381   8.023   6.420  10.315 -0.4217 -0.0163  0.6966
  448MOL0     C60382   8.050   6.557  10.278 -0.7516 -0.4329  0.2875
  448MOL0     C60383   7.983   6.618  10.150  0.5056  0.3690 -0.1593
  448MOL0     C60384   7.817   6.619  10.153  0.3074 -0.6561 -0.2023
  448MOL0     C60385   7.772   6.670  10.024  0.4033 -0.6007 -0.4708
  448MOL0     C60386   7.743   6.821  10.021 -0.4513 -0.7148 -0.2359
  448MOL0     C60387   7.680   6.868   9.895  1.3565 -0.3860  0.8224
  448MOL0     C60388   7.745   6.832   9.761  0.7067 -1.1040  0.1144
  448MOL0     C60389   7.723   6.925   9.644  1.4090 -0.0227  0.0680
  448MOL0    Cl60390   7.828   6.856   9.515  0.1318 -0.1575 -0.1301
  448MOL0     C60391   8.097   6.211  10.367 -0.7133  0.1040  0.2413
  448MOL0     C60392   8.173   6.092  10.336  0.7006 -1.0054 -1.1004
  448MOL0     O60393   8.510   6.068  10.265 -0.2881  0.4554  0.0852
  448MOL0     C60394   8.650   5.870  10.156  0.1903  0.5298  0.3047
  448MOL0     C60395   8.740   5.763  10.138  0.6602  0.6423 -0.4550
  448MOL0     N60396   9.272   5.477   9.986  0.1285 -0.5980 -0.0222
  448MOL0     N60397   9.376   5.435   9.920 -0.1431  0.0594 -0.2479
  448MOL0     C60398   9.574   4.710   9.280 -0.5481 -0.1589  0.0107
  448MOL0     C60399   9.577   4.583   9.220 -0.6591 -0.4151  0.9688
  448MOL0     C60400   9.378   4.199   9.110 -0.9203 -0.1907  0.4057
  448MOL0     C60401   9.332   4.102   9.182  0.0795  0.4724 -0.4303
  448MOL0     C60402   9.290   3.977   9.137 -0.4012 -0.5901  0.7759
  448MOL0     C60403   9.297   3.950   8.997 -0.0433  0.4023  0.0312
  448MOL0     O60404   9.257   3.828   8.958  0.1075  0.1390 -0.0730
  448MOL0     C60405   9.274   3.780   8.820  0.9610 -0.6583 -0.0023
  448MOL0     C60406   9.240   3.635   8.806  0.0419  1.1438  0.2241
  448MOL0     C60407   9.336   3.534   8.876 -0.0403  1.3009  0.8247
  448MOL0     C60408   9.320   3.525   9.021  0.6916  0.5705  1.1824
  448MOL0     C60409   9.384   3.413   9.093  0.6611  0.0503  0.3676
  448MOL0     C60410   9.432   3.318   9.155 -0.9748 -0.2402 -0.3965
  448MOL0     C60411   9.351   4.047   8.915 -1.5565 -0.6037  0.3342
  448MOL0     C60412   9.391   4.172   8.968 -0.7309 -0.6974  0.0202
  448MOL0     H60413   9.279   4.622   9.036 -2.4527  0.6868  1.7924
  448MOL0     H60414   9.275   4.821   9.157 -0.1243 -0.9133  1.2642
  448MOL0     H60415   9.469   4.950   9.504  1.2695  0.5408  1.3843
  448MOL0     H60416   9.624   4.908   9.435 -0.7130 -0.8855 -0.5782
  448MOL0     H60417   9.646   5.126   9.337  1.0018 -0.0135 -0.0233
  448MOL0     H60418   9.514   5.189   9.411  1.4022  0.5124 -1.6376
  448MOL0     H60419   9.617   5.100   9.625 -1.0912  0.2828 -0.8389
  448MOL0     H60420   9.774   5.074   9.544  1.4673  1.7353  0.0682
  448MOL0     H60421   9.784   5.313   9.477  1.1058 -1.6741  0.1891
  448MOL0     H60422   9.616   5.332   9.552 -3.3058 -5.7883  0.7859
  448MOL0     H60423   9.815   5.234   9.745  2.8855  0.5017 -2.3318
  448MOL0     H60424   9.868   5.379   9.667 -1.7667  2.3045 -1.1703
  448MOL0     H60425   9.718   5.501   9.808 -0.3931 -0.6023 -0.0813
  448MOL0     H60426   9.580   5.412   9.732 -0.2112 -1.0197 -1.7544
  448MOL0     H60427   9.743   5.285   9.952  1.9886  2.0695 -2.2317
  448MOL0     H60428   9.644   5.408  10.001  0.7570 -0.5915  0.0019
  448MOL0     H60429   9.535   5.159   9.991 -1.9683  1.5593  2.1381
  448MOL0     H60430   9.511   5.206   9.818 -0.1955  1.1380  0.0121
  448MOL0     H60431   9.318   5.182  10.112 -1.4661 -0.7233 -2.8045
  448MOL0     H60432   9.143   5.341  10.258 -0.8386 -0.7954  0.7078
  448MOL0     H60433   9.072   5.482  10.178 -0.3775 -1.5931  0.3958
  448MOL0     H60434   8.907   5.288  10.190 -1.6570  0.4810 -1.9419
  448MOL0     H60435   9.020   5.207  10.085  1.7949 -0.5545  2.1793
  448MOL0     H60436   8.832   5.322   9.959 -0.2638  1.0205 -1.8617
  448MOL0     H60437   8.985   5.379   9.919 -0.9042 -1.7108  0.2702
  448MOL0     H60438   8.830   5.568   9.937  3.1401  0.2907 -0.8456
  448MOL0     H60439   8.938   5.586  10.073 -1.2101 -0.0100  1.8528
  448MOL0     H60440   8.500   5.529  10.206  1.3583 -1.4067 -1.2096
  448MOL0     H60441   8.309   5.607  10.302 -2.9381 -0.5377 -0.9893
  448MOL0     H60442   8.267   5.772  10.318 -1.4947 -1.6393  2.2793
  448MOL0     H60443   8.260   5.712  10.159  2.8349  0.2246 -1.3223
  448MOL0     H60444   8.326   6.187  10.058 -0.9650  0.1389  0.5332
  448MOL0     H60445   8.185   6.398  10.097 -1.4267 -0.3307 -1.3235
  448MOL0     H60446   8.027   6.623  10.362 -1.0650 -2.5963  1.9725
  448MOL0     H60447   8.156   6.572  10.258 -0.1195 -2.4547  1.8723
  448MOL0     H60448   8.014   6.723  10.143  0.1169  0.6019  1.2403
  448MOL0     H60449   8.008   6.569  10.056 -2.3355 -0.7322 -0.4476
  448MOL0     H60450   7.777   6.680  10.235  1.4387 -4.6465  3.7081
  448MOL0     H60451   7.778   6.518  10.167 -0.2676 -1.1200 -4.1163
  448MOL0     H60452   7.844   6.641   9.947  2.8253 -0.9028  1.7501
  448MOL0     H60453   7.684   6.610  10.000 -0.0598 -1.2373  2.3857
  448MOL0     H60454   7.835   6.875  10.042 -1.2576  0.3925  0.5237
  448MOL0     H60455   7.671   6.837  10.102 -2.8882  0.1359 -2.4124
  448MOL0     H60456   7.584   6.816   9.894  2.6184 -3.2462 -3.3297
  448MOL0     H60457   7.670   6.976   9.893  3.0761 -0.2038  0.2345
  448MOL0     H60458   7.699   6.741   9.722 -0.5342 -0.3030 -0.3460
  448MOL0     H60459   7.853   6.819   9.769  0.9294  0.4900 -0.1168
  448MOL0     H60460   7.741   7.033   9.655 -0.1928  0.3728 -0.9322
  448MOL0     H60461   7.615   6.918   9.628  0.5700  0.5568  4.3278
  448MOL0     H60462   8.030   6.211  10.452 -2.6938  0.3170 -1.2488
  448MOL0     H60463   8.170   6.003  10.397 -2.3127  1.0358  2.0943
  448MOL0     H60464   8.694   5.967  10.135 -4.7891  2.8825 -0.5894
  448MOL0     H60465   8.844   5.775  10.107  1.0077  1.9474  1.0843
  448MOL0     H60466   9.653   4.737   9.349 -2.2657  2.1449  1.2278
  448MOL0     H60467   9.660   4.515   9.234  0.6747  0.1833 -2.8403
  448MOL0     H60468   9.318   4.118   9.289  1.3677  1.6148 -0.4022
  448MOL0     H60469   9.252   3.902   9.206  0.6991 -2.5563 -0.6632
  448MOL0     H60470   9.200   3.834   8.761 -1.5450 -2.5730  1.2244
  448MOL0     H60471   9.377   3.789   8.782  0.4554 -0.0434 -1.2772
  448MOL0     H60472   9.233   3.607   8.701 -0.0352 -0.2638  0.5889
  448MOL0     H60473   9.137   3.621   8.840 -1.1417  1.4954 -2.8845
  448MOL0     H60474   9.444   3.540   8.859 -0.2125 -1.9068 -2.9211
  448MOL0     H60475   9.310   3.433   8.843 -2.1510  1.7429  1.0400
  448MOL0     H60476   9.215   3.520   9.049  0.0119 -1.1595 -1.3572
  448MOL0     H60477   9.363   3.620   9.056 -0.3325  1.2335  0.6954
  448MOL0     H60478   9.474   3.232   9.204  1.2012 -0.4154 -2.3868
  448MOL0     H60479   9.343   4.027   8.809 -1.1396 -1.1790  0.4110
  448MOL0     H60480   9.425   4.246   8.896  0.0006 -2.3246 -1.3491
  449MOL0     O60481   2.333  10.516   2.855  1.8347  0.8217 -0.4168
  449MOL0     C60482   2.240  10.477   2.789 -1.0443 -0.7263 -1.0740
  449MOL0     O60483   2.201  10.349   2.793 -0.3075  0.2455 -0.8038
  449MOL0     C60484   2.264  10.265   2.881 -0.4078  0.2829  0.0374
  449MOL0     C60485   2.187  10.200   2.979 -1.3308 -0.7700  0.7977
  449MOL0     C60486   2.245  10.110   3.076  0.1371 -0.1465  0.4259
  449MOL0     C60487   2.368  10.067   3.057 -0.4063 -1.3205 -0.1212
  449MOL0     O60488   2.432   9.979   3.146 -0.2992 -0.6164  0.2257
  449MOL0     C60489   2.396   9.840   3.119 -0.5796  0.7826  0.0467
  449MOL0     C60490   2.389   9.788   2.974  1.1633  0.1964  0.0725
  449MOL0     C60491   2.392   9.634   2.967 -0.8704 -0.6380  0.4103
  449MOL0     C60492   2.291   9.566   3.061  0.5075  1.0021 -0.3722
  449MOL0     C60493   2.282   9.406   3.026  1.0521 -0.2492 -0.9690
  449MOL0     C60494   2.162   9.343   3.102 -0.8494 -0.2104 -0.1925
  449MOL0     C60495   2.035   9.348   3.016  0.6118  0.1962 -0.6568
  449MOL0     C60496   1.902   9.344   3.087 -0.3056  0.2447  0.7360
  449MOL0     N60497   1.863   9.235   3.185 -0.3803 -0.6836  0.1468
  449MOL0     C60498   1.914   9.205   3.305  0.6316 -0.6219 -0.4356
  449MOL0     C60499   1.858   9.097   3.349  1.0641  0.6265  0.5251
  449MOL0     C60500   1.881   9.019   3.474  0.3500  1.5981  0.3803
  449MOL0     C60501   1.783   9.043   3.592  0.0500 -0.7276  0.0080
  449MOL0     C60502   1.713   9.183   3.584 -0.6606 -0.3291  0.5842
  449MOL0     C60503   1.606   9.194   3.694  1.4791  0.7038 -0.8916
  449MOL0     O60504   1.559   9.331   3.706  0.2198  0.1499  0.2005
  449MOL0     C60505   1.461   9.378   3.628  0.0803  0.6224 -0.1275
  449MOL0     C60506   1.421   9.510   3.644  0.0470  0.4945  0.2789
  449MOL0     C60507   1.342   9.581   3.554 -0.6582 -0.1364  0.3972
  449MOL0     C60508   1.339   9.730   3.574 -0.2927 -0.4054  0.2131
  449MOL0     C60509   1.275   9.517   3.444  0.4028  0.3463 -0.3552
  449MOL0     C60510   1.179   9.571   3.352  0.0524 -0.7210  0.2506
  449MOL0     O60511   1.138   9.497   3.250  0.3699  0.1980  0.4139
  449MOL0     C60512   1.068   9.558   3.146 -0.0477 -0.0545 -0.6516
  449MOL0     C60513   1.093   9.686   3.087 -0.3903  0.6861  0.8499
  449MOL0     C60514   1.029   9.741   2.974  1.0167  1.2905  0.4587
  449MOL0     C60515   0.926   9.657   2.921 -0.0528 -0.5927 -0.2757
  449MOL0     O60516   0.853   9.690   2.810 -0.7658 -0.1489 -0.0913
  449MOL0     C60517   0.772   9.808   2.832  0.7070 -0.5974 -0.2625
  449MOL0     C60518   0.680   9.855   2.714 -0.9546 -0.1575 -0.8608
  449MOL0     C60519   0.761   9.855   2.584  0.4774 -0.4253 -0.3522
  449MOL0     C60520   0.682   9.918   2.458 -0.3705 -0.4682  0.0429
  449MOL0     C60521   0.535   9.889   2.442  0.7805 -0.0298  0.4560
  449MOL0     C60522   0.510   9.739   2.436  0.2621 -0.5464  0.0866
  449MOL0     C60523   0.579   9.664   2.321  0.4146 -0.3855 -0.5102
  449MOL0     C60524   0.541   9.518   2.323 -0.2592  0.2027  0.3740
  449MOL0    Cl60525   0.607   9.466   2.172 -0.0646  0.3789  0.3092
  449MOL0     C60526   0.898   9.529   2.973  0.4128  1.2322 -0.1539
  449MOL0     C60527   0.971   9.481   3.079 -0.8342  0.0171  0.7596
  449MOL0     O60528   1.147   9.686   3.371  0.0358 -0.2071 -0.0036
  449MOL0     C60529   1.306   9.372   3.435  0.3300 -0.9369 -0.3469
  449MOL0     C60530   1.397   9.309   3.515 -0.5747  0.9332 -0.0866
  449MOL0     N60531   1.754   9.066   3.265  0.2820 -0.4252  0.3653
  449MOL0     N60532   1.759   9.148   3.170 -0.4056  0.0880  0.3482
  449MOL0     C60533   2.439  10.118   2.946  0.0524 -0.0445  0.1407
  449MOL0     C60534   2.394  10.220   2.861  0.3847  0.1841 -0.3133
  449MOL0     C60535   2.176  10.563   2.696  0.9256 -0.0792 -0.4130
  449MOL0     C60536   2.121  10.503   2.578  0.4559 -0.4219 -0.2467
  449MOL0     C60537   2.065  10.586   2.484 -0.3135 -0.0239  0.4503
  449MOL0     C60538   2.077  10.725   2.494  0.1345  1.1183 -0.1737
  449MOL0     O60539   2.020  10.816   2.395  0.1224  0.5076 -0.4000
  449MOL0     C60540   2.067  10.941   2.371  0.0649 -0.3809  0.9130
  449MOL0     C60541   1.965  11.017   2.282  0.1196  0.3838 -0.0440
  449MOL0     C60542   1.865  11.095   2.362  0.1969 -0.7463 -0.1457
  449MOL0     C60543   1.888  11.247   2.365 -0.4510 -0.0533  0.1188
  449MOL0     C60544   1.843  11.313   2.240  0.0113 -1.1908 -0.6205
  449MOL0     C60545   1.789  11.364   2.147 -0.7458 -0.5952  0.0474
  449MOL0     C60546   2.147  10.779   2.604  0.7956  0.0852  0.5126
  449MOL0     C60547   2.183  10.698   2.700 -1.4308 -0.1610 -0.1713
  449MOL0     H60548   2.080  10.221   2.975 -1.9737 -3.3227  2.1156
  449MOL0     H60549   2.175  10.058   3.141  0.1470 -0.9954 -0.2202
  449MOL0     H60550   2.470   9.776   3.167 -2.2655 -0.9825  0.4422
  449MOL0     H60551   2.303   9.811   3.169  0.2610 -5.2224 -1.0965
  449MOL0     H60552   2.291   9.811   2.931 -0.5725 -6.0119 -0.2732
  449MOL0     H60553   2.463   9.835   2.910  2.0119  0.6664  1.3579
  449MOL0     H60554   2.370   9.605   2.864  0.7644 -0.9238  0.1125
  449MOL0     H60555   2.490   9.596   2.998  0.2855  0.2456 -1.8856
  449MOL0     H60556   2.313   9.592   3.165 -0.0532 -1.0052  0.2758
  449MOL0     H60557   2.194   9.616   3.053  1.3406  2.6151 -1.0571
  449MOL0     H60558   2.279   9.390   2.918 -1.0776 -1.4805 -0.7695
  449MOL0     H60559   2.377   9.361   3.057 -1.2267 -2.5732  3.7845
  449MOL0     H60560   2.191   9.239   3.119 -0.5646  0.2008  2.1864
  449MOL0     H60561   2.147   9.389   3.200  1.2857 -1.8118  0.9692
  449MOL0     H60562   2.032   9.447   2.971  3.3376  0.8983  0.4957
  449MOL0     H60563   2.046   9.271   2.939  3.8830  0.0832 -0.2158
  449MOL0     H60564   1.831   9.335   3.004  1.0770  0.0013 -0.4562
  449MOL0     H60565   1.885   9.437   3.143 -0.9807  0.1897  0.6291
  449MOL0     H60566   1.978   9.273   3.360 -0.1479  0.2998 -0.6307
  449MOL0     H60567   1.882   8.912   3.453  0.1120  1.3757  1.4703
  449MOL0     H60568   1.980   9.041   3.515  1.5824 -1.3451 -0.7246
  449MOL0     H60569   1.844   9.035   3.682  1.2320  5.3160  0.1497
  449MOL0     H60570   1.696   8.978   3.590 -1.9065  1.7023  1.2477
  449MOL0     H60571   1.664   9.191   3.486 -0.0851  0.4815  0.3520
  449MOL0     H60572   1.783   9.266   3.599  0.2987 -1.0838  0.3675
  449MOL0     H60573   1.645   9.165   3.792 -0.4311  1.7952  0.2381
  449MOL0     H60574   1.529   9.121   3.670 -0.0585  1.5648  1.1370
  449MOL0     H60575   1.477   9.562   3.721  1.1360 -0.4612  0.1607
  449MOL0     H60576   1.368   9.787   3.485  2.8618 -0.6490  0.9745
  449MOL0     H60577   1.242   9.762   3.612  0.4814  2.0401  0.2956
  449MOL0     H60578   1.411   9.756   3.652  1.0837 -1.0583 -0.7980
  449MOL0     H60579   1.172   9.753   3.119  1.7147 -1.0300 -0.4628
  449MOL0     H60580   1.045   9.830   2.914 -0.3640  0.7761 -0.7342
  449MOL0     H60581   0.711   9.780   2.918  3.7757 -1.4187  1.8280
  449MOL0     H60582   0.851   9.881   2.855 -0.0737  0.0335  0.4825
  449MOL0     H60583   0.588   9.798   2.701  0.5195 -2.2923 -2.5154
  449MOL0     H60584   0.653   9.952   2.758 -0.3791 -0.1390 -0.5397
  449MOL0     H60585   0.785   9.752   2.557 -0.6306 -0.8880  0.3907
  449MOL0     H60586   0.859   9.901   2.600  1.3664 -1.8816 -1.3494
  449MOL0     H60587   0.701  10.026   2.462  1.3747 -0.7764  2.1954
  449MOL0     H60588   0.725   9.888   2.362 -1.0279  1.1215 -0.8013
  449MOL0     H60589   0.512   9.948   2.354  2.1431 -0.8285 -0.4711
  449MOL0     H60590   0.475   9.932   2.523  0.7269  0.7894 -0.0098
  449MOL0     H60591   0.537   9.700   2.535  0.8200  1.9165  0.9581
  449MOL0     H60592   0.404   9.726   2.413  0.6902 -1.5905 -1.5231
  449MOL0     H60593   0.683   9.675   2.353  0.2191 -1.1964  0.4493
  449MOL0     H60594   0.554   9.699   2.220  2.5263 -0.6056 -1.1707
  449MOL0     H60595   0.433   9.500   2.313 -0.8283  2.8614  0.8685
  449MOL0     H60596   0.589   9.469   2.408  0.3224 -1.2297 -0.7472
  449MOL0     H60597   0.828   9.457   2.933  1.0000 -0.2077  1.2933
  449MOL0     H60598   0.963   9.377   3.108 -1.3272 -0.3597 -0.6413
  449MOL0     H60599   1.264   9.308   3.357 -0.6307 -1.0770  0.2646
  449MOL0     H60600   1.400   9.206   3.481 -2.0528  1.2786 -1.3768
  449MOL0     H60601   2.542  10.085   2.945  0.3857  0.9605  0.3695
  449MOL0     H60602   2.458  10.259   2.783  1.8361  0.0467  0.7768
  449MOL0     H60603   2.108  10.396   2.567 -2.1068 -0.0077 -1.9987
  449MOL0     H60604   2.024  10.544   2.393 -1.0695  2.8463 -0.6498
  449MOL0     H60605   2.101  10.990   2.462 -0.0839 -1.0823  1.3556
  449MOL0     H60606   2.160  10.933   2.314 -0.1690  1.2146  0.2433
  449MOL0     H60607   1.920  10.945   2.213  1.1224  0.0030 -0.3065
  449MOL0     H60608   2.026  11.086   2.222 -0.5308 -1.6123 -3.2566
  449MOL0     H60609   1.876  11.057   2.464 -0.2628  0.0831  0.2193
  449MOL0     H60610   1.766  11.072   2.321 -0.1933 -1.3087  1.0451
  449MOL0     H60611   1.993  11.272   2.379  0.4391  1.0583 -5.8860
  449MOL0     H60612   1.834  11.281   2.454 -2.2524 -0.6132 -0.7214
  449MOL0     H60613   1.739  11.428   2.077 -3.7239 -1.6918  1.0175
  449MOL0     H60614   2.178  10.882   2.617  1.6340  0.6042 -3.8562
  449MOL0     H60615   2.238  10.741   2.784  2.3300 -4.0021 -0.3162
  450MOL0     O60616   5.257   1.209   1.511 -0.7979 -0.1313 -0.4943
  450MOL0     C60617   5.363   1.146   1.479 -0.3189  0.3337  0.0421
  450MOL0     O60618   5.488   1.204   1.486  0.6332 -0.2480 -0.1531
  450MOL0     C60619   5.492   1.338   1.507 -0.8245 -0.5434  0.4247
  450MOL0     C60620   5.580   1.388   1.606 -0.6893  0.2847  0.0619
  450MOL0     C60621   5.628   1.522   1.600  0.6927 -0.0344  0.5202
  450MOL0     C60622   5.574   1.607   1.498  0.5454 -0.1020 -0.7410
  450MOL0     O60623   5.625   1.739   1.501  0.7150  0.0945 -0.3150
  450MOL0     C60624   5.540   1.840   1.446  0.7837 -0.8184 -0.0221
  450MOL0     C60625   5.574   1.978   1.504 -0.3168 -0.6735  0.2095
  450MOL0     C60626   5.727   2.020   1.516 -0.3606  0.6466 -0.3155
  450MOL0     C60627   5.754   2.158   1.581 -0.0270  0.2346  0.1005
  450MOL0     C60628   5.773   2.267   1.476  0.0610 -0.0125 -0.9392
  450MOL0     C60629   5.917   2.298   1.451  1.1305 -0.1043 -0.7753
  450MOL0     C60630   5.944   2.371   1.315  0.7365 -1.3299 -1.1387
  450MOL0     C60631   5.927   2.291   1.185  0.5334 -0.0151  0.2485
  450MOL0     N60632   6.008   2.161   1.188  0.4120 -0.2730  0.7029
  450MOL0     C60633   6.134   2.141   1.244  0.7239 -0.0568  0.0213
  450MOL0     C60634   6.183   2.020   1.201 -0.5784  0.1677 -0.9697
  450MOL0     C60635   6.320   1.964   1.235  0.4776  0.4434  0.2421
  450MOL0     C60636   6.313   1.808   1.251 -0.6784 -0.6680 -0.1935
  450MOL0     C60637   6.448   1.765   1.330 -0.0050  0.3245  0.3400
  450MOL0     C60638   6.581   1.807   1.265  1.0221 -0.2141 -0.8239
  450MOL0     O60639   6.626   1.926   1.331  0.7508  0.0115  0.1820
  450MOL0     C60640   6.763   1.947   1.332  0.7431  0.0368 -1.1547
  450MOL0     C60641   6.810   1.999   1.456 -0.7907  0.1099 -0.2050
  450MOL0     C60642   6.950   2.013   1.472  0.2365  0.7353  0.3005
  450MOL0     C60643   7.001   2.084   1.590  0.4913  1.5068 -0.3368
  450MOL0     C60644   7.034   1.982   1.362 -0.2053  0.7290 -0.0061
  450MOL0     C60645   7.181   1.964   1.366 -0.2563 -0.6331 -0.8428
  450MOL0     O60646   7.256   2.065   1.404  0.0427  0.3345  0.0078
  450MOL0     C60647   7.399   2.059   1.407 -0.5748 -0.4913 -0.3641
  450MOL0     C60648   7.493   1.965   1.341  0.9811  0.3613 -0.4457
  450MOL0     C60649   7.624   1.971   1.370 -0.0559  0.5365 -0.0098
  450MOL0     C60650   7.682   2.079   1.444  0.8047  0.1897 -0.6238
  450MOL0     O60651   7.815   2.082   1.470 -0.8445 -0.2578  0.2547
  450MOL0     C60652   7.904   2.085   1.356  0.2773  0.1846  0.3111
  450MOL0     C60653   7.894   2.210   1.265 -0.3645 -0.0718 -0.1408
  450MOL0     C60654   7.913   2.181   1.121  0.4847 -0.0040  0.4314
  450MOL0     C60655   7.795   2.110   1.056 -0.4678 -0.9442 -0.8961
  450MOL0     C60656   7.804   2.104   0.910  0.1651  0.1367  1.7075
  450MOL0     C60657   7.684   2.030   0.850 -0.0074  0.1432  0.7742
  450MOL0     C60658   7.549   2.109   0.834  0.6448  0.1688  0.3866
  450MOL0     C60659   7.450   2.029   0.746 -0.2465  0.4059  0.0610
  450MOL0    Cl60660   7.428   1.863   0.801  0.5483  0.1978 -0.4366
  450MOL0     C60661   7.592   2.170   1.510  0.2973 -0.0954  0.3026
  450MOL0     C60662   7.452   2.164   1.491 -0.3070 -0.5325  0.8602
  450MOL0     O60663   7.222   1.854   1.345  0.8445 -0.0171 -0.1157
  450MOL0     C60664   6.981   1.930   1.242 -0.5654  0.0692  1.2686
  450MOL0     C60665   6.842   1.915   1.225 -0.1691 -0.0957 -0.0682
  450MOL0     N60666   6.088   1.970   1.118 -0.2599  0.9098 -0.4699
  450MOL0     N60667   5.991   2.052   1.109  0.0616 -0.8166  1.0873
  450MOL0     C60668   5.485   1.558   1.412 -0.4307  0.5567  0.5300
  450MOL0     C60669   5.451   1.422   1.408 -0.1276 -0.1194  0.0802
  450MOL0     C60670   5.352   1.008   1.428  0.8087 -0.3173 -0.4982
  450MOL0     C60671   5.463   0.939   1.387 -0.1130  0.4884  0.4531
  450MOL0     C60672   5.458   0.806   1.342  0.0425 -0.2608  0.0891
  450MOL0     C60673   5.329   0.738   1.327 -1.4272 -0.8031  0.3942
  450MOL0     O60674   5.311   0.606   1.291  0.1059  0.4975 -0.8054
  450MOL0     C60675   5.432   0.540   1.259 -0.5284  0.1632 -0.4301
  450MOL0     C60676   5.412   0.409   1.184 -0.6659  0.0428 -0.3713
  450MOL0     C60677   5.280   0.401   1.097  0.4709 -0.2644  0.3377
  450MOL0     C60678   5.252   0.257   1.044 -0.2073 -0.3187  1.3843
  450MOL0     C60679   5.260   0.153   1.145 -0.3598  0.6185 -0.9822
  450MOL0     C60680   5.265   0.069   1.222  1.8999 -0.0117 -0.9107
  450MOL0     C60681   5.220   0.809   1.364  0.5329 -0.1534  0.1550
  450MOL0     C60682   5.230   0.944   1.415  0.7138  0.6877  0.3036
  450MOL0     H60683   5.615   1.304   1.664 -3.0458 -0.2907  0.7467
  450MOL0     H60684   5.703   1.570   1.662  0.0686  0.6168  0.7890
  450MOL0     H60685   5.533   1.851   1.338  0.2826  0.0986  0.0890
  450MOL0     H60686   5.437   1.817   1.478  0.1724 -1.0284 -2.0069
  450MOL0     H60687   5.535   2.069   1.457  2.1384  1.8189  2.6230
  450MOL0     H60688   5.542   1.993   1.608  1.6144 -3.3431  1.2892
  450MOL0     H60689   5.775   1.957   1.592  0.4590  2.2834  0.5842
  450MOL0     H60690   5.783   2.011   1.423 -0.3233 -3.1409 -0.0729
  450MOL0     H60691   5.674   2.181   1.652 -0.7257  0.0721 -0.6204
  450MOL0     H60692   5.844   2.162   1.642 -0.5874 -0.3146  0.9759
  450MOL0     H60693   5.714   2.244   1.387 -0.0937  0.0060 -0.8432
  450MOL0     H60694   5.723   2.345   1.535 -0.4677 -2.0011  1.4601
  450MOL0     H60695   5.960   2.362   1.529 -0.5929 -0.2111  0.3221
  450MOL0     H60696   5.966   2.201   1.461 -0.7135 -0.8503  3.6777
  450MOL0     H60697   5.887   2.464   1.320  1.5689 -0.8219 -0.7571
  450MOL0     H60698   6.051   2.394   1.317  0.5567 -0.4306 -1.1707
  450MOL0     H60699   5.962   2.345   1.096 -2.0811 -1.5984 -1.9224
  450MOL0     H60700   5.825   2.259   1.161  0.4065 -1.2829  2.2116
  450MOL0     H60701   6.190   2.210   1.307 -0.8037  2.2421 -0.9978
  450MOL0     H60702   6.386   2.007   1.159  0.7670 -3.2420 -1.7770
  450MOL0     H60703   6.367   1.994   1.329 -5.3913  0.2733  3.7265
  450MOL0     H60704   6.306   1.764   1.151 -2.6604  1.1341 -0.9311
  450MOL0     H60705   6.220   1.781   1.300 -0.0136 -1.3260  0.7521
  450MOL0     H60706   6.441   1.659   1.354 -0.5904  0.5967  1.4443
  450MOL0     H60707   6.431   1.806   1.430 -2.6246 -0.5529  0.3310
  450MOL0     H60708   6.571   1.826   1.158 -1.6047 -0.8743 -0.7705
  450MOL0     H60709   6.645   1.723   1.292  1.2819  0.8033  2.0333
  450MOL0     H60710   6.738   2.013   1.536 -0.3196  1.7821 -0.0325
  450MOL0     H60711   6.920   2.147   1.629  1.0337  2.9376 -1.4072
  450MOL0     H60712   7.017   2.002   1.661  0.1284 -0.0764 -2.0153
  450MOL0     H60713   7.089   2.147   1.572 -0.6797  2.9333 -1.4303
  450MOL0     H60714   7.452   1.890   1.273 -1.3487  0.1661  1.0484
  450MOL0     H60715   7.686   1.898   1.318 -2.8954 -3.2588  1.4467
  450MOL0     H60716   8.007   2.092   1.392  0.8250  2.1154 -1.4486
  450MOL0     H60717   7.893   1.991   1.300  3.3088  0.9444 -1.8056
  450MOL0     H60718   7.810   2.279   1.278 -0.1960  0.9871 -3.6447
  450MOL0     H60719   7.974   2.281   1.288 -2.1774  2.3741 -0.9269
  450MOL0     H60720   8.004   2.120   1.116  0.6957  0.1819  1.6532
  450MOL0     H60721   7.927   2.275   1.067 -0.9570  0.0191  0.0517
  450MOL0     H60722   7.788   2.008   1.094  2.6464 -0.7515  0.4862
  450MOL0     H60723   7.705   2.165   1.085  1.2619  2.3812 -1.3444
  450MOL0     H60724   7.894   2.046   0.886 -0.8455 -0.2594 -1.7248
  450MOL0     H60725   7.811   2.203   0.865 -0.2807 -0.9690 -0.9905
  450MOL0     H60726   7.720   2.007   0.750 -2.5752 -3.0395  0.3935
  450MOL0     H60727   7.667   1.932   0.897  2.6460 -2.1832 -2.6276
  450MOL0     H60728   7.549   2.211   0.795 -0.4461 -0.6408 -1.9163
  450MOL0     H60729   7.500   2.109   0.933  0.2784  1.6454  0.2402
  450MOL0     H60730   7.485   2.046   0.644 -4.2002 -2.4203 -2.0569
  450MOL0     H60731   7.350   2.072   0.738 -0.1295  0.6806  0.0702
  450MOL0     H60732   7.626   2.257   1.565 -0.3958  1.1597 -1.1512
  450MOL0     H60733   7.391   2.242   1.533  2.8085  0.3791  4.2097
  450MOL0     H60734   7.040   1.905   1.154 -0.6852  0.9203  0.9452
  450MOL0     H60735   6.807   1.894   1.124  1.0073 -2.4810 -0.0442
  450MOL0     H60736   5.445   1.620   1.332 -1.2727  1.2281  1.4322
  450MOL0     H60737   5.396   1.380   1.325  1.8168 -3.1510  0.1522
  450MOL0     H60738   5.559   0.989   1.396  0.4355 -0.6576  1.2850
  450MOL0     H60739   5.549   0.747   1.331 -0.9565 -2.1049  1.1631
  450MOL0     H60740   5.504   0.606   1.210 -2.2526  1.9903 -0.6248
  450MOL0     H60741   5.476   0.513   1.355 -2.9943  0.6106  0.9076
  450MOL0     H60742   5.430   0.332   1.260  1.3397  3.3211  2.7844
  450MOL0     H60743   5.495   0.401   1.113  0.4479 -4.2591  1.1278
  450MOL0     H60744   5.284   0.486   1.029 -1.7591 -1.9692 -2.0975
  450MOL0     H60745   5.205   0.424   1.173 -0.6278  1.1340 -1.1063
  450MOL0     H60746   5.320   0.236   0.961 -1.5312 -3.3090  0.9246
  450MOL0     H60747   5.159   0.252   0.988  0.1458  0.0770  0.7523
  450MOL0     H60748   5.288  -0.006   1.295  0.6066  2.2945  2.1265
  450MOL0     H60749   5.121   0.765   1.358  1.2294 -1.6507 -1.1390
  450MOL0     H60750   5.139   0.994   1.447  0.9831  1.3276  0.0863
  451MOL0     O60751   5.825  10.204   7.198 -0.8924  0.2404 -0.4317
  451MOL0     C60752   5.752  10.109   7.232 -0.1244  0.0982 -0.7812
  451MOL0     O60753   5.737  10.000   7.158 -0.1427 -0.7363 -0.2516
  451MOL0     C60754   5.766  10.008   7.030  0.0752  0.9640 -0.5937
  451MOL0     C60755   5.667  10.030   6.937 -0.1675 -0.1790  0.8866
  451MOL0     C60756   5.696  10.028   6.797  0.6174  0.7893 -0.9680
  451MOL0     C60757   5.826  10.001   6.758 -0.8742 -0.1425  0.3995
  451MOL0     O60758   5.870  10.002   6.629  0.0191 -0.2018  0.4034
  451MOL0     C60759   5.874  10.123   6.553 -0.4163 -1.2409 -1.0606
  451MOL0     C60760   5.951  10.100   6.426 -0.1418  0.1699  0.7746
  451MOL0     C60761   5.943  10.219   6.330  0.5891 -0.0004  0.3475
  451MOL0     C60762   5.906  10.170   6.185 -0.5069 -0.0874  0.9537
  451MOL0     C60763   6.020  10.078   6.121 -0.0939  0.3047 -0.3479
  451MOL0     C60764   6.003  10.034   5.975  0.2159  0.5833  0.8689
  451MOL0     C60765   6.124   9.959   5.936  0.6267  0.1069  0.2303
  451MOL0     C60766   6.094   9.875   5.814 -0.3710 -0.7004 -1.2004
  451MOL0     N60767   6.203   9.787   5.781  0.4127  0.0881 -0.5640
  451MOL0     C60768   6.268   9.698   5.862  0.0256  0.6340  0.3712
  451MOL0     C60769   6.383   9.655   5.793 -0.1056  1.2126  0.3104
  451MOL0     C60770   6.481   9.551   5.847 -0.3150 -0.5439  0.4905
  451MOL0     C60771   6.439   9.410   5.799 -0.6309 -0.3786  0.0160
  451MOL0     C60772   6.403   9.396   5.644 -0.2167  0.7596 -0.0900
  451MOL0     C60773   6.525   9.445   5.550  0.4145 -0.5316  0.1750
  451MOL0     O60774   6.622   9.339   5.570  0.6212 -0.0879  0.1310
  451MOL0     C60775   6.757   9.349   5.534  0.0284  1.1203  0.4724
  451MOL0     C60776   6.837   9.235   5.555  0.4893 -0.2456 -1.1805
  451MOL0     C60777   6.972   9.239   5.536  0.3188  0.3379 -0.2572
  451MOL0     C60778   7.042   9.102   5.560  0.2214  0.2350 -1.2401
  451MOL0     C60779   7.037   9.353   5.495 -0.1660 -0.1185  0.3446
  451MOL0     C60780   7.180   9.370   5.459 -0.2037  0.1099  0.0498
  451MOL0     O60781   7.201   9.477   5.374  0.2527 -0.8074  0.7495
  451MOL0     C60782   7.317   9.485   5.306 -0.2721  0.3376 -0.2221
  451MOL0     C60783   7.371   9.615   5.296  0.3425 -0.5257  0.2754
  451MOL0     C60784   7.491   9.639   5.237  0.5593  0.4877 -0.3871
  451MOL0     C60785   7.575   9.535   5.187  0.3844  0.2486  0.3422
  451MOL0     O60786   7.694   9.553   5.124 -0.1321  1.3279 -0.6760
  451MOL0     C60787   7.772   9.666   5.147 -0.8354 -0.4652  0.2205
  451MOL0     C60788   7.922   9.639   5.099  0.7098 -0.3010 -0.2426
  451MOL0     C60789   7.996   9.559   5.206 -0.1030 -0.7635  0.5787
  451MOL0     C60790   8.029   9.629   5.336  0.9186 -0.1511  0.6153
  451MOL0     C60791   8.160   9.582   5.400  0.5122 -0.6316 -0.1459
  451MOL0     C60792   8.267   9.682   5.348 -1.1099  0.4433 -0.6386
  451MOL0     C60793   8.409   9.664   5.406 -0.2933 -0.0582 -0.6209
  451MOL0     C60794   8.473   9.543   5.336  0.3841 -0.3277 -0.6860
  451MOL0    Cl60795   8.655   9.548   5.375 -0.1657  0.1584  0.5756
  451MOL0     C60796   7.524   9.405   5.210  0.1288 -0.4939  0.3774
  451MOL0     C60797   7.398   9.371   5.269 -0.1737 -0.0944 -0.8332
  451MOL0     O60798   7.267   9.297   5.507  0.3356  0.3113 -1.5431
  451MOL0     C60799   6.949   9.466   5.466 -0.1731 -0.4954  0.1111
  451MOL0     C60800   6.819   9.464   5.487  0.6806  0.2318 -0.6634
  451MOL0     N60801   6.388   9.713   5.669  0.9340 -0.0258  0.1250
  451MOL0     N60802   6.282   9.800   5.670 -0.9097 -0.2737  0.5043
  451MOL0     C60803   5.927   9.973   6.848 -0.5487 -0.9211 -0.4495
  451MOL0     C60804   5.895   9.989   6.989  0.4979 -0.3970 -0.9428
  451MOL0     C60805   5.693  10.088   7.365  0.9413  0.4197 -0.1863
  451MOL0     C60806   5.621   9.969   7.395  0.7283  0.7415  0.0306
  451MOL0     C60807   5.557   9.950   7.515  0.1335 -0.5342 -1.2075
  451MOL0     C60808   5.566  10.046   7.618  0.4251  0.4233 -0.3049
  451MOL0     O60809   5.507  10.034   7.741 -1.1072  0.4014  0.0002
  451MOL0     C60810   5.582   9.942   7.822 -0.9797  0.4548 -0.5717
  451MOL0     C60811   5.565   9.985   7.971 -0.2258 -0.2883  0.3824
  451MOL0     C60812   5.444   9.920   8.037  0.1660 -0.0599  0.3246
  451MOL0     C60813   5.453   9.954   8.186 -0.7105 -0.0719  0.2838
  451MOL0     C60814   5.532   9.860   8.261 -0.0499  0.4923  0.5736
  451MOL0     C60815   5.599   9.792   8.336  0.1222 -0.6835 -0.4846
  451MOL0     C60816   5.624  10.174   7.579  0.1501  1.3111  1.3017
  451MOL0     C60817   5.710  10.184   7.461  0.4732 -0.0463  0.0329
  451MOL0     H60818   5.566  10.064   6.960 -1.3781 -0.7478 -2.9361
  451MOL0     H60819   5.629  10.067   6.721 -0.8380 -1.6126 -1.0425
  451MOL0     H60820   5.775  10.164   6.529  0.1001  0.5859 -0.2132
  451MOL0     H60821   5.924  10.209   6.599  1.2058 -2.0997 -1.1670
  451MOL0     H60822   6.059  10.084   6.436  0.0116 -1.3383 -2.1497
  451MOL0     H60823   5.914  10.014   6.369  1.9132  0.1549 -0.6744
  451MOL0     H60824   5.869  10.292   6.361  0.8740  0.5335 -0.2110
  451MOL0     H60825   6.038  10.272   6.337  1.6896 -1.6290 -1.3001
  451MOL0     H60826   5.811  10.117   6.197  0.3993 -1.3193  3.4027
  451MOL0     H60827   5.891  10.260   6.124  2.7978  1.0495  1.6085
  451MOL0     H60828   6.119  10.123   6.134  0.2357 -0.7053  0.8889
  451MOL0     H60829   6.025   9.984   6.177 -0.0076  1.0322  0.8950
  451MOL0     H60830   5.908   9.985   5.953 -0.9157  1.7972  2.7639
  451MOL0     H60831   6.003  10.127   5.916  0.0158 -0.8243 -1.4803
  451MOL0     H60832   6.219  10.014   5.932 -0.7737  2.7821  0.9383
  451MOL0     H60833   6.150   9.890   6.017 -1.7177 -1.2264 -0.0894
  451MOL0     H60834   6.071   9.941   5.729 -0.5461 -1.8555 -2.0736
  451MOL0     H60835   6.006   9.813   5.835 -0.8989  0.1156 -0.9289
  451MOL0     H60836   6.251   9.673   5.966  1.5414  1.1551  0.7662
  451MOL0     H60837   6.584   9.570   5.814 -0.5561 -0.2697 -0.1241
  451MOL0     H60838   6.468   9.548   5.955  0.0634  3.1380  0.7751
  451MOL0     H60839   6.353   9.381   5.860  2.5271  1.3865  6.1922
  451MOL0     H60840   6.515   9.339   5.833 -0.5285 -0.0492  0.4959
  451MOL0     H60841   6.317   9.456   5.611 -2.8900 -2.5503  0.2625
  451MOL0     H60842   6.380   9.290   5.629  2.6804 -0.1033  0.9718
  451MOL0     H60843   6.560   9.544   5.581 -0.2802  0.4943 -2.0810
  451MOL0     H60844   6.496   9.462   5.446  2.0632  0.2999 -0.1754
  451MOL0     H60845   6.781   9.150   5.592  0.7227  0.5650  1.2225
  451MOL0     H60846   7.150   9.114   5.569  0.0804 -0.2173  2.1010
  451MOL0     H60847   7.006   9.059   5.654 -0.6196  1.0311 -1.1881
  451MOL0     H60848   7.023   9.031   5.478  0.2534  1.0013 -1.9290
  451MOL0     H60849   7.301   9.689   5.334 -1.2673 -1.8468  0.0129
  451MOL0     H60850   7.509   9.746   5.234 -2.7582  1.1339 -0.9002
  451MOL0     H60851   7.725   9.744   5.086 -1.7570  0.1331  1.6494
  451MOL0     H60852   7.758   9.682   5.254 -2.1917 -1.1133  0.1607
  451MOL0     H60853   7.918   9.597   4.998 -1.0736  3.5347 -1.9714
  451MOL0     H60854   7.977   9.730   5.074  1.6950 -0.6604  0.5590
  451MOL0     H60855   8.091   9.540   5.156  0.0504  0.3335  0.4167
  451MOL0     H60856   7.959   9.457   5.221  2.7858 -1.8977  0.5576
  451MOL0     H60857   8.012   9.733   5.308 -3.2896 -1.5720 -3.4023
  451MOL0     H60858   7.954   9.619   5.416 -0.4002  1.8952 -0.2680
  451MOL0     H60859   8.176   9.474   5.387 -2.4509 -1.7850  4.0830
  451MOL0     H60860   8.149   9.595   5.508  2.5908 -1.7990  0.2669
  451MOL0     H60861   8.276   9.658   5.242 -3.0012  0.2560 -0.7922
  451MOL0     H60862   8.240   9.786   5.367 -1.7228  0.3547 -1.0156
  451MOL0     H60863   8.408   9.658   5.515  0.7109 -3.3449 -0.6935
  451MOL0     H60864   8.474   9.747   5.377  2.0419 -1.7516 -0.5200
  451MOL0     H60865   8.467   9.550   5.227  2.2798 -2.6606 -1.0220
  451MOL0     H60866   8.422   9.453   5.370 -0.3021  0.1219 -0.5117
  451MOL0     H60867   7.590   9.333   5.163 -2.4596 -1.7200 -1.5812
  451MOL0     H60868   7.358   9.270   5.273  1.2120 -0.6733 -1.3076
  451MOL0     H60869   6.997   9.556   5.429  1.0182 -2.0701 -2.4840
  451MOL0     H60870   6.766   9.558   5.477 -0.6575 -0.3664  0.4474
  451MOL0     H60871   6.031   9.960   6.820 -0.4123  1.1911 -1.0972
  451MOL0     H60872   5.975   9.981   7.062  0.1902  0.4244 -0.5055
  451MOL0     H60873   5.606   9.886   7.327 -1.6579  0.3449  0.9533
  451MOL0     H60874   5.504   9.859   7.540  0.5606 -0.4921 -0.0901
  451MOL0     H60875   5.563   9.836   7.806 -0.7043 -0.3970  3.6099
  451MOL0     H60876   5.690   9.958   7.816 -0.7472 -0.7715  0.0582
  451MOL0     H60877   5.554  10.094   7.979  1.6021  0.5088 -4.4697
  451MOL0     H60878   5.659   9.951   8.016 -0.0429 -0.6418 -0.2557
  451MOL0     H60879   5.437   9.811   8.022 -0.8155  0.0205  0.1800
  451MOL0     H60880   5.355   9.971   7.999  1.0747 -1.1260 -3.7591
  451MOL0     H60881   5.359   9.955   8.241 -2.4114 -4.3711 -2.0428
  451MOL0     H60882   5.513  10.045   8.199 -2.7902  1.6913 -1.6322
  451MOL0     H60883   5.641   9.722   8.405 -0.6790 -0.0414  0.6717
  451MOL0     H60884   5.619  10.243   7.663 -0.6831  2.2308  0.5170
  451MOL0     H60885   5.762  10.280   7.458 -0.3744  0.4162 -0.3003
  452MOL0     O60886   0.208   5.033   7.095 -0.2789 -0.3585  1.0811
  452MOL0     C60887   0.288   5.015   7.001  0.2064 -0.3783 -0.3408
  452MOL0     O60888   0.322   5.110   6.917 -0.3176  0.5565 -0.0177
  452MOL0     C60889   0.295   5.244   6.916 -0.5295  0.0973 -0.9125
  452MOL0     C60890   0.157   5.282   6.899 -0.6574 -0.1347  0.6152
  452MOL0     C60891   0.128   5.419   6.875  0.3408  0.6076 -0.5843
  452MOL0     C60892   0.233   5.512   6.859 -0.0852 -0.0232 -0.5188
  452MOL0     O60893   0.213   5.650   6.839 -0.8183 -0.3605 -0.5840
  452MOL0     C60894   0.085   5.712   6.841 -1.0661 -1.0286  0.6931
  452MOL0     C60895   0.108   5.858   6.777  1.2740 -0.3963 -0.5604
  452MOL0     C60896  -0.033   5.918   6.759  0.1202 -0.1448 -0.7959
  452MOL0     C60897  -0.025   6.060   6.700 -0.3150 -0.3506  0.3284
  452MOL0     C60898  -0.167   6.106   6.680 -0.5079  0.1788  0.0593
  452MOL0     C60899  -0.180   6.216   6.587 -0.9645 -0.4263  0.0897
  452MOL0     C60900  -0.322   6.232   6.538  0.8116  0.5891  0.5564
  452MOL0     C60901  -0.362   6.180   6.395  0.1101 -0.0589  0.7509
  452MOL0     N60902  -0.465   6.254   6.318 -0.2911  0.1049 -0.1214
  452MOL0     C60903  -0.483   6.239   6.174 -0.2332  0.2780  0.0704
  452MOL0     C60904  -0.591   6.313   6.147  0.4888 -0.7587  0.1114
  452MOL0     C60905  -0.633   6.335   5.997 -0.0887 -1.0735 -0.8882
  452MOL0     C60906  -0.718   6.460   5.998 -0.1981 -1.2580  0.4872
  452MOL0     C60907  -0.718   6.531   5.858 -0.6417  0.2907  1.3740
  452MOL0     C60908  -0.590   6.583   5.806 -0.1348 -0.1143  0.5999
  452MOL0     O60909  -0.543   6.702   5.868  0.2619  0.5931  0.2387
  452MOL0     C60910  -0.427   6.763   5.821  0.1378  0.4787  1.0087
  452MOL0     C60911  -0.359   6.718   5.712 -0.3671 -0.1598  0.0554
  452MOL0     C60912  -0.261   6.797   5.645 -0.4918  0.0625 -0.5123
  452MOL0     C60913  -0.184   6.734   5.532  0.2527 -1.0741 -0.4660
  452MOL0     C60914  -0.223   6.924   5.705  0.0379 -0.3700  0.2402
  452MOL0     C60915  -0.105   7.012   5.664  0.0724 -0.3449 -0.8697
  452MOL0     O60916  -0.080   7.131   5.734 -0.0845 -0.1613 -0.0661
  452MOL0     C60917   0.035   7.214   5.707  0.0940  0.0891 -0.2901
  452MOL0     C60918   0.059   7.238   5.564 -0.2714 -0.1106 -0.0337
  452MOL0     C60919   0.187   7.286   5.525 -0.0740  0.3231  0.0522
  452MOL0     C60920   0.287   7.300   5.621 -0.5258  0.6569 -0.2333
  452MOL0     O60921   0.418   7.336   5.591 -0.5997 -0.4699  0.8444
  452MOL0     C60922   0.520   7.250   5.639 -0.2945  0.1506 -0.4220
  452MOL0     C60923   0.636   7.219   5.550 -0.7966  0.1062  0.3739
  452MOL0     C60924   0.763   7.169   5.637 -0.8070 -0.2167  0.7554
  452MOL0     C60925   0.852   7.097   5.535  0.1460  0.0273 -0.6615
  452MOL0     C60926   0.987   7.081   5.599  0.0889  0.0056  0.3395
  452MOL0     C60927   1.065   7.205   5.653 -0.4178 -0.4971 -0.5170
  452MOL0     C60928   1.217   7.204   5.661  0.0255  0.5324 -0.3849
  452MOL0     C60929   1.281   7.258   5.532 -1.2981  0.1545 -0.1782
  452MOL0    Cl60930   1.284   7.150   5.399 -0.2377 -0.2754 -0.1058
  452MOL0     C60931   0.263   7.280   5.757  0.3568  0.7373  1.1524
  452MOL0     C60932   0.135   7.233   5.798 -0.8901 -0.3616 -0.4454
  452MOL0     O60933  -0.035   6.972   5.575 -0.5468  0.3341 -0.4042
  452MOL0     C60934  -0.292   6.961   5.819  0.5128  0.0385  0.6658
  452MOL0     C60935  -0.393   6.881   5.879 -0.6628 -0.1844  0.6100
  452MOL0     N60936  -0.643   6.350   6.269  0.3252 -0.8169 -0.9375
  452MOL0     N60937  -0.568   6.315   6.374  0.3521 -1.0253 -0.1781
  452MOL0     C60938   0.365   5.467   6.874  0.0215 -0.4033 -1.1016
  452MOL0     C60939   0.396   5.336   6.915 -1.5021 -0.4825 -0.4242
  452MOL0     C60940   0.364   4.893   7.004 -0.0625 -0.2605 -0.7012
  452MOL0     C60941   0.296   4.779   7.057  0.2545 -1.0070  1.1692
  452MOL0     C60942   0.367   4.653   7.064  0.1032 -0.4305  0.3223
  452MOL0     C60943   0.498   4.647   7.014  0.0403 -0.4683 -0.1881
  452MOL0     O60944   0.571   4.534   7.008 -0.0213  0.4411  0.1961
  452MOL0     C60945   0.516   4.408   7.036 -0.2266 -0.1169 -0.8014
  452MOL0     C60946   0.600   4.306   6.958 -0.5282  0.1193 -0.2821
  452MOL0     C60947   0.741   4.281   7.033  0.2228 -0.5695 -0.2996
  452MOL0     C60948   0.848   4.394   7.015 -0.3382 -0.1952  0.2241
  452MOL0     C60949   0.885   4.394   6.879 -0.4542  1.3099 -0.1266
  452MOL0     C60950   0.933   4.356   6.771 -0.3785  0.5518  0.4091
  452MOL0     C60951   0.553   4.769   6.964 -0.1318 -0.3996 -0.7100
  452MOL0     C60952   0.489   4.885   6.949  0.0517 -0.3254  0.0325
  452MOL0     H60953   0.083   5.203   6.899  1.6867 -2.5001 -0.3951
  452MOL0     H60954   0.025   5.445   6.855  0.8065  0.9115 -2.9434
  452MOL0     H60955   0.009   5.677   6.771 -1.2541  2.4551 -1.0887
  452MOL0     H60956   0.052   5.716   6.945 -2.1370 -0.0821  0.3387
  452MOL0     H60957   0.178   5.919   6.836  0.2790  2.1767 -1.8877
  452MOL0     H60958   0.155   5.858   6.678 -0.4127  3.0518 -1.5180
  452MOL0     H60959  -0.089   5.851   6.692 -0.8191 -1.9009  1.6155
  452MOL0     H60960  -0.090   5.920   6.852 -0.9841  0.4863 -1.4565
  452MOL0     H60961   0.042   6.121   6.762  2.0709 -2.3659 -0.1000
  452MOL0     H60962   0.027   6.054   6.604  2.6255 -1.5748  1.8551
  452MOL0     H60963  -0.226   6.020   6.648 -0.2576 -0.6648  1.7509
  452MOL0     H60964  -0.202   6.122   6.783 -0.3371 -3.4331  0.8120
  452MOL0     H60965  -0.147   6.309   6.635 -1.3653 -0.5273  0.5722
  452MOL0     H60966  -0.110   6.191   6.507  1.5396 -2.1209  2.6255
  452MOL0     H60967  -0.393   6.186   6.607 -0.4701 -0.1747 -1.1831
  452MOL0     H60968  -0.349   6.338   6.534  1.2907  0.6910 -0.9578
  452MOL0     H60969  -0.405   6.080   6.403 -1.0106 -0.0175 -2.8493
  452MOL0     H60970  -0.276   6.161   6.331 -0.4565 -1.8169  0.4509
  452MOL0     H60971  -0.423   6.187   6.099 -0.5263  1.3256 -0.9184
  452MOL0     H60972  -0.543   6.335   5.935 -0.0763 -0.0662 -0.8798
  452MOL0     H60973  -0.692   6.248   5.967 -1.4860  0.2390 -2.0998
  452MOL0     H60974  -0.667   6.525   6.069  1.3571 -0.3284 -1.3674
  452MOL0     H60975  -0.817   6.431   6.034 -1.1162 -0.1339 -1.0040
  452MOL0     H60976  -0.792   6.611   5.871 -2.2498 -0.5195 -1.8949
  452MOL0     H60977  -0.764   6.473   5.778  2.3317  0.7597 -0.8152
  452MOL0     H60978  -0.597   6.609   5.700 -2.7065  0.7952  0.9257
  452MOL0     H60979  -0.505   6.514   5.809 -0.2764 -0.2711  1.1832
  452MOL0     H60980  -0.376   6.615   5.685 -0.4657 -1.5620  4.5444
  452MOL0     H60981  -0.091   6.710   5.584 -1.6204 -3.1692  2.2793
  452MOL0     H60982  -0.230   6.642   5.494  2.1204 -1.2394 -2.4762
  452MOL0     H60983  -0.185   6.816   5.459 -0.9516 -0.2415  0.4267
  452MOL0     H60984  -0.019   7.217   5.492  2.4932 -0.2687 -3.2283
  452MOL0     H60985   0.206   7.279   5.418 -1.9307  2.1070 -0.4580
  452MOL0     H60986   0.552   7.293   5.733 -2.7815  0.6580  0.2559
  452MOL0     H60987   0.480   7.148   5.649 -0.6163  0.2775 -0.4026
  452MOL0     H60988   0.602   7.140   5.483 -0.3022  1.2577 -1.2859
  452MOL0     H60989   0.669   7.308   5.497 -1.7326  1.8626  2.5936
  452MOL0     H60990   0.740   7.118   5.731 -1.7817  0.5008  0.9251
  452MOL0     H60991   0.812   7.258   5.679 -1.9017 -0.3447  2.4110
  452MOL0     H60992   0.826   6.991   5.526  1.5747 -0.2217 -2.2523
  452MOL0     H60993   0.862   7.151   5.441 -0.7196  1.8065  0.2178
  452MOL0     H60994   1.045   7.027   5.524 -4.1724 -1.1653 -2.4910
  452MOL0     H60995   0.973   7.013   5.684  1.6616 -0.1416  0.5065
  452MOL0     H60996   1.034   7.289   5.590 -0.0036  0.2552  0.2508
  452MOL0     H60997   1.031   7.227   5.755 -0.6456  0.5804 -0.8073
  452MOL0     H60998   1.248   7.103   5.690  0.2689  0.8634  0.5747
  452MOL0     H60999   1.244   7.274   5.741 -3.0094  2.5303 -0.9644
  452MOL0     H61000   1.386   7.283   5.551 -1.2342  0.5715 -1.0653
  452MOL0     H61001   1.231   7.352   5.508 -1.7396 -0.2328 -0.7926
  452MOL0     H61002   0.347   7.296   5.824 -1.3287 -0.1720  3.6452
  452MOL0     H61003   0.110   7.199   5.898  1.1606  1.5944  0.8076
  452MOL0     H61004  -0.280   7.058   5.866 -0.3269  2.3071 -3.3531
  452MOL0     H61005  -0.441   6.923   5.967  3.6115  0.9988  2.6472
  452MOL0     H61006   0.446   5.537   6.858 -1.0714  0.9769 -0.8331
  452MOL0     H61007   0.503   5.321   6.913 -0.5115  4.3003  1.9131
  452MOL0     H61008   0.195   4.781   7.097 -0.9698 -2.9030 -1.5308
  452MOL0     H61009   0.308   4.567   7.096  1.4999 -1.4265  0.3008
  452MOL0     H61010   0.524   4.394   7.144 -2.3168  0.6923 -0.4911
  452MOL0     H61011   0.412   4.395   7.002  0.9745 -1.2221 -4.5497
  452MOL0     H61012   0.621   4.341   6.856  0.3803  0.9505  0.1664
  452MOL0     H61013   0.536   4.219   6.942 -0.5191  0.4272 -2.2723
  452MOL0     H61014   0.775   4.183   6.997 -0.6606 -1.2679  0.6868
  452MOL0     H61015   0.712   4.264   7.137 -1.8386 -1.8045 -1.0041
  452MOL0     H61016   0.930   4.383   7.086 -0.1035 -1.0158 -0.1586
  452MOL0     H61017   0.797   4.487   7.043  0.6815  0.0546  1.2954
  452MOL0     H61018   0.977   4.331   6.677 -3.2351  1.0211 -1.1611
  452MOL0     H61019   0.656   4.765   6.930 -0.1166 -3.6870 -0.6288
  452MOL0     H61020   0.542   4.971   6.909 -1.5309  2.2924  3.1162
  453MOL0     O61021  11.270   4.893   3.127  0.4079 -0.6435 -0.6929
  453MOL0     C61022  11.367   4.910   3.059 -0.9743 -0.1948 -0.3855
  453MOL0     O61023  11.373   5.002   2.957  0.7351  0.9324  0.7953
  453MOL0     C61024  11.291   5.106   2.956 -0.7324  0.1907  0.1412
  453MOL0     C61025  11.207   5.126   2.849 -0.2612  0.4983 -0.2217
  453MOL0     C61026  11.118   5.235   2.857 -0.0252 -0.4427  0.9935
  453MOL0     C61027  11.111   5.319   2.962 -0.1137  1.1720 -1.5364
  453MOL0     O61028  11.025   5.426   2.978 -0.2689 -0.1858 -0.2384
  453MOL0     C61029  10.884   5.397   2.961  0.2504 -0.6730  0.3848
  453MOL0     C61030  10.820   5.507   3.033  0.2127  0.1529  0.5509
  453MOL0     C61031  10.673   5.482   3.051  1.0786  0.2027  0.1818
  453MOL0     C61032  10.592   5.607   3.086  0.3865 -0.3250 -0.1131
  453MOL0     C61033  10.443   5.581   3.097 -0.1389 -0.8571 -0.3028
  453MOL0     C61034  10.415   5.473   3.211  0.2258 -0.1574  0.8248
  453MOL0     C61035  10.267   5.442   3.208  0.2272  0.2022  1.3072
  453MOL0     C61036  10.212   5.348   3.319 -1.2079  0.8981  0.6113
  453MOL0     N61037  10.223   5.398   3.455 -0.0583 -0.9345 -0.2637
  453MOL0     C61038  10.150   5.495   3.526  0.3678 -0.0066  1.0694
  453MOL0     C61039  10.212   5.509   3.638  0.2848 -0.4209 -1.1557
  453MOL0     C61040  10.170   5.604   3.754 -0.0840  0.3635  0.1297
  453MOL0     C61041  10.282   5.718   3.774  0.0450 -0.2809  0.3417
  453MOL0     C61042  10.254   5.803   3.894 -0.6409  0.2188  0.5279
  453MOL0     C61043  10.376   5.885   3.945 -0.4112  1.0122  0.7495
  453MOL0     O61044  10.330   5.983   4.040 -0.5079  0.1902 -0.1996
  453MOL0     C61045  10.310   5.957   4.172 -0.7928  0.0523  0.6568
  453MOL0     C61046  10.252   6.063   4.243  1.2074  1.0909  0.3014
  453MOL0     C61047  10.221   6.054   4.383 -0.2530 -0.0910  0.3008
  453MOL0     C61048  10.177   6.179   4.446 -0.7743 -0.6756  0.8475
  453MOL0     C61049  10.259   5.934   4.458 -1.1347  0.1129  0.1422
  453MOL0     C61050  10.222   5.906   4.601  0.1803  0.5443 -0.0084
  453MOL0     O61051  10.090   5.937   4.632  0.4648  0.4976 -0.0536
  453MOL0     C61052  10.032   5.855   4.727 -0.3264 -0.6172  0.5105
  453MOL0     C61053   9.918   5.766   4.697  0.5001 -0.4636 -1.3851
  453MOL0     C61054   9.870   5.687   4.798  0.4349  0.1508  0.3180
  453MOL0     C61055   9.918   5.693   4.925  0.0624  0.2084 -0.8286
  453MOL0     O61056   9.870   5.595   5.017 -0.6861  0.1596  0.4035
  453MOL0     C61057   9.914   5.593   5.154 -0.2890 -0.1915  0.6452
  453MOL0     C61058   9.808   5.498   5.221 -0.6365 -0.7699 -0.1270
  453MOL0     C61059   9.862   5.473   5.358 -0.3378  0.2737  0.0511
  453MOL0     C61060   9.785   5.371   5.438 -0.2487 -1.3647 -0.9524
  453MOL0     C61061   9.833   5.370   5.587  0.9758 -0.7731  0.2587
  453MOL0     C61062   9.789   5.261   5.682  0.6940  0.1792  0.7171
  453MOL0     C61063   9.882   5.135   5.699  0.3808 -0.0555  0.9816
  453MOL0     C61064   9.917   5.078   5.561 -0.3494 -0.2359  0.1371
  453MOL0    Cl61065   9.765   4.998   5.507  0.3817 -1.0678 -0.0406
  453MOL0     C61066  10.019   5.783   4.964  0.3187 -0.8584  0.4101
  453MOL0     C61067  10.077   5.862   4.862 -0.4526 -0.1335  0.8176
  453MOL0     O61068  10.306   5.881   4.682 -1.0854  0.2521  0.3499
  453MOL0     C61069  10.324   5.832   4.387  0.4658  0.5917  0.2571
  453MOL0     C61070  10.345   5.845   4.250 -0.9744 -0.5537 -0.0772
  453MOL0     N61071  10.326   5.429   3.645 -0.2573 -0.1927 -0.1749
  453MOL0     N61072  10.324   5.364   3.535  0.7633 -0.1174 -0.2545
  453MOL0     C61073  11.201   5.306   3.070 -0.0525 -0.0414 -0.6315
  453MOL0     C61074  11.290   5.196   3.069 -0.0934 -0.2460 -0.3975
  453MOL0     C61075  11.481   4.815   3.069  0.5813  0.0060  0.9769
  453MOL0     C61076  11.590   4.816   2.980  0.3824  0.7162  0.2641
  453MOL0     C61077  11.695   4.726   3.014 -0.2890  0.7233 -0.3691
  453MOL0     C61078  11.695   4.629   3.113 -0.3735 -0.7270 -0.3076
  453MOL0     O61079  11.793   4.528   3.112 -0.0929 -0.3901 -0.3276
  453MOL0     C61080  11.755   4.403   3.172 -0.7098  0.6255  0.0286
  453MOL0     C61081  11.860   4.286   3.161 -0.5288  0.5484  0.5023
  453MOL0     C61082  11.990   4.301   3.244 -0.0701 -1.1476 -0.9579
  453MOL0     C61083  12.079   4.429   3.214 -0.4784 -0.7895 -0.1752
  453MOL0     C61084  12.207   4.427   3.284  0.1609  0.0712  0.0248
  453MOL0     C61085  12.320   4.421   3.340  1.5561  0.1720 -1.1390
  453MOL0     C61086  11.585   4.633   3.201 -0.2817  0.0854 -0.1574
  453MOL0     C61087  11.476   4.717   3.181 -1.1875  0.9636  0.3816
  453MOL0     H61088  11.205   5.054   2.768  0.5013  0.6815 -0.4012
  453MOL0     H61089  11.060   5.253   2.767  2.0780  0.8634 -0.1813
  453MOL0     H61090  10.861   5.401   2.854  2.3043  1.4860 -0.0743
  453MOL0     H61091  10.849   5.300   2.997 -0.7986  0.3918  2.4271
  453MOL0     H61092  10.874   5.518   3.128  1.3946 -0.0803 -0.0718
  453MOL0     H61093  10.840   5.599   2.977  1.3130 -0.9267 -0.9362
  453MOL0     H61094  10.634   5.438   2.959 -1.1382  0.5609  0.8931
  453MOL0     H61095  10.659   5.417   3.138  0.9240  2.2616  1.7782
  453MOL0     H61096  10.640   5.654   3.172  0.3371  0.4860 -0.5179
  453MOL0     H61097  10.589   5.674   3.000 -2.5625 -1.7352 -1.2551
  453MOL0     H61098  10.390   5.676   3.111  0.8103 -0.1270 -1.4888
  453MOL0     H61099  10.415   5.553   2.995  3.9005  2.6469 -2.7550
  453MOL0     H61100  10.479   5.385   3.198  1.0888  0.5197  0.3554
  453MOL0     H61101  10.433   5.516   3.310 -0.7310 -2.8255  2.2575
  453MOL0     H61102  10.201   5.529   3.206  2.3892  1.9364  0.6203
  453MOL0     H61103  10.253   5.388   3.113  2.6519 -0.4758  1.2607
  453MOL0     H61104  10.265   5.253   3.310 -1.8323  0.6676 -1.0778
  453MOL0     H61105  10.107   5.327   3.295 -0.6209  1.3423 -2.8265
  453MOL0     H61106  10.063   5.554   3.498  0.7377 -0.1033 -0.4089
  453MOL0     H61107  10.090   5.670   3.721  1.4229  1.3642 -1.7157
  453MOL0     H61108  10.149   5.549   3.846  1.6047 -1.5369 -0.5415
  453MOL0     H61109  10.285   5.777   3.682 -0.3106  0.5228  0.8345
  453MOL0     H61110  10.378   5.670   3.794  1.6549  2.5264 -0.1380
  453MOL0     H61111  10.219   5.744   3.978 -0.4565  0.0372  0.4789
  453MOL0     H61112  10.182   5.881   3.866  0.2766 -0.2852 -4.0175
  453MOL0     H61113  10.426   5.937   3.862 -3.4909  1.6149 -0.8725
  453MOL0     H61114  10.451   5.819   3.988 -0.8385  0.9878  1.4738
  453MOL0     H61115  10.219   6.149   4.186  0.1391  2.3181  2.6057
  453MOL0     H61116  10.144   6.247   4.367  3.6768 -0.5769 -1.2745
  453MOL0     H61117  10.098   6.175   4.521 -0.4648  3.7439  1.6701
  453MOL0     H61118  10.266   6.224   4.491  0.8467 -2.0183 -0.8250
  453MOL0     H61119   9.862   5.772   4.605 -2.1903  1.4269  0.2242
  453MOL0     H61120   9.791   5.615   4.774 -0.4079  0.2890  2.4579
  453MOL0     H61121  10.017   5.562   5.170  0.9017  2.3811 -1.2717
  453MOL0     H61122   9.908   5.697   5.188  2.6104  0.2835 -0.0868
  453MOL0     H61123   9.711   5.546   5.231 -0.5183 -0.6270  0.3456
  453MOL0     H61124   9.811   5.407   5.159  5.6177 -1.0546 -0.1233
  453MOL0     H61125   9.857   5.567   5.414  3.5355 -0.2155  1.5058
  453MOL0     H61126   9.968   5.445   5.357 -0.1920  0.8226 -0.6584
  453MOL0     H61127   9.683   5.407   5.422  1.5179  2.9608 -4.3451
  453MOL0     H61128   9.806   5.271   5.397  2.6667 -0.4133 -2.0271
  453MOL0     H61129   9.799   5.466   5.627 -1.1116 -0.9287 -1.0017
  453MOL0     H61130   9.943   5.366   5.585  0.9826 -0.7441 -2.1283
  453MOL0     H61131   9.768   5.298   5.783 -1.1043  1.4433 -0.0712
  453MOL0     H61132   9.695   5.227   5.638  0.3928  0.8286  0.8398
  453MOL0     H61133   9.843   5.051   5.756  0.7780 -0.3097  0.8802
  453MOL0     H61134   9.973   5.172   5.746 -0.8897  1.1547  2.6488
  453MOL0     H61135  10.005   5.014   5.563 -0.3719 -0.2441  1.0088
  453MOL0     H61136   9.943   5.153   5.485 -1.6790 -2.9395 -3.2911
  453MOL0     H61137  10.063   5.778   5.064  0.2532 -0.4060  0.4652
  453MOL0     H61138  10.156   5.935   4.875  0.4705 -0.8377 -0.5821
  453MOL0     H61139  10.343   5.748   4.454  2.7401 -0.6624 -1.8310
  453MOL0     H61140  10.377   5.754   4.200 -1.0809  1.1209 -3.4589
  453MOL0     H61141  11.196   5.361   3.163  3.3557  1.8376 -1.3593
  453MOL0     H61142  11.349   5.166   3.155  0.6326 -3.2742 -1.8253
  453MOL0     H61143  11.578   4.895   2.907 -1.7964 -1.2964 -1.7344
  453MOL0     H61144  11.788   4.729   2.957  0.3739 -1.5776  0.4959
  453MOL0     H61145  11.727   4.399   3.278  0.0452  1.8262  0.2914
  453MOL0     H61146  11.663   4.375   3.120 -0.1087  1.3043 -1.4632
  453MOL0     H61147  11.885   4.270   3.055 -1.4857  0.0668  0.3419
  453MOL0     H61148  11.800   4.204   3.202 -1.8358  0.8402 -0.7363
  453MOL0     H61149  12.046   4.209   3.231 -0.2379 -1.1989 -1.3451
  453MOL0     H61150  11.973   4.313   3.351  4.7168 -1.6223  0.0677
  453MOL0     H61151  12.023   4.512   3.256 -1.6873 -1.0445 -1.2444
  453MOL0     H61152  12.102   4.444   3.109 -0.4518  1.0363  0.0705
  453MOL0     H61153  12.416   4.387   3.373  1.0548 -0.2679 -0.0834
  453MOL0     H61154  11.577   4.559   3.280 -0.0304 -2.9072 -2.7106
  453MOL0     H61155  11.399   4.733   3.256  1.8124  0.6639  3.8450
  454MOL0     O61156   1.134  10.159   5.567 -0.3861 -0.0906  0.1133
  454MOL0     C61157   1.153  10.274   5.598  0.0574  0.2764  0.1681
  454MOL0     O61158   1.175  10.316   5.726 -0.8573  0.5601 -0.5939
  454MOL0     C61159   1.202  10.216   5.819 -1.5251 -0.6717 -0.5840
  454MOL0     C61160   1.140  10.214   5.945  0.3290  0.5372  0.4739
  454MOL0     C61161   1.181  10.123   6.044  0.1307  0.4411  0.7460
  454MOL0     C61162   1.298  10.042   6.028  0.4569 -0.0919 -0.0281
  454MOL0     O61163   1.343   9.938   6.108 -0.5201 -0.2555  0.1357
  454MOL0     C61164   1.293   9.928   6.240 -0.3456 -1.6424 -1.2535
  454MOL0     C61165   1.375   9.829   6.318 -0.5825  0.4103 -0.2356
  454MOL0     C61166   1.523   9.882   6.353 -0.0873 -0.9841 -0.7416
  454MOL0     C61167   1.532  10.005   6.451  0.3381  0.1968 -0.2274
  454MOL0     C61168   1.670  10.041   6.498 -0.4077  0.3734 -0.0670
  454MOL0     C61169   1.708   9.946   6.614  0.1897  0.2957  0.1279
  454MOL0     C61170   1.855   9.908   6.656 -0.2776 -0.0486  0.0722
  454MOL0     C61171   1.848   9.801   6.751  0.1812 -0.1997  0.3704
  454MOL0     N61172   1.980   9.767   6.802  0.3859 -0.2925  0.6201
  454MOL0     C61173   2.058   9.656   6.766 -0.0090 -0.3351 -0.8791
  454MOL0     C61174   2.162   9.649   6.856 -0.3815  0.6041 -0.1245
  454MOL0     C61175   2.274   9.548   6.850  0.3312  1.1721  1.1044
  454MOL0     C61176   2.257   9.426   6.753  0.4049  1.1574  0.2356
  454MOL0     C61177   2.170   9.308   6.822 -0.5879 -0.0064 -0.3226
  454MOL0     C61178   2.234   9.170   6.807  0.1282 -0.3286 -0.6205
  454MOL0     O61179   2.246   9.148   6.671  0.5901  0.9646 -0.4887
  454MOL0     C61180   2.313   9.035   6.629 -0.2690  0.3393 -0.1293
  454MOL0     C61181   2.401   8.962   6.700 -0.2481 -0.9655  0.4407
  454MOL0     C61182   2.472   8.855   6.651 -0.8143 -0.3981 -0.0433
  454MOL0     C61183   2.574   8.796   6.743 -0.0799 -0.5164 -0.0110
  454MOL0     C61184   2.441   8.806   6.514  0.0922  0.1765 -0.8830
  454MOL0     C61185   2.501   8.683   6.452 -0.7237  0.0931  0.0556
  454MOL0     O61186   2.486   8.664   6.320  0.0904  0.6714  0.0596
  454MOL0     C61187   2.533   8.551   6.257  0.5363 -0.8227 -0.9754
  454MOL0     C61188   2.633   8.557   6.157 -0.2911  0.7383  0.8099
  454MOL0     C61189   2.653   8.444   6.076  0.0588 -0.9266 -1.2509
  454MOL0     C61190   2.577   8.326   6.095 -0.5514 -0.3199 -0.7493
  454MOL0     O61191   2.601   8.220   6.015  0.5044  0.1315 -0.6751
  454MOL0     C61192   2.498   8.202   5.914 -0.1421 -0.9125 -0.8794
  454MOL0     C61193   2.481   8.327   5.832 -0.4733  0.2264  1.6623
  454MOL0     C61194   2.404   8.290   5.691 -0.2478 -0.7824  0.5944
  454MOL0     C61195   2.264   8.245   5.711  0.1383 -0.8599  0.4165
  454MOL0     C61196   2.214   8.191   5.579  0.9754 -2.4640  0.7455
  454MOL0     C61197   2.237   8.046   5.551 -0.3145  0.3641 -0.1937
  454MOL0     C61198   2.207   8.006   5.407  0.5297 -0.1250 -0.2490
  454MOL0     C61199   2.302   7.887   5.358  0.3980 -0.6849  0.1084
  454MOL0    Cl61200   2.266   7.732   5.427  0.6024 -0.3039 -0.6186
  454MOL0     C61201   2.482   8.322   6.199 -0.7730  0.7329 -0.8387
  454MOL0     C61202   2.463   8.434   6.284 -0.7413 -0.2605 -0.3398
  454MOL0     O61203   2.545   8.595   6.535  0.3816 -0.2610 -0.5002
  454MOL0     C61204   2.341   8.876   6.442 -0.1819 -0.7065 -0.8416
  454MOL0     C61205   2.277   8.986   6.499 -0.2791 -0.0248  0.0609
  454MOL0     N61206   2.145   9.757   6.944 -0.3150  0.6843  0.1794
  454MOL0     N61207   2.033   9.822   6.912 -0.5674  0.2745 -0.0247
  454MOL0     C61208   1.361  10.053   5.913 -0.4869  0.1832  0.4560
  454MOL0     C61209   1.319  10.135   5.803 -0.5808  0.3711  0.2488
  454MOL0     C61210   1.123  10.378   5.492  0.4109  0.6508  0.3776
  454MOL0     C61211   1.146  10.520   5.508  0.0289  0.9716  0.6608
  454MOL0     C61212   1.130  10.609   5.401  0.2778  0.0499 -0.2701
  454MOL0     C61213   1.074  10.565   5.282 -0.4935 -0.1754  0.0406
  454MOL0     O61214   1.047  10.649   5.168  0.8167  0.2223 -0.1956
  454MOL0     C61215   1.092  10.785   5.162  0.5304  0.6091  0.1374
  454MOL0     C61216   1.052  10.849   5.029 -0.1337  0.2292 -0.6008
  454MOL0     C61217   0.904  10.825   5.013  0.5160  0.4999 -0.3718
  454MOL0     C61218   0.843  10.900   4.892  0.2139  0.1176 -0.0210
  454MOL0     C61219   0.698  10.900   4.898  0.6219 -0.4625 -0.2278
  454MOL0     C61220   0.580  10.901   4.898  0.0725  1.0981  0.5467
  454MOL0     C61221   1.051  10.430   5.264 -0.2826 -0.0629 -0.1286
  454MOL0     C61222   1.087  10.344   5.366  0.8813 -0.2629  0.3297
  454MOL0     H61223   1.046  10.264   5.966  1.1448  1.8546  1.0617
  454MOL0     H61224   1.131  10.123   6.141  2.2467 -3.1038  2.0387
  454MOL0     H61225   1.306  10.029   6.282  1.2745 -1.4415 -2.1881
  454MOL0     H61226   1.190   9.890   6.236 -0.2176 -2.4724  1.3589
  454MOL0     H61227   1.321   9.806   6.411  1.1320  0.3701  0.8025
  454MOL0     H61228   1.392   9.737   6.261  1.4735 -0.8511  2.1915
  454MOL0     H61229   1.574   9.793   6.389  0.0495 -0.8092 -0.5013
  454MOL0     H61230   1.576   9.915   6.263 -1.4174  0.9567 -0.8780
  454MOL0     H61231   1.487  10.091   6.402  0.0902  2.0640  2.9703
  454MOL0     H61232   1.467   9.979   6.535  0.5890 -2.7255 -0.8111
  454MOL0     H61233   1.745  10.020   6.421  0.3077 -2.6937  1.3243
  454MOL0     H61234   1.675  10.144   6.534  1.1314  0.1850  0.3150
  454MOL0     H61235   1.659   9.990   6.702 -1.5674  1.9304 -1.5713
  454MOL0     H61236   1.663   9.849   6.592 -3.1448  1.7256 -0.0048
  454MOL0     H61237   1.922   9.874   6.576  1.7900  4.2245 -0.3013
  454MOL0     H61238   1.903   9.997   6.697  0.7105 -0.0095 -1.1250
  454MOL0     H61239   1.808   9.716   6.695  2.2187 -0.6366 -0.5454
  454MOL0     H61240   1.784   9.822   6.837 -0.9789  1.7281 -0.9015
  454MOL0     H61241   2.057   9.607   6.670  0.8840  1.4610 -1.8615
  454MOL0     H61242   2.361   9.608   6.823  0.9955  0.3082  1.3054
  454MOL0     H61243   2.301   9.508   6.948 -2.6693  0.4314  1.7356
  454MOL0     H61244   2.352   9.383   6.718 -0.8171  0.0845 -1.9827
  454MOL0     H61245   2.213   9.452   6.656  2.4758  0.1627 -1.0550
  454MOL0     H61246   2.073   9.292   6.774  0.0286 -2.3200 -0.9596
  454MOL0     H61247   2.165   9.322   6.930  0.8172  0.6926 -0.3306
  454MOL0     H61248   2.154   9.112   6.855 -1.4307  2.2234  0.0290
  454MOL0     H61249   2.327   9.165   6.864  0.7657  1.4227 -1.4537
  454MOL0     H61250   2.424   8.996   6.800  1.4519  1.9253 -0.8055
  454MOL0     H61251   2.527   8.707   6.786 -1.9647  0.9041  1.0177
  454MOL0     H61252   2.666   8.777   6.687 -1.3402 -1.7016 -1.8077
  454MOL0     H61253   2.597   8.859   6.829 -2.1867  0.0694  0.1781
  454MOL0     H61254   2.679   8.653   6.138 -1.3055  0.8693 -1.3611
  454MOL0     H61255   2.720   8.450   5.991 -1.7191  3.3037 -2.6333
  454MOL0     H61256   2.535   8.115   5.859  3.2876  0.1898 -0.5095
  454MOL0     H61257   2.405   8.175   5.966  0.1677 -0.1709  0.0762
  454MOL0     H61258   2.417   8.399   5.883 -0.6074 -0.4504  2.4607
  454MOL0     H61259   2.578   8.375   5.818  0.4280 -1.3077  2.4324
  454MOL0     H61260   2.477   8.222   5.646  0.1956  0.3080 -0.3939
  454MOL0     H61261   2.393   8.368   5.615 -4.3147 -0.0753  1.6639
  454MOL0     H61262   2.269   8.177   5.797 -3.0665 -2.9267 -0.8686
  454MOL0     H61263   2.195   8.325   5.739 -0.9932 -0.7309 -2.5095
  454MOL0     H61264   2.258   8.254   5.501 -0.7890  0.6124  2.0562
  454MOL0     H61265   2.108   8.214   5.562  1.6417  0.1326 -0.4378
  454MOL0     H61266   2.344   8.029   5.565 -0.3742 -2.3686 -2.2713
  454MOL0     H61267   2.178   7.985   5.620  3.7026  0.8396  4.1240
  454MOL0     H61268   2.215   8.087   5.334  3.5176  0.4737  0.6303
  454MOL0     H61269   2.107   7.966   5.385  0.2391  1.3688 -1.8714
  454MOL0     H61270   2.408   7.912   5.363  0.1869  0.0165  1.5513
  454MOL0     H61271   2.272   7.875   5.253 -2.2927 -1.7090  0.9125
  454MOL0     H61272   2.425   8.236   6.230  1.7307  0.2641  3.2301
  454MOL0     H61273   2.375   8.445   6.346 -2.0154  1.4513 -2.2864
  454MOL0     H61274   2.317   8.855   6.338 -0.3240  0.9210 -1.1725
  454MOL0     H61275   2.215   9.042   6.430 -0.7484 -0.6018  0.0065
  454MOL0     H61276   1.442   9.982   5.898 -0.1221  0.6904 -0.0286
  454MOL0     H61277   1.375  10.135   5.710 -3.5288  0.6537 -1.7030
  454MOL0     H61278   1.188  10.561   5.599 -0.5916  1.3489  0.7878
  454MOL0     H61279   1.150  10.714   5.418  0.9459 -0.0896 -0.1579
  454MOL0     H61280   1.041  10.851   5.233 -2.0318  2.5277 -3.2138
  454MOL0     H61281   1.202  10.786   5.162  0.6336 -0.8276 -2.6271
  454MOL0     H61282   1.116  10.808   4.950  2.5552 -1.1757  2.0495
  454MOL0     H61283   1.063  10.957   5.022  1.0809  0.0307 -2.6912
  454MOL0     H61284   0.852  10.873   5.097 -3.1873 -0.6145 -1.7990
  454MOL0     H61285   0.878  10.719   5.020  2.4002  0.0218 -0.1897
  454MOL0     H61286   0.891  10.855   4.804 -1.1481 -0.6836 -0.3775
  454MOL0     H61287   0.869  11.005   4.902 -2.4904  1.1124 -2.2465
  454MOL0     H61288   0.474  10.916   4.898 -0.1235  0.0460  2.7761
  454MOL0     H61289   1.024  10.395   5.166  0.4973 -1.2467  0.0658
  454MOL0     H61290   1.077  10.236   5.352 -0.5061 -0.5724  3.0774
  455MOL0     O61291   0.001   3.242   9.721  0.3164  0.1469 -0.9888
  455MOL0     C61292  -0.042   3.179   9.818 -0.1273  0.2148 -0.5019
  455MOL0     O61293  -0.157   3.087   9.814  0.2298 -0.1886 -0.5031
  455MOL0     C61294  -0.231   3.074   9.704 -0.4495  0.3896  0.3831
  455MOL0     C61295  -0.297   3.180   9.635 -0.0154  0.5112 -1.1826
  455MOL0     C61296  -0.355   3.150   9.514  0.3899  0.2149  0.1903
  455MOL0     C61297  -0.364   3.018   9.458 -0.4231  0.0298 -0.4763
  455MOL0     O61298  -0.408   2.992   9.323 -0.4363  0.0137 -0.3355
  455MOL0     C61299  -0.494   3.087   9.262 -0.5648  0.9101 -0.6661
  455MOL0     C61300  -0.586   3.030   9.150 -0.5096  0.2251  0.2343
  455MOL0     C61301  -0.530   3.021   9.002 -0.2487 -0.4078 -0.2585
  455MOL0     C61302  -0.649   2.989   8.918  0.6948  0.0934  0.0215
  455MOL0     C61303  -0.619   3.005   8.770 -0.5863 -0.2664  0.2399
  455MOL0     C61304  -0.748   3.028   8.684  0.5510  0.2510 -0.3309
  455MOL0     C61305  -0.816   2.886   8.647  0.3060  0.4294  0.9700
  455MOL0     C61306  -0.736   2.812   8.536  0.7569 -0.0510  0.0900
  455MOL0     N61307  -0.806   2.776   8.413  0.9236 -0.5185 -0.1056
  455MOL0     C61308  -0.842   2.880   8.319 -0.8161  0.7838 -0.1361
  455MOL0     C61309  -0.875   2.810   8.210 -0.2176  0.0478  0.0333
  455MOL0     C61310  -0.917   2.879   8.085 -0.6982 -0.4101 -0.1293
  455MOL0     C61311  -0.928   2.791   7.962 -0.3258  0.2652  0.9131
  455MOL0     C61312  -0.970   2.870   7.840  0.9614 -0.7036 -1.3189
  455MOL0     C61313  -1.027   2.779   7.734  0.7601 -0.3299 -0.5960
  455MOL0     O61314  -1.083   2.843   7.612  0.6817  0.1662 -0.6888
  455MOL0     C61315  -1.082   2.786   7.484 -1.0255 -1.2304 -0.2298
  455MOL0     C61316  -1.165   2.842   7.390 -0.3177 -0.6352  0.6745
  455MOL0     C61317  -1.165   2.796   7.252 -0.2969 -0.0220 -0.1504
  455MOL0     C61318  -1.234   2.880   7.147  0.2428  0.8968  0.1864
  455MOL0     C61319  -1.084   2.678   7.207 -0.2808  0.0035 -0.5501
  455MOL0     C61320  -1.071   2.618   7.078  0.2097  0.0183 -0.1767
  455MOL0     O61321  -0.977   2.515   7.062  0.0822 -0.3889 -0.3101
  455MOL0     C61322  -0.966   2.435   6.945  0.4047  0.1499  0.2027
  455MOL0     C61323  -1.082   2.376   6.886  0.6147 -0.8824  0.3327
  455MOL0     C61324  -1.060   2.275   6.789 -0.2127  0.5980 -0.2463
  455MOL0     C61325  -0.925   2.261   6.736 -0.6489  0.0056  0.1856
  455MOL0     O61326  -0.898   2.168   6.644 -0.0153  0.0955 -0.6552
  455MOL0     C61327  -0.990   2.075   6.603  0.7943  0.2600  0.4897
  455MOL0     C61328  -0.944   2.017   6.470 -0.5506 -0.8243 -0.2737
  455MOL0     C61329  -0.809   1.946   6.475  0.8448  0.6332 -0.0023
  455MOL0     C61330  -0.762   1.887   6.343 -0.6109  0.5408  0.3963
  455MOL0     C61331  -0.633   1.812   6.341 -0.4632 -0.1516  0.2677
  455MOL0     C61332  -0.561   1.851   6.219  0.1709 -0.3980  0.3439
  455MOL0     C61333  -0.417   1.801   6.224  0.4843 -0.1025 -0.1726
  455MOL0     C61334  -0.322   1.905   6.285  0.0053 -0.2064  0.0871
  455MOL0    Cl61335  -0.143   1.860   6.263 -0.2300  0.3951 -0.0933
  455MOL0     C61336  -0.819   2.344   6.787  0.3296 -0.1367 -0.4353
  455MOL0     C61337  -0.841   2.420   6.900 -0.8828 -0.5715  0.4812
  455MOL0     O61338  -1.149   2.649   6.986  0.7477  0.5943 -0.3411
  455MOL0     C61339  -0.988   2.641   7.301 -0.1702  0.0411  0.1024
  455MOL0     C61340  -0.990   2.692   7.436 -0.6754 -0.3923 -0.5401
  455MOL0     N61341  -0.861   2.677   8.227 -0.2515  0.4632  0.4223
  455MOL0     N61342  -0.837   2.661   8.350  0.1496 -0.0884  0.0979
  455MOL0     C61343  -0.309   2.917   9.537 -0.8399 -0.1383  0.0190
  455MOL0     C61344  -0.248   2.944   9.655  0.1607 -0.3618 -1.1882
  455MOL0     C61345   0.054   3.170   9.930 -0.6814 -0.1047 -0.3113
  455MOL0     C61346   0.025   3.086  10.031  0.5945  0.5225 -0.1780
  455MOL0     C61347   0.107   3.069  10.145  0.0434  0.7160  0.2462
  455MOL0     C61348   0.225   3.146  10.147  0.9970 -0.6415 -0.7517
  455MOL0     O61349   0.318   3.134  10.248 -0.0011  0.4289  0.0052
  455MOL0     C61350   0.301   3.037  10.351  0.5658  0.9045  0.0339
  455MOL0     C61351   0.436   3.039  10.425  0.0751  0.6075  0.4057
  455MOL0     C61352   0.466   3.174  10.493 -0.5259  0.7896 -0.3868
  455MOL0     C61353   0.613   3.167  10.553 -0.2352  0.5389 -0.1924
  455MOL0     C61354   0.600   3.118  10.691 -0.0529 -1.0436 -0.0619
  455MOL0     C61355   0.577   3.100  10.806 -0.4103 -0.1526 -1.0888
  455MOL0     C61356   0.261   3.231  10.042  0.0895 -0.6787  0.8836
  455MOL0     C61357   0.175   3.239   9.930 -0.3711 -0.3592 -0.0750
  455MOL0     H61358  -0.291   3.279   9.681  0.1676 -0.2393  0.4643
  455MOL0     H61359  -0.410   3.233   9.471 -2.0386 -0.8793  0.9903
  455MOL0     H61360  -0.565   3.119   9.339 -3.2889 -2.4877 -1.4743
  455MOL0     H61361  -0.431   3.171   9.231  0.5801  0.0297 -0.7734
  455MOL0     H61362  -0.602   2.928   9.186  0.3655 -0.4774 -1.2705
  455MOL0     H61363  -0.678   3.090   9.150 -1.1573 -0.4482 -4.2223
  455MOL0     H61364  -0.483   3.111   8.963  0.8088 -1.3837 -1.2885
  455MOL0     H61365  -0.455   2.942   8.993  0.4959  0.5161 -3.0803
  455MOL0     H61366  -0.692   2.891   8.939  1.0371  0.1288  0.9680
  455MOL0     H61367  -0.735   3.053   8.938 -0.3829 -0.4943 -2.4347
  455MOL0     H61368  -0.556   3.091   8.743 -0.6415  0.1098  1.2604
  455MOL0     H61369  -0.565   2.921   8.724 -1.7871 -0.4733 -0.8458
  455MOL0     H61370  -0.823   3.084   8.740  1.9859  1.6577  0.2282
  455MOL0     H61371  -0.739   3.085   8.590 -2.5538  2.5596  0.5897
  455MOL0     H61372  -0.824   2.826   8.738 -0.1247  1.7367  1.8160
  455MOL0     H61373  -0.918   2.910   8.618 -0.4926 -4.1645 -0.7266
  455MOL0     H61374  -0.687   2.726   8.585 -1.3926 -1.8785 -0.7962
  455MOL0     H61375  -0.665   2.887   8.501 -0.1125  0.5426 -0.4326
  455MOL0     H61376  -0.849   2.988   8.332  1.2219  1.2542 -2.3128
  455MOL0     H61377  -1.012   2.932   8.092  0.2551  1.3015  0.3797
  455MOL0     H61378  -0.851   2.963   8.060 -0.6810  0.9068  3.7704
  455MOL0     H61379  -1.003   2.715   7.985  1.4040 -0.7455  3.6880
  455MOL0     H61380  -0.839   2.730   7.945  0.3513  1.6735 -0.8603
  455MOL0     H61381  -0.883   2.918   7.795  0.7865 -0.2202 -1.1510
  455MOL0     H61382  -1.044   2.944   7.870  0.3221 -2.4855  1.9633
  455MOL0     H61383  -1.116   2.741   7.786  3.1809 -2.5729  2.2275
  455MOL0     H61384  -0.959   2.696   7.719 -1.2404 -2.3174  0.6415
  455MOL0     H61385  -1.222   2.932   7.415  0.5187  0.1323 -0.1066
  455MOL0     H61386  -1.276   2.968   7.198  1.3509  0.6179  1.6715
  455MOL0     H61387  -1.164   2.909   7.068  3.0066 -1.7912  1.4212
  455MOL0     H61388  -1.312   2.821   7.099 -0.5813  1.8340  0.3378
  455MOL0     H61389  -1.187   2.393   6.904 -0.0353 -5.0759  1.7704
  455MOL0     H61390  -1.145   2.223   6.747  0.6483 -0.1608 -1.0897
  455MOL0     H61391  -0.977   1.997   6.679 -1.8511 -0.8096 -0.0425
  455MOL0     H61392  -1.095   2.103   6.600  1.0810  1.5244  1.4437
  455MOL0     H61393  -1.020   1.945   6.440 -4.0859  2.4059  0.1561
  455MOL0     H61394  -0.946   2.092   6.391  1.7144 -0.8076 -0.3936
  455MOL0     H61395  -0.815   1.871   6.554 -0.8654  1.0111  0.2633
  455MOL0     H61396  -0.741   2.025   6.507 -1.8392  1.6477  3.9918
  455MOL0     H61397  -0.830   1.808   6.310  0.7652 -1.0143  1.1365
  455MOL0     H61398  -0.757   1.973   6.276 -1.4680  1.8187  1.9174
  455MOL0     H61399  -0.636   1.702   6.344 -0.9592 -0.1595 -0.3078
  455MOL0     H61400  -0.577   1.837   6.432  0.7938  1.8789 -1.0118
  455MOL0     H61401  -0.614   1.811   6.132  0.9181 -3.2835  1.1160
  455MOL0     H61402  -0.569   1.960   6.212 -1.9741 -0.5678 -0.9428
  455MOL0     H61403  -0.383   1.779   6.122  0.8562 -2.6040  0.4287
  455MOL0     H61404  -0.414   1.705   6.276  1.2241 -0.4977 -0.9110
  455MOL0     H61405  -0.345   1.923   6.390 -0.8746  1.0509 -0.2891
  455MOL0     H61406  -0.332   2.008   6.250  1.6892  0.3188  1.0350
  455MOL0     H61407  -0.718   2.326   6.751  1.0600 -3.5099  2.6741
  455MOL0     H61408  -0.757   2.461   6.955 -0.1623  0.6404 -1.3848
  455MOL0     H61409  -0.907   2.573   7.278 -0.3523  0.4021 -1.7225
  455MOL0     H61410  -0.920   2.654   7.510 -1.4267 -1.5457 -0.3954
  455MOL0     H61411  -0.320   2.816   9.500  4.8000 -1.4725  1.0623
  455MOL0     H61412  -0.209   2.860   9.711 -2.3747 -1.9375 -1.6006
  455MOL0     H61413  -0.060   3.019  10.022  0.2992  0.8545  0.1407
  455MOL0     H61414   0.072   2.999  10.220 -0.3591 -0.2312 -0.7875
  455MOL0     H61415   0.214   3.065  10.411 -0.1758  2.2644 -1.5928
  455MOL0     H61416   0.282   2.942  10.300  0.6366  0.0420  1.5532
  455MOL0     H61417   0.513   3.017  10.351 -1.0078 -1.6842 -0.1313
  455MOL0     H61418   0.427   2.958  10.498  1.7537 -0.5274 -0.5793
  455MOL0     H61419   0.398   3.201  10.574  0.7775  0.0514  0.9916
  455MOL0     H61420   0.487   3.243  10.410  2.8323 -1.2030 -1.4169
  455MOL0     H61421   0.659   3.266  10.555  2.6681 -0.7316  2.1204
  455MOL0     H61422   0.675   3.107  10.486 -0.3036  1.7507 -1.3969
  455MOL0     H61423   0.557   3.093  10.911 -0.9354  0.2631 -1.1604
  455MOL0     H61424   0.356   3.283  10.038 -0.3681  0.0742 -2.1167
  455MOL0     H61425   0.207   3.302   9.847  4.2562  0.9991  2.3527
  456MOL0     O61426   8.507   5.301  10.346  0.2878 -0.8629  0.6580
  456MOL0     C61427   8.580   5.203  10.333 -0.1341 -0.1003 -0.0525
  456MOL0     O61428   8.717   5.190  10.371 -0.4869  0.0524  0.4039
  456MOL0     C61429   8.794   5.294  10.415  0.0448 -1.1639 -0.0128
  456MOL0     C61430   8.748   5.433  10.436 -0.0538 -0.5549  0.9781
  456MOL0     C61431   8.838   5.526  10.498 -0.6038  0.2277 -0.1596
  456MOL0     C61432   8.964   5.481  10.543  0.7376 -0.1694  0.6153
  456MOL0     O61433   9.060   5.568  10.591 -0.6173  0.0269 -0.2681
  456MOL0     C61434   9.117   5.653  10.493  0.3205  0.1079  0.0277
  456MOL0     C61435   9.103   5.807  10.527 -0.3642 -0.5842 -0.4731
  456MOL0     C61436   8.962   5.853  10.564 -0.0707  0.4717  0.3252
  456MOL0     C61437   8.953   6.009  10.563 -0.0704 -0.1406  0.0580
  456MOL0     C61438   8.863   6.068  10.455  0.7137 -0.5661  0.2937
  456MOL0     C61439   8.849   6.220  10.468 -0.4059  0.4122 -0.1772
  456MOL0     C61440   8.765   6.284  10.361 -0.4207  0.5010  0.8012
  456MOL0     C61441   8.804   6.260  10.210 -0.7497 -0.3069  0.2434
  456MOL0     N61442   8.897   6.370  10.159  0.6455  0.1303 -0.0571
  456MOL0     C61443   8.862   6.505  10.155  0.5696 -0.2100  0.4109
  456MOL0     C61444   8.973   6.565  10.111 -0.0021 -0.4571 -0.0845
  456MOL0     C61445   9.009   6.717  10.110 -0.0393 -0.0592 -0.4001
  456MOL0     C61446   9.046   6.759  10.250 -0.5670  0.4301  0.7423
  456MOL0     C61447   9.042   6.906  10.289 -0.2495  0.2784  0.3193
  456MOL0     C61448   9.127   6.937  10.415 -0.0063  0.5170  1.2229
  456MOL0     O61449   9.161   7.069  10.429  0.1341 -0.4845  0.3742
  456MOL0     C61450   9.230   7.109  10.537  0.6443 -0.4295  0.2483
  456MOL0     C61451   9.219   7.239  10.589  0.1268  0.4080  0.0483
  456MOL0     C61452   9.281   7.281  10.704  1.1200  1.2165 -0.1211
  456MOL0     C61453   9.238   7.414  10.763  0.5298 -0.6600 -0.1606
  456MOL0     C61454   9.382   7.196  10.753 -0.1826 -0.2131  0.0136
  456MOL0     C61455   9.454   7.227  10.886 -0.6748  0.2551 -0.7316
  456MOL0     O61456   9.542   7.130  10.920 -0.0919  0.0372 -0.7118
  456MOL0     C61457   9.574   7.088  11.053 -0.1590 -0.3082 -0.0860
  456MOL0     C61458   9.503   7.002  11.135 -0.4500 -0.1775 -0.0368
  456MOL0     C61459   9.563   6.944  11.243  0.6426  0.6897  0.7065
  456MOL0     C61460   9.690   6.991  11.290  0.0379  0.1549 -0.1588
  456MOL0     O61461   9.752   6.941  11.405 -1.1514  0.3235  0.1327
  456MOL0     C61462   9.683   6.929  11.534  0.0634 -0.7121 -0.3733
  456MOL0     C61463   9.759   6.852  11.634  0.3810  0.2694 -0.5731
  456MOL0     C61464   9.744   6.703  11.616  0.9654 -0.4032  0.3135
  456MOL0     C61465   9.846   6.605  11.673  0.4600 -0.0170  0.6946
  456MOL0     C61466   9.800   6.461  11.641  0.8139  0.4128 -0.3956
  456MOL0     C61467   9.854   6.364  11.759  0.6211  0.5500 -1.1026
  456MOL0     C61468  10.000   6.333  11.770  0.1580  0.1374 -0.0982
  456MOL0     C61469  10.039   6.290  11.909  0.1361  0.2355 -0.5530
  456MOL0    Cl61470   9.948   6.141  11.954 -0.3059  0.8878 -0.3330
  456MOL0     C61471   9.756   7.078  11.212 -0.2584 -0.2109 -0.3360
  456MOL0     C61472   9.708   7.130  11.088 -0.4649  1.0485 -0.4279
  456MOL0     O61473   9.410   7.316  10.962  0.6497  1.2617  0.7115
  456MOL0     C61474   9.406   7.070  10.699  0.6464 -0.1352 -0.7768
  456MOL0     C61475   9.331   7.024  10.593 -1.1496 -0.1510 -0.5568
  456MOL0     N61476   9.068   6.466  10.084 -0.0699 -0.6932  0.7914
  456MOL0     N61477   9.027   6.348  10.122  0.4184 -0.3690 -0.2386
  456MOL0     C61478   9.008   5.347  10.524  0.4553 -0.4297  0.2706
  456MOL0     C61479   8.923   5.259  10.455  0.3033  0.0459  0.2703
  456MOL0     C61480   8.514   5.090  10.273 -0.2223 -0.3733 -0.7705
  456MOL0     C61481   8.575   4.962  10.280 -1.0086 -1.2101 -1.0186
  456MOL0     C61482   8.526   4.850  10.219  0.1275  0.3682  0.0155
  456MOL0     C61483   8.410   4.861  10.154  0.3400 -0.3557  0.2352
  456MOL0     O61484   8.363   4.749  10.083  0.2750 -0.2955  1.1227
  456MOL0     C61485   8.215   4.730  10.059  0.7201 -1.3721 -0.4826
  456MOL0     C61486   8.172   4.778   9.915 -0.2577  0.2673 -0.4396
  456MOL0     C61487   8.221   4.695   9.796 -0.0990 -1.0568  0.2490
  456MOL0     C61488   8.180   4.755   9.663  0.2799  0.1884  0.3568
  456MOL0     C61489   8.196   4.648   9.573  0.9064 -0.0766  0.5718
  456MOL0     C61490   8.184   4.553   9.497 -0.0580 -0.4526 -0.5462
  456MOL0     C61491   8.341   4.983  10.149  0.1686 -0.2494  0.1612
  456MOL0     C61492   8.389   5.095  10.211  0.3202  0.3758 -0.9979
  456MOL0     H61493   8.649   5.459  10.399  0.4126 -2.9342 -2.3483
  456MOL0     H61494   8.808   5.628  10.520 -2.0755  0.2619 -2.0744
  456MOL0     H61495   9.223   5.627  10.483  0.5317 -1.3526  4.1701
  456MOL0     H61496   9.060   5.643  10.400  2.0725  0.9187 -1.1931
  456MOL0     H61497   9.154   5.836  10.620 -1.1622  2.0529 -0.7896
  456MOL0     H61498   9.140   5.862  10.440 -0.7497  3.0097  1.4757
  456MOL0     H61499   8.882   5.819  10.498 -0.0669  1.0761  0.0012
  456MOL0     H61500   8.939   5.793  10.652 -0.3525 -4.0002 -2.4630
  456MOL0     H61501   8.906   6.038  10.658 -0.7117 -1.7092  0.2533
  456MOL0     H61502   9.056   6.045  10.558  0.8679 -2.3554  1.6998
  456MOL0     H61503   8.910   6.056  10.357  0.5840 -0.0074  0.1612
  456MOL0     H61504   8.765   6.021  10.459  0.8364 -0.9002 -0.4585
  456MOL0     H61505   8.792   6.238  10.560  1.2247  2.2019  0.5695
  456MOL0     H61506   8.949   6.265  10.475  1.0212 -2.5715  0.3682
  456MOL0     H61507   8.664   6.243  10.374 -0.8108 -0.2574 -3.1234
  456MOL0     H61508   8.757   6.389  10.389  3.8385  1.1079  0.4457
  456MOL0     H61509   8.716   6.255  10.144  0.2067 -2.3755 -0.9804
  456MOL0     H61510   8.860   6.169  10.187  1.8084  1.6206 -1.8137
  456MOL0     H61511   8.773   6.559  10.188  1.4077  1.4991  0.0253
  456MOL0     H61512   9.095   6.734  10.045 -0.2481 -0.9053 -0.9248
  456MOL0     H61513   8.917   6.766  10.077  1.0531  1.0029 -1.9940
  456MOL0     H61514   9.153   6.734  10.250 -0.8177 -0.7670 -0.0776
  456MOL0     H61515   9.007   6.686  10.321  2.7044 -0.1238  2.1599
  456MOL0     H61516   8.943   6.940  10.320 -0.6571 -0.8351  0.2780
  456MOL0     H61517   9.079   6.968  10.206  0.2836 -0.1041  0.2725
  456MOL0     H61518   9.219   6.878  10.404 -1.1592 -1.0383 -0.7668
  456MOL0     H61519   9.073   6.900  10.502 -0.1640 -1.6562  0.2752
  456MOL0     H61520   9.160   7.302  10.524  1.5897 -0.5227 -2.3190
  456MOL0     H61521   9.178   7.465  10.688  0.1110 -1.3929 -0.3296
  456MOL0     H61522   9.174   7.395  10.850 -2.0574 -1.6516 -2.1734
  456MOL0     H61523   9.332   7.466  10.787  0.7883 -0.9281 -0.5868
  456MOL0     H61524   9.408   6.955  11.109  0.6432 -3.0634  0.8457
  456MOL0     H61525   9.518   6.875  11.314  2.5252  0.7269  2.0374
  456MOL0     H61526   9.666   7.028  11.578 -0.3822 -1.6695  1.7597
  456MOL0     H61527   9.588   6.874  11.532  1.3253 -3.1440  1.2134
  456MOL0     H61528   9.866   6.867  11.618  0.3463  2.8607  1.1058
  456MOL0     H61529   9.739   6.879  11.738 -2.5074  2.1136 -1.4924
  456MOL0     H61530   9.752   6.675  11.511 -5.1432 -2.1130 -0.0466
  456MOL0     H61531   9.643   6.679  11.651  0.2963  3.1550  1.1556
  456MOL0     H61532   9.950   6.617  11.640  0.1659 -1.3568 -0.8400
  456MOL0     H61533   9.838   6.617  11.781 -0.8245 -1.9201  0.8508
  456MOL0     H61534   9.831   6.424  11.542  2.0111  1.0050 -0.2518
  456MOL0     H61535   9.691   6.447  11.641  0.8531 -0.3712 -2.7373
  456MOL0     H61536   9.817   6.402  11.854  0.5803 -0.1835 -0.8121
  456MOL0     H61537   9.806   6.266  11.748  0.0245  0.9617 -2.2644
  456MOL0     H61538  10.055   6.424  11.744 -0.8906  1.1077  0.9649
  456MOL0     H61539  10.028   6.256  11.698 -2.5944 -0.7491 -0.3246
  456MOL0     H61540  10.026   6.364  11.988  1.2795 -0.3918  0.2494
  456MOL0     H61541  10.142   6.253  11.914 -0.0490 -0.1871  3.8850
  456MOL0     H61542   9.856   7.107  11.244  0.1815  1.2571 -2.7557
  456MOL0     H61543   9.763   7.189  11.016  3.2682 -2.0035 -0.3255
  456MOL0     H61544   9.480   7.000  10.737  0.7598  0.4057  0.0242
  456MOL0     H61545   9.354   6.924  10.556 -1.8184 -1.0612  1.3287
  456MOL0     H61546   9.106   5.316  10.560  0.6873  0.3456  0.3185
  456MOL0     H61547   8.957   5.158  10.435  3.2805  0.8643  0.6631
  456MOL0     H61548   8.657   4.944  10.349 -2.9331 -2.7771  1.0417
  456MOL0     H61549   8.580   4.756  10.221 -2.5063 -1.2363  1.1516
  456MOL0     H61550   8.187   4.625  10.060  0.3463 -1.2724  0.1107
  456MOL0     H61551   8.159   4.790  10.132  1.6806 -0.7897 -0.1987
  456MOL0     H61552   8.221   4.876   9.908 -1.8039  1.3563  2.3470
  456MOL0     H61553   8.064   4.794   9.901 -0.1506 -0.2987 -2.0560
  456MOL0     H61554   8.173   4.598   9.816  1.7155 -2.0124  0.2083
  456MOL0     H61555   8.329   4.681   9.800  0.4191  2.1920  0.2274
  456MOL0     H61556   8.238   4.842   9.631 -1.1914  0.5186 -1.6282
  456MOL0     H61557   8.078   4.795   9.668 -0.5287 -1.8657  2.7122
  456MOL0     H61558   8.192   4.480   9.419  1.8146 -1.1093  0.1830
  456MOL0     H61559   8.259   4.986  10.078  0.0153 -1.4233  0.2641
  456MOL0     H61560   8.349   5.194  10.191  2.5610  1.5821  0.0916
  457MOL0     O61561   9.974   1.000   7.841  0.6392  0.6413  0.6034
  457MOL0     C61562   9.979   0.957   7.723  0.7359  0.0361 -0.6405
  457MOL0     O61563   9.894   1.000   7.623 -0.2002 -0.2986 -0.7003
  457MOL0     C61564   9.808   1.108   7.638 -0.3344 -0.3412 -0.2575
  457MOL0     C61565   9.825   1.222   7.728  1.2722  0.0051  1.1256
  457MOL0     C61566   9.736   1.329   7.709 -0.7359 -0.3742 -0.4868
  457MOL0     C61567   9.628   1.315   7.622 -0.4762  0.3871  0.1274
  457MOL0     O61568   9.541   1.425   7.594  0.3220  0.2005 -0.6141
  457MOL0     C61569   9.525   1.520   7.692  0.3127 -1.3182 -0.3370
  457MOL0     C61570   9.389   1.601   7.663  0.3646 -0.2166 -0.3200
  457MOL0     C61571   9.361   1.596   7.518  0.6241 -0.4133 -0.0662
  457MOL0     C61572   9.249   1.706   7.478 -0.1400 -0.4324  0.7066
  457MOL0     C61573   9.115   1.652   7.539 -0.9086  0.7984 -0.0756
  457MOL0     C61574   8.991   1.736   7.519  0.6127  0.4007  0.4385
  457MOL0     C61575   8.862   1.696   7.590  0.5007 -0.6887 -0.3792
  457MOL0     C61576   8.727   1.776   7.552  0.6184 -0.2314 -0.5911
  457MOL0     N61577   8.696   1.775   7.404 -0.4897 -0.6651 -0.0523
  457MOL0     C61578   8.754   1.867   7.319 -0.2403 -0.3201 -0.7337
  457MOL0     C61579   8.730   1.818   7.191 -0.5501  0.0684 -0.0980
  457MOL0     C61580   8.765   1.884   7.071 -0.3239 -0.4128  0.5001
  457MOL0     C61581   8.649   1.965   7.008  0.2152  0.0336 -0.6226
  457MOL0     C61582   8.548   1.878   6.948  0.2384 -0.6631 -0.5374
  457MOL0     C61583   8.454   1.955   6.852  0.7857 -0.4485 -0.4263
  457MOL0     O61584   8.358   1.862   6.805  0.3711  0.1444 -0.8008
  457MOL0     C61585   8.277   1.904   6.699  0.2109  0.2739  0.1406
  457MOL0     C61586   8.208   1.813   6.623 -0.3407  0.0832 -0.0022
  457MOL0     C61587   8.130   1.860   6.506 -0.5670 -0.0615  0.3352
  457MOL0     C61588   8.067   1.749   6.429 -0.8300  0.6313  0.1378
  457MOL0     C61589   8.131   1.990   6.463  0.2982  0.3883 -0.3854
  457MOL0     C61590   8.087   2.038   6.330  0.8381  0.1969  1.0490
  457MOL0     O61591   8.075   2.170   6.318 -0.4774  0.3842 -0.6905
  457MOL0     C61592   8.058   2.226   6.200 -0.5509 -0.0923  0.9891
  457MOL0     C61593   8.035   2.365   6.207  0.0646  0.0207 -0.1109
  457MOL0     C61594   8.042   2.440   6.091 -0.2122  0.2682 -0.9339
  457MOL0     C61595   8.059   2.390   5.969 -0.3423  0.2156 -0.2730
  457MOL0     O61596   8.056   2.478   5.863 -0.2326 -0.1376  0.3001
  457MOL0     C61597   8.041   2.421   5.727 -0.0770 -0.0247 -0.2181
  457MOL0     C61598   7.987   2.528   5.636 -0.2164  0.0141 -0.3049
  457MOL0     C61599   7.903   2.464   5.520 -0.3740 -0.5022  1.0056
  457MOL0     C61600   7.759   2.428   5.575  0.2534  0.0900 -0.8003
  457MOL0     C61601   7.659   2.374   5.463  0.7240  0.3515  0.1865
  457MOL0     C61602   7.694   2.227   5.414  0.2872 -0.1441 -0.9762
  457MOL0     C61603   7.680   2.202   5.272  0.2932  0.1552  0.3338
  457MOL0     C61604   7.651   2.053   5.233  0.2799  0.2991  0.5309
  457MOL0    Cl61605   7.664   2.025   5.055  0.4807  0.6206  0.2028
  457MOL0     C61606   8.070   2.251   5.949  0.4870  0.4981  0.5330
  457MOL0     C61607   8.068   2.167   6.066  0.6133  0.8456 -0.6320
  457MOL0     O61608   8.042   1.952   6.251  0.5978  0.5982 -0.3792
  457MOL0     C61609   8.200   2.081   6.544 -0.4703 -0.1778 -0.9428
  457MOL0     C61610   8.264   2.038   6.661 -1.1189 -1.4013 -0.0997
  457MOL0     N61611   8.664   1.695   7.205 -0.1109  0.1286 -0.3364
  457MOL0     N61612   8.651   1.670   7.327  0.5294 -0.5130 -0.9315
  457MOL0     C61613   9.609   1.209   7.539 -0.9855  0.0426 -0.8806
  457MOL0     C61614   9.714   1.110   7.541  0.0775  0.1263 -0.5473
  457MOL0     C61615  10.075   0.851   7.685 -0.9712  0.1539  0.2768
  457MOL0     C61616  10.060   0.799   7.558 -0.6989 -0.3884 -0.4796
  457MOL0     C61617  10.144   0.694   7.520  0.4484  0.2665  0.6431
  457MOL0     C61618  10.236   0.633   7.600 -0.9617  0.5200  0.3634
  457MOL0     O61619  10.313   0.539   7.544 -0.2958  0.2573 -0.0893
  457MOL0     C61620  10.424   0.475   7.613 -0.5770 -0.6476  0.2443
  457MOL0     C61621  10.378   0.368   7.706 -0.0433  0.3339 -0.5418
  457MOL0     C61622  10.284   0.258   7.651  1.2161 -0.5215  0.7819
  457MOL0     C61623  10.282   0.137   7.752 -0.1447  0.2591  0.4419
  457MOL0     C61624  10.409   0.077   7.770 -0.5797  0.7778 -0.8100
  457MOL0     C61625  10.511   0.012   7.792  0.1245 -0.5961  0.1419
  457MOL0     C61626  10.249   0.681   7.730  0.3954  0.4704  0.0567
  457MOL0     C61627  10.172   0.797   7.774 -0.2413 -0.5125  0.4248
  457MOL0     H61628   9.907   1.221   7.800  0.7811 -1.3502  1.7042
  457MOL0     H61629   9.746   1.426   7.758 -0.7627  0.0508 -1.3044
  457MOL0     H61630   9.510   1.480   7.793  0.9142  1.5716  0.9780
  457MOL0     H61631   9.615   1.581   7.687  0.1452 -1.0686 -0.3077
  457MOL0     H61632   9.320   1.541   7.724  1.7688 -0.3719  1.1911
  457MOL0     H61633   9.386   1.701   7.707  1.2951  1.2337 -3.3216
  457MOL0     H61634   9.454   1.622   7.467  0.2919  0.0695 -0.4335
  457MOL0     H61635   9.331   1.500   7.475  1.0954 -0.4378 -0.3472
  457MOL0     H61636   9.268   1.800   7.531 -0.3698  0.1274 -0.1848
  457MOL0     H61637   9.239   1.717   7.370 -0.6344 -3.0585  0.4302
  457MOL0     H61638   9.109   1.558   7.482 -0.1702 -0.0788  1.2380
  457MOL0     H61639   9.118   1.614   7.641 -1.9125 -1.1335 -0.6976
  457MOL0     H61640   9.017   1.833   7.564  0.4603  0.4963  0.3216
  457MOL0     H61641   8.974   1.769   7.416  0.2591 -1.5731 -0.1802
  457MOL0     H61642   8.838   1.589   7.581  2.2232 -1.4331  2.5592
  457MOL0     H61643   8.871   1.716   7.697 -0.7422 -0.1643 -0.3574
  457MOL0     H61644   8.732   1.876   7.597 -0.6536 -0.8405  0.9731
  457MOL0     H61645   8.644   1.732   7.607 -1.1536  0.7458 -2.3589
  457MOL0     H61646   8.817   1.953   7.342  0.2575 -0.2671 -2.1669
  457MOL0     H61647   8.853   1.944   7.093  0.8459 -2.0644  0.4665
  457MOL0     H61648   8.807   1.810   7.002 -1.4522  1.7750 -2.7779
  457MOL0     H61649   8.699   2.011   6.922 -1.7200 -0.6260 -2.2044
  457MOL0     H61650   8.608   2.038   7.078  1.1070  0.9238 -1.0078
  457MOL0     H61651   8.498   1.832   7.034  1.8105 -1.9086 -0.2510
  457MOL0     H61652   8.599   1.806   6.884 -1.7742 -1.3333 -1.4463
  457MOL0     H61653   8.517   1.982   6.768  2.2731  1.2960  1.1773
  457MOL0     H61654   8.408   2.039   6.905  0.6354 -1.7986  1.7325
  457MOL0     H61655   8.230   1.710   6.649 -0.2079  1.2913  6.0392
  457MOL0     H61656   8.127   1.717   6.343  1.3593  1.0086  1.4229
  457MOL0     H61657   8.054   1.655   6.483 -0.2464  1.4672  1.8069
  457MOL0     H61658   7.963   1.778   6.411 -0.8230 -0.6114 -2.2279
  457MOL0     H61659   8.009   2.411   6.302 -2.1995 -0.2500 -0.5248
  457MOL0     H61660   8.030   2.547   6.083 -0.0206  0.2240 -1.8932
  457MOL0     H61661   8.140   2.387   5.695  0.7241 -0.1292  2.1237
  457MOL0     H61662   7.975   2.334   5.728 -0.3424  0.1590  1.4854
  457MOL0     H61663   7.926   2.601   5.691  1.0866  7.0057 -6.4593
  457MOL0     H61664   8.064   2.593   5.593  2.8677 -0.9307  3.2591
  457MOL0     H61665   7.964   2.391   5.466  0.2072  1.3351 -0.9641
  457MOL0     H61666   7.903   2.539   5.440 -1.5310  0.0590  1.5090
  457MOL0     H61667   7.759   2.366   5.665  0.4853  0.8388 -0.2746
  457MOL0     H61668   7.707   2.516   5.613  0.6701  0.1185 -0.2814
  457MOL0     H61669   7.647   2.436   5.374 -3.7148 -0.7272 -0.2136
  457MOL0     H61670   7.553   2.378   5.492 -0.5072  2.2052 -3.8790
  457MOL0     H61671   7.800   2.208   5.435 -0.7026 -4.3305  1.2583
  457MOL0     H61672   7.640   2.154   5.474  2.0162  0.9247  2.1177
  457MOL0     H61673   7.776   2.223   5.222 -0.0280 -0.8303 -0.7337
  457MOL0     H61674   7.600   2.263   5.229 -0.7675  0.2162  2.3164
  457MOL0     H61675   7.546   2.040   5.261  0.2806  0.2724  0.5206
  457MOL0     H61676   7.719   1.986   5.286  1.5417  1.1150  0.0048
  457MOL0     H61677   8.085   2.201   5.854  1.8925 -0.3628  1.1696
  457MOL0     H61678   8.070   2.060   6.048  0.1449  0.7234 -0.0264
  457MOL0     H61679   8.217   2.186   6.522  5.4119 -0.1192  1.7669
  457MOL0     H61680   8.321   2.114   6.712 -0.8949 -0.3598 -1.8042
  457MOL0     H61681   9.530   1.201   7.465 -2.2378  0.1638  0.3904
  457MOL0     H61682   9.731   1.033   7.466 -1.5607 -0.6856 -0.1427
  457MOL0     H61683  10.003   0.842   7.476  1.0113 -0.4819 -1.7795
  457MOL0     H61684  10.149   0.659   7.418  0.0647 -0.8943  1.0106
  457MOL0     H61685  10.486   0.423   7.539 -2.2529 -2.3774 -0.0320
  457MOL0     H61686  10.487   0.537   7.677 -2.4618  1.8519 -0.1582
  457MOL0     H61687  10.338   0.417   7.795 -2.1725 -0.8660 -0.7733
  457MOL0     H61688  10.464   0.321   7.752  0.7056  2.0824 -0.0698
  457MOL0     H61689  10.327   0.226   7.556  0.9483 -1.6313  1.0086
  457MOL0     H61690  10.184   0.297   7.632  1.9899  1.3078  0.2965
  457MOL0     H61691  10.210   0.066   7.710 -1.3343  2.3712 -1.3348
  457MOL0     H61692  10.253   0.162   7.854 -1.4095 -0.8963  0.3834
  457MOL0     H61693  10.591  -0.052   7.825 -1.9820 -1.7299  3.5099
  457MOL0     H61694  10.304   0.625   7.804  1.4510  0.0106 -1.0362
  457MOL0     H61695  10.174   0.835   7.876  0.2749  1.9859 -0.4606
  458MOL0     O61696   0.550  11.001  10.057 -0.8974  0.1750 -0.3772
  458MOL0     C61697   0.521  11.096   9.988 -0.1713  0.6578  0.1054
  458MOL0     O61698   0.528  11.093   9.847  0.4315  0.1263 -1.0076
  458MOL0     C61699   0.592  10.980   9.799 -0.7433 -0.5302 -0.2076
  458MOL0     C61700   0.727  10.968   9.818 -0.2256  0.1112 -0.5747
  458MOL0     C61701   0.794  10.878   9.742 -0.8336  0.0022  0.1719
  458MOL0     C61702   0.728  10.800   9.645 -0.9602 -0.4440 -0.6627
  458MOL0     O61703   0.793  10.708   9.568 -0.3197  0.9344  0.2708
  458MOL0     C61704   0.928  10.735   9.530 -0.1083 -0.1873 -0.6504
  458MOL0     C61705   0.975  10.645   9.426 -0.4031  0.7553  0.5236
  458MOL0     C61706   0.948  10.498   9.463  0.5021 -0.3421  0.0519
  458MOL0     C61707   1.018  10.407   9.359 -0.5144  0.1777  0.8280
  458MOL0     C61708   0.946  10.391   9.221 -0.8176 -0.3319  0.7628
  458MOL0     C61709   1.002  10.261   9.150  0.9178 -0.9366 -0.2162
  458MOL0     C61710   0.911  10.135   9.181 -0.2534 -1.0095  0.3109
  458MOL0     C61711   0.934  10.064   9.320  1.1597  0.6345  0.7222
  458MOL0     N61712   0.862   9.931   9.307  0.5633  0.0626  0.0391
  458MOL0     C61713   0.880   9.833   9.214  0.4581 -0.5860 -0.3977
  458MOL0     C61714   0.796   9.738   9.252  0.3661  0.2840  0.4118
  458MOL0     C61715   0.778   9.599   9.185 -0.1030  1.6748 -0.0663
  458MOL0     C61716   0.877   9.571   9.072 -0.0874  0.1205  0.0907
  458MOL0     C61717   0.843   9.436   9.018  0.5541 -0.2952  0.8260
  458MOL0     C61718   0.949   9.402   8.906  0.6861 -0.0034  0.9921
  458MOL0     O61719   1.078   9.376   8.969  0.5088  0.6682 -0.5384
  458MOL0     C61720   1.188   9.350   8.893  0.4234 -0.8177  0.0947
  458MOL0     C61721   1.180   9.270   8.773 -0.0460 -0.6157 -0.5345
  458MOL0     C61722   1.288   9.244   8.695 -0.3572 -0.4552  0.8239
  458MOL0     C61723   1.274   9.154   8.577 -0.1667  0.0773 -0.2358
  458MOL0     C61724   1.417   9.297   8.717 -0.0176  0.0150  0.1192
  458MOL0     C61725   1.550   9.279   8.651 -0.5819  0.7355  0.5833
  458MOL0     O61726   1.659   9.246   8.740 -0.6892 -0.2004  0.4084
  458MOL0     C61727   1.749   9.151   8.722  1.1072  0.5553  0.1417
  458MOL0     C61728   1.738   9.059   8.616  0.5787  0.1283  0.1328
  458MOL0     C61729   1.842   8.964   8.590 -0.3269 -0.1272  0.3514
  458MOL0     C61730   1.955   8.958   8.677 -0.8059  0.0389  0.5766
  458MOL0     O61731   2.056   8.871   8.645  0.2146 -0.0965  0.5290
  458MOL0     C61732   2.166   8.853   8.739 -0.0022 -0.7993  1.3376
  458MOL0     C61733   2.264   8.755   8.679  0.0779 -0.1808 -0.3310
  458MOL0     C61734   2.230   8.607   8.670 -0.3303  0.2915 -0.0437
  458MOL0     C61735   2.326   8.529   8.577  0.6587  0.0124  0.9922
  458MOL0     C61736   2.304   8.377   8.566  0.0435 -0.1352  0.3189
  458MOL0     C61737   2.377   8.310   8.453 -0.9114 -0.9966  0.3235
  458MOL0     C61738   2.526   8.289   8.463 -0.3220  0.2619 -0.6525
  458MOL0     C61739   2.600   8.411   8.439  0.8355  1.6798 -0.4487
  458MOL0    Cl61740   2.765   8.360   8.424 -0.1949  0.3075  0.0263
  458MOL0     C61741   1.958   9.051   8.778 -0.9269  0.6601  0.7265
  458MOL0     C61742   1.861   9.147   8.799  0.0123  0.3760 -0.0080
  458MOL0     O61743   1.565   9.266   8.532 -0.3082 -0.6618  0.7343
  458MOL0     C61744   1.429   9.363   8.843 -0.1569  0.6408  0.2283
  458MOL0     C61745   1.324   9.400   8.926  0.4429 -0.6637 -0.4423
  458MOL0     N61746   0.717   9.784   9.347  0.4731 -0.2130 -0.9931
  458MOL0     N61747   0.761   9.895   9.395 -0.5857 -0.1257 -0.5427
  458MOL0     C61748   0.593  10.808   9.629 -0.7788  0.2893  0.7467
  458MOL0     C61749   0.525  10.904   9.704 -0.1869  0.2171  1.1328
  458MOL0     C61750   0.464  11.215  10.052  0.4342 -0.7770  0.2255
  458MOL0     C61751   0.444  11.329   9.975 -0.3358 -0.0860 -0.2392
  458MOL0     C61752   0.388  11.444  10.037  0.2393  0.9478 -0.5975
  458MOL0     C61753   0.334  11.434  10.169 -0.6285  0.1314 -0.0416
  458MOL0     O61754   0.265  11.534  10.227 -0.2739  0.4577  0.5580
  458MOL0     C61755   0.277  11.673  10.183 -0.0391 -0.8566  0.3649
  458MOL0     C61756   0.213  11.782  10.277 -0.5444  0.4398  0.4792
  458MOL0     C61757   0.063  11.741  10.318  0.3050 -0.5138 -0.0306
  458MOL0     C61758   0.028  11.815  10.449 -0.7977 -0.6816  0.0048
  458MOL0     C61759  -0.109  11.775  10.481 -0.0975  0.5050  0.7290
  458MOL0     C61760  -0.212  11.749  10.538  0.1375 -0.5184 -0.5636
  458MOL0     C61761   0.358  11.320  10.247  0.6196 -0.6017 -0.3158
  458MOL0     C61762   0.426  11.215  10.189 -0.8797  0.3144  0.6754
  458MOL0     H61763   0.780  11.028   9.891 -0.2300 -1.2008  0.5565
  458MOL0     H61764   0.899  10.853   9.757  0.1869  2.7247 -1.7621
  458MOL0     H61765   0.934  10.840   9.500 -2.8404  0.4958  0.8539
  458MOL0     H61766   0.999  10.725   9.613 -3.0814 -2.2335  1.8736
  458MOL0     H61767   0.930  10.675   9.331 -0.0800  1.0627  0.4663
  458MOL0     H61768   1.080  10.667   9.409 -0.6114  0.1175 -1.8058
  458MOL0     H61769   1.003  10.476   9.555  1.5920  0.1347 -0.4661
  458MOL0     H61770   0.842  10.477   9.479  0.2472  0.7378 -0.1465
  458MOL0     H61771   1.120  10.438   9.334 -1.4386  0.4414 -3.2881
  458MOL0     H61772   1.018  10.313   9.415 -2.2242 -0.9375 -0.9171
  458MOL0     H61773   0.838  10.377   9.216 -0.7863 -0.3201 -3.7641
  458MOL0     H61774   0.966  10.479   9.159  1.5773 -0.3646  1.3845
  458MOL0     H61775   0.983  10.267   9.042  4.6748  0.3533 -0.9701
  458MOL0     H61776   1.109  10.249   9.170  1.5000  3.0293 -0.2299
  458MOL0     H61777   0.807  10.169   9.173 -0.1517 -1.1471 -2.4790
  458MOL0     H61778   0.927  10.057   9.106  0.0182  0.8043 -1.5947
  458MOL0     H61779   0.881  10.130   9.389 -3.2123  0.0341 -1.6876
  458MOL0     H61780   1.042  10.061   9.334  1.2047 -2.7821  0.6452
  458MOL0     H61781   0.946   9.834   9.128 -0.6895  0.4088 -1.3037
  458MOL0     H61782   0.810   9.526   9.261 -3.3507 -0.1603 -0.3062
  458MOL0     H61783   0.680   9.570   9.149  0.6731 -0.0623 -0.8811
  458MOL0     H61784   0.979   9.569   9.110  0.9413 -2.6646 -2.3734
  458MOL0     H61785   0.857   9.655   9.005 -1.8755  0.4675  0.9901
  458MOL0     H61786   0.750   9.437   8.960  1.6200 -0.0088 -0.9652
  458MOL0     H61787   0.831   9.361   9.097  1.6489 -2.3629 -0.8714
  458MOL0     H61788   0.953   9.480   8.829 -0.2605 -0.6421  0.2709
  458MOL0     H61789   0.917   9.307   8.863  1.4644 -0.4402  1.3567
  458MOL0     H61790   1.088   9.219   8.744  0.3569 -1.1483 -0.8970
  458MOL0     H61791   1.168   9.126   8.573 -0.1006 -0.4047  1.0527
  458MOL0     H61792   1.302   9.212   8.488  0.8542  0.1097  0.1040
  458MOL0     H61793   1.340   9.071   8.601 -1.4466 -1.4556 -1.7512
  458MOL0     H61794   1.660   9.056   8.540  0.9125 -0.6928 -0.1858
  458MOL0     H61795   1.813   8.888   8.518 -0.6621  1.0475 -0.7967
  458MOL0     H61796   2.219   8.946   8.762  3.0660 -1.7236 -1.2463
  458MOL0     H61797   2.135   8.811   8.835 -2.6763 -0.8848  0.5194
  458MOL0     H61798   2.292   8.801   8.584 -2.3722  0.8672 -0.6307
  458MOL0     H61799   2.348   8.764   8.747 -0.9621 -0.4632  1.0345
  458MOL0     H61800   2.122   8.599   8.654 -0.7585  1.0839  2.1412
  458MOL0     H61801   2.239   8.548   8.761  1.4200 -0.3552 -0.6009
  458MOL0     H61802   2.313   8.564   8.475 -0.6667  0.0588  1.1576
  458MOL0     H61803   2.429   8.555   8.601  1.1938  1.1242 -2.1608
  458MOL0     H61804   2.196   8.363   8.552 -0.0939  0.4720  0.6860
  458MOL0     H61805   2.337   8.325   8.656 -3.1012  2.1335  3.0822
  458MOL0     H61806   2.339   8.208   8.443  2.7371 -2.5587  0.8218
  458MOL0     H61807   2.347   8.361   8.361 -3.3668  1.7503  2.4299
  458MOL0     H61808   2.559   8.220   8.385 -2.8908 -1.4069 -0.3835
  458MOL0     H61809   2.563   8.239   8.553  1.8773  0.3450 -1.4370
  458MOL0     H61810   2.598   8.495   8.508  2.0344  3.8796 -2.8841
  458MOL0     H61811   2.570   8.442   8.338  0.1620  0.9354 -0.4902
  458MOL0     H61812   2.051   9.054   8.835 -1.4558  2.1336  1.5794
  458MOL0     H61813   1.877   9.222   8.876  0.6290 -1.4641  1.7210
  458MOL0     H61814   1.528   9.391   8.879 -0.3480 -0.1838  1.4812
  458MOL0     H61815   1.343   9.445   9.022 -1.2140  0.1640 -0.4646
  458MOL0     H61816   0.538  10.745   9.560  0.7591  0.3658 -0.5843
  458MOL0     H61817   0.417  10.896   9.691 -0.1868 -1.8881  1.9223
  458MOL0     H61818   0.471  11.335   9.870  2.5682  2.2322  0.4993
  458MOL0     H61819   0.362  11.534   9.981  0.1767  1.0583 -0.3952
  458MOL0     H61820   0.384  11.697  10.174 -0.1086 -1.0924 -1.5107
  458MOL0     H61821   0.229  11.682  10.085 -2.2336  2.2727  1.5659
  458MOL0     H61822   0.224  11.885  10.241  2.0036 -0.3395 -1.2676
  458MOL0     H61823   0.268  11.786  10.371  0.0197 -1.1009  0.2453
  458MOL0     H61824   0.044  11.634  10.333  0.2919 -0.8062 -1.9186
  458MOL0     H61825   0.010  11.782  10.232  0.2194 -3.5985 -1.5814
  458MOL0     H61826   0.036  11.924  10.438  1.8731 -0.9007 -1.0039
  458MOL0     H61827   0.100  11.787  10.526  1.0727 -2.7474 -2.3345
  458MOL0     H61828  -0.303  11.723  10.590 -0.8511 -0.5280 -2.2424
  458MOL0     H61829   0.332  11.321  10.352  1.3546 -2.5491 -0.0680
  458MOL0     H61830   0.438  11.136  10.263 -3.9588  0.0448  1.0003
  459MOL0     O61831   7.202   4.553   5.516  0.2778 -0.3976  0.4611
  459MOL0     C61832   7.195   4.497   5.405  0.4597 -1.1613  0.7179
  459MOL0     O61833   7.253   4.377   5.371  0.6927  0.5596  0.0086
  459MOL0     C61834   7.305   4.306   5.482 -0.4073 -0.5145  0.2958
  459MOL0     C61835   7.235   4.232   5.575 -0.0147 -0.2285 -0.3347
  459MOL0     C61836   7.297   4.162   5.673  0.6846 -0.0845  0.8066
  459MOL0     C61837   7.434   4.156   5.689  0.9749 -0.2168 -0.0612
  459MOL0     O61838   7.469   4.073   5.790  0.1954  0.9027  1.4105
  459MOL0     C61839   7.605   4.039   5.798  0.4145  0.0936 -1.7013
  459MOL0     C61840   7.615   3.953   5.920 -0.5420 -0.0498  1.0440
  459MOL0     C61841   7.543   4.011   6.042  0.3091 -0.6035 -0.1101
  459MOL0     C61842   7.613   4.147   6.097 -0.3130  0.6592  0.0242
  459MOL0     C61843   7.503   4.242   6.159  0.9050 -0.1108 -0.0463
  459MOL0     C61844   7.418   4.180   6.278  0.9183 -0.7808 -0.1899
  459MOL0     C61845   7.348   4.293   6.357  0.7944 -0.2699 -0.4588
  459MOL0     C61846   7.263   4.238   6.475  0.9247 -0.0482 -0.5416
  459MOL0     N61847   7.178   4.344   6.550  0.4519 -0.0890  0.4811
  459MOL0     C61848   7.236   4.443   6.621 -0.8879 -0.1788 -0.1082
  459MOL0     C61849   7.145   4.532   6.651  0.5677  0.4485  1.5970
  459MOL0     C61850   7.151   4.667   6.718 -0.4200 -0.9593 -0.2406
  459MOL0     C61851   7.271   4.686   6.819 -0.1065 -1.0104  0.1055
  459MOL0     C61852   7.239   4.608   6.957 -0.0807 -0.3177 -0.2399
  459MOL0     C61853   7.298   4.466   6.966  0.4270 -0.2568  0.3369
  459MOL0     O61854   7.416   4.449   6.890  0.3188 -0.2218 -0.4289
  459MOL0     C61855   7.488   4.340   6.931 -0.3484 -0.1342 -0.6447
  459MOL0     C61856   7.554   4.329   7.056 -0.1100 -0.0177  0.5039
  459MOL0     C61857   7.625   4.204   7.079 -0.4541  0.7327  0.2352
  459MOL0     C61858   7.722   4.217   7.199 -0.0647 -0.5070 -0.4734
  459MOL0     C61859   7.627   4.094   6.985 -0.1514 -0.7247 -0.6709
  459MOL0     C61860   7.705   3.966   7.005  0.9376  0.0787  0.6970
  459MOL0     O61861   7.718   3.892   6.887 -0.3303  0.8100 -0.4167
  459MOL0     C61862   7.746   3.758   6.904 -1.2522  0.1386 -0.0582
  459MOL0     C61863   7.838   3.697   7.001  0.7063 -0.0519 -0.1816
  459MOL0     C61864   7.883   3.561   6.980 -0.4476  0.2405  0.8518
  459MOL0     C61865   7.824   3.487   6.863 -0.7903  0.2525  0.1504
  459MOL0     O61866   7.844   3.353   6.831 -0.0651  0.0582 -0.1422
  459MOL0     C61867   7.823   3.264   6.940  0.4912  0.2015  0.3892
  459MOL0     C61868   7.716   3.162   6.915 -0.6150  0.7354  0.4979
  459MOL0     C61869   7.774   3.054   6.816 -0.2413 -0.7742  0.8068
  459MOL0     C61870   7.650   2.990   6.754  0.7596 -0.8930 -0.3527
  459MOL0     C61871   7.666   2.875   6.649 -0.0939 -1.5234 -0.2293
  459MOL0     C61872   7.777   2.769   6.696 -0.0746 -1.2491 -0.6660
  459MOL0     C61873   7.737   2.697   6.820  1.0318 -0.0353 -1.4337
  459MOL0     C61874   7.816   2.569   6.824  0.5755 -0.3811  0.1575
  459MOL0    Cl61875   7.993   2.597   6.830  0.2376 -0.0710 -0.2385
  459MOL0     C61876   7.743   3.549   6.774  0.0494  0.3773  0.7994
  459MOL0     C61877   7.708   3.684   6.797  0.5975  0.3985  0.2576
  459MOL0     O61878   7.746   3.936   7.114  0.7128 -0.3483  0.1478
  459MOL0     C61879   7.545   4.109   6.878  0.7485 -0.7137 -0.0159
  459MOL0     C61880   7.475   4.227   6.850  1.1191  0.5927  0.8223
  459MOL0     N61881   7.022   4.467   6.608 -0.7352  0.0527 -0.6108
  459MOL0     N61882   7.047   4.360   6.547  0.6786  1.3146  0.5316
  459MOL0     C61883   7.515   4.232   5.596  0.8303 -0.2905  1.0188
  459MOL0     C61884   7.450   4.299   5.494 -0.7580 -1.7202 -0.8552
  459MOL0     C61885   7.119   4.567   5.300  0.1167 -0.2432 -0.4694
  459MOL0     C61886   7.071   4.495   5.189 -0.8063  0.3279 -0.2304
  459MOL0     C61887   6.980   4.560   5.097 -1.0701  1.2452  0.1600
  459MOL0     C61888   6.948   4.694   5.113 -0.2302 -0.4418  0.2174
  459MOL0     O61889   6.853   4.744   5.031  0.0392 -0.2813  0.6640
  459MOL0     C61890   6.862   4.882   4.988 -0.7125 -0.9067 -0.7751
  459MOL0     C61891   6.734   4.947   5.023  0.2561 -0.0703  0.4301
  459MOL0     C61892   6.690   4.923   5.168 -0.2404  0.5007 -1.4924
  459MOL0     C61893   6.556   4.985   5.193 -0.0813  0.3953  0.6791
  459MOL0     C61894   6.449   4.891   5.154 -0.2231 -0.7833  0.2773
  459MOL0     C61895   6.348   4.830   5.115  0.6080  0.3406 -0.9096
  459MOL0     C61896   6.989   4.751   5.231 -0.4625 -0.6195  0.6626
  459MOL0     C61897   7.079   4.685   5.317  0.0481 -0.5567  0.5130
  459MOL0     H61898   7.131   4.202   5.569  0.4002 -2.1615  1.1383
  459MOL0     H61899   7.232   4.106   5.739 -0.5615 -0.8910 -1.0152
  459MOL0     H61900   7.646   3.987   5.711  0.2057  1.0197 -2.3591
  459MOL0     H61901   7.670   4.123   5.824  0.0098 -1.1771  5.5529
  459MOL0     H61902   7.578   3.851   5.907 -3.7562  0.7552  2.7404
  459MOL0     H61903   7.718   3.940   5.954  0.5838  1.9799 -1.2595
  459MOL0     H61904   7.442   4.037   6.012  0.8924  1.2356 -0.5893
  459MOL0     H61905   7.537   3.946   6.130 -2.5760 -1.1286 -0.6017
  459MOL0     H61906   7.697   4.122   6.163  0.1511 -0.8267 -1.0674
  459MOL0     H61907   7.673   4.193   6.017  1.9390 -1.8806  0.0929
  459MOL0     H61908   7.559   4.332   6.186  1.0096  0.3330 -1.6489
  459MOL0     H61909   7.438   4.277   6.079  1.9867  0.0118 -0.8998
  459MOL0     H61910   7.344   4.112   6.234 -0.2939 -1.2313  2.3452
  459MOL0     H61911   7.473   4.123   6.354  1.0929 -0.8384 -0.3594
  459MOL0     H61912   7.423   4.356   6.406 -1.8042  2.5223  0.2085
  459MOL0     H61913   7.277   4.350   6.296  2.0828 -0.7135 -2.4696
  459MOL0     H61914   7.329   4.188   6.546 -0.2617 -1.3886 -0.3591
  459MOL0     H61915   7.202   4.154   6.442 -1.8530  0.5891  2.5124
  459MOL0     H61916   7.338   4.459   6.655 -1.5026 -2.6873  3.4999
  459MOL0     H61917   7.159   4.745   6.642  0.1865 -1.9840 -1.2693
  459MOL0     H61918   7.056   4.685   6.769 -0.1446 -1.6581  0.5433
  459MOL0     H61919   7.280   4.792   6.843  0.8631 -1.2284  0.7408
  459MOL0     H61920   7.360   4.658   6.762 -1.2468 -1.4067 -1.5673
  459MOL0     H61921   7.131   4.610   6.976 -0.3466  3.3318 -1.3536
  459MOL0     H61922   7.285   4.667   7.036  0.6271  1.9251 -2.2176
  459MOL0     H61923   7.222   4.400   6.923 -0.3515  1.5768 -1.2270
  459MOL0     H61924   7.321   4.435   7.069  1.9226 -0.0973  0.0861
  459MOL0     H61925   7.565   4.416   7.119  0.2421  1.3939 -1.4264
  459MOL0     H61926   7.713   4.318   7.240  0.8256 -0.0079 -1.4967
  459MOL0     H61927   7.699   4.149   7.282  1.9971 -0.7704 -0.0857
  459MOL0     H61928   7.825   4.200   7.170  0.3333  2.4413 -1.1222
  459MOL0     H61929   7.877   3.754   7.084  3.1334 -0.7052 -0.8149
  459MOL0     H61930   7.951   3.508   7.046  1.0018  0.4661 -0.3897
  459MOL0     H61931   7.922   3.228   6.967  1.0482  0.5106 -1.1164
  459MOL0     H61932   7.773   3.314   7.023  0.7433  2.3237 -0.6792
  459MOL0     H61933   7.700   3.103   7.005 -2.4977 -1.8702 -1.3752
  459MOL0     H61934   7.621   3.212   6.897 -1.0331 -0.0993  0.3362
  459MOL0     H61935   7.837   2.978   6.865 -0.4009 -0.8603  0.8795
  459MOL0     H61936   7.844   3.106   6.750 -0.0843  0.1844  1.7115
  459MOL0     H61937   7.598   2.941   6.837 -0.7622 -0.4685 -1.0127
  459MOL0     H61938   7.587   3.066   6.706 -0.5991 -2.8960 -1.9335
  459MOL0     H61939   7.683   2.926   6.554 -0.4544 -0.8754  0.0499
  459MOL0     H61940   7.561   2.850   6.633 -0.6771  0.9483 -0.5825
  459MOL0     H61941   7.785   2.701   6.611 -1.8415 -0.1584 -1.7630
  459MOL0     H61942   7.869   2.828   6.707 -1.7535  1.3833  0.4356
  459MOL0     H61943   7.632   2.671   6.810  0.4345 -0.1250  3.0416
  459MOL0     H61944   7.733   2.749   6.916 -2.3398 -1.0689 -0.8986
  459MOL0     H61945   7.784   2.508   6.739  3.5069 -3.0895  0.8064
  459MOL0     H61946   7.784   2.519   6.916 -2.4094  0.0105 -0.5810
  459MOL0     H61947   7.704   3.481   6.699  4.4643 -4.3553  2.2336
  459MOL0     H61948   7.645   3.737   6.726 -0.5124 -1.0536  0.1016
  459MOL0     H61949   7.530   4.025   6.810 -1.5633 -0.9389  0.6971
  459MOL0     H61950   7.411   4.220   6.763 -0.1579  0.1858  1.7708
  459MOL0     H61951   7.619   4.259   5.606  0.4116  2.1455 -0.3184
  459MOL0     H61952   7.504   4.344   5.411 -0.1132 -1.0730 -0.1112
  459MOL0     H61953   7.102   4.395   5.161 -1.6858  1.0669 -4.4983
  459MOL0     H61954   6.934   4.515   5.009  2.5349 -1.4615 -0.5814
  459MOL0     H61955   6.947   4.933   5.034 -3.5380  3.3284  0.3280
  459MOL0     H61956   6.876   4.888   4.879  1.3218 -2.0756 -0.6429
  459MOL0     H61957   6.662   4.903   4.953  0.5221 -0.9336  0.6923
  459MOL0     H61958   6.749   5.051   4.992  3.3401 -0.7203 -0.5339
  459MOL0     H61959   6.759   4.974   5.235 -1.1430  0.8774 -0.8293
  459MOL0     H61960   6.697   4.815   5.185  1.9044  0.1162 -4.1122
  459MOL0     H61961   6.533   5.074   5.133  2.8754  0.0445 -1.1618
  459MOL0     H61962   6.542   5.009   5.299  4.2174  0.7622  1.3364
  459MOL0     H61963   6.277   4.762   5.074  1.8948 -2.9729  1.8927
  459MOL0     H61964   6.939   4.843   5.259  0.2876  0.2888 -0.8128
  459MOL0     H61965   7.104   4.749   5.400 -1.3056  2.5486 -1.2889
  460MOL0     O61966   9.181   5.202   2.315  0.2758  0.9279 -0.8885
  460MOL0     C61967   9.290   5.247   2.279  0.0957  0.4085  0.4549
  460MOL0     O61968   9.349   5.367   2.319  0.2421 -0.1333 -0.5563
  460MOL0     C61969   9.294   5.414   2.438 -0.4382 -0.1138 -0.3627
  460MOL0     C61970   9.328   5.367   2.568  0.0884  0.5885 -0.5147
  460MOL0     C61971   9.280   5.427   2.689  0.6421  0.7653 -0.3112
  460MOL0     C61972   9.190   5.525   2.679  0.4115  0.6159  0.1030
  460MOL0     O61973   9.143   5.575   2.800  0.1159 -0.2410 -0.0825
  460MOL0     C61974   9.098   5.708   2.811  0.1450 -0.4107  0.6992
  460MOL0     C61975   9.123   5.750   2.968 -0.3774  0.2464 -0.0085
  460MOL0     C61976   9.086   5.904   2.984 -0.0451 -0.4987 -0.5740
  460MOL0     C61977   9.029   5.941   3.121 -0.2891  0.1027 -0.3058
  460MOL0     C61978   8.950   6.077   3.115  0.6392  0.3534  0.8642
  460MOL0     C61979   8.898   6.139   3.246  0.4554 -0.2870 -0.2263
  460MOL0     C61980   8.993   6.212   3.334  0.1796 -0.3154  0.0780
  460MOL0     C61981   8.916   6.278   3.451  0.3891  0.3516  1.0563
  460MOL0     N61982   8.979   6.405   3.476  0.7954 -0.1836  0.4455
  460MOL0     C61983   9.030   6.439   3.607 -0.6745  0.2935  0.5779
  460MOL0     C61984   9.043   6.578   3.608  0.4744  0.9800 -0.0515
  460MOL0     C61985   9.100   6.663   3.714 -0.7286  0.0476 -0.1434
  460MOL0     C61986   9.016   6.775   3.773  0.3982  0.5842  0.1499
  460MOL0     C61987   8.878   6.730   3.836 -0.5275  0.4019  0.8656
  460MOL0     C61988   8.813   6.848   3.893  1.1739  0.4976  0.0341
  460MOL0     O61989   8.690   6.805   3.955 -0.1270 -0.2654 -0.3125
  460MOL0     C61990   8.609   6.897   4.018  0.2162  0.2920 -0.2389
  460MOL0     C61991   8.609   7.032   3.973  0.1961  0.1539  0.3519
  460MOL0     C61992   8.524   7.139   4.031 -0.0308 -0.3611  0.2055
  460MOL0     C61993   8.532   7.267   3.975 -0.1963 -0.1080  0.3552
  460MOL0     C61994   8.443   7.101   4.138 -0.3819  0.4777 -0.9731
  460MOL0     C61995   8.344   7.201   4.210  0.3330  0.8285  0.7989
  460MOL0     O61996   8.279   7.140   4.318  0.7024 -0.3998 -0.7569
  460MOL0     C61997   8.162   7.201   4.377 -0.2398  0.0723  0.3488
  460MOL0     C61998   8.035   7.136   4.376 -0.0916 -0.7449  0.9204
  460MOL0     C61999   7.923   7.189   4.442  0.3939 -0.7674  0.6963
  460MOL0     C62000   7.937   7.308   4.512 -0.2316  0.1855  0.4274
  460MOL0     O62001   7.847   7.365   4.587  0.2644  0.2045 -0.2157
  460MOL0     C62002   7.713   7.388   4.539 -0.2168  0.3344 -0.3253
  460MOL0     C62003   7.714   7.477   4.413  1.0713 -0.4551 -0.6370
  460MOL0     C62004   7.579   7.526   4.367  0.2500  0.0335  0.2405
  460MOL0     C62005   7.563   7.591   4.239 -0.4727 -0.9161 -0.0454
  460MOL0     C62006   7.432   7.671   4.230  0.4703 -0.4676  0.0978
  460MOL0     C62007   7.411   7.716   4.091  0.3447  0.3672  0.8022
  460MOL0     C62008   7.520   7.818   4.049  0.6866  0.5638 -1.2503
  460MOL0     C62009   7.473   7.932   3.958 -0.7686 -0.5160 -0.6454
  460MOL0    Cl62010   7.381   7.876   3.820  0.3498  0.2292 -0.2122
  460MOL0     C62011   8.062   7.377   4.505  0.4776  0.2539 -0.5290
  460MOL0     C62012   8.169   7.320   4.442  0.3347  0.2854 -0.4762
  460MOL0     O62013   8.323   7.309   4.167  0.9320 -0.9105 -0.3750
  460MOL0     C62014   8.460   6.970   4.197  0.3261 -0.0036  0.6231
  460MOL0     C62015   8.536   6.866   4.140  1.4317  0.1012 -0.5453
  460MOL0     N62016   9.011   6.619   3.476 -0.3218 -0.2865 -0.2622
  460MOL0     N62017   8.965   6.521   3.409 -0.5582  0.6067 -0.0590
  460MOL0     C62018   9.144   5.566   2.554  0.7223 -0.4577 -0.6034
  460MOL0     C62019   9.193   5.514   2.433 -0.0904 -0.9198 -0.0858
  460MOL0     C62020   9.354   5.165   2.179 -1.5409  0.6128 -0.2517
  460MOL0     C62021   9.466   5.213   2.110  1.0056 -0.5784  0.1048
  460MOL0     C62022   9.523   5.127   2.011  0.8716 -0.7696 -0.0071
  460MOL0     C62023   9.477   4.996   1.986  0.0121 -0.9882 -0.4466
  460MOL0     O62024   9.538   4.909   1.892 -0.2888 -0.1987  0.2810
  460MOL0     C62025   9.654   4.958   1.816 -0.9991 -0.6566 -0.1809
  460MOL0     C62026   9.709   4.841   1.747 -0.5944  0.0456  0.4810
  460MOL0     C62027   9.803   4.874   1.627  0.0419 -0.2208  0.0980
  460MOL0     C62028   9.878   4.754   1.581  0.1235  0.0765 -0.5905
  460MOL0     C62029  10.016   4.792   1.600 -0.3727 -0.0189  0.2159
  460MOL0     C62030  10.132   4.825   1.618  0.4465 -0.1746 -0.5358
  460MOL0     C62031   9.362   4.962   2.056  0.4264 -0.0706  0.7945
  460MOL0     C62032   9.301   5.039   2.154  0.3437  0.3464 -0.3579
  460MOL0     H62033   9.395   5.287   2.597 -2.0183  0.2864  4.5047
  460MOL0     H62034   9.332   5.399   2.780  0.1703 -0.7751 -0.4833
  460MOL0     H62035   9.161   5.776   2.752 -1.5326  1.2877  0.7853
  460MOL0     H62036   8.994   5.731   2.788  0.0327 -1.1096  0.5031
  460MOL0     H62037   9.064   5.681   3.029 -4.1873  1.3405 -2.1027
  460MOL0     H62038   9.232   5.743   2.978  0.0124  5.1881  2.0873
  460MOL0     H62039   9.177   5.964   2.971 -0.8832  0.6515 -1.3872
  460MOL0     H62040   9.007   5.941   2.917 -1.7990 -1.3104  0.9429
  460MOL0     H62041   8.974   5.853   3.156  0.3750  0.7497  2.6438
  460MOL0     H62042   9.110   5.959   3.192  0.7781  1.2247 -1.7379
  460MOL0     H62043   9.006   6.155   3.064 -0.5136  0.8920  0.3974
  460MOL0     H62044   8.865   6.058   3.049 -0.6912 -1.1833  2.8979
  460MOL0     H62045   8.822   6.212   3.216 -1.4911 -2.1625 -0.0297
  460MOL0     H62046   8.852   6.053   3.294  0.9013 -1.8687 -2.4943
  460MOL0     H62047   9.064   6.135   3.366  1.6820  1.7745  2.0937
  460MOL0     H62048   9.049   6.286   3.276  0.2216  1.5497  2.3761
  460MOL0     H62049   8.924   6.218   3.542 -2.0777 -0.4872  0.8192
  460MOL0     H62050   8.810   6.290   3.424  1.3314  1.0395 -3.0085
  460MOL0     H62051   9.057   6.379   3.693  0.8342 -1.0389 -0.7480
  460MOL0     H62052   9.123   6.597   3.798  0.7514  0.4206 -0.2157
  460MOL0     H62053   9.194   6.713   3.688  0.5434 -1.2359  1.7248
  460MOL0     H62054   8.991   6.852   3.700 -2.3909 -2.1334 -2.0569
  460MOL0     H62055   9.081   6.817   3.850 -0.6238  2.7703 -0.0942
  460MOL0     H62056   8.887   6.659   3.918 -1.1911  2.5313  2.8866
  460MOL0     H62057   8.807   6.695   3.761  0.2254 -1.2611  0.8847
  460MOL0     H62058   8.793   6.913   3.807 -1.2932 -1.6440 -1.1831
  460MOL0     H62059   8.878   6.888   3.970  0.1533  1.3399  0.4848
  460MOL0     H62060   8.669   7.067   3.889  0.5046  1.2151  0.9891
  460MOL0     H62061   8.432   7.302   3.946  1.6938  3.7577 -2.2138
  460MOL0     H62062   8.576   7.336   4.048 -0.9919  0.3266  0.4329
  460MOL0     H62063   8.593   7.263   3.884 -3.3305 -2.3544 -1.8887
  460MOL0     H62064   8.025   7.049   4.312  0.2913 -0.1329  0.0096
  460MOL0     H62065   7.824   7.145   4.443 -0.6809  1.3489 -1.5235
  460MOL0     H62066   7.662   7.291   4.533  1.0373 -0.2613 -3.2289
  460MOL0     H62067   7.673   7.450   4.620 -1.2418  1.7367 -1.8470
  460MOL0     H62068   7.780   7.557   4.448 -0.7013  0.1139  1.6411
  460MOL0     H62069   7.764   7.425   4.331  1.2040 -1.2489 -0.0550
  460MOL0     H62070   7.544   7.592   4.447 -0.2452  1.2058 -0.9159
  460MOL0     H62071   7.517   7.436   4.376  1.0915 -0.6453 -0.6409
  460MOL0     H62072   7.652   7.655   4.242 -1.4830  0.7608  4.9154
  460MOL0     H62073   7.560   7.518   4.158 -1.6938 -0.7950 -0.1274
  460MOL0     H62074   7.439   7.758   4.296  0.5788 -1.3389  1.2880
  460MOL0     H62075   7.348   7.610   4.266 -1.0476  0.3683 -1.8948
  460MOL0     H62076   7.418   7.625   4.030 -2.0243  0.3667  0.4302
  460MOL0     H62077   7.308   7.755   4.091 -0.9730 -2.5978  4.2422
  460MOL0     H62078   7.604   7.761   4.008  1.9507  1.5578 -0.1230
  460MOL0     H62079   7.573   7.863   4.134 -0.2877 -2.2016  0.9641
  460MOL0     H62080   7.556   7.995   3.924 -0.0165 -0.2079  1.6276
  460MOL0     H62081   7.415   8.006   4.014 -0.6550 -0.8867 -0.0364
  460MOL0     H62082   8.071   7.464   4.568  3.1785  0.2732 -0.8212
  460MOL0     H62083   8.259   7.379   4.431 -0.5410  1.2535 -3.5211
  460MOL0     H62084   8.421   6.940   4.294 -0.3889 -0.2052  0.2789
  460MOL0     H62085   8.536   6.769   4.189 -0.5957  0.4013  0.1366
  460MOL0     H62086   9.066   5.641   2.547 -0.1925 -1.3563 -0.3049
  460MOL0     H62087   9.150   5.550   2.340 -1.1968 -1.3394  0.2426
  460MOL0     H62088   9.511   5.311   2.126 -2.7748  1.4188 -0.3614
  460MOL0     H62089   9.609   5.175   1.966  0.3274  0.5979  0.3256
  460MOL0     H62090   9.631   5.027   1.734 -0.4307 -2.8952 -2.3468
  460MOL0     H62091   9.736   4.994   1.880 -1.2271 -0.1617 -0.1606
  460MOL0     H62092   9.631   4.774   1.711 -0.2299  0.4560 -1.1451
  460MOL0     H62093   9.777   4.782   1.809 -0.6740 -0.4543  0.1030
  460MOL0     H62094   9.861   4.963   1.657  1.4677 -0.4480 -1.8111
  460MOL0     H62095   9.729   4.892   1.548 -0.2962 -4.4785 -0.7469
  460MOL0     H62096   9.838   4.723   1.484 -3.4272 -0.8372  1.0051
  460MOL0     H62097   9.851   4.668   1.644  3.0974 -1.2679 -0.9620
  460MOL0     H62098  10.232   4.855   1.642  0.6289 -1.1945  0.0733
  460MOL0     H62099   9.311   4.876   2.012  0.3527  1.9044 -3.5226
  460MOL0     H62100   9.212   5.002   2.204  0.9918 -0.3689  0.3077
  461MOL0     O62101  10.002   8.425   3.212 -0.2107  0.4660 -0.1549
  461MOL0     C62102   9.970   8.402   3.329  0.0010  1.5591 -0.2917
  461MOL0     O62103   9.856   8.326   3.368 -0.3795 -0.3358 -0.5609
  461MOL0     C62104   9.768   8.297   3.272  0.0952 -0.2440 -0.2292
  461MOL0     C62105   9.799   8.205   3.167  0.2260  0.5967 -0.0962
  461MOL0     C62106   9.704   8.189   3.069 -0.3534  0.2145 -0.0733
  461MOL0     C62107   9.583   8.257   3.073 -0.1979 -1.0006 -1.0506
  461MOL0     O62108   9.492   8.233   2.977 -0.1470  0.5219  0.2159
  461MOL0     C62109   9.355   8.202   3.015  0.6781 -0.3212 -0.9931
  461MOL0     C62110   9.284   8.145   2.895 -0.5520 -0.6385 -0.1523
  461MOL0     C62111   9.132   8.116   2.922 -0.0287  0.1540 -0.4921
  461MOL0     C62112   9.116   7.987   3.017 -0.1005 -0.0717  1.0318
  461MOL0     C62113   8.978   7.985   3.080 -0.6039  0.3630 -0.2420
  461MOL0     C62114   8.874   7.943   2.968  0.8863  0.6445  0.2925
  461MOL0     C62115   8.733   7.908   3.013  1.2445  0.9000 -0.1175
  461MOL0     C62116   8.629   7.871   2.901  0.7364 -0.2474  1.0531
  461MOL0     N62117   8.539   7.980   2.881  0.4204  0.7777  0.3660
  461MOL0     C62118   8.405   7.981   2.844  0.3601  0.1994 -0.1866
  461MOL0     C62119   8.374   8.112   2.824 -0.0658  1.3747 -0.7653
  461MOL0     C62120   8.235   8.173   2.792  0.5065  0.5673 -0.8152
  461MOL0     C62121   8.131   8.113   2.892  0.2191  0.0751 -0.3166
  461MOL0     C62122   8.158   8.151   3.041 -0.2854  0.1532  0.2352
  461MOL0     C62123   8.061   8.064   3.121 -0.3220  0.5555  0.7753
  461MOL0     O62124   8.089   8.072   3.264 -0.1839 -0.0523 -0.3088
  461MOL0     C62125   8.086   7.958   3.354 -0.1078  0.3540  0.2940
  461MOL0     C62126   8.071   7.826   3.320  0.2948  1.0980 -0.6895
  461MOL0     C62127   8.061   7.719   3.415  0.7407  0.0970 -0.0946
  461MOL0     C62128   8.065   7.579   3.353  0.4603 -0.9565 -0.0081
  461MOL0     C62129   8.045   7.754   3.548  0.1623 -1.2833  0.5331
  461MOL0     C62130   7.993   7.664   3.639 -0.2173  0.5184 -0.4756
  461MOL0     O62131   8.047   7.661   3.765  0.1451 -0.2955  0.0440
  461MOL0     C62132   8.002   7.557   3.835 -0.4512 -0.1600 -0.8049
  461MOL0     C62133   7.870   7.541   3.882  0.3782  0.6279  0.3664
  461MOL0     C62134   7.838   7.426   3.957  0.3425 -1.6904  0.5758
  461MOL0     C62135   7.945   7.334   3.981  0.8033 -0.1268  0.5467
  461MOL0     O62136   7.926   7.226   4.059 -0.4101  0.2695 -0.4180
  461MOL0     C62137   7.798   7.177   4.094 -0.4217  0.4656  0.4001
  461MOL0     C62138   7.746   7.084   3.989 -0.1306  0.4788 -0.0814
  461MOL0     C62139   7.731   7.127   3.848  0.0713  0.1096  0.0169
  461MOL0     C62140   7.643   7.025   3.765 -0.9931  0.5222  0.2049
  461MOL0     C62141   7.709   6.894   3.709 -0.2446 -0.4866  0.6649
  461MOL0     C62142   7.812   6.907   3.587  1.0217 -0.2821 -0.5853
  461MOL0     C62143   7.852   6.774   3.528 -0.6111 -1.0225 -0.0122
  461MOL0     C62144   7.990   6.785   3.470 -0.0410 -1.1874  1.6479
  461MOL0    Cl62145   8.040   6.631   3.398  0.2580  0.1989  0.1472
  461MOL0     C62146   8.076   7.364   3.940 -0.2211  0.2207  0.0078
  461MOL0     C62147   8.110   7.477   3.869  0.4379 -0.8615 -0.1108
  461MOL0     O62148   7.895   7.594   3.601 -0.5482 -0.0124 -0.2338
  461MOL0     C62149   8.075   7.882   3.589  1.3020 -0.0155  1.1661
  461MOL0     C62150   8.093   7.985   3.494  0.9776 -0.1340 -0.2458
  461MOL0     N62151   8.487   8.179   2.859  0.0433  0.6880  0.0534
  461MOL0     N62152   8.579   8.102   2.888  0.5831 -0.5622  0.5602
  461MOL0     C62153   9.549   8.349   3.177 -0.3750  0.2202  0.4697
  461MOL0     C62154   9.647   8.377   3.271 -0.6080 -0.2386  0.3183
  461MOL0     C62155  10.058   8.430   3.443  0.8171 -0.1202  0.2674
  461MOL0     C62156  10.112   8.560   3.462  0.6132  0.7921  0.2251
  461MOL0     C62157  10.185   8.588   3.573  0.5789  0.4153 -0.0099
  461MOL0     C62158  10.209   8.489   3.678  0.5972  0.2902 -0.3071
  461MOL0     O62159  10.270   8.538   3.797  0.4091  0.0729  0.5397
  461MOL0     C62160  10.288   8.440   3.898 -0.4891  0.1794  0.1699
  461MOL0     C62161  10.415   8.368   3.853  0.7983 -0.0560 -0.7939
  461MOL0     C62162  10.545   8.446   3.847 -0.4287  0.7236  0.1778
  461MOL0     C62163  10.665   8.364   3.887 -0.3095  0.4402 -0.0949
  461MOL0     C62164  10.652   8.307   4.023 -1.0781  0.6953  0.5829
  461MOL0     C62165  10.651   8.262   4.133  0.1050  0.0933  0.3680
  461MOL0     C62166  10.147   8.362   3.662  0.8769 -0.2220  0.2231
  461MOL0     C62167  10.082   8.330   3.533 -0.1193 -0.3360 -0.6154
  461MOL0     H62168   9.895   8.154   3.158 -0.5861 -0.7174 -2.0681
  461MOL0     H62169   9.719   8.118   2.988 -3.3403 -0.4133 -0.2147
  461MOL0     H62170   9.356   8.124   3.092 -1.2432 -2.1032 -2.6639
  461MOL0     H62171   9.290   8.277   3.061  1.3685 -1.4984  2.1593
  461MOL0     H62172   9.302   8.210   2.810  0.8067  1.6156  1.7226
  461MOL0     H62173   9.322   8.047   2.867 -0.6822 -1.2208  1.5441
  461MOL0     H62174   9.080   8.203   2.964  0.1365  0.8521 -1.7087
  461MOL0     H62175   9.089   8.102   2.823  1.8667  0.3005 -1.3784
  461MOL0     H62176   9.129   7.901   2.951  0.4789 -0.1506  1.2508
  461MOL0     H62177   9.188   7.992   3.099  0.9868  0.9581  0.0539
  461MOL0     H62178   8.995   7.909   3.157 -1.4174  1.6578  1.2463
  461MOL0     H62179   8.947   8.079   3.125 -1.1044 -0.3585  0.9654
  461MOL0     H62180   8.874   8.025   2.895 -0.2909  1.2470  0.9403
  461MOL0     H62181   8.914   7.853   2.919 -1.8836 -0.4694 -0.0803
  461MOL0     H62182   8.741   7.817   3.073 -2.4110 -1.1558 -2.3901
  461MOL0     H62183   8.688   7.983   3.077 -4.8930  1.0226 -3.7923
  461MOL0     H62184   8.578   7.776   2.923  0.8627 -0.5412  0.1358
  461MOL0     H62185   8.678   7.860   2.804 -0.5996  0.6169  0.2545
  461MOL0     H62186   8.351   7.887   2.845 -0.2841  0.5135 -1.8926
  461MOL0     H62187   8.244   8.280   2.813 -0.3053  0.8365 -1.7887
  461MOL0     H62188   8.213   8.151   2.687 -0.2227 -0.0954 -0.5273
  461MOL0     H62189   8.139   8.006   2.873 -1.9942  0.0562 -1.3872
  461MOL0     H62190   8.031   8.137   2.855 -0.6158 -0.6076  1.4192
  461MOL0     H62191   8.130   8.255   3.061  0.0812  0.3059 -0.0294
  461MOL0     H62192   8.261   8.123   3.064 -1.1496 -2.0436  1.6887
  461MOL0     H62193   8.048   7.962   3.082 -1.9976  0.3353  1.8060
  461MOL0     H62194   7.967   8.118   3.113 -0.7311 -0.2983 -0.3915
  461MOL0     H62195   8.067   7.804   3.214  0.8148  2.6768 -1.0639
  461MOL0     H62196   8.085   7.499   3.424  1.8146 -1.8640 -1.3595
  461MOL0     H62197   7.971   7.556   3.302  0.2854  1.8283 -1.1269
  461MOL0     H62198   8.141   7.573   3.275  0.6987 -1.8388  0.2871
  461MOL0     H62199   7.796   7.618   3.868  2.6724  3.3173  1.9953
  461MOL0     H62200   7.740   7.408   4.000 -0.0070  5.4557  4.2086
  461MOL0     H62201   7.811   7.120   4.187  3.6404  0.1847 -0.2006
  461MOL0     H62202   7.713   7.240   4.121 -1.1949 -0.3534 -0.0528
  461MOL0     H62203   7.795   6.987   4.000 -1.6561 -0.0689  2.6145
  461MOL0     H62204   7.642   7.069   4.020 -1.1686  1.9086 -2.5204
  461MOL0     H62205   7.829   7.143   3.803 -0.3594  0.5651 -0.7898
  461MOL0     H62206   7.684   7.226   3.849 -0.1482  0.0001  0.6184
  461MOL0     H62207   7.554   7.000   3.824 -1.1388 -0.8049 -0.5305
  461MOL0     H62208   7.605   7.080   3.678 -0.5131 -0.6283 -0.7776
  461MOL0     H62209   7.616   6.847   3.676  0.2053  1.1989 -3.6901
  461MOL0     H62210   7.758   6.839   3.789  0.8763  1.6251  1.5243
  461MOL0     H62211   7.763   6.966   3.509  0.3060 -1.8731 -1.3869
  461MOL0     H62212   7.895   6.963   3.630  0.2155 -0.0195  0.6826
  461MOL0     H62213   7.780   6.753   3.448 -0.4792  0.5227 -0.5737
  461MOL0     H62214   7.841   6.690   3.597  0.8749 -1.0146  0.2684
  461MOL0     H62215   8.067   6.813   3.542  0.9174 -0.1718  0.2883
  461MOL0     H62216   7.986   6.868   3.398 -1.0571  1.6002  4.6830
  461MOL0     H62217   8.149   7.288   3.967 -0.0022 -0.3405 -1.9428
  461MOL0     H62218   8.212   7.488   3.834  0.0428  0.2181 -0.9813
  461MOL0     H62219   8.053   7.913   3.691 -0.4043  0.8387  0.5842
  461MOL0     H62220   8.098   8.080   3.546 -2.1454 -0.0300  0.0539
  461MOL0     H62221   9.452   8.398   3.177 -1.0424 -0.9509  2.5305
  461MOL0     H62222   9.644   8.468   3.329  0.7234  1.2176 -1.7822
  461MOL0     H62223  10.081   8.638   3.393 -1.6687 -0.3393 -0.1252
  461MOL0     H62224  10.222   8.690   3.582  0.1741  0.5194  0.4596
  461MOL0     H62225  10.311   8.492   3.992  0.1527 -0.0591  0.1474
  461MOL0     H62226  10.206   8.373   3.925 -0.7257  1.3972  2.8486
  461MOL0     H62227  10.410   8.312   3.759 -0.4371 -1.3039 -0.0328
  461MOL0     H62228  10.424   8.291   3.931  1.7698 -0.4665 -1.3001
  461MOL0     H62229  10.541   8.540   3.902  0.4748  1.5565 -1.1298
  461MOL0     H62230  10.556   8.482   3.744  0.2275 -0.6203 -0.2405
  461MOL0     H62231  10.747   8.437   3.888  0.6826 -0.5466 -2.2271
  461MOL0     H62232  10.696   8.301   3.803  1.0561  2.7267 -1.4095
  461MOL0     H62233  10.643   8.236   4.236  0.5901  2.0154  0.9269
  461MOL0     H62234  10.127   8.298   3.747  0.4096 -0.6828 -0.2222
  461MOL0     H62235  10.039   8.231   3.530  0.0901 -0.6677  2.9151
  462MOL0     O62236   5.856   2.150   5.791  0.3179  0.7158 -0.1404
  462MOL0     C62237   5.855   2.212   5.688  0.0714 -0.1823 -0.1285
  462MOL0     O62238   5.906   2.336   5.670  0.3990 -0.0078  0.6327
  462MOL0     C62239   5.925   2.423   5.776  1.0684 -0.6921 -0.0553
  462MOL0     C62240   6.045   2.477   5.804 -0.2756  0.7904  0.3976
  462MOL0     C62241   6.066   2.551   5.926  0.5805  0.3855 -0.8814
  462MOL0     C62242   5.959   2.554   6.015 -0.1712  0.3945 -0.5077
  462MOL0     O62243   5.978   2.610   6.141  0.2272  0.2075  1.4542
  462MOL0     C62244   6.110   2.625   6.198 -0.4312  0.6420 -1.1485
  462MOL0     C62245   6.074   2.672   6.344  0.7161  0.6461 -0.5188
  462MOL0     C62246   6.194   2.756   6.394 -0.7343  0.0122 -0.4137
  462MOL0     C62247   6.178   2.802   6.532 -0.1910 -0.2197 -0.1939
  462MOL0     C62248   6.297   2.881   6.582  0.6487  0.5136 -0.6273
  462MOL0     C62249   6.286   2.926   6.732 -0.4278 -0.5250  0.9994
  462MOL0     C62250   6.163   3.008   6.774 -0.0274  0.0509  0.4466
  462MOL0     C62251   6.188   3.154   6.730 -0.6749 -0.1090  0.3049
  462MOL0     N62252   6.244   3.243   6.828  0.6285 -0.6242  0.6380
  462MOL0     C62253   6.357   3.215   6.911 -0.6147 -1.0463  0.3429
  462MOL0     C62254   6.331   3.273   7.024  0.4575  0.0970 -0.4577
  462MOL0     C62255   6.423   3.266   7.149  0.2020  0.1055  0.0163
  462MOL0     C62256   6.409   3.125   7.218  0.1858  0.0239  1.0885
  462MOL0     C62257   6.539   3.044   7.211  0.2379  0.8617  1.2561
  462MOL0     C62258   6.518   2.893   7.227  0.6087  0.6126  0.3370
  462MOL0     O62259   6.643   2.825   7.213  0.6297 -0.0169 -1.0077
  462MOL0     C62260   6.658   2.716   7.291 -0.5380  0.8997  0.4079
  462MOL0     C62261   6.672   2.590   7.228  0.2637  0.3156  0.6197
  462MOL0     C62262   6.662   2.473   7.303  1.4357 -0.9457  0.2475
  462MOL0     C62263   6.688   2.351   7.214 -0.1530 -0.2584 -0.8181
  462MOL0     C62264   6.649   2.480   7.447  0.6361 -0.5579  0.0278
  462MOL0     C62265   6.630   2.369   7.525  0.1151  0.9063  0.3901
  462MOL0     O62266   6.502   2.314   7.521 -0.4443  0.1999 -1.0430
  462MOL0     C62267   6.457   2.215   7.617 -0.4252  0.3762 -0.0815
  462MOL0     C62268   6.536   2.101   7.635  0.2369  0.1912 -0.1499
  462MOL0     C62269   6.486   1.988   7.713  0.0738  0.1914  0.6183
  462MOL0     C62270   6.363   2.002   7.773  1.0623  0.2113 -0.0544
  462MOL0     O62271   6.314   1.907   7.864  0.2505  0.3642 -0.3256
  462MOL0     C62272   6.369   1.934   7.991  0.4591  0.5936  0.1093
  462MOL0     C62273   6.291   1.840   8.095  0.1078  0.3076  0.0308
  462MOL0     C62274   6.326   1.871   8.236  0.2247  0.1542 -0.6064
  462MOL0     C62275   6.260   1.772   8.326  0.0162 -0.4132  0.1869
  462MOL0     C62276   6.274   1.815   8.468  0.6197 -0.7979 -0.3179
  462MOL0     C62277   6.180   1.735   8.559 -0.5203 -0.6225 -0.9891
  462MOL0     C62278   6.168   1.803   8.702 -1.1247  0.1303 -0.0727
  462MOL0     C62279   6.293   1.762   8.787  0.1155  0.6386 -0.3633
  462MOL0    Cl62280   6.252   1.792   8.966 -0.0452  0.2270  0.0144
  462MOL0     C62281   6.284   2.108   7.746  0.3334 -0.3052 -0.9441
  462MOL0     C62282   6.329   2.216   7.666  0.3918  0.9502  0.0766
  462MOL0     O62283   6.728   2.322   7.590  0.4588  0.0822  0.9654
  462MOL0     C62284   6.635   2.606   7.506  0.5665  0.8623  0.5199
  462MOL0     C62285   6.648   2.720   7.427  0.5609 -0.9434  0.4751
  462MOL0     N62286   6.218   3.358   7.017  0.0393  0.3393  0.8188
  462MOL0     N62287   6.166   3.335   6.899 -0.0528 -0.3959  0.5063
  462MOL0     C62288   5.834   2.509   5.985 -0.0655 -0.0748 -0.0918
  462MOL0     C62289   5.818   2.441   5.868  0.2285  1.0844  0.5938
  462MOL0     C62290   5.804   2.132   5.575 -0.1384  0.8722 -0.1965
  462MOL0     C62291   5.801   1.990   5.577  0.3022 -0.1920 -0.2805
  462MOL0     C62292   5.770   1.912   5.466 -0.3310 -0.2528 -0.0447
  462MOL0     C62293   5.744   1.977   5.342 -0.3956  0.4440 -0.2586
  462MOL0     O62294   5.712   1.916   5.227  0.0034  0.9322  0.0026
  462MOL0     C62295   5.687   1.774   5.232 -0.9939 -0.0712 -0.2017
  462MOL0     C62296   5.823   1.694   5.225  0.2625 -0.3145 -0.0995
  462MOL0     C62297   5.828   1.616   5.094  0.2777  0.0900  0.3120
  462MOL0     C62298   5.758   1.470   5.107 -0.1347 -0.7170  0.4353
  462MOL0     C62299   5.613   1.462   5.147  0.2217 -0.4526 -0.1312
  462MOL0     C62300   5.506   1.432   5.186 -0.1751  0.6644  0.4804
  462MOL0     C62301   5.746   2.112   5.332  0.0269  0.4224 -0.5930
  462MOL0     C62302   5.774   2.191   5.447 -0.1949 -0.8860 -0.2239
  462MOL0     H62303   6.119   2.448   5.729 -3.4588 -0.1519 -2.6481
  462MOL0     H62304   6.168   2.579   5.949 -0.2496  2.1725  0.9144
  462MOL0     H62305   6.172   2.535   6.206 -0.6276  0.5480 -0.6263
  462MOL0     H62306   6.162   2.698   6.136  0.8469  1.5300  0.8714
  462MOL0     H62307   5.978   2.719   6.366 -0.8608 -3.5168  2.6357
  462MOL0     H62308   6.071   2.579   6.401 -0.2659 -0.5604 -2.4127
  462MOL0     H62309   6.282   2.691   6.393 -2.4988 -2.5500 -1.7235
  462MOL0     H62310   6.210   2.845   6.333 -0.4182  0.9983  1.0649
  462MOL0     H62311   6.085   2.857   6.546  0.0002  0.4666 -1.5038
  462MOL0     H62312   6.172   2.706   6.583 -2.2848 -0.4582 -0.8099
  462MOL0     H62313   6.386   2.817   6.570 -0.3650 -1.0855  0.0752
  462MOL0     H62314   6.299   2.960   6.507 -2.1208 -0.1129 -1.4699
  462MOL0     H62315   6.273   2.833   6.787  0.2983  0.2144  2.4830
  462MOL0     H62316   6.377   2.976   6.769 -0.4438  0.7113 -0.5264
  462MOL0     H62317   6.069   2.976   6.727 -0.5701 -0.5518  1.8764
  462MOL0     H62318   6.145   3.008   6.881  2.5347  0.3429  0.9364
  462MOL0     H62319   6.094   3.181   6.681 -1.4153  0.6456  2.0611
  462MOL0     H62320   6.260   3.157   6.647 -2.3070  1.1502 -1.1521
  462MOL0     H62321   6.448   3.162   6.885  1.1514  2.0949 -0.5396
  462MOL0     H62322   6.529   3.279   7.123 -0.4434  2.6383 -1.7226
  462MOL0     H62323   6.391   3.356   7.202  1.2110  0.3890  0.1814
  462MOL0     H62324   6.329   3.066   7.172 -0.4770  0.8367  1.1642
  462MOL0     H62325   6.385   3.134   7.324  0.2548  0.7009  1.0483
  462MOL0     H62326   6.613   3.074   7.286  3.9915 -2.4678 -0.7165
  462MOL0     H62327   6.585   3.056   7.112  0.4358  1.5247  1.4233
  462MOL0     H62328   6.455   2.859   7.145 -0.0398 -2.5448  2.0059
  462MOL0     H62329   6.458   2.853   7.310 -1.1869  1.8876 -0.2766
  462MOL0     H62330   6.672   2.590   7.119 -1.0822 -1.6373  0.5709
  462MOL0     H62331   6.677   2.257   7.270 -0.2086  0.2006 -0.0546
  462MOL0     H62332   6.619   2.340   7.130 -2.0987  0.5379  0.5914
  462MOL0     H62333   6.793   2.367   7.188 -0.0741 -0.8557 -0.9007
  462MOL0     H62334   6.638   2.098   7.596  1.3219  1.3544  2.3813
  462MOL0     H62335   6.549   1.903   7.733 -3.5912 -3.9730 -3.2220
  462MOL0     H62336   6.478   1.933   8.001  0.3388  0.6524  1.7535
  462MOL0     H62337   6.328   2.033   8.017 -1.8948 -0.3341  0.2085
  462MOL0     H62338   6.183   1.835   8.077  0.5123 -4.3222 -2.4887
  462MOL0     H62339   6.321   1.740   8.065 -2.6208 -0.4320 -0.5404
  462MOL0     H62340   6.304   1.973   8.269  0.0699 -0.9489  3.2141
  462MOL0     H62341   6.431   1.850   8.256 -0.2240 -0.2143  1.7608
  462MOL0     H62342   6.156   1.757   8.295  0.4689 -2.5239 -0.5111
  462MOL0     H62343   6.310   1.675   8.315 -0.5194 -0.6061 -0.6214
  462MOL0     H62344   6.258   1.923   8.477  1.3399 -0.6454 -0.7561
  462MOL0     H62345   6.375   1.796   8.506  0.9127  2.3746  0.7809
  462MOL0     H62346   6.079   1.726   8.518 -1.3088 -3.9322  1.3071
  462MOL0     H62347   6.228   1.638   8.573  1.4548  0.4584  0.1177
  462MOL0     H62348   6.086   1.764   8.762 -2.9751  3.4003 -0.2565
  462MOL0     H62349   6.154   1.911   8.698 -1.4811  0.1405  1.0200
  462MOL0     H62350   6.392   1.800   8.761  1.3615 -2.2088 -0.0457
  462MOL0     H62351   6.322   1.657   8.783  0.5281  0.7683 -3.6333
  462MOL0     H62352   6.184   2.110   7.788  0.1176 -1.9067 -1.3359
  462MOL0     H62353   6.260   2.300   7.653 -1.4850 -0.1686  2.1880
  462MOL0     H62354   6.622   2.601   7.614  0.3092  0.1762  0.4616
  462MOL0     H62355   6.640   2.821   7.466 -0.7038 -0.1551 -1.6532
  462MOL0     H62356   5.762   2.526   6.064  0.3805 -1.2814  0.5972
  462MOL0     H62357   5.729   2.387   5.836  1.2445  1.2224 -2.8589
  462MOL0     H62358   5.806   1.942   5.674 -2.5393  1.4254  0.7958
  462MOL0     H62359   5.766   1.805   5.486  0.6787 -0.0523  1.3880
  462MOL0     H62360   5.628   1.747   5.320 -0.4365 -0.3397  0.0956
  462MOL0     H62361   5.626   1.742   5.147  0.8841  1.1630 -2.1231
  462MOL0     H62362   5.835   1.633   5.314 -0.3065 -0.4171 -0.0870
  462MOL0     H62363   5.898   1.774   5.217 -1.0637  0.9328 -0.5803
  462MOL0     H62364   5.930   1.608   5.054 -0.4871 -0.4248 -1.6389
  462MOL0     H62365   5.780   1.679   5.019 -2.0755 -0.2823  1.3998
  462MOL0     H62366   5.817   1.415   5.182  0.2253 -1.7232 -0.5536
  462MOL0     H62367   5.764   1.426   5.007  2.9821 -0.9228  0.6134
  462MOL0     H62368   5.413   1.403   5.232 -0.4545 -2.4826 -1.7348
  462MOL0     H62369   5.708   2.145   5.235 -0.2679 -1.5482 -1.1973
  462MOL0     H62370   5.773   2.299   5.430  1.5354 -0.7436  0.3466
  463MOL0     O62371   9.854   3.233   6.478 -0.3131  0.0441 -0.5184
  463MOL0     C62372   9.784   3.266   6.386 -0.0518  0.6293 -0.1026
  463MOL0     O62373   9.721   3.391   6.376  0.2561  0.5409 -0.0189
  463MOL0     C62374   9.724   3.460   6.490  0.0023 -0.0981 -0.3951
  463MOL0     C62375   9.833   3.541   6.506  0.2494 -0.2583  0.1188
  463MOL0     C62376   9.849   3.632   6.611  0.3419 -0.4984  0.4614
  463MOL0     C62377   9.752   3.642   6.710 -0.0750 -0.3521  0.1885
  463MOL0     O62378   9.760   3.716   6.821 -0.1844  1.2198  0.7947
  463MOL0     C62379   9.850   3.823   6.805  0.5852 -0.8459 -0.6186
  463MOL0     C62380   9.815   3.927   6.902  0.8035 -1.0551  0.6476
  463MOL0     C62381   9.820   3.887   7.042  0.2996 -0.2907  0.0806
  463MOL0     C62382   9.761   3.985   7.142  0.0358  0.8882 -0.0663
  463MOL0     C62383   9.726   3.923   7.282 -0.3084 -0.1437  1.0363
  463MOL0     C62384   9.834   3.840   7.356  0.0642  0.4617 -0.1591
  463MOL0     C62385   9.941   3.925   7.424  0.0309  0.4644  0.6572
  463MOL0     C62386  10.040   3.842   7.503 -0.8483 -0.1603  0.3747
  463MOL0     N62387  10.168   3.897   7.514 -0.2053 -0.3938 -0.3774
  463MOL0     C62388  10.254   3.937   7.422  0.5226 -0.0701  0.3257
  463MOL0     C62389  10.357   3.978   7.496  0.4528 -0.1129 -0.8588
  463MOL0     C62390  10.470   4.032   7.422 -0.1645 -0.5922  0.4303
  463MOL0     C62391  10.605   4.053   7.500  0.1567 -0.4784 -0.6112
  463MOL0     C62392  10.657   3.918   7.539 -0.8293  0.6268 -0.0530
  463MOL0     C62393  10.798   3.923   7.600 -0.6521  1.1268  0.3511
  463MOL0     O62394  10.895   3.989   7.515 -0.7704 -0.3509 -0.0507
  463MOL0     C62395  10.983   3.918   7.433 -0.5160  0.3740 -0.6075
  463MOL0     C62396  11.041   3.976   7.320  0.2833  0.5359 -0.6906
  463MOL0     C62397  11.127   3.916   7.236 -0.4154 -0.1132  0.0842
  463MOL0     C62398  11.174   4.007   7.122 -0.8493 -0.2119 -0.9525
  463MOL0     C62399  11.185   3.789   7.263  0.1230 -0.9722 -0.9190
  463MOL0     C62400  11.282   3.722   7.176  0.4470 -0.0287  0.0389
  463MOL0     O62401  11.310   3.588   7.210  0.1944  0.3994 -0.3472
  463MOL0     C62402  11.413   3.518   7.150 -0.6443 -0.6200  0.1903
  463MOL0     C62403  11.416   3.381   7.172  0.0871 -0.2518  0.5683
  463MOL0     C62404  11.520   3.301   7.120 -0.2084  0.2169  0.2462
  463MOL0     C62405  11.607   3.357   7.024  0.2080  0.6015 -0.2074
  463MOL0     O62406  11.705   3.292   6.967 -0.8466  0.4252  0.0333
  463MOL0     C62407  11.689   3.153   6.934 -0.0847 -0.4986  0.9659
  463MOL0     C62408  11.689   3.146   6.787  0.6356  0.2734 -0.5517
  463MOL0     C62409  11.587   3.228   6.710 -0.3382 -0.8811 -0.4354
  463MOL0     C62410  11.449   3.197   6.765  0.1469  0.6430 -1.2346
  463MOL0     C62411  11.335   3.300   6.745 -0.7092 -1.2664  1.1025
  463MOL0     C62412  11.309   3.343   6.600  0.8686 -0.6039  0.0036
  463MOL0     C62413  11.308   3.223   6.503 -0.3415 -0.8590 -0.0181
  463MOL0     C62414  11.290   3.278   6.351  1.3027 -0.6821 -0.8357
  463MOL0    Cl62415  11.419   3.397   6.302 -0.3972 -0.1343  0.7510
  463MOL0     C62416  11.601   3.492   6.994  0.3654  0.4828 -0.0346
  463MOL0     C62417  11.520   3.566   7.062  0.2981  0.1162  0.1144
  463MOL0     O62418  11.338   3.791   7.090  0.9965 -0.0551 -0.2225
  463MOL0     C62419  11.129   3.732   7.377 -0.5507 -0.2997  1.1372
  463MOL0     C62420  11.041   3.790   7.460  1.1245 -0.0344  1.0211
  463MOL0     N62421  10.337   3.965   7.631  0.3063  0.1465 -0.0910
  463MOL0     N62422  10.224   3.924   7.639 -0.4418  0.2429  0.4541
  463MOL0     C62423   9.631   3.560   6.696  0.6183 -1.0058 -0.3033
  463MOL0     C62424   9.611   3.482   6.576 -0.7811 -0.2621 -0.7502
  463MOL0     C62425   9.769   3.181   6.266 -0.5733 -0.2981 -0.0421
  463MOL0     C62426   9.673   3.195   6.169 -0.2812 -0.0994  1.3190
  463MOL0     C62427   9.645   3.096   6.080 -0.0749  0.4561  0.4036
  463MOL0     C62428   9.720   2.984   6.081  0.7379  0.3893  0.6218
  463MOL0     O62429   9.694   2.870   6.005  0.5327 -0.5234  1.1093
  463MOL0     C62430   9.627   2.876   5.879 -0.0927 -0.6830 -0.6722
  463MOL0     C62431   9.499   2.797   5.890 -0.9124 -0.6790 -0.8712
  463MOL0     C62432   9.519   2.653   5.921 -0.6291  0.0307 -0.0998
  463MOL0     C62433   9.633   2.592   5.850 -0.3416  0.6480  0.7732
  463MOL0     C62434   9.660   2.447   5.892  0.0403 -0.8580 -0.4342
  463MOL0     C62435   9.677   2.341   5.944 -0.2642 -0.3313 -0.0564
  463MOL0     C62436   9.828   2.965   6.171  0.0221 -0.3191  0.6029
  463MOL0     C62437   9.852   3.064   6.262 -0.5983  0.4527  0.0726
  463MOL0     H62438   9.915   3.528   6.436 -0.4837 -2.5083 -0.3933
  463MOL0     H62439   9.946   3.682   6.611  0.2947 -0.3651  1.7064
  463MOL0     H62440   9.956   3.807   6.826  0.4110 -0.4763  0.6165
  463MOL0     H62441   9.835   3.865   6.705 -0.1524 -1.0187 -0.5910
  463MOL0     H62442   9.887   4.007   6.882 -0.3657 -0.5707 -2.1521
  463MOL0     H62443   9.718   3.977   6.902  1.5092  0.3769  1.2142
  463MOL0     H62444   9.769   3.791   7.041  1.4769 -0.9209 -1.0413
  463MOL0     H62445   9.925   3.877   7.074  0.5158 -1.3102 -0.8803
  463MOL0     H62446   9.829   4.069   7.161  1.6747 -0.3106 -0.4365
  463MOL0     H62447   9.670   4.016   7.090 -0.2472 -3.0788 -2.3269
  463MOL0     H62448   9.691   4.007   7.344 -1.2373  1.9093 -2.0430
  463MOL0     H62449   9.641   3.855   7.271 -3.5520  3.3893  2.0731
  463MOL0     H62450   9.794   3.774   7.433  3.9172  2.1517  3.7379
  463MOL0     H62451   9.871   3.770   7.280 -0.4770  0.6364 -0.5913
  463MOL0     H62452   9.997   3.976   7.345 -0.3591  0.8105  0.5929
  463MOL0     H62453   9.901   4.003   7.490  0.0464  0.2933  0.8699
  463MOL0     H62454  10.053   3.744   7.454  2.4318  0.6025 -0.5232
  463MOL0     H62455   9.995   3.816   7.599  0.7495 -1.0988  0.8985
  463MOL0     H62456  10.236   3.932   7.315 -1.9465  0.1260  0.6783
  463MOL0     H62457  10.476   3.955   7.345  1.3322  0.0697 -0.1509
  463MOL0     H62458  10.439   4.123   7.370  1.3617  1.8415  3.4356
  463MOL0     H62459  10.594   4.113   7.591  3.0521 -1.9203  0.8308
  463MOL0     H62460  10.681   4.116   7.452  1.9223 -0.3194  2.1708
  463MOL0     H62461  10.659   3.860   7.446 -0.4202  2.8769 -1.5264
  463MOL0     H62462  10.595   3.873   7.617  2.2098  1.2937  2.9581
  463MOL0     H62463  10.827   3.821   7.627 -1.4048  1.4686  2.6487
  463MOL0     H62464  10.805   3.981   7.692  0.5748  0.7174  0.5311
  463MOL0     H62465  11.010   4.079   7.306 -2.8401 -0.3459 -1.0541
  463MOL0     H62466  11.277   4.025   7.154 -1.8146 -0.1303  2.6377
  463MOL0     H62467  11.170   3.966   7.021 -2.8994  1.4494 -1.5998
  463MOL0     H62468  11.117   4.100   7.130  1.6000  1.2370  1.1407
  463MOL0     H62469  11.342   3.342   7.241  1.7068 -0.4473  2.2695
  463MOL0     H62470  11.516   3.194   7.137  1.7966  0.1215  0.2976
  463MOL0     H62471  11.781   3.101   6.961 -1.0302 -1.8383  1.7444
  463MOL0     H62472  11.610   3.098   6.985 -0.8158 -0.9026 -0.5549
  463MOL0     H62473  11.789   3.160   6.744 -0.0036  0.2538 -2.1316
  463MOL0     H62474  11.658   3.044   6.760 -1.3645  0.9936 -1.1362
  463MOL0     H62475  11.610   3.223   6.603  1.2098 -1.9302 -0.0906
  463MOL0     H62476  11.591   3.333   6.741  1.5047 -0.9985 -0.2200
  463MOL0     H62477  11.420   3.099   6.726  2.1399  0.4276 -2.2684
  463MOL0     H62478  11.451   3.176   6.872 -1.7995 -1.2033 -1.4944
  463MOL0     H62479  11.360   3.388   6.805 -1.6425 -0.9152  0.9893
  463MOL0     H62480  11.241   3.259   6.782 -2.1791  1.3640  0.5455
  463MOL0     H62481  11.220   3.400   6.574  0.2261 -0.8370  1.5530
  463MOL0     H62482  11.391   3.407   6.567 -0.2861  0.7857 -0.2312
  463MOL0     H62483  11.224   3.163   6.538 -1.5294 -0.3477 -1.8325
  463MOL0     H62484  11.402   3.168   6.496 -0.2220 -0.6271 -0.2596
  463MOL0     H62485  11.195   3.333   6.351  0.1035 -2.6167  0.4809
  463MOL0     H62486  11.294   3.194   6.280  4.0838  1.9762 -4.1727
  463MOL0     H62487  11.656   3.536   6.912 -2.4077  2.3541 -1.0400
  463MOL0     H62488  11.531   3.671   7.037  1.5073  0.9313  3.5090
  463MOL0     H62489  11.173   3.634   7.393  4.6273  0.7619 -3.2750
  463MOL0     H62490  11.031   3.731   7.550  2.6951 -0.6458  0.8210
  463MOL0     H62491   9.565   3.571   6.782 -0.2464  3.4911 -1.3093
  463MOL0     H62492   9.524   3.424   6.547 -0.7658 -0.1744 -0.9779
  463MOL0     H62493   9.606   3.280   6.173  1.2448  1.2784 -0.4844
  463MOL0     H62494   9.557   3.120   6.021 -0.5934  2.9834  2.0371
  463MOL0     H62495   9.621   2.982   5.854  3.8439  0.2446  1.5000
  463MOL0     H62496   9.687   2.832   5.798 -0.1466  1.0866 -1.7286
  463MOL0     H62497   9.439   2.811   5.799 -0.0271 -0.0655 -1.3814
  463MOL0     H62498   9.430   2.847   5.958  2.2673  3.6884 -0.4035
  463MOL0     H62499   9.434   2.595   5.884 -1.9773  3.3936 -2.7902
  463MOL0     H62500   9.530   2.638   6.029  3.2904  1.1560 -0.1754
  463MOL0     H62501   9.726   2.635   5.887  0.8724 -2.0705  1.0939
  463MOL0     H62502   9.619   2.602   5.742 -0.8680  3.7520  1.0439
  463MOL0     H62503   9.669   2.246   5.992  3.9225 -0.8140  0.0160
  463MOL0     H62504   9.879   2.870   6.162 -1.1332 -0.9082  0.0394
  463MOL0     H62505   9.931   3.046   6.334  0.4443 -0.8085 -1.3376
  464MOL0     O62506  10.487   5.719   7.612 -0.1882 -0.3413  0.4594
  464MOL0     C62507  10.494   5.830   7.672 -0.2186 -1.0487  0.0076
  464MOL0     O62508  10.574   5.876   7.767 -0.3078  0.0379  0.1192
  464MOL0     C62509  10.659   5.780   7.832  0.4656  0.7223  0.8376
  464MOL0     C62510  10.628   5.641   7.847  0.2512 -0.2853 -1.3307
  464MOL0     C62511  10.716   5.563   7.927  0.9107  0.9369  0.9439
  464MOL0     C62512  10.833   5.619   7.982 -0.0677 -0.0592  1.1930
  464MOL0     O62513  10.949   5.553   8.028  0.2477  0.4908 -0.3955
  464MOL0     C62514  10.951   5.413   7.992  1.1460 -0.0544 -0.3059
  464MOL0     C62515  11.070   5.336   8.061  0.1742  0.6190  0.5797
  464MOL0     C62516  11.085   5.197   7.994  1.2667 -0.8549 -0.0952
  464MOL0     C62517  11.218   5.132   8.036  0.2944 -0.9615 -0.7449
  464MOL0     C62518  11.224   5.061   8.167  0.0926  0.7106 -0.1503
  464MOL0     C62519  11.159   4.918   8.151 -0.3510  0.0446  0.0690
  464MOL0     C62520  11.148   4.832   8.280 -0.6050  0.0024 -0.1641
  464MOL0     C62521  11.045   4.886   8.375 -0.0099  0.0768 -0.0460
  464MOL0     N62522  11.059   4.801   8.495 -0.5419  0.0655  0.7885
  464MOL0     C62523  10.955   4.774   8.567  0.5776 -0.1597 -0.5653
  464MOL0     C62524  11.002   4.729   8.681  0.0888 -0.1213 -0.7245
  464MOL0     C62525  10.910   4.692   8.799 -0.2627 -0.5642 -0.4787
  464MOL0     C62526  10.826   4.808   8.851  1.2235  0.1911  0.2854
  464MOL0     C62527  10.910   4.897   8.948  0.1788 -0.3160 -0.5273
  464MOL0     C62528  10.852   5.030   9.001  0.0699  0.4030 -0.2349
  464MOL0     O62529  10.807   5.111   8.883 -0.6852  0.2586  0.4480
  464MOL0     C62530  10.910   5.170   8.817 -0.0424 -0.4261  0.0019
  464MOL0     C62531  10.968   5.278   8.882  0.0721 -0.0832  0.4055
  464MOL0     C62532  11.070   5.351   8.817 -0.4324  0.2650  0.5376
  464MOL0     C62533  11.116   5.488   8.862 -0.4724 -0.6908 -0.0598
  464MOL0     C62534  11.120   5.300   8.692 -0.1237  0.3537 -0.3900
  464MOL0     C62535  11.224   5.360   8.609 -0.7811 -0.2253  0.3705
  464MOL0     O62536  11.255   5.288   8.491 -0.3640 -0.9967 -0.0407
  464MOL0     C62537  11.318   5.364   8.381  0.5442  0.6756  0.6781
  464MOL0     C62538  11.421   5.297   8.312  0.2459 -0.1437  0.2934
  464MOL0     C62539  11.490   5.364   8.205  0.5219 -0.1223  0.3131
  464MOL0     C62540  11.433   5.485   8.156 -0.4035 -0.0780  0.2405
  464MOL0     O62541  11.447   5.507   8.016 -0.5752 -1.0157 -0.2313
  464MOL0     C62542  11.567   5.464   7.945  0.3352 -0.1709 -0.5077
  464MOL0     C62543  11.538   5.489   7.800  0.4201 -0.3689 -0.7713
  464MOL0     C62544  11.538   5.631   7.762  0.1624  0.6512 -0.9975
  464MOL0     C62545  11.685   5.695   7.728 -0.7940 -0.5964 -0.8272
  464MOL0     C62546  11.669   5.847   7.692  0.6202 -0.9610  0.6302
  464MOL0     C62547  11.808   5.896   7.701  0.5346 -0.0137 -0.7887
  464MOL0     C62548  11.844   6.050   7.678  0.3781  0.0232  0.1456
  464MOL0     C62549  11.998   6.088   7.677 -0.2812  0.8161  0.3904
  464MOL0    Cl62550  12.083   6.024   7.824 -0.5534 -0.1354  0.2095
  464MOL0     C62551  11.326   5.547   8.218  0.1234 -0.3219 -1.1789
  464MOL0     C62552  11.264   5.481   8.327  0.5161 -0.5813 -0.2949
  464MOL0     O62553  11.268   5.475   8.627  0.0637 -0.4549  0.7291
  464MOL0     C62554  11.063   5.175   8.643  0.2525 -0.0556 -0.4281
  464MOL0     C62555  10.958   5.121   8.701 -0.2381 -0.4451 -0.4602
  464MOL0     N62556  11.143   4.729   8.681  0.8367 -0.3080 -0.3920
  464MOL0     N62557  11.174   4.770   8.566  0.3694  0.2145 -0.9321
  464MOL0     C62558  10.859   5.757   7.962 -0.4442 -0.6016  0.1439
  464MOL0     C62559  10.767   5.838   7.901 -0.1061 -0.3980 -0.0704
  464MOL0     C62560  10.384   5.919   7.625 -0.0319  0.1667  0.0352
  464MOL0     C62561  10.365   6.041   7.690 -0.5085  0.1883 -0.4527
  464MOL0     C62562  10.271   6.138   7.647 -0.8229 -0.5127 -0.1370
  464MOL0     C62563  10.175   6.097   7.542 -0.2635 -1.5587  0.2018
  464MOL0     O62564  10.082   6.190   7.518 -0.1503  0.8429 -0.4588
  464MOL0     C62565   9.977   6.160   7.430 -0.2264  0.5844 -0.0280
  464MOL0     C62566   9.875   6.064   7.492 -0.5283 -0.9683  0.3688
  464MOL0     C62567   9.740   6.021   7.427 -0.8060 -0.7516 -0.0395
  464MOL0     C62568   9.764   5.945   7.291  0.0099  0.0815 -0.0450
  464MOL0     C62569   9.829   5.811   7.326 -0.2789 -0.1962 -0.1226
  464MOL0     C62570   9.863   5.703   7.366  0.3511 -0.5370  0.0071
  464MOL0     C62571  10.186   5.974   7.490  0.4351  0.1561 -0.4106
  464MOL0     C62572  10.294   5.887   7.529  0.4811  0.4491 -0.0056
  464MOL0     H62573  10.540   5.601   7.797 -1.5062 -0.1182  1.4167
  464MOL0     H62574  10.694   5.458   7.946  0.5160  0.3691 -2.1603
  464MOL0     H62575  10.860   5.358   8.016  0.5787 -0.7755 -3.6020
  464MOL0     H62576  10.966   5.406   7.884  1.2715 -0.1390 -0.2828
  464MOL0     H62577  11.166   5.389   8.050 -0.3873  1.1816 -3.1156
  464MOL0     H62578  11.043   5.333   8.166  0.3117  2.6351  0.7195
  464MOL0     H62579  11.010   5.121   8.018  0.6179 -0.3513 -0.5195
  464MOL0     H62580  11.093   5.198   7.885 -3.3112  1.2921 -0.6662
  464MOL0     H62581  11.235   5.063   7.953 -3.3183 -0.0025 -2.4619
  464MOL0     H62582  11.298   5.206   8.029  0.0344 -0.6049 -0.0656
  464MOL0     H62583  11.327   5.045   8.199 -0.2796  0.9697  1.2118
  464MOL0     H62584  11.163   5.110   8.243 -3.4660 -2.6064 -0.5776
  464MOL0     H62585  11.055   4.915   8.117 -1.2340  1.7132  2.3935
  464MOL0     H62586  11.199   4.854   8.072  0.1729 -1.0478  1.1959
  464MOL0     H62587  11.124   4.725   8.268 -1.0712 -0.3983  3.2391
  464MOL0     H62588  11.251   4.836   8.316  0.4037  1.8814 -2.9379
  464MOL0     H62589  10.947   4.877   8.327 -0.2019 -1.8758  0.6001
  464MOL0     H62590  11.069   4.989   8.404  2.0553 -0.6100  0.8850
  464MOL0     H62591  10.852   4.800   8.543  0.8449  1.9378  0.3390
  464MOL0     H62592  10.844   4.611   8.768  1.1963 -2.0189  0.1001
  464MOL0     H62593  10.970   4.652   8.880 -0.5189 -0.4048 -0.2099
  464MOL0     H62594  10.746   4.775   8.917  0.9086  0.4336  0.0290
  464MOL0     H62595  10.777   4.870   8.774  0.5629 -0.7029 -0.0302
  464MOL0     H62596  10.997   4.931   8.892  0.6217 -1.2493 -0.4227
  464MOL0     H62597  10.937   4.835   9.034 -3.0022  0.5077  1.2264
  464MOL0     H62598  10.928   5.089   9.053 -0.1499 -0.8729  1.6257
  464MOL0     H62599  10.779   5.005   9.078  1.8058 -1.3133  0.9402
  464MOL0     H62600  10.917   5.315   8.971 -4.3361 -0.6691 -1.6014
  464MOL0     H62601  11.224   5.503   8.863 -0.6612  0.8852  1.3218
  464MOL0     H62602  11.080   5.563   8.792  2.7794  0.2518 -0.8580
  464MOL0     H62603  11.079   5.513   8.962 -1.8186  4.6735 -1.6083
  464MOL0     H62604  11.448   5.196   8.340  0.7975 -0.4525 -1.2586
  464MOL0     H62605  11.580   5.314   8.168  0.0286 -0.5276 -0.3607
  464MOL0     H62606  11.659   5.511   7.981 -0.5630  1.2494  0.0450
  464MOL0     H62607  11.572   5.355   7.954 -3.3997 -0.4506 -0.1443
  464MOL0     H62608  11.618   5.443   7.741  1.5486  2.0449 -1.2675
  464MOL0     H62609  11.446   5.435   7.776  0.3953  0.1580 -1.9228
  464MOL0     H62610  11.490   5.694   7.837  0.8835 -1.0255  0.9673
  464MOL0     H62611  11.473   5.637   7.674 -0.7503 -0.8084 -0.4707
  464MOL0     H62612  11.733   5.691   7.826 -0.4102  2.7813 -0.7656
  464MOL0     H62613  11.753   5.641   7.661  1.1684  0.4237  0.2478
  464MOL0     H62614  11.600   5.909   7.749 -4.0420 -0.6685 -4.4365
  464MOL0     H62615  11.635   5.862   7.589  0.0322 -0.4024  0.8989
  464MOL0     H62616  11.830   5.877   7.807 -1.5059  2.0094  0.0892
  464MOL0     H62617  11.864   5.834   7.631 -2.2553 -2.7133 -0.8133
  464MOL0     H62618  11.803   6.117   7.753  0.0901 -0.1811  0.1706
  464MOL0     H62619  11.805   6.076   7.579  0.5348  0.2233  0.1356
  464MOL0     H62620  12.002   6.198   7.678 -0.8093  0.8339  0.8610
  464MOL0     H62621  12.046   6.059   7.583 -0.4110  1.4203  0.1314
  464MOL0     H62622  11.279   5.633   8.172 -0.2637 -0.5727 -1.2654
  464MOL0     H62623  11.195   5.541   8.385  3.5445  0.9522  2.0578
  464MOL0     H62624  11.085   5.125   8.549 -2.8797  0.7496 -1.7072
  464MOL0     H62625  10.921   5.024   8.669 -0.8879 -0.6555  0.8597
  464MOL0     H62626  10.952   5.805   7.991 -0.4110 -0.7915  0.3548
  464MOL0     H62627  10.790   5.944   7.895 -0.1055 -0.3559  0.6362
  464MOL0     H62628  10.419   6.069   7.780  1.2782 -1.6932 -0.8471
  464MOL0     H62629  10.256   6.227   7.707  2.3865 -0.6510  1.0785
  464MOL0     H62630   9.928   6.254   7.403 -3.3999 -0.3417  1.9746
  464MOL0     H62631  10.016   6.107   7.343 -0.7335  1.2455 -0.6653
  464MOL0     H62632   9.837   6.118   7.578  1.5331 -0.4932  1.0297
  464MOL0     H62633   9.933   5.977   7.525  1.7013  0.7498  1.2053
  464MOL0     H62634   9.686   6.113   7.404 -0.5619 -0.6421 -0.1837
  464MOL0     H62635   9.682   5.954   7.490  0.9256 -1.5223  0.8254
  464MOL0     H62636   9.828   6.002   7.223  1.4850 -2.1510 -0.6450
  464MOL0     H62637   9.671   5.920   7.237 -0.9244 -0.4831  1.7502
  464MOL0     H62638   9.887   5.614   7.421  1.0840  0.2830  1.0478
  464MOL0     H62639  10.117   5.920   7.425  2.2212  2.3839 -4.5517
  464MOL0     H62640  10.324   5.802   7.469  3.3788  0.7917  0.8401
  465MOL0     O62641   0.743   1.426   4.370  0.2701 -0.9876 -0.0534
  465MOL0     C62642   0.644   1.362   4.329  1.1805 -0.2285  0.8712
  465MOL0     O62643   0.613   1.227   4.356 -0.0523 -0.1975  0.3822
  465MOL0     C62644   0.690   1.153   4.437 -0.8295  0.2572 -0.0186
  465MOL0     C62645   0.651   1.013   4.437  0.0045  0.1485  0.4566
  465MOL0     C62646   0.709   0.927   4.540 -0.1363 -0.3754  0.8487
  465MOL0     C62647   0.808   0.967   4.628 -0.7354 -0.6235  0.2176
  465MOL0     O62648   0.840   0.881   4.732 -0.1123 -0.0383  0.3184
  465MOL0     C62649   0.876   0.743   4.714  0.4350 -0.1224 -0.1088
  465MOL0     C62650   0.994   0.728   4.619 -0.0473  0.3834 -0.5960
  465MOL0     C62651   1.131   0.746   4.681  0.1972 -0.3234  0.4529
  465MOL0     C62652   1.162   0.655   4.795  0.4654  0.5884 -0.0739
  465MOL0     C62653   1.317   0.644   4.823 -0.5454 -0.6487 -0.5021
  465MOL0     C62654   1.354   0.787   4.880  0.0850  0.0399  1.2423
  465MOL0     C62655   1.506   0.783   4.929 -0.2732 -0.8681 -0.1451
  465MOL0     C62656   1.507   0.705   5.060 -0.2868 -0.5073  0.7257
  465MOL0     N62657   1.648   0.655   5.062 -0.1827  0.1346  0.7258
  465MOL0     C62658   1.695   0.554   4.985  0.0009 -0.6750  1.0226
  465MOL0     C62659   1.819   0.525   5.023 -1.0675  1.0223  0.5255
  465MOL0     C62660   1.914   0.423   4.960  1.0322  0.0620  1.0682
  465MOL0     C62661   1.988   0.355   5.071 -0.2187 -0.2315 -1.6828
  465MOL0     C62662   2.135   0.316   5.031  0.1500 -0.0491 -0.1775
  465MOL0     C62663   2.159   0.232   4.909 -0.2335  0.6042 -0.5979
  465MOL0     O62664   2.182   0.094   4.941  0.1953 -0.1190  0.2704
  465MOL0     C62665   2.094  -0.006   4.917 -0.2504 -1.2719  0.0472
  465MOL0     C62666   1.970   0.023   4.853 -0.6152  0.0199 -0.5459
  465MOL0     C62667   1.897  -0.090   4.812  0.0408  0.4560  0.0224
  465MOL0     C62668   1.771  -0.054   4.736 -0.4384 -0.6019  0.4068
  465MOL0     C62669   1.943  -0.225   4.830 -0.4770  0.3222 -0.7798
  465MOL0     C62670   1.870  -0.344   4.771  0.4949  0.4848  0.4459
  465MOL0     O62671   1.949  -0.454   4.759 -0.4580 -0.0549 -0.1485
  465MOL0     C62672   1.902  -0.570   4.697 -0.3779  0.7802 -0.7237
  465MOL0     C62673   1.829  -0.567   4.584  0.3018 -0.0081 -0.9043
  465MOL0     C62674   1.786  -0.684   4.524  0.0322 -0.8184 -0.0791
  465MOL0     C62675   1.823  -0.803   4.573 -0.6392  0.2369  0.4053
  465MOL0     O62676   1.792  -0.917   4.508 -0.0385  0.4236 -0.1916
  465MOL0     C62677   1.704  -1.002   4.585 -0.5499 -1.0811  0.1242
  465MOL0     C62678   1.655  -1.115   4.495 -0.8985 -0.5411  0.8033
  465MOL0     C62679   1.585  -1.216   4.580  0.9112  0.1322  0.0679
  465MOL0     C62680   1.692  -1.317   4.647  0.0573 -0.9499  0.6930
  465MOL0     C62681   1.633  -1.415   4.742  0.9973 -0.2953  0.1919
  465MOL0     C62682   1.568  -1.538   4.665  0.1565 -0.8024 -1.0238
  465MOL0     C62683   1.555  -1.659   4.754 -0.6228 -0.0179  0.3769
  465MOL0     C62684   1.539  -1.782   4.656 -0.8062  0.3962 -1.0798
  465MOL0    Cl62685   1.696  -1.827   4.585  0.4446  0.2774  0.2838
  465MOL0     C62686   1.901  -0.811   4.689 -0.7734 -0.0063 -0.7636
  465MOL0     C62687   1.949  -0.692   4.747 -0.1089 -0.6753 -1.0172
  465MOL0     O62688   1.748  -0.340   4.752  0.0476  0.4549 -0.7246
  465MOL0     C62689   2.058  -0.249   4.905  0.2065 -0.9019 -0.0793
  465MOL0     C62690   2.129  -0.139   4.951 -0.5566  0.9012 -0.0560
  465MOL0     N62691   1.855   0.632   5.108  0.2674  0.2953  0.4237
  465MOL0     N62692   1.748   0.697   5.145 -0.9612  0.6865 -0.2074
  465MOL0     C62693   0.855   1.095   4.614  0.8542 -0.3245 -0.1365
  465MOL0     C62694   0.797   1.187   4.529 -0.2490 -0.8790  0.0673
  465MOL0     C62695   0.538   1.425   4.252 -0.6505 -0.0680 -0.0548
  465MOL0     C62696   0.491   1.554   4.283 -0.0029 -0.3021 -0.1479
  465MOL0     C62697   0.386   1.612   4.206  0.1932 -0.4391  0.4720
  465MOL0     C62698   0.332   1.558   4.095  0.9236 -0.0495  0.0022
  465MOL0     O62699   0.227   1.611   4.015  0.3943  0.0883 -0.1843
  465MOL0     C62700   0.184   1.750   4.035  0.5370  0.0566 -0.1074
  465MOL0     C62701   0.040   1.772   3.993 -0.1405 -0.4544 -0.3490
  465MOL0     C62702  -0.052   1.659   4.044  0.2342 -0.0426  0.5131
  465MOL0     C62703  -0.068   1.645   4.197 -0.6418  0.7194  1.0436
  465MOL0     C62704  -0.128   1.751   4.277 -0.3925 -0.6464 -0.5894
  465MOL0     C62705  -0.164   1.843   4.346 -0.2755 -0.1984 -0.0683
  465MOL0     C62706   0.381   1.428   4.062  1.1896 -0.1447 -0.7854
  465MOL0     C62707   0.482   1.362   4.146  0.3992  0.1763 -0.0999
  465MOL0     H62708   0.568   0.981   4.374  0.3886 -0.0573  0.0474
  465MOL0     H62709   0.663   0.830   4.553 -5.6310  1.9875  1.4906
  465MOL0     H62710   0.916   0.695   4.804  0.9636  2.1362  0.9324
  465MOL0     H62711   0.789   0.687   4.678 -0.3434  0.6309  0.5535
  465MOL0     H62712   1.007   0.627   4.577 -0.9749  0.6913 -1.6659
  465MOL0     H62713   0.968   0.784   4.529  0.1268 -0.2693 -1.0572
  465MOL0     H62714   1.207   0.718   4.607 -0.7317 -0.7492 -0.3595
  465MOL0     H62715   1.131   0.849   4.717  0.5431  0.0967 -0.6844
  465MOL0     H62716   1.105   0.689   4.882  1.6944  0.8852  0.6387
  465MOL0     H62717   1.123   0.557   4.766 -2.0661  1.7746 -1.0634
  465MOL0     H62718   1.335   0.556   4.886  1.5284 -2.6950 -3.7064
  465MOL0     H62719   1.375   0.633   4.731  1.1608  2.2095  0.1140
  465MOL0     H62720   1.352   0.863   4.802 -3.4653 -0.1558  1.0076
  465MOL0     H62721   1.294   0.824   4.964  3.0347 -1.3909  4.2270
  465MOL0     H62722   1.583   0.767   4.852  1.0692  3.9130 -0.1529
  465MOL0     H62723   1.536   0.886   4.953  0.4090 -1.0988  0.0088
  465MOL0     H62724   1.434   0.624   5.060 -0.2274 -0.5875 -0.9577
  465MOL0     H62725   1.480   0.769   5.144 -3.5599  0.4871 -0.9201
  465MOL0     H62726   1.642   0.496   4.909  2.3691 -0.9760 -0.5222
  465MOL0     H62727   1.877   0.344   4.895  2.1071 -1.2067  1.9492
  465MOL0     H62728   1.991   0.468   4.896  1.5958 -2.1871  0.0515
  465MOL0     H62729   1.933   0.263   5.093 -1.1008  1.2396  3.8421
  465MOL0     H62730   1.979   0.420   5.159 -1.7875 -2.6184  0.0346
  465MOL0     H62731   2.174   0.258   5.115 -1.6349 -0.0783  0.6776
  465MOL0     H62732   2.187   0.412   5.037 -0.9132  0.5791 -0.7411
  465MOL0     H62733   2.255   0.245   4.858 -1.1230 -0.6899 -2.7318
  465MOL0     H62734   2.095   0.248   4.822 -0.2346 -2.9964 -1.4214
  465MOL0     H62735   1.930   0.122   4.831 -2.2262 -0.6165 -0.6116
  465MOL0     H62736   1.765  -0.099   4.637 -2.8988  1.1423 -0.3310
  465MOL0     H62737   1.687  -0.103   4.787  1.4644 -4.9744 -0.2089
  465MOL0     H62738   1.754   0.049   4.702 -1.6136 -0.6024  0.9292
  465MOL0     H62739   1.793  -0.474   4.542  1.2858  3.3672  4.6178
  465MOL0     H62740   1.734  -0.692   4.429  1.1658 -1.8502 -0.6505
  465MOL0     H62741   1.758  -1.026   4.677 -0.4985  0.5417  0.5448
  465MOL0     H62742   1.622  -0.938   4.618 -2.4308 -1.2036 -3.6973
  465MOL0     H62743   1.581  -1.068   4.429 -1.0088  0.0112  1.3093
  465MOL0     H62744   1.733  -1.158   4.432 -0.5185 -0.0825  0.9640
  465MOL0     H62745   1.526  -1.276   4.510  1.2967 -0.6226  0.3713
  465MOL0     H62746   1.518  -1.189   4.662  0.9385 -4.3810  1.9127
  465MOL0     H62747   1.746  -1.381   4.577 -0.0867 -1.9821  1.5067
  465MOL0     H62748   1.764  -1.250   4.695 -3.7171  4.8040 -0.6262
  465MOL0     H62749   1.559  -1.367   4.807 -1.5069 -1.1240 -1.8602
  465MOL0     H62750   1.719  -1.456   4.796  0.6674 -2.7910 -1.0194
  465MOL0     H62751   1.464  -1.514   4.641  0.5679  0.9438 -1.1749
  465MOL0     H62752   1.625  -1.558   4.574  0.9939 -2.7606 -0.1456
  465MOL0     H62753   1.470  -1.647   4.822 -0.1166  0.3035  0.9553
  465MOL0     H62754   1.652  -1.672   4.803  1.2757  2.7941 -2.2716
  465MOL0     H62755   1.461  -1.757   4.584 -1.8779 -1.8194 -0.7727
  465MOL0     H62756   1.489  -1.858   4.717 -3.3046  3.2873  0.7881
  465MOL0     H62757   1.947  -0.905   4.717 -0.9941 -0.5147 -2.0116
  465MOL0     H62758   2.023  -0.684   4.826 -0.6705 -0.6994 -0.4829
  465MOL0     H62759   2.089  -0.352   4.915 -2.1006 -1.4207  4.5591
  465MOL0     H62760   2.226  -0.160   4.995 -1.4367 -0.9083  1.1446
  465MOL0     H62761   0.936   1.121   4.681 -1.1621 -3.4756  4.0149
  465MOL0     H62762   0.847   1.283   4.528  1.4476 -1.6967  1.2529
  465MOL0     H62763   0.538   1.616   4.358 -1.4848 -0.0742  0.6323
  465MOL0     H62764   0.353   1.710   4.241  0.9519 -0.6910  1.9470
  465MOL0     H62765   0.181   1.774   4.142  1.3593 -2.5808  0.5750
  465MOL0     H62766   0.236   1.825   3.975 -3.4753 -0.8288 -5.4799
  465MOL0     H62767   0.029   1.776   3.884  0.7463 -2.2134 -0.5465
  465MOL0     H62768  -0.000   1.861   4.042  1.0942 -1.8755  3.6908
  465MOL0     H62769  -0.025   1.564   3.997  0.7578  1.1557 -1.7561
  465MOL0     H62770  -0.154   1.680   4.009  1.5447  1.9566 -2.4767
  465MOL0     H62771   0.031   1.630   4.240 -1.2821 -1.9970  1.7607
  465MOL0     H62772  -0.121   1.550   4.215 -3.0776  1.6228 -0.7146
  465MOL0     H62773  -0.220   1.909   4.411 -0.3838 -1.1084  0.7870
  465MOL0     H62774   0.338   1.374   3.978 -0.8741 -0.1624  0.2305
  465MOL0     H62775   0.522   1.265   4.117  5.2724  1.5221  1.1585
  466MOL0     O62776   2.948   3.570   7.554  0.4014  0.0571 -0.7397
  466MOL0     C62777   3.030   3.480   7.521  0.2472  1.0249 -0.2030
  466MOL0     O62778   3.047   3.363   7.588  0.2288 -0.5851 -0.8142
  466MOL0     C62779   3.018   3.335   7.720  0.8231 -1.3351  0.1269
  466MOL0     C62780   3.039   3.207   7.767 -0.0350 -0.8212  0.7492
  466MOL0     C62781   3.016   3.171   7.899  0.6869  0.0841 -0.5979
  466MOL0     C62782   2.974   3.268   7.993  0.4082 -0.0152  0.4367
  466MOL0     O62783   2.952   3.233   8.126 -0.1396  0.7454  1.1426
  466MOL0     C62784   2.905   3.104   8.173 -0.6680 -0.5541 -0.3097
  466MOL0     C62785   2.767   3.104   8.111 -0.1731 -0.7475 -0.6422
  466MOL0     C62786   2.655   3.036   8.194  0.1630  0.3466  0.5292
  466MOL0     C62787   2.681   2.895   8.248 -0.3963  0.7818  0.6862
  466MOL0     C62788   2.564   2.812   8.309 -0.8048  0.0046  0.0949
  466MOL0     C62789   2.505   2.858   8.438 -0.9239  0.2953 -0.6602
  466MOL0     C62790   2.402   2.766   8.496 -0.4253 -0.2320 -0.7028
  466MOL0     C62791   2.345   2.831   8.620 -0.3234 -0.7604 -1.1932
  466MOL0     N62792   2.258   2.743   8.692 -0.0142 -0.0233 -0.0541
  466MOL0     C62793   2.124   2.750   8.684 -0.5147  0.1781 -1.2202
  466MOL0     C62794   2.077   2.668   8.788  1.0146 -0.6689  0.3568
  466MOL0     C62795   1.923   2.657   8.815 -0.4014  0.2688 -0.0031
  466MOL0     C62796   1.836   2.773   8.785 -0.1187 -0.3444  0.1739
  466MOL0     C62797   1.683   2.762   8.831  0.1110  0.0983 -0.2714
  466MOL0     C62798   1.634   2.902   8.879  0.4155  0.0835  1.4363
  466MOL0     O62799   1.492   2.886   8.916 -0.6286 -0.1369  0.4860
  466MOL0     C62800   1.453   2.849   9.036  0.0851  0.1844 -0.3143
  466MOL0     C62801   1.322   2.897   9.066 -0.1945  0.8300 -0.5899
  466MOL0     C62802   1.265   2.865   9.187 -0.2993 -0.0736  0.6548
  466MOL0     C62803   1.126   2.911   9.205 -0.7052 -0.1738 -0.4071
  466MOL0     C62804   1.334   2.772   9.278 -0.1854 -0.1512  0.3403
  466MOL0     C62805   1.275   2.724   9.410  0.0757  0.0574  0.9642
  466MOL0     O62806   1.347   2.614   9.454  0.1482  0.7247  0.4189
  466MOL0     C62807   1.330   2.596   9.591  0.4226  0.0158  0.5511
  466MOL0     C62808   1.425   2.648   9.673 -0.9207  0.2656 -0.5571
  466MOL0     C62809   1.414   2.621   9.810 -0.0110  0.0033  0.5820
  466MOL0     C62810   1.305   2.548   9.868  0.3963  0.6008 -0.5103
  466MOL0     O62811   1.309   2.556  10.004  0.3226 -0.3919 -0.1196
  466MOL0     C62812   1.185   2.522  10.071 -0.4514 -1.0494 -0.0582
  466MOL0     C62813   1.199   2.556  10.222  1.0984  0.1103 -0.8608
  466MOL0     C62814   1.268   2.455  10.307 -0.0267 -0.4744 -0.8225
  466MOL0     C62815   1.287   2.500  10.452  0.2585 -0.0735  0.1568
  466MOL0     C62816   1.156   2.516  10.533 -0.0876  0.0426  0.0134
  466MOL0     C62817   1.174   2.540  10.692 -0.2143  0.3358 -0.1649
  466MOL0     C62818   1.225   2.422  10.759 -0.4565  0.3434 -1.0289
  466MOL0     C62819   1.289   2.467  10.887 -0.3779  0.3962 -0.1552
  466MOL0    Cl62820   1.427   2.577  10.851  0.3819 -0.2490 -0.8089
  466MOL0     C62821   1.211   2.495   9.770  0.0086 -0.0557  0.4836
  466MOL0     C62822   1.227   2.523   9.635  0.3140  0.6613  0.2185
  466MOL0     O62823   1.168   2.763   9.454 -0.3629 -0.8423 -1.2509
  466MOL0     C62824   1.470   2.741   9.243  0.6632  0.0441  0.7448
  466MOL0     C62825   1.528   2.786   9.130  0.0082  0.5745 -0.5691
  466MOL0     N62826   2.188   2.611   8.853  0.4319  0.2987  1.2842
  466MOL0     N62827   2.294   2.655   8.791 -0.3856 -0.3415  0.5303
  466MOL0     C62828   2.950   3.401   7.944 -0.8886  0.3553  0.9370
  466MOL0     C62829   2.984   3.438   7.814  1.3256 -0.0826 -0.0627
  466MOL0     C62830   3.093   3.486   7.390  0.2754  1.1898  0.1269
  466MOL0     C62831   3.045   3.576   7.290 -0.0822  0.0520  0.6121
  466MOL0     C62832   3.104   3.593   7.163  0.6153 -0.4364 -0.3028
  466MOL0     C62833   3.216   3.523   7.133 -0.2797 -0.1552 -0.6657
  466MOL0     O62834   3.291   3.540   7.021  0.2777 -0.5478  1.1951
  466MOL0     C62835   3.300   3.666   6.955  0.3511  1.3065  0.3823
  466MOL0     C62836   3.357   3.774   7.040 -0.1555 -0.5383  0.3650
  466MOL0     C62837   3.514   3.806   7.045 -0.7602  0.6011  0.1515
  466MOL0     C62838   3.584   3.686   7.102  0.1536 -0.6075  0.3082
  466MOL0     C62839   3.729   3.692   7.102 -0.9402  0.5335  0.3909
  466MOL0     C62840   3.845   3.714   7.100  0.2841 -0.7188  0.2698
  466MOL0     C62841   3.266   3.427   7.228 -0.1012  0.4382 -0.4364
  466MOL0     C62842   3.199   3.404   7.350  0.1787  0.8321 -0.4909
  466MOL0     H62843   3.077   3.145   7.687  1.5233  1.9746 -0.8253
  466MOL0     H62844   3.037   3.073   7.942 -1.5933 -0.8669 -1.5069
  466MOL0     H62845   2.969   3.017   8.159  2.6594  1.8405 -1.4074
  466MOL0     H62846   2.878   3.107   8.279  1.1407  2.5425  0.1816
  466MOL0     H62847   2.726   3.202   8.087 -1.1365 -1.1458 -0.6931
  466MOL0     H62848   2.777   3.058   8.012  0.1200  1.2237 -1.5848
  466MOL0     H62849   2.632   3.097   8.281  1.4294 -0.3356  1.3753
  466MOL0     H62850   2.566   3.033   8.130 -0.8193  2.7592  1.6865
  466MOL0     H62851   2.723   2.841   8.163  1.3496 -0.3619  2.1886
  466MOL0     H62852   2.747   2.889   8.335  0.1285 -1.5344  0.2012
  466MOL0     H62853   2.486   2.791   8.235 -0.7894  0.0821  0.0558
  466MOL0     H62854   2.609   2.716   8.335 -4.0594 -1.2738  1.5477
  466MOL0     H62855   2.586   2.875   8.510 -1.0189 -2.9507  0.3618
  466MOL0     H62856   2.466   2.960   8.433  2.7120  1.8837  0.1743
  466MOL0     H62857   2.309   2.755   8.438 -3.1131  2.4698  2.6634
  466MOL0     H62858   2.444   2.669   8.526  0.0651  1.0216  3.1414
  466MOL0     H62859   2.291   2.925   8.605 -1.7847 -1.5544 -1.0333
  466MOL0     H62860   2.428   2.856   8.688 -1.0498 -1.3765 -0.0562
  466MOL0     H62861   2.058   2.793   8.608 -2.0688 -0.7070 -0.4142
  466MOL0     H62862   1.888   2.568   8.763  1.8121 -0.1933 -0.7826
  466MOL0     H62863   1.909   2.639   8.923 -0.9765 -0.4077 -0.1807
  466MOL0     H62864   1.844   2.781   8.677  2.2723 -0.7492  0.2835
  466MOL0     H62865   1.888   2.858   8.830  3.1552 -1.4640 -1.2105
  466MOL0     H62866   1.658   2.691   8.910 -0.2469 -0.5288 -0.9410
  466MOL0     H62867   1.618   2.736   8.747  0.7682  1.5814 -1.2877
  466MOL0     H62868   1.643   2.970   8.793  1.6137 -0.9708  0.6775
  466MOL0     H62869   1.704   2.930   8.958  3.3742 -1.8338 -0.2870
  466MOL0     H62870   1.274   2.948   8.983  1.9696 -0.4844 -2.7804
  466MOL0     H62871   1.088   2.991   9.140 -0.1999 -1.5256 -2.4449
  466MOL0     H62872   1.054   2.829   9.207 -2.7365  1.2783 -3.7412
  466MOL0     H62873   1.125   2.957   9.304  0.4096 -0.4311 -0.2687
  466MOL0     H62874   1.504   2.709   9.631 -0.3547  0.3620  0.6077
  466MOL0     H62875   1.481   2.662   9.885  1.0811  0.6749 -0.7147
  466MOL0     H62876   1.106   2.576  10.018 -1.3435 -2.7451 -0.5464
  466MOL0     H62877   1.165   2.415  10.060  2.2903 -1.4860 -1.5366
  466MOL0     H62878   1.250   2.652  10.231  0.6340  0.2229  0.9597
  466MOL0     H62879   1.100   2.570  10.266  1.4112  0.8683 -0.3769
  466MOL0     H62880   1.371   2.437  10.274  0.8185  0.7744  0.9458
  466MOL0     H62881   1.210   2.363  10.303 -0.9458  0.0486  0.0693
  466MOL0     H62882   1.369   2.438  10.489  0.6480  0.5324  0.3037
  466MOL0     H62883   1.326   2.602  10.451 -0.2783  0.1583 -1.8903
  466MOL0     H62884   1.087   2.433  10.512 -0.2418 -0.0517  0.8392
  466MOL0     H62885   1.101   2.603  10.497 -0.9077  0.4402  2.0694
  466MOL0     H62886   1.232   2.633  10.693  1.1671 -0.4972  0.2644
  466MOL0     H62887   1.088   2.578  10.747 -0.7440 -0.2726 -0.5656
  466MOL0     H62888   1.294   2.369  10.693  0.9976  0.4805  0.3146
  466MOL0     H62889   1.141   2.357  10.787 -1.5740  2.7625  1.7797
  466MOL0     H62890   1.329   2.380  10.940  2.4783  0.3570 -2.1404
  466MOL0     H62891   1.227   2.525  10.957  1.0358  1.7964 -0.0100
  466MOL0     H62892   1.143   2.418   9.805  1.8214 -2.6028 -1.2495
  466MOL0     H62893   1.149   2.487   9.568  3.9833 -0.9237 -3.6252
  466MOL0     H62894   1.524   2.664   9.296 -0.3058 -2.5870 -1.8226
  466MOL0     H62895   1.628   2.752   9.106  0.6331  0.8256  1.4897
  466MOL0     H62896   2.912   3.478   8.010 -0.2602 -0.2317  2.0129
  466MOL0     H62897   2.973   3.541   7.779 -2.7659 -0.8689 -1.7728
  466MOL0     H62898   2.950   3.622   7.317  0.9812  1.5242  2.0847
  466MOL0     H62899   3.066   3.666   7.092 -2.6670 -1.0134  0.6482
  466MOL0     H62900   3.360   3.655   6.864  1.2278  1.4087  0.9342
  466MOL0     H62901   3.201   3.694   6.920  0.9753  1.7010 -1.1717
  466MOL0     H62902   3.315   3.761   7.140  0.2609 -3.3731  0.2540
  466MOL0     H62903   3.311   3.865   7.001 -0.4184 -0.6875  0.3228
  466MOL0     H62904   3.526   3.895   7.108 -2.5707  0.7016  0.4131
  466MOL0     H62905   3.537   3.831   6.941 -1.5367  2.3858  0.3671
  466MOL0     H62906   3.558   3.607   7.030 -0.9876 -0.0470  0.0960
  466MOL0     H62907   3.549   3.657   7.201  1.7219  1.2629  1.4954
  466MOL0     H62908   3.951   3.713   7.114 -0.0393  0.5540  4.1337
  466MOL0     H62909   3.349   3.366   7.192 -0.8883  1.0684 -3.6895
  466MOL0     H62910   3.249   3.333   7.415  2.3660 -1.3904 -4.2551
  467MOL0     O62911   7.412  10.351   5.188  0.5168 -0.3562  0.6610
  467MOL0     C62912   7.331  10.358   5.097  0.0445  0.4733 -0.6207
  467MOL0     O62913   7.358  10.337   4.965 -0.1180  0.3301  0.2641
  467MOL0     C62914   7.492  10.313   4.944  0.1407 -0.3708 -0.1943
  467MOL0     C62915   7.533  10.185   4.937 -0.7540  0.8888 -0.3410
  467MOL0     C62916   7.666  10.157   4.914  0.6011 -0.4572 -0.3749
  467MOL0     C62917   7.765  10.250   4.908  0.8738 -0.8511 -0.3872
  467MOL0     O62918   7.896  10.232   4.893 -0.4559 -0.6937 -0.4961
  467MOL0     C62919   7.961  10.116   4.851  0.3431 -0.3501 -0.3777
  467MOL0     C62920   7.987  10.034   4.982  0.4956  0.8596 -0.5198
  467MOL0     C62921   8.106  10.109   5.056  0.2664 -0.1897  0.1549
  467MOL0     C62922   8.196  10.008   5.134  0.0042 -0.4324  0.4098
  467MOL0     C62923   8.311  10.092   5.192 -0.4099  0.1099 -1.0202
  467MOL0     C62924   8.396  10.165   5.081  0.1933  0.2101 -0.3848
  467MOL0     C62925   8.548  10.153   5.095  0.3535 -0.0612  0.3531
  467MOL0     C62926   8.602  10.264   5.178  0.3899 -0.8139  0.3238
  467MOL0     N62927   8.599  10.232   5.320 -0.3679 -0.0586 -0.5892
  467MOL0     C62928   8.494  10.275   5.404 -0.2098 -0.3563 -0.1914
  467MOL0     C62929   8.532  10.204   5.512 -1.5768 -0.4211 -0.1549
  467MOL0     C62930   8.457  10.212   5.639  0.3447  1.2089  0.7006
  467MOL0     C62931   8.372  10.082   5.653 -0.0562  0.4508  0.5157
  467MOL0     C62932   8.279  10.076   5.777 -0.6964 -0.5536  0.3594
  467MOL0     C62933   8.362  10.068   5.901  0.7229 -0.5995 -0.5658
  467MOL0     O62934   8.452   9.953   5.917 -0.2934  0.1294 -0.3425
  467MOL0     C62935   8.424   9.830   5.871 -0.6816  0.9327 -0.0044
  467MOL0     C62936   8.300   9.762   5.860 -0.7518  0.1231 -0.8319
  467MOL0     C62937   8.286   9.623   5.829  0.2250  0.4979 -0.3708
  467MOL0     C62938   8.144   9.550   5.845 -0.4558  0.0121  1.1065
  467MOL0     C62939   8.397   9.551   5.776 -0.1740 -0.6150 -0.9840
  467MOL0     C62940   8.395   9.424   5.705  0.3365  1.2327 -0.8827
  467MOL0     O62941   8.275   9.383   5.664  0.2577  0.2249 -0.1792
  467MOL0     C62942   8.251   9.279   5.577 -0.5215  0.7310 -0.1856
  467MOL0     C62943   8.118   9.231   5.585 -0.1033 -0.0093  0.2045
  467MOL0     C62944   8.074   9.128   5.500  0.0010 -0.8910 -0.4761
  467MOL0     C62945   8.162   9.062   5.414  0.2913  0.3400  0.9188
  467MOL0     O62946   8.115   8.971   5.319 -0.3236  0.7635 -0.3092
  467MOL0     C62947   7.977   8.971   5.277 -0.0661  0.0785 -0.0601
  467MOL0     C62948   7.946   8.940   5.131  0.2682 -0.2408  0.1208
  467MOL0     C62949   8.008   8.804   5.099 -0.1927 -0.5986  0.1936
  467MOL0     C62950   7.997   8.774   4.944 -0.0727  0.1835 -0.0774
  467MOL0     C62951   8.064   8.635   4.912 -0.0788 -0.4922 -1.1931
  467MOL0     C62952   8.087   8.629   4.765  0.2110  0.0978  0.2672
  467MOL0     C62953   8.222   8.693   4.721  0.4078  0.1104 -0.7927
  467MOL0     C62954   8.341   8.593   4.751 -0.5693 -1.0351  1.0659
  467MOL0    Cl62955   8.353   8.424   4.664 -0.3946 -0.4393 -0.0322
  467MOL0     C62956   8.286   9.111   5.411 -0.1661  0.1446  0.1614
  467MOL0     C62957   8.337   9.209   5.492  0.3263 -0.0138  0.0029
  467MOL0     O62958   8.499   9.361   5.686 -0.2402 -0.5928  0.3477
  467MOL0     C62959   8.524   9.625   5.775  0.0750  0.1569  1.3051
  467MOL0     C62960   8.535   9.758   5.819 -0.1189 -0.0696 -1.7080
  467MOL0     N62961   8.648  10.124   5.495  0.0523  0.1437 -0.2605
  467MOL0     N62962   8.677  10.138   5.374 -0.6571  0.2963 -0.9832
  467MOL0     C62963   7.722  10.384   4.929  0.2777 -0.4437 -0.5051
  467MOL0     C62964   7.585  10.414   4.942  1.0063  0.1989  0.3069
  467MOL0     C62965   7.189  10.368   5.145 -0.2868 -0.6302 -0.0834
  467MOL0     C62966   7.077  10.389   5.057 -0.1999  0.1084 -0.2850
  467MOL0     C62967   6.946  10.396   5.109  0.1644  0.7915 -0.2823
  467MOL0     C62968   6.925  10.377   5.249  0.7852  0.0372 -0.0431
  467MOL0     O62969   6.786  10.369   5.288 -0.2179  0.0520  0.2891
  467MOL0     C62970   6.747  10.334   5.421  0.3216 -0.5657 -0.1131
  467MOL0     C62971   6.589  10.343   5.440  0.3279 -0.8081  0.0826
  467MOL0     C62972   6.540  10.484   5.414  0.6720  0.5298 -0.0453
  467MOL0     C62973   6.617  10.600   5.481  0.4090  0.5284  0.2209
  467MOL0     C62974   6.627  10.592   5.626  0.2982  0.5366  0.2548
  467MOL0     C62975   6.658  10.583   5.744 -0.0626 -0.3211  0.2163
  467MOL0     C62976   7.036  10.363   5.330  0.1099  0.6115 -0.5625
  467MOL0     C62977   7.159  10.354   5.278 -0.1576  0.4006 -0.0831
  467MOL0     H62978   7.458  10.107   4.946 -1.4603  1.8140  4.4567
  467MOL0     H62979   7.691  10.051   4.911  0.0880 -0.5697 -2.6173
  467MOL0     H62980   7.906  10.068   4.769 -0.8510 -0.0275  0.1974
  467MOL0     H62981   8.054  10.143   4.802 -0.7034 -0.8267 -2.8068
  467MOL0     H62982   7.901  10.013   5.047  1.4987 -1.5943  0.1374
  467MOL0     H62983   8.024   9.938   4.945 -1.7635 -0.9215  1.4946
  467MOL0     H62984   8.163  10.168   4.984 -0.2621 -1.7370 -1.6232
  467MOL0     H62985   8.055  10.179   5.123 -3.0447 -0.1713 -2.0985
  467MOL0     H62986   8.149   9.971   5.226 -1.0863  2.1463  0.9685
  467MOL0     H62987   8.239   9.930   5.070  0.9908  1.0754 -0.8492
  467MOL0     H62988   8.271  10.179   5.246  1.6820 -0.2412  1.2855
  467MOL0     H62989   8.379  10.037   5.258 -1.2540  0.4782  0.2013
  467MOL0     H62990   8.388  10.103   4.991  0.2783 -4.5103  2.5418
  467MOL0     H62991   8.361  10.268   5.067 -4.9435 -0.7720  2.5230
  467MOL0     H62992   8.583  10.067   5.153 -3.5381  0.1819  3.5274
  467MOL0     H62993   8.585  10.161   4.992 -1.0539 -1.3256 -0.3001
  467MOL0     H62994   8.545  10.350   5.141 -2.0526 -2.2626  0.5049
  467MOL0     H62995   8.707  10.278   5.151  0.1893  0.0630 -0.0526
  467MOL0     H62996   8.413  10.345   5.386  2.0507  2.8671  1.2096
  467MOL0     H62997   8.526  10.219   5.724  0.7081 -0.0736  0.5280
  467MOL0     H62998   8.394  10.301   5.651  0.6071  1.4673  0.1828
  467MOL0     H62999   8.425   9.988   5.639 -0.9044 -0.0574  0.6213
  467MOL0     H63000   8.301  10.089   5.570  2.2333 -0.4969 -1.6469
  467MOL0     H63001   8.202   9.999   5.770  0.8113 -2.1770  0.9316
  467MOL0     H63002   8.227  10.173   5.775 -1.0382 -0.7400 -1.4801
  467MOL0     H63003   8.287  10.056   5.980  1.7207  3.8678  1.3519
  467MOL0     H63004   8.404  10.163   5.935  0.1704 -0.9341  1.1444
  467MOL0     H63005   8.210   9.814   5.891 -0.1599 -0.4125  2.1017
  467MOL0     H63006   8.174   9.454   5.888  2.8633  1.3121  2.0677
  467MOL0     H63007   8.071   9.606   5.904  0.9541  3.6981 -0.3742
  467MOL0     H63008   8.105   9.540   5.743 -2.3578  0.8796  1.7021
  467MOL0     H63009   8.052   9.288   5.649  1.7338  0.5013  1.7196
  467MOL0     H63010   7.967   9.112   5.510  0.2324 -1.6005  1.0458
  467MOL0     H63011   7.927   8.898   5.341  0.4836  0.9474  1.4265
  467MOL0     H63012   7.925   9.065   5.297 -2.4878 -1.2276  0.1213
  467MOL0     H63013   7.838   8.948   5.123  0.0996  0.7665  2.6307
  467MOL0     H63014   7.997   9.016   5.071  1.8651  0.7059  2.5546
  467MOL0     H63015   7.982   8.720   5.162  3.1010 -1.6245  0.3488
  467MOL0     H63016   8.117   8.809   5.104 -0.2322  0.9582  0.2291
  467MOL0     H63017   7.893   8.760   4.912 -0.3654  0.5887  0.6778
  467MOL0     H63018   8.040   8.851   4.878 -1.3877 -0.0134 -1.2272
  467MOL0     H63019   7.999   8.552   4.943 -3.0731  2.1454  0.0711
  467MOL0     H63020   8.157   8.633   4.971 -2.3716 -1.3064  2.7506
  467MOL0     H63021   8.092   8.521   4.747 -0.7589 -0.0751  0.9193
  467MOL0     H63022   8.007   8.682   4.713 -0.6749  0.7101  2.1560
  467MOL0     H63023   8.235   8.788   4.773  0.7589 -2.0140  3.4336
  467MOL0     H63024   8.215   8.708   4.613 -2.0249  0.4221 -0.6584
  467MOL0     H63025   8.345   8.575   4.859 -0.8727  2.3442  1.7571
  467MOL0     H63026   8.434   8.646   4.730 -1.6138  0.9339  1.2096
  467MOL0     H63027   8.352   9.068   5.337  0.0939  2.6454 -1.1992
  467MOL0     H63028   8.441   9.238   5.479  0.4463 -1.1866 -2.2495
  467MOL0     H63029   8.608   9.575   5.728 -0.7894  2.1194 -2.6817
  467MOL0     H63030   8.628   9.812   5.835 -0.5257  0.2322 -0.1928
  467MOL0     H63031   7.800  10.459   4.938  0.7959 -1.2228  2.3684
  467MOL0     H63032   7.557  10.519   4.948 -3.0354 -0.5954 -1.5846
  467MOL0     H63033   7.086  10.388   4.949  2.3778 -3.4291 -0.2175
  467MOL0     H63034   6.859  10.406   5.045 -0.5416 -0.9155  0.3285
  467MOL0     H63035   6.770  10.232   5.451  1.3581  0.3979  2.6816
  467MOL0     H63036   6.802  10.393   5.495 -1.8362 -0.2846  1.3831
  467MOL0     H63037   6.561  10.310   5.541  0.4934 -0.5739  0.2065
  467MOL0     H63038   6.539  10.265   5.383  0.1710 -1.6512  1.3300
  467MOL0     H63039   6.439  10.495   5.454  1.6864 -1.9665  3.8197
  467MOL0     H63040   6.529  10.496   5.306  0.1007 -1.9360 -0.3066
  467MOL0     H63041   6.556  10.686   5.453  0.0098 -0.0584 -0.7721
  467MOL0     H63042   6.719  10.614   5.442 -0.1836 -1.6015 -2.4185
  467MOL0     H63043   6.684  10.587   5.848  0.1461  1.4769  0.1306
  467MOL0     H63044   7.017  10.343   5.435  0.7006  0.4205 -0.4913
  467MOL0     H63045   7.240  10.357   5.351  0.7608 -0.3985 -1.0339
  468MOL0     O63046   7.454   1.105   2.787 -0.1387 -0.5602  0.6278
  468MOL0     C63047   7.393   1.005   2.820  0.3348  1.3175  1.0409
  468MOL0     O63048   7.291   0.995   2.904 -0.0676 -0.3100  0.2443
  468MOL0     C63049   7.236   1.104   2.953 -0.4918  0.0638 -0.2735
  468MOL0     C63050   7.100   1.131   2.942  0.0415 -0.6477  0.1341
  468MOL0     C63051   7.049   1.248   2.989  0.6867 -0.4460  0.1264
  468MOL0     C63052   7.130   1.357   3.037  0.0179  0.2698 -0.3125
  468MOL0     O63053   7.069   1.481   3.087  0.6061  0.4954  0.0654
  468MOL0     C63054   6.942   1.468   3.148 -0.0628 -0.4037 -0.3237
  468MOL0     C63055   6.947   1.393   3.276  0.4400 -0.2206  1.5396
  468MOL0     C63056   7.050   1.451   3.382 -0.5909  0.1276 -1.4010
  468MOL0     C63057   7.034   1.350   3.491 -0.0207  0.0096  0.7248
  468MOL0     C63058   7.131   1.393   3.599 -0.7506  0.0114 -0.3555
  468MOL0     C63059   7.092   1.334   3.731  1.3137  0.6015 -0.0808
  468MOL0     C63060   7.206   1.306   3.824  0.4890  0.9847 -0.6935
  468MOL0     C63061   7.138   1.299   3.967 -0.4022 -0.2935 -0.0442
  468MOL0     N63062   7.145   1.435   4.030  0.2763  0.1235  0.0160
  468MOL0     C63063   7.255   1.495   4.085 -0.3811  0.3601 -0.1360
  468MOL0     C63064   7.207   1.602   4.144 -0.0642  0.2556  0.5125
  468MOL0     C63065   7.291   1.697   4.220  0.1041  0.0782 -0.4936
  468MOL0     C63066   7.290   1.672   4.362 -0.6202 -0.1050 -0.5335
  468MOL0     C63067   7.412   1.726   4.444 -1.1885  0.5529  0.6352
  468MOL0     C63068   7.366   1.687   4.591  0.1597 -1.0449 -0.1114
  468MOL0     O63069   7.444   1.755   4.693 -0.7478  0.6347  0.1543
  468MOL0     C63070   7.472   1.694   4.811  0.0862 -0.0479  0.0324
  468MOL0     C63071   7.402   1.578   4.855 -0.0611  0.1078 -0.9622
  468MOL0     C63072   7.442   1.526   4.974 -0.0746 -0.3102  0.1720
  468MOL0     C63073   7.355   1.410   5.017  0.5608 -0.2126  0.5178
  468MOL0     C63074   7.550   1.583   5.048  0.3040  1.6964  0.5232
  468MOL0     C63075   7.592   1.521   5.180  0.0761  0.1222 -0.0241
  468MOL0     O63076   7.495   1.485   5.267  0.9530 -0.2153 -0.7920
  468MOL0     C63077   7.531   1.410   5.372  0.5776 -0.2800 -0.6543
  468MOL0     C63078   7.589   1.281   5.346  0.6185  0.4317 -0.0550
  468MOL0     C63079   7.621   1.193   5.452 -0.2912  0.1405  0.0126
  468MOL0     C63080   7.578   1.233   5.583 -1.0207 -1.2748  0.1138
  468MOL0     O63081   7.603   1.165   5.702 -0.2142  0.1499  0.7650
  468MOL0     C63082   7.654   1.030   5.695  0.6302  0.2441  0.4804
  468MOL0     C63083   7.544   0.934   5.653  0.4991 -0.9577  0.1254
  468MOL0     C63084   7.426   0.932   5.742  0.6928  0.7105  0.1203
  468MOL0     C63085   7.305   0.862   5.683 -0.6259 -0.2737 -1.0487
  468MOL0     C63086   7.172   0.868   5.765 -0.2005  0.3568 -0.6053
  468MOL0     C63087   7.150   1.003   5.833 -0.4106  0.9450 -0.3367
  468MOL0     C63088   7.000   1.040   5.832 -0.2345  0.2144 -0.0382
  468MOL0     C63089   6.990   1.181   5.897 -0.7346 -0.1256  0.5618
  468MOL0    Cl63090   7.046   1.191   6.067 -0.1810  0.1464  0.0744
  468MOL0     C63091   7.505   1.353   5.601  0.5019 -0.6951 -0.1612
  468MOL0     C63092   7.490   1.443   5.498 -0.6613  0.4813  0.3843
  468MOL0     O63093   7.715   1.509   5.208  0.4624  0.2733  0.0096
  468MOL0     C63094   7.615   1.699   5.005  0.2966 -0.2341 -1.0370
  468MOL0     C63095   7.571   1.760   4.880 -0.6336  0.0508 -0.5312
  468MOL0     N63096   7.071   1.601   4.155  0.4327  0.2145  0.9483
  468MOL0     N63097   7.038   1.501   4.079  0.5886  0.0571 -0.3614
  468MOL0     C63098   7.266   1.327   3.050 -0.7611 -0.1715  0.0569
  468MOL0     C63099   7.313   1.200   3.017  0.0927  0.3799  0.5190
  468MOL0     C63100   7.437   0.873   2.760 -0.4005 -0.6699 -0.3212
  468MOL0     C63101   7.353   0.760   2.759  0.7326 -0.2687 -0.2101
  468MOL0     C63102   7.389   0.631   2.704 -0.3167  0.1355  0.0648
  468MOL0     C63103   7.520   0.613   2.661 -0.9719  0.6312  0.4299
  468MOL0     O63104   7.570   0.487   2.626  0.5199  0.4439 -0.0840
  468MOL0     C63105   7.493   0.390   2.547 -0.7431  0.4980 -0.1760
  468MOL0     C63106   7.556   0.254   2.572  0.5773  0.5683 -0.1486
  468MOL0     C63107   7.575   0.202   2.722  0.6371 -1.5411  0.0110
  468MOL0     C63108   7.612   0.053   2.745 -1.0698  1.5322  0.9024
  468MOL0     C63109   7.515  -0.028   2.681 -0.4928  0.4608  0.5490
  468MOL0     C63110   7.432  -0.095   2.614 -0.4703 -1.1432  0.7341
  468MOL0     C63111   7.602   0.728   2.665  0.1086 -0.8684 -0.0510
  468MOL0     C63112   7.566   0.853   2.705 -0.8916  0.4755 -1.3161
  468MOL0     H63113   7.027   1.056   2.915 -0.8077 -1.1884  3.4186
  468MOL0     H63114   6.941   1.247   2.984  0.3281 -2.7993  3.9125
  468MOL0     H63115   6.906   1.571   3.158 -0.0017 -0.1762 -2.0381
  468MOL0     H63116   6.863   1.427   3.083 -1.4393 -0.4150  1.2957
  468MOL0     H63117   6.847   1.394   3.319 -0.3180  5.7287  0.4725
  468MOL0     H63118   6.986   1.295   3.248  1.5709  0.7344 -0.4128
  468MOL0     H63119   7.153   1.457   3.346  0.9478 -0.2796  2.4755
  468MOL0     H63120   7.011   1.546   3.420 -0.9199 -0.7690  0.6732
  468MOL0     H63121   6.934   1.369   3.531 -1.0261  0.5153 -1.8331
  468MOL0     H63122   7.051   1.245   3.467  1.6487  0.8346 -2.1692
  468MOL0     H63123   7.228   1.352   3.568 -0.7618 -0.9552  0.7990
  468MOL0     H63124   7.146   1.502   3.600 -1.8253  0.1786  1.1892
  468MOL0     H63125   7.013   1.394   3.779  0.3999 -1.6856  1.4286
  468MOL0     H63126   7.042   1.237   3.737 -0.4240  1.5099  0.9901
  468MOL0     H63127   7.245   1.208   3.795 -0.4563 -0.9973  3.8766
  468MOL0     H63128   7.284   1.383   3.822  1.1748  0.3240  0.0662
  468MOL0     H63129   7.205   1.236   4.027 -0.1967 -0.9077 -0.9078
  468MOL0     H63130   7.037   1.256   3.968 -0.0866 -1.0573 -0.1828
  468MOL0     H63131   7.361   1.473   4.089  0.5733  4.2704  0.0859
  468MOL0     H63132   7.396   1.690   4.189  0.6176 -3.8557  1.5213
  468MOL0     H63133   7.253   1.795   4.191 -2.8047 -1.6807 -3.3912
  468MOL0     H63134   7.267   1.566   4.372 -3.4430  0.6420  3.1093
  468MOL0     H63135   7.201   1.715   4.409 -0.5899 -3.5307  3.1757
  468MOL0     H63136   7.438   1.832   4.440  0.4616  0.1907  1.0813
  468MOL0     H63137   7.501   1.665   4.423 -1.3882 -0.2382  1.9390
  468MOL0     H63138   7.366   1.581   4.615 -0.5839 -0.8884  0.6207
  468MOL0     H63139   7.265   1.729   4.603 -0.8582 -3.5865  0.8251
  468MOL0     H63140   7.310   1.541   4.811 -1.7582  0.7507  1.8143
  468MOL0     H63141   7.286   1.372   4.940 -0.0205 -0.9401  1.3854
  468MOL0     H63142   7.426   1.332   5.047 -3.1973 -4.4617 -0.4897
  468MOL0     H63143   7.300   1.431   5.109  0.7058 -2.3016  1.1266
  468MOL0     H63144   7.626   1.242   5.251 -1.4107 -4.4557  0.8644
  468MOL0     H63145   7.670   1.098   5.434  0.7707  0.6773  0.0047
  468MOL0     H63146   7.732   1.017   5.620  1.8275 -0.8182  1.8767
  468MOL0     H63147   7.681   0.989   5.793 -1.1194 -0.9648  0.5070
  468MOL0     H63148   7.524   0.950   5.547  0.1495 -2.0351  0.0135
  468MOL0     H63149   7.582   0.831   5.655  0.1151 -1.0968  0.2173
  468MOL0     H63150   7.397   1.037   5.744  2.1855  1.1613  2.7634
  468MOL0     H63151   7.440   0.903   5.846 -0.3977  1.3352  0.4581
  468MOL0     H63152   7.296   0.892   5.578  5.5784  0.4279 -1.7443
  468MOL0     H63153   7.333   0.757   5.682  2.9375  0.5405 -0.4640
  468MOL0     H63154   7.178   0.786   5.837 -3.0536  0.9638  0.4748
  468MOL0     H63155   7.097   0.852   5.686  0.5890  3.6382 -2.1713
  468MOL0     H63156   7.180   0.994   5.938 -0.2927  0.5991 -0.3993
  468MOL0     H63157   7.210   1.079   5.783 -1.3357  1.7719 -0.2403
  468MOL0     H63158   6.961   0.957   5.891  2.5868 -0.2355  1.4004
  468MOL0     H63159   6.961   1.045   5.730 -2.6941  2.0856  0.9085
  468MOL0     H63160   6.888   1.218   5.883  0.0276  0.8372 -4.5784
  468MOL0     H63161   7.049   1.247   5.833 -3.0325 -0.6031 -2.3038
  468MOL0     H63162   7.472   1.361   5.704 -1.0464 -0.5138 -0.6464
  468MOL0     H63163   7.444   1.538   5.521  1.9813  1.7298  0.9167
  468MOL0     H63164   7.705   1.725   5.059 -2.6630  0.5225  4.1187
  468MOL0     H63165   7.614   1.846   4.830 -1.7907  0.3345 -1.0742
  468MOL0     H63166   7.338   1.396   3.091 -1.6887  0.3702  0.8343
  468MOL0     H63167   7.419   1.181   3.030 -0.5382 -2.6660  1.9423
  468MOL0     H63168   7.251   0.766   2.796 -0.3553 -0.9769 -2.8485
  468MOL0     H63169   7.332   0.539   2.720  1.3869 -1.2680 -1.4735
  468MOL0     H63170   7.390   0.389   2.584 -0.3739  2.2697  1.0440
  468MOL0     H63171   7.504   0.420   2.443 -1.0599 -0.7505 -0.5844
  468MOL0     H63172   7.659   0.260   2.537  1.0624  3.2253  1.4193
  468MOL0     H63173   7.496   0.185   2.512  1.0750  0.4171 -0.4723
  468MOL0     H63174   7.473   0.220   2.757 -0.2002 -1.0935 -2.4449
  468MOL0     H63175   7.641   0.268   2.780 -2.5345  2.4794 -0.4668
  468MOL0     H63176   7.605   0.035   2.853  0.5018  3.7932  1.4503
  468MOL0     H63177   7.712   0.037   2.705 -1.5073  2.3557 -0.6042
  468MOL0     H63178   7.353  -0.148   2.563  1.0946 -2.3173 -0.5768
  468MOL0     H63179   7.699   0.706   2.621 -0.0433  2.0091 -2.1122
  468MOL0     H63180   7.639   0.934   2.700  1.6492 -1.7418 -2.9005
  469MOL0     O63181   3.405   3.809   8.033  0.3493  1.1400 -0.4895
  469MOL0     C63182   3.288   3.772   8.053  0.7332  0.3551  0.7982
  469MOL0     O63183   3.249   3.669   8.145  0.0522 -0.8289 -0.9284
  469MOL0     C63184   3.329   3.602   8.239  0.7423  0.1784 -0.0575
  469MOL0     C63185   3.459   3.640   8.285  0.3617  0.3053 -0.5102
  469MOL0     C63186   3.533   3.557   8.374 -0.0179 -0.5364  0.0353
  469MOL0     C63187   3.477   3.444   8.424  1.3847  0.1571  0.0150
  469MOL0     O63188   3.555   3.369   8.504 -0.0600 -0.0731 -0.1680
  469MOL0     C63189   3.512   3.292   8.616 -0.6680  0.3617 -0.4903
  469MOL0     C63190   3.614   3.296   8.722 -0.1969  0.2536 -0.0357
  469MOL0     C63191   3.756   3.308   8.691  0.0137 -0.4569 -0.6403
  469MOL0     C63192   3.808   3.207   8.588  0.8704  0.8568 -0.0323
  469MOL0     C63193   3.956   3.235   8.560  1.1323  0.0022 -0.9877
  469MOL0     C63194   4.012   3.125   8.464 -0.4485 -0.4568  0.1874
  469MOL0     C63195   4.044   2.982   8.504  0.4601 -0.2885  0.0155
  469MOL0     C63196   4.120   2.978   8.641  0.2855  0.7925 -0.0180
  469MOL0     N63197   4.033   2.903   8.726  0.0037 -0.0953  0.0977
  469MOL0     C63198   3.954   2.962   8.820 -0.2520 -0.0313  0.1595
  469MOL0     C63199   3.883   2.870   8.885 -0.2385 -0.5909  0.6731
  469MOL0     C63200   3.772   2.911   8.980 -0.6151  0.1609  0.0194
  469MOL0     C63201   3.808   2.860   9.120 -0.4254  0.4580 -0.7475
  469MOL0     C63202   3.873   2.970   9.206  0.7426 -0.3326  0.3245
  469MOL0     C63203   3.915   2.917   9.341 -0.7509  0.1001  0.3021
  469MOL0     O63204   3.999   2.807   9.303 -0.6599 -0.0990 -0.4057
  469MOL0     C63205   4.061   2.732   9.394  1.2018  0.6750  0.5053
  469MOL0     C63206   4.101   2.770   9.514  0.3021  0.2873 -0.3500
  469MOL0     C63207   4.167   2.692   9.603  0.3419  0.0887 -0.4078
  469MOL0     C63208   4.208   2.748   9.736  0.5455 -0.8564 -0.1468
  469MOL0     C63209   4.195   2.560   9.557 -0.3524 -0.1714 -0.0936
  469MOL0     C63210   4.275   2.478   9.647  0.0121 -0.7206 -0.1691
  469MOL0     O63211   4.237   2.350   9.657 -0.1152 -0.5511  0.2201
  469MOL0     C63212   4.326   2.240   9.679 -0.0680  0.1158  0.0518
  469MOL0     C63213   4.434   2.222   9.598 -0.2322  0.6384 -0.0193
  469MOL0     C63214   4.508   2.103   9.619 -0.4207  0.3638  0.8443
  469MOL0     C63215   4.456   1.998   9.693  0.0339  1.1758  0.2474
  469MOL0     O63216   4.509   1.871   9.691  1.2064  0.1770 -0.2662
  469MOL0     C63217   4.638   1.856   9.742  0.0450 -0.2506 -0.4096
  469MOL0     C63218   4.673   1.710   9.755  0.6525 -0.6197  0.0269
  469MOL0     C63219   4.627   1.619   9.644 -0.5812 -0.9161 -0.5758
  469MOL0     C63220   4.683   1.665   9.509 -0.3204 -0.5221 -0.4022
  469MOL0     C63221   4.687   1.566   9.400  0.6030 -0.5085  0.2389
  469MOL0     C63222   4.547   1.485   9.396 -0.6510 -0.5885  0.6049
  469MOL0     C63223   4.523   1.424   9.256 -0.4590 -0.8657 -0.1782
  469MOL0     C63224   4.450   1.520   9.150 -0.1530  0.6869  0.1952
  469MOL0    Cl63225   4.425   1.416   9.008  0.1668 -0.0299 -0.2193
  469MOL0     C63226   4.348   2.023   9.769 -0.5389  0.8479  0.3681
  469MOL0     C63227   4.285   2.143   9.776 -0.3530 -0.2036  0.0735
  469MOL0     O63228   4.379   2.523   9.688 -0.4513  0.0597 -0.5079
  469MOL0     C63229   4.176   2.523   9.424  0.5994 -1.0406  0.5610
  469MOL0     C63230   4.101   2.608   9.343 -0.2731  0.2313  0.0497
  469MOL0     N63231   3.932   2.740   8.845  0.3214  0.5941  0.3325
  469MOL0     N63232   4.018   2.768   8.746 -0.0593  0.5029  0.2642
  469MOL0     C63233   3.346   3.396   8.384  0.9813 -0.1033  0.5927
  469MOL0     C63234   3.275   3.483   8.293 -0.5192  0.5165  0.7026
  469MOL0     C63235   3.175   3.815   7.973  0.3774  0.8930  0.4610
  469MOL0     C63236   3.186   3.903   7.865 -0.7378  0.0952 -0.5315
  469MOL0     C63237   3.075   3.936   7.784  0.6931  0.9702 -0.3187
  469MOL0     C63238   2.947   3.876   7.800 -0.4518  0.5158 -0.4166
  469MOL0     O63239   2.840   3.902   7.720 -0.2082  0.9106  0.3230
  469MOL0     C63240   2.845   3.978   7.601 -0.5135  0.0179  0.5978
  469MOL0     C63241   2.765   3.903   7.491 -0.0752 -0.6508 -0.3225
  469MOL0     C63242   2.750   3.978   7.355 -0.3241 -0.3190  0.3518
  469MOL0     C63243   2.675   3.881   7.255 -0.7806 -0.6312  0.2054
  469MOL0     C63244   2.552   3.823   7.302 -0.0587 -1.6274  1.1882
  469MOL0     C63245   2.451   3.766   7.338  0.5580 -0.0212  1.1043
  469MOL0     C63246   2.933   3.789   7.912  0.7355  0.3481 -1.0941
  469MOL0     C63247   3.046   3.757   7.990 -0.5611  1.0649 -0.2395
  469MOL0     H63248   3.501   3.733   8.249  1.6290  0.3105  0.8728
  469MOL0     H63249   3.630   3.589   8.409 -1.0949  2.2997  0.7744
  469MOL0     H63250   3.417   3.328   8.657 -1.8117  0.5370 -3.1076
  469MOL0     H63251   3.496   3.188   8.589 -0.0205 -0.1089  0.8275
  469MOL0     H63252   3.596   3.380   8.790 -0.2664 -0.0397  0.3068
  469MOL0     H63253   3.606   3.203   8.779 -0.2048  0.3583  0.1367
  469MOL0     H63254   3.779   3.413   8.669 -0.6179 -0.2795 -0.4628
  469MOL0     H63255   3.803   3.284   8.786 -0.1221  0.0176 -0.4534
  469MOL0     H63256   3.804   3.105   8.627 -2.7529  1.0285  0.3914
  469MOL0     H63257   3.751   3.211   8.495  2.7111  3.1314 -1.1683
  469MOL0     H63258   3.962   3.336   8.519 -3.1507  1.7644  1.8951
  469MOL0     H63259   4.010   3.246   8.655 -0.1869  2.4059 -0.4330
  469MOL0     H63260   3.938   3.114   8.385 -0.6798 -1.2707  0.5009
  469MOL0     H63261   4.099   3.180   8.427 -2.1534  1.0077 -1.8512
  469MOL0     H63262   3.945   2.936   8.509  0.4715 -0.2809  0.3054
  469MOL0     H63263   4.108   2.939   8.426 -0.0380  1.0511 -1.1808
  469MOL0     H63264   4.144   3.069   8.697  1.2090 -1.1398  2.9855
  469MOL0     H63265   4.213   2.922   8.630 -2.4078 -4.4052  0.6143
  469MOL0     H63266   3.948   3.068   8.844 -2.3062 -0.0376 -0.1327
  469MOL0     H63267   3.758   3.020   8.971 -0.4036  0.2105  0.2738
  469MOL0     H63268   3.677   2.873   8.944 -2.1808  2.0533  1.8764
  469MOL0     H63269   3.878   2.776   9.111 -0.9110  0.0530 -0.8615
  469MOL0     H63270   3.717   2.838   9.178 -0.0957  1.3638  0.1486
  469MOL0     H63271   3.810   3.053   9.238  0.6458  0.7451 -2.4031
  469MOL0     H63272   3.953   3.020   9.149 -0.9016  0.7290 -1.1587
  469MOL0     H63273   3.828   2.877   9.393 -0.3102 -1.6265 -0.2191
  469MOL0     H63274   3.978   2.993   9.389  0.4189  0.8580 -2.2876
  469MOL0     H63275   4.083   2.874   9.537 -1.6878 -0.0577 -0.1613
  469MOL0     H63276   4.207   2.668   9.811 -1.5806  2.3222  3.5562
  469MOL0     H63277   4.308   2.790   9.739 -0.4850  2.4767 -3.7802
  469MOL0     H63278   4.127   2.810   9.775 -1.4089 -3.3293  0.0333
  469MOL0     H63279   4.454   2.313   9.543 -0.9238  3.5636  4.1406
  469MOL0     H63280   4.598   2.098   9.557 -2.0407  0.0444 -1.6353
  469MOL0     H63281   4.706   1.907   9.672 -0.7588  1.1601 -0.2081
  469MOL0     H63282   4.640   1.907   9.839 -0.1275  1.0864 -1.0780
  469MOL0     H63283   4.781   1.720   9.769  0.6208 -2.6466  2.5025
  469MOL0     H63284   4.640   1.674   9.853 -2.2777 -4.0298 -1.9753
  469MOL0     H63285   4.518   1.614   9.642 -0.9850  3.8663 -0.6476
  469MOL0     H63286   4.659   1.515   9.659  0.9711 -0.5658 -1.3109
  469MOL0     H63287   4.636   1.755   9.467  1.3121 -0.0221 -1.2817
  469MOL0     H63288   4.783   1.702   9.534  0.8921 -3.2189 -0.9457
  469MOL0     H63289   4.771   1.498   9.416 -0.2994 -1.6506  0.1699
  469MOL0     H63290   4.696   1.617   9.304 -1.7602 -0.2829  0.0755
  469MOL0     H63291   4.559   1.402   9.466  0.4361 -0.9786 -0.0227
  469MOL0     H63292   4.469   1.552   9.432  1.5146  2.7585 -0.5025
  469MOL0     H63293   4.465   1.331   9.250 -1.0575 -0.4177 -2.2655
  469MOL0     H63294   4.620   1.395   9.215  0.6507  2.0746  0.1425
  469MOL0     H63295   4.504   1.600   9.100  0.7979 -0.2778 -0.3743
  469MOL0     H63296   4.362   1.560   9.201  1.9917  2.7652  2.5444
  469MOL0     H63297   4.315   1.945   9.837 -1.5595  1.4368  0.5773
  469MOL0     H63298   4.196   2.168   9.833  0.3387  2.7813 -0.0373
  469MOL0     H63299   4.207   2.422   9.398  3.3629  0.0756 -0.9450
  469MOL0     H63300   4.073   2.566   9.247  0.3609  1.6519 -0.7940
  469MOL0     H63301   3.298   3.308   8.424  1.8580 -0.2386  1.3703
  469MOL0     H63302   3.178   3.453   8.256  0.5192  0.7072 -2.5285
  469MOL0     H63303   3.282   3.950   7.844 -2.2953  2.8938 -1.9954
  469MOL0     H63304   3.091   4.016   7.713  2.1025 -0.6309 -1.9140
  469MOL0     H63305   2.793   4.074   7.606 -2.1405 -0.7031 -1.1534
  469MOL0     H63306   2.945   3.992   7.561 -1.2420  3.3955 -0.3673
  469MOL0     H63307   2.668   3.879   7.534  0.2112  0.2214  0.8602
  469MOL0     H63308   2.819   3.812   7.462  0.9958 -0.1986  0.1964
  469MOL0     H63309   2.850   4.001   7.316 -0.6107  0.2191 -0.0679
  469MOL0     H63310   2.689   4.065   7.380 -1.6241 -1.2777  0.5701
  469MOL0     H63311   2.744   3.803   7.221 -2.9269 -2.0849 -1.0860
  469MOL0     H63312   2.647   3.950   7.175 -2.0638  2.3842  3.0163
  469MOL0     H63313   2.354   3.721   7.346 -0.1144  1.1351 -0.1959
  469MOL0     H63314   2.841   3.749   7.952  2.0846 -1.9231 -0.0953
  469MOL0     H63315   3.027   3.690   8.073  3.5120  2.0729  1.8172
  470MOL0     O63316   0.658   4.116   5.809  0.0123 -0.0903  0.1718
  470MOL0     C63317   0.716   4.088   5.702 -0.3832 -0.5926  0.0325
  470MOL0     O63318   0.846   4.043   5.687  0.6638 -0.1848 -0.1479
  470MOL0     C63319   0.905   4.015   5.806 -1.2247 -0.0678  0.8176
  470MOL0     C63320   1.022   4.077   5.828  0.3866 -0.4801 -0.6569
  470MOL0     C63321   1.092   4.037   5.942  0.7092 -0.0940 -0.1174
  470MOL0     C63322   1.057   3.932   6.026 -0.4081 -0.0152  0.6102
  470MOL0     O63323   1.149   3.898   6.118  0.1282  0.0016  0.0808
  470MOL0     C63324   1.120   3.841   6.241  0.6376  0.7074 -0.0621
  470MOL0     C63325   1.072   3.959   6.323 -0.1115  0.7777  0.1960
  470MOL0     C63326   1.019   3.902   6.451 -0.1109  0.6081  0.2856
  470MOL0     C63327   0.966   4.008   6.558 -0.0664 -0.0361  0.1946
  470MOL0     C63328   0.904   3.919   6.662  0.7703 -0.7105  0.0811
  470MOL0     C63329   0.845   4.005   6.786  0.1968  0.3964  0.1586
  470MOL0     C63330   0.741   3.921   6.856  0.0229 -0.8176  0.2905
  470MOL0     C63331   0.600   3.908   6.781 -0.3950  0.0165  0.3264
  470MOL0     N63332   0.599   3.814   6.673 -0.3820 -0.2862 -0.1890
  470MOL0     C63333   0.651   3.686   6.684 -0.1391 -0.4497  0.0896
  470MOL0     C63334   0.600   3.637   6.566 -0.2380 -0.6206 -0.0823
  470MOL0     C63335   0.626   3.491   6.523 -0.2206  0.6822  0.6332
  470MOL0     C63336   0.704   3.479   6.386 -0.9672  0.1634 -0.6457
  470MOL0     C63337   0.700   3.328   6.348 -0.1929 -0.4296  0.1397
  470MOL0     C63338   0.798   3.281   6.235  1.1850  0.3253 -0.2092
  470MOL0     O63339   0.936   3.322   6.262  0.7159 -0.4208 -0.2517
  470MOL0     C63340   1.031   3.237   6.297  1.1313  1.2884 -0.1111
  470MOL0     C63341   1.001   3.108   6.334 -0.1011  0.5771 -1.0533
  470MOL0     C63342   1.104   3.025   6.388 -0.5932 -0.0828 -0.8273
  470MOL0     C63343   1.063   2.897   6.447  1.0856 -0.0789  0.4503
  470MOL0     C63344   1.237   3.077   6.387 -0.4107 -0.7455  0.3618
  470MOL0     C63345   1.348   3.035   6.474  0.0720 -0.2103  0.1812
  470MOL0     O63346   1.315   2.963   6.587 -0.4233  0.2597 -0.2380
  470MOL0     C63347   1.390   2.932   6.699 -0.7072  0.2787 -0.4954
  470MOL0     C63348   1.328   2.856   6.797  0.6030 -0.1151  0.3541
  470MOL0     C63349   1.387   2.835   6.929 -0.0584 -0.2436  0.2517
  470MOL0     C63350   1.515   2.885   6.942 -0.1590  0.6342 -0.0917
  470MOL0     O63351   1.565   2.871   7.071 -0.9213  0.3047 -0.5015
  470MOL0     C63352   1.678   2.958   7.128 -0.3209 -0.7497  0.9472
  470MOL0     C63353   1.661   2.967   7.277 -0.5492 -0.6301  0.4516
  470MOL0     C63354   1.788   3.017   7.360 -0.6874 -0.2098 -0.1077
  470MOL0     C63355   1.804   3.156   7.318 -0.6841 -1.7259 -0.1434
  470MOL0     C63356   1.902   3.225   7.410  0.2764  0.3506 -0.1496
  470MOL0     C63357   1.947   3.360   7.367 -0.5025 -0.0903  0.7310
  470MOL0     C63358   2.093   3.392   7.395 -0.0550  0.1111  0.7013
  470MOL0     C63359   2.141   3.417   7.539  0.8121  0.7555  0.8910
  470MOL0    Cl63360   2.180   3.289   7.640 -0.4068 -0.4799  0.2458
  470MOL0     C63361   1.577   2.962   6.839 -0.9983 -0.7518 -0.0523
  470MOL0     C63362   1.519   2.974   6.719 -0.9362  0.2710  0.1538
  470MOL0     O63363   1.459   3.049   6.425  0.1624 -0.1670 -0.2482
  470MOL0     C63364   1.269   3.200   6.320 -0.3964  0.3516  0.5653
  470MOL0     C63365   1.160   3.278   6.294  0.3230 -1.7337 -0.3605
  470MOL0     N63366   0.520   3.730   6.499 -0.8023  1.3917  0.2977
  470MOL0     N63367   0.527   3.838   6.562  0.3650 -0.9160  1.2396
  470MOL0     C63368   0.940   3.869   5.993  1.4059  0.1008 -0.5461
  470MOL0     C63369   0.859   3.912   5.888 -0.1815 -0.4591 -0.0533
  470MOL0     C63370   0.651   4.143   5.581  0.5413  0.7636  0.6364
  470MOL0     C63371   0.510   4.154   5.575  0.2313  0.4741  0.0574
  470MOL0     C63372   0.444   4.189   5.455 -0.1546  0.1640  0.0728
  470MOL0     C63373   0.521   4.232   5.347 -0.0588 -0.0721  0.2991
  470MOL0     O63374   0.469   4.286   5.227  0.2400  0.3435  0.4133
  470MOL0     C63375   0.328   4.275   5.211 -0.6270 -0.0890  0.4317
  470MOL0     C63376   0.264   4.404   5.260  1.4065  0.0336  0.3093
  470MOL0     C63377   0.279   4.517   5.159 -0.2633  1.2409  0.0293
  470MOL0     C63378   0.167   4.540   5.058  0.1632  1.2951  0.5252
  470MOL0     C63379   0.191   4.656   4.972  0.9593 -0.5057  0.0838
  470MOL0     C63380   0.210   4.747   4.893  0.5506 -0.2029  0.1670
  470MOL0     C63381   0.659   4.238   5.352  0.5693  0.6594 -0.1702
  470MOL0     C63382   0.725   4.193   5.470 -0.1763 -0.8135  0.2756
  470MOL0     H63383   1.061   4.151   5.759  1.4258  0.7501  1.1702
  470MOL0     H63384   1.191   4.081   5.951  1.4063 -1.6677  0.1816
  470MOL0     H63385   1.043   3.763   6.241  0.8743  0.4041  2.2369
  470MOL0     H63386   1.206   3.798   6.292  0.2696  1.3168  1.1140
  470MOL0     H63387   1.147   4.036   6.346 -2.8736  3.4905  0.6905
  470MOL0     H63388   0.986   4.011   6.282 -0.8768  1.4927  2.5631
  470MOL0     H63389   0.937   3.835   6.423  1.1431 -0.3132 -1.3721
  470MOL0     H63390   1.082   3.822   6.489 -3.1855 -3.6694 -2.7072
  470MOL0     H63391   1.041   4.073   6.604  0.3359 -1.1480  1.1407
  470MOL0     H63392   0.886   4.069   6.513 -0.3889 -0.7080 -0.1638
  470MOL0     H63393   0.829   3.866   6.604  2.4690 -0.5917 -2.3624
  470MOL0     H63394   0.980   3.847   6.694 -0.7291 -1.1004  3.1170
  470MOL0     H63395   0.934   4.022   6.847  2.9003 -0.6841 -3.1725
  470MOL0     H63396   0.821   4.102   6.743 -1.4097  0.7400  1.6915
  470MOL0     H63397   0.780   3.822   6.882  0.2962 -1.4703 -2.3268
  470MOL0     H63398   0.717   3.951   6.958  0.0515 -3.1321  1.0342
  470MOL0     H63399   0.589   4.009   6.739  1.5299  0.4165  0.6976
  470MOL0     H63400   0.522   3.880   6.853  0.3044 -1.6580  0.4735
  470MOL0     H63401   0.711   3.640   6.763 -0.9973 -1.6086  0.0913
  470MOL0     H63402   0.671   3.430   6.601 -1.9322  1.2974  2.1861
  470MOL0     H63403   0.525   3.454   6.500  0.5920 -2.0476  1.1113
  470MOL0     H63404   0.806   3.519   6.397 -1.1382  0.9760 -1.8748
  470MOL0     H63405   0.650   3.537   6.311 -1.8549  0.8782  0.5099
  470MOL0     H63406   0.594   3.321   6.321 -0.4661  1.2414  0.6524
  470MOL0     H63407   0.741   3.277   6.436  1.9328  0.0448 -0.5386
  470MOL0     H63408   0.754   3.341   6.155  1.7045 -0.0040 -0.7401
  470MOL0     H63409   0.782   3.176   6.210 -0.7564 -0.3044  2.9891
  470MOL0     H63410   0.902   3.073   6.361  0.0977 -0.4184 -1.5918
  470MOL0     H63411   1.141   2.820   6.440  1.0743  0.0099 -5.0764
  470MOL0     H63412   1.041   2.925   6.550  2.1503 -1.1244  0.9909
  470MOL0     H63413   0.970   2.859   6.404  0.5399  2.0365 -0.3874
  470MOL0     H63414   1.229   2.830   6.761 -0.1876  2.1624  0.6793
  470MOL0     H63415   1.340   2.771   7.003  1.5195 -2.1748 -0.3462
  470MOL0     H63416   1.767   2.897   7.111 -1.0825 -1.6518  0.0081
  470MOL0     H63417   1.676   3.057   7.082 -1.5998 -0.4474  1.6145
  470MOL0     H63418   1.571   3.023   7.301  1.4157  2.6489  0.8120
  470MOL0     H63419   1.644   2.865   7.312  1.4322 -2.2108 -2.7154
  470MOL0     H63420   1.881   2.960   7.354  1.0227  2.1523  1.9883
  470MOL0     H63421   1.756   3.027   7.464 -1.1034 -0.1811 -0.2363
  470MOL0     H63422   1.852   3.159   7.219 -1.8353  0.3711 -0.7209
  470MOL0     H63423   1.711   3.214   7.319  0.8666  1.2158 -3.0530
  470MOL0     H63424   1.992   3.163   7.421  1.7560  1.4856 -4.1083
  470MOL0     H63425   1.858   3.248   7.508 -2.5369  0.6014 -1.3993
  470MOL0     H63426   1.951   3.372   7.258 -0.8036  2.6453  0.9446
  470MOL0     H63427   1.890   3.443   7.410 -0.4597 -0.3746  1.3488
  470MOL0     H63428   2.105   3.492   7.354  2.1476 -1.3351 -2.6359
  470MOL0     H63429   2.150   3.326   7.328 -2.5525 -0.1152 -1.3652
  470MOL0     H63430   2.074   3.482   7.595  2.8562  1.4052  2.7142
  470MOL0     H63431   2.231   3.477   7.523 -0.1876  1.7115 -1.5283
  470MOL0     H63432   1.676   3.003   6.853 -1.2172  0.3022 -1.3791
  470MOL0     H63433   1.580   3.025   6.645  1.9215 -0.4304  1.8874
  470MOL0     H63434   1.360   3.258   6.308  0.8046 -1.2736  1.3200
  470MOL0     H63435   1.175   3.383   6.272  2.5108 -1.8724  0.1948
  470MOL0     H63436   0.886   3.796   6.051  1.1992  0.5943 -0.1138
  470MOL0     H63437   0.764   3.860   5.874 -1.3714  1.8746 -1.4058
  470MOL0     H63438   0.442   4.127   5.655  0.4723 -2.1313 -0.5329
  470MOL0     H63439   0.336   4.194   5.460 -0.2219  0.3805 -1.2685
  470MOL0     H63440   0.310   4.271   5.103  0.7294 -0.5881  0.2020
  470MOL0     H63441   0.293   4.185   5.261 -1.0857  0.7195  1.6269
  470MOL0     H63442   0.302   4.442   5.355 -0.3126  1.2521  0.5690
  470MOL0     H63443   0.160   4.377   5.280  2.2685 -2.8678  1.3755
  470MOL0     H63444   0.370   4.491   5.104  0.1271 -0.2387  1.2768
  470MOL0     H63445   0.298   4.608   5.216  0.5638  0.9003  0.3143
  470MOL0     H63446   0.077   4.553   5.119  1.3105 -2.5255  3.3907
  470MOL0     H63447   0.156   4.452   4.993 -0.5038  1.4419  0.4353
  470MOL0     H63448   0.233   4.832   4.831 -2.1336  0.2936 -0.3037
  470MOL0     H63449   0.724   4.266   5.269  2.7299 -1.0030  0.8360
  470MOL0     H63450   0.832   4.181   5.462 -0.0476  1.2431 -3.2064
  471MOL0     O63451   5.847   5.333   3.269 -0.2555  0.3165 -0.0419
  471MOL0     C63452   5.799   5.444   3.303 -0.0450 -0.3964 -0.1523
  471MOL0     O63453   5.790   5.548   3.223  0.9591 -0.0934 -0.2353
  471MOL0     C63454   5.872   5.542   3.111 -0.3942 -0.0440 -0.6539
  471MOL0     C63455   6.008   5.576   3.119  0.3399 -0.5529 -0.5296
  471MOL0     C63456   6.077   5.566   3.004  0.0464 -0.3965 -0.2387
  471MOL0     C63457   6.015   5.550   2.880  0.6581 -0.4816  0.2435
  471MOL0     O63458   6.077   5.568   2.762 -0.1221 -0.8669  0.6722
  471MOL0     C63459   6.166   5.451   2.734  0.4740 -0.2605 -0.2280
  471MOL0     C63460   6.280   5.509   2.637 -0.2420  0.9358 -0.5213
  471MOL0     C63461   6.356   5.405   2.553 -0.8751 -0.4550  0.3963
  471MOL0     C63462   6.442   5.331   2.657 -0.1769 -0.6928  0.0131
  471MOL0     C63463   6.513   5.222   2.584 -0.0810  0.2388  0.0035
  471MOL0     C63464   6.409   5.118   2.554  0.2963  0.2222 -0.0767
  471MOL0     C63465   6.451   4.998   2.463 -0.5540 -0.2306  0.2981
  471MOL0     C63466   6.332   4.925   2.389  0.3299 -0.1060 -0.1386
  471MOL0     N63467   6.290   5.004   2.274  0.4393  0.2595  0.5699
  471MOL0     C63468   6.337   4.988   2.145 -0.1458 -0.3784 -0.1231
  471MOL0     C63469   6.293   5.087   2.067  0.4099 -0.3043 -0.0279
  471MOL0     C63470   6.322   5.114   1.924  0.3512  0.4561 -0.1975
  471MOL0     C63471   6.471   5.080   1.891 -0.2183  0.1982 -0.3908
  471MOL0     C63472   6.493   5.065   1.740  0.2115  0.4807 -0.0952
  471MOL0     C63473   6.642   5.099   1.697  1.2580  0.4029 -0.5404
  471MOL0     O63474   6.645   5.240   1.656 -0.2596  0.9031  0.8065
  471MOL0     C63475   6.743   5.312   1.707 -0.0702  0.5793  0.5297
  471MOL0     C63476   6.713   5.409   1.793  0.2694 -0.1890 -0.6912
  471MOL0     C63477   6.800   5.489   1.865  0.2954  0.7688  0.3213
  471MOL0     C63478   6.730   5.591   1.953  0.1860  0.5824 -0.5140
  471MOL0     C63479   6.933   5.466   1.852  0.1091  0.3694  0.1714
  471MOL0     C63480   7.029   5.529   1.938  0.4434  0.1730  0.4216
  471MOL0     O63481   7.134   5.562   1.872 -0.4724 -0.0743  0.2618
  471MOL0     C63482   7.194   5.669   1.931  0.2532  0.4057 -0.7669
  471MOL0     C63483   7.326   5.660   1.988  0.3115 -0.0467  0.5588
  471MOL0     C63484   7.390   5.778   2.023 -0.0888 -0.0595  0.1281
  471MOL0     C63485   7.336   5.905   2.018  0.1784 -0.7440  0.5857
  471MOL0     O63486   7.400   6.009   2.077  0.1212 -0.6490 -0.0982
  471MOL0     C63487   7.318   6.068   2.183 -0.4937  0.6135 -0.2641
  471MOL0     C63488   7.395   6.052   2.320 -0.2800 -0.3203 -0.4405
  471MOL0     C63489   7.431   5.914   2.352 -0.3445  0.5241  0.1270
  471MOL0     C63490   7.526   5.904   2.480 -0.0962  0.7885  1.2231
  471MOL0     C63491   7.436   5.935   2.607 -1.2033 -0.3168 -0.0545
  471MOL0     C63492   7.507   5.892   2.744 -0.2354  0.0155  0.5800
  471MOL0     C63493   7.482   5.741   2.782 -0.5198 -0.4080  0.3066
  471MOL0     C63494   7.415   5.654   2.678  0.4114  0.4073 -0.1073
  471MOL0    Cl63495   7.417   5.492   2.758 -0.4532 -0.3314  0.1228
  471MOL0     C63496   7.220   5.913   1.942 -0.3650 -0.8018  0.1904
  471MOL0     C63497   7.152   5.804   1.897  0.7151  0.9506  0.3563
  471MOL0     O63498   7.012   5.535   2.058  1.6984 -0.1814 -0.1332
  471MOL0     C63499   6.979   5.368   1.759  0.3035  1.0061 -0.0290
  471MOL0     C63500   6.882   5.286   1.693 -0.9495 -0.0500 -0.5837
  471MOL0     N63501   6.226   5.169   2.162  0.3244 -0.7030 -0.6691
  471MOL0     N63502   6.235   5.127   2.283 -0.5676  1.4238  0.5483
  471MOL0     C63503   5.879   5.529   2.867 -0.2973  0.2378 -0.1121
  471MOL0     C63504   5.808   5.512   2.985  0.6097 -0.0788 -0.5243
  471MOL0     C63505   5.734   5.445   3.436  0.7103 -0.5468 -0.0281
  471MOL0     C63506   5.748   5.336   3.529  0.2698 -0.2295 -0.0125
  471MOL0     C63507   5.701   5.354   3.658  0.6710 -0.9212 -0.6116
  471MOL0     C63508   5.629   5.476   3.692  0.7871 -0.4472 -0.0715
  471MOL0     O63509   5.579   5.494   3.823  0.5955 -0.4527  0.0235
  471MOL0     C63510   5.623   5.407   3.929  0.4874  0.0257  0.8674
  471MOL0     C63511   5.516   5.433   4.032 -0.6463 -0.1528  0.1212
  471MOL0     C63512   5.566   5.360   4.156 -1.0377 -0.3365 -1.0220
  471MOL0     C63513   5.459   5.330   4.265 -0.3799 -0.2649  0.1172
  471MOL0     C63514   5.414   5.465   4.328  0.3704  0.9112  0.7559
  471MOL0     C63515   5.397   5.575   4.372  0.5352 -0.5217 -0.9831
  471MOL0     C63516   5.623   5.578   3.594 -0.4497 -0.6837 -0.8566
  471MOL0     C63517   5.672   5.567   3.470 -0.2959  0.2556 -0.0331
  471MOL0     H63518   6.048   5.583   3.219 -0.8272 -1.5098  0.0185
  471MOL0     H63519   6.176   5.611   3.003  0.0575 -0.2660  2.2179
  471MOL0     H63520   6.217   5.409   2.822  2.3405  1.0000 -0.6567
  471MOL0     H63521   6.109   5.378   2.675  5.2579 -4.2871 -0.5784
  471MOL0     H63522   6.233   5.585   2.575  0.2959 -0.5292 -2.8564
  471MOL0     H63523   6.349   5.561   2.704 -0.2828 -0.6576  0.8548
  471MOL0     H63524   6.282   5.344   2.501  0.9220 -1.1690 -1.4682
  471MOL0     H63525   6.413   5.454   2.474 -3.5599 -0.8334 -1.9324
  471MOL0     H63526   6.515   5.402   2.698 -1.2528  1.2285 -1.2653
  471MOL0     H63527   6.380   5.294   2.739  1.5555 -1.3531  1.1004
  471MOL0     H63528   6.542   5.248   2.482  1.9895 -5.0610 -1.0893
  471MOL0     H63529   6.590   5.185   2.653 -2.1594 -2.3636  1.1478
  471MOL0     H63530   6.388   5.071   2.650 -0.3460  0.8697  0.1119
  471MOL0     H63531   6.317   5.158   2.510  0.5873 -1.2501 -2.1584
  471MOL0     H63532   6.526   5.030   2.390 -2.4443 -1.8263 -2.5305
  471MOL0     H63533   6.513   4.932   2.525 -0.3134 -0.0239  0.2794
  471MOL0     H63534   6.248   4.921   2.460 -2.1509  1.6149 -2.7404
  471MOL0     H63535   6.349   4.821   2.360 -1.9010 -0.5705  0.0010
  471MOL0     H63536   6.389   4.898   2.116  0.1634  0.2916 -1.7269
  471MOL0     H63537   6.256   5.059   1.855  1.0001  0.3767 -0.7609
  471MOL0     H63538   6.309   5.222   1.913 -0.2389  0.4440  0.3180
  471MOL0     H63539   6.490   4.986   1.944  0.4452  0.5532  0.0120
  471MOL0     H63540   6.534   5.155   1.940 -0.0264  0.8686 -1.6274
  471MOL0     H63541   6.431   5.137   1.686  0.8613  1.1414  0.0173
  471MOL0     H63542   6.461   4.969   1.700  1.1434  0.8470 -1.8264
  471MOL0     H63543   6.676   5.040   1.611 -0.2724  0.0831 -0.9530
  471MOL0     H63544   6.706   5.083   1.784 -0.2390  2.8673  1.1430
  471MOL0     H63545   6.606   5.409   1.813  0.6495  3.3812  2.5554
  471MOL0     H63546   6.755   5.590   2.059  4.0192  4.6289 -1.0901
  471MOL0     H63547   6.767   5.691   1.930  1.5375  1.0455  3.0652
  471MOL0     H63548   6.622   5.591   1.934 -0.2381 -1.9194  1.3978
  471MOL0     H63549   7.365   5.563   2.016 -2.2658 -1.2151  0.4661
  471MOL0     H63550   7.488   5.771   2.071 -0.7876  0.8176  1.7716
  471MOL0     H63551   7.306   6.175   2.167  3.5586  1.2879  0.0859
  471MOL0     H63552   7.218   6.023   2.185 -0.7156  1.0127 -1.5700
  471MOL0     H63553   7.486   6.112   2.307  0.6156 -1.7418 -0.8866
  471MOL0     H63554   7.343   6.104   2.402  1.3996  0.9523 -0.1319
  471MOL0     H63555   7.488   5.854   2.281 -0.6598 -2.2454  2.0556
  471MOL0     H63556   7.331   5.869   2.360 -0.0349  0.1657  2.8357
  471MOL0     H63557   7.554   5.800   2.501 -0.8931  0.9266  3.2325
  471MOL0     H63558   7.620   5.958   2.488  1.0829 -1.1878  1.2863
  471MOL0     H63559   7.344   5.878   2.594 -1.7885  0.8042 -1.1048
  471MOL0     H63560   7.399   6.038   2.602 -1.1028 -0.2785 -0.0220
  471MOL0     H63561   7.610   5.930   2.744 -0.9722  2.1537  0.3937
  471MOL0     H63562   7.456   5.953   2.819 -1.9266 -0.7492  0.0860
  471MOL0     H63563   7.416   5.726   2.868 -1.8882  1.6900 -0.3035
  471MOL0     H63564   7.580   5.698   2.804 -0.1929  0.0021 -0.3181
  471MOL0     H63565   7.471   5.656   2.584  1.3103  0.2540  0.4216
  471MOL0     H63566   7.310   5.674   2.651  0.2235  0.4759  0.6480
  471MOL0     H63567   7.174   6.012   1.946  1.0705 -0.0960 -0.2437
  471MOL0     H63568   7.058   5.822   1.845  0.1671  1.6070  1.5191
  471MOL0     H63569   7.084   5.345   1.753  0.0387 -2.0734  3.2365
  471MOL0     H63570   6.909   5.191   1.647 -0.0067 -0.2855  0.4144
  471MOL0     H63571   5.830   5.537   2.770 -1.8606  2.3641  0.7825
  471MOL0     H63572   5.702   5.492   2.977 -0.0632  3.0622 -0.8932
  471MOL0     H63573   5.786   5.239   3.497 -0.4564 -0.9856  1.3385
  471MOL0     H63574   5.708   5.265   3.719 -0.3850 -0.7004 -0.1391
  471MOL0     H63575   5.609   5.302   3.902 -1.1625  0.0563  1.4925
  471MOL0     H63576   5.726   5.433   3.956  0.5820  2.3051 -1.2711
  471MOL0     H63577   5.413   5.407   4.009 -0.3418 -1.5367  0.2185
  471MOL0     H63578   5.507   5.538   4.060 -2.2609 -0.2014 -0.1300
  471MOL0     H63579   5.644   5.429   4.190 -0.7753 -1.4798  0.8377
  471MOL0     H63580   5.613   5.264   4.134  0.7446 -0.6406  3.0453
  471MOL0     H63581   5.516   5.270   4.336  0.6321 -0.8529 -1.1566
  471MOL0     H63582   5.373   5.273   4.228 -1.2682  0.6566  0.6918
  471MOL0     H63583   5.375   5.665   4.424  0.0090  0.0579 -2.1665
  471MOL0     H63584   5.574   5.673   3.614 -1.4493 -0.4813 -3.7192
  471MOL0     H63585   5.665   5.644   3.393  3.1712  1.4721  0.6960
  472MOL0     O63586   4.435   1.613   2.811  0.3929 -0.4859 -0.3398
  472MOL0     C63587   4.444   1.662   2.931  0.9285 -0.0956  0.6500
  472MOL0     O63588   4.393   1.600   3.041 -0.9852 -0.7224 -0.6990
  472MOL0     C63589   4.337   1.477   3.042  0.1597  0.1725  0.2953
  472MOL0     C63590   4.222   1.449   3.116  0.1550  0.3016  0.4959
  472MOL0     C63591   4.185   1.316   3.127 -0.3865  0.1745  0.0452
  472MOL0     C63592   4.255   1.210   3.073  0.1958  0.4924  0.0762
  472MOL0     O63593   4.207   1.082   3.087 -0.4295  0.3826 -0.3400
  472MOL0     C63594   4.257   0.983   2.992 -0.7544 -0.8120 -0.1244
  472MOL0     C63595   4.175   0.851   3.000  0.6054  0.8528  0.7280
  472MOL0     C63596   4.196   0.785   3.139 -0.4487  0.4727  0.0250
  472MOL0     C63597   4.337   0.705   3.143 -0.0772 -0.0768  0.6574
  472MOL0     C63598   4.327   0.605   3.247 -0.4113  0.2132  0.3881
  472MOL0     C63599   4.370   0.654   3.384  1.1459 -0.2126 -0.5809
  472MOL0     C63600   4.361   0.548   3.504 -0.9247 -0.0536 -1.1908
  472MOL0     C63601   4.431   0.569   3.639 -0.3490 -1.0005 -0.4668
  472MOL0     N63602   4.575   0.551   3.630  0.4585 -0.2707  0.3802
  472MOL0     C63603   4.655   0.656   3.596  0.4350 -0.5758 -0.9281
  472MOL0     C63604   4.772   0.593   3.582 -0.4241 -1.2345 -0.1412
  472MOL0     C63605   4.891   0.661   3.515 -0.4205  0.8947  0.5791
  472MOL0     C63606   4.939   0.570   3.392 -0.0931 -0.0073 -0.3930
  472MOL0     C63607   5.032   0.457   3.447 -0.3600  0.1875 -0.4854
  472MOL0     C63608   5.145   0.494   3.543 -0.0233 -0.6394  0.8710
  472MOL0     O63609   5.243   0.391   3.537 -0.0144 -0.0302  0.0487
  472MOL0     C63610   5.236   0.269   3.607 -0.3805 -0.4645  0.0465
  472MOL0     C63611   5.316   0.155   3.572  0.2454  0.3261  0.0663
  472MOL0     C63612   5.330   0.038   3.651  0.2816  0.5767 -0.7008
  472MOL0     C63613   5.434  -0.067   3.619 -0.2053  0.0449 -0.2508
  472MOL0     C63614   5.250   0.031   3.765 -0.0688  0.5007  0.0879
  472MOL0     C63615   5.245  -0.097   3.852  0.6980 -0.0118 -0.1730
  472MOL0     O63616   5.320  -0.213   3.832  0.0447 -0.5996 -0.0013
  472MOL0     C63617   5.312  -0.298   3.935  0.7945 -0.1461  0.4932
  472MOL0     C63618   5.384  -0.285   4.053 -0.4444 -0.2397 -0.0069
  472MOL0     C63619   5.352  -0.350   4.171 -0.2314 -0.6364  0.1206
  472MOL0     C63620   5.238  -0.428   4.190 -0.5645  0.1598  0.9544
  472MOL0     O63621   5.191  -0.506   4.299  0.2555 -1.2045  0.2819
  472MOL0     C63622   5.246  -0.480   4.420 -0.5231 -0.8166 -0.1441
  472MOL0     C63623   5.197  -0.586   4.524  0.1549  1.0854  0.3309
  472MOL0     C63624   5.249  -0.578   4.665 -0.0960  0.9457  0.8145
  472MOL0     C63625   5.270  -0.714   4.735  0.3614 -0.1780  0.7067
  472MOL0     C63626   5.406  -0.759   4.690 -0.5286 -0.2516  0.0753
  472MOL0     C63627   5.480  -0.849   4.794 -0.1271 -1.1470 -0.5153
  472MOL0     C63628   5.599  -0.925   4.723  0.1872 -0.2368 -0.3705
  472MOL0     C63629   5.737  -0.911   4.775 -0.4452 -0.5438  0.1456
  472MOL0    Cl63630   5.841  -1.019   4.659  0.1089  0.2019  0.4719
  472MOL0     C63631   5.161  -0.440   4.070  0.0600 -0.3469 -0.8436
  472MOL0     C63632   5.201  -0.387   3.951  0.4056 -0.7460  0.4337
  472MOL0     O63633   5.146  -0.091   3.930  0.6222 -0.2035 -0.0122
  472MOL0     C63634   5.160   0.138   3.798  0.3263  0.4513 -0.2035
  472MOL0     C63635   5.162   0.254   3.723 -0.2561 -0.9696 -0.1301
  472MOL0     N63636   4.758   0.462   3.635  0.8730  0.2830  0.1368
  472MOL0     N63637   4.639   0.435   3.660 -0.1671 -0.4290  0.3698
  472MOL0     C63638   4.368   1.242   2.999 -0.7022 -0.7116  0.0961
  472MOL0     C63639   4.407   1.372   2.995 -0.8666  0.0451  0.7184
  472MOL0     C63640   4.531   1.782   2.937  0.2693  0.6346  0.1909
  472MOL0     C63641   4.501   1.884   2.845  0.5372 -0.7191 -0.2569
  472MOL0     C63642   4.582   2.000   2.829 -0.3297 -0.0672  0.2752
  472MOL0     C63643   4.693   2.016   2.917  0.0273 -0.1899 -0.1685
  472MOL0     O63644   4.747   2.133   2.906 -0.5257 -1.0699  0.3416
  472MOL0     C63645   4.820   2.171   3.023 -1.7426 -1.3598  0.3090
  472MOL0     C63646   4.830   2.331   3.034 -0.2407  0.6788 -0.5717
  472MOL0     C63647   4.918   2.376   3.148 -0.0227 -0.6133  0.2050
  472MOL0     C63648   4.853   2.515   3.194 -0.1452 -0.3976 -0.3924
  472MOL0     C63649   4.849   2.614   3.082 -0.4350  0.2891 -0.5923
  472MOL0     C63650   4.845   2.707   3.018  0.2675  0.4122 -0.2192
  472MOL0     C63651   4.722   1.913   3.011  0.8768  0.4428 -0.8331
  472MOL0     C63652   4.641   1.800   3.022 -0.1603 -0.0370  0.3742
  472MOL0     H63653   4.158   1.523   3.162 -0.3491 -1.9603  3.8004
  472MOL0     H63654   4.094   1.293   3.182 -1.8905 -0.5587 -2.5846
  472MOL0     H63655   4.235   1.028   2.894  0.4174 -2.3507 -1.1417
  472MOL0     H63656   4.366   0.970   3.000 -0.5878  1.1271  1.4733
  472MOL0     H63657   4.076   0.892   2.977 -0.0566 -1.8905 -1.9206
  472MOL0     H63658   4.209   0.791   2.915  0.9487 -0.2638  1.6152
  472MOL0     H63659   4.202   0.861   3.217  2.9254  0.6027 -0.2147
  472MOL0     H63660   4.116   0.714   3.163  1.2248 -1.1969  1.0204
  472MOL0     H63661   4.334   0.644   3.052 -1.0841 -0.2529  0.7949
  472MOL0     H63662   4.429   0.764   3.151  1.2969 -2.1215  0.7107
  472MOL0     H63663   4.223   0.571   3.251 -0.0579 -0.8210  1.8147
  472MOL0     H63664   4.394   0.521   3.222 -2.0098 -1.0786  0.2848
  472MOL0     H63665   4.476   0.681   3.379  0.9906  1.0259  1.4347
  472MOL0     H63666   4.311   0.745   3.402 -0.8535 -1.4271 -0.6446
  472MOL0     H63667   4.257   0.531   3.532 -1.2736  4.0132  0.7456
  472MOL0     H63668   4.396   0.452   3.465 -0.1649 -0.2962  0.0384
  472MOL0     H63669   4.390   0.506   3.719  2.4092 -0.0160  1.8590
  472MOL0     H63670   4.404   0.673   3.660 -0.7220 -1.3952  1.1669
  472MOL0     H63671   4.632   0.762   3.586 -1.4702 -1.0305 -1.7169
  472MOL0     H63672   4.854   0.752   3.468  3.5523  2.3695 -0.1483
  472MOL0     H63673   4.968   0.689   3.588 -1.7478  0.8941  2.0325
  472MOL0     H63674   4.995   0.634   3.323 -0.5473  2.0341  1.0454
  472MOL0     H63675   4.852   0.525   3.343 -0.7262  0.4278  0.3128
  472MOL0     H63676   5.060   0.396   3.360  0.5662  0.3051 -0.2738
  472MOL0     H63677   4.979   0.382   3.506 -0.7950  0.2235 -0.8198
  472MOL0     H63678   5.110   0.519   3.644  0.9397 -0.1110  1.0886
  472MOL0     H63679   5.186   0.590   3.509  0.7657 -0.2537  2.7740
  472MOL0     H63680   5.372   0.159   3.479 -3.6512 -1.4064 -2.6685
  472MOL0     H63681   5.468  -0.054   3.516 -0.1976  1.1021 -0.1312
  472MOL0     H63682   5.519  -0.071   3.688 -0.8719 -2.4007  0.5367
  472MOL0     H63683   5.399  -0.170   3.613  0.2224 -0.1074 -0.2031
  472MOL0     H63684   5.477  -0.229   4.060  0.1669 -1.2427 -0.0158
  472MOL0     H63685   5.417  -0.329   4.256 -0.9434 -0.1131  0.5499
  472MOL0     H63686   5.354  -0.493   4.420 -0.4631 -0.9426  2.8258
  472MOL0     H63687   5.213  -0.380   4.449 -0.2642 -0.4947 -0.9500
  472MOL0     H63688   5.088  -0.574   4.528  0.5301  5.8677  2.2576
  472MOL0     H63689   5.214  -0.686   4.483  3.7999  1.2755  1.1045
  472MOL0     H63690   5.178  -0.517   4.721 -2.4108  0.0448 -0.9606
  472MOL0     H63691   5.345  -0.527   4.649  0.7300 -1.1573 -1.6780
  472MOL0     H63692   5.269  -0.688   4.842 -0.4911 -2.0536  1.2077
  472MOL0     H63693   5.188  -0.784   4.716  0.8881 -0.3731 -0.9269
  472MOL0     H63694   5.470  -0.672   4.669  1.1526 -0.4747  3.5154
  472MOL0     H63695   5.398  -0.801   4.590 -0.8838 -0.0594  0.0229
  472MOL0     H63696   5.509  -0.789   4.880 -1.1316 -1.6356  0.1843
  472MOL0     H63697   5.417  -0.929   4.835 -0.8550  0.4607  1.6463
  472MOL0     H63698   5.604  -0.898   4.617  1.2421 -0.5254 -0.4056
  472MOL0     H63699   5.573  -1.030   4.737  1.0975 -0.3557  0.5531
  472MOL0     H63700   5.754  -0.963   4.870  1.2603 -2.2418 -1.0123
  472MOL0     H63701   5.771  -0.807   4.779 -3.3178  0.4757  0.7236
  472MOL0     H63702   5.066  -0.492   4.079  1.0098 -2.2915 -1.5678
  472MOL0     H63703   5.132  -0.400   3.869  2.8390  0.3821 -1.9454
  472MOL0     H63704   5.082   0.139   3.874 -1.2219  0.9924 -1.7323
  472MOL0     H63705   5.099   0.337   3.753 -0.9643 -1.3585 -0.5050
  472MOL0     H63706   4.440   1.169   2.963  0.7739 -2.5379  5.6876
  472MOL0     H63707   4.497   1.401   2.941 -1.0133 -0.0665  0.4054
  472MOL0     H63708   4.416   1.869   2.779 -1.5388 -2.6655  2.5862
  472MOL0     H63709   4.573   2.086   2.763 -0.9872 -0.6364 -0.4102
  472MOL0     H63710   4.787   2.131   3.120  1.1814  4.1417  4.1018
  472MOL0     H63711   4.923   2.137   3.012 -0.9463  0.3030  2.0141
  472MOL0     H63712   4.727   2.365   3.048  0.0171  1.2609 -0.0554
  472MOL0     H63713   4.868   2.379   2.943  0.8833  3.0237  1.0433
  472MOL0     H63714   5.019   2.403   3.115 -1.4429  2.1207 -2.4351
  472MOL0     H63715   4.931   2.302   3.226  4.0693 -4.7734 -3.8008
  472MOL0     H63716   4.891   2.568   3.282 -0.9490  0.7229 -0.6909
  472MOL0     H63717   4.754   2.493   3.233  0.6565 -0.3797  1.8172
  472MOL0     H63718   4.835   2.794   2.955  2.3267  1.8028  1.2543
  472MOL0     H63719   4.801   1.929   3.085  1.8225 -3.4503 -0.7756
  472MOL0     H63720   4.680   1.742   3.105  3.4724  2.9131  1.0214
  473MOL0     O63721  10.128   1.518   6.627 -0.0749  0.2312  0.5028
  473MOL0     C63722  10.227   1.479   6.553  0.6524 -0.1211  0.4897
  473MOL0     O63723  10.294   1.559   6.452 -0.8701 -0.1334  1.0634
  473MOL0     C63724  10.266   1.697   6.462  0.7801 -0.8617  0.4969
  473MOL0     C63725  10.286   1.757   6.582 -0.1574  0.0338 -0.9178
  473MOL0     C63726  10.250   1.886   6.599  0.7005  0.1018 -0.3834
  473MOL0     C63727  10.222   1.974   6.494 -0.9696  0.0192 -0.8783
  473MOL0     O63728  10.214   2.104   6.535 -0.3505 -0.0037 -0.3885
  473MOL0     C63729  10.175   2.198   6.438 -0.3110 -0.3023  0.3369
  473MOL0     C63730  10.023   2.221   6.435  0.0058 -0.8156 -0.2529
  473MOL0     C63731   9.930   2.158   6.542 -0.6789 -0.4387  0.3203
  473MOL0     C63732   9.790   2.226   6.530  0.4253  0.6552 -0.8201
  473MOL0     C63733   9.705   2.157   6.629  0.5559  0.5264  1.1655
  473MOL0     C63734   9.570   2.226   6.619  0.1162  0.6766  0.1858
  473MOL0     C63735   9.460   2.144   6.679 -0.2218  0.4636 -0.1016
  473MOL0     C63736   9.489   2.125   6.835 -0.2177  0.5076 -0.3332
  473MOL0     N63737   9.408   2.020   6.881 -0.0962  0.0457 -0.6257
  473MOL0     C63738   9.278   2.026   6.909 -1.3665 -0.0027  0.3453
  473MOL0     C63739   9.246   1.907   6.960  0.3041  0.3459  0.9134
  473MOL0     C63740   9.109   1.861   6.987 -0.2417 -0.2295 -0.2022
  473MOL0     C63741   9.077   1.733   6.903 -0.4768 -0.5481  0.1790
  473MOL0     C63742   9.022   1.786   6.770  0.4220 -0.3288  0.0951
  473MOL0     C63743   9.036   1.674   6.665 -0.3002 -0.5617  0.2446
  473MOL0     O63744   8.965   1.550   6.682 -0.2687  0.2838  0.7029
  473MOL0     C63745   8.843   1.532   6.605 -0.7346  0.1061 -0.3584
  473MOL0     C63746   8.735   1.493   6.686 -0.7554  0.6859 -0.1669
  473MOL0     C63747   8.607   1.490   6.628  0.5650 -0.0262 -0.2180
  473MOL0     C63748   8.499   1.455   6.729  0.0563  0.8005  0.1190
  473MOL0     C63749   8.597   1.520   6.496  0.0263  0.4069  0.3794
  473MOL0     C63750   8.457   1.522   6.437  0.4865 -0.2222 -0.1062
  473MOL0     O63751   8.450   1.511   6.299  0.2620  0.0805  0.5129
  473MOL0     C63752   8.327   1.504   6.236 -0.7291 -0.1527  0.3273
  473MOL0     C63753   8.315   1.554   6.111  0.1595  0.3737 -0.3016
  473MOL0     C63754   8.196   1.540   6.031  0.5092 -0.0251  0.0594
  473MOL0     C63755   8.091   1.460   6.082  0.7554 -0.0715  0.2130
  473MOL0     O63756   7.973   1.433   6.014 -0.2231 -0.1913  0.4682
  473MOL0     C63757   7.957   1.490   5.887  0.0673 -0.2912  0.4983
  473MOL0     C63758   7.816   1.463   5.833 -0.8403  0.4999 -0.4733
  473MOL0     C63759   7.696   1.507   5.920  0.0803 -0.1619  1.2488
  473MOL0     C63760   7.699   1.647   5.949  0.2728 -0.9055  0.1880
  473MOL0     C63761   7.557   1.704   5.973 -0.3634 -0.1383  0.0521
  473MOL0     C63762   7.477   1.663   6.093  1.2007  0.2218  0.4655
  473MOL0     C63763   7.373   1.555   6.084  0.7658 -0.5835  0.6139
  473MOL0     C63764   7.260   1.583   5.981 -0.6085 -0.1515  0.1529
  473MOL0    Cl63765   7.235   1.482   5.837 -0.2433  0.0812  0.0010
  473MOL0     C63766   8.107   1.402   6.211 -0.5822  1.2167  1.1031
  473MOL0     C63767   8.229   1.417   6.274  0.8593  0.0043 -0.3853
  473MOL0     O63768   8.362   1.549   6.515  0.5117 -0.5286 -0.2256
  473MOL0     C63769   8.716   1.536   6.412  0.1782  0.1745 -0.0331
  473MOL0     C63770   8.844   1.542   6.472 -0.4914  0.5556  1.0692
  473MOL0     N63771   9.358   1.830   6.975  0.3694  0.1602 -0.1872
  473MOL0     N63772   9.459   1.905   6.938  0.0907  0.5223  0.0072
  473MOL0     C63773  10.208   1.914   6.366 -0.5307 -0.8041 -0.7026
  473MOL0     C63774  10.219   1.774   6.349  0.2132  0.8616 -0.2053
  473MOL0     C63775  10.252   1.334   6.561 -0.5782 -0.0953  0.0408
  473MOL0     C63776  10.370   1.281   6.516 -0.0223  0.9036  0.5785
  473MOL0     C63777  10.395   1.149   6.529 -0.5769 -0.1904 -0.7102
  473MOL0     C63778  10.294   1.062   6.574  0.2566  0.8147  0.1767
  473MOL0     O63779  10.322   0.930   6.572 -0.4903 -0.0559  0.0283
  473MOL0     C63780  10.303   0.843   6.690 -0.2437  0.0684 -0.4369
  473MOL0     C63781  10.368   0.707   6.675  0.7276 -0.3431  0.0939
  473MOL0     C63782  10.513   0.712   6.725  0.7829  0.7303 -0.6226
  473MOL0     C63783  10.590   0.582   6.729  0.0333  0.4740  0.1652
  473MOL0     C63784  10.527   0.457   6.775  0.6104 -0.4778 -0.0060
  473MOL0     C63785  10.467   0.359   6.810  0.4797  0.5607 -0.1363
  473MOL0     C63786  10.165   1.116   6.602 -0.0068  0.2982  0.0274
  473MOL0     C63787  10.155   1.250   6.604 -0.3614 -0.4860  0.4787
  473MOL0     H63788  10.335   1.702   6.662  2.2595  0.5061 -1.9817
  473MOL0     H63789  10.266   1.922   6.700  0.5354 -1.2770  0.1576
  473MOL0     H63790  10.228   2.287   6.473  0.4378 -0.5423 -0.1718
  473MOL0     H63791  10.208   2.180   6.335 -1.2920 -0.0727 -0.0320
  473MOL0     H63792  10.025   2.330   6.438 -1.2422 -0.7155 -1.6831
  473MOL0     H63793   9.986   2.209   6.332 -0.9159  0.4209 -0.0956
  473MOL0     H63794   9.929   2.050   6.527  2.9568 -0.1363 -6.0194
  473MOL0     H63795   9.977   2.184   6.637 -1.5815  2.0827  0.1569
  473MOL0     H63796   9.798   2.331   6.559 -0.2300  0.0280  1.9108
  473MOL0     H63797   9.741   2.227   6.433 -1.7017  1.5342  0.2055
  473MOL0     H63798   9.695   2.052   6.602  1.8726  0.0653  2.3389
  473MOL0     H63799   9.747   2.163   6.730  0.0131  0.3398  1.4107
  473MOL0     H63800   9.566   2.323   6.670 -0.8520  0.5397  0.3934
  473MOL0     H63801   9.540   2.249   6.517  1.1089  2.1435  0.1852
  473MOL0     H63802   9.360   2.186   6.670  0.7158  3.5296  1.9998
  473MOL0     H63803   9.459   2.050   6.623 -1.9695 -1.9241  3.5592
  473MOL0     H63804   9.469   2.221   6.884  1.3576  0.7280 -0.0739
  473MOL0     H63805   9.593   2.110   6.865 -0.1110  0.6478 -0.6372
  473MOL0     H63806   9.208   2.106   6.886 -1.4381 -0.4002 -0.8999
  473MOL0     H63807   9.109   1.850   7.096  0.0161  2.6680  0.1601
  473MOL0     H63808   9.032   1.935   6.966 -0.0906  0.5474  1.7497
  473MOL0     H63809   8.998   1.674   6.949  0.2267 -1.1864  0.5824
  473MOL0     H63810   9.158   1.663   6.879  1.3961  0.9832  1.7071
  473MOL0     H63811   9.072   1.879   6.742  0.0370 -0.3469 -0.6626
  473MOL0     H63812   8.920   1.821   6.784 -0.6497 -2.9063 -0.7301
  473MOL0     H63813   9.142   1.647   6.659  0.0745  1.1092 -2.0989
  473MOL0     H63814   9.028   1.721   6.567  3.0053  1.3092  0.7419
  473MOL0     H63815   8.749   1.469   6.791  1.4275  0.9385 -0.3603
  473MOL0     H63816   8.421   1.531   6.739 -2.1942 -1.0099 -2.4026
  473MOL0     H63817   8.451   1.367   6.686  1.8361 -0.6647  1.0122
  473MOL0     H63818   8.542   1.435   6.828 -0.2193  2.2296  0.5518
  473MOL0     H63819   8.397   1.613   6.070  3.3261 -1.8624  2.2532
  473MOL0     H63820   8.186   1.569   5.927  2.3344 -0.0667 -0.1618
  473MOL0     H63821   7.964   1.600   5.883  0.3624 -0.3334 -1.0798
  473MOL0     H63822   8.029   1.442   5.819 -0.2149  0.3561 -0.2788
  473MOL0     H63823   7.804   1.502   5.732 -0.6284  2.6107  0.2553
  473MOL0     H63824   7.815   1.355   5.823 -0.0930  0.3448  0.8921
  473MOL0     H63825   7.707   1.459   6.017  0.9721 -2.2873  0.1690
  473MOL0     H63826   7.603   1.471   5.876 -0.0469 -1.7636  2.7409
  473MOL0     H63827   7.776   1.675   6.021  1.3078 -1.6239 -0.6139
  473MOL0     H63828   7.736   1.704   5.863 -1.8010  2.3432  1.2637
  473MOL0     H63829   7.506   1.706   5.876  0.4129  1.9077 -0.3618
  473MOL0     H63830   7.569   1.812   5.987 -0.2744  0.1720 -2.0474
  473MOL0     H63831   7.544   1.624   6.170 -0.4166 -1.3107  1.1777
  473MOL0     H63832   7.419   1.753   6.117 -0.3496 -0.3592 -0.8505
  473MOL0     H63833   7.323   1.548   6.180 -1.5999 -1.8276 -0.6102
  473MOL0     H63834   7.417   1.461   6.049  1.0322  0.0779 -0.9431
  473MOL0     H63835   7.268   1.680   5.932  1.4126 -1.2287 -1.8297
  473MOL0     H63836   7.167   1.596   6.038 -2.3029  2.8572 -2.8890
  473MOL0     H63837   8.026   1.338   6.245  0.1286 -3.2995 -4.2733
  473MOL0     H63838   8.225   1.384   6.377 -3.1441 -0.1166 -0.4183
  473MOL0     H63839   8.706   1.549   6.305  0.8982 -1.7142 -0.3742
  473MOL0     H63840   8.937   1.556   6.417 -1.8156  0.7608 -1.2668
  473MOL0     H63841  10.167   1.967   6.281 -3.5241 -0.6569  0.7036
  473MOL0     H63842  10.182   1.729   6.257 -2.3976  3.3810 -0.5304
  473MOL0     H63843  10.450   1.345   6.481 -0.0515  1.8524  2.1472
  473MOL0     H63844  10.492   1.110   6.502 -1.4499 -2.7908 -0.3220
  473MOL0     H63845  10.334   0.874   6.790 -1.6011 -3.3930  1.1948
  473MOL0     H63846  10.197   0.823   6.705 -0.7226  3.3006  1.3475
  473MOL0     H63847  10.367   0.671   6.572  2.3848 -1.4123  0.4170
  473MOL0     H63848  10.313   0.627   6.726  1.6134 -1.5078 -0.7254
  473MOL0     H63849  10.516   0.752   6.827 -1.9487 -0.7741  0.1298
  473MOL0     H63850  10.566   0.783   6.660  1.8707 -0.7250 -1.3713
  473MOL0     H63851  10.681   0.598   6.787  0.5209  0.5487 -0.6101
  473MOL0     H63852  10.618   0.558   6.627 -1.3213  1.3960 -0.4544
  473MOL0     H63853  10.411   0.278   6.851 -0.9535  1.4256 -0.3150
  473MOL0     H63854  10.077   1.057   6.628 -2.4428  3.7853  0.3400
  473MOL0     H63855  10.061   1.281   6.648 -1.9237 -1.1428 -2.1964
  474MOL0     O63856   3.787   5.971   0.898  0.5899  0.5859  0.8518
  474MOL0     C63857   3.717   6.008   0.994 -0.3401  0.0985  0.7703
  474MOL0     O63858   3.706   6.132   1.034  0.8013  0.6454  0.7186
  474MOL0     C63859   3.781   6.224   0.976  0.8909 -0.6647  0.5445
  474MOL0     C63860   3.922   6.207   0.954 -0.2399  0.1720 -1.1610
  474MOL0     C63861   3.993   6.304   0.898  0.6556  0.1636  0.0256
  474MOL0     C63862   3.934   6.426   0.870  0.8738 -0.3412 -0.2662
  474MOL0     O63863   3.994   6.539   0.823  0.7108 -1.0861  0.5436
  474MOL0     C63864   4.123   6.579   0.879 -0.1667  0.5759  0.6059
  474MOL0     C63865   4.089   6.681   0.986 -0.4378  0.0810  0.1699
  474MOL0     C63866   4.047   6.619   1.125  0.8805  0.0193 -0.0453
  474MOL0     C63867   4.163   6.547   1.197 -0.0029  0.1382 -0.4127
  474MOL0     C63868   4.115   6.466   1.322 -0.4647 -0.9300  0.4323
  474MOL0     C63869   4.042   6.351   1.279 -0.1086  1.0044  0.5816
  474MOL0     C63870   3.988   6.277   1.405  0.4081 -0.5695 -0.4085
  474MOL0     C63871   3.899   6.161   1.361  0.3881  0.3402 -0.5393
  474MOL0     N63872   3.821   6.132   1.482 -0.6511 -0.6118 -0.2949
  474MOL0     C63873   3.871   6.062   1.585 -0.1459  0.0138  0.5284
  474MOL0     C63874   3.777   6.059   1.684  0.4830  0.1730 -0.5618
  474MOL0     C63875   3.774   5.975   1.811  0.1403  0.5513 -0.0716
  474MOL0     C63876   3.628   5.913   1.846  0.0140  0.5876 -1.1988
  474MOL0     C63877   3.594   5.815   1.734  0.0236 -0.1168 -1.0980
  474MOL0     C63878   3.458   5.749   1.761  0.6428 -0.8245  0.0824
  474MOL0     O63879   3.463   5.628   1.846 -0.2896 -0.0108  0.8836
  474MOL0     C63880   3.343   5.553   1.863  0.5199 -0.5076  1.2100
  474MOL0     C63881   3.250   5.533   1.766 -0.8559 -0.6563  0.6742
  474MOL0     C63882   3.131   5.466   1.797  0.2570  0.4509  0.0299
  474MOL0     C63883   3.038   5.437   1.684  0.5896 -0.4348 -0.3224
  474MOL0     C63884   3.095   5.423   1.930 -0.4930  0.2746 -0.1150
  474MOL0     C63885   2.974   5.351   1.964 -1.1378  0.1115 -1.3720
  474MOL0     O63886   2.989   5.289   2.082  0.4305 -0.1636  0.5556
  474MOL0     C63887   2.888   5.219   2.141  0.0819 -0.0122 -0.2062
  474MOL0     C63888   2.770   5.282   2.178  1.0900  0.5898  0.8264
  474MOL0     C63889   2.674   5.208   2.252 -0.1672 -0.0074 -0.3085
  474MOL0     C63890   2.705   5.074   2.294 -0.1557 -0.0385 -1.5107
  474MOL0     O63891   2.623   4.986   2.355  0.2330 -0.0206  0.6215
  474MOL0     C63892   2.480   4.988   2.320 -0.2108 -0.6303 -0.3224
  474MOL0     C63893   2.414   4.850   2.364  0.7107 -0.6644  0.3627
  474MOL0     C63894   2.503   4.740   2.326 -0.1851  0.6941  0.4478
  474MOL0     C63895   2.446   4.600   2.314 -0.6602  0.9341  0.4162
  474MOL0     C63896   2.552   4.495   2.316 -0.0948  0.4160  0.4167
  474MOL0     C63897   2.592   4.451   2.178  0.3383 -1.6095  0.7897
  474MOL0     C63898   2.494   4.378   2.095 -0.2304 -0.6795 -0.1255
  474MOL0     C63899   2.548   4.281   1.992 -0.2848  0.2724 -0.4414
  474MOL0    Cl63900   2.620   4.366   1.854 -0.5673 -0.6207  0.1124
  474MOL0     C63901   2.838   5.027   2.271 -0.0794  0.1758  0.5604
  474MOL0     C63902   2.927   5.093   2.190 -0.0814  0.6513  0.7369
  474MOL0     O63903   2.871   5.362   1.900  0.5706 -0.0006  1.0799
  474MOL0     C63904   3.195   5.444   2.028  0.3070  0.5605 -0.4261
  474MOL0     C63905   3.315   5.507   1.994  0.1576  0.3201  0.2265
  474MOL0     N63906   3.672   6.133   1.644  0.4194  0.0264  0.8353
  474MOL0     N63907   3.697   6.171   1.520  0.2364 -0.2723 -0.6732
  474MOL0     C63908   3.800   6.449   0.890 -0.1462 -0.1686  0.3059
  474MOL0     C63909   3.723   6.344   0.939  0.4778  0.3938 -0.0655
  474MOL0     C63910   3.648   5.908   1.083 -0.1486  0.1973  1.1855
  474MOL0     C63911   3.600   5.950   1.209 -0.1158 -0.3987 -0.6762
  474MOL0     C63912   3.558   5.862   1.299  0.3715  0.8289 -0.5149
  474MOL0     C63913   3.563   5.717   1.272 -0.6719  0.3893  0.1287
  474MOL0     O63914   3.515   5.631   1.368  0.3824 -0.7850 -0.4578
  474MOL0     C63915   3.589   5.513   1.395  0.1185  0.5680 -0.3339
  474MOL0     C63916   3.514   5.384   1.363  0.4497 -0.2893  0.8233
  474MOL0     C63917   3.375   5.370   1.428 -1.1517  0.0979 -0.7868
  474MOL0     C63918   3.280   5.265   1.380  0.0570  0.3571 -0.7645
  474MOL0     C63919   3.351   5.142   1.367 -0.9108 -0.2916  0.4255
  474MOL0     C63920   3.401   5.041   1.333 -0.2164 -1.2505 -0.5030
  474MOL0     C63921   3.601   5.680   1.149 -0.7208  1.2130 -0.0077
  474MOL0     C63922   3.662   5.774   1.055 -0.5963 -0.3212 -0.0819
  474MOL0     H63923   3.967   6.116   0.992 -0.8378 -0.0555 -0.9720
  474MOL0     H63924   4.096   6.273   0.882 -0.0954 -1.8717 -1.3042
  474MOL0     H63925   4.184   6.494   0.911  1.1454  1.5587  0.8220
  474MOL0     H63926   4.177   6.629   0.798  0.2647 -0.7783  0.0283
  474MOL0     H63927   4.179   6.738   1.011 -1.1798  1.7859 -0.8382
  474MOL0     H63928   4.017   6.758   0.957 -2.0165 -0.9816  1.1421
  474MOL0     H63929   4.036   6.707   1.189  2.8382  1.4345 -1.5160
  474MOL0     H63930   3.960   6.553   1.122  0.2554  0.8052  0.4127
  474MOL0     H63931   4.218   6.477   1.134  0.8635  0.8065 -0.4163
  474MOL0     H63932   4.226   6.630   1.230  0.0183 -0.1663  0.3435
  474MOL0     H63933   4.205   6.429   1.372  0.9215  1.9214  0.2517
  474MOL0     H63934   4.063   6.530   1.394 -0.1586  1.6497 -1.4721
  474MOL0     H63935   3.954   6.379   1.221 -0.5711 -2.5265 -0.6866
  474MOL0     H63936   4.097   6.282   1.215  0.1971  0.7591  1.1057
  474MOL0     H63937   4.068   6.248   1.473 -2.4362  3.0891  5.3190
  474MOL0     H63938   3.917   6.342   1.458 -2.1445 -2.5267 -1.2173
  474MOL0     H63939   3.964   6.080   1.327  1.1185 -0.9791  3.4873
  474MOL0     H63940   3.824   6.186   1.286 -1.2877  1.6705  1.4628
  474MOL0     H63941   3.966   6.011   1.589  0.4306  1.0367  0.1363
  474MOL0     H63942   3.849   5.896   1.794  1.0774  0.8353  2.3392
  474MOL0     H63943   3.815   6.036   1.892  1.6393  0.4984 -0.7475
  474MOL0     H63944   3.549   5.985   1.869 -0.8331 -0.9129  0.9668
  474MOL0     H63945   3.640   5.858   1.940 -0.0402 -0.4226 -1.7598
  474MOL0     H63946   3.659   5.732   1.707 -1.9207 -0.7717 -4.4118
  474MOL0     H63947   3.595   5.880   1.646 -1.4246  1.7870  0.2080
  474MOL0     H63948   3.389   5.742   1.676 -0.2778  1.2264  0.6050
  474MOL0     H63949   3.403   5.824   1.818 -1.4404 -0.8641 -1.7451
  474MOL0     H63950   3.280   5.557   1.665  2.3567  0.6186  1.7802
  474MOL0     H63951   3.022   5.329   1.686  1.7696 -0.6263 -0.2917
  474MOL0     H63952   2.943   5.487   1.704 -0.4287 -1.2432 -2.8037
  474MOL0     H63953   3.084   5.472   1.592  0.4080  2.0291  0.4633
  474MOL0     H63954   2.748   5.380   2.137 -4.1314  0.2494  2.0301
  474MOL0     H63955   2.584   5.259   2.284  1.0724  0.8313  2.1117
  474MOL0     H63956   2.428   5.064   2.378  1.5386  0.4655 -0.1403
  474MOL0     H63957   2.472   5.005   2.212  1.5835 -2.8241 -0.8787
  474MOL0     H63958   2.406   4.846   2.473 -1.5748 -4.0494  0.2346
  474MOL0     H63959   2.314   4.851   2.318  0.0725  1.3502  1.6548
  474MOL0     H63960   2.584   4.743   2.400 -1.4235 -0.3499  1.9093
  474MOL0     H63961   2.527   4.762   2.222 -3.7101  3.5812  0.0834
  474MOL0     H63962   2.392   4.578   2.407 -2.6239 -4.2994 -1.5697
  474MOL0     H63963   2.384   4.577   2.227 -0.1450 -1.8532  0.6682
  474MOL0     H63964   2.510   4.414   2.376  3.1135 -1.5089  0.3319
  474MOL0     H63965   2.651   4.519   2.356  0.6473  0.0190 -1.0746
  474MOL0     H63966   2.638   4.524   2.111 -0.9779 -0.7408  0.8048
  474MOL0     H63967   2.680   4.392   2.205  1.6146 -0.0925  0.1303
  474MOL0     H63968   2.414   4.446   2.063  1.0388  2.3231  2.4653
  474MOL0     H63969   2.440   4.308   2.160  0.8682 -0.3568  1.1893
  474MOL0     H63970   2.474   4.205   1.966  0.6030 -0.5137 -0.7685
  474MOL0     H63971   2.624   4.222   2.045 -1.9980 -1.4281  0.2302
  474MOL0     H63972   2.868   4.929   2.308 -3.7463 -1.7027 -0.9628
  474MOL0     H63973   3.017   5.043   2.156 -0.1052  0.7660  0.5086
  474MOL0     H63974   3.183   5.400   2.126  1.1772  1.4756  0.1140
  474MOL0     H63975   3.390   5.521   2.071  1.4954  3.8029 -1.4951
  474MOL0     H63976   3.765   6.545   0.852  1.1782  0.1260 -0.2030
  474MOL0     H63977   3.622   6.373   0.964 -0.2859 -1.0992 -1.2600
  474MOL0     H63978   3.588   6.057   1.227 -3.7964 -0.5147 -1.6345
  474MOL0     H63979   3.524   5.891   1.398 -0.6615 -3.4395  0.5859
  474MOL0     H63980   3.680   5.492   1.338  0.1988 -2.1900  0.6374
  474MOL0     H63981   3.610   5.508   1.503 -3.9615 -0.9182  0.5833
  474MOL0     H63982   3.576   5.296   1.382  2.0398  0.2379 -1.6034
  474MOL0     H63983   3.503   5.386   1.255 -0.4613  2.9428  0.8766
  474MOL0     H63984   3.320   5.463   1.410  1.3727  1.5676 -1.3761
  474MOL0     H63985   3.390   5.371   1.537  2.9003  0.4936 -1.2061
  474MOL0     H63986   3.227   5.297   1.290 -1.5785 -0.8198 -0.2559
  474MOL0     H63987   3.208   5.249   1.461  1.4383  2.9369  1.1578
  474MOL0     H63988   3.435   4.941   1.314 -2.1365 -1.9193 -0.6635
  474MOL0     H63989   3.588   5.576   1.122  2.2557  0.5004  0.9722
  474MOL0     H63990   3.691   5.738   0.957 -3.4686 -2.7256 -0.1725
  475MOL0     O63991  10.292  11.380   6.439  0.3598 -0.4784  0.2240
  475MOL0     C63992  10.280  11.453   6.342 -0.1572 -0.7400  0.1683
  475MOL0     O63993  10.392  11.521   6.295 -0.3604  1.0493 -0.4673
  475MOL0     C63994  10.496  11.552   6.380  0.1278  0.1605 -0.6692
  475MOL0     C63995  10.574  11.441   6.442 -1.1309 -0.8224 -0.1034
  475MOL0     C63996  10.681  11.471   6.530 -1.0976  0.5530  0.0592
  475MOL0     C63997  10.717  11.605   6.560  0.7817 -0.3066  0.6071
  475MOL0     O63998  10.813  11.638   6.643  0.1843  0.3927 -0.0074
  475MOL0     C63999  10.839  11.555   6.757  0.4122 -0.2813  0.3712
  475MOL0     C64000  10.963  11.479   6.737 -1.0798  0.1805  1.4573
  475MOL0     C64001  11.020  11.385   6.849  0.2194 -0.8402  0.1529
  475MOL0     C64002  11.148  11.304   6.795 -0.1171 -0.0639 -0.2377
  475MOL0     C64003  11.190  11.194   6.889  0.3170 -0.1539 -0.2047
  475MOL0     C64004  11.085  11.066   6.878 -0.5550  0.1840 -0.2641
  475MOL0     C64005  11.114  10.948   6.959 -1.7699  0.9229  0.2041
  475MOL0     C64006  11.220  10.871   6.890 -0.3359  1.0071  0.7428
  475MOL0     N64007  11.172  10.768   6.783  0.8766 -0.4020  0.7510
  475MOL0     C64008  11.082  10.659   6.800 -0.4315  0.0166 -0.3906
  475MOL0     C64009  11.073  10.599   6.681  0.2942  0.4019  0.2697
  475MOL0     C64010  10.990  10.485   6.638  1.8546 -0.0356  0.5141
  475MOL0     C64011  10.866  10.539   6.558  0.7152  0.2750  0.0511
  475MOL0     C64012  10.891  10.596   6.414  0.1774 -0.3059  0.0458
  475MOL0     C64013  10.953  10.490   6.321  0.4527  0.1709 -0.9273
  475MOL0     O64014  10.934  10.516   6.182  0.2524  0.6093  0.8988
  475MOL0     C64015  11.002  10.619   6.123  0.6568 -0.3002 -0.8039
  475MOL0     C64016  11.102  10.689   6.192  0.3338 -0.2148 -0.5795
  475MOL0     C64017  11.177  10.797   6.143  0.3564  0.3960  0.8307
  475MOL0     C64018  11.265  10.869   6.239 -0.3033 -0.5741  0.7771
  475MOL0     C64019  11.134  10.845   6.012  0.1093  1.0303  0.5944
  475MOL0     C64020  11.186  10.970   5.946 -0.3174 -0.3209 -0.1533
  475MOL0     O64021  11.260  11.056   6.020  0.0162 -0.4093 -0.7386
  475MOL0     C64022  11.329  11.151   5.955  1.0850 -0.2211 -0.3049
  475MOL0     C64023  11.452  11.124   5.893  0.3738 -0.3186  0.0180
  475MOL0     C64024  11.537  11.234   5.845 -0.4497  0.3367 -1.9496
  475MOL0     C64025  11.488  11.366   5.842  0.3472  0.6963  0.0611
  475MOL0     O64026  11.574  11.465   5.795 -0.1121  0.2498 -0.3322
  475MOL0     C64027  11.552  11.594   5.865 -0.2496 -0.1602 -0.2810
  475MOL0     C64028  11.602  11.593   6.008  1.1290  0.8799 -0.0026
  475MOL0     C64029  11.751  11.584   6.033 -0.9054  0.3109  0.6833
  475MOL0     C64030  11.767  11.612   6.176 -0.5982  0.1327 -0.9386
  475MOL0     C64031  11.918  11.590   6.200 -0.6338  0.0045 -0.1845
  475MOL0     C64032  11.957  11.605   6.354 -0.4044  0.4806 -0.7624
  475MOL0     C64033  12.097  11.561   6.383  0.4956  0.7628 -0.6148
  475MOL0     C64034  12.144  11.598   6.520 -0.3916 -0.9499  1.4607
  475MOL0    Cl64035  12.018  11.608   6.651 -0.4645  0.2958  0.2847
  475MOL0     C64036  11.349  11.384   5.881 -0.3719  0.4861 -0.2042
  475MOL0     C64037  11.280  11.285   5.949  0.3958 -0.1436  0.7889
  475MOL0     O64038  11.148  10.995   5.831 -0.1805 -0.5018  0.0021
  475MOL0     C64039  11.036  10.773   5.939  0.0365 -0.9438 -1.4027
  475MOL0     C64040  10.969  10.667   5.997 -0.1605 -0.2855  0.8824
  475MOL0     N64041  11.142  10.678   6.589  0.1907 -0.8200  0.2781
  475MOL0     N64042  11.194  10.772   6.651  0.2995  0.1848 -0.6967
  475MOL0     C64043  10.649  11.708   6.492  0.7226  1.5200  0.7630
  475MOL0     C64044  10.534  11.683   6.406 -0.8564 -0.4362 -0.4992
  475MOL0     C64045  10.151  11.451   6.280 -0.7458  0.2450 -0.3068
  475MOL0     C64046  10.120  11.537   6.172 -0.5105 -0.4445 -0.6206
  475MOL0     C64047   9.988  11.557   6.139 -0.2905 -0.9991 -0.6100
  475MOL0     C64048   9.888  11.478   6.183  0.7205  0.6288  1.5539
  475MOL0     O64049   9.762  11.503   6.127 -0.0648 -1.1670 -0.0869
  475MOL0     C64050   9.657  11.425   6.167  0.2183  0.1862 -0.4782
  475MOL0     C64051   9.525  11.466   6.106 -0.1938  0.2842  1.0839
  475MOL0     C64052   9.408  11.379   6.157 -0.2695 -0.0887  0.2785
  475MOL0     C64053   9.283  11.410   6.074 -0.3859 -0.1603 -0.0490
  475MOL0     C64054   9.149  11.356   6.134 -0.6662  0.3986  0.0669
  475MOL0     C64055   9.047  11.309   6.175 -0.8045  0.1441 -0.0666
  475MOL0     C64056   9.918  11.384   6.280 -0.1537  0.4898  0.4411
  475MOL0     C64057  10.047  11.372   6.332  0.3551  0.1003 -0.4654
  475MOL0     H64058  10.558  11.334   6.429 -1.3811 -0.5900 -2.0077
  475MOL0     H64059  10.737  11.390   6.574 -0.2551  1.5986  0.9852
  475MOL0     H64060  10.853  11.620   6.844 -3.3194  1.1486  0.0894
  475MOL0     H64061  10.747  11.500   6.776  0.4007 -1.0210 -1.6028
  475MOL0     H64062  10.950  11.411   6.652 -1.6779  1.3114  0.6247
  475MOL0     H64063  11.033  11.557   6.707 -2.1701  0.7507  0.3211
  475MOL0     H64064  11.041  11.449   6.936 -1.1508  2.3685 -1.7138
  475MOL0     H64065  10.948  11.306   6.873 -0.1976 -0.1758  1.1803
  475MOL0     H64066  11.129  11.263   6.696 -3.9438  2.1805 -0.6366
  475MOL0     H64067  11.230  11.376   6.785  0.2683  0.2768  3.5505
  475MOL0     H64068  11.292  11.162   6.866  0.1117  1.8840 -4.8817
  475MOL0     H64069  11.195  11.238   6.989  1.8739 -0.1040 -0.2809
  475MOL0     H64070  10.990  11.103   6.918 -0.6632 -1.5387  1.2069
  475MOL0     H64071  11.071  11.035   6.774  0.8309  0.4649 -0.5477
  475MOL0     H64072  11.138  10.977   7.061 -0.0625 -1.3634  0.5268
  475MOL0     H64073  11.025  10.885   6.972 -1.7383  0.4843 -1.4975
  475MOL0     H64074  11.252  10.802   6.969 -0.8565  2.8833  2.6635
  475MOL0     H64075  11.296  10.938   6.850 -2.2450  3.6739  1.3508
  475MOL0     H64076  11.021  10.646   6.889  0.6988 -1.6283  0.1912
  475MOL0     H64077  11.033  10.406   6.575  2.2207 -0.6546  1.5158
  475MOL0     H64078  10.966  10.436   6.733  3.2651 -0.4849  0.6754
  475MOL0     H64079  10.808  10.621   6.602  1.2223  1.0517 -0.7006
  475MOL0     H64080  10.796  10.455   6.563 -0.1474  0.9015 -1.1182
  475MOL0     H64081  10.950  10.688   6.415  0.7320 -0.6228 -1.1905
  475MOL0     H64082  10.795  10.618   6.367  0.6089 -0.0758 -0.7424
  475MOL0     H64083  10.900  10.399   6.347 -0.7056  0.4997 -2.0418
  475MOL0     H64084  11.060  10.492   6.344  0.1484  0.1782  0.5840
  475MOL0     H64085  11.131  10.665   6.294  2.0749 -1.0004 -1.2241
  475MOL0     H64086  11.362  10.902   6.199 -1.7069  1.7448 -0.9935
  475MOL0     H64087  11.208  10.958   6.267  0.1274 -0.2353  0.5856
  475MOL0     H64088  11.299  10.809   6.325  6.8971 -1.6180 -2.0407
  475MOL0     H64089  11.506  11.030   5.902  0.9823  0.1988  4.8298
  475MOL0     H64090  11.639  11.206   5.820 -0.4625 -1.9762  0.1922
  475MOL0     H64091  11.610  11.671   5.812 -0.0559  0.8830  1.3601
  475MOL0     H64092  11.451  11.629   5.841  1.0781  3.0261 -1.8348
  475MOL0     H64093  11.573  11.692   6.045 -1.4802 -0.0819  0.7826
  475MOL0     H64094  11.556  11.507   6.059 -2.5506  3.4560  1.4379
  475MOL0     H64095  11.799  11.663   5.974 -0.1598 -2.3490 -2.5472
  475MOL0     H64096  11.801  11.497   5.992  0.6435  1.2120  0.5788
  475MOL0     H64097  11.732  11.714   6.193 -1.8964 -0.2787 -1.0299
  475MOL0     H64098  11.710  11.540   6.235 -0.6135  0.8272 -0.0862
  475MOL0     H64099  11.984  11.655   6.142  0.7606  0.5352  1.8817
  475MOL0     H64100  11.948  11.486   6.183 -0.9123 -0.6907  3.0050
  475MOL0     H64101  11.954  11.702   6.404  1.2121 -0.5000  1.3947
  475MOL0     H64102  11.886  11.542   6.408  0.4984  2.6983  3.4038
  475MOL0     H64103  12.165  11.592   6.303  0.5512  0.1934 -0.7966
  475MOL0     H64104  12.085  11.452   6.388  0.7795  0.7795  1.8946
  475MOL0     H64105  12.181  11.700   6.525 -0.0846 -0.8937 -0.8496
  475MOL0     H64106  12.222  11.525   6.547  1.1156  1.2779  3.5192
  475MOL0     H64107  11.290  11.471   5.854 -0.0112  0.3142 -1.6288
  475MOL0     H64108  11.183  11.310   5.992  0.8978 -0.2665  2.0645
  475MOL0     H64109  11.003  10.802   5.840  2.7522  1.3182 -1.7558
  475MOL0     H64110  10.884  10.627   5.945 -1.2358  1.9731  0.7702
  475MOL0     H64111  10.681  11.811   6.503 -2.4569  2.3505  4.1329
  475MOL0     H64112  10.481  11.773   6.377 -3.1181 -0.7279  2.3233
  475MOL0     H64113  10.181  11.609   6.119 -0.0468  0.1006  0.5953
  475MOL0     H64114   9.967  11.633   6.064  1.6518 -0.6305 -0.8218
  475MOL0     H64115   9.665  11.320   6.137 -1.5776 -0.6104  1.5454
  475MOL0     H64116   9.644  11.424   6.276  0.4209  0.1018 -0.4533
  475MOL0     H64117   9.540  11.463   5.998  2.2035  0.6251  1.3601
  475MOL0     H64118   9.508  11.570   6.135 -3.3120  0.9541 -2.2950
  475MOL0     H64119   9.384  11.398   6.262  0.0982 -0.7381  0.4887
  475MOL0     H64120   9.425  11.271   6.149 -0.4829 -0.3949  3.0164
  475MOL0     H64121   9.293  11.354   5.980 -1.5080 -2.3319  1.0487
  475MOL0     H64122   9.277  11.518   6.055  0.5613 -0.1178 -0.1611
  475MOL0     H64123   8.960  11.259   6.211 -2.3193  2.6096 -0.0221
  475MOL0     H64124   9.833  11.327   6.315  0.6286 -1.2133 -0.3382
  475MOL0     H64125  10.062  11.304   6.415  1.5111 -1.1711 -1.6618
  476MOL0     O64126   5.597   6.125   7.712  0.1736 -0.1407  0.0734
  476MOL0     C64127   5.678   6.034   7.738  0.1614  0.4106 -0.8312
  476MOL0     O64128   5.798   6.048   7.800 -0.7329  0.6520  0.7606
  476MOL0     C64129   5.843   6.174   7.841 -0.0089  0.2137  0.8577
  476MOL0     C64130   5.921   6.193   7.956  0.0091 -0.6283  1.2149
  476MOL0     C64131   5.990   6.310   7.977 -0.6481  1.1481 -1.0903
  476MOL0     C64132   5.980   6.423   7.892  0.5507 -0.5075  0.0687
  476MOL0     O64133   6.072   6.526   7.923  0.2412 -1.0649  0.0341
  476MOL0     C64134   6.083   6.627   7.826 -0.0523 -0.0140 -0.2648
  476MOL0     C64135   6.165   6.746   7.878  0.2376  0.0083 -0.5621
  476MOL0     C64136   6.159   6.870   7.797  0.6246  0.8437  0.3984
  476MOL0     C64137   6.223   6.983   7.872 -1.0547  1.0410 -0.5454
  476MOL0     C64138   6.250   7.120   7.813 -0.9286 -0.0288 -0.1564
  476MOL0     C64139   6.321   7.212   7.921  0.0060 -0.4632  0.6474
  476MOL0     C64140   6.387   7.327   7.833  0.3271  0.2331  0.1775
  476MOL0     C64141   6.505   7.399   7.901 -0.0529 -0.3313  1.1023
  476MOL0     N64142   6.474   7.478   8.021  0.3472 -0.1634  0.3615
  476MOL0     C64143   6.454   7.438   8.155 -1.1310  0.6389  0.3299
  476MOL0     C64144   6.446   7.553   8.222  0.1652  0.4717 -0.0916
  476MOL0     C64145   6.412   7.543   8.370  0.0622  0.8497  0.1385
  476MOL0     C64146   6.379   7.684   8.432 -0.7217  0.7680 -0.1299
  476MOL0     C64147   6.337   7.660   8.584  1.0277 -0.1091  0.8557
  476MOL0     C64148   6.282   7.790   8.638  0.3263  0.0813 -0.3393
  476MOL0     O64149   6.186   7.855   8.554  1.1598 -0.1412  0.2798
  476MOL0     C64150   6.117   7.966   8.593 -0.8092 -0.9458  0.2843
  476MOL0     C64151   6.080   8.068   8.499 -0.3001 -1.4914  1.0988
  476MOL0     C64152   6.012   8.186   8.532  0.5669  0.2761 -1.6282
  476MOL0     C64153   5.959   8.270   8.421 -0.3475  0.6097 -0.3016
  476MOL0     C64154   5.984   8.214   8.663 -0.2886 -0.4729 -0.0185
  476MOL0     C64155   5.917   8.333   8.707  0.7889 -0.7164  0.8291
  476MOL0     O64156   5.814   8.319   8.785  1.0713 -0.1041  0.1226
  476MOL0     C64157   5.747   8.442   8.798  0.0871  0.5903  0.7172
  476MOL0     C64158   5.736   8.490   8.927 -0.0851 -0.6055 -0.7861
  476MOL0     C64159   5.656   8.602   8.959 -0.7722  0.0076 -0.6311
  476MOL0     C64160   5.594   8.663   8.856  0.0382 -1.0519  0.3645
  476MOL0     O64161   5.529   8.776   8.875  0.1423 -0.7812  0.1048
  476MOL0     C64162   5.392   8.759   8.901  0.0846 -0.1228 -0.3925
  476MOL0     C64163   5.294   8.677   8.802 -0.7259  0.5690  0.5966
  476MOL0     C64164   5.159   8.670   8.869  0.8048 -0.1209  0.1824
  476MOL0     C64165   5.054   8.597   8.800 -0.4475 -0.9517  0.4384
  476MOL0     C64166   4.927   8.587   8.877  0.2140 -0.3685 -0.5959
  476MOL0     C64167   4.838   8.708   8.832  0.1913 -0.7761 -0.0387
  476MOL0     C64168   4.720   8.718   8.922 -0.0307 -0.4096  0.6251
  476MOL0     C64169   4.755   8.800   9.045 -0.1936 -0.1767  0.7837
  476MOL0    Cl64170   4.658   8.764   9.192  0.2471  0.0574 -0.2204
  476MOL0     C64171   5.605   8.606   8.727  0.5480 -0.1481  0.1965
  476MOL0     C64172   5.674   8.492   8.695  0.4245  0.1498 -0.3403
  476MOL0     O64173   5.969   8.437   8.658  0.1771  0.0436 -0.2948
  476MOL0     C64174   6.032   8.122   8.756 -0.3965  0.1106  0.7965
  476MOL0     C64175   6.104   8.007   8.723 -0.7030 -0.4764 -0.3312
  476MOL0     N64176   6.451   7.662   8.132 -0.9151  0.9502  0.3450
  476MOL0     N64177   6.471   7.614   8.012 -0.0296  0.6017  0.3804
  476MOL0     C64178   5.895   6.414   7.776 -0.4356  0.8731 -0.4430
  476MOL0     C64179   5.844   6.285   7.756  0.5177 -0.3789 -0.4994
  476MOL0     C64180   5.640   5.887   7.715 -0.7655 -0.5641  0.2554
  476MOL0     C64181   5.740   5.786   7.755  0.6977 -0.3406  0.0836
  476MOL0     C64182   5.733   5.657   7.711  0.4919 -0.5774  0.4698
  476MOL0     C64183   5.601   5.614   7.666 -0.0146 -0.7882  0.2986
  476MOL0     O64184   5.573   5.479   7.651  0.5111 -1.0574 -0.1701
  476MOL0     C64185   5.677   5.388   7.678 -0.0080  0.3979 -0.7879
  476MOL0     C64186   5.631   5.264   7.606  0.5006  1.2984 -0.3885
  476MOL0     C64187   5.493   5.217   7.661 -0.3487 -0.0245  0.4537
  476MOL0     C64188   5.427   5.082   7.602  0.9588  0.6116 -0.9193
  476MOL0     C64189   5.516   4.966   7.615 -0.3184  0.5940  0.7177
  476MOL0     C64190   5.599   4.888   7.641  0.8506  0.3788  0.7984
  476MOL0     C64191   5.497   5.702   7.649 -0.9210 -1.0438  0.6169
  476MOL0     C64192   5.520   5.835   7.660 -0.6764 -0.0010  0.3886
  476MOL0     H64193   5.926   6.104   8.018 -3.7958 -0.3338  2.1547
  476MOL0     H64194   6.052   6.314   8.065 -0.6448 -1.8063 -0.8393
  476MOL0     H64195   6.118   6.580   7.733  1.8163 -0.5637  0.6793
  476MOL0     H64196   5.986   6.667   7.793 -1.2995 -2.0741  0.6967
  476MOL0     H64197   6.126   6.777   7.976 -0.4723 -0.7467 -0.5892
  476MOL0     H64198   6.267   6.708   7.889 -1.7666 -7.9290 -2.6898
  476MOL0     H64199   6.195   6.837   7.700 -0.7347  0.3506  0.0366
  476MOL0     H64200   6.055   6.897   7.777  1.0140  1.5336 -0.8034
  476MOL0     H64201   6.174   6.999   7.968 -0.4457 -3.3439  0.7159
  476MOL0     H64202   6.324   6.948   7.896 -1.8351  0.9356  2.9887
  476MOL0     H64203   6.304   7.094   7.721  1.8323  1.1359  1.0165
  476MOL0     H64204   6.151   7.160   7.789 -2.2333 -3.8825 -2.0792
  476MOL0     H64205   6.248   7.257   7.989 -0.6816 -1.2467  0.4414
  476MOL0     H64206   6.398   7.157   7.975  1.9146  1.5295  0.0853
  476MOL0     H64207   6.400   7.297   7.729 -0.1177  1.3116 -0.2130
  476MOL0     H64208   6.315   7.409   7.824 -1.3771 -0.8784  2.5038
  476MOL0     H64209   6.559   7.451   7.822  1.5588  0.5644  2.7142
  476MOL0     H64210   6.566   7.318   7.942 -0.6296  0.3312  3.4077
  476MOL0     H64211   6.451   7.338   8.198 -0.8910  0.9620  1.1274
  476MOL0     H64212   6.327   7.475   8.377  0.6158  0.2632  1.2798
  476MOL0     H64213   6.500   7.504   8.420  0.7622 -2.2950 -3.1776
  476MOL0     H64214   6.313   7.742   8.367  0.5053  0.7027 -1.4900
  476MOL0     H64215   6.480   7.724   8.424  0.4829 -2.1885 -1.0551
  476MOL0     H64216   6.423   7.614   8.635  0.8557 -0.1950  1.0703
  476MOL0     H64217   6.266   7.579   8.598  1.2083 -0.2012  1.2519
  476MOL0     H64218   6.367   7.857   8.657 -0.5327  0.9073  0.7367
  476MOL0     H64219   6.222   7.761   8.725 -2.0183  1.0611 -1.5494
  476MOL0     H64220   6.099   8.042   8.395 -0.5194 -2.1196  1.2124
  476MOL0     H64221   5.961   8.215   8.326 -1.5558 -2.3950  1.2835
  476MOL0     H64222   5.856   8.297   8.443  0.7787  3.7967  1.7460
  476MOL0     H64223   6.004   8.363   8.387 -0.3691  0.7096 -0.0582
  476MOL0     H64224   5.790   8.447   9.011  2.8070 -0.3365 -2.3631
  476MOL0     H64225   5.651   8.630   9.064 -1.0986 -2.7670  0.1791
  476MOL0     H64226   5.377   8.723   9.003  0.1923  1.9549  0.4129
  476MOL0     H64227   5.353   8.861   8.908 -0.8701 -0.2063 -3.0137
  476MOL0     H64228   5.299   8.735   8.709  2.9353 -1.6400 -0.8053
  476MOL0     H64229   5.334   8.578   8.776  2.6907  1.2759  2.5641
  476MOL0     H64230   5.129   8.774   8.885  5.8735  1.9842 -1.8418
  476MOL0     H64231   5.178   8.640   8.972  1.1909  1.1540  0.5003
  476MOL0     H64232   5.036   8.636   8.700  1.6458 -1.4463 -0.1828
  476MOL0     H64233   5.099   8.497   8.795  1.1925 -0.1938 -0.6718
  476MOL0     H64234   4.940   8.575   8.985 -1.1592  0.8393 -0.2687
  476MOL0     H64235   4.887   8.489   8.846  1.8539 -1.7013  1.2891
  476MOL0     H64236   4.907   8.792   8.828 -0.0089 -0.6719 -1.6669
  476MOL0     H64237   4.789   8.696   8.735 -0.9588 -0.5036  0.4868
  476MOL0     H64238   4.668   8.624   8.945 -2.9655  0.9560  0.1512
  476MOL0     H64239   4.650   8.786   8.873  1.0431  1.2423  1.3088
  476MOL0     H64240   4.731   8.905   9.028  2.6878  0.5805  0.8114
  476MOL0     H64241   4.862   8.799   9.069 -0.2623  0.5507  1.1412
  476MOL0     H64242   5.548   8.642   8.641  1.8038  0.1724 -0.5304
  476MOL0     H64243   5.677   8.450   8.595  5.1619 -0.3277 -0.2132
  476MOL0     H64244   6.028   8.149   8.861 -0.4909  2.6393  0.1965
  476MOL0     H64245   6.153   7.966   8.810  1.1868 -2.7410 -2.3338
  476MOL0     H64246   5.885   6.492   7.700 -0.7733 -0.8709 -2.2806
  476MOL0     H64247   5.786   6.276   7.664  1.5058  1.5337 -1.3630
  476MOL0     H64248   5.830   5.816   7.807 -0.7182  2.5369  1.1014
  476MOL0     H64249   5.809   5.587   7.744  3.6289  2.0694 -0.6499
  476MOL0     H64250   5.775   5.418   7.640  0.5222 -0.6671 -0.3143
  476MOL0     H64251   5.674   5.362   7.784 -0.6935  2.0772 -0.3570
  476MOL0     H64252   5.694   5.176   7.626 -1.6703 -0.1522  0.4056
  476MOL0     H64253   5.624   5.295   7.501  0.9569  1.6642 -0.3142
  476MOL0     H64254   5.426   5.302   7.641  0.5544  0.9160  1.3103
  476MOL0     H64255   5.488   5.218   7.771 -2.5204  3.0051  0.4553
  476MOL0     H64256   5.396   5.086   7.497 -1.5524  3.1913 -0.2308
  476MOL0     H64257   5.334   5.069   7.659  0.8115 -0.3545 -1.3684
  476MOL0     H64258   5.675   4.827   7.686 -1.7924 -1.8223  2.6196
  476MOL0     H64259   5.403   5.667   7.606 -1.0387  0.6756 -0.6467
  476MOL0     H64260   5.434   5.899   7.642  0.4781  0.8492 -2.6592
  477MOL0     O64261   6.298   3.117   2.035  0.1217  0.3354  0.9454
  477MOL0     C64262   6.298   3.147   1.917  1.1727 -0.5428  0.4963
  477MOL0     O64263   6.234   3.258   1.862  0.7137  0.0404 -0.5167
  477MOL0     C64264   6.185   3.349   1.956  0.1205 -1.1948  0.6381
  477MOL0     C64265   6.051   3.381   1.928 -0.2654 -0.5282  0.7619
  477MOL0     C64266   5.996   3.484   1.994 -0.5757 -0.8842 -0.2121
  477MOL0     C64267   6.066   3.570   2.077 -0.1648 -0.1364 -0.1284
  477MOL0     O64268   6.004   3.673   2.145  0.4750  1.3072 -0.9803
  477MOL0     C64269   5.909   3.757   2.083  0.1027 -0.7233  0.0762
  477MOL0     C64270   5.989   3.843   1.995  0.0834  0.0885 -0.6392
  477MOL0     C64271   6.103   3.930   2.063  0.0186 -0.0920 -0.3447
  477MOL0     C64272   6.151   4.039   1.959  0.2767  0.7192 -0.1785
  477MOL0     C64273   6.217   3.971   1.839  0.3341  0.1177  0.2794
  477MOL0     C64274   6.252   4.088   1.736  0.4874  1.1011 -0.6071
  477MOL0     C64275   6.368   4.164   1.790 -0.0079  0.1673 -0.2571
  477MOL0     C64276   6.417   4.263   1.680 -0.3233  0.8928 -1.1394
  477MOL0     N64277   6.509   4.363   1.735  0.2365  0.1794 -0.2222
  477MOL0     C64278   6.643   4.351   1.716 -0.5917 -0.1801 -0.1663
  477MOL0     C64279   6.698   4.459   1.757  0.1135 -0.1306 -1.2914
  477MOL0     C64280   6.841   4.495   1.759 -0.1333 -0.3787  0.4217
  477MOL0     C64281   6.887   4.533   1.616 -0.2037 -0.2717 -0.2658
  477MOL0     C64282   7.036   4.557   1.600  0.6528 -0.4809 -0.0200
  477MOL0     C64283   7.070   4.700   1.644  0.0356 -0.9896  0.9196
  477MOL0     O64284   7.008   4.803   1.551  0.0290  0.5207 -0.6196
  477MOL0     C64285   7.058   4.923   1.532 -1.2551 -0.5998 -0.8913
  477MOL0     C64286   7.046   4.975   1.404  0.4635 -0.2098 -0.1620
  477MOL0     C64287   7.086   5.106   1.368 -0.6944  0.2437  0.2215
  477MOL0     C64288   7.084   5.128   1.219  0.1092 -0.1578 -0.4773
  477MOL0     C64289   7.131   5.200   1.466  0.8105  0.8327 -0.0280
  477MOL0     C64290   7.161   5.341   1.445  0.0622 -0.0776  0.9252
  477MOL0     O64291   7.188   5.417   1.561  0.0638 -0.3877 -0.1039
  477MOL0     C64292   7.217   5.557   1.527 -0.3861  0.4902 -0.6009
  477MOL0     C64293   7.345   5.597   1.466 -0.1006  0.0836 -0.3420
  477MOL0     C64294   7.378   5.726   1.445  0.0458 -0.3347 -0.3918
  477MOL0     C64295   7.297   5.831   1.481 -0.7202  0.0894 -0.6820
  477MOL0     O64296   7.355   5.956   1.461  0.3748 -0.1333 -0.1989
  477MOL0     C64297   7.315   6.046   1.566 -0.0933 -0.8193  0.1670
  477MOL0     C64298   7.408   6.170   1.558 -0.2570 -0.0587  0.0629
  477MOL0     C64299   7.551   6.143   1.606 -0.6646  0.1649 -0.8254
  477MOL0     C64300   7.644   6.268   1.588  0.8698  0.3593  0.6535
  477MOL0     C64301   7.756   6.247   1.679 -0.9144 -0.2527 -0.8724
  477MOL0     C64302   7.827   6.119   1.693  0.2571 -0.2977 -0.7800
  477MOL0     C64303   7.969   6.136   1.754  1.0848 -1.1719  0.2137
  477MOL0     C64304   8.038   6.003   1.743  0.0730 -0.0686  0.2660
  477MOL0    Cl64305   8.047   5.934   1.582 -0.1760 -0.2783 -0.5277
  477MOL0     C64306   7.171   5.798   1.534  0.7910  0.4704 -0.8759
  477MOL0     C64307   7.132   5.664   1.559  0.6571  0.0647 -0.1710
  477MOL0     O64308   7.170   5.382   1.332  0.1915  0.0704 -0.9199
  477MOL0     C64309   7.154   5.136   1.588  1.0702  0.5482  0.0677
  477MOL0     C64310   7.129   5.006   1.624 -0.4564  0.4938 -0.1787
  477MOL0     N64311   6.597   4.543   1.799 -0.6210 -0.2272  1.6137
  477MOL0     N64312   6.489   4.480   1.799  0.1255  0.4792  0.5829
  477MOL0     C64313   6.198   3.534   2.110  0.2889  0.1129 -0.8417
  477MOL0     C64314   6.262   3.426   2.048 -0.4324 -0.1745 -0.1826
  477MOL0     C64315   6.378   3.055   1.837 -0.3591 -0.1530  0.6721
  477MOL0     C64316   6.391   3.079   1.702 -0.1960  0.7377 -1.2739
  477MOL0     C64317   6.467   2.994   1.623  0.1618 -0.1421 -0.0431
  477MOL0     C64318   6.532   2.884   1.678  0.3386  0.8512 -0.2489
  477MOL0     O64319   6.610   2.789   1.614 -0.5848 -0.4360 -0.0150
  477MOL0     C64320   6.622   2.807   1.471  0.5920  1.3901  0.0126
  477MOL0     C64321   6.710   2.687   1.413 -0.2838  0.7199 -1.2185
  477MOL0     C64322   6.664   2.551   1.469 -0.8637 -0.2808 -0.0365
  477MOL0     C64323   6.744   2.488   1.580 -0.5848  0.3119  0.5462
  477MOL0     C64324   6.881   2.444   1.549  1.0269  0.3183  0.7591
  477MOL0     C64325   6.981   2.400   1.495 -1.2613  0.4268 -0.0504
  477MOL0     C64326   6.530   2.869   1.818 -0.9053  0.4965  0.2069
  477MOL0     C64327   6.463   2.955   1.896 -0.4800 -0.0214  0.0363
  477MOL0     H64328   6.002   3.320   1.852 -1.2177  1.2901 -0.1590
  477MOL0     H64329   5.891   3.506   1.979 -0.7948 -2.9822 -2.2851
  477MOL0     H64330   5.837   3.700   2.023 -2.7095  0.6154  1.9810
  477MOL0     H64331   5.856   3.804   2.166  0.3530 -0.2842 -0.0083
  477MOL0     H64332   6.049   3.774   1.934  4.2321 -1.3362  4.3808
  477MOL0     H64333   5.913   3.903   1.945  0.0139  0.7544  0.2452
  477MOL0     H64334   6.061   3.978   2.152  0.2564 -2.3857  1.0695
  477MOL0     H64335   6.178   3.853   2.082 -0.5276 -0.4625  0.3515
  477MOL0     H64336   6.074   4.107   1.924 -1.9730 -1.7873 -0.3881
  477MOL0     H64337   6.225   4.102   2.009  3.4019 -2.1113 -0.7878
  477MOL0     H64338   6.306   3.918   1.874 -1.9626 -2.7457  2.2706
  477MOL0     H64339   6.146   3.902   1.791  0.6321  0.8034 -1.2262
  477MOL0     H64340   6.272   4.040   1.640 -1.1221  2.0284 -1.4590
  477MOL0     H64341   6.169   4.158   1.721 -0.8896 -0.8878 -3.1303
  477MOL0     H64342   6.329   4.211   1.880 -0.3907 -0.3757 -0.1355
  477MOL0     H64343   6.457   4.108   1.819  0.6884  1.5931  0.4232
  477MOL0     H64344   6.327   4.306   1.634  0.6606  2.8897 -1.3215
  477MOL0     H64345   6.462   4.203   1.601 -0.9612 -1.1460 -0.0100
  477MOL0     H64346   6.711   4.270   1.691  0.2065 -0.3949  2.3771
  477MOL0     H64347   6.837   4.583   1.824 -2.5821  1.0228 -1.4636
  477MOL0     H64348   6.909   4.422   1.804  3.1651  0.2399 -3.0688
  477MOL0     H64349   6.835   4.620   1.574  1.5406  0.6459 -0.6049
  477MOL0     H64350   6.855   4.450   1.551 -3.0217 -0.1060  0.7965
  477MOL0     H64351   7.070   4.528   1.500 -2.0522 -3.6391 -0.1966
  477MOL0     H64352   7.092   4.491   1.668  1.0176 -2.5199 -2.1614
  477MOL0     H64353   7.177   4.714   1.625  0.0508 -3.1212 -0.9133
  477MOL0     H64354   7.043   4.714   1.749  0.4251 -0.9160  1.0116
  477MOL0     H64355   6.988   4.920   1.331 -1.0957 -0.7454  1.4028
  477MOL0     H64356   7.039   5.045   1.164  0.2760 -0.7686  0.3011
  477MOL0     H64357   7.040   5.223   1.188 -0.6330 -0.3246  0.0440
  477MOL0     H64358   7.190   5.112   1.198 -0.0750 -2.9584  0.3730
  477MOL0     H64359   7.418   5.519   1.447 -1.0600 -0.9123 -0.0306
  477MOL0     H64360   7.480   5.736   1.411 -0.6229 -1.4624 -3.0270
  477MOL0     H64361   7.213   6.077   1.541 -0.9514 -1.9854  2.0099
  477MOL0     H64362   7.328   6.006   1.667 -1.8484  0.7624  1.0677
  477MOL0     H64363   7.408   6.201   1.453  2.4758  1.9980  0.5417
  477MOL0     H64364   7.374   6.256   1.617 -1.5159 -1.0757  0.8744
  477MOL0     H64365   7.601   6.054   1.566 -0.6344 -0.3902  0.3928
  477MOL0     H64366   7.544   6.134   1.715  0.1489  0.1128 -0.7676
  477MOL0     H64367   7.677   6.283   1.484 -0.8521 -3.5275 -0.6412
  477MOL0     H64368   7.594   6.360   1.622  1.9129  0.9011  0.7611
  477MOL0     H64369   7.716   6.267   1.779  1.9688 -0.5478  0.4351
  477MOL0     H64370   7.833   6.320   1.652  0.0171 -1.1823 -0.7390
  477MOL0     H64371   7.765   6.071   1.769  0.1181  3.1720  1.5178
  477MOL0     H64372   7.837   6.067   1.597  1.2685  1.1776 -1.5134
  477MOL0     H64373   7.969   6.168   1.859  1.6231 -1.2064  0.2278
  477MOL0     H64374   8.025   6.212   1.698 -1.5219  1.6852  1.2030
  477MOL0     H64375   7.993   5.936   1.816 -1.7091  0.0545 -0.6565
  477MOL0     H64376   8.139   6.034   1.770  0.2264  1.1900 -1.5781
  477MOL0     H64377   7.089   5.868   1.550 -0.1534 -1.2571  3.1417
  477MOL0     H64378   7.033   5.650   1.600  0.4030  1.6722 -0.1549
  477MOL0     H64379   7.207   5.193   1.663  3.1328 -2.7564  1.3832
  477MOL0     H64380   7.161   4.976   1.723 -1.0442 -0.9896 -0.4198
  477MOL0     H64381   6.252   3.609   2.167  0.6185  1.4200 -2.8005
  477MOL0     H64382   6.353   3.384   2.091 -1.6844 -1.5508  1.2627
  477MOL0     H64383   6.334   3.163   1.662  2.6658  1.6178 -3.9177
  477MOL0     H64384   6.460   3.010   1.516 -2.1429  0.5526  0.1435
  477MOL0     H64385   6.522   2.812   1.427  0.6778  1.7734 -0.1472
  477MOL0     H64386   6.675   2.901   1.454  0.9135  1.0403 -0.9359
  477MOL0     H64387   6.807   2.720   1.450 -0.0132 -3.2362  2.3065
  477MOL0     H64388   6.702   2.678   1.304 -2.2441  3.8633 -1.4910
  477MOL0     H64389   6.660   2.483   1.383  0.9171 -0.9357  0.3463
  477MOL0     H64390   6.564   2.575   1.505 -0.8520  1.4476 -1.0172
  477MOL0     H64391   6.689   2.402   1.621 -0.7668 -0.8429 -1.9177
  477MOL0     H64392   6.748   2.550   1.669  0.4911 -1.1324  1.5554
  477MOL0     H64393   7.072   2.364   1.450 -0.2788  2.7087 -0.0462
  477MOL0     H64394   6.587   2.782   1.852 -2.1094 -0.9169 -1.2673
  477MOL0     H64395   6.465   2.928   2.001 -0.9722 -0.0059  0.0507
  478MOL0     O64396   0.090   2.985   9.381  0.1513  0.4000  0.1143
  478MOL0     C64397   0.135   2.870   9.387 -0.0940  0.7665  0.1882
  478MOL0     O64398   0.127   2.775   9.282  0.1099 -0.4425 -0.6867
  478MOL0     C64399   0.050   2.808   9.172 -0.2197  0.0867  0.1733
  478MOL0     C64400   0.115   2.761   9.059  0.3404 -0.5581  0.4045
  478MOL0     C64401   0.060   2.784   8.932  1.4731  0.3954  0.5180
  478MOL0     C64402  -0.061   2.852   8.922  0.0685 -0.0347 -0.4338
  478MOL0     O64403  -0.135   2.859   8.808  0.5754 -0.6584  0.0514
  478MOL0     C64404  -0.084   2.969   8.735 -0.0693 -0.1765  0.4365
  478MOL0     C64405  -0.205   3.023   8.644  0.0189  1.2653 -0.9388
  478MOL0     C64406  -0.163   3.115   8.530  1.4654 -0.2021  1.2265
  478MOL0     C64407  -0.296   3.187   8.478 -0.4616  0.0167 -0.4142
  478MOL0     C64408  -0.265   3.306   8.383  0.2278  0.2050  0.3032
  478MOL0     C64409  -0.207   3.270   8.246 -0.4263  1.0014 -0.3022
  478MOL0     C64410  -0.244   3.382   8.158 -0.5378  0.5694  0.8746
  478MOL0     C64411  -0.169   3.515   8.167  1.0146 -0.6305 -0.0995
  478MOL0     N64412  -0.215   3.593   8.044 -0.3586 -0.1096  0.1155
  478MOL0     C64413  -0.305   3.693   8.042 -0.1498  1.0954 -0.1015
  478MOL0     C64414  -0.304   3.738   7.909 -0.7411 -0.2756 -0.4482
  478MOL0     C64415  -0.400   3.845   7.859 -0.1583  0.0978 -0.4661
  478MOL0     C64416  -0.333   3.965   7.801 -0.7014  0.7650  0.1641
  478MOL0     C64417  -0.255   4.037   7.913 -0.6684 -0.3116  0.1966
  478MOL0     C64418  -0.169   4.153   7.863 -0.5328 -0.3819  0.2806
  478MOL0     O64419  -0.243   4.251   7.785  0.7219 -0.3869 -0.8103
  478MOL0     C64420  -0.312   4.353   7.845  0.3418 -1.4599  0.9710
  478MOL0     C64421  -0.440   4.337   7.913 -0.4376 -0.3565 -0.0032
  478MOL0     C64422  -0.527   4.438   7.938 -0.1079  0.0824 -0.8184
  478MOL0     C64423  -0.655   4.405   8.017 -0.9955 -0.8349 -0.4475
  478MOL0     C64424  -0.494   4.572   7.892 -0.4272  0.4064 -0.4534
  478MOL0     C64425  -0.587   4.685   7.915  0.5300  0.4836 -0.1819
  478MOL0     O64426  -0.588   4.781   7.821 -0.0770 -0.6556  0.5229
  478MOL0     C64427  -0.677   4.881   7.819 -0.2448 -0.6333 -1.2204
  478MOL0     C64428  -0.799   4.905   7.881 -0.1526  0.3964  0.3439
  478MOL0     C64429  -0.873   5.022   7.852  0.7747  0.5407 -0.2727
  478MOL0     C64430  -0.834   5.106   7.749  0.6367  0.0846  0.6796
  478MOL0     O64431  -0.897   5.221   7.700  0.4786  0.0432 -0.1048
  478MOL0     C64432  -1.047   5.207   7.702 -0.5123  0.6682 -0.5549
  478MOL0     C64433  -1.102   5.328   7.631 -0.4875 -0.7522 -0.0761
  478MOL0     C64434  -1.246   5.349   7.693 -0.1967 -0.3599  0.1088
  478MOL0     C64435  -1.318   5.476   7.633 -0.2349  0.2007 -0.4143
  478MOL0     C64436  -1.324   5.490   7.481 -0.9032  0.1088 -0.2438
  478MOL0     C64437  -1.393   5.373   7.413 -0.8721 -0.3383  0.5394
  478MOL0     C64438  -1.440   5.419   7.274 -0.4042  0.2907 -0.2154
  478MOL0     C64439  -1.505   5.303   7.200  0.4532  0.2174  0.2588
  478MOL0    Cl64440  -1.630   5.203   7.286 -0.2380 -0.2679  0.0748
  478MOL0     C64441  -0.713   5.093   7.687  0.3367  0.8887  0.2866
  478MOL0     C64442  -0.637   4.980   7.729  0.3165 -0.4992 -0.1846
  478MOL0     O64443  -0.653   4.696   8.019 -0.1625 -0.9062  0.0608
  478MOL0     C64444  -0.374   4.587   7.821  0.0477  0.0704  0.0310
  478MOL0     C64445  -0.281   4.483   7.797 -0.0720  0.0847  0.0215
  478MOL0     N64446  -0.218   3.654   7.838  0.1513 -0.3914 -0.1754
  478MOL0     N64447  -0.174   3.563   7.918 -0.8729  0.2032  0.2003
  478MOL0     C64448  -0.130   2.900   9.035 -0.3620  0.1262  1.4879
  478MOL0     C64449  -0.079   2.867   9.160 -0.7351 -0.5249  0.4059
  478MOL0     C64450   0.196   2.835   9.510  0.9934  0.5583  0.0019
  478MOL0     C64451   0.210   2.702   9.545 -0.4239 -0.0927  0.2223
  478MOL0     C64452   0.264   2.656   9.666  1.0355 -0.5399  0.7609
  478MOL0     C64453   0.307   2.751   9.761  0.6562 -0.4782 -0.0134
  478MOL0     O64454   0.369   2.716   9.868 -0.2282 -0.5089 -0.0322
  478MOL0     C64455   0.319   2.768   9.990 -0.7361 -0.3565 -0.3777
  478MOL0     C64456   0.381   2.698  10.109 -0.3702 -0.4210 -0.1671
  478MOL0     C64457   0.330   2.556  10.141  0.1932 -0.1576 -0.3588
  478MOL0     C64458   0.402   2.524  10.278 -0.4702 -0.1421 -0.2833
  478MOL0     C64459   0.360   2.384  10.296 -0.8172 -0.0323  0.8028
  478MOL0     C64460   0.309   2.268  10.316 -0.4417 -0.6995  0.1218
  478MOL0     C64461   0.301   2.889   9.720  0.1477 -0.7968 -0.3828
  478MOL0     C64462   0.247   2.932   9.602  0.2962  0.8300 -0.5473
  478MOL0     H64463   0.213   2.716   9.071  0.1395 -0.9706  0.5447
  478MOL0     H64464   0.105   2.733   8.847 -0.5285 -2.1326  0.8443
  478MOL0     H64465  -0.047   3.045   8.804 -0.9906  0.8184 -0.1369
  478MOL0     H64466  -0.004   2.940   8.666 -0.1983  3.6609 -1.5673
  478MOL0     H64467  -0.264   2.939   8.606  0.1898  1.7143 -2.2416
  478MOL0     H64468  -0.259   3.079   8.720 -0.8398 -0.1048 -0.4951
  478MOL0     H64469  -0.101   3.198   8.566  1.0142  0.3084  0.8658
  478MOL0     H64470  -0.113   3.065   8.447  0.0275  0.8559 -0.3645
  478MOL0     H64471  -0.360   3.113   8.430  1.5829 -0.9933 -1.6808
  478MOL0     H64472  -0.364   3.223   8.556 -1.8480 -1.2776 -0.9744
  478MOL0     H64473  -0.357   3.362   8.363 -0.7369 -1.9969 -1.9619
  478MOL0     H64474  -0.197   3.369   8.441  0.8565  0.8246 -1.0675
  478MOL0     H64475  -0.100   3.253   8.262  0.1581  2.9209 -1.8231
  478MOL0     H64476  -0.248   3.172   8.217  0.5593  1.1917 -2.5465
  478MOL0     H64477  -0.228   3.348   8.055  1.1963  0.8214  1.0426
  478MOL0     H64478  -0.352   3.403   8.160 -0.4761  0.8415  1.3247
  478MOL0     H64479  -0.061   3.505   8.152  0.5641 -0.6974 -4.4399
  478MOL0     H64480  -0.185   3.563   8.265  1.0660  1.2427 -0.9666
  478MOL0     H64481  -0.360   3.739   8.124 -1.7177 -1.9907  0.7383
  478MOL0     H64482  -0.466   3.796   7.787 -0.6288 -0.8659  0.5888
  478MOL0     H64483  -0.470   3.878   7.936  0.5214 -1.2208  0.7671
  478MOL0     H64484  -0.413   4.034   7.774  0.0472  1.7990  0.5222
  478MOL0     H64485  -0.267   3.935   7.719  0.8858  1.8599  0.9777
  478MOL0     H64486  -0.176   3.972   7.951 -1.1367 -1.7854 -1.1975
  478MOL0     H64487  -0.323   4.067   7.993  1.3165  3.0205  0.8389
  478MOL0     H64488  -0.089   4.106   7.805  0.3250  0.6096  0.6187
  478MOL0     H64489  -0.127   4.207   7.949  1.8318 -0.3155 -0.8516
  478MOL0     H64490  -0.468   4.234   7.933 -0.0601 -0.3878  0.3601
  478MOL0     H64491  -0.672   4.465   8.107 -1.8503  1.3396 -1.9598
  478MOL0     H64492  -0.734   4.432   7.946  0.0209  0.6793 -1.0319
  478MOL0     H64493  -0.666   4.299   8.042 -1.8338 -0.9043 -1.0781
  478MOL0     H64494  -0.848   4.833   7.946 -3.9136  2.4001  0.0310
  478MOL0     H64495  -0.968   5.049   7.897  0.5785  1.5691 -1.2606
  478MOL0     H64496  -1.065   5.106   7.664  2.3206 -0.1166  0.0110
  478MOL0     H64497  -1.074   5.210   7.808 -0.2770  2.2748 -0.5027
  478MOL0     H64498  -1.035   5.414   7.633 -1.1765 -0.2138  0.3127
  478MOL0     H64499  -1.119   5.293   7.529  0.4093 -1.8796  0.1430
  478MOL0     H64500  -1.233   5.379   7.797  0.1471 -0.3986  0.0768
  478MOL0     H64501  -1.313   5.264   7.676  0.2942 -0.5191 -1.1484
  478MOL0     H64502  -1.418   5.490   7.673 -1.3777  1.6417 -3.4430
  478MOL0     H64503  -1.262   5.559   7.675  0.9236  0.4429 -2.2904
  478MOL0     H64504  -1.228   5.508   7.431 -0.7908 -0.3178 -0.1767
  478MOL0     H64505  -1.371   5.583   7.446 -2.1002 -0.6702 -0.7867
  478MOL0     H64506  -1.322   5.290   7.412 -0.6902 -0.1990 -1.1666
  478MOL0     H64507  -1.483   5.343   7.467 -0.0879  0.3932  2.3319
  478MOL0     H64508  -1.356   5.446   7.210 -0.6648 -2.3265 -1.8160
  478MOL0     H64509  -1.503   5.506   7.291 -0.1921  0.3546  0.2467
  478MOL0     H64510  -1.425   5.242   7.157  0.2900 -0.3231  0.7245
  478MOL0     H64511  -1.566   5.345   7.119  1.0387  1.5057  0.4564
  478MOL0     H64512  -0.669   5.152   7.607 -0.0074 -0.1777 -0.7143
  478MOL0     H64513  -0.542   4.958   7.681  0.2293  0.5305 -0.8763
  478MOL0     H64514  -0.337   4.677   7.773  0.1232 -1.8964 -3.9699
  478MOL0     H64515  -0.198   4.501   7.729 -1.1600  0.7478 -1.1900
  478MOL0     H64516  -0.226   2.948   9.016 -1.4711 -2.8158 -1.1716
  478MOL0     H64517  -0.135   2.884   9.252  0.0203 -1.6963  1.1009
  478MOL0     H64518   0.183   2.622   9.477  1.6411  1.1985 -2.3364
  478MOL0     H64519   0.276   2.549   9.671 -0.7606 -0.7482  1.6446
  478MOL0     H64520   0.340   2.874  10.005  1.0831 -0.5800 -1.1157
  478MOL0     H64521   0.211   2.753   9.982 -1.0334  2.0559 -1.5337
  478MOL0     H64522   0.362   2.755  10.201 -1.4516 -0.7319 -0.1792
  478MOL0     H64523   0.488   2.696  10.088  0.0033 -2.6381  1.5783
  478MOL0     H64524   0.351   2.476  10.069  3.3550  1.0692 -0.9626
  478MOL0     H64525   0.221   2.556  10.150  0.2579 -0.0143  0.4878
  478MOL0     H64526   0.362   2.588  10.357 -2.8758 -2.2452  0.3767
  478MOL0     H64527   0.511   2.523  10.270 -0.5592 -1.0775 -1.9660
  478MOL0     H64528   0.267   2.173  10.343  0.7645 -1.3242 -0.1419
  478MOL0     H64529   0.331   2.969   9.788 -0.7962  0.0102 -0.8873
  478MOL0     H64530   0.257   3.039   9.586  3.7019  0.7080  0.0976
  479MOL0     O64531   7.931  11.134  11.483 -0.0710  0.2827  1.4188
  479MOL0     C64532   8.002  11.048  11.519  0.3937 -0.3934  0.9067
  479MOL0     O64533   7.969  10.911  11.513 -0.4854 -0.5951 -0.0719
  479MOL0     C64534   7.858  10.865  11.450 -0.5372 -0.2483 -0.0946
  479MOL0     C64535   7.835  10.731  11.469  0.1328 -0.5841 -0.7090
  479MOL0     C64536   7.740  10.667  11.386 -0.3007  0.2518 -0.2448
  479MOL0     C64537   7.662  10.735  11.297  0.3925  0.0749  0.2292
  479MOL0     O64538   7.571  10.659  11.220 -0.6211  0.2550  0.9050
  479MOL0     C64539   7.435  10.705  11.227  0.4915 -0.4688 -0.0379
  479MOL0     C64540   7.342  10.588  11.200  0.7776 -0.5973  0.4074
  479MOL0     C64541   7.200  10.630  11.158 -0.5216  0.5895  1.1018
  479MOL0     C64542   7.096  10.515  11.146  0.1319  0.3268 -0.7196
  479MOL0     C64543   7.075  10.440  11.275  0.2763 -0.6218  0.6445
  479MOL0     C64544   6.946  10.348  11.254 -0.1619  1.0271 -0.4710
  479MOL0     C64545   6.958  10.232  11.355  0.4524 -0.5303  0.1036
  479MOL0     C64546   6.832  10.160  11.370  0.3490  0.2299 -0.1671
  479MOL0     N64547   6.725  10.243  11.434  1.0917 -0.2814 -1.2793
  479MOL0     C64548   6.613  10.299  11.359 -1.4050 -0.8626 -0.6178
  479MOL0     C64549   6.544  10.362  11.452  0.6371  0.3219  0.4560
  479MOL0     C64550   6.442  10.462  11.428  0.0049 -0.0053  0.8376
  479MOL0     C64551   6.499  10.569  11.335  0.4944  0.8276  0.5060
  479MOL0     C64552   6.626  10.636  11.386  0.8903  0.6351 -0.3786
  479MOL0     C64553   6.633  10.681  11.539 -0.3017  0.0316  0.1111
  479MOL0     O64554   6.741  10.780  11.558 -0.5809 -0.2626 -0.9837
  479MOL0     C64555   6.868  10.730  11.588 -0.9831 -1.2038 -0.6461
  479MOL0     C64556   6.904  10.591  11.625 -1.1237 -0.3800 -1.2935
  479MOL0     C64557   7.032  10.557  11.659 -0.6874  0.4327 -0.4447
  479MOL0     C64558   7.061  10.413  11.698  0.8773  0.4961 -0.8801
  479MOL0     C64559   7.136  10.658  11.657 -0.0789  0.1179  0.1092
  479MOL0     C64560   7.285  10.640  11.688 -1.0134  0.4893 -0.7294
  479MOL0     O64561   7.368  10.743  11.653  0.4130  0.5073 -0.3851
  479MOL0     C64562   7.471  10.769  11.740 -0.3986 -0.4340 -0.3497
  479MOL0     C64563   7.574  10.847  11.686  0.7241  0.2429 -0.0893
  479MOL0     C64564   7.683  10.904  11.761  0.6491  0.6900 -0.0349
  479MOL0     C64565   7.689  10.865  11.897  0.2768 -1.2568 -0.2919
  479MOL0     O64566   7.795  10.908  11.973  0.0240 -0.7482  0.2739
  479MOL0     C64567   7.879  11.009  11.919  0.3938 -0.5156 -0.5514
  479MOL0     C64568   7.949  11.084  12.035 -0.4587 -0.9302  0.4659
  479MOL0     C64569   7.871  11.173  12.141  0.8151  0.0184 -0.2456
  479MOL0     C64570   7.949  11.218  12.259 -1.1071 -0.1602  0.1075
  479MOL0     C64571   7.870  11.317  12.350 -0.4202  0.0895 -0.2950
  479MOL0     C64572   7.914  11.454  12.286  0.7205 -0.4421  0.0930
  479MOL0     C64573   8.048  11.507  12.328 -0.3923  0.1616 -0.6327
  479MOL0     C64574   8.048  11.589  12.448  0.0246  0.1168 -0.1410
  479MOL0    Cl64575   7.949  11.737  12.412  0.0878  0.3429 -0.2672
  479MOL0     C64576   7.597  10.779  11.948 -1.3789 -1.4355  0.8874
  479MOL0     C64577   7.495  10.730  11.875  0.2820  1.3019 -0.7204
  479MOL0     O64578   7.331  10.528  11.710  0.1120  1.1798 -0.2486
  479MOL0     C64579   7.103  10.784  11.616  0.9298 -0.4379 -0.5586
  479MOL0     C64580   6.977  10.821  11.578  0.3470  0.1424  0.6612
  479MOL0     N64581   6.586  10.333  11.579  0.6537  1.1862 -0.9484
  479MOL0     N64582   6.693  10.249  11.562 -0.2404  0.0066 -0.2223
  479MOL0     C64583   7.670  10.866  11.294  0.6335 -0.4965  0.5265
  479MOL0     C64584   7.750  10.938  11.383 -0.6616 -0.2967  1.9272
  479MOL0     C64585   8.132  11.084  11.586  0.1174  0.0822  0.1923
  479MOL0     C64586   8.239  10.984  11.609  0.4110  0.2311  0.7261
  479MOL0     C64587   8.364  11.040  11.648 -0.3742 -0.2423 -0.6503
  479MOL0     C64588   8.391  11.171  11.660 -0.6476 -0.4046  0.1209
  479MOL0     O64589   8.529  11.206  11.670 -0.1716  0.6014 -0.2543
  479MOL0     C64590   8.575  11.342  11.649 -0.7751  0.4364 -0.8217
  479MOL0     C64591   8.578  11.360  11.499 -0.4055  0.2196 -0.2372
  479MOL0     C64592   8.555  11.516  11.474 -0.2454  0.7352  0.2088
  479MOL0     C64593   8.489  11.521  11.336 -0.3387 -0.6262 -0.2101
  479MOL0     C64594   8.511  11.661  11.282  0.3049  0.8678  0.8542
  479MOL0     C64595   8.539  11.767  11.226  1.0323  0.2144 -1.0692
  479MOL0     C64596   8.291  11.265  11.646  0.7280  0.8086 -0.0317
  479MOL0     C64597   8.166  11.224  11.601 -0.6426  0.6053  0.9552
  479MOL0     H64598   7.908  10.685  11.535  0.5707  2.9748  1.6047
  479MOL0     H64599   7.712  10.563  11.405  0.7524  0.3326  2.0674
  479MOL0     H64600   7.417  10.754  11.323  1.1274 -2.4349  1.1459
  479MOL0     H64601   7.408  10.777  11.149 -0.0337 -1.3096 -0.6535
  479MOL0     H64602   7.372  10.525  11.117 -2.2570 -1.0859 -0.4423
  479MOL0     H64603   7.323  10.535  11.294  0.4850  1.2726  1.4690
  479MOL0     H64604   7.164  10.687  11.244 -2.4505 -0.3189  0.9652
  479MOL0     H64605   7.199  10.686  11.064  2.6351 -1.3421 -0.2417
  479MOL0     H64606   6.997  10.552  11.117 -0.5138 -0.4514  0.4341
  479MOL0     H64607   7.121  10.441  11.070  1.9574  0.9397 -0.7574
  479MOL0     H64608   7.163  10.381  11.302  2.2547  1.6954 -0.3403
  479MOL0     H64609   7.050  10.514  11.351  1.2780  0.2827  0.1294
  479MOL0     H64610   6.850  10.398  11.265 -0.2523  0.4424  1.9392
  479MOL0     H64611   6.956  10.298  11.157  4.5723 -2.8480  1.6240
  479MOL0     H64612   7.040  10.165  11.329  0.1734 -0.1020 -2.0800
  479MOL0     H64613   6.976  10.281  11.452 -2.7208  0.8703  0.0966
  479MOL0     H64614   6.839  10.069  11.430 -0.7731  2.0644  2.9708
  479MOL0     H64615   6.804  10.138  11.266 -1.3145 -0.4718  0.4062
  479MOL0     H64616   6.602  10.315  11.252 -1.8225  2.9570 -0.1352
  479MOL0     H64617   6.355  10.417  11.379 -0.2565 -1.9203  2.9064
  479MOL0     H64618   6.397  10.505  11.518 -1.4254 -0.7469  0.5219
  479MOL0     H64619   6.418  10.642  11.328  0.2711  0.6288  0.9849
  479MOL0     H64620   6.525  10.527  11.237  0.2585 -0.6763  1.0707
  479MOL0     H64621   6.647  10.723  11.323  6.2571  0.6797  1.0610
  479MOL0     H64622   6.713  10.570  11.374  0.3307 -0.0055 -1.0880
  479MOL0     H64623   6.636  10.589  11.598  2.8732 -0.8305 -1.2283
  479MOL0     H64624   6.543  10.739  11.563 -0.2012 -0.0275  0.6520
  479MOL0     H64625   6.823  10.519  11.630 -0.3641 -1.3072 -1.9361
  479MOL0     H64626   7.158  10.380  11.658  0.1193 -2.4798 -0.5364
  479MOL0     H64627   7.048  10.385  11.803 -1.3202  0.5466 -1.0917
  479MOL0     H64628   6.993  10.346  11.644 -0.2562  1.2191 -0.3748
  479MOL0     H64629   7.571  10.864  11.578  2.3589  1.9926  0.0817
  479MOL0     H64630   7.750  10.968  11.703 -0.9159  0.5639 -2.1074
  479MOL0     H64631   7.950  10.950  11.860  3.7134  1.2907  1.3487
  479MOL0     H64632   7.828  11.086  11.859 -0.7054 -1.1378 -0.4397
  479MOL0     H64633   8.015  11.011  12.084  1.7766  0.2891 -0.5682
  479MOL0     H64634   8.024  11.139  11.977  0.2618 -2.4290 -0.0985
  479MOL0     H64635   7.792  11.114  12.189  1.9983  0.8851  3.0470
  479MOL0     H64636   7.817  11.260  12.103  0.6256 -0.4102 -0.9794
  479MOL0     H64637   7.988  11.139  12.325 -2.3639  0.1825  1.3083
  479MOL0     H64638   8.045  11.255  12.224  0.4522 -1.3171  2.8307
  479MOL0     H64639   7.887  11.322  12.458  1.4707  3.8662 -0.5765
  479MOL0     H64640   7.764  11.315  12.324 -0.8726  2.0686  1.1442
  479MOL0     H64641   7.928  11.459  12.177  4.9525 -0.3135  0.4902
  479MOL0     H64642   7.840  11.529  12.315  0.4884 -0.0997 -1.2992
  479MOL0     H64643   8.097  11.559  12.246  0.2854  1.2116  0.3936
  479MOL0     H64644   8.121  11.427  12.345  2.8571  2.8563 -0.7170
  479MOL0     H64645   8.148  11.628  12.472 -0.5736  4.5199 -3.3846
  479MOL0     H64646   8.002  11.534  12.530  0.8790 -1.6669 -0.8192
  479MOL0     H64647   7.610  10.750  12.052  0.2988  1.6489  1.6752
  479MOL0     H64648   7.426  10.678  11.941 -0.4210 -0.0849 -2.4735
  479MOL0     H64649   7.173  10.865  11.599 -2.3754  2.0071 -4.3795
  479MOL0     H64650   6.985  10.927  11.552  1.6094 -0.2031 -0.4746
  479MOL0     H64651   7.603  10.912  11.223  0.6055 -1.4227 -0.0692
  479MOL0     H64652   7.749  11.047  11.383  3.2719 -0.1181  1.4837
  479MOL0     H64653   8.221  10.878  11.594  0.9201  0.3681 -1.2517
  479MOL0     H64654   8.450  10.974  11.661 -0.1053 -0.0127 -1.2338
  479MOL0     H64655   8.502  11.404  11.702 -0.9331  0.5260 -1.1474
  479MOL0     H64656   8.676  11.348  11.691 -2.0841  0.3347  2.7170
  479MOL0     H64657   8.495  11.309  11.449 -2.3459  3.2040 -0.2958
  479MOL0     H64658   8.672  11.325  11.456 -0.1667 -0.2183  0.6140
  479MOL0     H64659   8.651  11.566  11.476  0.2210 -0.1303  0.0112
  479MOL0     H64660   8.500  11.561  11.558  2.7844 -2.0108  4.0818
  479MOL0     H64661   8.380  11.512  11.338 -0.7882  2.9957 -1.1786
  479MOL0     H64662   8.521  11.440  11.270  0.5646 -0.2949 -0.1884
  479MOL0     H64663   8.557  11.868  11.194  1.9325  1.7147  3.4353
  479MOL0     H64664   8.300  11.373  11.647 -1.2349  1.0343  2.1902
  479MOL0     H64665   8.091  11.300  11.578 -2.5433 -1.8082 -1.5012
  480MOL0     O64666   8.231   9.116   8.651 -0.7000 -0.0175 -0.1052
  480MOL0     C64667   8.298   9.109   8.548 -0.9687 -0.0937 -0.0662
  480MOL0     O64668   8.332   8.999   8.489 -0.4900 -0.0299 -0.3832
  480MOL0     C64669   8.322   8.893   8.570 -0.3501  0.0330 -0.0977
  480MOL0     C64670   8.217   8.798   8.577  1.0215 -0.4081  0.9841
  480MOL0     C64671   8.227   8.688   8.663 -0.0734  0.0267  0.5951
  480MOL0     C64672   8.339   8.667   8.745  0.2687  0.3376  0.1571
  480MOL0     O64673   8.369   8.563   8.827 -0.2890  0.6706 -0.2617
  480MOL0     C64674   8.323   8.436   8.791  0.3967  1.0496 -0.1313
  480MOL0     C64675   8.414   8.373   8.680 -0.1513  0.1295  0.5848
  480MOL0     C64676   8.352   8.261   8.599  0.0210 -0.3385  0.2060
  480MOL0     C64677   8.440   8.222   8.486 -0.0531 -0.2233  0.5383
  480MOL0     C64678   8.362   8.118   8.403 -0.2974 -0.7664 -0.3686
  480MOL0     C64679   8.377   8.161   8.251  0.0805 -0.4217  0.0724
  480MOL0     C64680   8.516   8.143   8.200  0.9220  0.9495  0.0926
  480MOL0     C64681   8.516   8.003   8.136 -0.0716  0.4698  0.5332
  480MOL0     N64682   8.652   7.957   8.093 -1.5043 -0.2430 -0.0541
  480MOL0     C64683   8.740   8.002   7.997  0.2379 -0.3713 -0.9974
  480MOL0     C64684   8.842   7.933   7.998 -0.1709 -0.2629  0.0826
  480MOL0     C64685   8.967   7.949   7.913 -1.0401  0.6345 -0.3119
  480MOL0     C64686   9.081   7.842   7.918 -0.4986  0.6309 -0.0654
  480MOL0     C64687   9.219   7.888   7.845 -0.0589 -1.2512 -0.0514
  480MOL0     C64688   9.290   8.011   7.911  0.6140 -0.6564  0.5355
  480MOL0     O64689   9.271   8.012   8.057 -0.1621 -0.6929  0.0365
  480MOL0     C64690   9.390   8.027   8.124  0.1522  0.0514  0.4486
  480MOL0     C64691   9.518   7.970   8.086 -0.3884  0.8748 -0.7493
  480MOL0     C64692   9.629   7.970   8.181  0.4107  0.0864 -0.6903
  480MOL0     C64693   9.755   7.891   8.149 -0.0671 -0.2800 -0.0854
  480MOL0     C64694   9.613   8.047   8.296 -0.1284  0.2799 -0.1041
  480MOL0     C64695   9.722   8.077   8.390 -0.5753 -0.4717  1.0124
  480MOL0     O64696   9.754   7.980   8.488 -0.3543 -0.6910  0.0398
  480MOL0     C64697   9.874   8.001   8.553 -0.9544 -0.8919  0.2150
  480MOL0     C64698   9.965   7.906   8.524  0.0268 -0.2411 -1.1826
  480MOL0     C64699  10.094   7.898   8.586  0.4867 -0.5736  1.0549
  480MOL0     C64700  10.129   7.993   8.686  0.2706 -0.5320  0.1029
  480MOL0     O64701  10.247   8.012   8.755 -0.4437  0.3142  1.0848
  480MOL0     C64702  10.354   7.919   8.747 -0.5356  0.0837  0.8055
  480MOL0     C64703  10.446   7.941   8.857  0.2235 -0.8967 -0.2630
  480MOL0     C64704  10.386   7.946   8.999 -0.1973 -0.2347  0.2821
  480MOL0     C64705  10.482   7.919   9.110 -0.2818  0.5652 -0.0408
  480MOL0     C64706  10.418   7.928   9.246  0.3708  0.0940 -0.2429
  480MOL0     C64707  10.498   7.906   9.369 -0.5084  0.6883  0.9367
  480MOL0     C64708  10.425   7.806   9.469  0.5476  0.2219 -0.9354
  480MOL0     C64709  10.463   7.825   9.618  0.1619 -0.1597  0.2924
  480MOL0    Cl64710  10.624   7.777   9.661 -0.2358  0.0696 -0.8767
  480MOL0     C64711  10.029   8.086   8.724  0.0127 -0.0491  0.6276
  480MOL0     C64712   9.902   8.088   8.664 -0.2185  0.0541 -0.1245
  480MOL0     O64713   9.789   8.180   8.373 -0.5616 -0.5935  0.2841
  480MOL0     C64714   9.490   8.091   8.331  0.3324 -0.7868 -0.1637
  480MOL0     C64715   9.377   8.084   8.249  0.4874 -0.2997  0.3746
  480MOL0     N64716   8.822   7.825   8.077  0.1660 -0.1891 -0.0024
  480MOL0     N64717   8.706   7.844   8.134 -0.8124  1.2078  0.4246
  480MOL0     C64718   8.439   8.762   8.743 -0.0944  0.2211 -0.2922
  480MOL0     C64719   8.429   8.870   8.655  0.2952  0.1354  0.4107
  480MOL0     C64720   8.316   9.227   8.463 -0.9453 -0.7338 -0.1906
  480MOL0     C64721   8.418   9.241   8.361 -0.5127  0.4859 -0.0126
  480MOL0     C64722   8.422   9.353   8.291 -0.1584  0.2964 -0.0664
  480MOL0     C64723   8.339   9.464   8.306 -0.4936 -1.4496 -0.0292
  480MOL0     O64724   8.353   9.567   8.222  0.0693 -0.1347  0.2184
  480MOL0     C64725   8.468   9.651   8.240 -0.8391  0.2228 -0.4013
  480MOL0     C64726   8.508   9.715   8.114  0.0798  0.0574  0.4852
  480MOL0     C64727   8.578   9.619   8.004  0.1070  0.1397  0.1210
  480MOL0     C64728   8.475   9.542   7.928 -0.2888 -1.0566 -1.2261
  480MOL0     C64729   8.549   9.457   7.833  0.4868 -0.3728  0.9847
  480MOL0     C64730   8.613   9.374   7.759  0.5828 -0.6686  0.4038
  480MOL0     C64731   8.256   9.465   8.414  0.2384  0.4219  0.5706
  480MOL0     C64732   8.237   9.346   8.487  0.1142  0.3878  0.4729
  480MOL0     H64733   8.136   8.812   8.506  1.1420 -0.7517  0.7746
  480MOL0     H64734   8.145   8.618   8.673  1.0069 -1.6786 -1.7143
  480MOL0     H64735   8.340   8.382   8.884  1.5300 -0.3483 -1.1093
  480MOL0     H64736   8.217   8.434   8.767  0.2855 -0.3369  0.3846
  480MOL0     H64737   8.450   8.443   8.603 -0.3161 -1.0910 -0.6439
  480MOL0     H64738   8.499   8.329   8.734  0.9155 -0.7085 -1.6386
  480MOL0     H64739   8.327   8.178   8.665 -1.9303  1.0122  1.2742
  480MOL0     H64740   8.261   8.298   8.551 -0.1901 -0.8711  0.1898
  480MOL0     H64741   8.460   8.310   8.425  0.2875 -0.8685 -0.3047
  480MOL0     H64742   8.537   8.181   8.514 -0.1821 -0.6262  0.4179
  480MOL0     H64743   8.404   8.021   8.432  0.4432 -0.3783 -0.1151
  480MOL0     H64744   8.254   8.126   8.423 -0.9151  3.1207 -3.8680
  480MOL0     H64745   8.311   8.115   8.177  3.3503 -1.5320 -2.4367
  480MOL0     H64746   8.353   8.267   8.239 -0.5169 -0.4330  1.0797
  480MOL0     H64747   8.526   8.218   8.120  0.9187  0.7512 -0.0931
  480MOL0     H64748   8.587   8.159   8.283  2.9041 -0.4175 -1.2570
  480MOL0     H64749   8.454   8.019   8.047 -0.3416 -1.2224  0.3948
  480MOL0     H64750   8.465   7.936   8.205  0.7132  1.6040  2.2858
  480MOL0     H64751   8.733   8.090   7.934  3.2511  0.3403 -0.5064
  480MOL0     H64752   8.944   7.967   7.808 -0.3208  1.4531 -0.3348
  480MOL0     H64753   9.016   8.041   7.945  0.5471  0.8658 -3.0716
  480MOL0     H64754   9.047   7.751   7.868 -0.2795  0.8366 -0.6033
  480MOL0     H64755   9.101   7.816   8.022 -1.4565  2.7232  0.7082
  480MOL0     H64756   9.201   7.914   7.741 -0.2612  2.3116  0.7480
  480MOL0     H64757   9.292   7.808   7.862  1.4088  0.4114  2.1159
  480MOL0     H64758   9.246   8.107   7.881 -0.9088  0.1920  4.8056
  480MOL0     H64759   9.394   8.024   7.879  0.8614 -0.3373  1.4353
  480MOL0     H64760   9.521   7.912   7.995  0.5298 -0.6975  0.2436
  480MOL0     H64761   9.780   7.841   8.243 -0.6726 -0.4391 -0.0045
  480MOL0     H64762   9.745   7.810   8.077 -2.7117  1.5906 -2.0333
  480MOL0     H64763   9.836   7.962   8.130 -2.0381  2.6367  1.5848
  480MOL0     H64764   9.937   7.838   8.445 -1.3077 -2.1503  0.8134
  480MOL0     H64765  10.171   7.827   8.556 -0.8057 -1.9071  0.7613
  480MOL0     H64766  10.327   7.815   8.772  0.5784 -0.7428 -1.1957
  480MOL0     H64767  10.399   7.922   8.648  1.7369  2.4906  1.8014
  480MOL0     H64768  10.528   7.869   8.846 -1.6813 -3.0887 -0.7136
  480MOL0     H64769  10.489   8.040   8.839  1.8562 -1.2878  1.1999
  480MOL0     H64770  10.305   7.874   9.011  0.1602 -0.2741  3.2532
  480MOL0     H64771  10.336   8.042   9.017 -1.3600 -1.0539  1.6646
  480MOL0     H64772  10.497   7.814   9.083 -2.2918  0.5381 -1.2639
  480MOL0     H64773  10.566   7.989   9.103 -0.2276  0.7091  1.6672
  480MOL0     H64774  10.330   7.863   9.255 -0.8917  1.6279 -1.0726
  480MOL0     H64775  10.384   8.032   9.252  1.5075  0.4559  0.1639
  480MOL0     H64776  10.585   7.853   9.331 -0.7016  3.9089 -5.2411
  480MOL0     H64777  10.515   8.000   9.421  2.1052  1.9272 -1.8776
  480MOL0     H64778  10.455   7.705   9.438 -0.7438 -0.2730 -0.6043
  480MOL0     H64779  10.316   7.812   9.464  0.5097 -0.2110 -0.6950
  480MOL0     H64780  10.402   7.768   9.689  1.9889  0.9381  2.8788
  480MOL0     H64781  10.456   7.929   9.651  0.7496 -0.1409  0.3611
  480MOL0     H64782  10.051   8.148   8.810  0.2943 -1.9720  2.0176
  480MOL0     H64783   9.832   8.158   8.709  0.2197 -0.4553  1.4187
  480MOL0     H64784   9.474   8.127   8.433 -1.3131 -1.1914 -0.2532
  480MOL0     H64785   9.282   8.132   8.269  0.1897 -1.4477  1.8710
  480MOL0     H64786   8.519   8.755   8.815 -1.3429  0.4078  1.1684
  480MOL0     H64787   8.508   8.941   8.678  0.5019 -0.3408  1.1988
  480MOL0     H64788   8.482   9.153   8.352 -0.5748  0.1603  2.1118
  480MOL0     H64789   8.496   9.343   8.212 -1.1731 -0.5641 -0.9382
  480MOL0     H64790   8.446   9.725   8.316  0.2850 -1.2121  1.4242
  480MOL0     H64791   8.557   9.599   8.277 -1.2019 -0.0270  0.1233
  480MOL0     H64792   8.568   9.804   8.133  0.0627 -0.4264  3.1833
  480MOL0     H64793   8.414   9.755   8.073  0.6459  0.3063 -0.6035
  480MOL0     H64794   8.639   9.551   8.065 -2.0379 -3.5867 -1.5323
  480MOL0     H64795   8.644   9.675   7.936  0.9152 -0.4571  0.3900
  480MOL0     H64796   8.395   9.607   7.889 -0.5768  1.5104  3.0020
  480MOL0     H64797   8.424   9.470   7.992  3.2028 -1.6393  1.1537
  480MOL0     H64798   8.629   9.294   7.690 -0.0891  0.0113 -0.5670
  480MOL0     H64799   8.190   9.551   8.419 -0.3166  0.1876 -1.8279
  480MOL0     H64800   8.156   9.338   8.559  0.9835  1.9945  1.6883
  481MOL0     O64801   8.202   2.228   0.419 -0.5762 -0.2593  1.0841
  481MOL0     C64802   8.304   2.239   0.354  0.3747 -0.4653  0.1991
  481MOL0     O64803   8.374   2.133   0.292 -0.2650 -0.4782 -0.2359
  481MOL0     C64804   8.316   2.010   0.304  0.9140  1.4564  1.3805
  481MOL0     C64805   8.363   1.914   0.393  0.3699  0.4408  0.5184
  481MOL0     C64806   8.303   1.786   0.398 -0.4847 -0.2357 -0.4003
  481MOL0     C64807   8.200   1.749   0.312  0.3019 -0.0590  0.0847
  481MOL0     O64808   8.143   1.620   0.339  1.1102 -0.2683 -0.4702
  481MOL0     C64809   8.000   1.599   0.314 -0.5440  0.0707 -0.5103
  481MOL0     C64810   7.974   1.505   0.202 -0.1913  0.1257 -0.1849
  481MOL0     C64811   7.990   1.557   0.063 -0.3341  0.4077  0.1712
  481MOL0     C64812   7.993   1.439  -0.045  0.6580 -0.2349  0.2670
  481MOL0     C64813   7.944   1.516  -0.173 -0.2812  0.0604 -0.2562
  481MOL0     C64814   7.893   1.412  -0.273 -0.4034  0.5170 -0.6054
  481MOL0     C64815   7.877   1.477  -0.403  0.4480 -0.0494  0.1503
  481MOL0     C64816   7.839   1.376  -0.509  0.3775 -0.5964 -0.1874
  481MOL0     N64817   7.808   1.444  -0.632  0.3012  0.5693  0.3358
  481MOL0     C64818   7.892   1.530  -0.711  0.0536  0.5231  0.0438
  481MOL0     C64819   7.830   1.534  -0.837 -0.0259  0.8837 -0.6262
  481MOL0     C64820   7.875   1.635  -0.936 -0.0073 -0.0335  0.1373
  481MOL0     C64821   7.834   1.611  -1.081  0.0518  0.2715  0.1065
  481MOL0     C64822   7.696   1.670  -1.100 -0.1580 -0.0425  0.1009
  481MOL0     C64823   7.643   1.666  -1.246 -0.1102  0.1183  0.1381
  481MOL0     O64824   7.741   1.707  -1.347 -0.2648  0.1866 -0.7239
  481MOL0     C64825   7.702   1.741  -1.480 -0.2577 -0.4018  0.1063
  481MOL0     C64826   7.809   1.764  -1.565 -0.5254  0.3544 -0.0907
  481MOL0     C64827   7.787   1.806  -1.699 -0.6123 -0.2428  0.7092
  481MOL0     C64828   7.920   1.822  -1.774 -1.6064 -0.9083 -0.8398
  481MOL0     C64829   7.653   1.829  -1.734 -0.0196 -0.5556 -0.0202
  481MOL0     C64830   7.615   1.863  -1.875 -0.6004  1.2267  0.0036
  481MOL0     O64831   7.688   1.800  -1.973  0.3811  0.4340  0.5924
  481MOL0     C64832   7.664   1.835  -2.101 -0.0242 -0.8364  0.1317
  481MOL0     C64833   7.687   1.732  -2.195 -0.5028  0.3777  0.1129
  481MOL0     C64834   7.678   1.754  -2.328  0.7657  1.1261  0.0771
  481MOL0     C64835   7.657   1.876  -2.381 -0.1534  0.7074  0.0042
  481MOL0     O64836   7.642   1.893  -2.514 -0.8663 -0.0510 -0.3683
  481MOL0     C64837   7.714   1.808  -2.602 -0.1245 -0.9373  0.9211
  481MOL0     C64838   7.654   1.838  -2.742 -0.2379  0.2047 -1.2551
  481MOL0     C64839   7.511   1.774  -2.763  0.4038 -0.6348 -1.2652
  481MOL0     C64840   7.447   1.827  -2.889 -0.1620  0.3559 -0.2882
  481MOL0     C64841   7.426   1.973  -2.902 -0.4277  0.3703 -1.2557
  481MOL0     C64842   7.347   2.007  -3.029  0.1469 -0.1054 -1.0189
  481MOL0     C64843   7.445   1.989  -3.144 -0.3085 -0.1674 -0.2372
  481MOL0     C64844   7.375   2.018  -3.273  0.7299 -0.7145 -0.2345
  481MOL0    Cl64845   7.316   2.187  -3.277 -0.7312 -0.2582  0.5834
  481MOL0     C64846   7.640   1.982  -2.288  0.3515 -0.6678  0.6750
  481MOL0     C64847   7.632   1.968  -2.151 -0.1426  0.1202 -0.9444
  481MOL0     O64848   7.520   1.932  -1.891  0.5710  0.8416 -0.6394
  481MOL0     C64849   7.553   1.827  -1.642  0.3227 -0.1809  0.3985
  481MOL0     C64850   7.579   1.790  -1.509 -0.6907 -0.0337  0.2397
  481MOL0     N64851   7.708   1.477  -0.827  0.8169  0.4478 -0.4596
  481MOL0     N64852   7.702   1.411  -0.717 -1.0148 -0.0560 -0.5928
  481MOL0     C64853   8.159   1.840   0.211 -0.1950 -0.6869 -0.4174
  481MOL0     C64854   8.229   1.961   0.196 -0.1453 -0.2912 -0.1835
  481MOL0     C64855   8.356   2.375   0.344  0.5920  0.1896 -0.0402
  481MOL0     C64856   8.293   2.487   0.400  0.6261  0.1373 -0.5502
  481MOL0     C64857   8.341   2.616   0.377 -0.0682  0.2891  0.1885
  481MOL0     C64858   8.465   2.642   0.311  0.1872  1.3021  0.2490
  481MOL0     O64859   8.504   2.772   0.279  0.0848 -0.0407 -0.0392
  481MOL0     C64860   8.640   2.790   0.233 -0.3612  0.4309 -0.5260
  481MOL0     C64861   8.680   2.932   0.203  0.3940  0.2196 -0.6000
  481MOL0     C64862   8.661   3.031   0.322  0.0978  1.3214 -1.0856
  481MOL0     C64863   8.664   3.180   0.290  0.1125 -0.0328  0.6825
  481MOL0     C64864   8.614   3.270   0.396 -0.1384 -0.1545  0.8463
  481MOL0     C64865   8.568   3.348   0.487  1.0057  0.6785 -0.4835
  481MOL0     C64866   8.528   2.529   0.253  0.1614 -1.0823  0.3348
  481MOL0     C64867   8.476   2.399   0.281  0.1640  0.1900  0.9772
  481MOL0     H64868   8.431   1.954   0.468  0.1614  2.3524 -0.2474
  481MOL0     H64869   8.338   1.710   0.467  1.3713 -1.2809 -2.3716
  481MOL0     H64870   7.965   1.553   0.407  1.9129  0.0878  0.5012
  481MOL0     H64871   7.942   1.690   0.297  0.5601  1.0401  0.6042
  481MOL0     H64872   8.032   1.412   0.205  0.6734  0.6099 -1.3401
  481MOL0     H64873   7.872   1.465   0.214 -0.2036  0.8117  3.0511
  481MOL0     H64874   7.906   1.623   0.040 -1.2830  0.4020  3.1963
  481MOL0     H64875   8.090   1.600   0.069 -0.6830  1.3199 -0.3834
  481MOL0     H64876   8.089   1.391  -0.066  1.5391  1.1621  0.9757
  481MOL0     H64877   7.920   1.363  -0.012  0.9138 -0.1790  0.9879
  481MOL0     H64878   7.859   1.581  -0.153 -1.2132 -0.3862 -2.4112
  481MOL0     H64879   8.022   1.587  -0.204 -0.4947  1.7454  2.7190
  481MOL0     H64880   7.962   1.327  -0.282 -0.1103  0.9136 -2.5560
  481MOL0     H64881   7.795   1.374  -0.241  0.5701  0.5530  2.8007
  481MOL0     H64882   7.799   1.553  -0.408 -0.9951 -1.5554 -3.2099
  481MOL0     H64883   7.975   1.522  -0.422  1.5888 -2.1994  0.5919
  481MOL0     H64884   7.758   1.310  -0.478  2.2404 -1.7748  2.5295
  481MOL0     H64885   7.931   1.317  -0.513  0.7128 -0.1121  0.2093
  481MOL0     H64886   7.990   1.571  -0.684  1.1340 -2.8022  1.7314
  481MOL0     H64887   7.848   1.738  -0.910  1.3866  0.2053  0.7156
  481MOL0     H64888   7.983   1.649  -0.942  0.4347 -3.4613 -2.4040
  481MOL0     H64889   7.848   1.504  -1.098  2.9680  0.0755  2.8395
  481MOL0     H64890   7.914   1.659  -1.138  4.1072  0.6896  5.2997
  481MOL0     H64891   7.678   1.772  -1.065  1.0125 -0.8447  3.4263
  481MOL0     H64892   7.643   1.599  -1.035  1.3691  0.6570  2.2135
  481MOL0     H64893   7.553   1.728  -1.255  0.2463  0.6322  0.0579
  481MOL0     H64894   7.610   1.564  -1.265  1.6130 -0.6996  1.2585
  481MOL0     H64895   7.913   1.748  -1.538 -0.6834  0.7531  0.7854
  481MOL0     H64896   7.915   1.884  -1.864  3.1237  0.3410 -0.5252
  481MOL0     H64897   7.995   1.877  -1.716 -2.8280  0.9768 -0.9498
  481MOL0     H64898   7.970   1.739  -1.823 -0.6609 -0.0725 -1.3319
  481MOL0     H64899   7.699   1.630  -2.161  1.5828  1.2572  2.3290
  481MOL0     H64900   7.692   1.667  -2.392 -0.3048 -1.0539  2.5668
  481MOL0     H64901   7.817   1.843  -2.597 -0.9411  1.5238  1.8469
  481MOL0     H64902   7.717   1.700  -2.585  3.3497 -0.7691  2.1865
  481MOL0     H64903   7.654   1.947  -2.739  0.4130  0.1911  0.1084
  481MOL0     H64904   7.732   1.791  -2.804 -0.4061 -0.8947 -0.6587
  481MOL0     H64905   7.462   1.815  -2.675  3.7984 -1.1433  1.0606
  481MOL0     H64906   7.505   1.666  -2.751 -0.1344 -0.3259  1.9504
  481MOL0     H64907   7.501   1.787  -2.976 -1.6844 -2.3844 -0.0914
  481MOL0     H64908   7.344   1.792  -2.879 -0.2538  1.3258  4.2303
  481MOL0     H64909   7.521   2.027  -2.904 -1.1451  1.6211 -2.2699
  481MOL0     H64910   7.368   2.006  -2.815 -0.2345 -1.5981 -0.3207
  481MOL0     H64911   7.258   1.944  -3.039  1.2000 -1.4355 -2.6429
  481MOL0     H64912   7.311   2.109  -3.017 -0.5751 -0.5536  0.9579
  481MOL0     H64913   7.475   1.885  -3.158  1.1987  0.4047 -1.5326
  481MOL0     H64914   7.538   2.046  -3.129 -1.2549  1.8154 -1.4246
  481MOL0     H64915   7.285   1.956  -3.280  0.7445 -0.7894  0.2622
  481MOL0     H64916   7.438   2.002  -3.361 -0.0848 -0.6266 -0.8446
  481MOL0     H64917   7.632   2.082  -2.329  1.9168 -0.3394  1.1138
  481MOL0     H64918   7.618   2.050  -2.082 -1.6042  0.3019 -1.4265
  481MOL0     H64919   7.452   1.857  -1.666 -1.4535 -2.6789  3.9064
  481MOL0     H64920   7.497   1.758  -1.446  1.0837 -3.2989  1.1210
  481MOL0     H64921   8.077   1.807   0.148 -0.2612  1.3885 -1.5090
  481MOL0     H64922   8.213   2.027   0.111 -0.5874  1.6995  1.3693
  481MOL0     H64923   8.196   2.471   0.447 -0.5726 -1.0977 -3.2342
  481MOL0     H64924   8.290   2.695   0.432 -1.3774 -0.9277  0.7951
  481MOL0     H64925   8.707   2.746   0.307 -3.0958 -4.9974 -0.7804
  481MOL0     H64926   8.661   2.731   0.143  3.5651  0.2974  0.3331
  481MOL0     H64927   8.619   2.965   0.119 -1.1430 -1.5276 -0.2436
  481MOL0     H64928   8.783   2.935   0.167 -0.8917  0.7896 -4.7158
  481MOL0     H64929   8.730   3.009   0.403 -1.9107  0.8393  0.5926
  481MOL0     H64930   8.562   3.006   0.361  1.2554  1.7582  2.4383
  481MOL0     H64931   8.596   3.187   0.205 -1.3245 -1.5653  1.6408
  481MOL0     H64932   8.765   3.211   0.261 -0.6327  2.6275  0.7111
  481MOL0     H64933   8.521   3.397   0.570 -3.3967 -3.8786  0.2441
  481MOL0     H64934   8.621   2.520   0.199  1.2336 -2.0556  2.2442
  481MOL0     H64935   8.532   2.319   0.235  1.2341  1.4908 -0.0511
  482MOL0     O64936   9.679   2.874   9.988 -0.0390  0.3049 -0.1990
  482MOL0     C64937   9.608   2.902  10.073 -0.0226 -0.1045 -1.7673
  482MOL0     O64938   9.651   2.936  10.197 -0.5158  0.1260  0.0865
  482MOL0     C64939   9.790   2.935  10.236 -0.1455 -0.2044 -0.5277
  482MOL0     C64940   9.868   2.820  10.235 -0.5259  0.4454 -0.6374
  482MOL0     C64941   9.994   2.830  10.295  0.6673  0.3439 -1.2269
  482MOL0     C64942  10.037   2.951  10.361 -0.2435  0.6130  0.5647
  482MOL0     O64943  10.150   2.959  10.437  0.6019 -0.3036 -0.1414
  482MOL0     C64944  10.175   2.844  10.531 -0.8621 -0.6253 -0.2265
  482MOL0     C64945  10.062   2.794  10.620 -0.2459  0.1500 -1.2084
  482MOL0     C64946  10.097   2.673  10.707 -0.1991  0.3501 -0.5435
  482MOL0     C64947  10.231   2.681  10.795 -0.5558 -0.1816  0.3928
  482MOL0     C64948  10.256   2.546  10.861  0.4094  0.1028  0.5180
  482MOL0     C64949  10.320   2.560  10.997  0.8782 -0.5144  0.5211
  482MOL0     C64950  10.222   2.591  11.111 -0.1586 -0.3953 -0.3480
  482MOL0     C64951  10.307   2.605  11.240 -0.1776  0.3732 -0.0677
  482MOL0     N64952  10.223   2.643  11.357 -0.0618  0.4472  0.2224
  482MOL0     C64953  10.106   2.571  11.390  0.0614  0.6631 -0.1423
  482MOL0     C64954  10.078   2.605  11.520 -1.0162  0.1316  0.8446
  482MOL0     C64955   9.956   2.570  11.601  0.7441 -0.1406  0.4040
  482MOL0     C64956   9.951   2.416  11.617 -0.6338 -0.2794  0.4040
  482MOL0     C64957   9.810   2.375  11.670 -0.2360 -0.3053 -0.1094
  482MOL0     C64958   9.787   2.423  11.805 -0.4217 -0.2454 -0.4785
  482MOL0     O64959   9.898   2.403  11.892 -0.7128  0.0268  0.1981
  482MOL0     C64960   9.918   2.277  11.950  0.8385 -0.1108 -0.4500
  482MOL0     C64961   9.840   2.163  11.947  0.1857  0.3145  0.0010
  482MOL0     C64962   9.872   2.034  12.018 -0.1367  0.0337 -0.1563
  482MOL0     C64963   9.784   1.908  11.990 -0.0939  0.7162 -0.1510
  482MOL0     C64964   9.994   2.031  12.088  0.1627  0.7995 -0.6403
  482MOL0     C64965  10.039   1.910  12.148 -0.0004 -0.3833 -0.4032
  482MOL0     O64966  10.085   1.814  12.082 -0.4962  0.5387 -0.6243
  482MOL0     C64967  10.097   1.696  12.151 -0.6771  0.3431  0.3958
  482MOL0     C64968   9.996   1.602  12.152 -0.8006 -1.0199  0.2763
  482MOL0     C64969  10.009   1.472  12.215 -0.7610 -0.1157  0.3555
  482MOL0     C64970  10.129   1.442  12.277 -0.9477  1.6361  0.2501
  482MOL0     O64971  10.166   1.321  12.331 -0.0532 -0.7357 -0.3924
  482MOL0     C64972  10.198   1.313  12.466 -0.7622  0.0136 -0.3466
  482MOL0     C64973  10.193   1.162  12.494 -0.0439  0.1588 -1.0138
  482MOL0     C64974  10.261   1.144  12.631 -0.4645  1.0379 -0.0837
  482MOL0     C64975  10.208   1.012  12.692 -0.3533  0.4057 -0.0612
  482MOL0     C64976  10.322   0.909  12.702  0.1445  0.4975 -0.0945
  482MOL0     C64977  10.377   0.862  12.571 -0.6359  0.2685 -0.3996
  482MOL0     C64978  10.518   0.787  12.563  0.4513 -0.2413  1.0635
  482MOL0     C64979  10.602   0.809  12.437  0.2451 -0.7015 -0.5755
  482MOL0    Cl64980  10.512   0.774  12.295 -0.3013  0.4385  0.2570
  482MOL0     C64981  10.233   1.520  12.264  0.0026  0.2126  0.5117
  482MOL0     C64982  10.214   1.650  12.210 -0.5215 -0.4273 -1.4152
  482MOL0     O64983  10.031   1.918  12.273  0.0952  0.0024  0.5150
  482MOL0     C64984  10.074   2.145  12.095 -0.1214 -0.3275 -0.4010
  482MOL0     C64985  10.036   2.264  12.031  0.2158 -1.2277  0.0481
  482MOL0     N64986  10.170   2.701  11.568 -0.4477  1.0710  0.3857
  482MOL0     N64987  10.252   2.721  11.468 -0.3780 -0.4152  0.9027
  482MOL0     C64988   9.953   3.070  10.366  0.4765  0.1644  0.3170
  482MOL0     C64989   9.833   3.060  10.292  0.1236  0.3603 -0.4771
  482MOL0     C64990   9.465   2.909  10.035 -0.0350 -0.2628 -0.7993
  482MOL0     C64991   9.389   3.022  10.077 -0.3550 -0.2078  0.2232
  482MOL0     C64992   9.252   3.031  10.045  0.6466 -0.2595  0.4519
  482MOL0     C64993   9.185   2.933   9.962 -0.2266  0.2570  0.1945
  482MOL0     O64994   9.052   2.953   9.937  0.3376  0.2660  0.3418
  482MOL0     C64995   8.991   2.861   9.852  0.0471 -0.4336  0.3418
  482MOL0     C64996   8.842   2.898   9.839  0.3899 -0.7683 -0.7603
  482MOL0     C64997   8.776   2.820   9.719 -0.6182  0.3885  0.3404
  482MOL0     C64998   8.631   2.791   9.746 -0.6235 -0.1535  0.2790
  482MOL0     C64999   8.562   2.743   9.638  0.9331 -0.6214 -0.2883
  482MOL0     C65000   8.496   2.712   9.536  1.2386  1.1516 -0.0198
  482MOL0     C65001   9.267   2.821   9.920 -0.1325  0.0251 -0.5276
  482MOL0     C65002   9.399   2.817   9.955 -0.3570  0.3551  0.1472
  482MOL0     H65003   9.829   2.722  10.213  3.2952 -2.6883  4.2612
  482MOL0     H65004  10.055   2.746  10.325  1.5334  1.9766  2.0294
  482MOL0     H65005  10.234   2.771  10.475  0.8231  0.2865  0.2820
  482MOL0     H65006  10.253   2.875  10.602  0.5932 -2.4960 -0.9372
  482MOL0     H65007  10.046   2.876  10.691  1.6272 -1.1280  0.8332
  482MOL0     H65008   9.973   2.766  10.563  0.7502  0.0631 -2.7842
  482MOL0     H65009  10.017   2.650  10.777  1.0847  2.1245  1.6733
  482MOL0     H65010  10.118   2.595  10.633 -0.8377 -0.6425  0.3055
  482MOL0     H65011  10.319   2.684  10.730 -0.2273  1.2933  0.8544
  482MOL0     H65012  10.235   2.764  10.867 -1.7874  0.2507  0.0081
  482MOL0     H65013  10.161   2.502  10.894  0.3370  1.7920  2.8651
  482MOL0     H65014  10.310   2.478  10.795 -2.5345 -0.9326 -1.0017
  482MOL0     H65015  10.363   2.462  11.019 -0.9281 -1.6547 -0.7152
  482MOL0     H65016  10.406   2.628  10.989  2.3081 -2.2271  0.7260
  482MOL0     H65017  10.165   2.684  11.097 -1.0449 -1.1077 -1.7753
  482MOL0     H65018  10.147   2.512  11.121 -1.3898  0.8533  0.8006
  482MOL0     H65019  10.377   2.687  11.226  4.1090 -2.5650  1.9281
  482MOL0     H65020  10.378   2.522  11.248  1.2195  1.6080  1.0318
  482MOL0     H65021  10.043   2.501  11.337 -1.3790  0.1555  2.1248
  482MOL0     H65022   9.944   2.627  11.694  2.0709  0.4907  0.2141
  482MOL0     H65023   9.866   2.604  11.548 -0.7633 -2.2480  1.4492
  482MOL0     H65024  10.025   2.385  11.692  0.2035 -0.9503 -0.6736
  482MOL0     H65025   9.961   2.369  11.519 -3.7322  1.4539 -0.8959
  482MOL0     H65026   9.815   2.266  11.679 -1.0688 -0.3966 -0.6944
  482MOL0     H65027   9.723   2.399  11.609 -1.8088 -1.4318  1.5993
  482MOL0     H65028   9.696   2.384  11.851 -0.3970  0.9955  0.6935
  482MOL0     H65029   9.764   2.528  11.784 -1.0414 -0.6736 -2.0911
  482MOL0     H65030   9.759   2.158  11.875  2.1198 -2.5098 -2.2016
  482MOL0     H65031   9.680   1.933  11.968 -0.6609 -0.9010  0.5114
  482MOL0     H65032   9.829   1.846  11.912  1.3664 -1.9820  2.5718
  482MOL0     H65033   9.798   1.849  12.082  1.2046  0.2905 -0.5998
  482MOL0     H65034   9.902   1.616  12.099  0.6185 -3.8005 -3.4501
  482MOL0     H65035   9.929   1.400  12.231 -0.7918  0.7160  6.0260
  482MOL0     H65036  10.300   1.348  12.483 -1.6940  1.7332  2.2893
  482MOL0     H65037  10.145   1.372  12.542  1.5915 -2.5324  3.6235
  482MOL0     H65038  10.086   1.139  12.507 -0.2165 -0.1364 -2.7086
  482MOL0     H65039  10.240   1.097  12.419  1.8881  0.9671 -0.5447
  482MOL0     H65040  10.245   1.230  12.696 -2.2546  0.4007  0.3936
  482MOL0     H65041  10.370   1.134  12.628 -0.4260  1.2503  0.4679
  482MOL0     H65042  10.166   1.029  12.791 -2.0272 -1.4500 -0.3868
  482MOL0     H65043  10.130   0.973  12.626  0.5924  2.2348 -2.3969
  482MOL0     H65044  10.298   0.820  12.760  1.5108  0.9429  1.2329
  482MOL0     H65045  10.409   0.954  12.751  0.7319  0.0790 -0.7243
  482MOL0     H65046  10.304   0.799  12.518 -0.0151 -2.1131  1.3751
  482MOL0     H65047  10.390   0.951  12.510  0.2217 -0.5093 -1.3771
  482MOL0     H65048  10.508   0.678  12.561  1.7999 -0.4068  1.7107
  482MOL0     H65049  10.565   0.802  12.661  0.2110  2.1779  0.8543
  482MOL0     H65050  10.694   0.752  12.443  0.8470  0.2716 -0.3447
  482MOL0     H65051  10.630   0.915  12.431 -0.1736 -0.6483 -2.1400
  482MOL0     H65052  10.338   1.502  12.288  0.4919  2.3594  0.1934
  482MOL0     H65053  10.300   1.716  12.203 -0.0414 -0.2581  3.1382
  482MOL0     H65054  10.167   2.161  12.149 -0.4233  0.1046  0.0013
  482MOL0     H65055  10.098   2.352  12.043 -1.0901 -0.0486 -1.5031
  482MOL0     H65056   9.974   3.158  10.425 -2.3232 -1.8882  4.9102
  482MOL0     H65057   9.774   3.151  10.287  2.3693  1.8240 -2.7632
  482MOL0     H65058   9.437   3.086  10.150  2.2673 -1.2104 -0.5049
  482MOL0     H65059   9.204   3.120  10.083 -0.1039 -0.0011 -1.0264
  482MOL0     H65060   9.033   2.868   9.752  0.6153  0.0314  0.6117
  482MOL0     H65061   9.000   2.755   9.880  1.0977 -1.5199 -3.5571
  482MOL0     H65062   8.821   3.006   9.843 -0.2184 -0.9166  0.3104
  482MOL0     H65063   8.802   2.865   9.935 -1.2482  3.4022  0.2131
  482MOL0     H65064   8.828   2.724   9.712 -0.8758  0.2873 -0.2980
  482MOL0     H65065   8.795   2.867   9.622 -0.9390  0.5956  0.3735
  482MOL0     H65066   8.579   2.883   9.774 -3.4513 -1.6379  0.2135
  482MOL0     H65067   8.623   2.719   9.828  0.2403 -0.9992 -0.3484
  482MOL0     H65068   8.435   2.664   9.462  2.2837  2.2211 -1.6348
  482MOL0     H65069   9.230   2.737   9.862 -1.1584  0.7738 -0.9864
  482MOL0     H65070   9.461   2.736   9.921  1.5898  1.9389 -0.2678
  483MOL0     O65071   2.614   8.429   3.876  0.4101 -0.5244  0.6836
  483MOL0     C65072   2.582   8.412   3.762  0.3977  0.1632  0.4393
  483MOL0     O65073   2.660   8.420   3.654 -0.0982 -0.1763 -1.2061
  483MOL0     C65074   2.790   8.459   3.670 -0.3316 -0.9142  0.9664
  483MOL0     C65075   2.888   8.392   3.596 -0.3281  0.5074  0.2097
  483MOL0     C65076   3.026   8.425   3.603  0.8382 -0.1370  0.3495
  483MOL0     C65077   3.063   8.527   3.698 -0.6476 -0.0666  0.0172
  483MOL0     O65078   3.191   8.569   3.705 -1.0121 -0.1952 -0.1492
  483MOL0     C65079   3.219   8.704   3.661  0.4821 -0.5064  0.0841
  483MOL0     C65080   3.368   8.732   3.664 -0.9073 -0.3210 -0.5568
  483MOL0     C65081   3.456   8.667   3.565 -0.0947 -0.1438  0.2191
  483MOL0     C65082   3.597   8.714   3.592 -0.5456  0.9997  0.4238
  483MOL0     C65083   3.702   8.671   3.489  0.4770 -0.7004 -0.0940
  483MOL0     C65084   3.708   8.514   3.494 -0.2606  0.3518 -0.2639
  483MOL0     C65085   3.810   8.451   3.402 -0.2421  0.6011 -1.4599
  483MOL0     C65086   3.827   8.303   3.416  0.0967 -0.2563 -0.0380
  483MOL0     N65087   3.929   8.238   3.330 -0.0641 -0.6209 -0.2978
  483MOL0     C65088   4.055   8.294   3.308 -0.4270 -0.2636  1.0121
  483MOL0     C65089   4.108   8.206   3.220 -0.9406 -0.5527  0.1636
  483MOL0     C65090   4.255   8.219   3.177  1.3549  0.2294  0.3896
  483MOL0     C65091   4.254   8.187   3.028 -0.9654 -0.4195  0.7104
  483MOL0     C65092   4.171   8.286   2.945 -0.1015  0.6419 -0.8936
  483MOL0     C65093   4.093   8.220   2.833  0.4087  0.2814 -0.0800
  483MOL0     O65094   4.005   8.129   2.896  0.7169  0.1975  0.4556
  483MOL0     C65095   3.905   8.054   2.837 -0.0432  0.4441  0.2769
  483MOL0     C65096   3.842   7.958   2.919  0.2286 -0.6013 -0.3891
  483MOL0     C65097   3.742   7.865   2.872 -0.4994 -0.2483  0.5339
  483MOL0     C65098   3.670   7.768   2.970 -0.6802  0.5294 -1.4862
  483MOL0     C65099   3.724   7.857   2.727  0.4038 -0.6245 -0.0613
  483MOL0     C65100   3.648   7.750   2.653 -0.2532  0.0691  0.8146
  483MOL0     O65101   3.631   7.781   2.516  0.6703 -0.5923 -0.3821
  483MOL0     C65102   3.562   7.691   2.442  0.5390  0.2432  0.3467
  483MOL0     C65103   3.424   7.700   2.409  0.5613  0.2650  0.1730
  483MOL0     C65104   3.364   7.594   2.346 -0.2991  1.2027  0.0087
  483MOL0     C65105   3.451   7.485   2.291 -1.0675  0.1028 -0.0590
  483MOL0     O65106   3.411   7.374   2.213 -0.5918  0.7306 -0.5049
  483MOL0     C65107   3.274   7.362   2.183  1.0388  0.2498 -0.4208
  483MOL0     C65108   3.251   7.241   2.099  0.5339  0.2854  0.3425
  483MOL0     C65109   3.332   7.239   1.972  0.4536  0.4060 -0.3706
  483MOL0     C65110   3.259   7.183   1.844  0.1580 -0.0092  0.5782
  483MOL0     C65111   3.133   7.254   1.799 -0.5011  0.0904  0.4119
  483MOL0     C65112   3.133   7.326   1.664  0.6074 -0.0888 -0.0380
  483MOL0     C65113   2.994   7.374   1.620 -0.0256 -0.2259 -0.8289
  483MOL0     C65114   2.993   7.434   1.480 -0.6264  0.5230  0.1284
  483MOL0    Cl65115   2.995   7.304   1.361  0.3905 -0.4319  0.1942
  483MOL0     C65116   3.592   7.497   2.306  0.2451  0.0354  0.7475
  483MOL0     C65117   3.649   7.598   2.380  0.8120 -0.9274  0.0144
  483MOL0     O65118   3.598   7.656   2.711 -0.1451 -0.6368 -0.2273
  483MOL0     C65119   3.768   7.964   2.646  0.5144  0.2934 -0.5810
  483MOL0     C65120   3.863   8.056   2.699 -0.6451  0.0706 -0.7998
  483MOL0     N65121   4.018   8.109   3.192  0.5601  0.1533  0.1350
  483MOL0     N65122   3.911   8.129   3.252  0.5474 -1.0574  0.3573
  483MOL0     C65123   2.964   8.590   3.776  0.3989 -1.2286  0.1624
  483MOL0     C65124   2.835   8.563   3.748  0.3618 -0.5238  0.1819
  483MOL0     C65125   2.443   8.355   3.732 -0.2307  0.5064 -0.8895
  483MOL0     C65126   2.335   8.404   3.809  0.5880 -0.8932  0.1200
  483MOL0     C65127   2.207   8.360   3.783  0.0388  0.0835 -0.2102
  483MOL0     C65128   2.178   8.260   3.693 -0.1741 -0.2548 -0.2331
  483MOL0     O65129   2.046   8.246   3.655  0.3206  0.0286 -0.0227
  483MOL0     C65130   2.006   8.179   3.542 -0.0504 -0.2154 -0.3311
  483MOL0     C65131   1.992   8.025   3.577  0.5470  0.2363 -0.4483
  483MOL0     C65132   1.912   8.012   3.718 -0.4360 -0.0952 -0.5696
  483MOL0     C65133   1.855   7.866   3.751  0.2056  0.1525 -0.8904
  483MOL0     C65134   1.774   7.820   3.646  0.2727 -1.2351 -0.6461
  483MOL0     C65135   1.693   7.788   3.564 -0.5060 -0.2297 -0.1128
  483MOL0     C65136   2.288   8.210   3.623  0.7467 -0.9238 -0.8908
  483MOL0     C65137   2.421   8.264   3.636  0.5691 -0.6324  0.1761
  483MOL0     H65138   2.854   8.298   3.553  2.4927 -0.7264  0.4515
  483MOL0     H65139   3.091   8.360   3.547  0.3282 -1.5457  1.3381
  483MOL0     H65140   3.180   8.725   3.561 -1.3499 -1.6765  0.5015
  483MOL0     H65141   3.181   8.779   3.731  1.1316 -0.8083  0.7856
  483MOL0     H65142   3.390   8.839   3.657  3.1532 -1.0300 -1.0098
  483MOL0     H65143   3.410   8.707   3.762 -0.1348  0.5880 -0.6443
  483MOL0     H65144   3.458   8.559   3.579 -1.1830 -0.1741  0.2180
  483MOL0     H65145   3.420   8.682   3.463 -2.4730 -0.4085  0.9579
  483MOL0     H65146   3.606   8.822   3.599 -2.2510  1.3249 -1.4263
  483MOL0     H65147   3.629   8.674   3.688 -1.2613 -1.4156 -0.2464
  483MOL0     H65148   3.676   8.702   3.387  0.2284 -0.3547  0.0753
  483MOL0     H65149   3.793   8.721   3.522  0.6851 -0.5431 -0.8888
  483MOL0     H65150   3.753   8.496   3.592  2.9815  2.1539 -1.2701
  483MOL0     H65151   3.614   8.462   3.474  0.6592 -2.9291  2.8245
  483MOL0     H65152   3.792   8.477   3.297 -3.2749  0.2361 -1.1050
  483MOL0     H65153   3.912   8.483   3.429  0.3925 -2.5488  0.3921
  483MOL0     H65154   3.732   8.260   3.383  0.0385 -0.0670 -0.1181
  483MOL0     H65155   3.852   8.272   3.518 -2.5201 -1.1168  0.4241
  483MOL0     H65156   4.097   8.379   3.360 -1.5646  0.9931 -0.0311
  483MOL0     H65157   4.291   8.320   3.195  0.9624  0.2914  0.8427
  483MOL0     H65158   4.318   8.155   3.240  0.0232  0.1767  1.7243
  483MOL0     H65159   4.228   8.086   2.993  1.2716  0.0400 -2.7506
  483MOL0     H65160   4.359   8.203   3.002 -0.9975 -3.3163 -1.7307
  483MOL0     H65161   4.225   8.368   2.897 -1.0978  0.8406 -1.7068
  483MOL0     H65162   4.104   8.339   3.014  1.1409  0.2200  0.7060
  483MOL0     H65163   4.150   8.168   2.756 -1.2247 -3.1862  0.8433
  483MOL0     H65164   4.040   8.296   2.775 -0.4218 -1.0564 -1.1173
  483MOL0     H65165   3.859   7.958   3.026 -0.0843 -1.5667 -0.3288
  483MOL0     H65166   3.568   7.743   2.941 -0.2134 -2.6227 -0.8291
  483MOL0     H65167   3.723   7.672   2.972 -1.0705  0.3230 -0.6862
  483MOL0     H65168   3.663   7.813   3.069 -0.0028 -0.0671 -1.1554
  483MOL0     H65169   3.376   7.785   2.456  2.4493  0.8867  1.0804
  483MOL0     H65170   3.260   7.617   2.325 -0.1660  1.1263 -0.7522
  483MOL0     H65171   3.223   7.330   2.275  0.1481 -4.6543 -2.2952
  483MOL0     H65172   3.229   7.454   2.146  2.4440  1.4895  0.8019
  483MOL0     H65173   3.276   7.146   2.148  0.5172 -1.9812 -3.5475
  483MOL0     H65174   3.145   7.227   2.077  0.5024  1.0970 -0.0517
  483MOL0     H65175   3.411   7.164   1.987 -1.2707 -1.2198  1.0372
  483MOL0     H65176   3.367   7.342   1.960  0.7985  0.3902  0.3933
  483MOL0     H65177   3.317   7.185   1.752  0.7838 -0.7849  0.9531
  483MOL0     H65178   3.241   7.082   1.882  4.4497 -0.8472  0.8681
  483MOL0     H65179   3.105   7.329   1.873 -1.2700 -0.3802  0.6093
  483MOL0     H65180   3.043   7.193   1.793 -2.0064  2.0392  1.9601
  483MOL0     H65181   3.210   7.400   1.687  0.8384 -0.2050 -0.4124
  483MOL0     H65182   3.178   7.262   1.586 -4.3453 -2.3149 -1.4336
  483MOL0     H65183   2.957   7.445   1.695 -0.6502 -1.8951  0.5193
  483MOL0     H65184   2.921   7.293   1.616  1.6169 -1.7843 -0.4022
  483MOL0     H65185   3.088   7.483   1.457  2.4312 -4.5442  0.5350
  483MOL0     H65186   2.907   7.502   1.472 -0.4428  0.6371 -1.2241
  483MOL0     H65187   3.649   7.423   2.250  2.2384  1.0868  1.2844
  483MOL0     H65188   3.755   7.604   2.403  1.7472 -0.4233 -3.6893
  483MOL0     H65189   3.748   7.977   2.540  0.4261  2.4439 -0.3368
  483MOL0     H65190   3.908   8.136   2.642  0.7792 -1.5501 -2.0202
  483MOL0     H65191   2.996   8.668   3.845 -0.0199 -0.1481 -0.8322
  483MOL0     H65192   2.755   8.622   3.791 -0.0725 -1.5010  0.7463
  483MOL0     H65193   2.344   8.463   3.899 -0.1890 -3.9430  2.3596
  483MOL0     H65194   2.119   8.390   3.838 -0.0467 -1.2415  0.3957
  483MOL0     H65195   1.915   8.231   3.511 -0.3954 -1.0107 -0.6953
  483MOL0     H65196   2.076   8.181   3.458  0.4415 -2.5648 -0.0528
  483MOL0     H65197   2.085   7.971   3.597 -1.1793 -1.9140  2.7814
  483MOL0     H65198   1.940   7.978   3.493  0.1917 -0.7723  0.3125
  483MOL0     H65199   1.820   8.072   3.721 -0.2304  0.1721  0.7966
  483MOL0     H65200   1.976   8.041   3.802 -1.6573 -0.7457  0.6272
  483MOL0     H65201   1.804   7.877   3.847 -0.2825 -2.4350 -0.7751
  483MOL0     H65202   1.926   7.788   3.779 -0.4475  0.9419  3.9195
  483MOL0     H65203   1.617   7.741   3.504 -0.0565 -0.1658 -0.7406
  483MOL0     H65204   2.264   8.144   3.541 -5.7605 -1.0276  0.5316
  483MOL0     H65205   2.502   8.233   3.571 -1.1667 -2.9719 -1.0464
  484MOL0     O65206  10.418  10.558   5.144 -0.2636 -0.4847 -0.2448
  484MOL0     C65207  10.515  10.500   5.101 -0.8181  0.0271  0.4569
  484MOL0     O65208  10.534  10.371   5.094  0.4281  0.1055  0.2746
  484MOL0     C65209  10.429  10.288   5.109  0.2546 -0.3836 -0.0275
  484MOL0     C65210  10.298  10.289   5.056 -0.1949  0.4573 -0.1409
  484MOL0     C65211  10.210  10.185   5.079  0.2667 -0.0575  0.0541
  484MOL0     C65212  10.232  10.087   5.176 -1.5986  0.0111  0.3648
  484MOL0     O65213  10.152   9.981   5.201 -0.7708  0.6823 -0.0176
  484MOL0     C65214  10.044   9.947   5.124  0.6935 -0.3748  0.5126
  484MOL0     C65215   9.961   9.830   5.167 -0.7605 -0.2856  0.0289
  484MOL0     C65216  10.050   9.710   5.220 -0.9564 -0.5104  0.0581
  484MOL0     C65217   9.967   9.602   5.293 -0.1419 -0.3444 -0.3605
  484MOL0     C65218  10.048   9.489   5.354 -0.6237 -0.2662  0.5502
  484MOL0     C65219   9.957   9.368   5.363 -0.2313  0.2563  0.1230
  484MOL0     C65220  10.030   9.270   5.450  0.1838  0.1351  0.3579
  484MOL0     C65221  10.156   9.202   5.417 -1.3682  0.1783  0.3499
  484MOL0     N65222  10.174   9.101   5.531  0.1451  0.0373  0.1184
  484MOL0     C65223  10.154   9.133   5.662 -0.6418 -0.4837  0.1556
  484MOL0     C65224  10.151   9.015   5.735  1.1784  0.3385  0.9212
  484MOL0     C65225  10.121   8.977   5.884  0.4090  0.1496  0.0557
  484MOL0     C65226  10.225   8.888   5.943 -0.4278 -0.3713  0.1459
  484MOL0     C65227  10.209   8.848   6.084  0.4492  0.5293 -0.5547
  484MOL0     C65228  10.108   8.736   6.097  0.3908  0.1135  0.2418
  484MOL0     O65229  10.106   8.712   6.237 -0.8823  0.8086  0.4440
  484MOL0     C65230  10.017   8.620   6.284 -0.0637 -0.0280 -1.2523
  484MOL0     C65231   9.941   8.528   6.202  0.0431  0.7535 -0.9535
  484MOL0     C65232   9.844   8.437   6.248 -0.9418 -1.1592  0.1505
  484MOL0     C65233   9.790   8.337   6.156 -0.1206  0.2111  0.5837
  484MOL0     C65234   9.806   8.449   6.382  0.5786  0.4449  0.0316
  484MOL0     C65235   9.695   8.368   6.444 -0.6348  0.0615  0.9159
  484MOL0     O65236   9.704   8.341   6.574  0.2569  0.4634  0.1918
  484MOL0     C65237   9.600   8.283   6.630  0.4557  0.3975 -0.9718
  484MOL0     C65238   9.604   8.144   6.670 -0.7806  0.2439  0.0112
  484MOL0     C65239   9.495   8.095   6.737  0.6452 -0.4850 -0.3367
  484MOL0     C65240   9.388   8.171   6.773 -0.6124 -0.1808 -0.2652
  484MOL0     O65241   9.292   8.115   6.850 -0.1487 -0.0677  0.1904
  484MOL0     C65242   9.160   8.160   6.828  0.8592  0.5135 -0.4064
  484MOL0     C65243   9.135   8.275   6.936 -1.3240 -0.7038 -0.1131
  484MOL0     C65244   8.986   8.269   6.989 -0.1165  0.5653  0.1846
  484MOL0     C65245   8.962   8.366   7.105 -0.4134 -0.0360  0.8679
  484MOL0     C65246   8.812   8.387   7.123 -0.4023  0.5920 -0.9745
  484MOL0     C65247   8.776   8.504   7.219 -0.0279  0.2889  1.1975
  484MOL0     C65248   8.779   8.634   7.138 -0.4047  0.9386 -0.1376
  484MOL0     C65249   8.690   8.751   7.189 -0.5639 -0.3742  0.0553
  484MOL0    Cl65250   8.758   8.795   7.347 -0.4331 -0.1593 -0.1483
  484MOL0     C65251   9.387   8.308   6.735 -0.3406  0.2497 -0.0969
  484MOL0     C65252   9.490   8.355   6.661  0.3599 -0.4504  0.4099
  484MOL0     O65253   9.604   8.332   6.365  0.5703 -0.0650  0.0413
  484MOL0     C65254   9.870   8.537   6.464 -0.8926  0.5099 -0.2875
  484MOL0     C65255   9.975   8.623   6.425 -0.3555  0.4633 -1.1424
  484MOL0     N65256  10.155   8.916   5.634  0.8213  0.0064  0.0363
  484MOL0     N65257  10.177   8.970   5.516  1.3298 -0.0202  1.0213
  484MOL0     C65258  10.365  10.084   5.233 -0.3545 -0.8871 -0.0358
  484MOL0     C65259  10.460  10.175   5.178  0.2152 -1.2186 -0.7414
  484MOL0     C65260  10.638  10.576   5.070  0.3029 -0.5417 -0.2551
  484MOL0     C65261  10.629  10.712   5.065 -0.8396 -1.2047  0.0054
  484MOL0     C65262  10.730  10.797   5.023  0.5639  0.0473 -0.5342
  484MOL0     C65263  10.855  10.745   5.008  0.3809 -0.3287  0.1568
  484MOL0     O65264  10.962  10.830   4.965  0.5977  0.2747 -0.5745
  484MOL0     C65265  11.087  10.816   5.042  0.3470 -0.1079  0.1409
  484MOL0     C65266  11.202  10.824   4.936  1.0775  0.4438  0.1380
  484MOL0     C65267  11.221  10.969   4.887 -0.1437  0.2844 -1.2844
  484MOL0     C65268  11.318  10.965   4.775 -0.1103 -0.3616 -0.9736
  484MOL0     C65269  11.460  10.944   4.823 -0.2529  0.9681 -1.2855
  484MOL0     C65270  11.577  10.929   4.870  0.4422 -1.1839  0.2294
  484MOL0     C65271  10.869  10.602   4.998 -0.5033  0.6961  0.0490
  484MOL0     C65272  10.764  10.523   5.023  0.3664 -0.7200  1.1597
  484MOL0     H65273  10.263  10.371   4.994 -2.6298 -0.9161 -0.7294
  484MOL0     H65274  10.117  10.185   5.023  0.1523 -1.1924  0.2267
  484MOL0     H65275   9.984  10.036   5.107 -0.3109 -0.4593  3.1817
  484MOL0     H65276  10.075   9.911   5.025 -1.4311 -0.5720 -0.1226
  484MOL0     H65277   9.893   9.861   5.246  1.8633  0.0573  2.2962
  484MOL0     H65278   9.903   9.795   5.080  0.6536  0.9611 -1.4868
  484MOL0     H65279  10.106   9.661   5.141 -3.1270  1.9604 -3.2636
  484MOL0     H65280  10.127   9.735   5.294 -2.2207  0.5605  1.0675
  484MOL0     H65281   9.920   9.651   5.379 -0.6326  0.2685 -0.9682
  484MOL0     H65282   9.898   9.553   5.224  2.0636 -2.5456 -1.1439
  484MOL0     H65283  10.126   9.467   5.280 -2.6689  1.7250 -2.4572
  484MOL0     H65284  10.089   9.525   5.448  0.0211  0.6560 -0.0595
  484MOL0     H65285   9.858   9.393   5.401  0.3935  0.8160  1.4778
  484MOL0     H65286   9.946   9.331   5.261  2.8089 -2.1273  0.5242
  484MOL0     H65287  10.046   9.329   5.541  0.9588  0.6840 -0.1226
  484MOL0     H65288   9.950   9.196   5.456  0.1406  0.1156 -0.3805
  484MOL0     H65289  10.233   9.280   5.423  1.7618 -2.4747 -1.5616
  484MOL0     H65290  10.169   9.152   5.321  1.4798 -0.4120  0.9468
  484MOL0     H65291  10.148   9.232   5.705 -0.9115 -1.0603  1.4882
  484MOL0     H65292  10.120   9.071   5.940 -3.4489 -0.6328  1.6053
  484MOL0     H65293  10.020   8.936   5.880 -0.2227  1.6992 -2.9482
  484MOL0     H65294  10.324   8.934   5.945 -0.9085  0.6682  0.2856
  484MOL0     H65295  10.223   8.792   5.889 -0.7482 -1.8185  2.5697
  484MOL0     H65296  10.180   8.937   6.140  0.4873 -0.2511  0.7319
  484MOL0     H65297  10.302   8.806   6.123 -2.1270 -5.2457  0.3362
  484MOL0     H65298  10.149   8.661   6.028  1.0782  3.2954 -3.1253
  484MOL0     H65299  10.011   8.773   6.062 -0.3607 -0.0573  2.0577
  484MOL0     H65300   9.982   8.525   6.101 -0.5756  3.2174 -1.3319
  484MOL0     H65301   9.776   8.242   6.208 -3.2581 -0.4337 -1.1779
  484MOL0     H65302   9.702   8.372   6.100  0.0583 -0.6795 -0.2773
  484MOL0     H65303   9.867   8.327   6.078 -0.9132  2.4876 -0.5884
  484MOL0     H65304   9.689   8.080   6.651 -2.2586 -1.4931 -1.1425
  484MOL0     H65305   9.492   7.990   6.764 -1.2064 -0.4073 -0.1179
  484MOL0     H65306   9.133   8.194   6.727 -4.0689 -0.5501  0.2741
  484MOL0     H65307   9.092   8.075   6.840 -1.4014  2.4122  1.3675
  484MOL0     H65308   9.198   8.259   7.024 -2.4299 -0.9266  0.6532
  484MOL0     H65309   9.162   8.372   6.892 -1.9124 -1.4009 -2.1359
  484MOL0     H65310   8.964   8.168   7.024  0.9737  0.4587  0.6089
  484MOL0     H65311   8.920   8.303   6.908  1.5917  0.9800 -1.1023
  484MOL0     H65312   9.017   8.343   7.197  1.5393 -1.3214 -0.5533
  484MOL0     H65313   8.991   8.465   7.070 -4.5539  0.7810 -0.8351
  484MOL0     H65314   8.776   8.289   7.158  2.6206 -0.1609  0.3146
  484MOL0     H65315   8.765   8.399   7.025  2.2279 -0.1187 -2.3963
  484MOL0     H65316   8.684   8.506   7.277  0.0189  2.1078  1.2728
  484MOL0     H65317   8.852   8.516   7.297  0.7467  2.2236  0.2213
  484MOL0     H65318   8.741   8.613   7.038 -1.8993  0.5499  0.4763
  484MOL0     H65319   8.881   8.671   7.128 -0.5126  1.2862  0.0244
  484MOL0     H65320   8.587   8.716   7.197  0.4516 -3.7637  0.0322
  484MOL0     H65321   8.703   8.830   7.115  0.6088  4.0999  4.4741
  484MOL0     H65322   9.306   8.372   6.767 -1.1562 -0.4985 -0.6367
  484MOL0     H65323   9.486   8.458   6.625 -1.5703  0.3746  2.7312
  484MOL0     H65324   9.837   8.538   6.567 -0.3013 -1.3981 -0.0448
  484MOL0     H65325  10.032   8.675   6.502  1.3273  0.3304 -2.2576
  484MOL0     H65326  10.394  10.006   5.302 -1.3810  1.3170  3.0995
  484MOL0     H65327  10.553  10.182   5.234 -0.3799 -0.4877  0.1968
  484MOL0     H65328  10.552  10.764   5.121 -0.5736  0.9976 -1.5226
  484MOL0     H65329  10.704  10.902   5.015 -2.0617 -0.5954 -1.2435
  484MOL0     H65330  11.083  10.886   5.126 -0.1751  1.4941 -1.1748
  484MOL0     H65331  11.094  10.717   5.087 -0.7293  0.0975  0.7978
  484MOL0     H65332  11.181  10.755   4.854  0.4877  2.0644 -1.1360
  484MOL0     H65333  11.293  10.784   4.981  2.5417  1.2157 -1.9799
  484MOL0     H65334  11.269  11.042   4.954 -1.9250  0.3980 -0.0582
  484MOL0     H65335  11.134  11.014   4.840  0.9291  0.4536 -3.2190
  484MOL0     H65336  11.330  11.064   4.729  1.1441  0.2647  0.5832
  484MOL0     H65337  11.278  10.899   4.698 -1.5944 -0.1513 -0.4119
  484MOL0     H65338  11.682  10.917   4.887  0.4434 -1.9145 -0.2524
  484MOL0     H65339  10.962  10.570   4.952 -0.7354  1.7243 -1.1869
  484MOL0     H65340  10.798  10.421   5.005  0.8590 -0.2024 -1.1075
  485MOL0     O65341   2.934   0.498   4.911  0.4022 -0.5932  0.0787
  485MOL0     C65342   2.975   0.573   4.822  0.1857 -0.3944  0.0962
  485MOL0     O65343   3.066   0.528   4.728  0.2047  0.1393  0.3590
  485MOL0     C65344   3.127   0.409   4.720  1.0955 -0.4565  0.1690
  485MOL0     C65345   3.260   0.412   4.674 -0.1561  0.1870  0.4907
  485MOL0     C65346   3.336   0.298   4.644  0.6592  0.2255  0.4607
  485MOL0     C65347   3.295   0.172   4.678  0.3206  1.0957  0.1509
  485MOL0     O65348   3.372   0.057   4.656  0.3731  0.4497  0.0628
  485MOL0     C65349   3.400  -0.019   4.774 -0.5114  0.4402  0.5482
  485MOL0     C65350   3.505  -0.117   4.736  0.3595  0.3918 -0.1142
  485MOL0     C65351   3.636  -0.044   4.746 -1.5776  0.6831 -0.0476
  485MOL0     C65352   3.748  -0.136   4.680  0.4733 -0.5629 -0.4957
  485MOL0     C65353   3.865  -0.041   4.639  0.4150  0.0196  0.3881
  485MOL0     C65354   3.915   0.027   4.768 -0.7761 -0.6793  0.3926
  485MOL0     C65355   4.059   0.084   4.734 -0.7605 -0.7243  0.4444
  485MOL0     C65356   4.122   0.181   4.839  0.5254 -0.5198  0.5227
  485MOL0     N65357   4.047   0.297   4.856 -0.2027  0.8353 -0.5318
  485MOL0     C65358   3.938   0.302   4.944  0.7243  0.2269 -0.6581
  485MOL0     C65359   3.912   0.431   4.958  0.0242 -1.7465 -0.2291
  485MOL0     C65360   3.818   0.520   5.031  0.7382 -0.6900  0.1882
  485MOL0     C65361   3.679   0.454   5.060  0.2805  1.0484 -0.7206
  485MOL0     C65362   3.609   0.385   4.948  0.4375 -0.6689 -0.2393
  485MOL0     C65363   3.462   0.353   4.975 -0.1125  0.7225 -0.2938
  485MOL0     O65364   3.431   0.247   5.070  0.5446  0.0619 -0.1837
  485MOL0     C65365   3.354   0.289   5.179  0.0355  0.6639  0.1319
  485MOL0     C65366   3.214   0.316   5.174 -0.0764 -0.1178  0.0466
  485MOL0     C65367   3.151   0.366   5.288 -0.1003 -0.1353 -1.3449
  485MOL0     C65368   3.008   0.430   5.269  0.4638 -0.2878 -0.9826
  485MOL0     C65369   3.234   0.372   5.406  0.0302  0.6058  0.0253
  485MOL0     C65370   3.172   0.430   5.527 -0.1152 -0.6451  0.7477
  485MOL0     O65371   3.252   0.417   5.639  0.2343  0.7981 -0.2369
  485MOL0     C65372   3.201   0.424   5.767 -0.6936  0.5828  0.8233
  485MOL0     C65373   3.295   0.461   5.859  0.7822  0.4596 -0.2026
  485MOL0     C65374   3.250   0.477   5.991 -0.8093  0.7348 -1.1400
  485MOL0     C65375   3.120   0.446   6.021 -0.3673  0.4484 -0.2263
  485MOL0     O65376   3.086   0.456   6.151  0.6924 -0.5460 -0.4183
  485MOL0     C65377   2.988   0.554   6.196 -0.0343 -1.5007 -0.0899
  485MOL0     C65378   2.997   0.557   6.352 -0.0189  0.5591  0.3252
  485MOL0     C65379   2.949   0.425   6.397 -0.5711  1.3052 -0.4307
  485MOL0     C65380   2.909   0.433   6.541  1.1441  0.3672 -0.0750
  485MOL0     C65381   2.859   0.300   6.606 -0.2968  0.0600 -1.0040
  485MOL0     C65382   2.797   0.333   6.742  0.0912 -0.6532 -0.1515
  485MOL0     C65383   2.910   0.328   6.858  0.5353 -0.5529  0.2621
  485MOL0     C65384   2.859   0.361   6.995  0.3461  0.0685 -0.3697
  485MOL0    Cl65385   2.833   0.542   6.992  0.2154 -0.4732 -0.2750
  485MOL0     C65386   3.035   0.385   5.929  0.0389  0.1895  0.7012
  485MOL0     C65387   3.069   0.377   5.799 -0.4651 -0.2961  1.3107
  485MOL0     O65388   3.073   0.501   5.513  0.3995  0.8560 -0.0318
  485MOL0     C65389   3.366   0.337   5.414  1.1665  0.0319  0.3190
  485MOL0     C65390   3.431   0.294   5.297  0.3309 -0.4382  0.4635
  485MOL0     N65391   3.996   0.501   4.876  0.0384  0.2372  0.3217
  485MOL0     N65392   4.076   0.417   4.813 -0.5174  0.0298  0.1282
  485MOL0     C65393   3.163   0.162   4.735  0.8577  0.3489  0.2523
  485MOL0     C65394   3.078   0.275   4.747  0.1347 -0.1411  0.0280
  485MOL0     C65395   2.943   0.724   4.840 -0.7289  0.3328  0.8251
  485MOL0     C65396   3.015   0.815   4.756 -0.0389  0.5770 -0.2039
  485MOL0     C65397   3.000   0.950   4.777  0.8319  0.0856  1.3834
  485MOL0     C65398   2.923   1.003   4.878 -0.9975 -0.1735 -0.0390
  485MOL0     O65399   2.944   1.139   4.891  0.5878 -0.1945 -0.0358
  485MOL0     C65400   2.876   1.214   4.994  0.0901 -0.2696 -0.0285
  485MOL0     C65401   2.737   1.229   4.945  1.3490 -0.4434 -0.4610
  485MOL0     C65402   2.641   1.293   5.044 -0.0468  0.3061 -0.9028
  485MOL0     C65403   2.596   1.190   5.148 -0.1348 -0.4936 -0.4506
  485MOL0     C65404   2.480   1.252   5.213  0.4803 -0.0347 -0.8730
  485MOL0     C65405   2.397   1.310   5.291 -0.0718 -1.3837  0.5802
  485MOL0     C65406   2.848   0.908   4.950 -0.8992 -0.3555 -0.5641
  485MOL0     C65407   2.851   0.772   4.933  0.0330  0.3990 -0.7943
  485MOL0     H65408   3.302   0.509   4.650  1.5290 -1.0806 -2.0442
  485MOL0     H65409   3.436   0.308   4.603  2.9692 -3.3660  4.3248
  485MOL0     H65410   3.426   0.048   4.857 -0.9047  1.2145  0.0561
  485MOL0     H65411   3.318  -0.075   4.822 -0.3061 -0.2128  0.1487
  485MOL0     H65412   3.507  -0.201   4.806  1.2529  1.1978  0.8475
  485MOL0     H65413   3.485  -0.160   4.637  1.1097  0.7233 -0.4129
  485MOL0     H65414   3.635   0.048   4.687  1.1064 -0.2266 -1.6862
  485MOL0     H65415   3.668  -0.016   4.847 -2.5429  1.3665  0.0916
  485MOL0     H65416   3.805  -0.207   4.741  1.2980  1.6366  1.4351
  485MOL0     H65417   3.705  -0.187   4.593  2.5109 -2.9437 -0.2287
  485MOL0     H65418   3.937  -0.108   4.591  0.3899 -0.0703  0.4735
  485MOL0     H65419   3.830   0.031   4.565  3.6162 -0.2821 -1.5875
  485MOL0     H65420   3.849   0.112   4.790 -0.3807  0.4800 -2.4158
  485MOL0     H65421   3.913  -0.048   4.847  0.9687  0.6998  1.8403
  485MOL0     H65422   4.123  -0.004   4.727 -3.2844 -2.6245 -0.0649
  485MOL0     H65423   4.048   0.136   4.639 -2.2185 -0.6985  0.6005
  485MOL0     H65424   4.222   0.210   4.805  2.3831 -2.0740  4.1470
  485MOL0     H65425   4.146   0.127   4.931  1.5095 -2.1997 -0.6544
  485MOL0     H65426   3.889   0.216   4.990  1.0522 -0.3964 -1.4549
  485MOL0     H65427   3.864   0.555   5.124  3.9959 -2.3239 -0.6781
  485MOL0     H65428   3.796   0.609   4.972 -0.9353 -0.0902  1.6261
  485MOL0     H65429   3.606   0.525   5.098 -0.9083  1.1820 -3.0746
  485MOL0     H65430   3.676   0.376   5.136 -0.2603 -0.8843 -2.6184
  485MOL0     H65431   3.670   0.295   4.936 -0.0630 -1.5840  3.0196
  485MOL0     H65432   3.618   0.434   4.850 -1.5427 -0.0331 -0.1526
  485MOL0     H65433   3.415   0.321   4.882 -1.5623 -1.5413  1.1199
  485MOL0     H65434   3.416   0.444   5.016 -0.3929 -1.5242  5.3268
  485MOL0     H65435   3.146   0.334   5.092 -4.3456 -0.8772  3.0617
  485MOL0     H65436   2.957   0.356   5.207 -1.6489 -1.4257  1.8991
  485MOL0     H65437   2.937   0.432   5.352  3.1523 -0.4139  1.5051
  485MOL0     H65438   3.021   0.521   5.209  2.4331 -0.7786 -1.3742
  485MOL0     H65439   3.398   0.469   5.825  0.4662 -1.2065 -1.7137
  485MOL0     H65440   3.330   0.473   6.064 -2.6744 -2.7844  0.9661
  485MOL0     H65441   3.005   0.654   6.155  1.3315 -1.7975 -0.3049
  485MOL0     H65442   2.883   0.527   6.182 -0.4221 -1.1826  1.9348
  485MOL0     H65443   3.097   0.578   6.391  1.3154 -1.9747 -1.4590
  485MOL0     H65444   2.948   0.643   6.398  4.5982  2.6718  1.9392
  485MOL0     H65445   3.027   0.349   6.386 -1.0052  0.8962 -0.7229
  485MOL0     H65446   2.869   0.377   6.340  0.4316 -1.8990  0.6431
  485MOL0     H65447   2.998   0.438   6.605 -0.4748 -1.0315  2.4366
  485MOL0     H65448   2.844   0.518   6.562  1.9395  0.6985  1.1509
  485MOL0     H65449   2.941   0.228   6.609 -0.4522 -0.0846  0.7841
  485MOL0     H65450   2.775   0.256   6.550 -0.8534  0.9471 -0.8808
  485MOL0     H65451   2.755   0.434   6.737  3.3075  0.8245  0.3976
  485MOL0     H65452   2.711   0.271   6.770  0.0065 -0.7537 -0.6162
  485MOL0     H65453   2.979   0.410   6.837  1.3517 -1.3823 -0.3668
  485MOL0     H65454   2.966   0.235   6.848  1.5794  0.1343 -0.4447
  485MOL0     H65455   2.938   0.339   7.068 -1.8860  0.7961  2.4487
  485MOL0     H65456   2.766   0.313   7.026  1.1888 -1.3399  0.0368
  485MOL0     H65457   2.936   0.355   5.961  2.0774 -2.3106  5.7049
  485MOL0     H65458   3.002   0.331   5.727  0.6819 -1.1393  0.7499
  485MOL0     H65459   3.441   0.358   5.490  2.3672 -0.3709 -0.7163
  485MOL0     H65460   3.539   0.297   5.294  0.2842  1.4075 -1.4912
  485MOL0     H65461   3.131   0.060   4.751  0.5951  0.5174  0.8383
  485MOL0     H65462   2.972   0.258   4.763  0.4559 -1.8378  0.6151
  485MOL0     H65463   3.081   0.782   4.676 -1.6100  0.4547 -1.5007
  485MOL0     H65464   3.055   1.022   4.717  0.5575 -0.1580  0.8384
  485MOL0     H65465   2.892   1.160   5.088 -2.1511  0.9667  1.1456
  485MOL0     H65466   2.908   1.318   5.001 -0.7971 -0.0844  3.4152
  485MOL0     H65467   2.696   1.133   4.912  0.8205 -0.4786  0.2668
  485MOL0     H65468   2.747   1.304   4.866  4.0611 -0.6672 -0.3915
  485MOL0     H65469   2.557   1.339   4.992 -0.0954  2.9774  1.2830
  485MOL0     H65470   2.691   1.376   5.095 -2.8436 -0.0693  2.9036
  485MOL0     H65471   2.673   1.180   5.224  0.0126 -1.3024 -0.6922
  485MOL0     H65472   2.555   1.098   5.105 -3.2185 -0.0036  1.1110
  485MOL0     H65473   2.335   1.359   5.363 -1.5989 -1.6823 -0.4698
  485MOL0     H65474   2.790   0.958   5.028 -0.0594  3.2859 -2.0560
  485MOL0     H65475   2.779   0.704   4.978  0.5857 -0.9719 -1.9186
  486MOL0     O65476   9.326   7.971   0.001 -0.4377  0.2662 -0.4676
  486MOL0     C65477   9.274   8.073  -0.034  0.4000 -0.3509  0.2549
  486MOL0     O65478   9.326   8.203  -0.007  0.5722 -0.7633  0.7579
  486MOL0     C65479   9.393   8.213   0.107 -0.5459 -0.5424  0.5235
  486MOL0     C65480   9.527   8.267   0.094  0.1987  0.1756  0.4203
  486MOL0     C65481   9.601   8.286   0.211 -0.9302  0.6889  0.5515
  486MOL0     C65482   9.543   8.290   0.333 -0.0202 -0.0471  1.1318
  486MOL0     O65483   9.620   8.325   0.436  0.5314  0.3701  0.2240
  486MOL0     C65484   9.568   8.299   0.574  0.2761 -0.5054 -0.7704
  486MOL0     C65485   9.578   8.148   0.591  1.4278  0.2410 -0.9843
  486MOL0     C65486   9.582   8.101   0.732  0.1904 -0.3293 -0.5792
  486MOL0     C65487   9.604   7.956   0.733  0.4527  0.5629  0.0308
  486MOL0     C65488   9.577   7.903   0.876  0.2287  0.7398 -0.4725
  486MOL0     C65489   9.716   7.917   0.954 -0.0025  0.9451  0.8999
  486MOL0     C65490   9.716   7.846   1.090 -0.2518  0.5734  0.0350
  486MOL0     C65491   9.756   7.698   1.082  0.5717  0.9110  0.1948
  486MOL0     N65492   9.737   7.636   1.211 -1.1952 -0.4338  0.3103
  486MOL0     C65493   9.845   7.615   1.280 -0.2504 -0.7277 -0.5729
  486MOL0     C65494   9.789   7.539   1.388  0.1948 -1.2035 -0.2480
  486MOL0     C65495   9.878   7.456   1.469 -0.0840 -0.3512 -0.2320
  486MOL0     C65496   9.986   7.532   1.540  0.7393 -0.3011  0.2664
  486MOL0     C65497  10.087   7.445   1.619 -0.1289  0.7792  1.0423
  486MOL0     C65498  10.192   7.370   1.536 -0.3438  0.4269  0.0175
  486MOL0     O65499  10.273   7.446   1.446 -0.4944  1.0812 -0.4433
  486MOL0     C65500  10.397   7.499   1.498  1.3601  1.1326 -0.4923
  486MOL0     C65501  10.422   7.522   1.628 -1.1792  0.5561 -0.6425
  486MOL0     C65502  10.555   7.550   1.681  0.3792  0.3568 -0.1640
  486MOL0     C65503  10.559   7.555   1.833  0.2430  1.0035 -0.1033
  486MOL0     C65504  10.661   7.584   1.592  0.5609  0.2333  0.0350
  486MOL0     C65505  10.794   7.631   1.626  0.4517 -0.8066  0.0891
  486MOL0     O65506  10.877   7.703   1.540 -0.1253 -0.4054 -0.3599
  486MOL0     C65507  11.014   7.723   1.552 -0.4801  0.9476  1.1450
  486MOL0     C65508  11.108   7.635   1.615 -0.2324  0.1171  1.5866
  486MOL0     C65509  11.243   7.652   1.595  0.4304  1.4636 -0.5240
  486MOL0     C65510  11.307   7.753   1.523  0.8249 -1.1382 -0.1429
  486MOL0     O65511  11.441   7.761   1.509  0.8157  0.7960 -0.2748
  486MOL0     C65512  11.486   7.844   1.394  0.1028  0.3817 -1.1166
  486MOL0     C65513  11.640   7.828   1.369 -0.4486 -0.9238  0.3789
  486MOL0     C65514  11.693   7.930   1.263  0.1136 -0.0578 -0.3418
  486MOL0     C65515  11.588   7.967   1.149 -0.5945  0.4212  0.1686
  486MOL0     C65516  11.668   8.003   1.018 -0.3389  0.2655  0.1313
  486MOL0     C65517  11.585   7.998   0.896  0.2606 -0.3029  0.8209
  486MOL0     C65518  11.492   8.119   0.882 -0.2598  0.1816  0.2237
  486MOL0     C65519  11.468   8.156   0.741  0.9625 -0.0265 -0.8597
  486MOL0    Cl65520  11.596   8.277   0.677  0.0576  0.4818 -0.0275
  486MOL0     C65521  11.211   7.845   1.464  1.0504  0.0906  0.0510
  486MOL0     C65522  11.067   7.823   1.481 -0.2074 -0.6049  0.3446
  486MOL0     O65523  10.836   7.590   1.731 -0.6915  0.5405  0.2908
  486MOL0     C65524  10.620   7.563   1.455  1.0564 -0.6593 -0.2134
  486MOL0     C65525  10.495   7.518   1.408 -0.3830  0.4051 -0.5506
  486MOL0     N65526   9.655   7.522   1.366 -0.1319  0.7593 -0.4253
  486MOL0     N65527   9.619   7.594   1.263 -0.1100  0.0696 -0.1934
  486MOL0     C65528   9.409   8.258   0.339 -0.3409 -0.0789  0.8335
  486MOL0     C65529   9.335   8.208   0.232  0.5621 -0.2897  0.2740
  486MOL0     C65530   9.156   8.063  -0.122  0.2773  0.4431  0.6559
  486MOL0     C65531   9.092   8.176  -0.177 -0.0911  0.4651  0.9793
  486MOL0     C65532   8.996   8.157  -0.280 -0.0972 -0.3336  0.0528
  486MOL0     C65533   8.954   8.030  -0.324 -0.1645 -0.0025 -0.1508
  486MOL0     O65534   8.873   8.025  -0.435 -0.5263  0.3297  0.2214
  486MOL0     C65535   8.793   7.903  -0.455  0.3222 -0.3996 -0.8541
  486MOL0     C65536   8.689   7.937  -0.562 -0.2168  0.4816 -1.2790
  486MOL0     C65537   8.755   7.993  -0.691  0.3728 -0.0749 -0.8003
  486MOL0     C65538   8.658   7.993  -0.808 -0.9302  0.8108 -0.2731
  486MOL0     C65539   8.683   7.866  -0.884 -1.1569  0.2167 -1.2901
  486MOL0     C65540   8.683   7.750  -0.923  0.9931  0.6291  0.0713
  486MOL0     C65541   9.000   7.924  -0.250 -0.7375  0.1156  0.5347
  486MOL0     C65542   9.100   7.941  -0.151  0.2052  0.5878 -0.2894
  486MOL0     H65543   9.574   8.280  -0.003  2.0812 -0.0163  1.2523
  486MOL0     H65544   9.706   8.311   0.199 -0.4007 -2.0831 -1.8499
  486MOL0     H65545   9.645   8.329   0.645  0.2658  1.4163 -1.5049
  486MOL0     H65546   9.471   8.348   0.588  0.0859 -0.6456 -1.5455
  486MOL0     H65547   9.501   8.092   0.538 -1.8375  2.7072  0.7668
  486MOL0     H65548   9.669   8.116   0.540  0.7988 -1.6067 -1.0031
  486MOL0     H65549   9.662   8.151   0.787 -0.3894 -0.0230  0.0094
  486MOL0     H65550   9.481   8.120   0.771  0.3392 -1.0340  0.1918
  486MOL0     H65551   9.555   7.906   0.649  1.9270  2.4012 -2.0389
  486MOL0     H65552   9.709   7.938   0.708 -0.1778 -0.1641 -2.3792
  486MOL0     H65553   9.491   7.955   0.918 -0.3562 -1.1145  0.7390
  486MOL0     H65554   9.550   7.798   0.860  1.2988  0.1316  1.3496
  486MOL0     H65555   9.799   7.880   0.892  1.4725  2.5022  1.8339
  486MOL0     H65556   9.720   8.026   0.963  1.5436  0.8864  1.2110
  486MOL0     H65557   9.783   7.890   1.165  1.2986 -5.7844  3.0486
  486MOL0     H65558   9.614   7.853   1.129 -0.6301  0.3421 -0.8772
  486MOL0     H65559   9.854   7.671   1.040  0.4577  1.7862 -0.6734
  486MOL0     H65560   9.690   7.646   1.012  0.7301  2.5121 -1.2154
  486MOL0     H65561   9.945   7.656   1.267  1.7960 -3.8128  3.2759
  486MOL0     H65562   9.827   7.397   1.546  0.1635 -0.5673 -0.2334
  486MOL0     H65563   9.926   7.379   1.407 -2.5343 -1.4027 -0.9455
  486MOL0     H65564   9.932   7.602   1.605 -1.3904 -2.8720  1.4721
  486MOL0     H65565  10.041   7.579   1.458  0.0980 -3.0439 -1.8659
  486MOL0     H65566  10.023   7.377   1.676 -0.7616  1.4917  1.1966
  486MOL0     H65567  10.133   7.513   1.691 -1.0769  0.0023  2.4333
  486MOL0     H65568  10.138   7.297   1.475 -2.8693  2.1612 -0.0264
  486MOL0     H65569  10.255   7.325   1.612 -1.3101  2.6486  2.2902
  486MOL0     H65570  10.346   7.487   1.698  0.2152 -3.2514 -0.7549
  486MOL0     H65571  10.579   7.651   1.882  0.3771  1.2897 -0.7068
  486MOL0     H65572  10.468   7.510   1.873  0.3807 -0.2225 -1.0962
  486MOL0     H65573  10.642   7.495   1.871  0.9073  1.2589 -1.1048
  486MOL0     H65574  11.076   7.545   1.666  0.9808 -1.3383 -0.0931
  486MOL0     H65575  11.309   7.573   1.630 -0.4949  1.2482  0.7937
  486MOL0     H65576  11.421   7.824   1.309 -2.0313  0.0336  0.5081
  486MOL0     H65577  11.460   7.948   1.413  2.2022  0.4212  2.4181
  486MOL0     H65578  11.698   7.849   1.460 -1.7073 -0.0190  1.0006
  486MOL0     H65579  11.665   7.725   1.342 -4.1072 -1.4673 -1.5204
  486MOL0     H65580  11.792   7.910   1.221 -0.5536 -0.0508 -1.9870
  486MOL0     H65581  11.711   8.020   1.323 -3.5456 -1.5488  3.5065
  486MOL0     H65582  11.525   7.882   1.122 -1.5588  2.0139 -3.0719
  486MOL0     H65583  11.522   8.047   1.183  0.6989  1.7061 -0.2131
  486MOL0     H65584  11.736   7.919   1.004  3.0298  2.9061 -0.9018
  486MOL0     H65585  11.718   8.100   1.025 -3.4222  1.9909  0.3227
  486MOL0     H65586  11.653   8.015   0.812  0.4269  4.1387  1.6047
  486MOL0     H65587  11.530   7.903   0.889  3.5323 -2.2343 -3.2699
  486MOL0     H65588  11.533   8.208   0.930  1.3994 -0.9059  0.9542
  486MOL0     H65589  11.394   8.088   0.920  0.4023 -0.3005  1.6309
  486MOL0     H65590  11.368   8.200   0.735  1.4992  1.3513 -0.0018
  486MOL0     H65591  11.470   8.067   0.677  1.8520  0.0087 -0.8938
  486MOL0     H65592  11.251   7.925   1.402  2.5411 -1.6861 -1.4103
  486MOL0     H65593  10.993   7.884   1.431  0.5407 -1.9166 -2.5703
  486MOL0     H65594  10.676   7.577   1.363  1.2602 -0.7417 -0.1043
  486MOL0     H65595  10.488   7.490   1.303  0.0807  0.3770 -0.5759
  486MOL0     H65596   9.345   8.251   0.426 -1.1706 -2.3842  0.0948
  486MOL0     H65597   9.227   8.193   0.230  0.7258 -1.5238 -1.0926
  486MOL0     H65598   9.117   8.275  -0.138  0.6156 -0.3846  2.7832
  486MOL0     H65599   8.938   8.243  -0.314  0.4720 -0.5316 -1.4781
  486MOL0     H65600   8.857   7.818  -0.481 -0.3699 -0.8048 -1.2632
  486MOL0     H65601   8.747   7.879  -0.359 -0.9377 -7.0686 -2.6598
  486MOL0     H65602   8.630   8.018  -0.517 -0.1466 -1.0113  1.7036
  486MOL0     H65603   8.625   7.853  -0.589 -2.1502  2.1807 -2.3088
  486MOL0     H65604   8.848   7.946  -0.725  1.7989  2.7286 -1.1108
  486MOL0     H65605   8.785   8.095  -0.666  2.4989 -0.8391  0.0792
  486MOL0     H65606   8.685   8.074  -0.876  0.7134  0.9850  0.5537
  486MOL0     H65607   8.554   7.986  -0.777 -0.6433 -3.3233  0.3960
  486MOL0     H65608   8.676   7.648  -0.956 -0.0954  0.0773  1.9104
  486MOL0     H65609   8.965   7.824  -0.274 -1.2233  0.3390  0.3119
  486MOL0     H65610   9.130   7.854  -0.094  0.6998  0.9752  0.0472
  487MOL0     O65611   6.909  11.057   2.797 -1.0485  0.4980 -0.1977
  487MOL0     C65612   6.868  11.004   2.901 -0.0757 -0.9841 -1.0641
  487MOL0     O65613   6.934  10.901   2.959  0.8096  0.0534  0.4261
  487MOL0     C65614   7.039  10.846   2.893  0.1527 -0.2180 -0.6536
  487MOL0     C65615   7.033  10.707   2.854  1.0783 -0.2982  1.0127
  487MOL0     C65616   7.135  10.660   2.777 -0.2007 -0.4711  0.4310
  487MOL0     C65617   7.247  10.736   2.747 -0.1051 -0.0446 -0.8443
  487MOL0     O65618   7.353  10.692   2.683  0.5628  0.6830 -0.0627
  487MOL0     C65619   7.324  10.581   2.588  0.0619 -0.1918  0.6074
  487MOL0     C65620   7.444  10.548   2.487 -0.4691 -0.4998  0.1696
  487MOL0     C65621   7.579  10.512   2.554 -0.1567  1.1783 -0.0711
  487MOL0     C65622   7.655  10.634   2.582 -0.3393 -0.7594 -0.8783
  487MOL0     C65623   7.808  10.618   2.624 -0.7702  0.3311  1.4578
  487MOL0     C65624   7.837  10.770   2.681 -0.8137 -0.6679  1.1207
  487MOL0     C65625   7.978  10.798   2.724  0.0844  0.3111 -0.0819
  487MOL0     C65626   8.073  10.820   2.607 -0.5110  0.5139  0.6149
  487MOL0     N65627   8.209  10.802   2.650  0.6887  0.5411 -0.4464
  487MOL0     C65628   8.278  10.695   2.607 -0.3418 -0.3602 -0.7504
  487MOL0     C65629   8.402  10.725   2.637 -0.2461 -0.5728 -1.4635
  487MOL0     C65630   8.523  10.642   2.608  0.4626 -0.1484 -0.4466
  487MOL0     C65631   8.611  10.696   2.493  0.0257  0.1344 -0.8441
  487MOL0     C65632   8.691  10.827   2.521  0.1646  0.2946  1.1418
  487MOL0     C65633   8.772  10.825   2.645 -0.2770 -0.1965  0.3571
  487MOL0     O65634   8.852  10.713   2.651  0.3251  0.1238  0.5933
  487MOL0     C65635   8.953  10.697   2.744  0.1597  0.3105  0.1669
  487MOL0     C65636   8.971  10.786   2.846  0.1847  1.4749 -0.4636
  487MOL0     C65637   9.080  10.776   2.934  0.9770  0.2504 -0.0995
  487MOL0     C65638   9.087  10.886   3.042  0.4952 -0.1182  0.2150
  487MOL0     C65639   9.176  10.677   2.909  0.0624 -1.2569 -0.6096
  487MOL0     C65640   9.301  10.673   2.990  0.3710  0.6766  0.3225
  487MOL0     O65641   9.343  10.550   3.016  0.4197  0.1324  1.0973
  487MOL0     C65642   9.421  10.510   3.123  0.3509  0.4610  1.1184
  487MOL0     C65643   9.496  10.593   3.206 -0.1277 -0.4052 -0.4244
  487MOL0     C65644   9.578  10.527   3.296  0.1562 -0.1930  0.1713
  487MOL0     C65645   9.599  10.387   3.305  0.4245 -0.0127  1.3413
  487MOL0     O65646   9.686  10.341   3.402  0.4013  0.9451  0.5097
  487MOL0     C65647   9.689  10.201   3.442  0.0649 -0.1885 -0.9429
  487MOL0     C65648   9.746  10.169   3.583 -1.0088 -0.2291  0.0931
  487MOL0     C65649   9.865  10.262   3.623 -0.4525 -0.0377 -1.2036
  487MOL0     C65650   9.981  10.253   3.529 -0.0093  0.1633 -0.0480
  487MOL0     C65651  10.083  10.157   3.597 -0.0752  0.1100 -0.3423
  487MOL0     C65652  10.217  10.168   3.513 -0.0503 -0.1591 -0.3621
  487MOL0     C65653  10.290  10.026   3.511 -0.2707  0.3800 -0.0507
  487MOL0     C65654  10.429  10.032   3.448 -1.2241 -0.1982  0.5101
  487MOL0    Cl65655  10.509   9.875   3.406  0.1629  0.2046  0.2100
  487MOL0     C65656   9.520  10.309   3.211 -0.3327  0.3225 -1.2538
  487MOL0     C65657   9.431  10.370   3.126 -1.3916 -0.3730  0.3498
  487MOL0     O65658   9.363  10.771   3.021  0.5762  0.0867  0.1203
  487MOL0     C65659   9.153  10.585   2.808 -0.6164 -0.1402  1.0801
  487MOL0     C65660   9.042  10.596   2.726 -0.3278 -0.6645  0.3813
  487MOL0     N65661   8.413  10.843   2.700 -0.1012  0.2289 -0.1828
  487MOL0     N65662   8.295  10.901   2.687  1.0589  1.0719 -1.1685
  487MOL0     C65663   7.258  10.858   2.799 -0.1041 -0.3049  0.1286
  487MOL0     C65664   7.159  10.924   2.877 -0.1824  0.6948 -0.0886
  487MOL0     C65665   6.750  11.061   2.975  0.2190 -0.2584 -0.0422
  487MOL0     C65666   6.725  11.059   3.110 -0.3316 -0.0596  0.2390
  487MOL0     C65667   6.609  11.124   3.165  0.1625 -0.1690  0.0185
  487MOL0     C65668   6.524  11.198   3.083  0.0767 -0.6508 -0.0003
  487MOL0     O65669   6.420  11.282   3.123  0.4308  0.0453 -0.1375
  487MOL0     C65670   6.375  11.269   3.263 -0.2712  0.7628  1.3514
  487MOL0     C65671   6.239  11.330   3.269  0.4030 -1.2263  0.6327
  487MOL0     C65672   6.189  11.374   3.405  0.7611  0.8254  0.1752
  487MOL0     C65673   6.050  11.440   3.377 -0.2054 -0.2821 -0.1519
  487MOL0     C65674   6.002  11.494   3.505  0.7507  0.7388 -0.9518
  487MOL0     C65675   5.967  11.555   3.606 -0.2408  0.0308  0.1931
  487MOL0     C65676   6.558  11.206   2.956  0.4124 -0.3883  0.8806
  487MOL0     C65677   6.657  11.131   2.901 -1.0455 -0.8655 -0.4676
  487MOL0     H65678   6.940  10.652   2.849  1.8427 -1.5222 -0.6012
  487MOL0     H65679   7.108  10.559   2.750 -0.3857 -0.5657  0.9539
  487MOL0     H65680   7.298  10.494   2.649  2.2276  0.0741  2.0447
  487MOL0     H65681   7.234  10.611   2.533 -0.3006  0.4958  1.5384
  487MOL0     H65682   7.411  10.460   2.431  1.5299 -3.5567  3.4115
  487MOL0     H65683   7.456  10.634   2.420 -0.7595  1.2860  2.2656
  487MOL0     H65684   7.561  10.445   2.638  1.6197  0.6001 -0.1065
  487MOL0     H65685   7.639  10.452   2.484 -0.4766 -1.4959  1.8019
  487MOL0     H65686   7.652  10.682   2.483  3.0184  1.2449 -0.1691
  487MOL0     H65687   7.605  10.695   2.657  3.3138 -0.2248  1.3493
  487MOL0     H65688   7.823  10.540   2.699  5.6219  0.9746  1.4283
  487MOL0     H65689   7.869  10.584   2.540 -0.3666  1.5715  1.2141
  487MOL0     H65690   7.801  10.838   2.604 -0.5649 -1.7011  0.0541
  487MOL0     H65691   7.775  10.780   2.770 -1.0579 -0.5609  0.9399
  487MOL0     H65692   7.966  10.881   2.793  0.4134 -1.8307  2.7335
  487MOL0     H65693   8.019  10.708   2.771  0.7952 -0.0976 -1.4206
  487MOL0     H65694   8.056  10.921   2.569  0.3291  0.4988  0.1821
  487MOL0     H65695   8.056  10.748   2.527 -0.5313  1.4964 -0.2946
  487MOL0     H65696   8.241  10.602   2.566  4.2324 -3.3863  1.1813
  487MOL0     H65697   8.594  10.634   2.691 -1.3494 -1.1114  1.1091
  487MOL0     H65698   8.486  10.540   2.593  1.1657 -1.2526  4.0646
  487MOL0     H65699   8.560  10.701   2.397 -1.6264  1.3399  0.0545
  487MOL0     H65700   8.676  10.611   2.468 -0.4036  0.1543 -2.1094
  487MOL0     H65701   8.612  10.903   2.529 -0.0136  0.6642 -2.5448
  487MOL0     H65702   8.744  10.868   2.435  3.3130  0.0589  2.8119
  487MOL0     H65703   8.708  10.820   2.734  0.3882  1.3977  0.9778
  487MOL0     H65704   8.830  10.918   2.640  0.9980 -1.0096 -0.3316
  487MOL0     H65705   8.911  10.876   2.857 -2.6878  0.2914 -4.2351
  487MOL0     H65706   8.994  10.943   3.056  0.0416 -1.1736  1.7616
  487MOL0     H65707   9.092  10.830   3.135 -1.5028  0.9882  1.0708
  487MOL0     H65708   9.176  10.950   3.051  1.4971 -1.5246  0.6130
  487MOL0     H65709   9.472  10.699   3.206 -1.1328 -0.6189 -0.2163
  487MOL0     H65710   9.636  10.585   3.367  1.9889 -2.9217  1.0495
  487MOL0     H65711   9.585  10.166   3.447 -0.3314  0.9357 -0.8816
  487MOL0     H65712   9.745  10.134   3.376  1.6674  1.1625 -1.0318
  487MOL0     H65713   9.657  10.183   3.644 -1.0931  0.8953 -0.2700
  487MOL0     H65714   9.772  10.063   3.584  1.5286  0.3265 -0.0696
  487MOL0     H65715   9.873  10.242   3.730 -1.4021  5.4409  0.2099
  487MOL0     H65716   9.844  10.369   3.631 -2.5051 -0.4315 -0.6715
  487MOL0     H65717   9.963  10.199   3.435  3.7951  0.6243 -1.1989
  487MOL0     H65718  10.030  10.349   3.511  1.3465 -0.4442  0.2909
  487MOL0     H65719  10.051  10.052   3.597  0.8366 -0.1731 -0.3599
  487MOL0     H65720  10.104  10.169   3.704  1.4105 -1.7931 -0.3764
  487MOL0     H65721  10.190  10.185   3.408  2.3906  2.9878 -0.6436
  487MOL0     H65722  10.279  10.241   3.565  1.4146 -2.4553  1.3197
  487MOL0     H65723  10.249   9.949   3.446 -0.5323  1.3253 -1.0375
  487MOL0     H65724  10.295   9.982   3.611 -1.5777  2.0713  0.8066
  487MOL0     H65725  10.503  10.076   3.516 -0.7121 -0.4239  0.1130
  487MOL0     H65726  10.420  10.090   3.355 -0.3024 -0.1958  0.4086
  487MOL0     H65727   9.534  10.202   3.211  0.0667  0.2149  2.7556
  487MOL0     H65728   9.368  10.324   3.051  0.7386  0.7148 -2.2752
  487MOL0     H65729   9.210  10.492   2.806  0.1288  0.2744  2.2773
  487MOL0     H65730   9.025  10.526   2.645 -2.4139  2.8705 -2.5461
  487MOL0     H65731   7.341  10.927   2.788 -0.0738  0.4055  3.7822
  487MOL0     H65732   7.169  11.024   2.918 -2.8522  1.0055 -0.0629
  487MOL0     H65733   6.792  11.003   3.174 -0.3043 -0.1276  0.1513
  487MOL0     H65734   6.593  11.113   3.271  2.2758 -1.8763  0.2252
  487MOL0     H65735   6.380  11.166   3.298 -2.8729  0.4920  1.1058
  487MOL0     H65736   6.449  11.324   3.323 -0.7254  1.9819  0.8308
  487MOL0     H65737   6.161  11.261   3.236  1.3868 -1.7808 -0.6229
  487MOL0     H65738   6.236  11.421   3.208 -2.0379 -1.8118 -0.2606
  487MOL0     H65739   6.267  11.433   3.454  0.5123  0.1076  1.4905
  487MOL0     H65740   6.185  11.282   3.464 -0.9709  0.7902  0.0510
  487MOL0     H65741   5.980  11.361   3.348  1.9031 -3.0044  1.5706
  487MOL0     H65742   6.045  11.526   3.311 -1.1788 -1.1004 -1.1852
  487MOL0     H65743   5.945  11.604   3.699  3.3080  2.0983  0.1266
  487MOL0     H65744   6.504  11.261   2.879  1.1908  0.7657  1.1311
  487MOL0     H65745   6.652  11.115   2.794 -2.3297  0.4646 -0.6398
  488MOL0     O65746   9.861   7.942   2.729 -0.4332 -0.3358  0.3135
  488MOL0     C65747   9.827   7.834   2.694 -0.3161  0.3056 -0.5482
  488MOL0     O65748   9.892   7.721   2.705 -0.3990  0.8586 -0.4189
  488MOL0     C65749  10.034   7.715   2.704 -0.0737  0.8121 -0.0344
  488MOL0     C65750  10.105   7.607   2.772  0.2723  0.3779 -1.0040
  488MOL0     C65751  10.240   7.604   2.781 -0.4478 -1.6704  0.5455
  488MOL0     C65752  10.323   7.706   2.729  0.6649 -1.4304 -0.3691
  488MOL0     O65753  10.457   7.689   2.733  0.0985 -0.2834  0.0786
  488MOL0     C65754  10.528   7.810   2.702  0.0609 -0.2439 -0.5116
  488MOL0     C65755  10.664   7.756   2.664  0.4858  0.8242  0.4629
  488MOL0     C65756  10.755   7.876   2.644 -0.1233  0.9808 -0.1286
  488MOL0     C65757  10.726   7.968   2.521  0.5832 -0.8370 -0.7052
  488MOL0     C65758  10.820   8.079   2.515 -0.3507 -0.1204 -0.4424
  488MOL0     C65759  10.818   8.174   2.631  0.5455  1.1281  0.2279
  488MOL0     C65760  10.900   8.298   2.593 -0.2699  0.9658 -0.4902
  488MOL0     C65761  10.917   8.372   2.726 -0.6769 -0.5589 -0.1642
  488MOL0     N65762  10.975   8.503   2.711  0.1946  0.5383  1.0634
  488MOL0     C65763  11.048   8.566   2.806 -0.2030 -0.1298  0.0607
  488MOL0     C65764  11.015   8.701   2.802 -0.8764  0.0297  0.1779
  488MOL0     C65765  11.053   8.797   2.915 -0.0041  0.4022  0.5403
  488MOL0     C65766  10.935   8.838   2.997  0.0320 -0.3326  0.0293
  488MOL0     C65767  10.877   8.723   3.078  0.4799  0.9793  0.1727
  488MOL0     C65768  10.740   8.669   3.032  0.5821  0.1687 -0.0349
  488MOL0     O65769  10.630   8.770   3.027 -0.2454 -0.4912 -0.1455
  488MOL0     C65770  10.594   8.824   3.144 -0.1249 -0.1312  0.3424
  488MOL0     C65771  10.610   8.763   3.270 -0.0499 -0.9162  0.5803
  488MOL0     C65772  10.546   8.815   3.381 -0.0357 -0.8617 -0.0703
  488MOL0     C65773  10.578   8.761   3.520  0.3503  0.6196  0.1140
  488MOL0     C65774  10.479   8.938   3.379 -0.1539  0.2343 -0.6562
  488MOL0     C65775  10.407   9.002   3.491  0.0369  0.1419  0.2825
  488MOL0     O65776  10.449   9.121   3.530 -0.0397  0.5480  0.4022
  488MOL0     C65777  10.386   9.200   3.626 -0.0981  0.3152  0.0188
  488MOL0     C65778  10.300   9.155   3.729 -0.3978  0.4796  0.0452
  488MOL0     C65779  10.258   9.235   3.825  0.8444 -0.7925 -0.5138
  488MOL0     C65780  10.276   9.379   3.825 -0.6935  0.2826  0.1205
  488MOL0     O65781  10.255   9.459   3.935  0.0481 -0.7695 -0.2237
  488MOL0     C65782  10.137   9.444   4.018 -0.7797  0.5022  0.2252
  488MOL0     C65783   9.994   9.446   3.947  0.3313  0.0628  0.1585
  488MOL0     C65784   9.876   9.396   4.029 -0.0038 -0.5406 -0.2595
  488MOL0     C65785   9.753   9.364   3.933 -0.4116 -0.1527  1.1543
  488MOL0     C65786   9.642   9.284   3.997 -0.2478 -0.6107  0.7918
  488MOL0     C65787   9.690   9.158   4.064 -0.4395 -0.3414 -0.1761
  488MOL0     C65788   9.763   9.063   3.977 -0.2920  0.6285  0.0012
  488MOL0     C65789   9.718   8.914   3.995  0.0222  0.4490 -0.2290
  488MOL0    Cl65790   9.539   8.905   3.934 -0.1984  0.4707  0.1292
  488MOL0     C65791  10.352   9.429   3.718 -0.5090 -0.3236  0.0365
  488MOL0     C65792  10.417   9.338   3.629 -0.1147  0.0806  0.1552
  488MOL0     O65793  10.312   8.947   3.542  0.3986  0.7779 -0.1244
  488MOL0     C65794  10.468   9.002   3.258  0.7988  0.3826 -0.0566
  488MOL0     C65795  10.514   8.938   3.136  0.3577 -0.5374 -0.1794
  488MOL0     N65796  10.919   8.710   2.704 -0.1494 -0.1209  0.4506
  488MOL0     N65797  10.904   8.600   2.649 -0.1081 -0.5645 -0.1810
  488MOL0     C65798  10.250   7.819   2.682 -0.3424 -0.4281  1.0123
  488MOL0     C65799  10.116   7.816   2.652 -0.1159  0.0622  0.5560
  488MOL0     C65800   9.678   7.817   2.679 -0.6780  0.0133 -0.1324
  488MOL0     C65801   9.618   7.695   2.638  0.1390  0.9819 -0.1167
  488MOL0     C65802   9.479   7.683   2.620  1.0776  0.4958 -0.5328
  488MOL0     C65803   9.402   7.795   2.648 -0.2521 -0.1575  0.3357
  488MOL0     O65804   9.272   7.787   2.665  0.0594 -0.4342  0.1130
  488MOL0     C65805   9.208   7.662   2.648 -0.0083  0.7040 -0.2965
  488MOL0     C65806   9.057   7.674   2.706 -0.4503  0.0873  0.4540
  488MOL0     C65807   8.998   7.524   2.688 -0.6411  0.6459 -0.8860
  488MOL0     C65808   8.850   7.526   2.663 -0.1894 -0.0904 -1.2185
  488MOL0     C65809   8.789   7.398   2.622  0.2565  0.1329 -0.9784
  488MOL0     C65810   8.762   7.280   2.590  0.4746 -0.4412 -0.3085
  488MOL0     C65811   9.458   7.926   2.673 -0.9144  0.2816 -0.9110
  488MOL0     C65812   9.594   7.931   2.691 -0.9363 -0.2178 -0.2471
  488MOL0     H65813  10.043   7.540   2.831 -0.7908  0.2738 -2.1907
  488MOL0     H65814  10.299   7.527   2.829 -0.4325 -2.2350 -0.3578
  488MOL0     H65815  10.493   7.851   2.606  2.5455 -2.6228 -2.6065
  488MOL0     H65816  10.532   7.889   2.777 -1.2133  2.7594 -3.3331
  488MOL0     H65817  10.702   7.705   2.753 -1.2218  0.6400  1.1292
  488MOL0     H65818  10.669   7.701   2.569  5.1542 -1.7955  1.8869
  488MOL0     H65819  10.756   7.928   2.740 -2.6767  0.3478  0.3098
  488MOL0     H65820  10.851   7.826   2.626 -0.3921  0.8088 -1.1667
  488MOL0     H65821  10.726   7.916   2.425  0.8445 -3.6482  0.7064
  488MOL0     H65822  10.628   8.010   2.543  0.0264 -1.7614 -1.3549
  488MOL0     H65823  10.922   8.041   2.503  0.4887  1.3622  1.4869
  488MOL0     H65824  10.797   8.138   2.426  1.8985  0.1169 -0.9175
  488MOL0     H65825  10.711   8.191   2.649 -0.3071  0.4220 -3.3522
  488MOL0     H65826  10.847   8.119   2.720 -0.7058 -0.2369 -0.1621
  488MOL0     H65827  10.999   8.270   2.556 -0.5322 -2.8860  1.2046
  488MOL0     H65828  10.838   8.362   2.530 -0.5976  0.3763 -0.7785
  488MOL0     H65829  10.969   8.314   2.803  0.5018  2.7795  1.7922
  488MOL0     H65830  10.819   8.388   2.771 -0.7811  0.9407 -0.8732
  488MOL0     H65831  11.120   8.521   2.874 -0.3544 -0.9428 -0.3074
  488MOL0     H65832  11.129   8.764   2.987 -2.3762  0.1324  3.0790
  488MOL0     H65833  11.083   8.888   2.861 -0.9564  0.6714  0.4516
  488MOL0     H65834  10.863   8.877   2.925  0.3554  0.4207  0.1045
  488MOL0     H65835  10.963   8.915   3.070 -3.6056  1.0092  0.2077
  488MOL0     H65836  10.877   8.758   3.182  1.2307  0.2507  0.4313
  488MOL0     H65837  10.944   8.638   3.066  2.6733  2.3067  2.1553
  488MOL0     H65838  10.715   8.575   3.083  0.5315 -0.4036 -1.0799
  488MOL0     H65839  10.762   8.634   2.930  1.2717  2.4924 -0.7421
  488MOL0     H65840  10.658   8.666   3.284  1.1783 -0.1462  1.9792
  488MOL0     H65841  10.544   8.821   3.605  1.1078 -0.3534  1.1378
  488MOL0     H65842  10.528   8.665   3.539  4.3229 -1.4009  1.5935
  488MOL0     H65843  10.685   8.745   3.533  0.1472  0.0304  1.2818
  488MOL0     H65844  10.268   9.054   3.753 -1.1575  0.4350 -1.0733
  488MOL0     H65845  10.197   9.190   3.903  1.1614 -0.4852 -0.0844
  488MOL0     H65846  10.149   9.346   4.065 -0.2579  0.3273 -0.2611
  488MOL0     H65847  10.141   9.517   4.099  2.2444  2.3516 -1.3885
  488MOL0     H65848   9.959   9.549   3.932  1.5409  0.4650 -0.0613
  488MOL0     H65849  10.002   9.382   3.859 -0.5491 -0.6259  0.5755
  488MOL0     H65850   9.853   9.478   4.098 -0.6012  1.5920 -2.8280
  488MOL0     H65851   9.913   9.315   4.092 -1.4027  2.3533  4.8798
  488MOL0     H65852   9.703   9.459   3.912 -2.7310 -1.7348 -1.2052
  488MOL0     H65853   9.769   9.310   3.839 -1.7934  3.1668 -1.1753
  488MOL0     H65854   9.569   9.265   3.917  1.0881 -0.4361 -0.5145
  488MOL0     H65855   9.606   9.353   4.074  1.0608 -0.6549  1.4583
  488MOL0     H65856   9.752   9.186   4.150  0.6378  0.4530 -1.1969
  488MOL0     H65857   9.601   9.116   4.112  1.3093 -0.2047  3.5703
  488MOL0     H65858   9.868   9.074   4.004 -0.7071  1.7752  1.2436
  488MOL0     H65859   9.756   9.093   3.872 -0.3787 -1.2739 -0.5741
  488MOL0     H65860   9.722   8.896   4.103 -2.6964  1.8839  0.1782
  488MOL0     H65861   9.781   8.834   3.954  0.1995  0.9141 -0.8865
  488MOL0     H65862  10.371   9.535   3.702 -0.8241 -0.0558  1.3032
  488MOL0     H65863  10.485   9.361   3.548 -1.8323 -1.1807 -1.7449
  488MOL0     H65864  10.428   9.102   3.245  1.8069  0.9266  0.8659
  488MOL0     H65865  10.507   9.000   3.047  1.4751 -1.8857 -1.2434
  488MOL0     H65866  10.298   7.912   2.652 -2.2397 -0.1536 -1.4891
  488MOL0     H65867  10.058   7.888   2.594 -1.1205  0.4327  1.9696
  488MOL0     H65868   9.678   7.605   2.628 -1.2594  0.2931 -4.6812
  488MOL0     H65869   9.430   7.589   2.597  2.3632 -0.8086  1.6939
  488MOL0     H65870   9.192   7.623   2.547 -0.6250  1.4303 -0.4860
  488MOL0     H65871   9.256   7.586   2.711 -3.0553  0.4897  1.9826
  488MOL0     H65872   9.002   7.745   2.644 -1.9307 -1.5291 -0.1993
  488MOL0     H65873   9.045   7.709   2.809 -2.9135  2.3302 -0.4862
  488MOL0     H65874   9.035   7.461   2.770  0.0477  1.3339 -0.6501
  488MOL0     H65875   9.031   7.477   2.595 -0.0013 -0.1734 -0.2540
  488MOL0     H65876   8.831   7.597   2.582 -2.7790 -1.5335 -1.9911
  488MOL0     H65877   8.806   7.562   2.756 -0.5622 -1.0121 -1.0253
  488MOL0     H65878   8.741   7.183   2.551  1.9062  0.0592 -2.5093
  488MOL0     H65879   9.396   8.014   2.688 -0.6171  0.4375 -0.5968
  488MOL0     H65880   9.653   8.020   2.712  0.7594 -1.2486 -0.4673
  489MOL0     O65881   4.731   7.231   0.259  0.0016 -0.2448 -0.1242
  489MOL0     C65882   4.718   7.117   0.227  0.3316  0.5329 -0.8038
  489MOL0     O65883   4.789   7.047   0.132  0.1412 -0.1545 -0.4473
  489MOL0     C65884   4.901   7.089   0.070  0.2681 -0.6294  0.9143
  489MOL0     C65885   4.960   7.004  -0.028  0.4045 -0.0488  0.6361
  489MOL0     C65886   5.080   7.033  -0.088 -0.4941  0.0863 -0.7134
  489MOL0     C65887   5.148   7.153  -0.065 -0.2873  0.4633  0.5791
  489MOL0     O65888   5.255   7.188  -0.140 -0.1442 -0.1234  0.5791
  489MOL0     C65889   5.209   7.220  -0.276 -0.1649 -0.4053  0.4385
  489MOL0     C65890   5.312   7.299  -0.362 -0.0497  0.3062  0.2466
  489MOL0     C65891   5.352   7.433  -0.313 -0.3098  0.4752  0.0502
  489MOL0     C65892   5.497   7.423  -0.247 -0.1842  0.6991 -1.2380
  489MOL0     C65893   5.532   7.558  -0.192  0.4567 -0.4398 -1.3866
  489MOL0     C65894   5.647   7.540  -0.078 -0.3648  0.5316  0.2254
  489MOL0     C65895   5.730   7.666  -0.052 -0.5336 -0.1648 -0.2172
  489MOL0     C65896   5.672   7.769   0.050  0.1461  0.4374  0.3665
  489MOL0     N65897   5.760   7.880   0.089  0.1469 -0.3622 -0.4756
  489MOL0     C65898   5.784   7.987   0.018  0.4706 -1.7599 -0.0614
  489MOL0     C65899   5.900   8.037   0.063  0.4063  0.2799  0.0114
  489MOL0     C65900   5.986   8.135  -0.005  0.1656 -0.0772  0.0277
  489MOL0     C65901   6.128   8.091  -0.022  0.0504 -0.0717 -0.5247
  489MOL0     C65902   6.176   7.975  -0.111 -0.0104 -0.5397  0.5655
  489MOL0     C65903   6.121   7.831  -0.106  0.5918 -0.4305 -0.6163
  489MOL0     O65904   6.177   7.753  -0.211 -0.0881 -0.4570  0.8994
  489MOL0     C65905   6.144   7.620  -0.235  0.4084 -0.4931  1.3873
  489MOL0     C65906   6.138   7.573  -0.372 -0.4890 -0.4825 -1.6033
  489MOL0     C65907   6.104   7.446  -0.395 -0.2862  0.4472 -0.0240
  489MOL0     C65908   6.099   7.405  -0.542  0.4175  0.6171 -0.0085
  489MOL0     C65909   6.062   7.359  -0.285 -0.4921 -0.5475 -0.2333
  489MOL0     C65910   6.018   7.216  -0.309  0.3911  1.5122 -0.0423
  489MOL0     O65911   5.952   7.190  -0.418  0.4990 -0.0291 -0.2451
  489MOL0     C65912   5.920   7.055  -0.438  0.2673 -0.0086  0.0206
  489MOL0     C65913   5.970   6.984  -0.549 -0.4142 -0.4572  0.0122
  489MOL0     C65914   5.928   6.852  -0.572  0.1632 -0.0136  0.9567
  489MOL0     C65915   5.837   6.785  -0.490  1.6089  0.7617  0.2347
  489MOL0     O65916   5.789   6.658  -0.522 -0.4734 -1.0730 -0.4281
  489MOL0     C65917   5.769   6.564  -0.416 -0.9533  0.3791 -0.5190
  489MOL0     C65918   5.901   6.518  -0.345 -0.8219 -0.1888 -0.4851
  489MOL0     C65919   6.005   6.459  -0.447  0.0642 -0.9015  0.5052
  489MOL0     C65920   6.100   6.362  -0.364  0.7214  0.2883 -0.6616
  489MOL0     C65921   6.231   6.339  -0.446  0.5391 -0.9571  0.5509
  489MOL0     C65922   6.266   6.190  -0.471 -0.3444  1.3700 -0.2834
  489MOL0     C65923   6.312   6.169  -0.623  0.0680  0.1073 -0.5497
  489MOL0     C65924   6.386   6.028  -0.641  0.5141 -0.4624  0.7963
  489MOL0    Cl65925   6.537   5.988  -0.543 -0.0259 -0.0255  0.2845
  489MOL0     C65926   5.794   6.854  -0.371  0.9342  0.3897  0.7996
  489MOL0     C65927   5.831   6.987  -0.346  0.6024  0.2746  0.7361
  489MOL0     O65928   6.046   7.128  -0.220  0.1541  0.2501 -0.0170
  489MOL0     C65929   6.063   7.403  -0.154  0.0308  0.0044  0.0817
  489MOL0     C65930   6.117   7.530  -0.119  0.0918  0.4518  0.1931
  489MOL0     N65931   5.943   7.955   0.169  0.5438 -0.8381 -0.0816
  489MOL0     N65932   5.845   7.873   0.192  0.3131  0.4118 -0.4469
  489MOL0     C65933   5.099   7.233   0.035 -0.7521 -0.4860 -0.6740
  489MOL0     C65934   4.975   7.203   0.094  0.1819 -0.7792 -0.3893
  489MOL0     C65935   4.605   7.035   0.284  0.2993  0.6415  0.2247
  489MOL0     C65936   4.534   7.083   0.392  0.4838 -0.2781  0.1918
  489MOL0     C65937   4.437   7.007   0.457 -0.5782  0.6352 -0.2326
  489MOL0     C65938   4.393   6.881   0.408  1.1591  0.8561  0.5391
  489MOL0     O65939   4.313   6.806   0.489  0.7703 -0.0933 -0.5491
  489MOL0     C65940   4.258   6.687   0.435 -1.3205 -0.4126 -0.4218
  489MOL0     C65941   4.135   6.651   0.514 -0.4535  0.1982  0.0652
  489MOL0     C65942   4.014   6.624   0.425 -0.5061  0.8059 -0.7176
  489MOL0     C65943   3.899   6.525   0.487 -0.4986 -0.0682  0.2795
  489MOL0     C65944   3.804   6.507   0.377  0.7346 -0.1375 -1.4078
  489MOL0     C65945   3.733   6.510   0.279  0.7338  0.3300  0.0373
  489MOL0     C65946   4.465   6.830   0.297  0.1857  0.4081 -0.0821
  489MOL0     C65947   4.567   6.908   0.243 -0.5524 -0.2337 -0.2605
  489MOL0     H65948   4.908   6.913  -0.057 -2.1024  1.2706  0.6892
  489MOL0     H65949   5.123   6.957  -0.151 -1.3225 -0.2868 -0.8493
  489MOL0     H65950   5.152   7.145  -0.332 -0.0872 -0.3001  0.2173
  489MOL0     H65951   5.127   7.289  -0.251  0.0599 -1.0210  3.1496
  489MOL0     H65952   5.397   7.229  -0.366 -1.2741 -1.4947  3.0227
  489MOL0     H65953   5.269   7.314  -0.462 -3.7053 -1.5723  1.3795
  489MOL0     H65954   5.359   7.495  -0.402  1.1428 -3.9395 -3.2961
  489MOL0     H65955   5.292   7.472  -0.230 -0.8547 -0.8095  0.2834
  489MOL0     H65956   5.486   7.354  -0.163  3.6612  0.9173 -0.3820
  489MOL0     H65957   5.572   7.388  -0.319  1.0636  1.1231 -0.1756
  489MOL0     H65958   5.575   7.613  -0.276  0.3856 -1.1062 -1.8769
  489MOL0     H65959   5.449   7.616  -0.150  4.2188  2.8828  2.2784
  489MOL0     H65960   5.598   7.505   0.013 -0.2482  1.7691  0.7884
  489MOL0     H65961   5.709   7.452  -0.099  1.0767  0.3062  4.4843
  489MOL0     H65962   5.814   7.623   0.005  1.0569  1.4016 -1.2743
  489MOL0     H65963   5.760   7.705  -0.149 -0.2293  1.3744  0.4708
  489MOL0     H65964   5.658   7.711   0.142  2.7963 -2.2855 -0.7777
  489MOL0     H65965   5.576   7.804   0.009  0.8176 -1.9265 -3.8989
  489MOL0     H65966   5.740   8.003  -0.080 -0.5529  1.1306  0.7820
  489MOL0     H65967   5.946   8.165  -0.103  0.4877 -0.1113 -0.1169
  489MOL0     H65968   5.982   8.228   0.053  0.3203  0.3246 -0.5822
  489MOL0     H65969   6.164   8.069   0.080  0.5766  0.6960 -0.5379
  489MOL0     H65970   6.187   8.177  -0.053 -3.0891  1.2434 -3.4504
  489MOL0     H65971   6.285   7.981  -0.102  0.1844 -0.6676 -1.4564
  489MOL0     H65972   6.156   8.014  -0.211  1.0285  0.2943  0.6666
  489MOL0     H65973   6.016   7.837  -0.138  0.9292  1.1852 -1.5608
  489MOL0     H65974   6.136   7.800  -0.002  0.1574  3.2097  0.6866
  489MOL0     H65975   6.142   7.649  -0.450 -0.2265 -1.3552 -2.4609
  489MOL0     H65976   6.156   7.317  -0.571  1.3644  1.6092 -1.2973
  489MOL0     H65977   5.996   7.379  -0.567  0.2475 -0.5444  1.7471
  489MOL0     H65978   6.142   7.473  -0.616 -1.5853  1.2549 -0.6595
  489MOL0     H65979   6.046   7.033  -0.610 -0.5685  0.1998  0.3343
  489MOL0     H65980   5.968   6.792  -0.653 -2.4948 -1.3265  0.5067
  489MOL0     H65981   5.703   6.603  -0.338 -0.8014  2.0613 -1.1983
  489MOL0     H65982   5.721   6.473  -0.455  1.4912 -1.1569 -0.1433
  489MOL0     H65983   5.944   6.599  -0.286 -3.8139  1.4633 -0.3669
  489MOL0     H65984   5.875   6.432  -0.283 -1.2358 -2.1575 -3.1616
  489MOL0     H65985   6.061   6.544  -0.489  1.8773 -2.0690  0.4651
  489MOL0     H65986   5.958   6.406  -0.530 -0.2085  0.7856 -0.4761
  489MOL0     H65987   6.135   6.397  -0.267  1.5054 -0.1384 -0.7863
  489MOL0     H65988   6.045   6.272  -0.336  1.8781 -0.1289  0.3069
  489MOL0     H65989   6.306   6.386  -0.381 -1.3380  1.9231  0.8137
  489MOL0     H65990   6.233   6.400  -0.536  3.7953 -1.8292 -0.1034
  489MOL0     H65991   6.357   6.177  -0.412  0.2118 -0.4030 -1.4537
  489MOL0     H65992   6.188   6.121  -0.439 -0.7908  0.8662 -2.2664
  489MOL0     H65993   6.382   6.253  -0.637 -0.6612  1.0439  1.1680
  489MOL0     H65994   6.235   6.171  -0.701  0.5857  1.3849 -1.0726
  489MOL0     H65995   6.413   6.021  -0.746 -1.1216  1.7952  0.1593
  489MOL0     H65996   6.310   5.959  -0.602  0.0664  1.0227  2.7476
  489MOL0     H65997   5.721   6.806  -0.307  0.8080 -0.8547 -0.2212
  489MOL0     H65998   5.802   7.046  -0.260  1.4824 -3.2358  3.7018
  489MOL0     H65999   6.037   7.342  -0.068 -1.7296  0.5005 -0.0725
  489MOL0     H66000   6.126   7.557  -0.014  2.8543 -1.8262  0.6487
  489MOL0     H66001   5.142   7.328   0.064 -2.1003  0.1304 -0.5712
  489MOL0     H66002   4.942   7.278   0.166  2.0898  1.9367 -2.1503
  489MOL0     H66003   4.565   7.182   0.423 -0.3750  0.5335 -1.3776
  489MOL0     H66004   4.381   7.029   0.548 -0.5572 -1.1429  0.2494
  489MOL0     H66005   4.237   6.702   0.329  0.7632  4.9667 -0.4046
  489MOL0     H66006   4.340   6.616   0.453  0.1367  1.3178  0.1381
  489MOL0     H66007   4.105   6.739   0.570  0.4069  0.1963  0.5419
  489MOL0     H66008   4.147   6.557   0.570  1.0675 -0.2485 -0.9380
  489MOL0     H66009   4.065   6.575   0.342  2.0089  0.4580  0.9260
  489MOL0     H66010   3.970   6.714   0.382 -0.6278  1.9554  1.6689
  489MOL0     H66011   3.849   6.569   0.574  1.8751  1.1217  1.1336
  489MOL0     H66012   3.943   6.433   0.527  0.7118  0.7876  0.9921
  489MOL0     H66013   3.668   6.510   0.194  0.4204 -1.6170  0.2271
  489MOL0     H66014   4.450   6.733   0.252  2.9723  0.1832 -0.7081
  489MOL0     H66015   4.624   6.858   0.165  0.2566 -1.5280  1.1106
  490MOL0     O66016   0.061   7.981   8.831 -0.4196 -1.0244 -0.2814
  490MOL0     C66017   0.053   7.955   8.948 -0.6346 -0.7309  0.0416
  490MOL0     O66018  -0.031   8.018   9.033 -0.0969 -0.2333  0.1833
  490MOL0     C66019  -0.123   8.097   8.977  0.3415  0.2169 -0.3826
  490MOL0     C66020  -0.115   8.239   8.981 -0.1078  0.4706 -0.0804
  490MOL0     C66021  -0.222   8.322   8.951  0.7380 -0.4982 -0.5031
  490MOL0     C66022  -0.342   8.258   8.904  0.4648 -0.8904 -0.9794
  490MOL0     O66023  -0.441   8.347   8.878 -0.4615 -0.1376  0.4526
  490MOL0     C66024  -0.556   8.319   8.789  0.0722 -0.2392 -0.5158
  490MOL0     C66025  -0.678   8.350   8.870 -0.4546  0.8707 -0.1001
  490MOL0     C66026  -0.688   8.267   9.000  0.7312 -0.1623  1.1273
  490MOL0     C66027  -0.755   8.363   9.110  0.2529 -0.0707  0.1485
  490MOL0     C66028  -0.806   8.286   9.233  0.5695  0.2480  0.2669
  490MOL0     C66029  -0.880   8.373   9.327  0.2205 -0.1461  0.8496
  490MOL0     C66030  -0.917   8.301   9.455  0.0513 -0.7229 -1.2247
  490MOL0     C66031  -0.932   8.406   9.566  0.0056  0.5596 -0.2301
  490MOL0     N66032  -1.015   8.510   9.522  1.0173  0.2274  0.4405
  490MOL0     C66033  -1.149   8.517   9.562 -1.1235 -0.4010 -0.4610
  490MOL0     C66034  -1.190   8.654   9.533  0.0804  0.5702 -0.4780
  490MOL0     C66035  -1.326   8.706   9.556 -0.4174 -0.9728  0.1768
  490MOL0     C66036  -1.366   8.739   9.705 -0.1312  0.1949 -0.7656
  490MOL0     C66037  -1.312   8.880   9.749  1.0406 -0.3968 -0.6884
  490MOL0     C66038  -1.226   8.862   9.869  0.5118  1.2560 -0.5005
  490MOL0     O66039  -1.101   8.806   9.824 -0.0131 -0.1610  0.4561
  490MOL0     C66040  -1.018   8.780   9.924 -0.1874  0.2712 -1.1234
  490MOL0     C66041  -0.903   8.738   9.866  0.1678  0.2203  0.5628
  490MOL0     C66042  -0.783   8.720   9.945  0.1401  0.6571 -0.5856
  490MOL0     C66043  -0.651   8.671   9.870 -1.2054 -0.8760 -0.0465
  490MOL0     C66044  -0.792   8.742  10.087 -0.4994 -0.5310  0.2843
  490MOL0     C66045  -0.695   8.717  10.178  0.4827 -0.3177 -0.7132
  490MOL0     O66046  -0.680   8.823  10.256  0.0735 -0.3244 -0.2986
  490MOL0     C66047  -0.596   8.805  10.366  0.3087 -0.3220 -0.3167
  490MOL0     C66048  -0.461   8.802  10.348  0.5107 -0.8830 -1.2086
  490MOL0     C66049  -0.374   8.768  10.450  0.4147  0.2494  0.5953
  490MOL0     C66050  -0.429   8.751  10.574 -0.4343  0.8881 -1.5977
  490MOL0     O66051  -0.346   8.704  10.672 -0.2413  0.7003 -1.2316
  490MOL0     C66052  -0.281   8.570  10.639  0.8682 -0.2168 -0.0133
  490MOL0     C66053  -0.189   8.524  10.758  0.2418 -0.3872  0.2537
  490MOL0     C66054  -0.115   8.390  10.746 -0.2435 -0.2048 -0.2381
  490MOL0     C66055  -0.198   8.266  10.762  0.7996  0.5670 -0.2605
  490MOL0     C66056  -0.125   8.141  10.706 -0.2461 -0.0798  0.4903
  490MOL0     C66057  -0.152   8.129  10.545 -0.1771 -0.1112 -0.1670
  490MOL0     C66058  -0.036   8.049  10.483 -0.4122 -0.1550 -0.3946
  490MOL0     C66059  -0.062   8.043  10.330 -0.9298 -0.2081 -0.7875
  490MOL0    Cl66060   0.002   8.184  10.242 -0.0449  0.1442 -0.2112
  490MOL0     C66061  -0.572   8.737  10.597 -0.1865  0.2073  0.3677
  490MOL0     C66062  -0.651   8.774  10.494  0.6389  0.0988  0.2912
  490MOL0     O66063  -0.618   8.620  10.183  0.1836  1.0279 -0.0566
  490MOL0     C66064  -0.912   8.798  10.139 -0.0827 -0.3825 -0.2327
  490MOL0     C66065  -1.024   8.810  10.056 -0.4318  0.1718 -0.6283
  490MOL0     N66066  -1.072   8.719   9.487  0.0890 -0.8119  0.1149
  490MOL0     N66067  -0.981   8.633   9.477  0.0458 -0.8687 -0.5028
  490MOL0     C66068  -0.350   8.117   8.907 -1.1725 -0.9180  0.5649
  490MOL0     C66069  -0.241   8.038   8.935 -0.3198  0.1051  0.1674
  490MOL0     C66070   0.134   7.850   9.003 -0.9412 -0.7901 -0.2872
  490MOL0     C66071   0.151   7.843   9.146  0.3803  0.8070 -0.4524
  490MOL0     C66072   0.221   7.727   9.193 -0.4016  0.3930  0.6920
  490MOL0     C66073   0.267   7.621   9.108  0.2084  0.2345  0.0295
  490MOL0     O66074   0.313   7.499   9.152  0.4978  0.0398 -0.3402
  490MOL0     C66075   0.346   7.481   9.295 -0.1129 -0.1486 -0.6912
  490MOL0     C66076   0.348   7.324   9.314  0.3490 -0.4760 -0.2777
  490MOL0     C66077   0.478   7.257   9.251  0.0841  0.3156 -0.3836
  490MOL0     C66078   0.474   7.104   9.257 -0.5802 -0.3838  0.1563
  490MOL0     C66079   0.476   7.054   9.395 -0.0765  0.6175 -0.4172
  490MOL0     C66080   0.472   7.018   9.514 -1.1108 -0.3308 -0.1813
  490MOL0     C66081   0.264   7.655   8.969  0.2585  0.3464 -0.9329
  490MOL0     C66082   0.190   7.758   8.916  0.5029  0.2344  0.2186
  490MOL0     H66083  -0.028   8.282   9.028 -1.2521 -1.5468  4.4257
  490MOL0     H66084  -0.229   8.430   8.951 -2.2989 -0.5491  1.5682
  490MOL0     H66085  -0.558   8.385   8.702 -1.2181  1.3152  0.6282
  490MOL0     H66086  -0.553   8.211   8.773 -0.9694 -0.2359 -0.7976
  490MOL0     H66087  -0.663   8.456   8.894  1.1086  0.8557 -0.9018
  490MOL0     H66088  -0.760   8.325   8.802  0.1237  5.0770 -2.6501
  490MOL0     H66089  -0.754   8.185   8.969  2.4618 -1.7259  1.4295
  490MOL0     H66090  -0.598   8.225   9.046 -0.1761 -2.5497  0.8568
  490MOL0     H66091  -0.692   8.446   9.144  1.2640 -0.9243  0.4245
  490MOL0     H66092  -0.843   8.406   9.060  1.4431  0.4567 -1.6035
  490MOL0     H66093  -0.869   8.200   9.209  1.3991 -0.7457  1.5265
  490MOL0     H66094  -0.722   8.235   9.280  0.9994  1.4623  0.8595
  490MOL0     H66095  -0.809   8.454   9.347 -0.5313  1.3033 -1.8505
  490MOL0     H66096  -0.960   8.426   9.275  0.1220 -1.2477 -0.1715
  490MOL0     H66097  -1.013   8.255   9.430 -1.9279  3.3756 -2.0861
  490MOL0     H66098  -0.838   8.232   9.483  1.3455  1.5722  1.2046
  490MOL0     H66099  -0.834   8.442   9.602 -0.2727  1.1591 -0.0609
  490MOL0     H66100  -0.972   8.359   9.657 -1.7926  0.9956 -0.7647
  490MOL0     H66101  -1.208   8.443   9.615 -0.8234 -0.4053 -0.1265
  490MOL0     H66102  -1.342   8.797   9.497  1.0927 -3.6483 -4.9381
  490MOL0     H66103  -1.392   8.646   9.493  0.6566 -0.3875 -1.5712
  490MOL0     H66104  -1.339   8.653   9.766 -2.4627 -0.0907 -0.0508
  490MOL0     H66105  -1.476   8.740   9.704 -0.1585  0.0735  0.7850
  490MOL0     H66106  -1.388   8.957   9.760  1.8114  0.3772 -0.6564
  490MOL0     H66107  -1.244   8.917   9.671  0.1099 -0.6738 -1.6669
  490MOL0     H66108  -1.269   8.794   9.943  0.7403  1.9764  0.3171
  490MOL0     H66109  -1.209   8.961   9.913  0.2576 -0.3106  3.5278
  490MOL0     H66110  -0.902   8.723   9.759 -0.1910 -1.2095  0.7438
  490MOL0     H66111  -0.676   8.591   9.799  0.5755  0.4365 -2.2648
  490MOL0     H66112  -0.616   8.746   9.799  0.8521 -2.4058 -0.7590
  490MOL0     H66113  -0.567   8.645   9.935  0.6244  0.2082 -1.8643
  490MOL0     H66114  -0.404   8.836  10.262  1.5994 -1.5149 -0.7617
  490MOL0     H66115  -0.266   8.783  10.445  0.5311  0.7706  3.3894
  490MOL0     H66116  -0.353   8.492  10.614  0.4299  0.7827 -2.1232
  490MOL0     H66117  -0.217   8.585  10.551 -0.7986 -0.3173 -1.3074
  490MOL0     H66118  -0.106   8.595  10.760 -0.9635  1.0641  0.3212
  490MOL0     H66119  -0.249   8.529  10.849  1.7651  4.2594  1.2727
  490MOL0     H66120  -0.031   8.379  10.815 -1.6260  0.6552  1.6877
  490MOL0     H66121  -0.078   8.388  10.644 -3.2922  3.7813 -1.7222
  490MOL0     H66122  -0.221   8.246  10.867 -3.5834  0.8719 -1.0002
  490MOL0     H66123  -0.302   8.276  10.731  0.3748  0.6224  1.1350
  490MOL0     H66124  -0.162   8.050  10.753  1.0502 -2.5879 -2.9170
  490MOL0     H66125  -0.017   8.141  10.722 -0.2411 -1.4054  0.5417
  490MOL0     H66126  -0.251   8.084  10.534 -1.1584  1.8286  0.3182
  490MOL0     H66127  -0.159   8.226  10.495  1.5686  1.2578  2.0278
  490MOL0     H66128  -0.022   7.950  10.526  1.6471  0.4860  0.5920
  490MOL0     H66129   0.062   8.095  10.501 -0.6040 -0.0485  0.4136
  490MOL0     H66130  -0.168   8.032  10.305 -0.2613 -0.6897 -3.6606
  490MOL0     H66131  -0.014   7.951  10.296  2.4311  1.1170 -0.0203
  490MOL0     H66132  -0.621   8.713  10.691  0.5129 -2.4489  0.1264
  490MOL0     H66133  -0.757   8.793  10.502  0.8952  3.8053 -2.4094
  490MOL0     H66134  -0.910   8.841  10.239  1.6237 -0.3875 -0.2482
  490MOL0     H66135  -1.113   8.861  10.091  1.0687  1.1057  2.1954
  490MOL0     H66136  -0.442   8.064   8.885 -2.0862  0.3544  1.1405
  490MOL0     H66137  -0.257   7.932   8.953  0.9060 -0.1406 -0.1219
  490MOL0     H66138   0.118   7.914   9.222  0.8407  1.2086 -0.6203
  490MOL0     H66139   0.219   7.709   9.300 -1.0685 -1.4559  0.4025
  490MOL0     H66140   0.451   7.509   9.310 -0.9685  3.0939  0.0562
  490MOL0     H66141   0.272   7.524   9.363 -0.4427  0.9629 -1.6937
  490MOL0     H66142   0.265   7.274   9.262 -0.6874 -0.7718  1.5771
  490MOL0     H66143   0.326   7.316   9.420 -1.4160 -0.0812 -0.5818
  490MOL0     H66144   0.559   7.278   9.321 -1.4334  1.0877  1.2183
  490MOL0     H66145   0.504   7.289   9.150 -3.3823  1.1964 -1.1340
  490MOL0     H66146   0.557   7.064   9.197 -0.0592  2.6587 -1.3431
  490MOL0     H66147   0.385   7.057   9.215  1.8234 -6.7992  0.9958
  490MOL0     H66148   0.484   6.971   9.610 -0.5269 -0.4487 -0.3095
  490MOL0     H66149   0.307   7.594   8.890  0.8057  2.0255 -1.9889
  490MOL0     H66150   0.188   7.775   8.809 -2.0129  0.8638  0.2850
  491MOL0     O66151   0.481   0.190  11.243 -0.4160  0.4395  0.0035
  491MOL0     C66152   0.365   0.166  11.229 -0.4923 -0.5390  0.2895
  491MOL0     O66153   0.312   0.048  11.179  0.4192 -0.0451 -0.1356
  491MOL0     C66154   0.392  -0.059  11.160  0.4494  1.1680  0.2065
  491MOL0     C66155   0.408  -0.112  11.023 -0.1282 -0.0944 -1.0316
  491MOL0     C66156   0.500  -0.215  10.995 -0.2444 -0.7643 -0.6902
  491MOL0     C66157   0.572  -0.272  11.104 -0.3444  0.2116  0.3196
  491MOL0     O66158   0.634  -0.396  11.095  0.5866  0.1375  0.4951
  491MOL0     C66159   0.762  -0.373  11.025  0.4300 -0.1041 -0.1388
  491MOL0     C66160   0.786  -0.484  10.929 -0.6558  0.1052  1.0154
  491MOL0     C66161   0.770  -0.631  10.978  0.3936 -0.3256  0.0969
  491MOL0     C66162   0.812  -0.727  10.864 -0.1068 -0.2326  0.1927
  491MOL0     C66163   0.968  -0.729  10.843 -0.3629 -0.4331  0.3961
  491MOL0     C66164   1.009  -0.801  10.712 -0.0945  0.4175  0.0363
  491MOL0     C66165   1.140  -0.865  10.720 -0.1855 -1.4554 -0.3984
  491MOL0     C66166   1.158  -0.968  10.829 -0.1473 -0.5808 -0.9172
  491MOL0     N66167   1.300  -1.022  10.818  0.7630 -0.9554 -0.2313
  491MOL0     C66168   1.338  -1.120  10.736  0.5213 -0.1896 -0.3980
  491MOL0     C66169   1.473  -1.134  10.769 -0.0790 -0.0125  0.8706
  491MOL0     C66170   1.581  -1.208  10.689  0.5424 -0.9839 -0.2576
  491MOL0     C66171   1.727  -1.163  10.720  0.4723 -0.6655  0.3737
  491MOL0     C66172   1.833  -1.215  10.622 -0.5197 -0.6807  0.2263
  491MOL0     C66173   1.884  -1.356  10.631  0.4321  0.5880 -0.7284
  491MOL0     O66174   2.018  -1.348  10.572 -0.1846  0.7158  0.6175
  491MOL0     C66175   2.108  -1.452  10.583  0.3877 -0.7684  0.4280
  491MOL0     C66176   2.243  -1.417  10.557  1.0154 -0.0619  0.9021
  491MOL0     C66177   2.345  -1.509  10.577  0.2007  0.7350 -0.4336
  491MOL0     C66178   2.493  -1.474  10.576 -0.3862  0.1096  0.3779
  491MOL0     C66179   2.300  -1.645  10.614 -0.3827 -0.4053  1.0051
  491MOL0     C66180   2.382  -1.761  10.638 -0.6759  0.6698  0.4657
  491MOL0     O66181   2.344  -1.840  10.738  0.2246  0.5787  0.2365
  491MOL0     C66182   2.413  -1.954  10.780 -0.9169  0.5119  0.1341
  491MOL0     C66183   2.423  -1.981  10.911 -0.8260  0.4600 -0.0369
  491MOL0     C66184   2.477  -2.101  10.951  0.6260  1.1049  0.4024
  491MOL0     C66185   2.495  -2.208  10.861  0.3037  0.9325  0.9894
  491MOL0     O66186   2.540  -2.322  10.924 -0.2891  1.1562 -0.7974
  491MOL0     C66187   2.603  -2.425  10.846  0.0350  0.5372  0.4695
  491MOL0     C66188   2.751  -2.386  10.808  0.2243 -0.5121  0.1127
  491MOL0     C66189   2.837  -2.337  10.929  0.8263  0.7650 -0.1930
  491MOL0     C66190   2.959  -2.261  10.891  1.1442 -0.6880 -0.6033
  491MOL0     C66191   3.032  -2.338  10.774  0.8963  0.8435 -0.4666
  491MOL0     C66192   3.162  -2.277  10.746  0.7850  0.0820  0.6777
  491MOL0     C66193   3.250  -2.375  10.667 -0.2722  0.1740 -0.6696
  491MOL0     C66194   3.345  -2.302  10.572  0.7117  0.3077  1.1831
  491MOL0    Cl66195   3.425  -2.428  10.483  0.4107 -0.2991  0.1332
  491MOL0     C66196   2.481  -2.179  10.724 -0.5816  0.4583  1.1525
  491MOL0     C66197   2.443  -2.051  10.680  0.9301  0.0758 -0.0593
  491MOL0     O66198   2.486  -1.763  10.579  0.0337  0.3106  0.3910
  491MOL0     C66199   2.162  -1.673  10.629 -1.2269  1.2869 -0.4662
  491MOL0     C66200   2.072  -1.577  10.629  1.1237  0.1294 -0.0133
  491MOL0     N66201   1.498  -1.052  10.880  0.5165  0.2296  0.6444
  491MOL0     N66202   1.393  -0.981  10.909 -0.9366  0.5919  0.2214
  491MOL0     C66203   0.554  -0.227  11.240  0.0800 -0.2004 -0.3491
  491MOL0     C66204   0.471  -0.120  11.261  0.1048 -0.1716 -0.2835
  491MOL0     C66205   0.262   0.281  11.252 -0.8291  1.3936  0.4152
  491MOL0     C66206   0.119   0.259  11.237 -1.0250 -1.3818 -0.3832
  491MOL0     C66207   0.038   0.373  11.267  0.3324 -0.3868  0.5885
  491MOL0     C66208   0.090   0.498  11.291  0.1197  0.1751 -0.6731
  491MOL0     O66209  -0.019   0.590  11.311  0.3662  0.6784  0.0006
  491MOL0     C66210   0.006   0.720  11.251  0.1016 -0.4500  0.5214
  491MOL0     C66211   0.023   0.713  11.103  0.4291  0.8524 -0.5688
  491MOL0     C66212  -0.087   0.636  11.032 -0.5556 -0.3674 -0.2829
  491MOL0     C66213  -0.238   0.661  11.052 -0.6963 -0.9515  0.4725
  491MOL0     C66214  -0.337   0.544  11.037 -1.0279  0.9931  0.2711
  491MOL0     C66215  -0.398   0.440  11.038 -0.1615 -0.4611 -0.4925
  491MOL0     C66216   0.227   0.516  11.281 -0.5460 -0.1773  0.3091
  491MOL0     C66217   0.316   0.407  11.277  0.2339 -0.8480  0.3644
  491MOL0     H66218   0.336  -0.072  10.952 -0.7945 -1.3741 -1.1047
  491MOL0     H66219   0.517  -0.244  10.892  1.6815  1.8195 -1.2003
  491MOL0     H66220   0.777  -0.283  10.964  1.6935  0.0385  0.3553
  491MOL0     H66221   0.846  -0.383  11.095 -0.3893 -0.2786  0.8471
  491MOL0     H66222   0.723  -0.464  10.842  0.3784  2.6284  0.7697
  491MOL0     H66223   0.892  -0.471  10.904 -0.8753  4.2279  1.5724
  491MOL0     H66224   0.823  -0.647  11.073  0.5410 -1.9893 -0.2438
  491MOL0     H66225   0.662  -0.645  10.992  0.2795 -1.0597 -1.3861
  491MOL0     H66226   0.782  -0.831  10.880 -2.4535  0.2443 -0.6962
  491MOL0     H66227   0.760  -0.702  10.771  0.1169  0.0856  0.1515
  491MOL0     H66228   1.003  -0.626  10.832 -1.0039 -0.0713  1.5336
  491MOL0     H66229   1.012  -0.771  10.935 -2.7643 -0.1071  1.7743
  491MOL0     H66230   0.926  -0.865  10.680 -1.2761  1.8777  0.0511
  491MOL0     H66231   1.004  -0.724  10.634 -4.4766 -1.1195 -1.5328
  491MOL0     H66232   1.157  -0.910  10.622 -0.2028 -1.1888 -0.5234
  491MOL0     H66233   1.214  -0.785  10.725  0.2250 -1.9023  2.4566
  491MOL0     H66234   1.082  -1.046  10.823  1.1453 -2.0029  0.4175
  491MOL0     H66235   1.164  -0.924  10.929  0.9644 -0.8153 -0.8662
  491MOL0     H66236   1.284  -1.158  10.650  0.3566  1.8513 -1.2702
  491MOL0     H66237   1.572  -1.311  10.723 -1.3187 -0.6463  0.3895
  491MOL0     H66238   1.559  -1.201  10.582 -0.3157  1.1540  0.0035
  491MOL0     H66239   1.752  -1.191  10.823 -3.4582  0.9515  1.9469
  491MOL0     H66240   1.724  -1.055  10.704 -2.6779 -0.4502  1.7051
  491MOL0     H66241   1.914  -1.142  10.637 -2.1399  1.0750  0.8735
  491MOL0     H66242   1.808  -1.196  10.518  2.7552  1.7947 -0.2826
  491MOL0     H66243   1.823  -1.426  10.573  2.5851 -2.9819  0.9614
  491MOL0     H66244   1.889  -1.402  10.730 -2.8575 -0.0716 -0.7623
  491MOL0     H66245   2.280  -1.316  10.541  1.1891 -0.3632 -0.7566
  491MOL0     H66246   2.538  -1.499  10.673 -1.6003  2.3691  1.6064
  491MOL0     H66247   2.543  -1.527  10.495 -0.8278  1.2364 -0.6606
  491MOL0     H66248   2.496  -1.365  10.563  1.2372  0.4500  2.8997
  491MOL0     H66249   2.383  -1.914  10.986 -2.7478 -0.6858  0.0515
  491MOL0     H66250   2.487  -2.130  11.055 -0.6996  0.3144  0.3379
  491MOL0     H66251   2.595  -2.517  10.904 -3.5404 -0.7996 -1.8189
  491MOL0     H66252   2.542  -2.465  10.765 -1.0862 -2.8511  2.7645
  491MOL0     H66253   2.797  -2.475  10.765  3.2369  1.8219 -2.0160
  491MOL0     H66254   2.750  -2.307  10.733 -1.6566 -1.0868 -0.5157
  491MOL0     H66255   2.868  -2.415  10.999 -2.1675  0.9305  1.4885
  491MOL0     H66256   2.783  -2.264  10.990  1.1108 -0.0597  1.0888
  491MOL0     H66257   2.935  -2.156  10.872  0.9846 -0.4338  0.8710
  491MOL0     H66258   3.011  -2.248  10.987  1.6128 -0.7785 -0.8412
  491MOL0     H66259   2.979  -2.347  10.680 -0.6761 -0.4567  0.4996
  491MOL0     H66260   3.058  -2.441  10.797  1.5610  1.1683  0.3340
  491MOL0     H66261   3.140  -2.188  10.687  0.4917  0.4285  1.3017
  491MOL0     H66262   3.211  -2.240  10.836 -0.0247  0.8570  0.8029
  491MOL0     H66263   3.186  -2.433  10.599  0.0366  0.4714 -1.2123
  491MOL0     H66264   3.311  -2.441  10.728  3.4661  1.8584 -2.3095
  491MOL0     H66265   3.421  -2.235  10.614 -1.3860  2.4468  1.7867
  491MOL0     H66266   3.287  -2.239  10.504 -1.1726  0.6380  2.9918
  491MOL0     H66267   2.502  -2.257  10.653 -0.3665  1.7570 -0.2539
  491MOL0     H66268   2.435  -2.031  10.574  6.6633  0.3081 -0.7468
  491MOL0     H66269   2.134  -1.777  10.645  1.0601  0.1800 -2.9234
  491MOL0     H66270   1.970  -1.596  10.659  0.6286  5.2237  2.6350
  491MOL0     H66271   0.603  -0.268  11.328 -1.4804  1.5230  1.4062
  491MOL0     H66272   0.462  -0.078  11.361 -1.8421 -1.3504  0.0876
  491MOL0     H66273   0.070   0.167  11.205 -0.3860 -3.0543  2.9258
  491MOL0     H66274  -0.069   0.364  11.250  0.3004  2.4985 -1.4238
  491MOL0     H66275  -0.074   0.792  11.274  0.7990  1.6006 -2.8030
  491MOL0     H66276   0.092   0.767  11.300  1.1134 -1.6104 -0.0904
  491MOL0     H66277   0.112   0.653  11.084 -0.8614 -0.3482 -3.4577
  491MOL0     H66278   0.033   0.808  11.049  3.9494 -0.2512 -2.1175
  491MOL0     H66279  -0.064   0.530  11.047 -1.6507 -0.8882 -2.0319
  491MOL0     H66280  -0.071   0.656  10.926  1.0308  3.6956  0.5432
  491MOL0     H66281  -0.264   0.735  10.976 -0.5258 -0.6329  0.7206
  491MOL0     H66282  -0.249   0.718  11.145  0.3888  1.4282 -0.7658
  491MOL0     H66283  -0.446   0.344  11.035 -1.8782  0.3661 -0.6246
  491MOL0     H66284   0.273   0.614  11.290  0.2478 -0.4635 -0.5783
  491MOL0     H66285   0.421   0.431  11.269  0.1277  0.2483  1.7083
  492MOL0     O66286   6.890   1.298   9.106  0.4895  1.2503 -0.4810
  492MOL0     C66287   6.989   1.236   9.057 -0.3281  0.6354  0.1657
  492MOL0     O66288   7.109   1.301   9.007  0.4951 -0.4028  0.1129
  492MOL0     C66289   7.127   1.433   8.994 -0.3085 -0.4020  0.5823
  492MOL0     C66290   7.265   1.469   9.021 -0.7020 -0.3513 -0.3850
  492MOL0     C66291   7.297   1.602   9.014  0.6050  0.9591 -0.2859
  492MOL0     C66292   7.188   1.697   8.998  0.4526  0.5970  0.0862
  492MOL0     O66293   7.220   1.830   9.001 -0.4526  0.8289 -0.3821
  492MOL0     C66294   7.270   1.879   9.135  0.0971 -0.7313  0.9121
  492MOL0     C66295   7.205   2.027   9.164  0.4899 -0.7479 -0.6386
  492MOL0     C66296   7.208   2.128   9.054 -0.5142  0.1389 -0.6870
  492MOL0     C66297   7.125   2.255   9.088  0.3620  0.1765  0.1927
  492MOL0     C66298   7.200   2.364   9.172  0.0276  0.0337  1.0120
  492MOL0     C66299   7.088   2.452   9.230  0.1374  0.4838 -0.2588
  492MOL0     C66300   7.151   2.578   9.300 -0.3998  0.1453 -0.3569
  492MOL0     C66301   7.054   2.678   9.340 -0.4886  0.2800  0.3419
  492MOL0     N66302   6.961   2.625   9.446 -0.1695 -0.1968 -0.7850
  492MOL0     C66303   6.996   2.602   9.574  0.4175 -0.4657 -0.2662
  492MOL0     C66304   6.885   2.585   9.640  0.8780  0.2214 -0.9650
  492MOL0     C66305   6.866   2.548   9.788 -0.5503 -0.7917 -0.2578
  492MOL0     C66306   6.967   2.601   9.895  1.3678 -0.1048  0.2058
  492MOL0     C66307   6.913   2.570  10.035 -0.1699  0.0097 -0.8520
  492MOL0     C66308   6.977   2.654  10.151 -0.8130 -0.3083 -0.6016
  492MOL0     O66309   7.116   2.630  10.161  0.0512  0.3821  0.5494
  492MOL0     C66310   7.155   2.527  10.247  0.5114 -0.0569  0.0946
  492MOL0     C66311   7.291   2.509  10.254  0.7549  0.2077 -0.2060
  492MOL0     C66312   7.354   2.413  10.332  0.4136 -0.0552 -0.5493
  492MOL0     C66313   7.498   2.405  10.317 -0.9727 -0.1650 -0.5527
  492MOL0     C66314   7.282   2.329  10.412  0.6055  0.0470  0.0841
  492MOL0     C66315   7.334   2.222  10.493  0.2692  0.4758 -0.1733
  492MOL0     O66316   7.453   2.159  10.458 -0.1127  0.8743  0.1915
  492MOL0     C66317   7.528   2.095  10.554  0.1839  0.1184  0.5934
  492MOL0     C66318   7.482   1.966  10.607  0.5737  1.3466  0.8587
  492MOL0     C66319   7.553   1.905  10.697  0.1040  0.3512  0.1143
  492MOL0     C66320   7.659   1.969  10.757  0.2075  0.0244 -0.0396
  492MOL0     O66321   7.717   1.935  10.875 -0.2189 -0.5051 -0.7241
  492MOL0     C66322   7.629   1.851  10.965 -0.2103 -0.6020  0.8292
  492MOL0     C66323   7.679   1.862  11.110  0.6659 -0.8425  0.0280
  492MOL0     C66324   7.594   1.785  11.215  0.3449 -0.7754 -0.1740
  492MOL0     C66325   7.447   1.803  11.197  0.7220 -0.3158  1.0489
  492MOL0     C66326   7.360   1.735  11.307 -0.2915  0.0107  0.2986
  492MOL0     C66327   7.206   1.747  11.289 -0.5851  0.0394  0.0968
  492MOL0     C66328   7.129   1.674  11.397 -0.1335 -1.0351  0.7246
  492MOL0     C66329   6.983   1.674  11.384 -0.3536  0.3906 -0.4352
  492MOL0    Cl66330   6.924   1.849  11.374  0.1363  0.3370 -0.1027
  492MOL0     C66331   7.701   2.098  10.719 -0.9687  0.1487 -0.0524
  492MOL0     C66332   7.640   2.156  10.608 -0.4110  1.2708  0.0026
  492MOL0     O66333   7.272   2.201  10.601 -0.3709  0.0375  0.6508
  492MOL0     C66334   7.137   2.341  10.405  0.1220 -0.0987 -1.3358
  492MOL0     C66335   7.080   2.434  10.322  0.0710 -0.0966 -0.8813
  492MOL0     N66336   6.785   2.587   9.548  0.2683  0.7363 -1.3552
  492MOL0     N66337   6.832   2.612   9.436 -0.4819  0.4145 -0.1416
  492MOL0     C66338   7.060   1.656   8.965  0.4167 -0.9045 -0.3361
  492MOL0     C66339   7.026   1.525   8.971 -0.0854  0.4368  0.4587
  492MOL0     C66340   6.987   1.091   9.066  0.1874 -1.1197 -1.1780
  492MOL0     C66341   6.866   1.038   9.078  0.2273  1.2922 -0.6743
  492MOL0     C66342   6.861   0.895   9.079  0.8467 -0.5553 -0.7380
  492MOL0     C66343   6.971   0.818   9.080 -0.2425 -0.5289 -0.2987
  492MOL0     O66344   6.965   0.693   9.120  0.1523  0.5315  0.3579
  492MOL0     C66345   6.929   0.588   9.020 -0.6180 -0.3186 -0.0462
  492MOL0     C66346   6.957   0.638   8.866  0.1489 -0.6355  0.5919
  492MOL0     C66347   6.929   0.524   8.760 -0.1927 -0.3506 -0.0189
  492MOL0     C66348   6.784   0.468   8.775 -0.8380  0.0629 -0.7544
  492MOL0     C66349   6.671   0.562   8.765 -0.2166  0.2628 -0.2408
  492MOL0     C66350   6.578   0.638   8.756 -0.6362  1.0232  0.0581
  492MOL0     C66351   7.095   0.880   9.066  0.2155 -0.3740 -0.1558
  492MOL0     C66352   7.111   1.011   9.054  1.5705 -0.5681  1.2152
  492MOL0     H66353   7.338   1.393   9.049  0.0682  0.1686 -0.9507
  492MOL0     H66354   7.397   1.642   9.034 -0.3755  2.3034  2.4897
  492MOL0     H66355   7.251   1.811   9.219 -0.2006 -1.3719  0.3340
  492MOL0     H66356   7.378   1.893   9.122 -0.2311 -1.0733 -4.4870
  492MOL0     H66357   7.102   2.000   9.189  0.3529 -4.3772 -4.1735
  492MOL0     H66358   7.244   2.073   9.256  1.9618 -2.8391 -0.1304
  492MOL0     H66359   7.313   2.159   9.054  0.4946 -2.9088 -0.8080
  492MOL0     H66360   7.177   2.088   8.957  3.8649 -0.9292 -1.8491
  492MOL0     H66361   7.109   2.302   8.990  1.9482 -2.4514 -1.4555
  492MOL0     H66362   7.027   2.223   9.126  0.8184 -0.2311  1.0551
  492MOL0     H66363   7.256   2.313   9.251  3.3784  1.2906 -0.3822
  492MOL0     H66364   7.268   2.425   9.113 -0.9353 -0.3663 -0.5780
  492MOL0     H66365   7.035   2.502   9.148  3.6195  2.4129 -1.5142
  492MOL0     H66366   7.021   2.401   9.300 -1.2706  1.0200 -1.1609
  492MOL0     H66367   7.200   2.542   9.391  1.6680 -2.8882 -2.4638
  492MOL0     H66368   7.232   2.620   9.240 -0.2720  3.0987  1.7074
  492MOL0     H66369   7.000   2.696   9.247 -0.9094 -2.8455 -0.1468
  492MOL0     H66370   7.104   2.764   9.385  0.8645 -0.0065 -0.5765
  492MOL0     H66371   7.091   2.609   9.626 -1.2272 -1.3267  3.0959
  492MOL0     H66372   6.762   2.570   9.813 -0.4631 -0.4257 -0.2154
  492MOL0     H66373   6.873   2.439   9.788  1.2392 -0.7278  1.3899
  492MOL0     H66374   6.999   2.706   9.884  0.2800  0.3920  1.4734
  492MOL0     H66375   7.061   2.548   9.876  1.2552  0.0303 -0.7901
  492MOL0     H66376   6.916   2.461  10.049  3.9188  0.0963  0.2597
  492MOL0     H66377   6.807   2.593  10.038  0.2189  2.1165 -1.8392
  492MOL0     H66378   6.930   2.623  10.245 -1.8239 -2.1513 -1.6609
  492MOL0     H66379   6.961   2.760  10.129  1.6238  0.4460  0.9703
  492MOL0     H66380   7.365   2.573  10.207  0.8260  2.1263  2.2627
  492MOL0     H66381   7.540   2.501  10.286  1.6837 -1.7576 -2.2807
  492MOL0     H66382   7.551   2.382  10.409  3.3635  3.6105 -1.7370
  492MOL0     H66383   7.521   2.323  10.249 -1.6132 -1.3914  0.6763
  492MOL0     H66384   7.391   1.924  10.566  1.0907  0.6113  0.4274
  492MOL0     H66385   7.512   1.811  10.732  3.4618 -0.6957  1.6134
  492MOL0     H66386   7.530   1.897  10.960  0.4151  0.7170 -0.1023
  492MOL0     H66387   7.617   1.747  10.932 -4.2242 -0.4237  1.2902
  492MOL0     H66388   7.775   1.811  11.095  1.6084  0.5829  0.9358
  492MOL0     H66389   7.690   1.965  11.145 -0.6432  0.9611 -4.2167
  492MOL0     H66390   7.624   1.821  11.314  0.4645  0.0956 -0.5230
  492MOL0     H66391   7.620   1.679  11.206  0.4113 -0.6332 -2.1565
  492MOL0     H66392   7.423   1.908  11.179  1.5819 -0.2847 -0.0334
  492MOL0     H66393   7.431   1.752  11.102  2.3281  0.4965  0.2947
  492MOL0     H66394   7.387   1.784  11.401  0.7523 -2.7247  1.5248
  492MOL0     H66395   7.392   1.631  11.315  0.5691  0.0702 -1.6937
  492MOL0     H66396   7.182   1.853  11.280  1.4450  0.7563  2.0249
  492MOL0     H66397   7.183   1.690  11.199  0.6033 -0.0574 -0.1600
  492MOL0     H66398   7.154   1.729  11.489  0.3535 -0.0864  0.0368
  492MOL0     H66399   7.171   1.574  11.413  4.9401  1.3700  6.6220
  492MOL0     H66400   6.951   1.619  11.473  3.5475  0.4534  1.1899
  492MOL0     H66401   6.953   1.618  11.295  0.3173  0.0698 -0.4641
  492MOL0     H66402   7.767   2.154  10.786  0.7405 -0.7701 -0.9189
  492MOL0     H66403   7.682   2.248  10.569  1.2348 -0.7305 -3.3949
  492MOL0     H66404   7.068   2.280  10.463  1.6881 -1.6304 -1.0048
  492MOL0     H66405   6.972   2.439  10.309  0.0272 -0.4617 -0.6674
  492MOL0     H66406   6.987   1.736   8.957 -0.2544 -1.5778 -1.0849
  492MOL0     H66407   6.925   1.488   8.958 -0.1942 -1.2257  4.6644
  492MOL0     H66408   6.768   1.085   9.085 -0.0025  0.9364 -1.3706
  492MOL0     H66409   6.768   0.851   9.114  0.9947 -0.9676 -0.8601
  492MOL0     H66410   7.002   0.507   9.031  0.3572  0.5159 -0.1821
  492MOL0     H66411   6.825   0.556   9.032 -0.2471 -3.3432 -3.2704
  492MOL0     H66412   7.060   0.670   8.850  0.3093 -2.5835 -3.8459
  492MOL0     H66413   6.900   0.724   8.829 -0.3514  0.2508  3.2571
  492MOL0     H66414   6.996   0.438   8.768  0.9617  0.3804 -1.3522
  492MOL0     H66415   6.945   0.568   8.660  1.3458  1.0049  0.7786
  492MOL0     H66416   6.794   0.433   8.878 -0.3514 -0.3080 -0.9213
  492MOL0     H66417   6.770   0.381   8.710  0.5181 -1.6990  1.1884
  492MOL0     H66418   6.498   0.709   8.759 -1.6773  0.0080 -1.8445
  492MOL0     H66419   7.182   0.817   9.076  0.4731 -0.0070 -0.0352
  492MOL0     H66420   7.208   1.048   9.023 -0.1073  0.8149 -3.3362
  493MOL0     O66421   0.283   0.374   3.114 -0.0572  0.5172  0.4217
  493MOL0     C66422   0.251   0.387   3.227 -0.3875 -0.4851  0.4265
  493MOL0     O66423   0.212   0.286   3.304 -0.7786 -0.3233 -0.2347
  493MOL0     C66424   0.214   0.162   3.249 -0.0425 -0.6304  0.0665
  493MOL0     C66425   0.087   0.109   3.227 -0.4114  1.2206  0.0825
  493MOL0     C66426   0.073  -0.009   3.156  0.4243 -0.0391  1.0199
  493MOL0     C66427   0.184  -0.088   3.136  0.9126  0.2817 -0.0353
  493MOL0     O66428   0.164  -0.196   3.059 -0.4349 -0.3095 -0.3060
  493MOL0     C66429   0.189  -0.325   3.118  0.1068 -0.1624 -0.0426
  493MOL0     C66430   0.217  -0.430   3.019  0.1520  0.3765  0.0230
  493MOL0     C66431   0.257  -0.565   3.085  0.2002 -0.2416  0.5689
  493MOL0     C66432   0.336  -0.655   2.988  0.5504 -0.0664  0.2567
  493MOL0     C66433   0.391  -0.781   3.052 -0.9440  0.3158 -0.6264
  493MOL0     C66434   0.477  -0.848   2.945  0.6460 -0.2323  0.0832
  493MOL0     C66435   0.517  -1.007   2.965  0.1379 -0.6478  1.0186
  493MOL0     C66436   0.609  -1.065   2.846 -0.1319 -0.5467  0.5921
  493MOL0     N66437   0.726  -0.977   2.814  0.2351  0.2684  0.3061
  493MOL0     C66438   0.850  -0.990   2.866  0.9079 -0.6614 -0.6411
  493MOL0     C66439   0.918  -0.887   2.810 -0.5305 -0.0106  0.4103
  493MOL0     C66440   1.062  -0.858   2.834 -0.2802  0.5341  0.2604
  493MOL0     C66441   1.098  -0.707   2.841  0.6772 -0.4784  0.9390
  493MOL0     C66442   1.026  -0.608   2.936  0.2826  0.1910 -0.1253
  493MOL0     C66443   1.041  -0.622   3.076  0.1287  0.2379  0.2698
  493MOL0     O66444   0.976  -0.751   3.098  0.0018 -0.3020 -0.1818
  493MOL0     C66445   0.912  -0.765   3.222  0.7402  0.3061  0.2615
  493MOL0     C66446   0.803  -0.841   3.236  0.1613 -0.2391  0.9216
  493MOL0     C66447   0.742  -0.867   3.356 -0.3272  0.1675 -0.0174
  493MOL0     C66448   0.620  -0.955   3.354 -0.6468 -0.0487 -0.1994
  493MOL0     C66449   0.798  -0.816   3.478 -0.3973 -0.6008  0.7710
  493MOL0     C66450   0.761  -0.830   3.610  0.1700 -1.0389 -1.0703
  493MOL0     O66451   0.868  -0.834   3.701  0.3843 -0.4948  1.0661
  493MOL0     C66452   0.844  -0.840   3.839 -0.0226  0.0809  0.2188
  493MOL0     C66453   0.746  -0.914   3.903  0.2394 -0.9322  0.1051
  493MOL0     C66454   0.723  -0.890   4.043  0.3331  0.5875  0.2797
  493MOL0     C66455   0.792  -0.791   4.123  0.7682  0.0041 -0.1986
  493MOL0     O66456   0.773  -0.762   4.263  0.2165  0.3758 -0.4248
  493MOL0     C66457   0.901  -0.752   4.332  0.0186  0.3120  0.0420
  493MOL0     C66458   0.869  -0.696   4.469 -0.6506  0.0441 -0.4711
  493MOL0     C66459   0.836  -0.544   4.462  0.3648 -0.6256  0.1514
  493MOL0     C66460   0.797  -0.478   4.598  0.2543 -1.0801 -0.8008
  493MOL0     C66461   0.731  -0.340   4.603  0.1815  0.0061  0.3469
  493MOL0     C66462   0.827  -0.225   4.629 -0.4235  0.2208  0.8297
  493MOL0     C66463   0.927  -0.209   4.512  1.1454  0.5141  0.2260
  493MOL0     C66464   0.961  -0.063   4.484  0.5325  0.2201 -0.6139
  493MOL0    Cl66465   1.074  -0.064   4.335  0.3344 -0.2063 -0.0223
  493MOL0     C66466   0.882  -0.710   4.042  0.3149 -0.5353  0.0120
  493MOL0     C66467   0.907  -0.741   3.907 -0.1498 -0.2292  0.4453
  493MOL0     O66468   0.645  -0.847   3.637 -0.0070 -0.5319  0.1978
  493MOL0     C66469   0.917  -0.739   3.457 -1.8615  0.4761 -0.1422
  493MOL0     C66470   0.966  -0.710   3.334 -0.4647 -1.0253 -0.8254
  493MOL0     N66471   0.824  -0.807   2.739  0.1317  0.9932 -1.1720
  493MOL0     N66472   0.710  -0.870   2.730  0.1187  0.1638  0.1838
  493MOL0     C66473   0.313  -0.043   3.169  0.3479  0.1990  0.8892
  493MOL0     C66474   0.330   0.086   3.212 -0.5487  1.1405 -0.3772
  493MOL0     C66475   0.250   0.524   3.283  0.1259 -0.0870  0.8181
  493MOL0     C66476   0.249   0.552   3.420  0.8227 -0.0076 -0.4685
  493MOL0     C66477   0.254   0.673   3.465  0.1561 -0.9930 -0.6429
  493MOL0     C66478   0.274   0.787   3.376 -0.3838 -0.3828  0.7302
  493MOL0     O66479   0.280   0.910   3.430 -0.0677  0.6155 -0.3885
  493MOL0     C66480   0.399   0.941   3.512 -0.3879  0.3006 -0.8215
  493MOL0     C66481   0.354   1.001   3.648  0.1745 -0.4566 -0.0919
  493MOL0     C66482   0.345   0.906   3.767  0.3694 -0.0467 -0.2779
  493MOL0     C66483   0.332   0.985   3.908  0.5100 -0.2160 -0.3899
  493MOL0     C66484   0.466   0.986   3.971 -0.3900  0.1959  0.3149
  493MOL0     C66485   0.580   1.000   4.008 -0.1773  0.1874  0.0719
  493MOL0     C66486   0.289   0.760   3.240 -0.4386  0.2118 -0.2136
  493MOL0     C66487   0.276   0.631   3.196  0.0707 -0.3328  0.3096
  493MOL0     H66488   0.005   0.170   3.265 -0.4715  1.7695 -0.8829
  493MOL0     H66489  -0.028  -0.040   3.134  1.0055 -0.0289 -2.1385
  493MOL0     H66490   0.266  -0.313   3.195 -1.4290  1.3358  1.3324
  493MOL0     H66491   0.096  -0.357   3.166 -1.0143  2.5093 -0.2472
  493MOL0     H66492   0.128  -0.445   2.958  0.4763  1.6362 -0.7840
  493MOL0     H66493   0.298  -0.405   2.950 -0.2575 -2.9984 -1.9381
  493MOL0     H66494   0.308  -0.529   3.175  1.4835  2.1328 -0.9830
  493MOL0     H66495   0.180  -0.628   3.130  0.4612  1.8112  4.3119
  493MOL0     H66496   0.268  -0.685   2.907  2.8907  1.1817 -2.3571
  493MOL0     H66497   0.419  -0.593   2.952  3.7465 -2.6092  2.6659
  493MOL0     H66498   0.452  -0.761   3.141  2.3565 -4.7764 -1.3270
  493MOL0     H66499   0.314  -0.850   3.087 -0.5569 -0.3747 -1.1196
  493MOL0     H66500   0.424  -0.853   2.850  3.3583 -2.6063 -1.4691
  493MOL0     H66501   0.568  -0.790   2.926  1.3399 -0.6526  1.9534
  493MOL0     H66502   0.566  -1.020   3.062  0.1900 -1.3653  0.9044
  493MOL0     H66503   0.417  -1.052   2.966 -1.1856  1.7352 -2.7779
  493MOL0     H66504   0.548  -1.063   2.756  2.6886 -0.5291 -1.4533
  493MOL0     H66505   0.644  -1.166   2.872  1.0461  0.2610  2.3412
  493MOL0     H66506   0.885  -1.066   2.935 -1.1929 -0.4223  0.7632
  493MOL0     H66507   1.099  -0.913   2.921  2.0171  0.3397 -0.7637
  493MOL0     H66508   1.114  -0.905   2.750  0.0484  2.3740 -0.6140
  493MOL0     H66509   1.086  -0.668   2.739  1.1971 -0.5488  0.8474
  493MOL0     H66510   1.207  -0.699   2.854  0.7464 -1.4843  1.0474
  493MOL0     H66511   0.919  -0.604   2.916  0.3114  2.8967 -0.1842
  493MOL0     H66512   1.063  -0.506   2.922  0.7213  0.4273  2.3097
  493MOL0     H66513   0.986  -0.538   3.120  0.1793 -0.1053  0.9893
  493MOL0     H66514   1.146  -0.618   3.108  0.2403 -0.5550  0.0356
  493MOL0     H66515   0.756  -0.883   3.147 -3.3668  0.9557  2.0339
  493MOL0     H66516   0.546  -0.902   3.414  1.3260  1.0132  1.4512
  493MOL0     H66517   0.575  -0.965   3.255 -3.2972 -1.5218  1.0613
  493MOL0     H66518   0.647  -1.056   3.389 -0.3269  0.5814  1.4753
  493MOL0     H66519   0.696  -0.993   3.847  0.1397 -0.1431 -0.9574
  493MOL0     H66520   0.662  -0.961   4.098  1.4565 -0.5047  0.1795
  493MOL0     H66521   0.945  -0.852   4.340 -0.2786  0.2574  1.2281
  493MOL0     H66522   0.972  -0.687   4.280 -2.2979  3.1043  0.1524
  493MOL0     H66523   0.783  -0.749   4.510 -0.6688 -0.4058 -1.0689
  493MOL0     H66524   0.950  -0.729   4.535  2.1061  1.6703 -2.8224
  493MOL0     H66525   0.750  -0.532   4.396  1.2177 -0.5397 -0.9787
  493MOL0     H66526   0.924  -0.495   4.419 -1.5657  1.6629 -1.4612
  493MOL0     H66527   0.721  -0.535   4.652  1.7624 -0.0776  2.6503
  493MOL0     H66528   0.887  -0.490   4.660  2.9745  0.7932 -4.0505
  493MOL0     H66529   0.659  -0.339   4.684 -0.5598 -2.0636 -0.2057
  493MOL0     H66530   0.681  -0.331   4.506  0.7712 -0.6519 -0.0323
  493MOL0     H66531   0.766  -0.135   4.643  1.4116  1.8341 -1.0195
  493MOL0     H66532   0.874  -0.233   4.727 -1.2578  1.0397  1.3152
  493MOL0     H66533   0.875  -0.246   4.423  1.0718  2.6523 -0.6905
  493MOL0     H66534   1.023  -0.253   4.541 -0.0093 -2.9256 -0.8005
  493MOL0     H66535   1.015  -0.013   4.565  1.4820  1.9533 -2.2106
  493MOL0     H66536   0.866  -0.012   4.466 -0.1907 -0.4929  1.0305
  493MOL0     H66537   0.929  -0.621   4.084 -0.7861  0.8172 -1.4830
  493MOL0     H66538   0.989  -0.697   3.852  0.8089 -3.9123 -1.3981
  493MOL0     H66539   0.977  -0.703   3.540 -0.6064  1.5982 -1.4740
  493MOL0     H66540   1.054  -0.647   3.329 -2.2868  1.6471 -1.1297
  493MOL0     H66541   0.394  -0.096   3.121 -1.5995 -1.6109 -0.5824
  493MOL0     H66542   0.434   0.115   3.225  0.2003 -0.1002 -2.8927
  493MOL0     H66543   0.240   0.467   3.487 -2.2986  0.3398 -0.3295
  493MOL0     H66544   0.247   0.696   3.570  2.5256 -0.2379 -0.5838
  493MOL0     H66545   0.461   0.853   3.528 -1.0290  0.0288  0.2561
  493MOL0     H66546   0.455   1.025   3.470  1.0358  0.4235  1.1823
  493MOL0     H66547   0.259   1.054   3.651  0.3768  0.1216  4.5701
  493MOL0     H66548   0.436   1.062   3.688 -0.2222 -0.4795  0.7974
  493MOL0     H66549   0.423   0.830   3.780 -1.4783 -1.9004  0.6268
  493MOL0     H66550   0.251   0.856   3.740 -1.0385  2.6587 -0.8095
  493MOL0     H66551   0.275   0.921   3.976  0.6592  2.7322  2.7786
  493MOL0     H66552   0.295   1.087   3.900 -1.3127 -0.8489 -0.5845
  493MOL0     H66553   0.686   1.012   4.022  0.0926  0.8791 -2.1905
  493MOL0     H66554   0.294   0.843   3.171  0.7333 -0.7325 -1.3032
  493MOL0     H66555   0.288   0.626   3.089 -0.7394  0.2131  0.1853
  494MOL0     O66556  11.543   3.355   4.004 -0.7160  0.4408 -0.3480
  494MOL0     C66557  11.643   3.408   3.954  1.1000 -0.2360 -0.2215
  494MOL0     O66558  11.739   3.472   4.036 -0.7063  0.2745  0.8201
  494MOL0     C66559  11.722   3.479   4.168  0.8132  0.4333  0.0694
  494MOL0     C66560  11.599   3.512   4.230 -0.5049  0.2499  0.2782
  494MOL0     C66561  11.588   3.520   4.369 -0.4567  0.1773  0.0776
  494MOL0     C66562  11.710   3.504   4.447  0.6344  0.0090  0.2324
  494MOL0     O66563  11.706   3.534   4.583  0.0953 -0.3261  0.2429
  494MOL0     C66564  11.749   3.433   4.675  0.0868 -0.3141 -0.6741
  494MOL0     C66565  11.764   3.495   4.818 -0.5827  0.7652  0.3675
  494MOL0     C66566  11.871   3.429   4.902 -0.4097  0.0176 -0.7374
  494MOL0     C66567  11.860   3.459   5.051 -0.2449 -0.8026 -0.0899
  494MOL0     C66568  11.935   3.367   5.151  0.6537  0.8194  0.2940
  494MOL0     C66569  11.933   3.408   5.296 -0.3066 -0.8113  0.2992
  494MOL0     C66570  12.022   3.325   5.383  0.8218  0.1346 -0.3146
  494MOL0     C66571  11.941   3.217   5.460  0.5893 -0.6320  0.4483
  494MOL0     N66572  12.005   3.087   5.445 -0.2931 -0.3705 -0.2999
  494MOL0     C66573  12.114   3.048   5.523 -0.2579 -0.3023  0.1249
  494MOL0     C66574  12.151   2.933   5.464 -0.7718 -0.4351  0.5902
  494MOL0     C66575  12.262   2.844   5.506  0.4179  0.2715  0.5415
  494MOL0     C66576  12.211   2.719   5.564  0.6240  0.1081  0.3020
  494MOL0     C66577  12.312   2.614   5.623 -0.1853 -0.6679  1.3493
  494MOL0     C66578  12.229   2.489   5.670  0.4588 -0.5168  0.4386
  494MOL0     O66579  12.155   2.432   5.559  0.4235 -0.1476 -1.5111
  494MOL0     C66580  12.022   2.416   5.576 -0.1944  0.2916  0.1210
  494MOL0     C66581  11.950   2.411   5.697 -0.6816  0.2265  0.2242
  494MOL0     C66582  11.810   2.399   5.705  0.5020 -0.5573  1.2597
  494MOL0     C66583  11.739   2.400   5.841 -0.0373  0.2769 -0.7138
  494MOL0     C66584  11.736   2.381   5.579 -0.1517 -0.1734 -1.1063
  494MOL0     C66585  11.590   2.368   5.563  0.9593 -0.6700 -0.9729
  494MOL0     O66586  11.537   2.337   5.441 -0.2173  0.9014  0.5146
  494MOL0     C66587  11.403   2.299   5.438  0.6457 -0.6112 -0.2757
  494MOL0     C66588  11.311   2.381   5.374  0.1132  0.8885 -0.7075
  494MOL0     C66589  11.181   2.336   5.354  0.8907 -0.0655 -0.0463
  494MOL0     C66590  11.135   2.208   5.389 -0.4548  1.1031  0.5109
  494MOL0     O66591  11.021   2.144   5.350 -0.0144  0.1100 -0.5765
  494MOL0     C66592  10.937   2.209   5.249  0.7121  0.8080 -0.1852
  494MOL0     C66593  10.812   2.114   5.223 -0.6729  0.6708 -0.3934
  494MOL0     C66594  10.868   1.982   5.163 -0.0534  0.0321 -0.8137
  494MOL0     C66595  10.827   1.951   5.018  0.0107  0.8988 -0.0981
  494MOL0     C66596  10.673   1.930   5.003 -0.2736  0.2222 -0.6986
  494MOL0     C66597  10.641   1.852   4.873  0.5957 -0.3912 -0.2231
  494MOL0     C66598  10.625   1.935   4.737  0.3600 -1.0944 -0.0147
  494MOL0     C66599  10.751   2.000   4.679  0.0184 -1.0205 -0.0578
  494MOL0    Cl66600  10.711   2.174   4.628 -0.3262 -0.1613 -0.0267
  494MOL0     C66601  11.229   2.127   5.450  1.4104  0.1605  0.4407
  494MOL0     C66602  11.366   2.172   5.471  0.5646  0.2509 -0.6455
  494MOL0     O66603  11.514   2.386   5.661 -0.1783  0.0442 -0.6197
  494MOL0     C66604  11.811   2.392   5.465 -0.7856  0.5527  0.9757
  494MOL0     C66605  11.947   2.416   5.462 -0.2328 -0.4313  0.3622
  494MOL0     N66606  12.062   2.889   5.374  0.6819  0.2545  0.3209
  494MOL0     N66607  11.969   2.976   5.360 -0.2523 -0.5353  0.6711
  494MOL0     C66608  11.830   3.474   4.371 -0.0784  0.0451 -0.5920
  494MOL0     C66609  11.835   3.460   4.241  0.1837 -0.6365 -0.7782
  494MOL0     C66610  11.675   3.397   3.807 -0.1605 -0.5495 -0.0515
  494MOL0     C66611  11.751   3.503   3.745  0.3891 -1.1291 -0.1241
  494MOL0     C66612  11.785   3.482   3.611  0.7204 -0.5506 -0.6082
  494MOL0     C66613  11.732   3.373   3.535 -0.6115 -0.8546  0.2565
  494MOL0     O66614  11.746   3.354   3.400  0.3909 -0.1952  0.3976
  494MOL0     C66615  11.842   3.426   3.327  0.6257  0.7037  0.7687
  494MOL0     C66616  11.978   3.359   3.313 -0.7529 -0.0886 -0.4982
  494MOL0     C66617  11.982   3.206   3.283  0.0073 -0.7136 -0.4297
  494MOL0     C66618  11.878   3.173   3.170 -0.4175 -0.7712 -0.5284
  494MOL0     C66619  11.873   3.024   3.155  0.5504 -0.3301 -0.5162
  494MOL0     C66620  11.887   2.899   3.138 -0.7408 -0.9712  0.9983
  494MOL0     C66621  11.664   3.276   3.606 -0.0115  0.7453  0.0170
  494MOL0     C66622  11.638   3.286   3.737  0.2032 -1.4211  0.9435
  494MOL0     H66623  11.506   3.529   4.177 -0.4588  0.9898  0.4219
  494MOL0     H66624  11.493   3.550   4.412 -0.6974 -1.0674  0.4547
  494MOL0     H66625  11.663   3.365   4.679  1.4728 -2.1164 -0.1457
  494MOL0     H66626  11.838   3.377   4.646 -0.2235 -1.9055  1.2254
  494MOL0     H66627  11.785   3.602   4.812 -0.1879  1.0164  3.7947
  494MOL0     H66628  11.674   3.485   4.879  0.6560 -0.9915  2.0702
  494MOL0     H66629  11.844   3.323   4.903 -3.4471  0.6243  2.2365
  494MOL0     H66630  11.974   3.457   4.876 -0.7573  0.2122 -1.9567
  494MOL0     H66631  11.912   3.555   5.053 -1.3698 -0.1104 -1.9417
  494MOL0     H66632  11.754   3.467   5.075 -1.0659 -1.5711 -3.0329
  494MOL0     H66633  11.899   3.264   5.142  4.6460 -0.7894  0.6141
  494MOL0     H66634  12.028   3.357   5.093 -1.6150  1.6844 -3.9233
  494MOL0     H66635  11.968   3.512   5.289 -3.2931  0.4600  2.2797
  494MOL0     H66636  11.838   3.426   5.347  0.9340 -0.5806  2.6975
  494MOL0     H66637  12.112   3.278   5.341 -0.5872 -3.8802  0.7064
  494MOL0     H66638  12.046   3.398   5.461 -2.3756  0.3003  0.6289
  494MOL0     H66639  11.841   3.217   5.415  0.7166 -1.3676  0.1417
  494MOL0     H66640  11.932   3.244   5.565 -1.6103  1.4934 -0.2154
  494MOL0     H66641  12.172   3.097   5.600  1.2022 -3.2030  1.0132
  494MOL0     H66642  12.319   2.808   5.420  4.1204  0.7118  2.6032
  494MOL0     H66643  12.339   2.894   5.566 -1.1167  0.5772  2.3234
  494MOL0     H66644  12.155   2.672   5.483  1.3418  1.3591 -0.9579
  494MOL0     H66645  12.140   2.745   5.644 -0.8328  0.9377 -1.2102
  494MOL0     H66646  12.365   2.671   5.700 -1.9472  1.2217  1.2605
  494MOL0     H66647  12.379   2.566   5.551 -1.2234 -0.7892  0.4384
  494MOL0     H66648  12.169   2.538   5.748  3.6961 -0.4366  3.1070
  494MOL0     H66649  12.306   2.424   5.713  1.8548  0.4338 -0.5485
  494MOL0     H66650  12.008   2.411   5.789 -2.1059 -2.2253  1.2347
  494MOL0     H66651  11.698   2.500   5.858  3.4006  1.4369  1.9268
  494MOL0     H66652  11.667   2.317   5.852 -0.2704  0.4786 -0.7074
  494MOL0     H66653  11.820   2.377   5.910  1.4386 -1.0315 -2.7599
  494MOL0     H66654  11.350   2.475   5.335  1.0414  1.4507  1.4659
  494MOL0     H66655  11.119   2.409   5.303  2.3775  1.8902  0.8084
  494MOL0     H66656  10.913   2.312   5.278 -1.0732  0.6355 -0.9127
  494MOL0     H66657  10.989   2.235   5.157  0.0189  4.3640  0.3044
  494MOL0     H66658  10.776   2.095   5.324  1.3370 -1.0153  0.0896
  494MOL0     H66659  10.735   2.150   5.154 -1.9640 -0.0235  0.6389
  494MOL0     H66660  10.845   1.901   5.233  2.7865  0.4755  0.7737
  494MOL0     H66661  10.977   1.982   5.166 -0.0307  0.4032  2.5424
  494MOL0     H66662  10.855   2.031   4.949  0.5967 -0.8943 -2.0768
  494MOL0     H66663  10.888   1.865   4.987  1.7619  1.0227  2.6326
  494MOL0     H66664  10.621   2.026   5.003  0.0343  0.4047 -1.8931
  494MOL0     H66665  10.636   1.868   5.085  4.0043  0.0245  1.3394
  494MOL0     H66666  10.710   1.772   4.843  0.2668 -0.5882 -0.4641
  494MOL0     H66667  10.543   1.805   4.885  1.3144 -2.0111 -0.2947
  494MOL0     H66668  10.557   2.020   4.742  2.4250  0.9007 -2.6400
  494MOL0     H66669  10.582   1.865   4.665  1.3148 -2.0573  0.3182
  494MOL0     H66670  10.788   1.943   4.593  0.7877 -1.6822  0.6923
  494MOL0     H66671  10.831   1.991   4.754 -0.0869  1.4453  0.4251
  494MOL0     H66672  11.193   2.027   5.470 -1.3303  1.0382  0.2290
  494MOL0     H66673  11.439   2.101   5.510  0.3458  2.5076  4.7914
  494MOL0     H66674  11.778   2.381   5.362  0.0260  1.4984  0.5943
  494MOL0     H66675  11.997   2.450   5.372  1.4259  2.8890  2.3402
  494MOL0     H66676  11.914   3.448   4.434 -0.2972  0.1381 -0.2616
  494MOL0     H66677  11.933   3.429   4.206  0.1980 -1.3159 -0.1720
  494MOL0     H66678  11.783   3.596   3.791  0.3765 -0.5352 -1.2844
  494MOL0     H66679  11.838   3.567   3.568 -2.0919  2.5672  1.5792
  494MOL0     H66680  11.818   3.435   3.220 -0.0910  0.2511  0.8855
  494MOL0     H66681  11.866   3.518   3.379 -5.3006  2.1015  1.7212
  494MOL0     H66682  12.029   3.379   3.408  1.5784  3.5874 -2.2570
  494MOL0     H66683  12.029   3.402   3.226 -2.6045 -1.5831 -2.4341
  494MOL0     H66684  11.951   3.146   3.369  0.6428  0.9607  1.0602
  494MOL0     H66685  12.084   3.172   3.264 -0.0823 -1.3655  0.2191
  494MOL0     H66686  11.903   3.214   3.072  2.6709 -2.4128 -0.5792
  494MOL0     H66687  11.775   3.201   3.194 -0.2641  1.7654 -2.4258
  494MOL0     H66688  11.894   2.794   3.118  2.9018 -0.4824 -1.1041
  494MOL0     H66689  11.636   3.181   3.560 -0.3776  0.3775  0.9716
  494MOL0     H66690  11.590   3.200   3.782 -3.4713 -0.5378 -0.8802
  495MOL0     O66691  10.879   9.581   7.161  0.2265  0.1121  1.0643
  495MOL0     C66692  10.787   9.537   7.231  0.3252 -0.6584 -1.7116
  495MOL0     O66693  10.674   9.619   7.271 -0.1055  0.0099 -0.1239
  495MOL0     C66694  10.665   9.751   7.243 -1.1903  0.4158 -0.1058
  495MOL0     C66695  10.538   9.799   7.238  0.2270  0.2155  0.2610
  495MOL0     C66696  10.508   9.933   7.209 -0.3917 -1.1345  0.7258
  495MOL0     C66697  10.604  10.021   7.173  0.5075 -0.8554  0.3420
  495MOL0     O66698  10.570  10.150   7.133  0.3542 -0.0262 -0.4333
  495MOL0     C66699  10.464  10.168   7.034 -0.2458  0.7105  0.2388
  495MOL0     C66700  10.508  10.269   6.925  0.2167  0.3963  0.7922
  495MOL0     C66701  10.528  10.411   6.983 -1.0435  0.4455  0.1067
  495MOL0     C66702  10.611  10.492   6.894 -0.5467  0.3348  1.0426
  495MOL0     C66703  10.589  10.642   6.931  0.1575 -1.5740  0.4602
  495MOL0     C66704  10.645  10.755   6.839  0.5948 -0.1630  0.8857
  495MOL0     C66705  10.607  10.883   6.910 -0.0092 -1.0564  0.3679
  495MOL0     C66706  10.702  11.003   6.873 -0.5619  0.0609  0.0845
  495MOL0     N66707  10.711  11.018   6.723 -0.3532  0.3698 -0.0662
  495MOL0     C66708  10.798  10.943   6.641 -0.7724  1.4029 -0.5154
  495MOL0     C66709  10.800  11.001   6.518  1.0150 -0.1363  0.0602
  495MOL0     C66710  10.868  10.960   6.386 -1.0585  0.1052  0.5169
  495MOL0     C66711  10.906  11.098   6.321 -1.0794 -0.3064 -0.0407
  495MOL0     C66712  10.964  11.215   6.422 -0.3540 -0.9626  0.0154
  495MOL0     C66713  11.078  11.302   6.345  0.0091 -0.3858  0.1922
  495MOL0     O66714  11.049  11.366   6.219 -0.7589  0.2867  0.1794
  495MOL0     C66715  10.986  11.485   6.216  0.7210 -0.1814 -0.3009
  495MOL0     C66716  10.992  11.586   6.316 -0.4259 -0.5394 -0.2429
  495MOL0     C66717  10.945  11.718   6.296 -0.3759  1.1871 -0.3846
  495MOL0     C66718  10.979  11.812   6.398  0.0113  0.5321 -0.3679
  495MOL0     C66719  10.872  11.757   6.178 -0.2163  0.4306 -0.1084
  495MOL0     C66720  10.822  11.888   6.155 -0.0714 -1.3008  1.2415
  495MOL0     O66721  10.703  11.905   6.202  0.0872 -0.1271  0.3760
  495MOL0     C66722  10.654  12.034   6.186  0.2587  0.0399  0.3461
  495MOL0     C66723  10.565  12.060   6.080 -1.0863 -0.3561  0.8111
  495MOL0     C66724  10.524  12.192   6.054  0.0942  0.4856  0.0830
  495MOL0     C66725  10.565  12.295   6.140  0.4026  0.3589  1.0857
  495MOL0     O66726  10.540  12.418   6.089  0.6806  0.8617  0.0929
  495MOL0     C66727  10.576  12.526   6.169  0.6337  0.5614  0.9293
  495MOL0     C66728  10.480  12.624   6.100 -0.1660 -0.6084  0.8074
  495MOL0     C66729  10.485  12.769   6.166 -0.9898 -0.1442  0.0794
  495MOL0     C66730  10.375  12.860   6.117 -1.2836  0.4733  0.2138
  495MOL0     C66731  10.251  12.847   6.194  0.4673 -0.6175  0.6585
  495MOL0     C66732  10.124  12.901   6.117 -0.5149 -0.9916 -0.2893
  495MOL0     C66733   9.994  12.841   6.171 -0.1579  0.7946 -0.3620
  495MOL0     C66734   9.967  12.893   6.318 -0.2536  0.3946  0.2182
  495MOL0    Cl66735   9.810  12.850   6.370  0.8514  0.1282  0.3539
  495MOL0     C66736  10.654  12.267   6.242 -0.5351 -0.2630  0.2623
  495MOL0     C66737  10.696  12.137   6.266 -0.2706 -0.4794  0.9330
  495MOL0     O66738  10.892  11.978   6.101  0.4804 -0.3525  0.0695
  495MOL0     C66739  10.859  11.651   6.080 -0.5219 -0.2512  0.4166
  495MOL0     C66740  10.920  11.520   6.095 -0.0440  0.5265  0.7083
  495MOL0     N66741  10.686  11.083   6.517 -0.1341  0.5069  0.8367
  495MOL0     N66742  10.641  11.096   6.638 -0.1958 -0.6197 -0.1356
  495MOL0     C66743  10.737   9.980   7.190  0.9148  0.0691 -0.5479
  495MOL0     C66744  10.767   9.840   7.213  0.5189  1.4173  0.3478
  495MOL0     C66745  10.777   9.394   7.282 -0.2043 -1.1514  0.1645
  495MOL0     C66746  10.668   9.361   7.369  0.2077 -0.2700  0.0277
  495MOL0     C66747  10.662   9.224   7.406  0.0412 -0.2025  0.1738
  495MOL0     C66748  10.756   9.128   7.369  0.6761  0.9723 -0.1235
  495MOL0     O66749  10.747   9.013   7.427  0.9993  0.2927  0.2377
  495MOL0     C66750  10.822   8.904   7.388 -0.7187  0.5277  0.0857
  495MOL0     C66751  10.958   8.894   7.466  0.3178  0.9298 -1.0324
  495MOL0     C66752  11.028   8.764   7.422  0.6373  0.8127 -0.5007
  495MOL0     C66753  11.178   8.775   7.426  0.5816  0.4897  0.1615
  495MOL0     C66754  11.245   8.701   7.323 -0.0044 -0.3006  0.2516
  495MOL0     C66755  11.321   8.661   7.234 -0.0312  0.9924  0.0924
  495MOL0     C66756  10.849   9.163   7.272 -0.0010 -0.4221  1.7592
  495MOL0     C66757  10.851   9.298   7.223 -0.2175  0.9416  0.2570
  495MOL0     H66758  10.455   9.736   7.268  0.2367  0.2649  0.3914
  495MOL0     H66759  10.405   9.969   7.201 -0.7765 -1.9039  1.9599
  495MOL0     H66760  10.445  10.075   6.979  1.7367 -0.5671  1.6085
  495MOL0     H66761  10.371  10.200   7.082 -0.5774  1.9769 -1.1447
  495MOL0     H66762  10.598  10.239   6.870 -1.2018 -0.0281 -1.4128
  495MOL0     H66763  10.425  10.273   6.854  1.4272  0.2739 -0.6799
  495MOL0     H66764  10.428  10.454   6.997 -0.9305  0.7132  0.0722
  495MOL0     H66765  10.597  10.409   7.068  2.8507 -0.7641 -2.8182
  495MOL0     H66766  10.716  10.461   6.904 -1.0849 -1.3923  1.7246
  495MOL0     H66767  10.577  10.478   6.791  0.0306  3.1098  0.3804
  495MOL0     H66768  10.480  10.642   6.921  0.2548 -3.6804 -1.1484
  495MOL0     H66769  10.616  10.665   7.034 -0.6230 -1.4039  0.6382
  495MOL0     H66770  10.754  10.747   6.828  0.6917  2.2858 -0.8202
  495MOL0     H66771  10.593  10.750   6.743 -0.6013 -1.6868  1.5711
  495MOL0     H66772  10.510  10.909   6.867  0.9375 -1.6013 -2.3313
  495MOL0     H66773  10.600  10.874   7.018 -0.7891 -0.5180  0.3668
  495MOL0     H66774  10.802  10.993   6.915 -0.4567 -0.1091 -0.2022
  495MOL0     H66775  10.667  11.104   6.897 -0.0579  0.5890 -1.3276
  495MOL0     H66776  10.856  10.856   6.673  0.1532  2.3510  0.4673
  495MOL0     H66777  10.957  10.900   6.406 -2.3150 -3.1474 -2.6093
  495MOL0     H66778  10.810  10.903   6.313  0.4508 -0.2024 -0.4761
  495MOL0     H66779  10.820  11.132   6.264 -1.6511  1.2583  1.6535
  495MOL0     H66780  10.992  11.085   6.255  0.8786  2.0788  1.8413
  495MOL0     H66781  11.010  11.169   6.510  2.7776 -0.9372 -1.4891
  495MOL0     H66782  10.881  11.279   6.453 -0.2240 -1.4538  1.4436
  495MOL0     H66783  11.161  11.234   6.323 -0.9496 -1.4315 -0.2828
  495MOL0     H66784  11.127  11.365   6.419  1.1086 -1.8960  0.8081
  495MOL0     H66785  11.043  11.565   6.409  1.8868 -0.9880 -1.5406
  495MOL0     H66786  11.011  11.765   6.491 -1.2036 -1.3071 -0.8191
  495MOL0     H66787  11.062  11.872   6.361  1.4242 -0.0530  1.6428
  495MOL0     H66788  10.912  11.895   6.423 -1.0700  0.3843 -2.5141
  495MOL0     H66789  10.545  11.974   6.017 -1.1137 -1.3286  2.0950
  495MOL0     H66790  10.458  12.227   5.975 -0.0632  0.4127  0.1808
  495MOL0     H66791  10.543  12.521   6.273  1.0105 -1.5350  0.9837
  495MOL0     H66792  10.678  12.563   6.161  1.8986 -2.8412 -0.6175
  495MOL0     H66793  10.496  12.639   5.993 -0.9717  1.2652  0.9171
  495MOL0     H66794  10.379  12.584   6.091 -0.3683  0.1119 -0.4356
  495MOL0     H66795  10.583  12.810   6.144  1.0089 -3.5131  1.9121
  495MOL0     H66796  10.473  12.764   6.275 -4.6846  2.9997  0.0689
  495MOL0     H66797  10.423  12.956   6.139 -0.0343 -0.6170  2.6201
  495MOL0     H66798  10.366  12.853   6.008  1.3030  0.2264 -0.0535
  495MOL0     H66799  10.260  12.889   6.295  0.4951 -1.3450  0.9682
  495MOL0     H66800  10.222  12.741   6.197  0.9621 -1.0463 -3.6191
  495MOL0     H66801  10.117  13.011   6.120 -1.2196 -0.9436 -2.1729
  495MOL0     H66802  10.143  12.879   6.012  0.2658 -0.0327 -0.3627
  495MOL0     H66803  10.004  12.732   6.161 -1.7445  0.7783 -2.3596
  495MOL0     H66804   9.898  12.867   6.126 -0.6593 -0.1865  0.1059
  495MOL0     H66805   9.978  13.002   6.325  1.4964  0.4165 -1.7437
  495MOL0     H66806  10.049  12.857   6.381  0.9505 -0.8042 -1.8992
  495MOL0     H66807  10.689  12.340   6.314 -1.1095  0.5256 -0.2404
  495MOL0     H66808  10.763  12.097   6.341  0.3812 -3.0032 -0.8480
  495MOL0     H66809  10.805  11.674   5.989  0.7100  3.6165  0.4703
  495MOL0     H66810  10.910  11.448   6.014 -1.2338 -0.0732  1.3652
  495MOL0     H66811  10.821  10.045   7.166 -0.0273  2.0716  1.2964
  495MOL0     H66812  10.872   9.813   7.223  0.2930  1.2686  2.9560
  495MOL0     H66813  10.604   9.443   7.401  2.5938  0.5665  3.1745
  495MOL0     H66814  10.590   9.193   7.480  1.7500 -0.5884  1.7405
  495MOL0     H66815  10.765   8.814   7.409  1.4387 -0.5784  1.6584
  495MOL0     H66816  10.846   8.908   7.281 -1.4477 -1.8221 -0.2153
  495MOL0     H66817  10.936   8.892   7.573 -0.5352 -2.9254 -1.1376
  495MOL0     H66818  11.012   8.987   7.447  1.0233  0.0785 -3.6234
  495MOL0     H66819  10.998   8.744   7.318  0.9565  0.3185 -0.4993
  495MOL0     H66820  11.002   8.681   7.488 -0.7586  1.6778  0.0851
  495MOL0     H66821  11.215   8.756   7.527  2.5746 -1.6629 -0.8759
  495MOL0     H66822  11.201   8.882   7.423  3.1584  0.0193  0.4986
  495MOL0     H66823  11.385   8.608   7.166  1.1584 -1.2007  2.7516
  495MOL0     H66824  10.921   9.099   7.222  2.0144  2.5047  0.6075
  495MOL0     H66825  10.928   9.325   7.153  0.2874  0.0648  0.4541
  496MOL0     O66826  10.094   1.454   3.531  0.4696 -0.6650 -0.7409
  496MOL0     C66827   9.990   1.469   3.585 -0.1121 -0.1076 -0.1594
  496MOL0     O66828   9.893   1.559   3.549 -1.1366 -0.2715 -0.9353
  496MOL0     C66829   9.918   1.622   3.439  0.1357 -0.6155  0.0582
  496MOL0     C66830  10.006   1.738   3.432  0.5998  0.1035 -0.0062
  496MOL0     C66831  10.022   1.807   3.323  0.6636  0.8361  0.2512
  496MOL0     C66832   9.953   1.763   3.206  0.0074 -0.4377 -0.1118
  496MOL0     O66833   9.985   1.832   3.092  1.0265  0.2793  0.0681
  496MOL0     C66834  10.095   1.795   3.018 -0.6568 -0.1543  0.9865
  496MOL0     C66835  10.205   1.911   3.012  0.0388  0.1277  0.2817
  496MOL0     C66836  10.330   1.874   2.932 -0.7605  0.2435  0.3616
  496MOL0     C66837  10.460   1.950   2.991 -1.3591  0.0618  0.2471
  496MOL0     C66838  10.589   1.884   2.933 -0.9102  0.2250 -0.2936
  496MOL0     C66839  10.714   1.931   3.006  0.2567 -0.4873  0.7873
  496MOL0     C66840  10.770   2.055   2.941 -0.1689  0.2927 -0.5367
  496MOL0     C66841  10.893   2.099   3.023  0.0425  0.2587  0.5463
  496MOL0     N66842  10.980   2.201   2.953  0.7277 -0.5589  0.2146
  496MOL0     C66843  11.073   2.179   2.852  1.0034 -0.6332 -0.2838
  496MOL0     C66844  11.085   2.298   2.790 -0.4386 -0.2841  0.2755
  496MOL0     C66845  11.202   2.315   2.691  0.0643  0.3206 -0.3356
  496MOL0     C66846  11.323   2.311   2.771  0.4488  0.1171 -1.3860
  496MOL0     C66847  11.434   2.302   2.667 -0.3596  0.8060  0.4105
  496MOL0     C66848  11.569   2.352   2.714  0.4212  0.0084  0.3670
  496MOL0     O66849  11.675   2.327   2.626 -1.4304 -0.1495  0.3248
  496MOL0     C66850  11.669   2.383   2.498 -0.5072 -0.1842 -0.1182
  496MOL0     C66851  11.645   2.293   2.392 -0.0888 -0.7214  0.6002
  496MOL0     C66852  11.636   2.340   2.253 -0.1890  0.5112 -0.4350
  496MOL0     C66853  11.604   2.225   2.148 -0.4772 -0.1937  0.1882
  496MOL0     C66854  11.664   2.479   2.235  0.8984  0.5697 -0.2390
  496MOL0     C66855  11.669   2.541   2.099 -0.9623 -0.7728  0.0923
  496MOL0     O66856  11.702   2.679   2.089  0.2848 -0.8017  0.0147
  496MOL0     C66857  11.692   2.736   1.963 -0.6989 -0.9391 -0.6146
  496MOL0     C66858  11.572   2.743   1.889 -0.2750  0.1217 -0.0705
  496MOL0     C66859  11.559   2.811   1.774  0.0406  0.2518  1.1288
  496MOL0     C66860  11.670   2.874   1.721  0.4611 -0.0649  0.9088
  496MOL0     O66861  11.649   2.950   1.610  0.1912 -1.1890 -0.3908
  496MOL0     C66862  11.570   2.926   1.501  0.2018 -0.6578  0.2324
  496MOL0     C66863  11.579   2.780   1.441 -0.1707 -0.0564  1.1064
  496MOL0     C66864  11.529   2.784   1.297  0.2951  0.0251  0.2423
  496MOL0     C66865  11.537   2.639   1.240  0.1766 -0.7555  0.1634
  496MOL0     C66866  11.502   2.647   1.092 -0.1613 -0.8501 -0.7751
  496MOL0     C66867  11.462   2.515   1.029  0.0619 -1.4304  0.6293
  496MOL0     C66868  11.405   2.524   0.883  0.0048  1.1304  0.5541
  496MOL0     C66869  11.344   2.387   0.844 -0.9094  1.1321  0.2365
  496MOL0    Cl66870  11.191   2.350   0.924 -0.2652 -0.6972 -0.0995
  496MOL0     C66871  11.787   2.881   1.792 -0.1603 -0.9340 -0.6619
  496MOL0     C66872  11.794   2.819   1.919  0.5693 -0.0925  1.0112
  496MOL0     O66873  11.639   2.468   2.003 -0.3464  0.2461  0.0342
  496MOL0     C66874  11.687   2.560   2.352 -1.0109  0.3519  0.6248
  496MOL0     C66875  11.692   2.518   2.477  0.0710  0.2456  0.3067
  496MOL0     N66876  11.007   2.394   2.851 -0.3913  0.4375 -0.7667
  496MOL0     N66877  10.944   2.335   2.949  0.3947 -0.5476  0.3831
  496MOL0     C66878   9.858   1.658   3.205  0.1562 -0.4806  0.0481
  496MOL0     C66879   9.835   1.584   3.322 -0.1775  1.1088 -0.8251
  496MOL0     C66880   9.955   1.395   3.708  0.1033  0.4727 -0.3027
  496MOL0     C66881  10.047   1.302   3.766  0.0244  0.1253  0.2514
  496MOL0     C66882  10.004   1.230   3.871 -0.2936 -0.1190 -0.5830
  496MOL0     C66883   9.881   1.254   3.937  0.0366  0.0045  1.0418
  496MOL0     O66884   9.843   1.181   4.043 -0.7093  0.0558 -0.3109
  496MOL0     C66885   9.828   1.250   4.171  0.6453  0.5834  0.7590
  496MOL0     C66886   9.811   1.145   4.292  0.1143 -0.1737 -0.1329
  496MOL0     C66887   9.930   1.051   4.307 -0.4847 -0.1691 -0.5695
  496MOL0     C66888   9.903   0.950   4.417 -0.2229  0.1579  0.3031
  496MOL0     C66889  10.010   0.921   4.514 -0.1099 -0.0725 -0.2492
  496MOL0     C66890  10.097   0.880   4.582 -0.2096 -0.5590 -0.0202
  496MOL0     C66891   9.793   1.341   3.879  1.4292 -0.3224 -0.4081
  496MOL0     C66892   9.829   1.413   3.765  0.4170  0.9283  0.1973
  496MOL0     H66893  10.090   1.755   3.499  2.2549  0.9072 -2.1288
  496MOL0     H66894  10.099   1.883   3.320  1.3685  0.1583  0.5935
  496MOL0     H66895  10.136   1.700   3.052 -1.0911  0.1516  2.4587
  496MOL0     H66896  10.064   1.788   2.914  1.9964  2.9618 -0.1710
  496MOL0     H66897  10.161   2.008   2.990 -1.8658 -0.0804  2.7093
  496MOL0     H66898  10.243   1.917   3.115  0.3550  0.5851  0.1431
  496MOL0     H66899  10.362   1.770   2.942  0.2656  0.4595 -0.5330
  496MOL0     H66900  10.319   1.893   2.825  0.4790 -1.7965 -0.1854
  496MOL0     H66901  10.461   2.059   2.979  0.4092  0.5383  3.7013
  496MOL0     H66902  10.472   1.931   3.098  2.3036  1.1096  0.1660
  496MOL0     H66903  10.577   1.776   2.949 -1.2391  0.3394  0.2802
  496MOL0     H66904  10.602   1.897   2.826 -2.2942  1.5230 -0.3487
  496MOL0     H66905  10.692   1.955   3.110  2.4550  4.2878  0.4639
  496MOL0     H66906  10.797   1.860   3.005  0.8527  0.1613  1.8871
  496MOL0     H66907  10.795   2.025   2.839  1.9937  1.8831 -0.5447
  496MOL0     H66908  10.696   2.136   2.940  0.2768  0.9049  2.9208
  496MOL0     H66909  10.954   2.008   3.028 -1.2825 -0.6269  1.0459
  496MOL0     H66910  10.863   2.129   3.124 -0.1314  0.1890  0.5138
  496MOL0     H66911  11.121   2.085   2.827 -0.3722 -1.2679 -0.6274
  496MOL0     H66912  11.209   2.231   2.621 -0.8936  0.0377 -0.1056
  496MOL0     H66913  11.197   2.406   2.630  0.7402 -0.6521 -1.9182
  496MOL0     H66914  11.325   2.239   2.853 -1.2073  3.1415  1.5603
  496MOL0     H66915  11.344   2.402   2.826 -3.3837 -0.6660  1.8280
  496MOL0     H66916  11.402   2.359   2.578 -1.5302  0.0751  0.3410
  496MOL0     H66917  11.445   2.197   2.638 -0.2534  1.5312 -2.4800
  496MOL0     H66918  11.598   2.287   2.798  1.2837 -0.2093 -0.0852
  496MOL0     H66919  11.558   2.456   2.747  1.6984 -0.5284  2.7686
  496MOL0     H66920  11.636   2.186   2.402 -0.1083 -1.0377 -2.0265
  496MOL0     H66921  11.600   2.263   2.045 -1.1079  0.9035  0.5991
  496MOL0     H66922  11.679   2.146   2.149  0.2753  0.5071  1.3813
  496MOL0     H66923  11.512   2.174   2.180  0.4153 -1.3671  0.9441
  496MOL0     H66924  11.500   2.692   1.952  1.1221  0.9394  2.3181
  496MOL0     H66925  11.464   2.837   1.729  0.9778  0.7793 -0.6620
  496MOL0     H66926  11.472   2.973   1.512  1.6346  2.7577 -0.3317
  496MOL0     H66927  11.601   2.995   1.422 -1.0307  0.6714  0.8601
  496MOL0     H66928  11.682   2.745   1.451 -0.1490 -0.9329 -1.5225
  496MOL0     H66929  11.511   2.724   1.506  0.1765 -1.8763 -0.0179
  496MOL0     H66930  11.580   2.861   1.239  1.0967  0.2684  1.2586
  496MOL0     H66931  11.421   2.803   1.297 -0.0595 -1.7567  1.4875
  496MOL0     H66932  11.640   2.609   1.264 -0.1213 -0.5657  1.8126
  496MOL0     H66933  11.464   2.581   1.297 -0.9355  0.0387 -0.4297
  496MOL0     H66934  11.589   2.688   1.039  0.0810  0.8505  0.8624
  496MOL0     H66935  11.418   2.713   1.069  1.0350  0.7131 -0.8409
  496MOL0     H66936  11.552   2.454   1.028  0.9075 -0.2189  0.0949
  496MOL0     H66937  11.390   2.469   1.098  1.3372  1.1195  3.9467
  496MOL0     H66938  11.462   2.559   0.796 -2.0602 -2.2299 -2.4240
  496MOL0     H66939  11.324   2.597   0.887 -0.4112  0.9340 -2.1133
  496MOL0     H66940  11.418   2.309   0.866  1.3012  3.1671  0.4180
  496MOL0     H66941  11.323   2.382   0.737  3.3210  0.0489 -0.7365
  496MOL0     H66942  11.874   2.944   1.775  0.1219 -1.0047  0.3934
  496MOL0     H66943  11.882   2.833   1.982 -1.0370  0.4346  3.2679
  496MOL0     H66944  11.707   2.667   2.344  2.9518 -0.0083  3.0294
  496MOL0     H66945  11.694   2.598   2.551 -3.6849  2.0019 -1.2026
  496MOL0     H66946   9.790   1.637   3.124 -1.0995 -1.8618  1.3864
  496MOL0     H66947   9.778   1.492   3.318  4.0459 -1.7973 -0.3163
  496MOL0     H66948  10.148   1.295   3.726  0.6673  2.3027  1.3517
  496MOL0     H66949  10.080   1.171   3.922  2.8864  2.1195 -2.3512
  496MOL0     H66950   9.908   1.321   4.189  0.1594  1.0615  1.0490
  496MOL0     H66951   9.743   1.318   4.162 -0.0043 -0.2285  0.6683
  496MOL0     H66952   9.721   1.086   4.271  0.7165 -1.4746  0.8732
  496MOL0     H66953   9.783   1.197   4.384 -0.9958  0.9949 -1.0831
  496MOL0     H66954  10.016   1.111   4.337 -0.1012  0.0790 -2.0997
  496MOL0     H66955   9.952   1.005   4.211 -1.1743  1.0653 -1.3412
  496MOL0     H66956   9.878   0.852   4.376  0.6446  0.0734 -0.0460
  496MOL0     H66957   9.818   0.985   4.477  0.3779  1.8753  0.2252
  496MOL0     H66958  10.182   0.846   4.638  0.2003 -1.1647 -0.9817
  496MOL0     H66959   9.697   1.362   3.925  1.4329  1.4963 -1.1286
  496MOL0     H66960   9.759   1.476   3.711  1.2240 -1.6494 -4.3671
  497MOL0     O66961   0.342   1.879   1.573 -0.0743  0.0812  0.1684
  497MOL0     C66962   0.272   1.926   1.660 -0.3578 -1.0955 -0.2166
  497MOL0     O66963   0.281   1.901   1.790 -1.2858  0.2973 -0.6285
  497MOL0     C66964   0.395   1.831   1.849 -1.0067 -1.2012 -0.1142
  497MOL0     C66965   0.523   1.843   1.793 -0.0894  0.1465  1.7667
  497MOL0     C66966   0.643   1.787   1.852  0.8437  0.4439  0.0518
  497MOL0     C66967   0.628   1.730   1.977  0.5616 -0.6960 -0.2315
  497MOL0     O66968   0.728   1.671   2.049 -0.1143 -0.0822  0.0805
  497MOL0     C66969   0.836   1.754   2.072 -0.4453  0.0417  0.7212
  497MOL0     C66970   0.810   1.830   2.198 -0.0396 -0.5671  0.2850
  497MOL0     C66971   0.940   1.898   2.250 -0.3818 -0.2606  0.1949
  497MOL0     C66972   0.918   1.955   2.393  0.0627  0.2117 -0.1480
  497MOL0     C66973   1.040   2.022   2.458 -0.2448  0.3512  0.0600
  497MOL0     C66974   0.996   2.101   2.581  0.8641 -0.5969 -0.7131
  497MOL0     C66975   1.118   2.099   2.672  0.7275 -1.2239  0.3104
  497MOL0     C66976   1.112   1.977   2.778  0.0408 -0.0586  1.0137
  497MOL0     N66977   1.238   1.974   2.860 -0.0410 -0.9568  0.4939
  497MOL0     C66978   1.268   2.081   2.942 -0.7212 -0.8398 -0.2276
  497MOL0     C66979   1.377   2.043   3.010  0.7020 -0.2597  0.9302
  497MOL0     C66980   1.443   2.116   3.121 -0.6395  0.0922  0.3673
  497MOL0     C66981   1.345   2.193   3.196 -0.7561  0.1113 -0.5871
  497MOL0     C66982   1.405   2.247   3.329 -1.2075  0.2780 -0.1026
  497MOL0     C66983   1.545   2.308   3.332  0.4003  0.1142  0.7023
  497MOL0     O66984   1.576   2.340   3.470  0.2375 -0.8196 -0.0936
  497MOL0     C66985   1.653   2.262   3.562 -0.5883  0.4405  0.6854
  497MOL0     C66986   1.684   2.323   3.684 -0.5522 -0.1509  1.0707
  497MOL0     C66987   1.760   2.260   3.782  0.3718 -0.1810 -0.2899
  497MOL0     C66988   1.754   2.316   3.928  0.1086 -0.2839  0.4627
  497MOL0     C66989   1.821   2.138   3.755 -0.7097  0.4940 -0.3152
  497MOL0     C66990   1.906   2.054   3.849  0.8346  0.8696 -0.5145
  497MOL0     O66991   1.919   1.919   3.819 -0.2744 -0.0339  0.3223
  497MOL0     C66992   1.993   1.839   3.911  0.2290  0.2124 -0.1999
  497MOL0     C66993   1.936   1.790   4.025 -0.1463  0.2304 -0.1662
  497MOL0     C66994   2.012   1.732   4.126  0.6114  0.1009 -0.5280
  497MOL0     C66995   2.145   1.698   4.102  0.1050 -0.6927 -0.3193
  497MOL0     O66996   2.224   1.662   4.209  0.1732 -0.6208  0.0721
  497MOL0     C66997   2.232   1.525   4.223 -0.6065  0.0793 -0.3005
  497MOL0     C66998   2.107   1.460   4.281  0.1010  0.0829 -0.9320
  497MOL0     C66999   2.123   1.312   4.332  0.3383 -0.4353 -0.0692
  497MOL0     C67000   2.179   1.209   4.227 -0.4790 -0.2411  0.0871
  497MOL0     C67001   2.230   1.082   4.307  0.5286  0.0851  0.4132
  497MOL0     C67002   2.367   1.028   4.279 -1.4543 -1.1938  0.7145
  497MOL0     C67003   2.406   0.899   4.360 -0.1894 -0.3886  0.1139
  497MOL0     C67004   2.342   0.772   4.313  0.2373 -0.1915  0.7811
  497MOL0    Cl67005   2.408   0.705   4.159 -0.2631 -0.0121  0.1803
  497MOL0     C67006   2.191   1.732   3.985 -0.1956  0.1153  0.7147
  497MOL0     C67007   2.122   1.800   3.888  0.3196  0.1589  0.7519
  497MOL0     O67008   1.972   2.105   3.932  0.3257 -1.8071  0.4918
  497MOL0     C67009   1.799   2.081   3.620 -0.4423 -0.2354  0.2220
  497MOL0     C67010   1.714   2.140   3.525  0.5359 -0.1751  0.2124
  497MOL0     N67011   1.419   1.928   2.949  0.2749  0.0193  0.4977
  497MOL0     N67012   1.335   1.877   2.862 -0.0802  0.1099 -0.2478
  497MOL0     C67013   0.500   1.723   2.041 -0.6284 -0.5378 -0.2553
  497MOL0     C67014   0.387   1.768   1.980  0.1534  0.2168  0.5058
  497MOL0     C67015   0.193   2.053   1.628  0.6490 -0.5399  0.1951
  497MOL0     C67016   0.158   2.141   1.725  0.1906 -0.1082 -0.3128
  497MOL0     C67017   0.089   2.270   1.693  0.9538  0.8783  0.8343
  497MOL0     C67018   0.061   2.299   1.565 -0.0502  0.4385  0.3169
  497MOL0     O67019  -0.010   2.401   1.510 -0.1717  0.7707  0.0835
  497MOL0     C67020  -0.150   2.396   1.545  0.4288  0.9366 -0.5043
  497MOL0     C67021  -0.175   2.442   1.690 -0.0455 -0.2050  0.5425
  497MOL0     C67022  -0.327   2.455   1.725  0.1436  0.9845 -0.2019
  497MOL0     C67023  -0.338   2.553   1.837  0.4906 -0.0026  0.3823
  497MOL0     C67024  -0.475   2.531   1.897  0.2219  0.1386  0.0701
  497MOL0     C67025  -0.586   2.510   1.941 -0.4623 -0.2916  0.0858
  497MOL0     C67026   0.094   2.199   1.473  0.2770 -0.9335  0.1476
  497MOL0     C67027   0.157   2.080   1.501  0.0134 -0.3610  0.7182
  497MOL0     H67028   0.549   1.892   1.700  1.7632 -2.3610  0.8442
  497MOL0     H67029   0.739   1.790   1.800  0.3383  0.9221 -0.8748
  497MOL0     H67030   0.928   1.696   2.083  2.2899  2.9674 -3.5393
  497MOL0     H67031   0.852   1.822   1.988  2.5240 -0.2700  0.9038
  497MOL0     H67032   0.724   1.896   2.189 -0.1131 -0.4713  1.5043
  497MOL0     H67033   0.773   1.759   2.272 -2.2860 -0.1144 -0.3462
  497MOL0     H67034   1.026   1.832   2.259 -1.2166 -1.4184 -0.1518
  497MOL0     H67035   0.985   1.973   2.184  2.2220 -0.6155  1.4567
  497MOL0     H67036   0.837   2.029   2.388  2.1403  2.8027  1.5202
  497MOL0     H67037   0.890   1.879   2.466 -0.9672 -0.7818 -1.5307
  497MOL0     H67038   1.116   1.947   2.481 -0.4506  0.9176  2.9019
  497MOL0     H67039   1.089   2.082   2.381  0.7666 -1.2043 -0.5472
  497MOL0     H67040   0.967   2.202   2.548 -4.1234 -1.3082  0.6009
  497MOL0     H67041   0.909   2.066   2.637 -0.2582  0.8391 -1.4818
  497MOL0     H67042   1.215   2.111   2.623  0.4660 -0.1669  0.0335
  497MOL0     H67043   1.110   2.183   2.741  1.4366 -1.5562  0.8103
  497MOL0     H67044   1.109   1.882   2.725 -1.7633  1.1649 -1.3038
  497MOL0     H67045   1.021   1.964   2.837 -1.7571 -2.9077 -2.0644
  497MOL0     H67046   1.205   2.170   2.948 -3.3795 -2.7219  3.3047
  497MOL0     H67047   1.497   2.043   3.182  0.3110 -1.4410 -2.1652
  497MOL0     H67048   1.518   2.182   3.079 -1.0809  0.6421  0.4292
  497MOL0     H67049   1.270   2.121   3.229 -0.0793 -0.2058  0.2697
  497MOL0     H67050   1.309   2.284   3.147 -2.4379 -0.0451  0.2869
  497MOL0     H67051   1.403   2.172   3.408  3.0250  1.1310  1.1150
  497MOL0     H67052   1.329   2.320   3.357  1.9330  2.7890  2.7501
  497MOL0     H67053   1.537   2.399   3.272  0.0703  0.5520  1.4002
  497MOL0     H67054   1.608   2.230   3.288 -0.1695 -0.9030  1.6147
  497MOL0     H67055   1.644   2.424   3.691 -0.8053 -0.1023 -0.5436
  497MOL0     H67056   1.721   2.421   3.925  1.7265  0.3130  1.8121
  497MOL0     H67057   1.677   2.251   3.970 -1.8354  0.8646 -1.1828
  497MOL0     H67058   1.849   2.305   3.981 -0.1423 -2.1042  0.5786
  497MOL0     H67059   1.828   1.799   4.028 -0.3844 -1.2899 -2.1050
  497MOL0     H67060   1.963   1.705   4.219 -0.4919  0.4550 -0.9952
  497MOL0     H67061   2.256   1.490   4.122  0.5514  3.7892 -1.4488
  497MOL0     H67062   2.307   1.503   4.299 -1.7226  2.0651  1.4668
  497MOL0     H67063   2.073   1.515   4.369  3.2028 -1.4571  1.4196
  497MOL0     H67064   2.030   1.464   4.204 -1.4217 -3.7505  0.1697
  497MOL0     H67065   2.020   1.283   4.355  0.5227  0.8483  2.8338
  497MOL0     H67066   2.194   1.308   4.415  2.5921 -0.8921 -1.9460
  497MOL0     H67067   2.094   1.179   4.165 -0.9489 -1.5566  1.2953
  497MOL0     H67068   2.261   1.247   4.165  0.6548 -0.1556  1.5844
  497MOL0     H67069   2.155   1.005   4.287 -1.1094  1.5105  0.7751
  497MOL0     H67070   2.215   1.110   4.412 -0.6149  2.4607 -0.3063
  497MOL0     H67071   2.367   0.984   4.179  1.6397 -0.7636  0.4445
  497MOL0     H67072   2.444   1.105   4.285 -4.0001  1.5831  0.6411
  497MOL0     H67073   2.380   0.908   4.466 -2.6830 -2.7612 -0.1898
  497MOL0     H67074   2.514   0.884   4.351 -0.3445 -0.3407 -4.2928
  497MOL0     H67075   2.235   0.790   4.294 -0.0087 -0.5190  1.7881
  497MOL0     H67076   2.349   0.692   4.387 -0.1355 -0.1173  0.9018
  497MOL0     H67077   2.287   1.696   3.948 -0.1670 -2.6628  3.1420
  497MOL0     H67078   2.151   1.845   3.794 -0.9086  1.3766  0.9216
  497MOL0     H67079   1.851   1.990   3.594  3.9176  1.7368  1.1573
  497MOL0     H67080   1.693   2.091   3.431 -2.4439  2.4531 -0.6905
  497MOL0     H67081   0.497   1.683   2.142  0.9437  3.5762  1.6160
  497MOL0     H67082   0.286   1.750   2.016 -0.8866  0.6567 -1.9769
  497MOL0     H67083   0.174   2.120   1.830  0.7812  1.0538 -0.1441
  497MOL0     H67084   0.071   2.345   1.770 -3.1609  0.3585  0.6127
  497MOL0     H67085  -0.208   2.462   1.479  2.5011  1.1921 -2.1748
  497MOL0     H67086  -0.193   2.299   1.518 -2.3600  1.8091  0.4797
  497MOL0     H67087  -0.131   2.539   1.713  3.3575 -0.8660 -2.3839
  497MOL0     H67088  -0.135   2.359   1.748  0.2214 -0.4195  0.0539
  497MOL0     H67089  -0.366   2.360   1.764 -0.4577  1.0241 -0.6975
  497MOL0     H67090  -0.392   2.494   1.647 -3.1901  1.4777  2.5588
  497MOL0     H67091  -0.330   2.657   1.803  0.5183  0.3973  1.5673
  497MOL0     H67092  -0.264   2.544   1.917 -1.2022 -0.9785  1.9156
  497MOL0     H67093  -0.682   2.495   1.985 -0.3738 -0.8540  0.1031
  497MOL0     H67094   0.087   2.221   1.367  1.6581  0.2658  0.2637
  497MOL0     H67095   0.183   2.013   1.420 -2.5546 -2.1466  1.2770
  498MOL0     O67096   8.744   0.076   2.744 -0.5254 -0.1328  0.9715
  498MOL0     C67097   8.814   0.144   2.680  0.8452 -0.0734  0.8599
  498MOL0     O67098   8.875   0.256   2.723 -0.1680 -0.1509 -0.2713
  498MOL0     C67099   8.845   0.306   2.854 -0.6348 -0.4542  1.1019
  498MOL0     C67100   8.882   0.222   2.959  0.3716 -0.5556 -0.1067
  498MOL0     C67101   8.863   0.264   3.099  0.6082  0.9131  0.9036
  498MOL0     C67102   8.790   0.379   3.124  0.2754 -0.8211  0.8518
  498MOL0     O67103   8.751   0.415   3.252 -0.3545  0.4799  0.0140
  498MOL0     C67104   8.623   0.365   3.290 -0.6420  0.0796 -1.1015
  498MOL0     C67105   8.582   0.431   3.427 -0.6011 -0.1617  0.2410
  498MOL0     C67106   8.447   0.380   3.472  0.0985 -0.1241 -0.2400
  498MOL0     C67107   8.395   0.479   3.577  0.1134 -0.8722  1.2095
  498MOL0     C67108   8.479   0.468   3.703  0.0008 -0.6339  0.0427
  498MOL0     C67109   8.496   0.609   3.774 -0.0523 -0.3243  0.1234
  498MOL0     C67110   8.363   0.653   3.851 -0.3653 -0.2358 -0.3786
  498MOL0     C67111   8.351   0.615   4.001  0.2854  0.0864  0.5124
  498MOL0     N67112   8.223   0.554   4.036  0.5276 -0.2984 -0.0715
  498MOL0     C67113   8.096   0.607   4.023 -1.0714  0.7430 -0.3413
  498MOL0     C67114   8.007   0.512   4.073 -0.1449 -1.2441 -0.2997
  498MOL0     C67115   7.860   0.528   4.092  0.5918 -0.7177  0.1899
  498MOL0     C67116   7.818   0.598   4.220 -0.3456  0.2586 -0.4241
  498MOL0     C67117   7.830   0.505   4.347 -1.0466  0.4063 -0.5706
  498MOL0     C67118   7.722   0.534   4.448  0.0507  0.6747 -0.2418
  498MOL0     O67119   7.768   0.647   4.527 -0.6697 -0.3555 -0.2965
  498MOL0     C67120   7.678   0.725   4.593 -0.4334 -0.5938 -0.9919
  498MOL0     C67121   7.541   0.689   4.615 -0.4547 -0.6289 -0.2457
  498MOL0     C67122   7.459   0.760   4.708  0.5701  0.6406 -0.3685
  498MOL0     C67123   7.309   0.719   4.712  0.5243 -0.7628 -0.4482
  498MOL0     C67124   7.514   0.880   4.769 -0.6790 -0.3231 -0.3531
  498MOL0     C67125   7.461   0.955   4.881  0.3665  0.1856  1.1699
  498MOL0     O67126   7.472   0.900   5.002 -0.0313  0.2647 -0.0127
  498MOL0     C67127   7.375   0.926   5.100  0.2629 -0.3839  0.4587
  498MOL0     C67128   7.247   0.869   5.102 -0.4430 -0.2752 -0.0976
  498MOL0     C67129   7.156   0.910   5.203 -0.3010  1.0120  0.0849
  498MOL0     C67130   7.191   1.003   5.293  0.3810 -0.4002 -0.5501
  498MOL0     O67131   7.089   1.045   5.371  0.9832  0.0096  1.1759
  498MOL0     C67132   7.089   1.183   5.415  0.6204  0.5101 -0.6088
  498MOL0     C67133   6.940   1.229   5.431  0.2474 -0.3588 -0.8630
  498MOL0     C67134   6.928   1.360   5.500  0.9667 -0.1325 -0.4665
  498MOL0     C67135   6.782   1.410   5.517  0.0216 -0.0030  0.3603
  498MOL0     C67136   6.707   1.334   5.626  0.4523  0.7869 -0.3423
  498MOL0     C67137   6.563   1.384   5.642  0.8718 -0.4938  0.7781
  498MOL0     C67138   6.509   1.370   5.784 -0.3316  0.6028  1.3333
  498MOL0     C67139   6.392   1.454   5.812  0.0960  0.5636  0.8227
  498MOL0    Cl67140   6.338   1.415   5.977 -0.0025  0.1146  0.3260
  498MOL0     C67141   7.316   1.051   5.293 -0.1643 -0.1754  0.8887
  498MOL0     C67142   7.411   1.019   5.200 -0.0373  0.5744 -0.0287
  498MOL0     O67143   7.389   1.048   4.851 -0.3275  0.2444 -0.8466
  498MOL0     C67144   7.650   0.918   4.744 -0.3921  0.7051  0.4202
  498MOL0     C67145   7.730   0.838   4.659  0.3339  0.4627  0.6837
  498MOL0     N67146   8.082   0.398   4.107  0.5677 -0.4127  0.0336
  498MOL0     N67147   8.204   0.427   4.073  0.3979  0.7531 -0.3599
  498MOL0     C67148   8.747   0.452   3.009  0.0295 -0.4930  0.2700
  498MOL0     C67149   8.773   0.417   2.880 -0.6683 -0.5204  0.5266
  498MOL0     C67150   8.798   0.117   2.536 -0.4900  0.4656  0.7261
  498MOL0     C67151   8.859   0.207   2.444 -0.7878  0.5381 -0.8616
  498MOL0     C67152   8.858   0.180   2.313 -0.3466  0.2066  0.3601
  498MOL0     C67153   8.804   0.060   2.254  0.2577 -0.4054 -0.6803
  498MOL0     O67154   8.813   0.022   2.130 -0.1711 -0.4965 -0.4797
  498MOL0     C67155   8.941   0.047   2.073 -1.0339 -0.1757  0.4230
  498MOL0     C67156   8.992  -0.084   2.003 -0.5242 -0.8644 -1.1425
  498MOL0     C67157   9.056  -0.191   2.098  0.1865  0.3813  0.2770
  498MOL0     C67158   9.074  -0.327   2.026  0.2303  0.0403 -0.7931
  498MOL0     C67159   9.113  -0.434   2.124 -0.2823  0.4258 -0.4370
  498MOL0     C67160   9.121  -0.538   2.187  0.6155 -0.0775 -0.7017
  498MOL0     C67161   8.730  -0.023   2.345 -0.4581  0.3047  0.0359
  498MOL0     C67162   8.725   0.005   2.479 -0.2847 -0.1388 -0.9438
  498MOL0     H67163   8.929   0.125   2.941 -0.7438 -1.1729  0.2302
  498MOL0     H67164   8.911   0.198   3.171  1.5443  0.8832  0.2765
  498MOL0     H67165   8.537   0.382   3.224 -1.6391  3.0183  0.7954
  498MOL0     H67166   8.638   0.258   3.309 -2.9071  0.4274  4.4433
  498MOL0     H67167   8.661   0.414   3.501  1.3872  4.5337 -0.4174
  498MOL0     H67168   8.581   0.540   3.412  0.4284 -0.4431 -2.3019
  498MOL0     H67169   8.367   0.382   3.397 -1.1525  3.7038  0.9899
  498MOL0     H67170   8.451   0.275   3.504  3.1014  0.1395  0.4662
  498MOL0     H67171   8.387   0.579   3.533 -2.3632 -1.6188 -0.2270
  498MOL0     H67172   8.292   0.452   3.604 -0.8711  0.4758 -0.9227
  498MOL0     H67173   8.426   0.398   3.769 -3.3196  1.3376 -0.2803
  498MOL0     H67174   8.584   0.439   3.693 -0.3450 -1.1311 -3.5595
  498MOL0     H67175   8.584   0.610   3.839 -0.1299  3.1386  0.3602
  498MOL0     H67176   8.510   0.682   3.694  0.4371  3.2282  3.1741
  498MOL0     H67177   8.334   0.757   3.835 -1.6522 -0.4622  0.2983
  498MOL0     H67178   8.286   0.596   3.799 -1.6216  3.2249 -2.7108
  498MOL0     H67179   8.385   0.693   4.069  1.0746 -1.2841  1.7363
  498MOL0     H67180   8.417   0.531   4.023  1.8110  1.6825  2.4149
  498MOL0     H67181   8.067   0.701   3.977  0.8486  1.0201 -1.0996
  498MOL0     H67182   7.809   0.591   4.018 -1.4113 -1.6370  0.7085
  498MOL0     H67183   7.806   0.433   4.079 -1.7632  0.5175  0.3777
  498MOL0     H67184   7.714   0.633   4.223 -0.2865  0.3885  1.3298
  498MOL0     H67185   7.865   0.697   4.227 -1.1840  0.5701  1.5593
  498MOL0     H67186   7.929   0.515   4.393 -0.0366 -1.2829 -2.2345
  498MOL0     H67187   7.816   0.403   4.311  4.2126 -1.0008  0.5808
  498MOL0     H67188   7.721   0.445   4.511  2.1201 -0.5701 -1.8240
  498MOL0     H67189   7.622   0.557   4.410 -0.0140  0.3636 -0.2580
  498MOL0     H67190   7.503   0.594   4.580  0.6318 -0.2370 -2.7832
  498MOL0     H67191   7.275   0.619   4.743 -1.0676 -0.5326 -1.3794
  498MOL0     H67192   7.259   0.783   4.785  0.0034 -2.7771  1.0653
  498MOL0     H67193   7.274   0.739   4.610  2.1805 -0.3732 -0.9649
  498MOL0     H67194   7.235   0.792   5.027 -2.4854  0.8148 -0.9671
  498MOL0     H67195   7.056   0.867   5.201 -0.1271  0.5249  1.1421
  498MOL0     H67196   7.139   1.194   5.511  0.5137  0.0847 -0.5038
  498MOL0     H67197   7.139   1.251   5.345  1.0931  0.0170 -0.7543
  498MOL0     H67198   6.882   1.218   5.339 -4.0120 -4.7038  1.8147
  498MOL0     H67199   6.892   1.164   5.505  0.9417  2.6459  2.5173
  498MOL0     H67200   6.975   1.440   5.443 -0.6858  1.0340 -0.2547
  498MOL0     H67201   6.964   1.361   5.603  0.9151  1.1034 -0.4501
  498MOL0     H67202   6.796   1.510   5.559 -0.7924 -0.0058  0.6700
  498MOL0     H67203   6.731   1.418   5.421  0.6751 -3.8149 -0.4465
  498MOL0     H67204   6.760   1.344   5.722  1.7666  0.5020 -1.0158
  498MOL0     H67205   6.700   1.229   5.600 -0.4504  0.4754  1.0618
  498MOL0     H67206   6.561   1.491   5.621  0.3085 -0.8171 -1.0492
  498MOL0     H67207   6.505   1.326   5.569  0.3031 -2.1014  2.4354
  498MOL0     H67208   6.586   1.398   5.855  1.2580 -0.6194  0.1674
  498MOL0     H67209   6.483   1.264   5.789 -2.7021  0.8819 -1.6178
  498MOL0     H67210   6.308   1.449   5.742  0.4863 -1.3335  0.4387
  498MOL0     H67211   6.420   1.558   5.794 -2.7954  1.1946 -0.5384
  498MOL0     H67212   7.340   1.116   5.377 -2.6003  2.4360 -0.2492
  498MOL0     H67213   7.508   1.068   5.200 -0.1804  0.9092  1.4722
  498MOL0     H67214   7.691   1.005   4.794 -1.0571  1.7344 -0.7923
  498MOL0     H67215   7.825   0.874   4.620  0.0679  2.1316  1.4756
  498MOL0     H67216   8.673   0.531   3.022 -1.8294 -2.2813  1.1659
  498MOL0     H67217   8.733   0.479   2.801  0.2050 -0.7476 -0.1102
  498MOL0     H67218   8.905   0.300   2.475 -2.4034  0.5657  1.8267
  498MOL0     H67219   8.898   0.255   2.246 -0.5254  2.0774  2.2425
  498MOL0     H67220   8.925   0.131   2.005 -1.9012 -0.2995  0.4654
  498MOL0     H67221   9.017   0.081   2.144 -2.3438  3.0821  0.4625
  498MOL0     H67222   9.078  -0.063   1.939  2.2774 -3.0575  1.5840
  498MOL0     H67223   8.903  -0.126   1.954 -0.7499 -3.9521  1.5659
  498MOL0     H67224   8.996  -0.216   2.186  1.6021 -0.8019  0.9686
  498MOL0     H67225   9.151  -0.143   2.122 -0.6623  2.9129 -1.0537
  498MOL0     H67226   9.151  -0.319   1.949  2.1308  2.1797  1.1689
  498MOL0     H67227   8.977  -0.352   1.982 -1.6491  3.4790  0.9579
  498MOL0     H67228   9.132  -0.640   2.219  0.9670  0.1605 -0.0500
  498MOL0     H67229   8.672  -0.107   2.308 -0.4348  0.9440 -1.5387
  498MOL0     H67230   8.667  -0.059   2.545 -4.5721  3.8905 -0.3107
  499MOL0     O67231   4.266   1.441   6.742 -0.0832 -0.5499 -0.3244
  499MOL0     C67232   4.267   1.446   6.867 -1.1573  0.7950  0.4731
  499MOL0     O67233   4.241   1.352   6.956 -0.4030  0.3019  0.2344
  499MOL0     C67234   4.238   1.222   6.904 -1.3958 -0.3889  0.4058
  499MOL0     C67235   4.159   1.130   6.957  0.7970  0.0082  0.3014
  499MOL0     C67236   4.170   0.994   6.941 -0.5827 -0.3854 -0.2830
  499MOL0     C67237   4.269   0.939   6.865  0.0539 -0.2161  0.3933
  499MOL0     O67238   4.297   0.807   6.844 -0.1342  0.0425 -0.1819
  499MOL0     C67239   4.208   0.703   6.871  0.2015  0.6940 -0.8204
  499MOL0     C67240   4.287   0.579   6.842 -0.5197  0.9778  0.5277
  499MOL0     C67241   4.207   0.449   6.870  0.8562 -0.0754  0.5309
  499MOL0     C67242   4.082   0.467   6.955  1.0493 -0.7599  0.1463
  499MOL0     C67243   4.010   0.330   6.963  0.0342  0.7882 -0.1279
  499MOL0     C67244   3.859   0.337   7.016 -0.2515 -0.1225  0.2153
  499MOL0     C67245   3.774   0.201   7.025  0.1004  0.1863  0.4425
  499MOL0     C67246   3.632   0.239   6.995  0.7040  1.4928  0.3066
  499MOL0     N67247   3.584   0.340   7.099  0.3898  0.4741  0.6258
  499MOL0     C67248   3.552   0.303   7.235  0.3167  0.5040  0.7775
  499MOL0     C67249   3.493   0.420   7.275  0.2546  0.0531 -1.2610
  499MOL0     C67250   3.433   0.455   7.409  0.0650 -0.9330  0.2368
  499MOL0     C67251   3.494   0.583   7.468  1.0207  0.3154  0.7886
  499MOL0     C67252   3.442   0.720   7.412  1.2395  0.5516 -0.2777
  499MOL0     C67253   3.311   0.764   7.478 -0.5437  1.1824  0.7900
  499MOL0     O67254   3.343   0.806   7.613 -0.3279  0.1580  0.2506
  499MOL0     C67255   3.249   0.770   7.712 -0.2223  0.4153 -0.4076
  499MOL0     C67256   3.263   0.842   7.831 -0.8030 -0.0349  0.2502
  499MOL0     C67257   3.173   0.836   7.933  0.5895 -0.5678  0.4227
  499MOL0     C67258   3.205   0.907   8.059  0.1792 -0.4769  0.2731
  499MOL0     C67259   3.051   0.775   7.921 -0.0934  0.9498 -0.2431
  499MOL0     C67260   2.948   0.775   8.034 -0.2532  0.5137 -0.4704
  499MOL0     O67261   2.851   0.869   8.048  0.4205  0.5914  0.6279
  499MOL0     C67262   2.819   0.936   7.931  0.4929  0.0898  0.8953
  499MOL0     C67263   2.889   1.051   7.897  0.0707  0.4024 -1.2110
  499MOL0     C67264   2.861   1.124   7.777  0.2542 -0.2104 -0.1677
  499MOL0     C67265   2.757   1.086   7.695  0.0698  0.0330  1.0164
  499MOL0     O67266   2.728   1.165   7.578  1.0446  1.0249 -0.3123
  499MOL0     C67267   2.608   1.156   7.507 -0.2726 -0.7200  0.1458
  499MOL0     C67268   2.617   1.225   7.371 -0.4201  0.6688  0.5637
  499MOL0     C67269   2.673   1.132   7.266 -0.6519  0.4029  0.2278
  499MOL0     C67270   2.827   1.110   7.273  0.1857  1.1656  0.7829
  499MOL0     C67271   2.877   1.072   7.139  0.0387  0.9224  0.3274
  499MOL0     C67272   2.901   1.177   7.040  0.0901 -0.9859  0.4451
  499MOL0     C67273   2.994   1.142   6.928  0.4056 -0.0543 -0.5491
  499MOL0     C67274   3.042   1.260   6.853 -0.2045 -0.1093 -0.2140
  499MOL0    Cl67275   2.916   1.342   6.755 -0.2970 -0.2142  0.1479
  499MOL0     C67276   2.680   0.968   7.733 -0.5041 -0.7530  0.2624
  499MOL0     C67277   2.724   0.892   7.841  0.1611  0.3997 -0.2356
  499MOL0     O67278   2.967   0.692   8.124 -0.1478 -0.5293 -0.0919
  499MOL0     C67279   3.027   0.696   7.804  0.1271 -0.0699  0.8724
  499MOL0     C67280   3.131   0.687   7.706 -0.2995 -0.1908  0.5208
  499MOL0     N67281   3.480   0.512   7.169  0.4464 -0.7920 -0.2565
  499MOL0     N67282   3.537   0.465   7.065 -0.7764  0.2101  0.1570
  499MOL0     C67283   4.358   1.034   6.802  0.7029  0.3989 -0.2985
  499MOL0     C67284   4.348   1.170   6.828  0.0042 -0.5066 -1.3896
  499MOL0     C67285   4.301   1.577   6.922  0.3552 -0.2892  0.2569
  499MOL0     C67286   4.301   1.606   7.057 -0.6129 -0.5807  1.0949
  499MOL0     C67287   4.330   1.725   7.105 -0.1022 -0.6105  0.0053
  499MOL0     C67288   4.342   1.838   7.021  0.5248 -0.2242  0.0656
  499MOL0     O67289   4.361   1.959   7.083  0.6017 -0.1462 -0.0644
  499MOL0     C67290   4.252   2.018   7.156  0.2105  0.1430  0.7720
  499MOL0     C67291   4.135   2.085   7.069 -0.4599 -0.2594 -0.2505
  499MOL0     C67292   4.033   1.997   7.018 -0.3106  0.1999 -0.3164
  499MOL0     C67293   3.975   2.033   6.892 -0.1694 -0.2635 -0.0315
  499MOL0     C67294   4.052   1.983   6.779  0.3284  0.3323 -0.3708
  499MOL0     C67295   4.117   1.933   6.693  1.2767 -0.4768 -0.0484
  499MOL0     C67296   4.356   1.811   6.890  0.1178 -0.2303 -0.0532
  499MOL0     C67297   4.339   1.683   6.838 -0.7977 -0.2051  0.2297
  499MOL0     H67298   4.091   1.168   7.033 -1.1233 -3.6768  0.6611
  499MOL0     H67299   4.112   0.926   7.003  0.1450 -0.1324  0.7045
  499MOL0     H67300   4.162   0.715   6.969  1.2331  1.4896 -0.4079
  499MOL0     H67301   4.120   0.695   6.807 -0.8795 -0.4529  0.7549
  499MOL0     H67302   4.333   0.565   6.744 -0.9823  2.1465  0.1276
  499MOL0     H67303   4.364   0.579   6.920  0.1978  1.7708 -0.1586
  499MOL0     H67304   4.181   0.424   6.767  3.7218 -0.1299 -0.2570
  499MOL0     H67305   4.266   0.367   6.913 -0.5377 -0.8686  1.0032
  499MOL0     H67306   4.101   0.497   7.058 -1.7905 -4.0570  1.8494
  499MOL0     H67307   4.013   0.539   6.910 -1.5681 -2.3689  1.3938
  499MOL0     H67308   4.009   0.273   6.869 -0.8542 -1.4801  1.1602
  499MOL0     H67309   4.073   0.268   7.027 -1.2009 -0.5109 -0.1153
  499MOL0     H67310   3.854   0.390   7.112 -0.9440  0.6349 -0.2176
  499MOL0     H67311   3.818   0.400   6.937 -2.4003 -2.3099 -0.5417
  499MOL0     H67312   3.818   0.127   6.957  0.7744  1.2628 -0.3284
  499MOL0     H67313   3.786   0.152   7.122  1.8746 -0.2040  0.0704
  499MOL0     H67314   3.581   0.143   7.007  4.3523 -0.9709 -2.1573
  499MOL0     H67315   3.608   0.269   6.892 -0.2810 -2.0013 -0.6156
  499MOL0     H67316   3.552   0.209   7.290 -0.7745 -0.7659 -1.2713
  499MOL0     H67317   3.324   0.457   7.410 -0.0936 -3.4417 -1.3911
  499MOL0     H67318   3.463   0.371   7.473 -1.0897 -0.0043  2.0737
  499MOL0     H67319   3.601   0.582   7.448  0.5133  1.6346 -2.7149
  499MOL0     H67320   3.482   0.572   7.576 -2.2206 -1.1915  0.4005
  499MOL0     H67321   3.439   0.717   7.303 -1.4282 -0.9868 -0.2443
  499MOL0     H67322   3.519   0.792   7.442  3.4736 -1.6696 -0.3980
  499MOL0     H67323   3.232   0.689   7.467  0.4825  0.2577 -0.7390
  499MOL0     H67324   3.279   0.856   7.430  0.4954  1.2748  0.2286
  499MOL0     H67325   3.352   0.904   7.838 -1.5121  1.0754 -0.1567
  499MOL0     H67326   3.125   0.944   8.123  0.5300  0.0414  0.4177
  499MOL0     H67327   3.282   0.849   8.111 -0.1942 -1.0627  0.1905
  499MOL0     H67328   3.253   1.002   8.035  0.7673 -0.8117  0.0848
  499MOL0     H67329   2.982   1.076   7.947 -0.1396  4.1246 -2.3596
  499MOL0     H67330   2.923   1.210   7.758  1.0446 -0.3277  1.6916
  499MOL0     H67331   2.567   1.057   7.487 -2.7017 -0.1473  1.8148
  499MOL0     H67332   2.528   1.218   7.549 -2.1096 -1.8780 -1.4720
  499MOL0     H67333   2.513   1.237   7.340  0.1370  0.4273 -1.6132
  499MOL0     H67334   2.665   1.323   7.369  1.0118 -0.0032  0.3179
  499MOL0     H67335   2.656   1.190   7.175 -0.3682  0.0822 -0.0292
  499MOL0     H67336   2.620   1.037   7.277  0.5141  0.0707  4.4967
  499MOL0     H67337   2.872   1.201   7.314  0.8828  1.1162  0.1477
  499MOL0     H67338   2.835   1.017   7.330  0.8933  1.4209  1.1053
  499MOL0     H67339   2.814   0.996   7.092 -1.1978  0.6274  2.3153
  499MOL0     H67340   2.970   1.018   7.160 -1.8550 -3.1291 -0.8140
  499MOL0     H67341   2.806   1.221   7.007  1.6657  1.8764 -0.6501
  499MOL0     H67342   2.957   1.260   7.083  0.3320 -1.9023  1.9422
  499MOL0     H67343   2.942   1.075   6.859  0.7717 -0.8216 -0.1015
  499MOL0     H67344   3.076   1.081   6.968  2.4832  1.2733 -2.5199
  499MOL0     H67345   3.114   1.232   6.776 -0.3899 -1.6309  0.1432
  499MOL0     H67346   3.093   1.329   6.921  0.4648 -0.0583 -0.7645
  499MOL0     H67347   2.604   0.933   7.662 -1.4390 -1.1879  1.4479
  499MOL0     H67348   2.674   0.797   7.864  0.2157 -0.0781 -1.9825
  499MOL0     H67349   2.939   0.633   7.789  0.2257 -0.2552  1.0598
  499MOL0     H67350   3.100   0.628   7.620 -2.0627  3.1770 -1.3673
  499MOL0     H67351   4.445   0.990   6.753  0.7833 -0.7073  0.7584
  499MOL0     H67352   4.411   1.246   6.783  0.1972  2.4864  3.2715
  499MOL0     H67353   4.281   1.538   7.139  1.3071 -1.3736  0.9682
  499MOL0     H67354   4.329   1.738   7.213  0.1084 -1.0870  0.0655
  499MOL0     H67355   4.210   1.938   7.219 -2.6515  0.7186 -0.2795
  499MOL0     H67356   4.300   2.090   7.223  2.3451  0.0628 -0.5743
  499MOL0     H67357   4.188   2.130   6.985 -0.8632 -2.3257 -1.6833
  499MOL0     H67358   4.075   2.150   7.133 -0.1501  1.3203 -1.5092
  499MOL0     H67359   3.947   1.992   7.085 -2.8817  0.1948 -3.4065
  499MOL0     H67360   4.071   1.894   7.017  1.0307  0.6792 -0.7299
  499MOL0     H67361   3.932   2.131   6.869 -2.1331 -0.8567  0.9744
  499MOL0     H67362   3.882   1.976   6.886 -0.3259 -0.2160  1.4846
  499MOL0     H67363   4.166   1.866   6.625  2.2599 -2.8626  2.7658
  499MOL0     H67364   4.377   1.896   6.825  5.6973 -1.2447 -0.0552
  499MOL0     H67365   4.344   1.680   6.730  0.9059  3.9300  0.0071
  500MOL0     O67366   5.351   7.589   0.196  0.0867 -0.4326 -0.4942
  500MOL0     C67367   5.248   7.636   0.244 -0.3362 -0.2830 -0.2002
  500MOL0     O67368   5.205   7.760   0.223 -0.2764  0.6302 -0.5844
  500MOL0     C67369   5.254   7.848   0.133  0.5558 -0.5673  0.6015
  500MOL0     C67370   5.278   7.814  -0.006  0.3267 -0.1400  2.0018
  500MOL0     C67371   5.347   7.902  -0.090  0.0636 -1.8256 -0.2458
  500MOL0     C67372   5.372   8.035  -0.052 -0.1473  1.0656 -0.0685
  500MOL0     O67373   5.422   8.113  -0.150 -0.4916  0.3227 -0.0668
  500MOL0     C67374   5.494   8.238  -0.110  0.6533  0.3271 -0.2914
  500MOL0     C67375   5.606   8.279  -0.195 -0.3030  1.1036 -0.0249
  500MOL0     C67376   5.668   8.411  -0.166 -0.3835  0.3851 -0.5043
  500MOL0     C67377   5.601   8.519  -0.232  0.2496  0.5792  0.2506
  500MOL0     C67378   5.673   8.594  -0.355 -0.7556  0.8229  0.3786
  500MOL0     C67379   5.609   8.729  -0.399 -0.7675  0.3400  0.1389
  500MOL0     C67380   5.670   8.774  -0.532 -0.4628 -0.1037  0.0019
  500MOL0     C67381   5.574   8.870  -0.610  0.0388  0.2923  0.5021
  500MOL0     N67382   5.650   8.956  -0.701  0.4211 -0.2750 -0.7345
  500MOL0     C67383   5.730   8.900  -0.795  0.0719 -0.6140  0.7838
  500MOL0     C67384   5.772   8.995  -0.883 -0.1629 -0.2864  0.0905
  500MOL0     C67385   5.878   8.996  -0.989  1.0915  0.3208  0.8678
  500MOL0     C67386   5.835   9.076  -1.119  0.1575 -0.1469 -0.1518
  500MOL0     C67387   5.771   8.982  -1.214  1.2446  0.4328  0.0746
  500MOL0     C67388   5.615   8.973  -1.187  0.8457  0.2252  0.3811
  500MOL0     O67389   5.570   8.860  -1.118 -0.3892  0.3272 -0.0637
  500MOL0     C67390   5.444   8.870  -1.064  0.1806 -0.1933 -0.4477
  500MOL0     C67391   5.365   8.988  -1.073  0.9239  0.1240  0.1703
  500MOL0     C67392   5.234   8.981  -1.020  0.6629  0.8849  0.4051
  500MOL0     C67393   5.157   9.109  -1.029 -0.0906  0.0873 -0.8348
  500MOL0     C67394   5.188   8.875  -0.938 -0.3750 -0.2453  0.5106
  500MOL0     C67395   5.048   8.845  -0.887 -0.1630  0.0135 -0.2859
  500MOL0     O67396   5.021   8.732  -0.819  0.3561 -0.1735  0.9065
  500MOL0     C67397   4.891   8.718  -0.777 -0.1649 -0.6984 -0.5740
  500MOL0     C67398   4.856   8.769  -0.646  0.3708 -0.2597  0.0675
  500MOL0     C67399   4.722   8.782  -0.612  0.9669  0.6073  0.7008
  500MOL0     C67400   4.627   8.736  -0.706  0.4627  0.3679  0.4203
  500MOL0     O67401   4.494   8.755  -0.664 -0.2449  0.1344 -0.1205
  500MOL0     C67402   4.385   8.691  -0.732 -0.5449  0.4548 -0.1361
  500MOL0     C67403   4.250   8.750  -0.682 -0.5190 -0.0447 -0.2089
  500MOL0     C67404   4.221   8.695  -0.544 -0.1043 -0.6711 -0.3055
  500MOL0     C67405   4.113   8.767  -0.466 -0.0595 -0.7152  0.2431
  500MOL0     C67406   4.156   8.904  -0.405 -0.0904  0.3725 -0.5698
  500MOL0     C67407   4.218   8.900  -0.266  1.0177  0.0170 -0.2771
  500MOL0     C67408   4.246   9.047  -0.221 -0.8286  0.1929  0.5357
  500MOL0     C67409   4.131   9.111  -0.136  0.6010  0.2916  0.2163
  500MOL0    Cl67410   4.153   9.286  -0.174  0.3036 -0.1813  0.6440
  500MOL0     C67411   4.662   8.681  -0.826 -0.7251  0.8132  0.8666
  500MOL0     C67412   4.794   8.677  -0.865  0.8346  0.5081  0.7521
  500MOL0     O67413   4.965   8.935  -0.912 -0.0862 -0.3646 -0.1075
  500MOL0     C67414   5.281   8.774  -0.918 -0.7559 -0.3148  0.3117
  500MOL0     C67415   5.405   8.763  -0.982 -0.6312 -0.3720  0.0370
  500MOL0     N67416   5.714   9.115  -0.835  0.5634 -0.8213 -0.0584
  500MOL0     N67417   5.652   9.088  -0.720  0.0927 -0.5239 -0.3105
  500MOL0     C67418   5.335   8.074   0.081  0.0083  0.2172  0.2782
  500MOL0     C67419   5.287   7.979   0.176 -0.1561  0.6565 -0.7122
  500MOL0     C67420   5.153   7.553   0.321 -0.2354  0.5079  0.8835
  500MOL0     C67421   5.024   7.595   0.359  0.0956 -0.0458 -0.2286
  500MOL0     C67422   4.934   7.519   0.434 -0.0988 -0.7821 -0.1093
  500MOL0     C67423   4.978   7.400   0.480 -0.3780  0.1352 -0.1208
  500MOL0     O67424   4.923   7.342   0.585  0.3492 -0.2445  0.0874
  500MOL0     C67425   4.788   7.313   0.557 -0.3454 -0.3024 -1.0513
  500MOL0     C67426   4.715   7.367   0.685 -0.5558  0.2563 -0.2431
  500MOL0     C67427   4.556   7.366   0.675  0.0520  0.0833 -0.3049
  500MOL0     C67428   4.501   7.432   0.800  0.0870 -0.2173 -1.2136
  500MOL0     C67429   4.351   7.445   0.775  0.1446 -0.5005  0.1597
  500MOL0     C67430   4.234   7.486   0.756  0.0244  0.0820 -0.0107
  500MOL0     C67431   5.100   7.346   0.439  0.1183 -0.3596  0.7472
  500MOL0     C67432   5.186   7.417   0.356  0.0415 -0.7610  0.0364
  500MOL0     H67433   5.261   7.713  -0.040  0.1703 -0.8510  4.0605
  500MOL0     H67434   5.366   7.872  -0.193  3.9138 -1.3336  0.1784
  500MOL0     H67435   5.424   8.322  -0.107 -0.8258 -0.7067  5.5976
  500MOL0     H67436   5.525   8.230  -0.005 -2.1751 -0.5523  0.5558
  500MOL0     H67437   5.675   8.195  -0.180 -0.2611  0.8150 -1.5764
  500MOL0     H67438   5.574   8.282  -0.300 -1.5077 -0.1886  0.2824
  500MOL0     H67439   5.670   8.435  -0.059 -0.1420  3.1322 -1.0384
  500MOL0     H67440   5.770   8.411  -0.206 -1.1709 -0.1748 -2.5972
  500MOL0     H67441   5.507   8.484  -0.275  0.3393 -0.0304  0.5378
  500MOL0     H67442   5.580   8.592  -0.154  2.1881  2.3059 -0.7273
  500MOL0     H67443   5.775   8.618  -0.326  0.9575 -2.8757 -1.8645
  500MOL0     H67444   5.671   8.528  -0.442 -2.4302  0.4686  0.6390
  500MOL0     H67445   5.506   8.697  -0.417 -0.3434 -0.7604 -0.4562
  500MOL0     H67446   5.615   8.803  -0.318  3.0613 -1.1210  1.4245
  500MOL0     H67447   5.764   8.823  -0.505  2.4120 -5.3520  0.7135
  500MOL0     H67448   5.691   8.702  -0.611 -1.3919  1.3171 -1.6081
  500MOL0     H67449   5.514   8.930  -0.540  0.2798  2.6886 -1.2068
  500MOL0     H67450   5.515   8.797  -0.666 -0.6913  0.7060  0.7211
  500MOL0     H67451   5.761   8.798  -0.816  0.0517 -1.1393  2.9852
  500MOL0     H67452   5.971   9.036  -0.948  1.0273  0.4489  0.8908
  500MOL0     H67453   5.905   8.892  -1.011 -1.0089  0.5860 -4.4533
  500MOL0     H67454   5.911   9.119  -1.185 -1.0315 -0.8436 -2.0395
  500MOL0     H67455   5.774   9.158  -1.079  2.5099  0.5363  2.3251
  500MOL0     H67456   5.812   8.880  -1.221  0.0792 -0.0772  0.3458
  500MOL0     H67457   5.786   9.027  -1.312 -1.0940  0.5694 -0.2758
  500MOL0     H67458   5.562   8.974  -1.282  2.4884 -1.0657 -0.5961
  500MOL0     H67459   5.589   9.056  -1.120  1.0625 -0.7989  1.7971
  500MOL0     H67460   5.392   9.077  -1.128  2.0532 -0.9762 -1.1565
  500MOL0     H67461   5.208   9.200  -1.061  2.5073 -0.6248  0.9299
  500MOL0     H67462   5.074   9.098  -1.100  1.8446 -1.2898 -3.0756
  500MOL0     H67463   5.113   9.139  -0.934 -0.9083 -0.7955 -0.9220
  500MOL0     H67464   4.928   8.800  -0.571 -3.5972  3.9214  2.6827
  500MOL0     H67465   4.695   8.821  -0.514  1.0188 -1.0065  1.4029
  500MOL0     H67466   4.391   8.729  -0.834 -0.2273  1.5031  0.2659
  500MOL0     H67467   4.392   8.582  -0.718  0.5975  0.5386  0.0863
  500MOL0     H67468   4.253   8.859  -0.668  0.4750  0.0660 -1.1574
  500MOL0     H67469   4.167   8.717  -0.744 -0.7981 -1.5315  0.8903
  500MOL0     H67470   4.310   8.703  -0.481  0.7237 -0.4998 -1.4703
  500MOL0     H67471   4.195   8.589  -0.551 -1.9750 -0.1785 -1.6109
  500MOL0     H67472   4.027   8.774  -0.533  2.5630 -0.9340 -3.5009
  500MOL0     H67473   4.086   8.697  -0.387 -0.7735 -0.0555  0.5975
  500MOL0     H67474   4.070   8.971  -0.407 -2.9371 -2.9330  0.9356
  500MOL0     H67475   4.234   8.944  -0.471 -0.5701  0.2904 -1.1999
  500MOL0     H67476   4.140   8.857  -0.202  1.9599  0.4475  1.2242
  500MOL0     H67477   4.304   8.833  -0.271  1.1391  0.2680 -2.1623
  500MOL0     H67478   4.270   9.109  -0.308 -6.3363  1.0826 -0.6963
  500MOL0     H67479   4.331   9.070  -0.157 -2.5789  3.8819  1.8286
  500MOL0     H67480   4.130   9.087  -0.029 -0.3669  0.8808  0.3452
  500MOL0     H67481   4.037   9.077  -0.178  1.6668 -2.6194 -0.0427
  500MOL0     H67482   4.588   8.638  -0.893  1.2960 -1.3806 -0.1324
  500MOL0     H67483   4.823   8.637  -0.962  0.8273  0.3781  0.8035
  500MOL0     H67484   5.271   8.704  -0.836  1.3373 -2.0889 -0.8581
  500MOL0     H67485   5.465   8.674  -0.970 -0.2357  0.1397  2.4444
  500MOL0     H67486   5.356   8.180   0.090 -2.8731  1.3285 -3.4650
  500MOL0     H67487   5.259   8.000   0.279 -1.3279 -1.1528 -0.6288
  500MOL0     H67488   4.984   7.695   0.346  0.4910  0.1825  0.2826
  500MOL0     H67489   4.842   7.556   0.479  1.9785  1.9076  2.2721
  500MOL0     H67490   4.740   7.357   0.469  1.0620  3.1866 -0.2664
  500MOL0     H67491   4.777   7.205   0.554 -0.2118 -0.3574 -0.0364
  500MOL0     H67492   4.743   7.470   0.710  0.8896 -0.0383 -0.5635
  500MOL0     H67493   4.755   7.305   0.766 -3.1329 -2.8241 -1.1494
  500MOL0     H67494   4.512   7.267   0.658 -2.4417  1.0668 -0.0166
  500MOL0     H67495   4.528   7.412   0.580 -0.9955 -1.1348 -0.6127
  500MOL0     H67496   4.548   7.525   0.832  2.3425 -1.6240 -0.1903
  500MOL0     H67497   4.509   7.366   0.887  1.8083  0.3612 -0.8858
  500MOL0     H67498   4.135   7.525   0.748  0.1085  0.8964  2.2334
  500MOL0     H67499   5.126   7.246   0.472  3.2528  0.1336  0.0318
  500MOL0     H67500   5.279   7.384   0.312 -1.2045 -0.4736 -3.0577
  501MOL0     O67501   6.530  10.160   6.784 -0.7384 -0.5652 -0.6395
  501MOL0     C67502   6.512  10.040   6.809  0.5429 -0.0366 -1.2698
  501MOL0     O67503   6.436   9.984   6.916  0.3225 -0.9670  0.0011
  501MOL0     C67504   6.382  10.070   7.017 -0.5622 -0.2306  0.6620
  501MOL0     C67505   6.457  10.177   7.068  0.0089 -0.0205 -0.9423
  501MOL0     C67506   6.406  10.265   7.162 -1.5508  0.0261  0.8364
  501MOL0     C67507   6.280  10.228   7.216  0.6415  0.1603 -0.3925
  501MOL0     O67508   6.231  10.304   7.325  0.1807  0.1938 -0.2729
  501MOL0     C67509   6.090  10.357   7.318 -0.3732  0.4566  0.4358
  501MOL0     C67510   6.068  10.474   7.415 -0.5803  0.8875  0.0738
  501MOL0     C67511   6.081  10.426   7.570 -0.8713  0.9664 -0.2819
  501MOL0     C67512   6.110  10.556   7.653 -0.6349 -0.2661  0.1887
  501MOL0     C67513   6.171  10.526   7.793 -0.1621  0.1866 -0.0817
  501MOL0     C67514   6.219  10.652   7.857  0.0627 -0.5695 -0.6825
  501MOL0     C67515   6.281  10.612   7.994 -1.3954  0.3391 -0.0427
  501MOL0     C67516   6.232  10.716   8.105 -0.4275 -1.4943  0.2861
  501MOL0     N67517   6.092  10.724   8.132  0.5059  0.2488  0.6361
  501MOL0     C67518   6.020  10.838   8.139 -0.0484  0.8360  0.8433
  501MOL0     C67519   5.898  10.798   8.182  0.2136  0.7675 -1.0455
  501MOL0     C67520   5.775  10.881   8.186  0.7966 -0.3217 -0.6447
  501MOL0     C67521   5.785  10.982   8.296 -0.0083  0.1072 -0.3027
  501MOL0     C67522   5.646  11.035   8.328  0.2608 -0.0283  0.7797
  501MOL0     C67523   5.553  10.964   8.424 -0.2895  0.3287  0.2027
  501MOL0     O67524   5.500  10.829   8.400  0.3810  0.9703  0.3994
  501MOL0     C67525   5.467  10.757   8.512  0.4827 -0.5076  0.2366
  501MOL0     C67526   5.334  10.756   8.569 -0.2659  0.3020  0.7960
  501MOL0     C67527   5.323  10.689   8.694 -0.2031 -0.3204 -0.5043
  501MOL0     C67528   5.188  10.692   8.762  1.1833  0.4100 -0.3596
  501MOL0     C67529   5.433  10.635   8.764  1.0761 -0.1117 -0.3671
  501MOL0     C67530   5.426  10.572   8.894 -0.2010 -0.4161 -0.1115
  501MOL0     O67531   5.377  10.648   8.996  0.4433 -0.3839 -0.4476
  501MOL0     C67532   5.322  10.581   9.107 -0.4593 -0.0321  0.4134
  501MOL0     C67533   5.357  10.628   9.230 -0.5420  0.8895  0.9636
  501MOL0     C67534   5.278  10.602   9.342  0.5212  0.2445 -0.2995
  501MOL0     C67535   5.178  10.503   9.335 -0.1060  0.2559 -0.0296
  501MOL0     O67536   5.104  10.465   9.448  0.3410 -0.4851 -0.8424
  501MOL0     C67537   5.171  10.420   9.564 -0.6272 -0.8235 -0.0277
  501MOL0     C67538   5.222  10.279   9.566 -0.1588  0.3213  0.2673
  501MOL0     C67539   5.098  10.188   9.568 -0.1183 -0.0764 -0.1317
  501MOL0     C67540   5.017  10.212   9.695  0.6917  0.1710  0.2485
  501MOL0     C67541   5.108  10.203   9.818  0.1330 -0.7463 -0.2446
  501MOL0     C67542   5.043  10.181   9.955  0.0132  0.3384  0.1710
  501MOL0     C67543   5.147  10.159  10.063  0.6468 -0.5635 -0.7713
  501MOL0     C67544   5.097  10.162  10.202  0.0322 -0.1312 -0.5664
  501MOL0    Cl67545   5.231  10.148  10.315  0.2036  0.7394  0.2481
  501MOL0     C67546   5.150  10.444   9.210 -0.7371 -0.4672 -0.8102
  501MOL0     C67547   5.219  10.484   9.096 -1.2014  0.8327 -0.5423
  501MOL0     O67548   5.490  10.464   8.913  0.8999 -0.5040 -0.1794
  501MOL0     C67549   5.560  10.631   8.698  0.6460  0.1025  0.2760
  501MOL0     C67550   5.571  10.690   8.573 -0.5905  0.2424  1.0264
  501MOL0     N67551   5.903  10.662   8.220  0.2518  0.0977 -0.0551
  501MOL0     N67552   6.022  10.620   8.196  0.1471  0.5324 -0.2263
  501MOL0     C67553   6.201  10.121   7.160  0.1924 -0.2246 -1.0671
  501MOL0     C67554   6.259  10.046   7.056  0.2646  0.1367 -0.2998
  501MOL0     C67555   6.584   9.949   6.719 -0.3119 -1.2183  0.0624
  501MOL0     C67556   6.640  10.002   6.600  0.3770 -0.7899  0.8850
  501MOL0     C67557   6.688   9.909   6.506  0.3650  0.0478  0.1094
  501MOL0     C67558   6.701   9.768   6.530  0.3161 -0.5434 -0.4100
  501MOL0     O67559   6.766   9.678   6.458 -0.0102 -0.3918  0.1953
  501MOL0     C67560   6.815   9.724   6.325  1.1335  0.4013 -0.9429
  501MOL0     C67561   6.887   9.624   6.232  0.9024 -0.2760  0.5300
  501MOL0     C67562   6.771   9.571   6.136  0.3095 -0.1702  0.1792
  501MOL0     C67563   6.812   9.450   6.041 -0.5534  0.1187 -0.3730
  501MOL0     C67564   6.898   9.504   5.935 -0.4147  0.5027  0.0526
  501MOL0     C67565   6.966   9.533   5.835  0.0613  0.5926 -0.6773
  501MOL0     C67566   6.643   9.723   6.644  0.5288 -0.3679  0.8073
  501MOL0     C67567   6.599   9.808   6.745  0.2446 -0.9896  0.7448
  501MOL0     H67568   6.546  10.207   7.013 -1.5894  1.9067 -2.6556
  501MOL0     H67569   6.466  10.350   7.193  0.2520  1.2240 -4.8240
  501MOL0     H67570   6.053  10.374   7.216  0.4942  2.7109  0.4329
  501MOL0     H67571   6.024  10.281   7.360 -2.8099  1.0127 -2.0747
  501MOL0     H67572   6.154  10.536   7.389 -0.7650  0.9545 -0.3851
  501MOL0     H67573   5.970  10.516   7.392 -1.9403 -1.4058  1.3258
  501MOL0     H67574   5.993  10.370   7.602 -0.3265  1.6890  2.7750
  501MOL0     H67575   6.171  10.363   7.569 -0.0810  2.0588 -0.2697
  501MOL0     H67576   6.184  10.609   7.592  0.7315 -3.9510 -1.6298
  501MOL0     H67577   6.024  10.621   7.671 -1.3547 -1.2207  0.2258
  501MOL0     H67578   6.096  10.470   7.851  0.1732 -0.8227 -0.6049
  501MOL0     H67579   6.255  10.457   7.785 -1.9059 -2.0204 -0.1909
  501MOL0     H67580   6.290  10.709   7.797 -1.6029  1.7866 -0.5632
  501MOL0     H67581   6.132  10.708   7.891 -0.5635 -1.1965 -1.2150
  501MOL0     H67582   6.246  10.513   8.025 -2.0096  1.0242  1.5624
  501MOL0     H67583   6.390  10.616   7.981 -1.4197 -2.1610 -1.6436
  501MOL0     H67584   6.267  10.812   8.068  1.7978 -2.0824  0.6835
  501MOL0     H67585   6.293  10.703   8.196  2.9290  1.6733 -1.2502
  501MOL0     H67586   6.041  10.940   8.107 -4.9944  1.6913 -0.4732
  501MOL0     H67587   5.745  10.932   8.095 -2.1641  1.7631  1.3041
  501MOL0     H67588   5.696  10.810   8.214  1.1121  0.7261  3.7164
  501MOL0     H67589   5.850  11.062   8.260  1.4711 -0.5273  0.8372
  501MOL0     H67590   5.825  10.942   8.390  2.1495  1.3915 -0.6027
  501MOL0     H67591   5.600  11.063   8.233  1.3577 -0.8613 -0.0218
  501MOL0     H67592   5.654  11.125   8.390 -0.2286 -0.1325  0.9988
  501MOL0     H67593   5.469  11.030   8.443 -0.7813 -0.7083  1.7965
  501MOL0     H67594   5.613  10.959   8.515  2.3247 -1.6597 -1.4674
  501MOL0     H67595   5.263  10.823   8.521  2.3437  3.1272  0.5804
  501MOL0     H67596   5.188  10.598   8.819  0.2497 -0.5357 -1.8498
  501MOL0     H67597   5.159  10.774   8.828 -2.9635 -0.2144 -1.1187
  501MOL0     H67598   5.104  10.673   8.695 -1.3569  3.2241  1.7744
  501MOL0     H67599   5.433  10.706   9.233  1.5333 -1.0452  1.8457
  501MOL0     H67600   5.311  10.638   9.438  2.7899  1.3286 -1.4214
  501MOL0     H67601   5.263  10.477   9.580  0.1168 -2.7117  3.3619
  501MOL0     H67602   5.115  10.443   9.655 -1.8213  1.5434 -1.2541
  501MOL0     H67603   5.274  10.263   9.471 -4.1398  1.5120 -2.3808
  501MOL0     H67604   5.290  10.246   9.645  0.2166  0.2140 -0.0944
  501MOL0     H67605   5.130  10.083   9.562  4.7676  0.9430  2.4930
  501MOL0     H67606   5.029  10.208   9.486 -0.6564  0.0172  0.3430
  501MOL0     H67607   4.969  10.311   9.696  0.0625 -0.0951 -1.0975
  501MOL0     H67608   4.945  10.132   9.710 -0.1911  0.4665 -1.9731
  501MOL0     H67609   5.167  10.295   9.823 -1.1203  0.0107  1.3690
  501MOL0     H67610   5.166  10.113   9.798 -0.1363  0.0148 -6.8040
  501MOL0     H67611   4.979  10.269   9.964 -1.0847 -0.4271  0.1004
  501MOL0     H67612   4.981  10.091   9.948  0.8964 -0.3962  1.3510
  501MOL0     H67613   5.230  10.229  10.054 -1.2367  1.7081 -1.7222
  501MOL0     H67614   5.200  10.066  10.043 -1.0654 -1.0905 -3.5085
  501MOL0     H67615   5.038  10.071  10.217 -0.1414 -0.1458 -1.2735
  501MOL0     H67616   5.044  10.254  10.227  0.9028 -0.3544  2.5353
  501MOL0     H67617   5.067  10.373   9.210 -1.2693  0.1409  0.0106
  501MOL0     H67618   5.174  10.456   9.001 -1.2275  1.1412 -0.6218
  501MOL0     H67619   5.649  10.580   8.732  1.3405 -0.1534 -1.7700
  501MOL0     H67620   5.664  10.692   8.518 -1.8716  0.0579 -1.2335
  501MOL0     H67621   6.111  10.096   7.215  0.6538 -1.7351 -0.9631
  501MOL0     H67622   6.212   9.955   7.018  1.1709 -0.1671 -0.7361
  501MOL0     H67623   6.635  10.108   6.575  2.1711 -1.6093 -4.1304
  501MOL0     H67624   6.713   9.958   6.412  1.2394 -1.9382 -0.7505
  501MOL0     H67625   6.728   9.765   6.272 -3.2940 -5.3889  0.8144
  501MOL0     H67626   6.881   9.810   6.338  2.0674 -0.4033 -0.1911
  501MOL0     H67627   6.922   9.535   6.286 -0.9996 -1.3123  0.1749
  501MOL0     H67628   6.956   9.672   6.163 -0.1910  0.1615 -0.2854
  501MOL0     H67629   6.739   9.659   6.080  2.8328  0.8442  0.1968
  501MOL0     H67630   6.694   9.528   6.201 -1.6768  0.5877 -1.5641
  501MOL0     H67631   6.733   9.391   5.993  1.6471  0.6458 -5.2786
  501MOL0     H67632   6.869   9.378   6.100  0.7454  1.4173  0.0218
  501MOL0     H67633   7.044   9.555   5.764  2.2538 -2.3698  0.5742
  501MOL0     H67634   6.627   9.617   6.659 -1.3950 -0.1308  0.6379
  501MOL0     H67635   6.549   9.757   6.827 -0.7109 -0.6478  0.3849
  502MOL0     O67636   9.688   6.361   2.892  0.6806 -0.5850 -0.4303
  502MOL0     C67637   9.612   6.453   2.860 -0.8922  0.4566 -0.6694
  502MOL0     O67638   9.501   6.440   2.788  0.5708 -0.5077  0.8909
  502MOL0     C67639   9.476   6.315   2.732  0.3477  0.4367 -0.3105
  502MOL0     C67640   9.363   6.242   2.766  0.5013 -0.2297 -0.4104
  502MOL0     C67641   9.339   6.115   2.705  0.6481 -0.1540  0.8828
  502MOL0     C67642   9.441   6.060   2.618  0.0127 -0.6143  0.1881
  502MOL0     O67643   9.423   5.940   2.551 -0.6445 -0.4347 -0.3047
  502MOL0     C67644   9.530   5.873   2.502 -0.5281  0.0338  0.0620
  502MOL0     C67645   9.486   5.739   2.444 -0.0649  0.3323 -0.4469
  502MOL0     C67646   9.592   5.650   2.372 -0.2199 -0.2210  0.2875
  502MOL0     C67647   9.735   5.625   2.428 -0.2977  0.1994 -0.0304
  502MOL0     C67648   9.801   5.494   2.372  0.7637 -0.5639 -0.0773
  502MOL0     C67649   9.895   5.523   2.266  0.0967 -0.0137 -0.0710
  502MOL0     C67650   9.950   5.412   2.185  0.7601  0.1045  0.8311
  502MOL0     C67651   9.835   5.332   2.122  0.4034 -0.0263 -0.2975
  502MOL0     N67652   9.893   5.242   2.030 -0.3711  0.7567  0.0796
  502MOL0     C67653   9.962   5.123   2.062  0.4577 -0.0438  0.1662
  502MOL0     C67654  10.018   5.082   1.943 -0.2314 -0.1402  0.1003
  502MOL0     C67655  10.112   4.969   1.916  0.3366 -0.2069 -0.4377
  502MOL0     C67656  10.198   4.931   2.040 -1.0149 -0.0759  0.5815
  502MOL0     C67657  10.319   5.032   2.046 -0.1184 -0.5578 -0.0895
  502MOL0     C67658  10.439   4.985   1.984  1.1181 -0.2416  0.1125
  502MOL0     O67659  10.431   4.991   1.842  0.4268 -0.1049  0.4717
  502MOL0     C67660  10.541   4.959   1.772  0.9847  0.3350 -0.3992
  502MOL0     C67661  10.665   4.908   1.828  0.0073  0.0069  0.2414
  502MOL0     C67662  10.761   4.871   1.735 -1.0075  0.3108 -0.2399
  502MOL0     C67663  10.888   4.814   1.814 -0.8963 -0.7478 -0.4724
  502MOL0     C67664  10.756   4.893   1.598  1.0013 -0.6560  0.3127
  502MOL0     C67665  10.859   4.846   1.501 -0.3302  0.6989 -0.4281
  502MOL0     O67666  10.892   4.940   1.414  0.6430 -0.2041 -0.1881
  502MOL0     C67667  10.978   4.905   1.316  0.6568  0.8814 -0.6480
  502MOL0     C67668  10.931   4.882   1.197  0.1698 -0.0073  0.0578
  502MOL0     C67669  11.019   4.853   1.089  0.3085  0.3925  0.0237
  502MOL0     C67670  11.157   4.847   1.108 -0.3185 -0.2314  0.8833
  502MOL0     O67671  11.228   4.821   0.989  0.5879  0.4240 -0.2929
  502MOL0     C67672  11.374   4.780   0.995  0.8572  0.9995  0.5049
  502MOL0     C67673  11.439   4.815   0.868  0.7844 -0.3151 -0.6092
  502MOL0     C67674  11.568   4.738   0.852  0.1333 -0.3293  0.5815
  502MOL0     C67675  11.549   4.602   0.799 -0.3824  0.9773  0.0828
  502MOL0     C67676  11.606   4.498   0.905  0.1227 -0.0053 -0.6012
  502MOL0     C67677  11.607   4.355   0.853  0.1532 -0.3400  0.2629
  502MOL0     C67678  11.665   4.281   0.969 -0.4232  0.0715 -0.2767
  502MOL0     C67679  11.679   4.136   0.928 -0.1898 -0.6770 -0.0322
  502MOL0    Cl67680  11.827   4.130   0.832  0.0676  0.4952  0.5665
  502MOL0     C67681  11.202   4.857   1.237  0.3545  0.0083  0.0809
  502MOL0     C67682  11.110   4.891   1.337  0.0841  0.4436  0.1122
  502MOL0     O67683  10.912   4.740   1.518  0.2220 -0.8228 -0.0665
  502MOL0     C67684  10.632   4.945   1.550  0.5671  0.8480 -0.5241
  502MOL0     C67685  10.529   4.975   1.634  0.2057 -0.4242  0.0336
  502MOL0     N67686   9.958   5.152   1.839  0.5321 -0.3346  0.0456
  502MOL0     N67687   9.888   5.246   1.891 -0.5424 -0.4471  0.3272
  502MOL0     C67688   9.544   6.148   2.581 -0.4364 -0.3098  0.9633
  502MOL0     C67689   9.553   6.274   2.631 -0.0817  0.8418  0.9322
  502MOL0     C67690   9.619   6.584   2.927 -0.0055 -0.1428 -0.5316
  502MOL0     C67691   9.565   6.695   2.868  1.3266 -0.5800 -0.4397
  502MOL0     C67692   9.549   6.813   2.941  0.2106 -0.3439  0.0162
  502MOL0     C67693   9.624   6.835   3.056 -1.5394  0.1316 -0.0090
  502MOL0     O67694   9.621   6.971   3.092  0.2042  0.3421 -0.1650
  502MOL0     C67695   9.688   6.993   3.214  1.1451  0.0844 -0.4411
  502MOL0     C67696   9.645   7.125   3.270 -0.7190  0.1821  0.2297
  502MOL0     C67697   9.720   7.177   3.398 -0.8450  0.6344  1.0740
  502MOL0     C67698   9.648   7.308   3.437  0.7541  0.1158 -0.8690
  502MOL0     C67699   9.671   7.412   3.347 -0.4485  0.0530 -0.1452
  502MOL0     C67700   9.694   7.492   3.256  0.8078 -0.9869  0.2700
  502MOL0     C67701   9.699   6.728   3.111  0.7274 -0.1792 -0.4235
  502MOL0     C67702   9.691   6.602   3.052 -0.6982  0.0483  1.2502
  502MOL0     H67703   9.287   6.275   2.835 -1.2987  1.2792 -2.9577
  502MOL0     H67704   9.253   6.054   2.730  1.5151 -1.8907 -0.2105
  502MOL0     H67705   9.581   5.936   2.428  1.2883  0.5365  1.6787
  502MOL0     H67706   9.595   5.847   2.586  0.2412 -1.2184 -0.8851
  502MOL0     H67707   9.434   5.689   2.526 -2.6453  2.3659 -0.7158
  502MOL0     H67708   9.407   5.769   2.374 -2.4146 -0.2098  1.7950
  502MOL0     H67709   9.547   5.551   2.360 -0.3627  0.0520 -1.8156
  502MOL0     H67710   9.613   5.677   2.268 -0.5152 -0.8529  0.0599
  502MOL0     H67711   9.801   5.712   2.428 -1.0586  0.8347  2.1185
  502MOL0     H67712   9.716   5.603   2.533 -2.9005  2.4561  0.1045
  502MOL0     H67713   9.863   5.443   2.446 -0.4850  1.8723  2.8869
  502MOL0     H67714   9.729   5.425   2.327 -0.7445  0.6962  0.2939
  502MOL0     H67715   9.833   5.584   2.199 -1.4386 -1.2004  0.2210
  502MOL0     H67716   9.973   5.593   2.297  1.3238 -0.8812 -1.0879
  502MOL0     H67717  10.016   5.454   2.109 -2.2644  1.0997 -1.4884
  502MOL0     H67718  10.008   5.342   2.246  1.7685 -2.1315 -2.4441
  502MOL0     H67719   9.760   5.396   2.075 -0.3493 -1.6113 -1.3734
  502MOL0     H67720   9.773   5.266   2.185 -0.4096 -1.0484 -2.0956
  502MOL0     H67721   9.988   5.081   2.158  0.5693  0.3343  0.3020
  502MOL0     H67722  10.054   4.883   1.880  0.8738 -0.0811 -1.6820
  502MOL0     H67723  10.174   5.001   1.831  0.7478  5.0694  1.4673
  502MOL0     H67724  10.234   4.830   2.019  1.3211  0.7665  0.1739
  502MOL0     H67725  10.139   4.937   2.132  2.0957 -1.6327  2.8723
  502MOL0     H67726  10.340   5.040   2.153 -2.2321  0.8939  0.2810
  502MOL0     H67727  10.291   5.126   1.999  2.4184 -0.2840 -1.1901
  502MOL0     H67728  10.456   4.879   2.005  0.7496 -0.5970 -1.3221
  502MOL0     H67729  10.530   5.032   2.024  0.5302  2.3425 -1.3986
  502MOL0     H67730  10.688   4.900   1.934  0.4567 -2.6134  0.0011
  502MOL0     H67731  10.936   4.904   1.854 -0.3225  1.5996 -5.5746
  502MOL0     H67732  10.862   4.746   1.895 -1.3817 -3.2978 -2.6191
  502MOL0     H67733  10.970   4.759   1.767  0.5814 -1.2807  2.5001
  502MOL0     H67734  10.823   4.869   1.202  0.3526 -1.6321  0.2715
  502MOL0     H67735  10.989   4.825   0.989 -0.8605 -2.6778  1.1141
  502MOL0     H67736  11.415   4.844   1.074  1.1207  1.8376 -0.2976
  502MOL0     H67737  11.382   4.672   1.013 -0.3606  0.9975  1.1871
  502MOL0     H67738  11.371   4.794   0.786 -1.3785  0.9493  0.7625
  502MOL0     H67739  11.448   4.924   0.873 -1.1294 -0.1764  1.0210
  502MOL0     H67740  11.627   4.737   0.944  0.9712  0.3406  0.0662
  502MOL0     H67741  11.634   4.789   0.780 -0.1222 -0.8852 -0.0618
  502MOL0     H67742  11.443   4.580   0.785 -0.8429  3.2652 -0.5398
  502MOL0     H67743  11.594   4.592   0.700 -0.2869 -2.3174  0.3441
  502MOL0     H67744  11.545   4.498   0.996 -0.1639 -1.6879 -0.7594
  502MOL0     H67745  11.705   4.533   0.936  0.1280  0.2635 -0.9134
  502MOL0     H67746  11.501   4.337   0.835 -0.0930 -0.8327  2.0320
  502MOL0     H67747  11.643   4.345   0.750 -0.8822  0.4716 -0.1907
  502MOL0     H67748  11.594   4.288   1.052 -0.1219  3.9010 -0.1514
  502MOL0     H67749  11.760   4.325   1.001 -0.1325 -0.8415  0.1392
  502MOL0     H67750  11.592   4.103   0.870  0.6159 -2.4988 -0.2803
  502MOL0     H67751  11.680   4.078   1.021 -2.1632  2.3477  2.0723
  502MOL0     H67752  11.307   4.844   1.259  0.7689  3.4327  0.6847
  502MOL0     H67753  11.153   4.909   1.435 -0.5643  1.1333  0.2763
  502MOL0     H67754  10.599   4.968   1.449 -1.6869  3.1844  0.5984
  502MOL0     H67755  10.429   5.003   1.601  0.3013 -0.3064 -0.1530
  502MOL0     H67756   9.603   6.116   2.495  0.5604 -2.2109  2.2851
  502MOL0     H67757   9.623   6.348   2.593  1.4506 -1.2103 -0.4858
  502MOL0     H67758   9.518   6.703   2.771 -1.6836  0.8380  1.0269
  502MOL0     H67759   9.493   6.895   2.896 -0.2203  0.9373  2.6723
  502MOL0     H67760   9.654   6.916   3.284 -0.2575 -1.6386 -2.8457
  502MOL0     H67761   9.796   6.986   3.197  1.0664 -1.9674 -0.4008
  502MOL0     H67762   9.543   7.113   3.306 -0.5720 -2.2409 -0.0177
  502MOL0     H67763   9.655   7.202   3.193  1.9820  1.2318  1.4839
  502MOL0     H67764   9.819   7.211   3.366 -2.2650  2.7658 -1.4936
  502MOL0     H67765   9.716   7.105   3.481 -0.5313 -1.1987 -0.4200
  502MOL0     H67766   9.675   7.345   3.536 -5.8721 -1.2022  1.9011
  502MOL0     H67767   9.541   7.289   3.440  1.1446 -2.4169 -0.2297
  502MOL0     H67768   9.683   7.550   3.167  0.2383 -0.6883  0.5337
  502MOL0     H67769   9.776   6.740   3.186 -0.8535 -1.7261  1.5861
  502MOL0     H67770   9.740   6.517   3.100 -1.5634 -0.9262  0.4440
  503MOL0     O67771   2.710   2.997   4.608 -0.1871 -0.2685  0.1490
  503MOL0     C67772   2.731   2.996   4.488 -0.8760  0.1204 -0.5380
  503MOL0     O67773   2.715   2.891   4.401 -1.2706  0.5609 -0.8200
  503MOL0     C67774   2.696   2.764   4.448 -0.1905 -0.0136 -0.6811
  503MOL0     C67775   2.792   2.662   4.434  0.2056 -0.6584  0.1636
  503MOL0     C67776   2.774   2.534   4.493 -0.9813  0.4866  0.0118
  503MOL0     C67777   2.660   2.504   4.566  0.7527 -0.0294  0.9545
  503MOL0     O67778   2.664   2.381   4.625 -0.4274 -0.7919 -0.8376
  503MOL0     C67779   2.553   2.344   4.704  0.3465 -0.0231  0.0191
  503MOL0     C67780   2.593   2.205   4.756  0.4289 -0.1355 -0.0978
  503MOL0     C67781   2.699   2.214   4.871  0.3738  0.4926  1.0763
  503MOL0     C67782   2.726   2.059   4.911 -0.7812  0.1103 -0.1241
  503MOL0     C67783   2.846   2.068   5.001 -0.7301  0.3288 -0.1659
  503MOL0     C67784   2.887   1.925   5.027 -0.0137  0.2660  0.3993
  503MOL0     C67785   3.012   1.909   5.107  0.3141  0.0220  0.0678
  503MOL0     C67786   3.047   1.761   5.151  0.9656 -0.5875  0.3742
  503MOL0     N67787   2.944   1.717   5.246 -0.0423 -0.4768  0.0501
  503MOL0     C67788   2.920   1.770   5.374  0.0817  0.2258 -0.1721
  503MOL0     C67789   2.797   1.715   5.412  0.3056 -0.0003 -0.9092
  503MOL0     C67790   2.727   1.741   5.531 -0.6681  0.4136 -0.3790
  503MOL0     C67791   2.702   1.615   5.619 -0.4584 -0.3874  1.0028
  503MOL0     C67792   2.574   1.538   5.579 -0.3597 -0.6198  0.5490
  503MOL0     C67793   2.542   1.418   5.672 -0.6777  0.0062 -0.2476
  503MOL0     O67794   2.579   1.454   5.806  0.1307  0.2721  0.1720
  503MOL0     C67795   2.557   1.362   5.906 -0.5650 -0.8062 -0.8303
  503MOL0     C67796   2.528   1.223   5.894 -0.5668  0.4309 -0.6389
  503MOL0     C67797   2.516   1.134   6.003 -0.6432  0.0633  0.4867
  503MOL0     C67798   2.475   0.989   5.996 -0.1675 -0.9072  0.3755
  503MOL0     C67799   2.540   1.190   6.130 -0.0601  0.3416  1.1452
  503MOL0     C67800   2.545   1.108   6.248 -0.5167  0.5132  0.5490
  503MOL0     O67801   2.662   1.062   6.294 -0.7381  0.1029 -0.0048
  503MOL0     C67802   2.658   0.988   6.410 -0.3926  0.5019  0.4050
  503MOL0     C67803   2.591   0.870   6.417  0.7641  1.5493 -0.1818
  503MOL0     C67804   2.578   0.803   6.542  0.2356 -0.5926 -0.2330
  503MOL0     C67805   2.631   0.849   6.653 -0.5811  0.4934 -1.0815
  503MOL0     O67806   2.623   0.786   6.772  0.4878 -0.5112 -0.3512
  503MOL0     C67807   2.544   0.861   6.871 -0.1254  0.3952 -0.1064
  503MOL0     C67808   2.503   0.758   6.973 -0.4213 -0.0998 -1.0021
  503MOL0     C67809   2.419   0.813   7.087 -0.3315  0.4405  0.2103
  503MOL0     C67810   2.384   0.704   7.190  0.3866  0.0591  1.1615
  503MOL0     C67811   2.284   0.745   7.296  0.2511 -0.4146  0.6958
  503MOL0     C67812   2.318   0.855   7.387 -0.0813  0.3511 -0.3015
  503MOL0     C67813   2.222   0.871   7.511  0.6343  0.0321 -0.3359
  503MOL0     C67814   2.276   0.994   7.601 -0.9175  0.7213 -0.1023
  503MOL0    Cl67815   2.183   1.143   7.575  0.4552 -0.4089  0.1454
  503MOL0     C67816   2.711   0.967   6.649  0.1589  0.5633  0.0210
  503MOL0     C67817   2.720   1.036   6.522  0.4210  0.1600 -0.3044
  503MOL0     O67818   2.444   1.092   6.304 -0.2006  0.0370 -0.3789
  503MOL0     C67819   2.570   1.326   6.145  0.5405  0.1786  0.7338
  503MOL0     C67820   2.580   1.410   6.034 -0.5778  0.4697  0.9057
  503MOL0     N67821   2.759   1.632   5.302 -0.3246 -0.7849 -0.4878
  503MOL0     N67822   2.836   1.649   5.206 -0.3610  0.9921 -0.2665
  503MOL0     C67823   2.567   2.608   4.582 -0.0667 -0.1015 -0.8988
  503MOL0     C67824   2.588   2.736   4.529  0.5836  0.0641  1.0976
  503MOL0     C67825   2.779   3.117   4.427 -0.6092  0.2526  0.7940
  503MOL0     C67826   2.767   3.132   4.280 -0.4130  0.2963  0.1685
  503MOL0     C67827   2.838   3.237   4.225 -0.4720  0.6042  0.6093
  503MOL0     C67828   2.914   3.332   4.296 -0.3031 -0.0383 -0.3483
  503MOL0     O67829   2.969   3.437   4.234 -0.5443  0.9737  0.7251
  503MOL0     C67830   3.073   3.389   4.138  0.2243 -0.0185 -0.6632
  503MOL0     C67831   3.163   3.511   4.094 -0.4417 -0.0007  0.0644
  503MOL0     C67832   3.288   3.451   4.021 -0.3488  0.0699 -0.4504
  503MOL0     C67833   3.401   3.554   3.984  0.3467 -0.0835  0.2393
  503MOL0     C67834   3.385   3.614   3.847 -0.4327 -0.0231 -0.7536
  503MOL0     C67835   3.380   3.664   3.736 -0.2735  0.9244  1.0516
  503MOL0     C67836   2.925   3.313   4.439 -0.1931  0.3502 -0.0057
  503MOL0     C67837   2.861   3.208   4.498 -0.7486  0.2352  0.4046
  503MOL0     H67838   2.880   2.692   4.378 -0.2660  1.7677  0.6138
  503MOL0     H67839   2.856   2.462   4.492 -0.0355  1.5442 -0.2006
  503MOL0     H67840   2.523   2.410   4.786 -1.9864 -1.3652  0.3348
  503MOL0     H67841   2.470   2.331   4.633  1.5387 -1.4363 -1.1642
  503MOL0     H67842   2.513   2.140   4.793  1.9113 -1.4227  1.0175
  503MOL0     H67843   2.628   2.139   4.676  1.5013 -0.3747  0.5477
  503MOL0     H67844   2.778   2.282   4.837 -0.2712  1.2189  1.0025
  503MOL0     H67845   2.646   2.252   4.959 -0.8588 -1.1147  1.0740
  503MOL0     H67846   2.635   2.012   4.950  1.6317 -6.3346 -1.0845
  503MOL0     H67847   2.752   2.002   4.821 -1.8489  1.0324 -1.0548
  503MOL0     H67848   2.935   2.118   4.963 -0.6804  0.5612  0.2493
  503MOL0     H67849   2.827   2.121   5.095  0.7718  1.8613 -0.6866
  503MOL0     H67850   2.808   1.874   5.083 -0.3897  0.8384  0.3989
  503MOL0     H67851   2.911   1.878   4.931  1.9984  0.1600  0.9151
  503MOL0     H67852   3.091   1.953   5.045  0.9344 -1.5816 -0.3537
  503MOL0     H67853   2.989   1.966   5.198 -0.3859  1.7554 -1.1450
  503MOL0     H67854   3.151   1.754   5.184  0.3026 -1.4989  2.4678
  503MOL0     H67855   3.033   1.700   5.061 -2.9304  0.4827  0.0860
  503MOL0     H67856   2.966   1.855   5.423 -1.1151  1.5326 -1.2319
  503MOL0     H67857   2.796   1.801   5.590 -0.5614 -0.2467  0.1882
  503MOL0     H67858   2.632   1.790   5.508  0.4418  3.8179  1.5504
  503MOL0     H67859   2.684   1.662   5.716  0.7149 -1.0787  1.5749
  503MOL0     H67860   2.778   1.538   5.633 -3.4513 -3.2564  3.1532
  503MOL0     H67861   2.575   1.494   5.478  0.4712 -3.9847  1.8857
  503MOL0     H67862   2.493   1.610   5.591  3.3733  4.0118  0.8532
  503MOL0     H67863   2.600   1.330   5.646 -1.0349 -0.3050 -0.0004
  503MOL0     H67864   2.434   1.399   5.666 -0.8370  0.9874 -0.7082
  503MOL0     H67865   2.487   1.172   5.807 -4.0294 -2.8957  2.5013
  503MOL0     H67866   2.536   0.923   6.057  0.9155 -0.2063  0.0776
  503MOL0     H67867   2.369   0.984   6.023 -0.3544 -0.5443 -0.2648
  503MOL0     H67868   2.496   0.956   5.893  0.1216 -0.3187  0.2440
  503MOL0     H67869   2.540   0.833   6.329 -2.4687  0.5798  1.9490
  503MOL0     H67870   2.507   0.721   6.555 -1.0359  0.1896 -1.8530
  503MOL0     H67871   2.605   0.929   6.931  1.3102 -1.9932  1.3190
  503MOL0     H67872   2.455   0.902   6.823 -3.9326 -1.8148  4.2492
  503MOL0     H67873   2.453   0.683   6.911 -5.2298  2.2150 -0.3555
  503MOL0     H67874   2.593   0.712   7.015 -0.6339  0.1928 -0.2065
  503MOL0     H67875   2.337   0.861   7.033  1.0126 -0.4141 -2.7993
  503MOL0     H67876   2.477   0.889   7.140 -2.4404  1.5642  1.0493
  503MOL0     H67877   2.341   0.619   7.136  2.0125  0.6334 -1.2008
  503MOL0     H67878   2.472   0.667   7.244  1.1714  2.3631  1.5457
  503MOL0     H67879   2.271   0.660   7.364  2.4181  1.0376  3.1584
  503MOL0     H67880   2.187   0.769   7.253  0.4651 -1.7427 -0.6011
  503MOL0     H67881   2.416   0.836   7.431 -0.3887 -0.2111  0.1543
  503MOL0     H67882   2.324   0.946   7.325  1.6689  1.0749  0.8541
  503MOL0     H67883   2.220   0.783   7.577 -0.0551 -1.2021 -1.9453
  503MOL0     H67884   2.116   0.881   7.487  0.3796 -1.7786 -0.1106
  503MOL0     H67885   2.384   1.004   7.587 -0.8016 -1.0035 -0.6007
  503MOL0     H67886   2.264   0.954   7.702 -1.5192 -1.8040 -1.1047
  503MOL0     H67887   2.769   1.008   6.731 -0.4573 -0.8645  1.2252
  503MOL0     H67888   2.763   1.136   6.520 -2.2851  1.4649  1.0443
  503MOL0     H67889   2.585   1.375   6.241 -1.1301  1.7161  0.2790
  503MOL0     H67890   2.607   1.514   6.046 -4.2939  1.6828  0.1730
  503MOL0     H67891   2.487   2.613   4.655  1.1823  6.7902  0.7628
  503MOL0     H67892   2.530   2.822   4.562  1.2279  1.1314 -0.4458
  503MOL0     H67893   2.721   3.059   4.215 -0.5757 -0.3528  0.9950
  503MOL0     H67894   2.812   3.258   4.122 -2.0598 -2.6902  0.2141
  503MOL0     H67895   3.137   3.311   4.179 -0.1864  0.8219  1.7534
  503MOL0     H67896   3.027   3.340   4.052  1.7182  1.0866 -2.1469
  503MOL0     H67897   3.202   3.561   4.183 -1.1432  0.8828 -0.1126
  503MOL0     H67898   3.113   3.588   4.035 -2.6471 -1.7639 -0.5401
  503MOL0     H67899   3.255   3.399   3.930 -2.4248 -3.1537  1.9541
  503MOL0     H67900   3.339   3.373   4.079 -0.4285  0.2398 -0.1507
  503MOL0     H67901   3.484   3.482   3.992  0.1538 -0.2191  1.2037
  503MOL0     H67902   3.407   3.631   4.061  1.7968  0.7585 -0.6734
  503MOL0     H67903   3.367   3.709   3.640  1.9617 -0.8203 -0.1676
  503MOL0     H67904   2.986   3.380   4.499 -0.3523  1.1752 -0.7472
  503MOL0     H67905   2.866   3.207   4.606 -1.0322 -0.2931  0.4152
  504MOL0     O67906   9.045   1.200   8.290  0.4149  0.3878  0.5783
  504MOL0     C67907   9.024   1.103   8.360 -0.2841 -1.1685 -0.0058
  504MOL0     O67908   8.912   1.032   8.350  0.3681  0.2336  0.4371
  504MOL0     C67909   8.835   1.056   8.239 -0.1511  1.0919  0.4330
  504MOL0     C67910   8.696   1.074   8.265  0.4909 -0.0989  0.4542
  504MOL0     C67911   8.615   1.133   8.169 -0.1053 -0.0525 -0.1000
  504MOL0     C67912   8.664   1.168   8.047 -0.1195 -0.4472  0.8742
  504MOL0     O67913   8.589   1.246   7.972 -0.2711 -0.6032  0.2864
  504MOL0     C67914   8.569   1.219   7.833  0.6052 -0.2939 -0.3749
  504MOL0     C67915   8.505   1.340   7.760 -0.0982  0.3931 -0.6239
  504MOL0     C67916   8.457   1.310   7.628 -0.5296 -0.4598  0.2422
  504MOL0     C67917   8.422   1.433   7.544 -0.1048  0.2509  0.4806
  504MOL0     C67918   8.393   1.389   7.394  0.0079 -0.9167 -0.2882
  504MOL0     C67919   8.332   1.517   7.323 -0.9861  0.4885  0.7516
  504MOL0     C67920   8.176   1.521   7.333  0.4695 -0.7639  0.4955
  504MOL0     C67921   8.130   1.588   7.469 -0.2025  0.6858  0.2568
  504MOL0     N67922   7.986   1.606   7.455 -0.0993  0.0002  0.4639
  504MOL0     C67923   7.936   1.698   7.365  0.0566 -0.9944  0.0382
  504MOL0     C67924   7.797   1.701   7.396 -0.3576 -1.0301  0.5448
  504MOL0     C67925   7.695   1.804   7.348  0.0465 -0.6838  0.1071
  504MOL0     C67926   7.665   1.785   7.195 -0.3661 -0.0300  0.3427
  504MOL0     C67927   7.604   1.650   7.160 -0.4990 -0.3141  0.3814
  504MOL0     C67928   7.530   1.661   7.023 -0.4531  0.6045 -0.1100
  504MOL0     O67929   7.408   1.581   7.021 -0.1007  0.3606  0.5369
  504MOL0     C67930   7.422   1.445   6.997  0.7271  0.5079  0.4449
  504MOL0     C67931   7.540   1.371   6.968  0.1455 -0.2044  0.1497
  504MOL0     C67932   7.535   1.227   6.938 -0.3406 -0.3410  0.0356
  504MOL0     C67933   7.665   1.157   6.913 -0.3871 -0.1324  0.2195
  504MOL0     C67934   7.408   1.168   6.939  0.0898 -0.7993 -0.2480
  504MOL0     C67935   7.385   1.022   6.907  0.2825 -0.1177 -1.4794
  504MOL0     O67936   7.307   0.949   6.988 -0.5749  0.4673 -0.6814
  504MOL0     C67937   7.305   0.815   6.963  0.1527  0.6972  0.5007
  504MOL0     C67938   7.186   0.744   6.957  0.5862  0.0546  0.6154
  504MOL0     C67939   7.185   0.606   6.931  0.2667  0.4674 -0.7750
  504MOL0     C67940   7.310   0.533   6.902  0.1573  0.5156 -0.5738
  504MOL0     O67941   7.292   0.396   6.892  0.5106 -0.1087 -0.3396
  504MOL0     C67942   7.332   0.317   6.999 -0.5282  0.5688 -1.0233
  504MOL0     C67943   7.460   0.247   6.952 -0.5549 -0.5109  0.8860
  504MOL0     C67944   7.563   0.201   7.061  0.2684 -0.4705  0.8324
  504MOL0     C67945   7.677   0.143   6.985 -0.5428 -0.2986 -0.6928
  504MOL0     C67946   7.796   0.109   7.073 -0.7204  0.6049  0.0878
  504MOL0     C67947   7.756  -0.012   7.165  0.7126 -0.9531  0.5474
  504MOL0     C67948   7.873  -0.089   7.230 -0.8298 -0.1233 -0.0240
  504MOL0     C67949   7.944  -0.010   7.327 -0.8136 -0.6797  0.0527
  504MOL0    Cl67950   8.113   0.028   7.268  0.3030 -0.2018  0.3137
  504MOL0     C67951   7.427   0.606   6.911  0.1211 -0.5880 -0.9301
  504MOL0     C67952   7.429   0.744   6.935 -0.0119 -0.9016 -0.0699
  504MOL0     O67953   7.434   0.977   6.805  0.0103 -1.1842  0.5083
  504MOL0     C67954   7.297   1.246   6.969  0.5740 -0.0303  0.0633
  504MOL0     C67955   7.301   1.377   6.998 -0.6698 -0.4776 -1.3541
  504MOL0     N67956   7.775   1.597   7.481  0.5778  0.3003 -0.2845
  504MOL0     N67957   7.884   1.549   7.525  0.6009  0.1884  0.3676
  504MOL0     C67958   8.795   1.130   8.002 -0.7176  0.2121 -0.5104
  504MOL0     C67959   8.880   1.070   8.102 -0.8793  0.3261 -0.3547
  504MOL0     C67960   9.129   1.057   8.445 -0.1219 -1.4644  0.1049
  504MOL0     C67961   9.238   1.142   8.468  1.3545 -0.2752 -0.5509
  504MOL0     C67962   9.360   1.097   8.534 -0.2465 -0.1200 -0.9680
  504MOL0     C67963   9.364   0.973   8.596 -0.8417 -0.0890 -0.5819
  504MOL0     O67964   9.480   0.932   8.664 -0.1090 -0.4534 -0.0319
  504MOL0     C67965   9.485   0.807   8.732  0.0263 -0.2659 -0.5252
  504MOL0     C67966   9.430   0.821   8.870  0.2027 -1.6314  0.0561
  504MOL0     C67967   9.490   0.941   8.947 -0.0089  0.7009  0.7507
  504MOL0     C67968   9.420   0.973   9.089 -0.2622  0.3948 -0.5286
  504MOL0     C67969   9.283   1.029   9.068 -0.3730  0.9935 -0.1847
  504MOL0     C67970   9.177   1.075   9.031  0.2676  0.3968 -0.2017
  504MOL0     C67971   9.252   0.891   8.574  0.0220 -0.6318  0.5610
  504MOL0     C67972   9.137   0.929   8.501 -0.0171  0.0646 -0.6016
  504MOL0     H67973   8.656   1.050   8.363 -1.4999  1.2655  0.0350
  504MOL0     H67974   8.509   1.154   8.182 -1.2779 -4.1565 -1.5678
  504MOL0     H67975   8.660   1.189   7.780  1.8245 -1.2437  2.1430
  504MOL0     H67976   8.495   1.140   7.817 -1.2338  1.3391 -0.4017
  504MOL0     H67977   8.417   1.378   7.813 -0.9806  0.6646 -2.1975
  504MOL0     H67978   8.581   1.418   7.754  2.0871 -1.5520  0.3211
  504MOL0     H67979   8.549   1.273   7.581  0.9373 -0.0933  2.6435
  504MOL0     H67980   8.381   1.233   7.615 -1.5427  0.9456 -3.3634
  504MOL0     H67981   8.337   1.468   7.603  1.0159 -1.0627  3.0607
  504MOL0     H67982   8.500   1.510   7.551 -1.3712  1.5582  0.6712
  504MOL0     H67983   8.481   1.351   7.341 -0.5168 -0.6670 -1.3613
  504MOL0     H67984   8.329   1.301   7.404 -0.0497 -0.8286  0.1548
  504MOL0     H67985   8.385   1.611   7.342 -1.8231  1.0653  0.3082
  504MOL0     H67986   8.367   1.499   7.221  5.0488  3.2988  1.8615
  504MOL0     H67987   8.134   1.579   7.251 -1.3741 -1.5700  0.8088
  504MOL0     H67988   8.138   1.419   7.324  0.7168 -0.8513  0.4238
  504MOL0     H67989   8.167   1.690   7.478  0.9494  0.3482 -0.3478
  504MOL0     H67990   8.136   1.529   7.561 -1.4971 -1.6464 -1.0505
  504MOL0     H67991   7.986   1.770   7.301  0.1206 -2.4671 -1.6610
  504MOL0     H67992   7.607   1.794   7.412 -0.7747 -0.7694 -1.0026
  504MOL0     H67993   7.738   1.904   7.357 -1.4363  0.0069 -0.1940
  504MOL0     H67994   7.762   1.805   7.148  0.1758 -0.8223  1.1058
  504MOL0     H67995   7.602   1.870   7.164  2.3830  2.3901  0.9272
  504MOL0     H67996   7.538   1.616   7.240  3.8188 -2.2722  3.5238
  504MOL0     H67997   7.696   1.591   7.156 -0.8925 -0.9087 -0.0428
  504MOL0     H67998   7.599   1.628   6.945 -1.1360 -0.1558 -0.3934
  504MOL0     H67999   7.493   1.762   7.004 -1.1751  0.5555  0.9643
  504MOL0     H68000   7.629   1.425   6.996 -0.9884 -0.4990  5.3594
  504MOL0     H68001   7.662   1.116   6.812 -3.4601  1.4541 -0.4648
  504MOL0     H68002   7.746   1.230   6.923 -0.8138  0.2470  1.0101
  504MOL0     H68003   7.684   1.080   6.988  1.5123  1.0998  1.0909
  504MOL0     H68004   7.092   0.797   6.975 -0.8748 -0.6383 -3.8259
  504MOL0     H68005   7.088   0.563   6.955  0.8529 -0.3919  0.0947
  504MOL0     H68006   7.341   0.364   7.098 -0.3485  0.3160 -0.9182
  504MOL0     H68007   7.271   0.231   7.025  0.8864 -0.1055  0.2634
  504MOL0     H68008   7.427   0.158   6.897  0.4132  1.5351 -3.4871
  504MOL0     H68009   7.501   0.312   6.873 -2.2800  0.0026  0.3868
  504MOL0     H68010   7.524   0.139   7.142 -1.0533  2.5009  2.6265
  504MOL0     H68011   7.610   0.291   7.101  1.6230  0.8086 -3.1084
  504MOL0     H68012   7.660   0.053   6.925  0.1341  0.3326 -1.8761
  504MOL0     H68013   7.722   0.215   6.917  0.4879 -2.2939 -2.2483
  504MOL0     H68014   7.825   0.196   7.132 -3.0424  0.5939  1.3567
  504MOL0     H68015   7.878   0.087   7.005 -1.3483  0.8903 -0.7720
  504MOL0     H68016   7.694   0.019   7.250 -0.1243 -0.4497 -0.2329
  504MOL0     H68017   7.702  -0.074   7.093  0.1565  0.3509 -0.2048
  504MOL0     H68018   7.941  -0.138   7.159 -0.5533 -0.0306  0.1749
  504MOL0     H68019   7.833  -0.179   7.278  0.3734  1.7348  5.0944
  504MOL0     H68020   7.955  -0.057   7.425  0.2729  1.5035  1.0441
  504MOL0     H68021   7.900   0.089   7.342  1.2213  0.9385 -3.5132
  504MOL0     H68022   7.527   0.564   6.902  1.5564  1.8675  1.8760
  504MOL0     H68023   7.525   0.794   6.942 -0.0183 -1.0734  2.2104
  504MOL0     H68024   7.203   1.192   6.972 -0.2649  1.3998  1.2561
  504MOL0     H68025   7.204   1.423   7.009  0.1220  1.2016 -1.1606
  504MOL0     H68026   8.834   1.151   7.903  1.1736 -0.2178  0.1104
  504MOL0     H68027   8.973   1.024   8.070 -1.1289 -0.3622 -0.1230
  504MOL0     H68028   9.225   1.248   8.450 -0.9226  0.1824  2.7623
  504MOL0     H68029   9.443   1.160   8.568  0.3397 -1.8989  1.1878
  504MOL0     H68030   9.437   0.728   8.673 -2.5665 -0.4704  1.6560
  504MOL0     H68031   9.587   0.770   8.747  0.1750  1.0267  2.4445
  504MOL0     H68032   9.438   0.734   8.935 -0.0233  1.1281  4.2155
  504MOL0     H68033   9.323   0.836   8.852  0.2864 -2.3306 -1.1100
  504MOL0     H68034   9.474   1.033   8.891 -0.3838  0.3202  0.2201
  504MOL0     H68035   9.598   0.927   8.959  0.0898 -0.1417 -0.8415
  504MOL0     H68036   9.487   1.040   9.143  1.3539  0.0789 -2.0395
  504MOL0     H68037   9.405   0.880   9.145 -0.7033 -0.4373 -1.9738
  504MOL0     H68038   9.075   1.101   9.012 -1.7273 -3.1345  3.8552
  504MOL0     H68039   9.256   0.785   8.600  1.1578 -1.1498 -1.5508
  504MOL0     H68040   9.057   0.855   8.498 -1.6547  1.5024  2.5649
  505MOL0     O68041   7.055   7.385   1.481  0.2417  0.3019  0.5827
  505MOL0     C68042   7.149   7.305   1.471 -0.9302 -0.1492  0.6895
  505MOL0     O68043   7.158   7.168   1.489  1.0997 -0.5774  0.3376
  505MOL0     C68044   7.047   7.099   1.526  0.6561 -0.3026 -0.3341
  505MOL0     C68045   6.918   7.120   1.464  0.1889 -0.3687 -0.6011
  505MOL0     C68046   6.811   7.040   1.508 -0.5809 -0.4880  0.1508
  505MOL0     C68047   6.816   6.941   1.605 -0.6815 -0.1106 -0.6167
  505MOL0     O68048   6.707   6.864   1.642  0.2755 -0.5408  0.0512
  505MOL0     C68049   6.662   6.915   1.774 -0.8468 -0.3146  0.1208
  505MOL0     C68050   6.505   6.939   1.780 -0.0745  0.1751 -0.1197
  505MOL0     C68051   6.470   6.962   1.926 -0.3334 -0.5543 -0.5688
  505MOL0     C68052   6.348   7.056   1.932 -0.4628  0.3211 -0.2306
  505MOL0     C68053   6.334   7.119   2.074 -0.3575  0.0824 -0.3314
  505MOL0     C68054   6.332   7.008   2.184 -0.4167  0.0326 -0.3125
  505MOL0     C68055   6.231   7.051   2.298 -0.7419  0.5544 -0.6714
  505MOL0     C68056   6.236   6.962   2.420 -0.3610 -0.0921  0.0239
  505MOL0     N68057   6.264   6.820   2.399  0.4690 -0.0373  0.2904
  505MOL0     C68058   6.173   6.723   2.371  0.6139 -0.0019  0.7472
  505MOL0     C68059   6.238   6.605   2.383  0.3222  0.1808 -0.2728
  505MOL0     C68060   6.170   6.476   2.368  0.6558 -0.1234 -0.0890
  505MOL0     C68061   6.256   6.353   2.406 -0.9397  0.1299 -0.3058
  505MOL0     C68062   6.244   6.306   2.552 -0.5048 -0.3001  0.6601
  505MOL0     C68063   6.229   6.408   2.673  0.1497  0.1884 -0.4977
  505MOL0     O68064   6.277   6.339   2.790  0.1606  0.1359  0.2301
  505MOL0     C68065   6.289   6.411   2.904  0.7834  0.1587 -0.3383
  505MOL0     C68066   6.317   6.334   3.018 -0.4734  0.3094  0.2519
  505MOL0     C68067   6.347   6.398   3.139 -0.7003 -0.3970  0.1313
  505MOL0     C68068   6.383   6.309   3.252 -0.2061  0.3814 -0.7322
  505MOL0     C68069   6.346   6.539   3.147 -0.8284  0.5670 -0.5862
  505MOL0     C68070   6.359   6.611   3.278  0.4340  0.1378  0.1155
  505MOL0     O68071   6.371   6.743   3.257 -0.0450 -0.1765  0.1262
  505MOL0     C68072   6.424   6.828   3.349 -0.0346  0.0736 -0.6210
  505MOL0     C68073   6.350   6.882   3.449  0.0670 -0.1339  0.4979
  505MOL0     C68074   6.405   6.961   3.551 -0.5552  0.0012 -0.2303
  505MOL0     C68075   6.534   6.994   3.533  0.3323  0.0941 -0.1919
  505MOL0     O68076   6.585   7.090   3.611 -0.0604 -0.1995 -0.4336
  505MOL0     C68077   6.640   7.054   3.734 -0.2969 -0.4273 -0.1645
  505MOL0     C68078   6.639   7.160   3.842 -0.1386  0.0584  0.0520
  505MOL0     C68079   6.731   7.285   3.810  0.5598 -0.2015 -0.4643
  505MOL0     C68080   6.734   7.384   3.927  0.1751  0.3726  0.0527
  505MOL0     C68081   6.792   7.522   3.902 -1.1604  0.7520 -0.2237
  505MOL0     C68082   6.839   7.579   4.031  0.2699 -0.0737 -0.5647
  505MOL0     C68083   6.883   7.723   4.022  0.5504 -0.2763 -0.0469
  505MOL0     C68084   6.759   7.817   3.984  0.4743 -0.4400  0.1736
  505MOL0    Cl68085   6.622   7.783   4.100 -0.1250  0.0810  0.4778
  505MOL0     C68086   6.617   6.944   3.426 -0.5540  0.6939  0.6523
  505MOL0     C68087   6.558   6.858   3.331  0.3476 -0.2192  0.3655
  505MOL0     O68088   6.332   6.563   3.383  0.8172 -0.3700  0.1671
  505MOL0     C68089   6.326   6.610   3.024  0.0926 -0.5985  0.6296
  505MOL0     C68090   6.301   6.549   2.903 -0.5709 -0.0351 -0.8679
  505MOL0     N68091   6.366   6.633   2.416 -0.1458  0.4943  0.0740
  505MOL0     N68092   6.376   6.762   2.434 -0.5234 -0.2344 -0.1822
  505MOL0     C68093   6.940   6.924   1.664  0.2127  0.5527 -0.8050
  505MOL0     C68094   7.054   6.999   1.627 -0.2040 -0.1111 -0.2865
  505MOL0     C68095   7.265   7.352   1.401 -0.6094 -0.2557  0.9417
  505MOL0     C68096   7.249   7.450   1.302  0.7444 -0.5784  0.2715
  505MOL0     C68097   7.358   7.504   1.237  0.3585  0.4106  0.7300
  505MOL0     C68098   7.493   7.470   1.276  0.1858  0.3360  0.7919
  505MOL0     O68099   7.602   7.527   1.227 -0.1384  0.2086 -0.2261
  505MOL0     C68100   7.611   7.511   1.080 -0.0766  0.4177 -0.4662
  505MOL0     C68101   7.771   7.496   1.050  0.6689  0.0743 -0.4754
  505MOL0     C68102   7.800   7.443   0.908  0.4113  0.1646 -1.2252
  505MOL0     C68103   7.941   7.441   0.883  0.4703  0.2251 -0.4139
  505MOL0     C68104   7.972   7.356   0.769 -0.0712 -0.7353 -0.7759
  505MOL0     C68105   8.009   7.291   0.677 -0.3892 -0.1740 -0.9231
  505MOL0     C68106   7.512   7.373   1.375 -0.4961  0.3503  0.5188
  505MOL0     C68107   7.398   7.313   1.432 -0.5596 -0.2285 -0.4112
  505MOL0     H68108   6.902   7.192   1.385  0.8250 -0.3927 -0.7545
  505MOL0     H68109   6.715   7.060   1.461  1.1986  1.9415 -2.8427
  505MOL0     H68110   6.683   6.856   1.864 -0.3036  3.6778  2.8837
  505MOL0     H68111   6.709   7.007   1.809 -1.7338 -0.1011  0.8184
  505MOL0     H68112   6.480   7.023   1.715 -3.0344 -0.4107  0.1175
  505MOL0     H68113   6.436   6.860   1.748 -0.2287  1.4153 -3.2106
  505MOL0     H68114   6.451   6.865   1.972  2.6175 -0.5853  0.8340
  505MOL0     H68115   6.552   7.005   1.984  0.4594 -1.2219 -1.1649
  505MOL0     H68116   6.364   7.127   1.850 -0.0380 -0.1727 -0.5792
  505MOL0     H68117   6.255   7.004   1.906 -0.3472 -0.9163  1.6644
  505MOL0     H68118   6.424   7.175   2.098 -0.2510 -0.3814  0.3798
  505MOL0     H68119   6.239   7.172   2.084 -1.5790 -1.9928 -0.2482
  505MOL0     H68120   6.284   6.922   2.137 -0.3574 -0.5652  0.7016
  505MOL0     H68121   6.427   6.995   2.236 -0.1798  1.8763 -0.2012
  505MOL0     H68122   6.250   7.155   2.324  1.6433 -0.6071  2.9552
  505MOL0     H68123   6.138   7.030   2.244  1.0980 -0.5095 -3.7194
  505MOL0     H68124   6.147   6.964   2.484  0.8510  1.0299  1.7315
  505MOL0     H68125   6.326   6.998   2.470  0.2793 -2.5357  0.7381
  505MOL0     H68126   6.068   6.734   2.347  0.9357 -0.0642 -0.7357
  505MOL0     H68127   6.074   6.478   2.419  0.4652  0.2837 -0.4557
  505MOL0     H68128   6.133   6.481   2.266  0.9970  3.5374 -0.1876
  505MOL0     H68129   6.363   6.370   2.393 -0.0729 -0.0325  4.5341
  505MOL0     H68130   6.229   6.267   2.344  0.0650  1.4183 -2.6493
  505MOL0     H68131   6.345   6.264   2.563 -0.3436  0.5875  3.2939
  505MOL0     H68132   6.180   6.219   2.569  0.1552 -1.0466 -0.5178
  505MOL0     H68133   6.123   6.432   2.683 -0.2412 -0.8657 -1.7512
  505MOL0     H68134   6.276   6.504   2.648  0.9725  0.4459  1.8389
  505MOL0     H68135   6.304   6.226   3.024 -0.9522  0.4008  5.5717
  505MOL0     H68136   6.457   6.350   3.321  0.6861 -0.3276 -1.2446
  505MOL0     H68137   6.297   6.291   3.318  1.5723 -0.7362  1.3905
  505MOL0     H68138   6.401   6.205   3.226  0.4614  0.3572 -0.1917
  505MOL0     H68139   6.242   6.873   3.451 -0.1957  2.4851  0.5584
  505MOL0     H68140   6.346   7.012   3.626  1.3079  1.1600  0.5433
  505MOL0     H68141   6.587   6.968   3.776  0.4454  0.6743  3.3569
  505MOL0     H68142   6.743   7.026   3.714 -1.3595 -1.6335 -5.3242
  505MOL0     H68143   6.536   7.195   3.858 -0.7108 -1.0987 -0.9107
  505MOL0     H68144   6.674   7.122   3.938  1.6065 -2.4293 -1.4500
  505MOL0     H68145   6.706   7.338   3.718 -0.6909 -1.2584 -0.7481
  505MOL0     H68146   6.833   7.246   3.796  1.4127  0.2882  3.1234
  505MOL0     H68147   6.632   7.396   3.965 -0.6921 -0.0524 -1.9570
  505MOL0     H68148   6.791   7.334   4.005  0.1620  1.4665  0.7881
  505MOL0     H68149   6.725   7.590   3.849 -2.0134 -1.4375 -2.1640
  505MOL0     H68150   6.880   7.515   3.838 -0.9773  0.3160  0.0736
  505MOL0     H68151   6.757   7.559   4.101 -1.5686  0.7761 -2.3549
  505MOL0     H68152   6.926   7.529   4.072  0.9972 -0.1827 -2.1710
  505MOL0     H68153   6.963   7.728   3.948 -0.9794 -0.5775 -1.8241
  505MOL0     H68154   6.922   7.747   4.121  3.0455 -1.3642 -0.6771
  505MOL0     H68155   6.735   7.800   3.878  0.3313  0.7492  0.0060
  505MOL0     H68156   6.800   7.917   3.997 -1.3574  0.2449  0.9233
  505MOL0     H68157   6.723   6.966   3.416 -1.1437  2.9175 -1.6300
  505MOL0     H68158   6.616   6.816   3.249 -3.4379 -0.1647 -2.6044
  505MOL0     H68159   6.346   6.717   3.028  0.1206 -0.4327 -1.9586
  505MOL0     H68160   6.288   6.608   2.813  0.5779  3.0140  0.8474
  505MOL0     H68161   6.943   6.842   1.735 -3.3458 -0.0923 -1.1663
  505MOL0     H68162   7.144   6.980   1.684  0.8297  1.6017 -1.2503
  505MOL0     H68163   7.149   7.487   1.287 -0.6786 -3.2115  2.3300
  505MOL0     H68164   7.339   7.573   1.155 -3.8134 -3.9081 -2.4458
  505MOL0     H68165   7.572   7.414   1.046  1.2090 -0.9008  1.5715
  505MOL0     H68166   7.558   7.588   1.024  0.3864  1.4244  0.4474
  505MOL0     H68167   7.822   7.439   1.128  0.4455  0.2992 -0.1624
  505MOL0     H68168   7.813   7.596   1.064  2.2840 -0.9028  2.6785
  505MOL0     H68169   7.764   7.523   0.842  2.3685  0.5447 -1.8931
  505MOL0     H68170   7.745   7.349   0.904 -1.8451  1.2866  0.8124
  505MOL0     H68171   8.001   7.422   0.972  1.0950  0.8748 -0.6863
  505MOL0     H68172   7.961   7.545   0.857 -3.4615  0.6595 -2.4808
  505MOL0     H68173   8.033   7.231   0.591 -1.2130 -1.7099 -0.1243
  505MOL0     H68174   7.616   7.362   1.402  0.0843  2.1820 -0.7671
  505MOL0     H68175   7.411   7.254   1.522  2.0147  2.4739  1.1665
  506MOL0     O68176   6.308   0.926   8.577  0.4481  0.1414 -0.3012
  506MOL0     C68177   6.215   0.957   8.500  0.5932  0.4957 -1.3165
  506MOL0     O68178   6.194   1.089   8.460  0.4492  0.1739  0.1520
  506MOL0     C68179   6.280   1.181   8.506  0.5162 -0.9867  0.2456
  506MOL0     C68180   6.370   1.245   8.416  1.3186 -0.4402 -0.5270
  506MOL0     C68181   6.448   1.350   8.476 -0.6416 -0.2781 -0.5884
  506MOL0     C68182   6.445   1.390   8.613  0.2624  0.0280  0.2382
  506MOL0     O68183   6.526   1.495   8.642 -0.4519 -0.9822 -0.0832
  506MOL0     C68184   6.606   1.470   8.758 -0.1966 -0.4236  0.0600
  506MOL0     C68185   6.723   1.371   8.743  0.0738 -1.1778  0.1084
  506MOL0     C68186   6.825   1.428   8.641  0.4339 -0.6079  0.2373
  506MOL0     C68187   6.963   1.362   8.640 -0.1336  0.3041 -0.6537
  506MOL0     C68188   7.041   1.422   8.524  0.2930  0.3373 -0.0880
  506MOL0     C68189   7.178   1.354   8.501 -0.2955 -0.2865 -0.3108
  506MOL0     C68190   7.170   1.213   8.431  0.1274 -1.0020  0.1273
  506MOL0     C68191   7.301   1.165   8.381 -1.4725  1.1511  0.1592
  506MOL0     N68192   7.413   1.187   8.467 -0.4998 -0.0950 -0.5736
  506MOL0     C68193   7.422   1.132   8.591 -0.1532  0.1501 -0.0930
  506MOL0     C68194   7.539   1.172   8.628 -0.1386  0.0017 -0.3069
  506MOL0     C68195   7.613   1.135   8.756 -0.3422  0.1532 -0.3441
  506MOL0     C68196   7.557   1.231   8.865 -0.1181 -0.2835  0.8871
  506MOL0     C68197   7.567   1.376   8.817 -0.2019 -0.8598  1.0537
  506MOL0     C68198   7.712   1.439   8.819  0.9659 -0.4137 -0.0623
  506MOL0     O68199   7.765   1.419   8.954  0.3994  0.2504  0.1871
  506MOL0     C68200   7.882   1.478   9.000  0.0285  0.1220 -0.0113
  506MOL0     C68201   7.970   1.550   8.922 -0.0808  0.5290  0.0380
  506MOL0     C68202   8.085   1.604   8.959 -0.4628 -0.2839  0.0471
  506MOL0     C68203   8.164   1.688   8.853 -1.0664 -1.1416 -0.6169
  506MOL0     C68204   8.140   1.585   9.096  0.9232  0.4188 -0.6348
  506MOL0     C68205   8.243   1.652   9.170 -0.6890  0.3108  0.3988
  506MOL0     O68206   8.232   1.654   9.306 -0.9452 -0.0621 -0.4461
  506MOL0     C68207   8.175   1.769   9.365 -0.6218  0.2773  0.7756
  506MOL0     C68208   8.210   1.796   9.495  0.3027  0.2361 -0.0515
  506MOL0     C68209   8.168   1.911   9.567  0.8275  0.0253  0.3923
  506MOL0     C68210   8.085   2.004   9.500  0.2745  0.0386 -0.0687
  506MOL0     O68211   8.046   2.113   9.580 -0.3454 -0.2261  0.3146
  506MOL0     C68212   7.937   2.195   9.528  0.1122 -0.0294 -0.1360
  506MOL0     C68213   7.926   2.303   9.640  0.0532 -0.9240  0.0490
  506MOL0     C68214   7.878   2.256   9.783 -0.0374 -0.0532 -0.2203
  506MOL0     C68215   7.736   2.212   9.813  0.8194  1.3433 -0.1847
  506MOL0     C68216   7.717   2.148   9.951 -0.3695 -0.2391  0.4081
  506MOL0     C68217   7.765   2.232  10.077 -0.8838 -0.5203 -0.3069
  506MOL0     C68218   7.767   2.153  10.211  0.2250 -0.1622 -0.2945
  506MOL0     C68219   7.861   2.033  10.237 -0.5354  0.6522 -0.1822
  506MOL0    Cl68220   7.849   1.977  10.408  0.1401 -0.1030 -0.2978
  506MOL0     C68221   8.030   1.971   9.374  0.2376 -0.9862 -0.8509
  506MOL0     C68222   8.081   1.860   9.309  0.2162  0.7282  0.6616
  506MOL0     O68223   8.349   1.668   9.102  0.1492 -1.4630 -0.4575
  506MOL0     C68224   8.053   1.509   9.171 -0.2315  0.1670  0.2899
  506MOL0     C68225   7.926   1.459   9.127 -0.6086  1.0126  0.1445
  506MOL0     N68226   7.610   1.231   8.528 -0.2244 -0.2585  0.1521
  506MOL0     N68227   7.539   1.225   8.422  0.7480 -0.1030 -1.1421
  506MOL0     C68228   6.345   1.326   8.697 -0.7064 -0.0991 -0.3696
  506MOL0     C68229   6.279   1.215   8.645  0.5772 -0.0213  0.9367
  506MOL0     C68230   6.106   0.859   8.456 -0.4985  0.6980 -0.6568
  506MOL0     C68231   5.987   0.904   8.402  0.0416 -0.0309  0.7032
  506MOL0     C68232   5.888   0.814   8.380  0.2489  0.2801 -0.2452
  506MOL0     C68233   5.915   0.677   8.403 -0.3634 -0.4161  0.4541
  506MOL0     O68234   5.827   0.582   8.367 -0.1715  0.4780 -0.1666
  506MOL0     C68235   5.715   0.560   8.445 -0.1319 -0.6031 -0.0661
  506MOL0     C68236   5.735   0.459   8.560 -0.0726  0.2398 -0.9228
  506MOL0     C68237   5.599   0.427   8.634 -0.3152  0.0023  0.5062
  506MOL0     C68238   5.650   0.356   8.758  0.2840  0.8460 -0.5594
  506MOL0     C68239   5.531   0.322   8.842  0.3529 -0.6331  0.8080
  506MOL0     C68240   5.444   0.287   8.916 -0.0749  0.2317 -0.4058
  506MOL0     C68241   6.033   0.629   8.466 -0.0106  0.9836  0.8825
  506MOL0     C68242   6.121   0.731   8.495 -0.2310 -0.3767  0.6092
  506MOL0     H68243   6.357   1.243   8.308 -0.0510 -0.5259 -0.3839
  506MOL0     H68244   6.500   1.417   8.408 -1.2422  1.5156  0.6548
  506MOL0     H68245   6.654   1.566   8.779  1.3530 -1.1220 -0.0920
  506MOL0     H68246   6.548   1.431   8.843 -1.4080 -1.6498 -1.2766
  506MOL0     H68247   6.779   1.340   8.833  3.8500  0.6837 -1.3835
  506MOL0     H68248   6.692   1.274   8.702  1.5827 -1.3301 -0.7489
  506MOL0     H68249   6.776   1.424   8.543 -0.4863  0.9949  0.5964
  506MOL0     H68250   6.849   1.532   8.665  1.1709 -0.9539  1.0714
  506MOL0     H68251   7.024   1.371   8.731  2.7014  1.5554 -2.5115
  506MOL0     H68252   6.950   1.256   8.615  0.0695  0.5778 -1.9838
  506MOL0     H68253   6.980   1.407   8.435 -2.3385 -3.1485  2.0388
  506MOL0     H68254   7.044   1.531   8.535 -1.7018  0.6939 -2.2756
  506MOL0     H68255   7.237   1.413   8.431 -0.3059 -0.7492 -0.7176
  506MOL0     H68256   7.222   1.336   8.599 -0.9074  1.6988  0.3670
  506MOL0     H68257   7.129   1.138   8.498 -1.7380 -1.2674 -1.2250
  506MOL0     H68258   7.110   1.219   8.340  1.7053  0.2266 -0.9027
  506MOL0     H68259   7.332   1.219   8.291  0.7942 -1.3884 -0.7231
  506MOL0     H68260   7.295   1.057   8.366  5.7909 -0.0343  1.8469
  506MOL0     H68261   7.360   1.062   8.647 -0.2534 -1.1084 -1.7050
  506MOL0     H68262   7.586   1.033   8.788  1.0846 -0.8382 -2.1071
  506MOL0     H68263   7.721   1.139   8.742 -0.1373 -3.2973 -0.7665
  506MOL0     H68264   7.618   1.204   8.952  0.4162 -3.0071 -0.2408
  506MOL0     H68265   7.454   1.197   8.876 -0.2261  0.2241  1.4937
  506MOL0     H68266   7.500   1.440   8.876  0.0107  0.6590 -0.2823
  506MOL0     H68267   7.521   1.385   8.718  0.5971 -2.2525  0.5340
  506MOL0     H68268   7.699   1.547   8.810  0.6868 -0.4008  0.4365
  506MOL0     H68269   7.775   1.396   8.741 -2.4196 -2.5957 -1.8457
  506MOL0     H68270   7.926   1.563   8.823  1.8569  2.6506 -0.6183
  506MOL0     H68271   8.164   1.788   8.896 -3.8345 -2.0076  1.7189
  506MOL0     H68272   8.268   1.655   8.846 -0.6075  0.2774 -0.8506
  506MOL0     H68273   8.117   1.678   8.754  2.9346 -1.2649 -2.7387
  506MOL0     H68274   8.266   1.716   9.542 -0.0547 -1.0805 -1.7918
  506MOL0     H68275   8.192   1.920   9.672 -2.6717 -2.1699  1.5364
  506MOL0     H68276   7.982   2.247   9.443  0.7376  2.2520  1.4929
  506MOL0     H68277   7.840   2.147   9.510 -0.3634 -0.8487  3.6936
  506MOL0     H68278   8.020   2.358   9.653 -1.1394  0.8165  1.7995
  506MOL0     H68279   7.851   2.374   9.605  0.1867 -0.8184 -0.0214
  506MOL0     H68280   7.886   2.342   9.851  0.4443 -3.2291  4.1440
  506MOL0     H68281   7.958   2.192   9.821  1.0412  1.1181 -0.4638
  506MOL0     H68282   7.661   2.291   9.801  1.2096  1.4277 -2.6290
  506MOL0     H68283   7.710   2.138   9.737 -0.3369  0.3921  1.0999
  506MOL0     H68284   7.773   2.055   9.958 -1.5997 -1.0305  0.0179
  506MOL0     H68285   7.611   2.130   9.975 -0.3090  0.4112  1.2548
  506MOL0     H68286   7.867   2.269  10.067 -0.8221 -0.7657 -0.5880
  506MOL0     H68287   7.703   2.322  10.087  0.6962  0.5189  0.5481
  506MOL0     H68288   7.665   2.129  10.243 -0.7528  2.9405 -0.7824
  506MOL0     H68289   7.804   2.232  10.277 -1.1279  1.3618 -1.2973
  506MOL0     H68290   7.961   2.078  10.234  0.0843 -0.1719  3.5024
  506MOL0     H68291   7.839   1.948  10.172 -1.2449 -0.1526  1.0676
  506MOL0     H68292   7.947   2.024   9.327 -0.2452 -1.8283 -0.9569
  506MOL0     H68293   8.026   1.835   9.219  1.7167 -0.2812 -0.0214
  506MOL0     H68294   8.080   1.486   9.274  1.1923  0.1520 -0.0684
  506MOL0     H68295   7.864   1.390   9.184 -0.4760 -1.5388 -2.6021
  506MOL0     H68296   6.340   1.370   8.797  1.1307  1.1504 -0.7789
  506MOL0     H68297   6.203   1.166   8.705  3.0919 -2.0987  2.6430
  506MOL0     H68298   5.986   1.009   8.372  2.8887 -0.4642 -1.4126
  506MOL0     H68299   5.794   0.853   8.343  0.1040  1.3404  1.1503
  506MOL0     H68300   5.670   0.653   8.481 -3.4870 -2.4110  0.8987
  506MOL0     H68301   5.633   0.527   8.382  1.3120 -0.1543 -2.2725
  506MOL0     H68302   5.808   0.497   8.633 -0.0440 -0.7032 -0.4510
  506MOL0     H68303   5.773   0.369   8.511  0.5711  0.3303 -0.6112
  506MOL0     H68304   5.532   0.361   8.578  2.0300 -1.1087 -1.1077
  506MOL0     H68305   5.551   0.520   8.668  1.8890  1.9968 -1.5042
  506MOL0     H68306   5.720   0.416   8.818 -0.9752 -1.6981  3.9177
  506MOL0     H68307   5.703   0.267   8.723  0.6359  1.3495 -1.3548
  506MOL0     H68308   5.370   0.267   8.992  1.1330  2.2242  1.4041
  506MOL0     H68309   6.055   0.529   8.502  5.4255  1.7777  0.5616
  506MOL0     H68310   6.207   0.700   8.553 -1.2156 -1.1760  1.6924
  507MOL0     O68311  10.083  10.982   1.957 -0.7781  0.1366  0.3480
  507MOL0     C68312   9.989  10.906   1.936  0.0991  0.1194  0.0150
  507MOL0     O68313   9.856  10.930   1.965  0.0540  0.4805  0.2167
  507MOL0     C68314   9.800  11.052   1.966 -0.8036  0.0618  0.3113
  507MOL0     C68315   9.701  11.071   2.068  0.8021 -0.3521  0.1072
  507MOL0     C68316   9.634  11.197   2.079  0.1877  0.3796 -0.1961
  507MOL0     C68317   9.636  11.286   1.972 -0.1335  0.0523  0.3093
  507MOL0     O68318   9.586  11.410   1.956 -0.0919  0.4906  0.5698
  507MOL0     C68319   9.471  11.435   2.035 -0.3555 -0.5144 -0.6643
  507MOL0     C68320   9.408  11.549   1.971  0.7097  0.1701  0.2468
  507MOL0     C68321   9.337  11.654   2.062 -0.3197  0.2872 -0.8188
  507MOL0     C68322   9.417  11.779   2.092 -0.5981 -0.0540  0.0387
  507MOL0     C68323   9.358  11.864   2.193  0.0915  0.1757 -0.5553
  507MOL0     C68324   9.459  11.974   2.238  0.0185  0.1008  0.2519
  507MOL0     C68325   9.401  12.081   2.329 -0.2476  0.8130 -0.2334
  507MOL0     C68326   9.332  12.034   2.453 -0.2200 -0.0449  0.2420
  507MOL0     N68327   9.191  12.091   2.475 -0.1921 -0.9056  0.5590
  507MOL0     C68328   9.153  12.181   2.571 -1.1666 -0.3296 -1.0716
  507MOL0     C68329   9.028  12.216   2.532 -1.1638  0.5719  1.2686
  507MOL0     C68330   8.927  12.286   2.615  0.7467  1.0210 -0.0488
  507MOL0     C68331   8.804  12.337   2.535  0.5472  0.1829  0.7583
  507MOL0     C68332   8.677  12.335   2.632 -0.6428  0.4795  0.4409
  507MOL0     C68333   8.546  12.335   2.556  0.6464  0.6881 -0.8812
  507MOL0     O68334   8.508  12.197   2.528  0.1632 -0.3175  0.2669
  507MOL0     C68335   8.476  12.115   2.638 -0.1622 -0.2613 -0.5303
  507MOL0     C68336   8.417  12.163   2.756 -0.6309 -0.4711 -0.6508
  507MOL0     C68337   8.388  12.088   2.869  0.4893 -0.3765  0.4525
  507MOL0     C68338   8.309  12.151   2.984  0.7166 -1.1861 -0.6961
  507MOL0     C68339   8.439  11.953   2.860  1.0761  0.6213  0.2215
  507MOL0     C68340   8.411  11.853   2.967 -0.6834 -0.3597  0.1573
  507MOL0     O68341   8.499  11.758   2.998 -0.6878  0.5882 -0.3238
  507MOL0     C68342   8.479  11.650   3.079  0.8167 -0.2859 -0.8647
  507MOL0     C68343   8.537  11.542   3.032  0.1152  0.1623  1.0442
  507MOL0     C68344   8.538  11.420   3.106  0.2043  0.2890 -0.0378
  507MOL0     C68345   8.475  11.415   3.236  0.5577 -0.4604  0.0816
  507MOL0     O68346   8.464  11.293   3.297 -0.1486  0.4394 -0.2904
  507MOL0     C68347   8.379  11.293   3.413 -0.4777  0.7667 -0.3600
  507MOL0     C68348   8.395  11.148   3.476 -0.6964  0.1161 -0.7605
  507MOL0     C68349   8.354  11.133   3.624 -0.2075  0.5419 -0.2008
  507MOL0     C68350   8.462  11.189   3.717  0.3773 -0.5592  0.0863
  507MOL0     C68351   8.418  11.209   3.860  0.6277 -0.5349 -0.5528
  507MOL0     C68352   8.353  11.085   3.916  0.2197  0.8269 -0.1488
  507MOL0     C68353   8.444  10.966   3.956  1.2272 -0.7398  0.1111
  507MOL0     C68354   8.374  10.862   4.051  0.3724  0.1743  0.5205
  507MOL0    Cl68355   8.460  10.715   4.050 -0.0485 -0.3555  0.2213
  507MOL0     C68356   8.422  11.538   3.289 -1.0340  0.5373 -0.1670
  507MOL0     C68357   8.422  11.654   3.210 -0.3129  0.5644 -0.2414
  507MOL0     O68358   8.306  11.860   3.019 -0.2245  0.4256  0.7672
  507MOL0     C68359   8.504  11.898   2.752  0.1200  0.3530  0.3953
  507MOL0     C68360   8.519  11.981   2.641  0.0988 -0.4372 -0.6482
  507MOL0     N68361   8.981  12.130   2.441  0.1542  0.1912  0.9856
  507MOL0     N68362   9.075  12.058   2.410 -0.1784  0.3725  0.8770
  507MOL0     C68363   9.720  11.250   1.860 -0.3214 -0.4218  0.7306
  507MOL0     C68364   9.796  11.136   1.856  0.1280  0.1089 -0.0167
  507MOL0     C68365  10.022  10.773   1.895 -0.4577  0.0640  0.2339
  507MOL0     C68366  10.162  10.735   1.902 -0.3043  0.4343  0.6232
  507MOL0     C68367  10.189  10.602   1.869  0.7155  0.5810  0.7420
  507MOL0     C68368  10.093  10.504   1.827  0.1050  0.5310  0.8150
  507MOL0     O68369  10.124  10.381   1.786 -0.2895 -0.0818  0.4621
  507MOL0     C68370  10.246  10.320   1.824  0.6741 -0.5916 -0.2160
  507MOL0     C68371  10.219  10.176   1.832 -0.0149 -0.0390 -1.1051
  507MOL0     C68372  10.184  10.094   1.704 -0.3995 -0.5766  0.5752
  507MOL0     C68373  10.201   9.938   1.710 -0.7716 -0.6231 -0.1349
  507MOL0     C68374  10.148   9.875   1.833  0.0916 -0.5447  0.2717
  507MOL0     C68375  10.109   9.837   1.944 -0.1580  0.1691  0.7751
  507MOL0     C68376   9.964  10.539   1.821 -0.1655 -0.9590 -0.0992
  507MOL0     C68377   9.926  10.671   1.859  0.1712  0.8300 -0.8981
  507MOL0     H68378   9.681  10.999   2.146 -0.8482  0.2837  0.3138
  507MOL0     H68379   9.588  11.211   2.176  1.9587 -0.2584  0.7890
  507MOL0     H68380   9.391  11.362   2.050 -1.1410  0.5693  0.6584
  507MOL0     H68381   9.503  11.465   2.135  0.4914 -0.2584 -1.0032
  507MOL0     H68382   9.474  11.603   1.903  0.2656  0.6912  0.2232
  507MOL0     H68383   9.340  11.506   1.897  2.3016  0.5082 -1.4797
  507MOL0     H68384   9.238  11.672   2.019 -1.9380  0.9566  2.8275
  507MOL0     H68385   9.314  11.606   2.158 -1.1456 -0.7574 -1.5111
  507MOL0     H68386   9.519  11.749   2.116 -0.7922 -1.9369 -1.2337
  507MOL0     H68387   9.434  11.835   2.000  0.7014 -1.2607 -0.4919
  507MOL0     H68388   9.266  11.907   2.153  0.3138 -0.0973 -1.3751
  507MOL0     H68389   9.329  11.817   2.288  0.0567  2.0335  0.3949
  507MOL0     H68390   9.537  11.933   2.303 -1.2709  0.1622  1.8986
  507MOL0     H68391   9.495  12.016   2.143  0.7906 -2.5877 -0.7449
  507MOL0     H68392   9.477  12.144   2.376  0.5457 -0.1913 -0.1209
  507MOL0     H68393   9.343  12.153   2.271  1.3028  1.1288 -1.4427
  507MOL0     H68394   9.393  12.041   2.544 -1.2316  2.1351  0.8122
  507MOL0     H68395   9.315  11.926   2.447 -3.3875  0.3344  0.5052
  507MOL0     H68396   9.204  12.226   2.656 -0.7089  0.4650 -1.7537
  507MOL0     H68397   8.893  12.217   2.693 -0.2104  1.2183 -0.2754
  507MOL0     H68398   8.971  12.367   2.675 -3.7812  2.4312  1.8187
  507MOL0     H68399   8.775  12.262   2.460  0.8760  1.2407 -0.4713
  507MOL0     H68400   8.815  12.441   2.503 -1.7400  0.9684  2.3170
  507MOL0     H68401   8.684  12.431   2.684  0.0222  0.1068  1.0568
  507MOL0     H68402   8.682  12.248   2.697  0.5687  0.7720  0.7721
  507MOL0     H68403   8.532  12.384   2.459 -1.1607 -3.2399 -2.8473
  507MOL0     H68404   8.470  12.378   2.623 -0.5488 -1.0409 -1.0623
  507MOL0     H68405   8.389  12.267   2.765 -3.3215 -1.2747  2.7752
  507MOL0     H68406   8.316  12.260   2.996  2.4571 -1.1963 -1.3088
  507MOL0     H68407   8.205  12.119   2.988  0.4919 -0.5109 -0.9151
  507MOL0     H68408   8.365  12.131   3.076 -0.1977  5.3225  1.8761
  507MOL0     H68409   8.589  11.555   2.937 -1.0302 -0.8300  0.2480
  507MOL0     H68410   8.569  11.325   3.064 -0.0298  0.5810 -0.9033
  507MOL0     H68411   8.424  11.363   3.483  0.9288 -1.8988  1.5562
  507MOL0     H68412   8.274  11.318   3.394 -0.6544  1.0464  0.9174
  507MOL0     H68413   8.337  11.079   3.414 -3.8349 -1.9429  3.8625
  507MOL0     H68414   8.499  11.113   3.474 -0.7084 -0.4480  2.7137
  507MOL0     H68415   8.353  11.026   3.647  2.1610  0.7693  1.3325
  507MOL0     H68416   8.256  11.175   3.646 -0.1399 -0.4703  2.3294
  507MOL0     H68417   8.548  11.121   3.709  2.9884  2.5807 -0.6782
  507MOL0     H68418   8.491  11.291   3.692 -2.2355  0.1621 -0.3175
  507MOL0     H68419   8.337  11.280   3.849 -0.3936 -1.4883  0.5318
  507MOL0     H68420   8.496  11.260   3.918  0.5628 -1.0656  0.0190
  507MOL0     H68421   8.296  11.116   4.004  0.5122  1.1380 -0.0657
  507MOL0     H68422   8.270  11.058   3.850 -3.2801  3.1144  2.8685
  507MOL0     H68423   8.536  10.999   4.006 -0.5145 -2.3191  4.9813
  507MOL0     H68424   8.487  10.918   3.868  3.3391  2.7541 -0.9530
  507MOL0     H68425   8.272  10.848   4.015  1.4648 -2.4540 -1.9289
  507MOL0     H68426   8.381  10.899   4.154  0.1458 -1.1370  1.0329
  507MOL0     H68427   8.358  11.552   3.375 -3.1981  2.8864 -2.0175
  507MOL0     H68428   8.399  11.752   3.250  3.4089  0.6825  2.0267
  507MOL0     H68429   8.554  11.802   2.761 -0.7299  0.0447  2.1981
  507MOL0     H68430   8.577  11.935   2.562  1.7127  1.5865 -0.7175
  507MOL0     H68431   9.717  11.313   1.772 -1.2022  1.3538  1.9566
  507MOL0     H68432   9.841  11.104   1.762 -1.4425 -0.1889 -0.7063
  507MOL0     H68433  10.248  10.795   1.929  0.4108  0.0510 -0.7395
  507MOL0     H68434  10.292  10.569   1.876 -0.3719 -2.9384  2.0956
  507MOL0     H68435  10.326  10.347   1.754 -2.3194  2.7860 -2.7264
  507MOL0     H68436  10.276  10.362   1.921  2.2884  0.7120 -1.2264
  507MOL0     H68437  10.145  10.161   1.912  2.8684 -1.1262  1.5578
  507MOL0     H68438  10.304  10.127   1.880 -1.8778 -1.6813  0.7746
  507MOL0     H68439  10.245  10.141   1.626 -0.4812  1.8313  1.8704
  507MOL0     H68440  10.077  10.109   1.690 -0.1703  1.8194  0.9614
  507MOL0     H68441  10.305   9.905   1.701 -1.0648 -1.1556 -2.2172
  507MOL0     H68442  10.149   9.898   1.622 -3.8629  0.6521  0.9858
  507MOL0     H68443  10.066   9.792   2.031 -3.1883  2.2419  0.4907
  507MOL0     H68444   9.882  10.487   1.772  0.4079 -1.3536 -0.6555
  507MOL0     H68445   9.819  10.690   1.853  0.5744  3.4270 -0.8703
  508MOL0     O68446   8.102   5.321   0.500 -0.1308  0.8541 -0.4703
  508MOL0     C68447   8.180   5.405   0.457  1.1273  0.3012  0.2336
  508MOL0     O68448   8.265   5.481   0.528  0.7163  0.0862  0.2026
  508MOL0     C68449   8.286   5.464   0.662  0.1468  0.3425  0.1576
  508MOL0     C68450   8.346   5.566   0.728 -0.5476 -0.7942 -0.4977
  508MOL0     C68451   8.386   5.560   0.867  0.0597 -0.3201 -0.7335
  508MOL0     C68452   8.353   5.449   0.946 -1.2156  0.6560  0.0554
  508MOL0     O68453   8.400   5.448   1.079 -0.6705 -0.4829  0.1375
  508MOL0     C68454   8.303   5.401   1.181  0.4413 -0.6117  0.3161
  508MOL0     C68455   8.302   5.488   1.295  0.0788 -0.0504  0.5835
  508MOL0     C68456   8.239   5.634   1.285  0.9419  0.9922 -0.7204
  508MOL0     C68457   8.341   5.746   1.233 -0.0912  0.2018 -0.2841
  508MOL0     C68458   8.421   5.817   1.342 -0.3634 -0.1559  0.4642
  508MOL0     C68459   8.500   5.925   1.269  0.5598  0.6219 -0.5339
  508MOL0     C68460   8.589   5.997   1.367 -0.3300  0.0482  0.1159
  508MOL0     C68461   8.716   5.925   1.407 -1.1132  0.2661 -0.2057
  508MOL0     N68462   8.795   6.018   1.485  1.1023 -0.6133 -0.5119
  508MOL0     C68463   8.791   6.024   1.619  0.4643 -1.4283 -0.1662
  508MOL0     C68464   8.912   6.088   1.654  1.3235  0.0423 -0.6632
  508MOL0     C68465   8.960   6.092   1.803 -0.3216 -0.4453  0.2547
  508MOL0     C68466   9.048   6.212   1.820 -0.3473 -0.0129  0.8603
  508MOL0     C68467   8.991   6.356   1.799 -1.0140  0.3190 -0.1335
  508MOL0     C68468   9.059   6.461   1.877  0.5519 -0.1950  0.0205
  508MOL0     O68469   9.078   6.443   2.016 -0.0730 -0.1089 -0.0463
  508MOL0     C68470   9.161   6.517   2.094  1.6859  0.1088 -0.4430
  508MOL0     C68471   9.185   6.478   2.220 -0.0015  0.6783 -0.1293
  508MOL0     C68472   9.291   6.533   2.302  0.9168  0.9533  0.3552
  508MOL0     C68473   9.323   6.471   2.431  0.5832 -0.5226  0.5460
  508MOL0     C68474   9.362   6.645   2.247  0.6440 -0.2094 -0.6806
  508MOL0     C68475   9.459   6.730   2.325 -0.7020 -0.1675 -0.2989
  508MOL0     O68476   9.495   6.849   2.275 -0.4106  0.3062  0.0372
  508MOL0     C68477   9.602   6.917   2.331  0.0230  0.8171  0.0561
  508MOL0     C68478   9.575   7.045   2.366 -0.2277  0.1594 -0.9307
  508MOL0     C68479   9.672   7.136   2.408 -0.1262  0.4272 -1.6864
  508MOL0     C68480   9.807   7.092   2.413 -0.2527 -0.1784  0.3003
  508MOL0     O68481   9.909   7.175   2.457 -0.4630 -0.5011 -0.3168
  508MOL0     C68482   9.912   7.304   2.389 -0.3304 -0.6009 -0.2261
  508MOL0     C68483   9.981   7.416   2.466 -0.2293  0.3204  0.4011
  508MOL0     C68484  10.131   7.433   2.439  0.2855  0.0524 -0.5690
  508MOL0     C68485  10.226   7.315   2.479 -0.7464 -0.8258  0.2516
  508MOL0     C68486  10.207   7.249   2.617  0.4309 -0.1610  0.0120
  508MOL0     C68487  10.294   7.120   2.636  0.1894 -0.6693  0.2405
  508MOL0     C68488  10.346   7.088   2.777  1.1517  0.4754  0.1768
  508MOL0     C68489  10.430   6.969   2.778 -1.2415 -0.5216 -0.6477
  508MOL0    Cl68490  10.465   6.924   2.952  0.1560 -0.0105  0.0698
  508MOL0     C68491   9.843   6.961   2.369 -0.1248  0.0256 -0.2129
  508MOL0     C68492   9.741   6.876   2.336  0.1208  0.4156 -0.5623
  508MOL0     O68493   9.513   6.687   2.422  0.2490  0.0134 -1.0884
  508MOL0     C68494   9.327   6.691   2.125  1.0729 -0.4728  0.7266
  508MOL0     C68495   9.232   6.628   2.046 -1.4973 -1.1159 -0.1458
  508MOL0     N68496   8.973   6.114   1.529  0.0462 -0.1042 -0.7118
  508MOL0     N68497   8.907   6.070   1.436  0.0360 -0.3737  0.3027
  508MOL0     C68498   8.286   5.343   0.879 -0.3830 -0.3305 -0.0602
  508MOL0     C68499   8.254   5.349   0.741 -0.1616  0.3366  0.8533
  508MOL0     C68500   8.172   5.426   0.313 -0.0425 -0.7377 -0.4892
  508MOL0     C68501   8.089   5.351   0.223 -1.2848  0.9174 -0.4708
  508MOL0     C68502   8.083   5.370   0.090  0.1446  0.1256 -0.3776
  508MOL0     C68503   8.161   5.465   0.040 -0.3349  0.3291  0.4008
  508MOL0     O68504   8.162   5.487  -0.096 -0.2715  0.0103 -0.1342
  508MOL0     C68505   8.050   5.433  -0.171 -0.3328 -0.5099 -0.1812
  508MOL0     C68506   8.053   5.490  -0.311 -0.4899 -0.2101  0.3955
  508MOL0     C68507   8.184   5.444  -0.393 -0.6074  0.8341  0.2121
  508MOL0     C68508   8.206   5.292  -0.405  1.0458 -0.2032  0.1560
  508MOL0     C68509   8.104   5.237  -0.489  0.5185  0.8684 -0.9338
  508MOL0     C68510   8.040   5.175  -0.570  0.0686  0.0637  0.0212
  508MOL0     C68511   8.246   5.542   0.120 -0.0108 -0.9122  0.3209
  508MOL0     C68512   8.254   5.523   0.253 -0.5399 -0.8553  0.0599
  508MOL0     H68513   8.365   5.651   0.663 -1.0173  2.0893  2.7988
  508MOL0     H68514   8.427   5.658   0.891 -3.1174  1.7103 -2.8357
  508MOL0     H68515   8.200   5.399   1.145  1.3047  1.3179 -2.6571
  508MOL0     H68516   8.330   5.299   1.209 -0.4858 -1.8711 -2.9034
  508MOL0     H68517   8.241   5.437   1.370 -0.3702  0.4208  0.5464
  508MOL0     H68518   8.406   5.492   1.330  0.6942  0.5680 -1.1903
  508MOL0     H68519   8.158   5.627   1.211 -0.7578  2.3809  0.8945
  508MOL0     H68520   8.206   5.674   1.382  3.7554  0.8052  0.3925
  508MOL0     H68521   8.418   5.700   1.171  0.4949  0.1134  0.4939
  508MOL0     H68522   8.284   5.820   1.176 -1.7766 -1.0580 -0.3121
  508MOL0     H68523   8.354   5.862   1.416 -2.6278  3.4122 -3.3025
  508MOL0     H68524   8.495   5.754   1.392 -0.1426 -0.5858 -0.3827
  508MOL0     H68525   8.563   5.877   1.194 -1.1377 -0.8813 -1.0517
  508MOL0     H68526   8.412   5.977   1.230 -0.6901 -3.4223 -3.7795
  508MOL0     H68527   8.618   6.089   1.315 -1.4120  0.3598  0.0440
  508MOL0     H68528   8.525   6.024   1.451  0.3627 -0.6891  0.9122
  508MOL0     H68529   8.778   5.898   1.321 -2.4945 -0.4235 -1.0414
  508MOL0     H68530   8.701   5.829   1.456 -0.7593 -2.0420 -4.1722
  508MOL0     H68531   8.719   5.978   1.687 -1.2178 -0.5050 -1.2678
  508MOL0     H68532   8.874   6.097   1.870 -0.9768  2.6510 -0.6911
  508MOL0     H68533   9.012   5.997   1.822 -2.0094 -1.1164  1.8042
  508MOL0     H68534   9.136   6.200   1.756 -0.2919 -1.0091  1.0969
  508MOL0     H68535   9.088   6.200   1.921  1.9944  0.3285  0.0268
  508MOL0     H68536   8.884   6.359   1.819 -1.2851 -0.8474 -1.2833
  508MOL0     H68537   9.012   6.382   1.694 -0.4745 -1.6895 -0.5639
  508MOL0     H68538   9.017   6.561   1.864 -0.7815 -1.0168 -2.7229
  508MOL0     H68539   9.151   6.457   1.818  0.7152 -1.5589  0.3363
  508MOL0     H68540   9.140   6.388   2.260  0.9023 -0.0406 -0.7129
  508MOL0     H68541   9.423   6.429   2.417  3.2186  4.2100  2.6836
  508MOL0     H68542   9.325   6.538   2.517 -1.8655  1.2816 -0.6839
  508MOL0     H68543   9.257   6.387   2.458  2.1886 -1.5923  1.3205
  508MOL0     H68544   9.468   7.068   2.364 -0.5965 -1.4008 -0.4082
  508MOL0     H68545   9.645   7.233   2.448 -0.4196  0.1400 -1.1724
  508MOL0     H68546   9.962   7.304   2.291  0.6280  0.9464  0.2347
  508MOL0     H68547   9.809   7.339   2.384  0.0664  0.5303 -0.7493
  508MOL0     H68548   9.931   7.510   2.439  0.5366  1.0366  1.4133
  508MOL0     H68549   9.970   7.388   2.571 -4.1886 -0.9882 -0.2001
  508MOL0     H68550  10.164   7.526   2.486  2.9089 -0.0863 -1.9263
  508MOL0     H68551  10.148   7.458   2.334  0.7926 -3.3329 -1.4194
  508MOL0     H68552  10.204   7.242   2.401  2.8209 -0.3266 -1.4206
  508MOL0     H68553  10.333   7.339   2.473 -1.2044  1.6444  0.8227
  508MOL0     H68554  10.103   7.225   2.641  0.2383  0.8813  0.2646
  508MOL0     H68555  10.238   7.320   2.694  1.0779 -0.4458  0.0257
  508MOL0     H68556  10.230   7.041   2.597 -3.6728  3.2122 -2.1823
  508MOL0     H68557  10.372   7.128   2.560 -0.3658  2.0466 -0.1296
  508MOL0     H68558  10.252   7.080   2.832  0.7741 -0.3007 -0.5505
  508MOL0     H68559  10.402   7.173   2.816  0.1652  0.4406  1.7698
  508MOL0     H68560  10.524   6.993   2.727  0.5544 -0.2228  2.5515
  508MOL0     H68561  10.378   6.885   2.732 -1.2935  0.0311 -1.6359
  508MOL0     H68562   9.947   6.931   2.371  0.2448  1.2012  2.3884
  508MOL0     H68563   9.770   6.773   2.313  2.3409  0.2967  2.1987
  508MOL0     H68564   9.360   6.780   2.073  1.4027 -1.0736 -0.1109
  508MOL0     H68565   9.210   6.665   1.946 -1.5535 -0.8172 -0.0226
  508MOL0     H68566   8.260   5.260   0.943 -3.8830  0.3585 -0.4244
  508MOL0     H68567   8.227   5.253   0.697 -0.3943  1.1443 -0.8336
  508MOL0     H68568   8.033   5.268   0.264  0.0731 -0.6363 -1.6184
  508MOL0     H68569   8.020   5.293   0.046  1.0510 -2.8862  3.1221
  508MOL0     H68570   8.068   5.325  -0.174  0.8338 -0.3231 -0.6098
  508MOL0     H68571   7.956   5.451  -0.118 -1.1488  0.9506 -2.0198
  508MOL0     H68572   8.053   5.599  -0.300 -1.1638 -0.0303 -1.1473
  508MOL0     H68573   7.964   5.462  -0.368 -0.0813  2.4629 -1.7940
  508MOL0     H68574   8.261   5.497  -0.336 -0.1839  0.8572 -0.3697
  508MOL0     H68575   8.174   5.487  -0.493 -0.6013 -1.3471 -0.7872
  508MOL0     H68576   8.216   5.248  -0.306 -2.1986 -0.5756  0.4303
  508MOL0     H68577   8.307   5.290  -0.448  0.6075  2.6692 -1.2796
  508MOL0     H68578   7.978   5.130  -0.645  0.0480 -0.8744  0.5935
  508MOL0     H68579   8.307   5.617   0.071 -1.8570  0.2588 -0.2603
  508MOL0     H68580   8.324   5.585   0.308  0.1866  1.0076 -2.7843
  509MOL0     O68581   2.217   3.852   6.557 -0.0900 -0.1178 -0.6415
  509MOL0     C68582   2.110   3.875   6.512  0.1614 -0.4619 -0.5774
  509MOL0     O68583   2.084   3.952   6.400 -0.1894  0.0363  0.1133
  509MOL0     C68584   2.178   4.029   6.346  0.1434  0.0745  0.9620
  509MOL0     C68585   2.265   3.973   6.258 -0.1658 -0.5058  0.5080
  509MOL0     C68586   2.350   4.053   6.175 -0.1527 -0.3612 -1.0012
  509MOL0     C68587   2.353   4.197   6.191  0.5514  0.4563  0.4575
  509MOL0     O68588   2.434   4.278   6.121  0.2167  0.3201  0.3989
  509MOL0     C68589   2.502   4.214   6.009 -0.6402 -0.3182 -0.1998
  509MOL0     C68590   2.580   4.320   5.933  0.0089 -0.9554  1.0984
  509MOL0     C68591   2.706   4.360   6.003 -0.4144 -0.6287 -0.2819
  509MOL0     C68592   2.739   4.508   5.974 -0.5792 -0.5449 -0.4724
  509MOL0     C68593   2.860   4.492   5.876 -0.1785 -0.3021 -0.7637
  509MOL0     C68594   2.931   4.628   5.873 -0.2802 -0.0172  0.2226
  509MOL0     C68595   3.048   4.629   5.768 -0.0606  0.4020  0.5156
  509MOL0     C68596   3.080   4.781   5.729 -0.0468  0.3159 -0.0244
  509MOL0     N68597   3.221   4.778   5.694  0.1054  0.2567  0.3948
  509MOL0     C68598   3.330   4.792   5.787 -0.1189 -0.4295 -0.7486
  509MOL0     C68599   3.434   4.751   5.719 -0.2689  0.1479 -0.4681
  509MOL0     C68600   3.566   4.741   5.773 -0.3780 -0.7147  0.6794
  509MOL0     C68601   3.604   4.601   5.832  0.3542  0.0406 -0.5199
  509MOL0     C68602   3.760   4.600   5.852 -0.5680 -0.5939 -0.0476
  509MOL0     C68603   3.805   4.674   5.977  0.6011 -0.1298  0.1248
  509MOL0     O68604   3.824   4.574   6.077  0.0619 -0.8735  0.0597
  509MOL0     C68605   3.950   4.551   6.129 -0.1346 -0.8674  0.1335
  509MOL0     C68606   3.966   4.504   6.251 -0.8252  0.1453 -0.2975
  509MOL0     C68607   4.096   4.496   6.311 -0.1579 -0.2010  0.1041
  509MOL0     C68608   4.115   4.448   6.450  0.3732 -0.1116 -0.5977
  509MOL0     C68609   4.215   4.512   6.227  0.2682 -0.2378  0.7083
  509MOL0     C68610   4.346   4.493   6.269 -0.7761  0.0575 -0.2305
  509MOL0     O68611   4.371   4.357   6.292  0.1607 -0.3210  0.6528
  509MOL0     C68612   4.499   4.337   6.346 -0.8125  0.4370  0.1054
  509MOL0     C68613   4.598   4.239   6.299 -0.4756 -0.5749 -0.0065
  509MOL0     C68614   4.720   4.215   6.351 -0.0218 -0.0643  0.8309
  509MOL0     C68615   4.759   4.284   6.464 -0.5325 -0.1625  0.1455
  509MOL0     O68616   4.881   4.267   6.516 -0.4655 -0.3051 -0.4061
  509MOL0     C68617   4.881   4.241   6.658 -0.2503 -0.0722 -0.5258
  509MOL0     C68618   4.776   4.142   6.695 -0.4139 -0.3546 -0.3151
  509MOL0     C68619   4.758   4.103   6.843  0.3302 -0.5398  0.5763
  509MOL0     C68620   4.629   4.037   6.876 -1.2459  0.7679  0.0858
  509MOL0     C68621   4.618   3.973   7.016  0.4198 -1.5402  0.0975
  509MOL0     C68622   4.500   3.877   7.040  0.0117  1.7159  0.7734
  509MOL0     C68623   4.527   3.785   7.160  0.2411 -0.2496  0.6408
  509MOL0     C68624   4.424   3.668   7.148 -0.5415 -0.4390 -0.3146
  509MOL0    Cl68625   4.473   3.554   7.260 -0.4145  0.0184  0.0931
  509MOL0     C68626   4.658   4.367   6.526 -0.7039  0.0660 -0.2405
  509MOL0     C68627   4.532   4.390   6.466 -0.8299 -0.4334  0.7521
  509MOL0     O68628   4.426   4.584   6.276 -0.2973  0.2550 -0.5781
  509MOL0     C68629   4.193   4.541   6.095 -0.2146  0.9572 -0.8834
  509MOL0     C68630   4.063   4.557   6.052 -1.2502 -0.3685 -0.0789
  509MOL0     N68631   3.409   4.726   5.588  0.4097  0.0040 -0.2346
  509MOL0     N68632   3.279   4.715   5.578 -0.8439  0.1635  0.5574
  509MOL0     C68633   2.274   4.245   6.300 -0.8079 -0.6561 -0.2607
  509MOL0     C68634   2.188   4.159   6.373  0.7594  0.6382 -1.2807
  509MOL0     C68635   2.002   3.785   6.573  0.7575 -0.5518 -0.1878
  509MOL0     C68636   1.870   3.821   6.561  0.5970 -0.7566  0.1266
  509MOL0     C68637   1.766   3.731   6.593 -0.0752  0.3681 -0.0716
  509MOL0     C68638   1.794   3.599   6.647  0.2887 -0.5759  0.5844
  509MOL0     O68639   1.700   3.503   6.680  0.4594  0.7698  0.0295
  509MOL0     C68640   1.576   3.497   6.619 -0.0571  0.6633  0.4781
  509MOL0     C68641   1.512   3.360   6.613  0.1385 -0.4831  0.4844
  509MOL0     C68642   1.426   3.324   6.736  0.4311 -0.1627  0.5328
  509MOL0     C68643   1.506   3.302   6.868  0.8857 -0.5871  0.2567
  509MOL0     C68644   1.416   3.259   6.969  0.7245  0.6910 -1.0365
  509MOL0     C68645   1.342   3.222   7.055  0.3007  0.1122  0.6632
  509MOL0     C68646   1.929   3.572   6.650 -0.1074 -0.0340  0.1700
  509MOL0     C68647   2.035   3.661   6.625 -0.1672 -0.5628 -0.3886
  509MOL0     H68648   2.267   3.865   6.249  0.6999 -0.7049  2.5991
  509MOL0     H68649   2.417   4.000   6.108  0.9983 -1.3548  0.8809
  509MOL0     H68650   2.563   4.129   6.037 -0.3385  0.3062  1.1592
  509MOL0     H68651   2.432   4.174   5.936  3.3093 -0.2179 -4.4702
  509MOL0     H68652   2.604   4.276   5.835  0.2727 -0.1166  0.7731
  509MOL0     H68653   2.516   4.407   5.915 -2.3166 -2.9366 -0.9442
  509MOL0     H68654   2.676   4.367   6.108  0.7007  3.0721 -0.0740
  509MOL0     H68655   2.785   4.287   5.981 -0.2660 -0.4644 -0.2969
  509MOL0     H68656   2.657   4.575   5.945  0.4883  0.7794 -0.5413
  509MOL0     H68657   2.766   4.553   6.070  1.1357 -1.2168 -0.6100
  509MOL0     H68658   2.931   4.417   5.911 -0.2999  0.6631  1.7698
  509MOL0     H68659   2.821   4.456   5.781 -4.2473 -1.5155  1.1543
  509MOL0     H68660   2.854   4.697   5.836  1.0117  0.4104 -1.8499
  509MOL0     H68661   2.970   4.666   5.968 -1.2816  4.5191 -0.9077
  509MOL0     H68662   3.135   4.581   5.812  0.5579  1.9668  1.0678
  509MOL0     H68663   3.006   4.586   5.677  0.1940  1.5763 -0.1784
  509MOL0     H68664   3.065   4.857   5.806 -0.4353  0.9362 -0.7053
  509MOL0     H68665   3.011   4.799   5.647 -1.3282 -1.0518  0.7173
  509MOL0     H68666   3.326   4.823   5.891 -2.1367 -4.1824  0.4909
  509MOL0     H68667   3.637   4.758   5.692 -1.5558 -1.2122 -0.5002
  509MOL0     H68668   3.574   4.822   5.846 -0.8022 -0.7054  0.7180
  509MOL0     H68669   3.569   4.515   5.774 -4.2123  1.0974  0.2723
  509MOL0     H68670   3.555   4.590   5.930 -1.1965  0.3657 -1.2228
  509MOL0     H68671   3.798   4.651   5.763  1.1562  2.6898  2.3177
  509MOL0     H68672   3.801   4.499   5.857  0.1027 -0.2814  1.8531
  509MOL0     H68673   3.737   4.756   6.003  0.4346 -0.2525  0.0733
  509MOL0     H68674   3.900   4.716   5.942  1.2685 -0.7049  1.1580
  509MOL0     H68675   3.875   4.487   6.308 -0.7715 -1.2250 -0.5924
  509MOL0     H68676   4.103   4.340   6.463 -2.2928  0.5338  4.9265
  509MOL0     H68677   4.215   4.480   6.481 -0.2703  1.6119 -0.2180
  509MOL0     H68678   4.045   4.489   6.523  2.6052 -2.0760  2.9286
  509MOL0     H68679   4.570   4.198   6.202  2.2979  0.4357 -1.3330
  509MOL0     H68680   4.791   4.168   6.284 -1.6820  0.6737 -1.5558
  509MOL0     H68681   4.979   4.206   6.690 -0.7570 -1.9716 -0.9292
  509MOL0     H68682   4.864   4.337   6.708  4.4629  0.9178 -0.4273
  509MOL0     H68683   4.682   4.197   6.681  0.7302  1.2330 -2.2700
  509MOL0     H68684   4.785   4.048   6.640 -0.7458 -0.5074 -0.1105
  509MOL0     H68685   4.746   4.202   6.889 -5.0552 -0.2370 -0.7943
  509MOL0     H68686   4.840   4.041   6.880 -0.0571 -1.8242 -0.6271
  509MOL0     H68687   4.550   4.111   6.860 -1.2154  1.0107  1.0170
  509MOL0     H68688   4.616   3.961   6.799  0.1188  1.0568 -0.4677
  509MOL0     H68689   4.602   4.056   7.084  2.8527 -0.9568  0.0531
  509MOL0     H68690   4.711   3.921   7.040  2.6983  1.9685 -0.4224
  509MOL0     H68691   4.406   3.930   7.062  0.3505  2.3265  0.7662
  509MOL0     H68692   4.496   3.817   6.949 -0.9861  1.1838  1.1518
  509MOL0     H68693   4.519   3.845   7.251  1.2506 -0.4681  0.8894
  509MOL0     H68694   4.629   3.746   7.155  0.7489  1.1111 -0.1559
  509MOL0     H68695   4.428   3.623   7.049  0.6428 -2.2072  0.4824
  509MOL0     H68696   4.321   3.699   7.170 -0.0243  2.7516 -1.7951
  509MOL0     H68697   4.678   4.410   6.624 -1.6949  1.5273 -0.6381
  509MOL0     H68698   4.455   4.451   6.513 -0.0840 -0.6108  2.2526
  509MOL0     H68699   4.284   4.541   6.036  0.4468  1.1368  0.1019
  509MOL0     H68700   4.062   4.576   5.945  1.4601  3.5866  0.4056
  509MOL0     H68701   2.275   4.350   6.329 -2.6861 -0.7425  0.2072
  509MOL0     H68702   2.123   4.213   6.441  1.9798  1.8757 -1.0459
  509MOL0     H68703   1.843   3.923   6.536  0.8192 -0.7746 -0.1849
  509MOL0     H68704   1.660   3.753   6.601 -0.7183 -2.7452  1.1185
  509MOL0     H68705   1.498   3.561   6.662  0.8156  0.2306  2.8827
  509MOL0     H68706   1.568   3.527   6.514 -2.8659 -4.6011 -1.1958
  509MOL0     H68707   1.584   3.278   6.607 -1.4734 -1.8422 -2.0965
  509MOL0     H68708   1.440   3.372   6.531  1.6898  2.9452 -0.5558
  509MOL0     H68709   1.375   3.228   6.719 -2.0197  0.8518  1.6535
  509MOL0     H68710   1.344   3.393   6.758 -1.4706 -1.1803 -2.7316
  509MOL0     H68711   1.564   3.388   6.904 -1.8015  0.7371  1.7961
  509MOL0     H68712   1.581   3.224   6.852 -0.1619 -1.4404 -0.6274
  509MOL0     H68713   1.271   3.186   7.127  2.7370 -1.0975  2.6660
  509MOL0     H68714   1.953   3.469   6.674 -0.8186  0.2449  2.2466
  509MOL0     H68715   2.140   3.641   6.640 -0.1257  0.8750  1.5773
  510MOL0     O68716   7.301   5.112   8.180 -0.5375 -0.1622 -0.4156
  510MOL0     C68717   7.329   5.212   8.124  0.4508 -1.2395 -0.3378
  510MOL0     O68718   7.316   5.341   8.190  0.6936 -0.4281  0.0083
  510MOL0     C68719   7.290   5.352   8.330 -0.8325  1.0327 -0.6906
  510MOL0     C68720   7.184   5.427   8.374  0.5362 -0.1477  0.1127
  510MOL0     C68721   7.190   5.443   8.516  0.3789 -0.6469  0.2761
  510MOL0     C68722   7.272   5.390   8.607  0.5278 -0.5928 -1.4059
  510MOL0     O68723   7.230   5.397   8.742  0.0934  1.4109  0.3999
  510MOL0     C68724   7.206   5.263   8.798 -0.3678 -0.0560  0.2973
  510MOL0     C68725   7.058   5.229   8.779 -0.8055  0.6769  0.0406
  510MOL0     C68726   7.060   5.129   8.661  0.2564 -0.1134  1.2609
  510MOL0     C68727   7.126   4.994   8.688 -0.1707  1.1004  0.9508
  510MOL0     C68728   7.062   4.881   8.609  0.8930  0.5124 -0.1107
  510MOL0     C68729   7.052   4.921   8.463  0.3477 -0.0157  0.1724
  510MOL0     C68730   7.007   4.802   8.362 -0.9072 -0.6741 -0.2823
  510MOL0     C68731   7.039   4.837   8.218  0.3451  0.4833 -0.1288
  510MOL0     N68732   6.923   4.927   8.179 -0.9690  0.2835 -0.6551
  510MOL0     C68733   6.948   5.055   8.198  0.2244 -0.6836  0.0913
  510MOL0     C68734   6.842   5.124   8.134 -0.1150 -1.4131  0.2913
  510MOL0     C68735   6.820   5.278   8.126  0.5829 -0.1079  0.0389
  510MOL0     C68736   6.849   5.329   7.990  1.0921  0.6370 -0.3725
  510MOL0     C68737   6.995   5.308   7.943  0.1335 -0.9607  0.1528
  510MOL0     C68738   7.026   5.399   7.816 -0.6381 -0.3477  0.6983
  510MOL0     O68739   7.036   5.533   7.849  0.4088 -0.6111 -0.5659
  510MOL0     C68740   7.120   5.625   7.791  0.5230 -0.7203 -0.0431
  510MOL0     C68741   7.159   5.621   7.656  0.2735 -0.1875  0.0368
  510MOL0     C68742   7.233   5.723   7.594  0.0558 -0.1750 -0.2438
  510MOL0     C68743   7.254   5.697   7.446  0.6265 -0.7569 -0.4579
  510MOL0     C68744   7.258   5.840   7.668 -0.9647  0.0033  0.7006
  510MOL0     C68745   7.347   5.950   7.625 -0.4970  0.2121  0.1034
  510MOL0     O68746   7.451   5.917   7.539 -1.1545  0.0507 -0.7950
  510MOL0     C68747   7.554   6.014   7.528  0.1313  0.9445 -0.4227
  510MOL0     C68748   7.665   5.986   7.605 -0.4892  0.3290  0.1227
  510MOL0     C68749   7.771   6.078   7.603  0.2992  0.6277 -0.0579
  510MOL0     C68750   7.774   6.190   7.533 -0.1057  1.5115 -0.7971
  510MOL0     O68751   7.891   6.253   7.550 -0.1163  0.4687 -0.0722
  510MOL0     C68752   7.930   6.349   7.446 -0.0326  0.3255 -0.2627
  510MOL0     C68753   8.084   6.371   7.456  0.1908  0.3804 -0.4668
  510MOL0     C68754   8.162   6.263   7.399  0.5727 -0.0217 -0.2153
  510MOL0     C68755   8.162   6.273   7.247  0.0961 -1.3590  0.3012
  510MOL0     C68756   8.246   6.158   7.189 -0.0985  0.1464 -0.0362
  510MOL0     C68757   8.219   6.149   7.040 -0.9256  0.2044  0.4492
  510MOL0     C68758   8.081   6.096   7.002 -0.6074 -0.4556  0.7148
  510MOL0     C68759   8.079   6.061   6.852  0.3476  0.0838  0.2572
  510MOL0    Cl68760   7.904   6.044   6.812 -0.7217  0.2141  0.1402
  510MOL0     C68761   7.661   6.222   7.460  0.3268  0.6097  0.4249
  510MOL0     C68762   7.538   6.142   7.476  0.1450 -0.4159 -0.6059
  510MOL0     O68763   7.307   6.061   7.656  0.5545  0.0173 -0.0301
  510MOL0     C68764   7.194   5.855   7.794 -0.3913  0.2588  0.6221
  510MOL0     C68765   7.130   5.748   7.856 -1.3609  0.3152  0.2562
  510MOL0     N68766   6.770   5.015   8.073  1.1389 -0.1091  0.4421
  510MOL0     N68767   6.815   4.898   8.093 -0.4519 -0.2545 -0.0059
  510MOL0     C68768   7.385   5.316   8.561  0.0469 -0.0354  0.3592
  510MOL0     C68769   7.394   5.308   8.420 -0.6086  0.4420 -0.4965
  510MOL0     C68770   7.366   5.202   7.980 -0.3283 -0.7622  0.3635
  510MOL0     C68771   7.409   5.089   7.927  0.8896  0.2362  0.1211
  510MOL0     C68772   7.449   5.083   7.796  0.0587  0.5080  0.4729
  510MOL0     C68773   7.445   5.195   7.720 -0.4292 -0.2655  0.1635
  510MOL0     O68774   7.491   5.205   7.589 -0.0338  0.4569 -0.7609
  510MOL0     C68775   7.507   5.088   7.509  0.1947  0.3143  0.6120
  510MOL0     C68776   7.559   5.134   7.373 -0.6670  0.0994  0.1235
  510MOL0     C68777   7.599   5.013   7.279  0.0092  0.1959 -0.5038
  510MOL0     C68778   7.501   4.892   7.270  0.3553  0.8340  0.4838
  510MOL0     C68779   7.531   4.803   7.157  1.1781 -0.7241 -0.1951
  510MOL0     C68780   7.558   4.726   7.066 -1.0868  0.7766 -0.3278
  510MOL0     C68781   7.396   5.316   7.772 -0.4840  0.1612  0.7604
  510MOL0     C68782   7.357   5.320   7.904  0.2098 -0.2889  0.4659
  510MOL0     H68783   7.126   5.487   8.305  3.3658  0.7859 -1.6420
  510MOL0     H68784   7.130   5.527   8.549  0.2307  1.1304 -3.9048
  510MOL0     H68785   7.279   5.183   8.779  1.5103  1.8109 -0.7825
  510MOL0     H68786   7.211   5.288   8.904 -2.0174  1.3441  0.0985
  510MOL0     H68787   7.016   5.172   8.863 -2.1548 -0.6144 -1.4526
  510MOL0     H68788   7.004   5.323   8.767  0.9518  1.4655 -2.4281
  510MOL0     H68789   6.958   5.110   8.627  0.3219 -0.5482  1.2991
  510MOL0     H68790   7.117   5.177   8.581 -1.5182 -0.4064 -0.2566
  510MOL0     H68791   7.231   5.001   8.660 -0.2566 -1.6443 -0.4206
  510MOL0     H68792   7.115   4.970   8.794 -1.8412  0.6840  0.7203
  510MOL0     H68793   7.121   4.790   8.618  0.6129  0.0909 -2.1294
  510MOL0     H68794   6.967   4.851   8.655  2.6620  0.6389  4.0709
  510MOL0     H68795   6.970   4.992   8.452  0.9817  0.9066  1.2554
  510MOL0     H68796   7.145   4.971   8.434 -0.4415  1.7792  0.6310
  510MOL0     H68797   7.064   4.716   8.397 -1.1402 -2.1032 -3.1206
  510MOL0     H68798   6.903   4.772   8.370 -1.4277  1.1395  0.4185
  510MOL0     H68799   7.043   4.744   8.162  0.3042 -0.3394  1.1959
  510MOL0     H68800   7.135   4.889   8.204  1.3709 -1.0250  1.0644
  510MOL0     H68801   7.029   5.099   8.256  0.2451 -1.8835  1.0202
  510MOL0     H68802   6.718   5.300   8.159  0.2994 -0.5710 -0.5174
  510MOL0     H68803   6.890   5.328   8.194  0.8465  2.6150 -2.0574
  510MOL0     H68804   6.827   5.436   7.990  0.1839  0.5157  2.2875
  510MOL0     H68805   6.788   5.274   7.918 -0.8751  1.1157  0.8543
  510MOL0     H68806   6.993   5.207   7.903 -1.4133 -0.7620 -0.3144
  510MOL0     H68807   7.073   5.324   8.019  0.1400 -0.5195  0.0572
  510MOL0     H68808   6.970   5.390   7.723 -0.5324 -0.1547  0.6147
  510MOL0     H68809   7.126   5.373   7.779 -0.8048  1.1855 -0.9553
  510MOL0     H68810   7.112   5.542   7.598 -3.0093  0.2662  1.8557
  510MOL0     H68811   7.158   5.704   7.393 -0.0716  0.9159  0.9295
  510MOL0     H68812   7.321   5.777   7.412 -0.8313  1.2333  1.0639
  510MOL0     H68813   7.308   5.603   7.434  1.4558 -0.5181  1.1662
  510MOL0     H68814   7.660   5.894   7.662  0.8383 -0.1453 -0.4822
  510MOL0     H68815   7.859   6.052   7.661 -0.8069 -0.3030  1.2689
  510MOL0     H68816   7.896   6.317   7.347 -0.2850  1.2091 -0.4644
  510MOL0     H68817   7.875   6.441   7.467 -2.8575 -1.7401  2.2275
  510MOL0     H68818   8.108   6.469   7.415 -1.1898  2.0756  2.4834
  510MOL0     H68819   8.103   6.368   7.564  0.2354 -0.3364 -0.4906
  510MOL0     H68820   8.125   6.165   7.430 -0.0238 -0.1379 -1.2598
  510MOL0     H68821   8.268   6.276   7.423  1.2465  1.4492 -3.4132
  510MOL0     H68822   8.064   6.264   7.200 -0.7796 -0.3348  1.8479
  510MOL0     H68823   8.200   6.370   7.215  0.1916 -1.9081 -1.3775
  510MOL0     H68824   8.235   6.057   7.229  1.1547  0.1127  0.2653
  510MOL0     H68825   8.350   6.187   7.207 -0.5913  1.3079  1.0639
  510MOL0     H68826   8.239   6.248   6.997  2.3164 -0.5163  0.0680
  510MOL0     H68827   8.296   6.082   7.001 -0.6913 -1.7078  3.7660
  510MOL0     H68828   8.006   6.174   7.021  0.0576  0.3340  0.1552
  510MOL0     H68829   8.038   6.013   7.059 -1.5219 -0.8441 -0.4932
  510MOL0     H68830   8.135   5.967   6.845 -0.6415 -0.5893  1.0216
  510MOL0     H68831   8.130   6.132   6.786 -0.6465  0.2152 -0.3922
  510MOL0     H68832   7.661   6.326   7.428 -2.6267  0.1590 -1.3519
  510MOL0     H68833   7.439   6.168   7.440  0.2626  1.8791  0.5293
  510MOL0     H68834   7.215   5.938   7.861  1.2227  1.5011 -1.2921
  510MOL0     H68835   7.103   5.748   7.961  1.3052 -1.6762  1.0428
  510MOL0     H68836   7.462   5.263   8.616 -0.4347 -3.1118 -1.6690
  510MOL0     H68837   7.477   5.242   8.396 -0.5003 -0.5399  2.1890
  510MOL0     H68838   7.424   5.000   7.988  0.8456 -0.9459 -1.5148
  510MOL0     H68839   7.494   4.987   7.772  0.3846  1.1452 -1.6896
  510MOL0     H68840   7.576   5.017   7.555 -1.6517 -0.3022  2.6248
  510MOL0     H68841   7.414   5.031   7.497  0.9178 -0.3029 -3.5859
  510MOL0     H68842   7.644   5.197   7.399 -0.7368 -0.0444  0.7302
  510MOL0     H68843   7.477   5.188   7.325 -2.0811  0.9896  3.2950
  510MOL0     H68844   7.704   4.984   7.291  0.6719  1.2066 -3.1719
  510MOL0     H68845   7.597   5.070   7.185 -0.3185  3.3316  1.2401
  510MOL0     H68846   7.402   4.939   7.270 -0.7322 -1.3395  1.4673
  510MOL0     H68847   7.496   4.831   7.360 -1.4023  1.2847  0.7345
  510MOL0     H68848   7.573   4.675   6.973  0.3209  0.3372  0.1191
  510MOL0     H68849   7.396   5.406   7.713  0.4532  0.1172  0.6799
  510MOL0     H68850   7.310   5.410   7.943  0.1325 -0.4256  0.6822
  511MOL0     O68851   5.364   2.677  11.323  0.4894 -0.3072 -0.3105
  511MOL0     C68852   5.286   2.590  11.293  0.3093 -0.8067 -0.2576
  511MOL0     O68853   5.180   2.606  11.207  0.9067 -0.4390  0.6276
  511MOL0     C68854   5.136   2.734  11.185 -0.2976 -0.2510 -0.1526
  511MOL0     C68855   5.057   2.786  11.276  0.0721 -0.6452  1.2964
  511MOL0     C68856   5.014   2.919  11.264  0.0875 -0.1605 -0.7376
  511MOL0     C68857   5.061   2.995  11.159  0.6519  0.3943 -0.4432
  511MOL0     O68858   5.038   3.128  11.171  0.4218  0.0182 -0.0022
  511MOL0     C68859   4.974   3.187  11.051  0.8974  0.5580 -0.2366
  511MOL0     C68860   4.833   3.241  11.093 -0.0059 -0.6029 -0.3767
  511MOL0     C68861   4.736   3.226  10.980 -0.0040 -1.5191  0.2936
  511MOL0     C68862   4.599   3.287  11.029 -0.4482  0.7932 -0.8710
  511MOL0     C68863   4.490   3.253  10.927 -0.4800  0.5565 -0.0016
  511MOL0     C68864   4.357   3.328  10.933  0.0718  0.2767  0.8030
  511MOL0     C68865   4.280   3.296  10.806  0.8571  0.2735 -0.2683
  511MOL0     C68866   4.182   3.410  10.791  0.8893 -0.5077 -1.2661
  511MOL0     N68867   4.073   3.399  10.893 -0.1450  0.6190  0.0428
  511MOL0     C68868   3.963   3.318  10.872 -0.5598  0.3106  0.3560
  511MOL0     C68869   3.889   3.340  10.983  0.7264 -0.7397  0.5227
  511MOL0     C68870   3.760   3.272  11.041 -0.2046  0.9276 -0.3828
  511MOL0     C68871   3.753   3.117  11.053 -0.2520  0.2323 -0.0417
  511MOL0     C68872   3.858   3.051  11.148  0.2800 -0.5895 -0.5988
  511MOL0     C68873   3.989   3.020  11.091  0.1531  0.1242  0.0166
  511MOL0     O68874   4.069   2.940  11.175 -0.3203  0.0680 -0.5368
  511MOL0     C68875   4.190   2.892  11.134  0.5180  0.0440 -0.3785
  511MOL0     C68876   4.257   2.931  11.023 -1.2681 -0.5732  0.1798
  511MOL0     C68877   4.367   2.856  10.980 -0.0551 -0.5328  0.7047
  511MOL0     C68878   4.431   2.906  10.848  0.4463  1.3892 -0.3253
  511MOL0     C68879   4.431   2.764  11.065  0.5241  0.2457  0.1551
  511MOL0     C68880   4.549   2.682  11.016  0.0788 -0.0177  0.2590
  511MOL0     O68881   4.591   2.594  11.106 -0.6445 -0.1366  0.1229
  511MOL0     C68882   4.674   2.492  11.054 -0.4263  0.1200 -0.5104
  511MOL0     C68883   4.816   2.486  11.063  0.7797  0.1437 -0.7017
  511MOL0     C68884   4.891   2.378  11.009  0.7513 -0.0947 -0.4694
  511MOL0     C68885   4.830   2.273  10.940 -0.4104 -0.6487  0.3665
  511MOL0     O68886   4.894   2.168  10.895  0.0550  0.0064 -0.0191
  511MOL0     C68887   5.021   2.128  10.953 -0.4754  0.1957 -0.4595
  511MOL0     C68888   5.141   2.135  10.867 -0.3193 -0.5936  0.2439
  511MOL0     C68889   5.170   2.007  10.797 -0.5040 -0.4424  0.0167
  511MOL0     C68890   5.259   2.042  10.675 -1.0364 -0.0093  0.4721
  511MOL0     C68891   5.310   1.925  10.598 -0.9556 -0.4016 -1.2489
  511MOL0     C68892   5.420   1.959  10.496  0.5129  0.2004 -0.3266
  511MOL0     C68893   5.569   1.989  10.545  0.9039 -0.1788 -0.2554
  511MOL0     C68894   5.657   2.062  10.440  0.8595 -1.2343 -0.4768
  511MOL0    Cl68895   5.625   2.005  10.281  0.1529 -0.0821  0.0970
  511MOL0     C68896   4.696   2.280  10.922  0.4802 -0.2400  0.6647
  511MOL0     C68897   4.616   2.388  10.979 -0.3930  0.9611 -0.9810
  511MOL0     O68898   4.585   2.687  10.897  0.2101  0.0625 -0.2236
  511MOL0     C68899   4.368   2.728  11.185 -0.4028 -0.7768  0.1585
  511MOL0     C68900   4.235   2.781  11.216  0.1281 -0.2157 -0.4697
  511MOL0     N68901   3.950   3.445  11.061 -0.6798 -0.1233 -1.2843
  511MOL0     N68902   4.059   3.481  11.009 -0.8197  0.6558  0.8648
  511MOL0     C68903   5.150   2.939  11.061 -0.2691 -0.3430  0.7521
  511MOL0     C68904   5.183   2.803  11.072 -0.5509 -0.3911  0.2282
  511MOL0     C68905   5.323   2.457  11.306  0.3338  0.0051  0.7889
  511MOL0     C68906   5.444   2.415  11.373  0.1661 -0.1995 -0.0860
  511MOL0     C68907   5.478   2.277  11.383 -0.3772  0.2064 -0.3831
  511MOL0     C68908   5.394   2.184  11.331 -0.5037  0.5868  0.3983
  511MOL0     O68909   5.419   2.053  11.361  0.2165  0.2709 -0.6106
  511MOL0     C68910   5.333   1.937  11.337  0.2097 -0.2554 -0.5409
  511MOL0     C68911   5.259   1.903  11.470 -0.8584 -0.1643  0.2839
  511MOL0     C68912   5.152   1.788  11.437 -0.4564  0.6285 -0.3677
  511MOL0     C68913   5.119   1.720  11.567  0.8682  0.0072  1.0148
  511MOL0     C68914   5.061   1.813  11.663 -0.8880 -0.5831 -0.2692
  511MOL0     C68915   5.017   1.902  11.730  0.6953  0.1814  0.1545
  511MOL0     C68916   5.286   2.228  11.258  0.2074  0.9373 -0.3414
  511MOL0     C68917   5.243   2.357  11.254  0.9405  0.5426  0.2198
  511MOL0     H68918   5.021   2.728  11.360  1.4964 -0.1244  2.3091
  511MOL0     H68919   4.948   2.966  11.336  0.8931 -1.2985  0.7776
  511MOL0     H68920   5.038   3.261  11.002  1.3768 -0.3237 -0.9696
  511MOL0     H68921   4.948   3.104  10.985 -3.4792  1.8871 -0.5584
  511MOL0     H68922   4.800   3.175  11.174  0.2215 -2.6950 -1.8843
  511MOL0     H68923   4.843   3.345  11.122  1.2462  1.1866 -5.9689
  511MOL0     H68924   4.763   3.271  10.884  0.7179  0.4452  1.3737
  511MOL0     H68925   4.729   3.119  10.957  0.9502 -1.3885 -0.6379
  511MOL0     H68926   4.571   3.243  11.126 -1.3300  0.5557 -1.2272
  511MOL0     H68927   4.600   3.395  11.043  0.1262  0.9921 -2.3055
  511MOL0     H68928   4.531   3.291  10.833  0.8404  0.1889  0.3960
  511MOL0     H68929   4.473   3.145  10.926  2.1288 -0.1946  4.5501
  511MOL0     H68930   4.302   3.299  11.023  1.1582  0.0792  1.4174
  511MOL0     H68931   4.372   3.436  10.939 -0.3465  0.3956 -0.0684
  511MOL0     H68932   4.348   3.292  10.720 -1.0500 -0.6250 -1.7832
  511MOL0     H68933   4.229   3.199  10.806 -0.5572  0.9772  1.1886
  511MOL0     H68934   4.144   3.404  10.689 -1.8849  2.6356 -0.5983
  511MOL0     H68935   4.235   3.504  10.811 -1.3535  0.0705  3.3653
  511MOL0     H68936   3.952   3.246  10.792  5.5950 -1.8251  0.8511
  511MOL0     H68937   3.724   3.316  11.134 -0.8462 -2.0377  0.8807
  511MOL0     H68938   3.684   3.304  10.968 -1.0285  0.5952  0.3162
  511MOL0     H68939   3.745   3.062  10.959  0.5087 -0.5968  0.3593
  511MOL0     H68940   3.656   3.089  11.095  0.0956  0.2932  0.8412
  511MOL0     H68941   3.811   2.963  11.194  3.8120 -3.1884 -1.5695
  511MOL0     H68942   3.872   3.126  11.226 -0.6908  1.8038 -2.5756
  511MOL0     H68943   4.026   3.117  11.058 -1.9388 -0.1523 -3.6249
  511MOL0     H68944   3.978   2.958  11.001 -2.1405  0.3994  0.0655
  511MOL0     H68945   4.225   3.007  10.953  0.9494  0.5055  0.2460
  511MOL0     H68946   4.411   2.832  10.770 -0.0769  1.8562 -0.6409
  511MOL0     H68947   4.384   2.996  10.808  1.5512  0.9642 -2.8146
  511MOL0     H68948   4.539   2.927  10.854  0.2498  2.6198 -0.7554
  511MOL0     H68949   4.874   2.555  11.124 -2.0685  1.6577  0.4915
  511MOL0     H68950   4.999   2.383  11.007  0.8520 -0.9871  0.9398
  511MOL0     H68951   5.051   2.190  11.038  1.6176  1.4974 -2.0499
  511MOL0     H68952   5.012   2.027  10.996 -0.3538 -0.8491 -2.7299
  511MOL0     H68953   5.138   2.221  10.800 -0.7940 -3.2228 -3.4707
  511MOL0     H68954   5.225   2.147  10.936 -1.9499  1.1883  2.0251
  511MOL0     H68955   5.076   1.959  10.766  0.0350 -0.6559 -1.3826
  511MOL0     H68956   5.224   1.928  10.851 -0.5802 -0.5689 -0.0909
  511MOL0     H68957   5.207   2.106  10.604  2.3732  4.8290  1.8092
  511MOL0     H68958   5.341   2.104  10.713 -1.3264  0.3879  0.4456
  511MOL0     H68959   5.221   1.894  10.543 -2.0678 -0.0551  0.2839
  511MOL0     H68960   5.339   1.854  10.676  0.2595  0.7908 -0.5539
  511MOL0     H68961   5.424   1.879  10.421  0.2923  1.7013 -2.0262
  511MOL0     H68962   5.374   2.049  10.452 -3.0988 -0.6109  1.4105
  511MOL0     H68963   5.604   1.886  10.547 -0.1638 -0.5555 -0.1733
  511MOL0     H68964   5.579   2.042  10.640  5.8551 -0.6019 -0.2931
  511MOL0     H68965   5.764   2.056  10.464  0.3743 -1.1699  1.9102
  511MOL0     H68966   5.638   2.169  10.454 -0.1274 -1.6922  2.3680
  511MOL0     H68967   4.651   2.192  10.877 -0.9416  0.4898  0.5841
  511MOL0     H68968   4.509   2.387  10.957 -0.7222  0.4951  0.4734
  511MOL0     H68969   4.413   2.647  11.241  2.4466  1.5862  1.5732
  511MOL0     H68970   4.180   2.743  11.301  1.4476 -0.9049  0.1042
  511MOL0     H68971   5.177   3.006  10.980 -3.3398 -0.7977 -0.8050
  511MOL0     H68972   5.256   2.750  11.012  0.0841 -1.0649  1.5637
  511MOL0     H68973   5.508   2.485  11.426 -2.2734  0.3219  2.3949
  511MOL0     H68974   5.565   2.251  11.442 -1.7418 -0.8511  1.2589
  511MOL0     H68975   5.260   1.938  11.255  1.1450 -4.5406 -1.7055
  511MOL0     H68976   5.402   1.855  11.315  2.4198  1.3475  0.1704
  511MOL0     H68977   5.206   1.990  11.511  0.4602  0.3995  0.8387
  511MOL0     H68978   5.335   1.875  11.543 -1.1798 -3.1228 -0.3943
  511MOL0     H68979   5.186   1.717  11.361 -2.4969  0.3508 -1.0933
  511MOL0     H68980   5.061   1.824  11.388 -2.4454 -5.5692 -2.2769
  511MOL0     H68981   5.212   1.684  11.614  2.7149 -0.6768 -2.7792
  511MOL0     H68982   5.039   1.648  11.548 -0.7928  1.0056  3.6688
  511MOL0     H68983   4.988   1.994  11.778  0.5638 -0.2732  0.9722
  511MOL0     H68984   5.236   2.157  11.193 -0.8526 -1.0513  2.4390
  511MOL0     H68985   5.150   2.390  11.208  0.9351  3.0999  1.8989
  512MOL0     O68986   8.901   5.637   4.668 -0.1827 -0.0586  1.0142
  512MOL0     C68987   8.964   5.573   4.752  0.7963  0.0252 -0.3580
  512MOL0     O68988   9.073   5.616   4.818  0.1355 -0.1353  0.2513
  512MOL0     C68989   9.125   5.741   4.786 -0.0274  0.0793 -0.6951
  512MOL0     C68990   9.081   5.870   4.821 -0.3848  0.0837  0.7099
  512MOL0     C68991   9.171   5.976   4.802  0.0271 -0.3797 -0.8126
  512MOL0     C68992   9.299   5.960   4.751  0.1058  0.5910  0.7987
  512MOL0     O68993   9.376   6.068   4.732 -0.6089 -0.7193  0.2628
  512MOL0     C68994   9.348   6.138   4.602 -1.1184 -0.0742 -0.0326
  512MOL0     C68995   9.468   6.223   4.574 -0.7074  0.6377 -0.3176
  512MOL0     C68996   9.590   6.126   4.546 -0.2810  0.1413 -0.7027
  512MOL0     C68997   9.637   6.113   4.399  0.0281  0.7538 -0.2527
  512MOL0     C68998   9.525   6.058   4.305  0.1176  0.4806 -0.2852
  512MOL0     C68999   9.505   5.901   4.341  0.2327  0.2500  0.1562
  512MOL0     C69000   9.457   5.824   4.209 -0.9468 -0.8331  0.0974
  512MOL0     C69001   9.329   5.859   4.132 -0.5203  0.6182 -1.2178
  512MOL0     N69002   9.223   5.850   4.238 -0.2426 -0.1237  0.3661
  512MOL0     C69003   9.108   5.939   4.235 -0.6923  0.2839 -1.0246
  512MOL0     C69004   9.027   5.881   4.320 -0.3379  0.4318  0.7639
  512MOL0     C69005   8.889   5.918   4.350  0.3206 -0.0132  0.3114
  512MOL0     C69006   8.877   6.051   4.426  0.1107  0.8696 -0.6560
  512MOL0     C69007   8.931   6.049   4.569  0.2366  0.1287 -0.2971
  512MOL0     C69008   8.903   6.172   4.663  1.0191 -0.4377  0.1805
  512MOL0     O69009   8.998   6.279   4.626 -0.0196  0.2563  0.2131
  512MOL0     C69010   8.982   6.401   4.680  0.9232 -0.2741 -0.9587
  512MOL0     C69011   9.039   6.515   4.621  0.3922 -0.2962  0.9864
  512MOL0     C69012   9.026   6.647   4.667  1.1232  0.1117 -0.1515
  512MOL0     C69013   9.080   6.771   4.594 -1.4824 -0.3625 -0.3411
  512MOL0     C69014   8.964   6.660   4.794  0.9055 -0.0252 -0.3932
  512MOL0     C69015   8.938   6.785   4.870 -0.1382 -0.4392 -0.3718
  512MOL0     O69016   8.862   6.778   4.982 -0.7249 -0.3579 -0.2741
  512MOL0     C69017   8.851   6.888   5.062 -0.1682  0.0072 -0.1334
  512MOL0     C69018   8.926   6.909   5.170  0.0234  0.1020  0.2118
  512MOL0     C69019   8.889   7.009   5.261 -0.3270 -0.1436  0.0979
  512MOL0     C69020   8.786   7.089   5.233  0.2777 -0.5998 -0.2103
  512MOL0     O69021   8.768   7.176   5.345  0.2360  0.2998  0.0060
  512MOL0     C69022   8.710   7.309   5.316 -0.3810  0.6823 -0.4534
  512MOL0     C69023   8.747   7.408   5.424  0.6699 -0.3712 -0.2402
  512MOL0     C69024   8.899   7.435   5.426 -0.6663  0.8127 -0.5099
  512MOL0     C69025   8.947   7.534   5.532  0.1303 -0.2781 -0.5383
  512MOL0     C69026   8.947   7.483   5.675 -0.3284 -1.2428  0.4867
  512MOL0     C69027   9.004   7.579   5.773  0.0403 -0.2085  0.3451
  512MOL0     C69028   8.998   7.516   5.910  1.4336 -0.4876 -0.5855
  512MOL0     C69029   9.052   7.607   6.015  0.0182 -0.1715 -0.3695
  512MOL0    Cl69030   9.053   7.529   6.169 -0.4056 -0.3638 -0.4354
  512MOL0     C69031   8.713   7.083   5.107 -0.2756 -1.2120  0.0160
  512MOL0     C69032   8.747   6.973   5.023  0.9568  1.0065  0.5803
  512MOL0     O69033   8.986   6.892   4.830  0.4390 -0.7123  0.0010
  512MOL0     C69034   8.908   6.543   4.849  0.0136  0.1837 -0.3976
  512MOL0     C69035   8.911   6.422   4.794 -0.0801  1.2451  0.7290
  512MOL0     N69036   9.100   5.785   4.389  0.3455  0.0815  0.5586
  512MOL0     N69037   9.218   5.761   4.343  0.5589  0.7965 -0.1871
  512MOL0     C69038   9.332   5.830   4.705  0.2344  0.7387  0.3979
  512MOL0     C69039   9.249   5.725   4.728  0.5612  0.4014  0.2689
  512MOL0     C69040   8.935   5.422   4.759  0.2992 -0.5695 -0.4944
  512MOL0     C69041   8.805   5.365   4.766  0.1810 -0.4649  0.5395
  512MOL0     C69042   8.790   5.232   4.780  0.0721  1.2352  0.1156
  512MOL0     C69043   8.901   5.149   4.802 -0.5142 -0.5732  1.0473
  512MOL0     O69044   8.906   5.010   4.831 -0.1788 -0.4328 -0.8915
  512MOL0     C69045   8.782   4.939   4.845 -0.8078 -0.5132  0.3199
  512MOL0     C69046   8.800   4.794   4.902  0.0682 -0.2638  1.4471
  512MOL0     C69047   8.883   4.803   5.037  0.2633 -0.4070  0.1594
  512MOL0     C69048   8.908   4.655   5.085  0.5141  0.1829 -0.2510
  512MOL0     C69049   8.778   4.571   5.086  0.3416  0.4968  0.0397
  512MOL0     C69050   8.679   4.500   5.094  0.4654 -0.1699  1.0003
  512MOL0     C69051   9.022   5.205   4.807 -0.6099  0.3827 -0.7951
  512MOL0     C69052   9.043   5.343   4.778 -0.8521  0.0592  0.3588
  512MOL0     H69053   8.980   5.871   4.859 -0.4219 -1.6460  0.7004
  512MOL0     H69054   9.143   6.080   4.820  0.2948 -0.5444  0.6858
  512MOL0     H69055   9.324   6.079   4.513 -3.9327  4.1326 -2.4128
  512MOL0     H69056   9.267   6.209   4.621  0.3773  2.2209 -1.5744
  512MOL0     H69057   9.444   6.282   4.485  5.3917  1.4619 -1.8919
  512MOL0     H69058   9.485   6.287   4.661  0.7649 -0.7548  0.4871
  512MOL0     H69059   9.673   6.179   4.593 -0.0872 -2.1029  1.7311
  512MOL0     H69060   9.582   6.025   4.587  1.7110  0.4458  0.5423
  512MOL0     H69061   9.662   6.213   4.361 -0.0362  1.0478  0.4642
  512MOL0     H69062   9.725   6.049   4.405 -2.1216 -2.2947  1.2601
  512MOL0     H69063   9.435   6.121   4.312  0.8176  1.3715  1.1568
  512MOL0     H69064   9.557   6.073   4.202  1.2713  0.8776  0.1188
  512MOL0     H69065   9.595   5.846   4.370  0.9766  1.7881  0.8883
  512MOL0     H69066   9.418   5.896   4.407 -0.9718  1.2864 -1.2733
  512MOL0     H69067   9.535   5.836   4.133 -1.8377  2.9443 -0.4038
  512MOL0     H69068   9.450   5.717   4.234  2.9654 -1.3325 -0.2033
  512MOL0     H69069   9.305   5.788   4.052 -0.4079  0.3856 -1.0443
  512MOL0     H69070   9.331   5.963   4.096 -2.0713  1.3911  0.7929
  512MOL0     H69071   9.075   6.021   4.173 -0.9336  2.1929  1.4671
  512MOL0     H69072   8.847   5.937   4.251  2.2095 -0.3282 -0.5913
  512MOL0     H69073   8.842   5.832   4.399 -0.4620  0.7554  0.9472
  512MOL0     H69074   8.771   6.078   4.436 -0.1368  0.5772 -2.2607
  512MOL0     H69075   8.921   6.134   4.369 -0.7245  0.1285 -2.4403
  512MOL0     H69076   9.039   6.058   4.551  0.4447 -0.6418  0.4930
  512MOL0     H69077   8.910   5.947   4.602  2.0028 -0.0062  0.5738
  512MOL0     H69078   8.907   6.127   4.763 -1.4460 -3.8024 -1.0502
  512MOL0     H69079   8.797   6.196   4.648  1.1016  0.7370  1.2734
  512MOL0     H69080   9.105   6.516   4.535  0.0111  4.7649  0.4141
  512MOL0     H69081   9.160   6.820   4.651  0.0380 -1.6641 -1.2619
  512MOL0     H69082   9.121   6.751   4.495  0.3514  0.5268  0.1926
  512MOL0     H69083   9.006   6.849   4.572  0.4012  1.3625 -0.8888
  512MOL0     H69084   9.010   6.843   5.185 -1.5975 -2.3637 -0.8970
  512MOL0     H69085   8.943   7.007   5.356 -1.3609 -0.5081  0.6950
  512MOL0     H69086   8.728   7.345   5.214 -0.5994  1.3640 -0.2603
  512MOL0     H69087   8.601   7.298   5.323 -0.3673  1.1523  0.7704
  512MOL0     H69088   8.695   7.503   5.420  1.4345  0.1005  0.6411
  512MOL0     H69089   8.714   7.355   5.514  2.3641 -3.4554 -1.2870
  512MOL0     H69090   8.925   7.483   5.332 -1.7733  2.4293 -0.0217
  512MOL0     H69091   8.951   7.339   5.440  3.1065  3.0718  3.1363
  512MOL0     H69092   9.049   7.570   5.518  0.8170 -1.8925  0.0778
  512MOL0     H69093   8.880   7.617   5.505 -0.1652 -1.1768 -2.8430
  512MOL0     H69094   8.993   7.384   5.687  0.6864 -0.5688  2.9198
  512MOL0     H69095   8.843   7.464   5.703 -0.6402  0.9173  0.9813
  512MOL0     H69096   9.109   7.599   5.748  0.5633  1.1209  3.2334
  512MOL0     H69097   8.949   7.673   5.778  1.2714  0.7683 -2.3731
  512MOL0     H69098   9.048   7.419   5.912  1.3286 -0.5263  0.3116
  512MOL0     H69099   8.894   7.498   5.939  1.1791 -0.1239 -1.2423
  512MOL0     H69100   8.995   7.700   6.009  0.9118  0.3719 -0.5906
  512MOL0     H69101   9.160   7.624   6.010  0.3270 -0.1960  3.2727
  512MOL0     H69102   8.627   7.146   5.092  1.0700  0.5577 -0.5978
  512MOL0     H69103   8.686   6.955   4.935  3.0903 -0.2057 -0.7361
  512MOL0     H69104   8.853   6.544   4.943  2.1844 -0.8873  0.9630
  512MOL0     H69105   8.872   6.334   4.845 -0.6126  2.5687  2.7360
  512MOL0     H69106   9.423   5.799   4.654  0.0138 -0.9387  0.9701
  512MOL0     H69107   9.297   5.631   4.705 -2.0317 -0.6464 -1.1619
  512MOL0     H69108   8.719   5.429   4.750  1.3062  1.2852  1.2815
  512MOL0     H69109   8.689   5.195   4.795  0.6552 -1.2247 -1.3872
  512MOL0     H69110   8.727   4.998   4.919  1.1246  1.7941  0.0572
  512MOL0     H69111   8.723   4.928   4.754 -0.5707  0.6959  0.0011
  512MOL0     H69112   8.848   4.737   4.822  0.8377  1.2747  0.7649
  512MOL0     H69113   8.703   4.746   4.913  0.7428 -2.0951 -0.1470
  512MOL0     H69114   8.823   4.860   5.108  2.0933  2.1681 -0.2422
  512MOL0     H69115   8.976   4.860   5.032 -0.0695  0.0490 -2.1212
  512MOL0     H69116   8.959   4.655   5.181 -0.4638  0.1638  0.2783
  512MOL0     H69117   8.976   4.600   5.018 -3.6606 -3.6259 -1.8683
  512MOL0     H69118   8.591   4.440   5.103  0.8630 -0.6684  1.6876
  512MOL0     H69119   9.104   5.142   4.837 -1.7956 -1.7134 -1.7178
  512MOL0     H69120   9.137   5.393   4.759 -0.7890  0.2656  1.1721
  513MOL0     O69121   8.019   8.583  11.354 -0.2927  0.2944  0.3698
  513MOL0     C69122   8.043   8.607  11.469  1.3539 -0.0134 -0.1719
  513MOL0     O69123   7.955   8.593  11.582  0.0773  0.1837 -0.6753
  513MOL0     C69124   7.835   8.539  11.558 -0.4930  0.8151  0.3092
  513MOL0     C69125   7.722   8.626  11.543 -0.1512  0.9020 -0.2786
  513MOL0     C69126   7.594   8.561  11.549 -0.1002  0.0095  0.0799
  513MOL0     C69127   7.583   8.422  11.558  0.2600  0.1792  0.3716
  513MOL0     O69128   7.457   8.372  11.557  1.1595 -0.1890  0.2642
  513MOL0     C69129   7.430   8.263  11.472  0.8888 -0.6274  0.5406
  513MOL0     C69130   7.417   8.122  11.535  0.9744 -0.0506 -0.5408
  513MOL0     C69131   7.353   8.023  11.439  0.9735 -0.8365 -0.2816
  513MOL0     C69132   7.304   7.901  11.514 -0.0619 -0.0936 -0.4082
  513MOL0     C69133   7.240   7.791  11.435 -0.9505 -0.7105 -0.1050
  513MOL0     C69134   7.107   7.832  11.376 -0.7802 -1.2705  0.5030
  513MOL0     C69135   7.097   7.770  11.241 -0.0952 -0.4651  0.2214
  513MOL0     C69136   7.174   7.840  11.132 -0.4445 -0.1595  0.2411
  513MOL0     N69137   7.147   7.758  11.010 -0.3723 -0.1695 -0.1474
  513MOL0     C69138   7.247   7.723  10.915  0.2358  0.5864 -1.5678
  513MOL0     C69139   7.182   7.692  10.807 -0.4150  0.2047  0.0640
  513MOL0     C69140   7.235   7.654  10.673 -0.0149 -0.1763 -0.7860
  513MOL0     C69141   7.225   7.776  10.572 -0.2379  0.4522 -0.1529
  513MOL0     C69142   7.252   7.732  10.422  0.1347  0.7584  0.4740
  513MOL0     C69143   7.142   7.659  10.342  0.6446  0.0432  0.1410
  513MOL0     O69144   7.128   7.521  10.387 -0.1143  0.3471 -0.1391
  513MOL0     C69145   7.076   7.427  10.306  0.0729  0.7710  0.8386
  513MOL0     C69146   6.981   7.452  10.212  0.1384 -0.5007  0.1311
  513MOL0     C69147   6.922   7.355  10.136  0.9343  0.0376  0.5950
  513MOL0     C69148   6.807   7.394  10.044 -0.6854  0.7318  0.2911
  513MOL0     C69149   6.977   7.218  10.137  0.4247 -0.7626  0.9298
  513MOL0     C69150   6.916   7.114  10.052 -0.9292  0.4658 -0.4332
  513MOL0     O69151   6.977   7.059   9.949 -1.1248 -0.1798 -0.9647
  513MOL0     C69152   7.073   7.123   9.875  0.3241 -0.0223  0.6717
  513MOL0     C69153   7.189   7.058   9.833  0.2035  0.6225  0.3065
  513MOL0     C69154   7.294   7.130   9.768  0.0679  0.9402  0.4334
  513MOL0     C69155   7.281   7.266   9.730  0.1342  0.3622  0.2836
  513MOL0     O69156   7.385   7.325   9.666 -0.3778 -0.3573  0.1887
  513MOL0     C69157   7.458   7.247   9.569  0.4385  0.3116 -1.1099
  513MOL0     C69158   7.525   7.345   9.469 -0.3520 -0.3047 -0.0199
  513MOL0     C69159   7.645   7.273   9.415 -0.6621 -0.2513  0.1729
  513MOL0     C69160   7.716   7.345   9.300  0.1215 -0.5120 -1.1064
  513MOL0     C69161   7.871   7.332   9.311 -0.2762 -0.0242  0.2169
  513MOL0     C69162   7.930   7.333   9.171  0.5551 -0.7652 -0.0780
  513MOL0     C69163   8.067   7.274   9.172 -1.2966 -1.5046  0.1061
  513MOL0     C69164   8.077   7.138   9.116 -0.7451  0.0766 -0.4697
  513MOL0    Cl69165   8.254   7.111   9.109 -0.1967 -0.1425 -0.1577
  513MOL0     C69166   7.155   7.331   9.760 -0.3616  0.2369  0.3264
  513MOL0     C69167   7.057   7.256   9.833  0.3167 -0.2405 -0.4735
  513MOL0     O69168   6.811   7.068  10.100 -0.6273  0.1646  0.0933
  513MOL0     C69169   7.080   7.193  10.229  0.4793 -0.3675 -0.2254
  513MOL0     C69170   7.121   7.292  10.318  0.3464 -0.4867 -0.1113
  513MOL0     N69171   7.042   7.711  10.835 -0.1728 -0.8138 -0.3629
  513MOL0     N69172   7.032   7.759  10.951 -0.1533  0.8564 -1.0490
  513MOL0     C69173   7.701   8.347  11.566 -0.0160  0.0405 -0.0858
  513MOL0     C69174   7.824   8.404  11.581 -0.8343  0.5750  0.1220
  513MOL0     C69175   8.181   8.630  11.496  0.7015  0.2967  1.2059
  513MOL0     C69176   8.276   8.605  11.397  0.4746  0.7935 -0.3887
  513MOL0     C69177   8.409   8.619  11.422  0.4516 -0.4854  0.9419
  513MOL0     C69178   8.464   8.677  11.541  0.1466  0.6857  0.7693
  513MOL0     O69179   8.603   8.675  11.564 -0.3353  0.7740 -0.0146
  513MOL0     C69180   8.674   8.773  11.654  0.3503  0.0379  0.6510
  513MOL0     C69181   8.735   8.704  11.766 -0.1945 -1.2323  0.9081
  513MOL0     C69182   8.859   8.620  11.717  1.0883  0.2149 -0.2415
  513MOL0     C69183   8.981   8.711  11.688 -0.0663  0.3142  0.5074
  513MOL0     C69184   9.099   8.632  11.653 -0.1283 -1.1050 -0.2534
  513MOL0     C69185   9.206   8.586  11.608 -0.0216  0.2332 -0.4438
  513MOL0     C69186   8.366   8.697  11.642 -0.8811 -0.8192 -0.8833
  513MOL0     C69187   8.230   8.677  11.625  0.2181  1.4813  0.1481
  513MOL0     H69188   7.738   8.732  11.529  1.3183  0.4504 -2.5258
  513MOL0     H69189   7.505   8.623  11.548  0.3982  1.0136 -3.9327
  513MOL0     H69190   7.351   8.292  11.403  3.0780 -0.8084 -2.2121
  513MOL0     H69191   7.511   8.262  11.399  0.7532  0.8828  0.3391
  513MOL0     H69192   7.504   8.072  11.578 -0.1337 -0.0181  1.9550
  513MOL0     H69193   7.349   8.138  11.620  0.0061  0.5204 -1.4025
  513MOL0     H69194   7.270   8.067  11.381 -0.3257 -0.9897  1.4000
  513MOL0     H69195   7.432   7.985  11.373  3.1240 -0.8048  2.1447
  513MOL0     H69196   7.387   7.853  11.567 -1.4935  0.1967  2.3033
  513MOL0     H69197   7.227   7.942  11.580  1.1142  3.3511 -0.9657
  513MOL0     H69198   7.306   7.756  11.355  1.9371 -2.3980  2.7810
  513MOL0     H69199   7.229   7.706  11.503 -0.2531 -0.2002  0.6686
  513MOL0     H69200   7.028   7.804  11.446 -0.2074  1.7641  2.5400
  513MOL0     H69201   7.095   7.939  11.356 -0.2402 -1.4320 -0.7507
  513MOL0     H69202   7.126   7.665  11.251  4.3267  0.3607 -1.4706
  513MOL0     H69203   6.989   7.769  11.225 -0.3689 -0.6620  1.8669
  513MOL0     H69204   7.274   7.876  11.155 -1.4838  2.1650  1.3957
  513MOL0     H69205   7.137   7.940  11.109  2.5055  0.7420 -1.0011
  513MOL0     H69206   7.351   7.751  10.921  0.2864  0.3219 -1.1380
  513MOL0     H69207   7.343   7.636  10.674  0.0382  0.0974 -1.1428
  513MOL0     H69208   7.192   7.560  10.638 -1.5719  0.6808 -1.2944
  513MOL0     H69209   7.303   7.850  10.590  1.5637 -0.4269 -3.5636
  513MOL0     H69210   7.125   7.818  10.580 -1.5396 -1.2699 -4.6316
  513MOL0     H69211   7.348   7.681  10.418 -0.1658  0.1652  0.6727
  513MOL0     H69212   7.273   7.827  10.373 -1.8655  1.6027  1.1528
  513MOL0     H69213   7.164   7.659  10.234 -0.3235  2.9879 -0.1388
  513MOL0     H69214   7.044   7.703  10.361  1.4000  1.1923  1.5122
  513MOL0     H69215   6.936   7.550  10.206  0.9921 -0.1379 -0.5412
  513MOL0     H69216   6.776   7.312   9.978 -0.8930 -1.3075  2.7487
  513MOL0     H69217   6.715   7.398  10.104  0.0784  2.1970  1.4136
  513MOL0     H69218   6.838   7.475   9.978  0.4016 -0.0516 -0.1868
  513MOL0     H69219   7.207   6.953   9.854  1.2553  0.8002  0.3498
  513MOL0     H69220   7.388   7.081   9.746 -0.1066  1.6356 -2.0703
  513MOL0     H69221   7.531   7.190   9.626 -0.1524  2.2429  1.7898
  513MOL0     H69222   7.385   7.182   9.519 -1.1393 -0.2821  1.7411
  513MOL0     H69223   7.466   7.373   9.382 -0.5191 -0.2319  0.1174
  513MOL0     H69224   7.563   7.427   9.530  1.0846 -0.5430 -0.5555
  513MOL0     H69225   7.619   7.167   9.404  1.9152 -1.0736  1.1499
  513MOL0     H69226   7.713   7.286   9.500 -0.8447  0.2219  0.2482
  513MOL0     H69227   7.669   7.317   9.205 -1.5417 -0.7054 -0.2682
  513MOL0     H69228   7.689   7.451   9.305  0.2118 -0.5289  0.5410
  513MOL0     H69229   7.901   7.242   9.367  0.2105 -0.2306 -0.3636
  513MOL0     H69230   7.926   7.410   9.364  1.4029 -2.6524  2.7013
  513MOL0     H69231   7.871   7.284   9.094  2.5143  0.1752 -2.3018
  513MOL0     H69232   7.935   7.437   9.138  2.2746  0.6993  4.0331
  513MOL0     H69233   8.112   7.276   9.272  1.6278  2.5789 -1.0610
  513MOL0     H69234   8.127   7.336   9.107  2.3544 -0.6289  3.8843
  513MOL0     H69235   8.035   7.142   9.015 -2.8408 -3.2979  0.1038
  513MOL0     H69236   8.032   7.064   9.181  1.9512 -0.8744  0.4707
  513MOL0     H69237   7.127   7.434   9.738 -0.0559 -0.1276 -2.1022
  513MOL0     H69238   6.969   7.315   9.854  2.1276  1.4823  3.2593
  513MOL0     H69239   7.127   7.095  10.232 -1.5561 -1.3658  0.9217
  513MOL0     H69240   7.189   7.273  10.401  1.9178  0.1066 -1.2264
  513MOL0     H69241   7.711   8.240  11.579  2.7580  0.4369  1.9552
  513MOL0     H69242   7.918   8.351  11.593 -1.3626 -0.0990  1.4567
  513MOL0     H69243   8.246   8.589  11.294  1.7482  3.6494 -1.3065
  513MOL0     H69244   8.483   8.583  11.351  2.9894 -0.0796  3.2131
  513MOL0     H69245   8.744   8.820  11.584 -1.7059 -2.5918 -3.5817
  513MOL0     H69246   8.602   8.849  11.686  0.0171  0.2635 -0.5845
  513MOL0     H69247   8.663   8.631  11.805 -3.1079 -0.8105 -3.1295
  513MOL0     H69248   8.758   8.773  11.848 -0.4272 -1.6678  1.3438
  513MOL0     H69249   8.847   8.552  11.633 -1.0969 -0.4244  0.5125
  513MOL0     H69250   8.886   8.549  11.795 -2.2397  0.5854  1.4354
  513MOL0     H69251   8.996   8.779  11.772  0.3789 -0.9779  1.5053
  513MOL0     H69252   8.963   8.775  11.601 -0.5382 -2.9411 -1.9612
  513MOL0     H69253   9.299   8.547  11.572  1.7573  1.1375  2.7930
  513MOL0     H69254   8.393   8.721  11.744  0.6602  0.6434 -1.5750
  513MOL0     H69255   8.178   8.699  11.717  0.3013 -0.1400  0.6058
  514MOL0     O69256   5.528   6.538   9.923 -0.7988  0.3901  0.2360
  514MOL0     C69257   5.523   6.429   9.979  0.5590  0.0442 -1.0022
  514MOL0     O69258   5.615   6.331   9.962  0.1121  0.2045  0.0890
  514MOL0     C69259   5.741   6.370   9.908 -0.2957  1.4191  0.3777
  514MOL0     C69260   5.857   6.363   9.983  0.0280  0.3121  0.2420
  514MOL0     C69261   5.978   6.407   9.935  0.5537 -0.5350 -0.0100
  514MOL0     C69262   5.982   6.455   9.805 -0.4174  0.2985  0.5852
  514MOL0     O69263   6.089   6.531   9.753 -0.9100  0.5547  0.1023
  514MOL0     C69264   6.219   6.479   9.791 -1.1287  0.2411  0.5655
  514MOL0     C69265   6.326   6.574   9.839 -0.1550 -0.0319 -0.2566
  514MOL0     C69266   6.288   6.649   9.970  0.0822  0.0647 -0.2248
  514MOL0     C69267   6.394   6.756  10.017  0.7995  0.1734 -0.0850
  514MOL0     C69268   6.327   6.866  10.106  0.2860  0.1281 -0.5692
  514MOL0     C69269   6.241   6.822  10.234 -0.0562 -0.8267 -0.6492
  514MOL0     C69270   6.219   6.949  10.322  0.4008 -0.7826  1.2558
  514MOL0     C69271   6.140   6.918  10.447 -0.0956 -0.5739  0.2047
  514MOL0     N69272   6.125   7.039  10.530  0.2509 -0.3675 -0.4781
  514MOL0     C69273   6.100   7.172  10.485  0.1806 -0.2408  0.0460
  514MOL0     C69274   6.088   7.247  10.599 -0.3030  0.3517  0.3582
  514MOL0     C69275   6.070   7.402  10.594 -0.2601 -0.2267  0.5551
  514MOL0     C69276   5.950   7.455  10.514  0.0095 -0.3563 -0.0015
  514MOL0     C69277   5.970   7.572  10.424 -0.8617  0.9739  0.3654
  514MOL0     C69278   5.843   7.629  10.361  0.1206 -0.2391  0.1998
  514MOL0     O69279   5.798   7.523  10.269  0.8285 -0.4279 -0.1446
  514MOL0     C69280   5.718   7.572  10.167 -0.3064 -0.7189  0.1792
  514MOL0     C69281   5.662   7.697  10.149 -0.2681 -0.1786  0.0532
  514MOL0     C69282   5.598   7.750  10.032 -0.0833 -0.3722  1.0076
  514MOL0     C69283   5.540   7.892  10.030  0.4242 -1.0372  0.2271
  514MOL0     C69284   5.586   7.661   9.917  0.2070 -0.3497  0.0739
  514MOL0     C69285   5.494   7.690   9.799  0.3981  0.2915  0.1764
  514MOL0     O69286   5.502   7.813   9.746  0.3047 -0.4824 -0.0861
  514MOL0     C69287   5.458   7.840   9.623 -0.1719 -0.0907  0.4945
  514MOL0     C69288   5.365   7.944   9.614 -0.6637  0.2082  0.3469
  514MOL0     C69289   5.316   7.983   9.489  0.4938 -0.0152 -0.2605
  514MOL0     C69290   5.346   7.913   9.368 -0.8387  0.2391 -0.1501
  514MOL0     O69291   5.309   7.964   9.243  0.1949 -0.2518 -0.2995
  514MOL0     C69292   5.368   7.919   9.118 -0.9831 -0.0952  0.6210
  514MOL0     C69293   5.332   8.006   8.996  0.6193 -0.5075 -0.1710
  514MOL0     C69294   5.358   7.946   8.863 -0.0790  0.8444  0.0218
  514MOL0     C69295   5.491   8.012   8.799  1.0558  0.5364 -0.0341
  514MOL0     C69296   5.517   7.953   8.668  1.0819  0.3027  0.3409
  514MOL0     C69297   5.648   7.983   8.604  0.4138 -0.8717 -0.1241
  514MOL0     C69298   5.651   7.891   8.480  0.0867 -0.2887 -0.8222
  514MOL0     C69299   5.787   7.900   8.405  0.7435  0.0834  0.4615
  514MOL0    Cl69300   5.755   7.832   8.239  0.3156  0.1189  0.0570
  514MOL0     C69301   5.436   7.803   9.372 -0.4828  0.0437 -0.4535
  514MOL0     C69302   5.489   7.762   9.500 -0.0948  0.2708 -0.4025
  514MOL0     O69303   5.418   7.606   9.759  0.0149  0.2023 -0.3368
  514MOL0     C69304   5.635   7.526   9.938 -0.0235 -0.0712  0.1725
  514MOL0     C69305   5.702   7.480  10.063 -0.2905  0.2378  0.7598
  514MOL0     N69306   6.127   7.166  10.706  0.2986  0.3580  0.1076
  514MOL0     N69307   6.144   7.051  10.666  0.8122  0.7497 -0.1510
  514MOL0     C69308   5.877   6.453   9.718  0.7515  0.7389 -0.2176
  514MOL0     C69309   5.753   6.407   9.771  0.2072 -0.0283  0.2449
  514MOL0     C69310   5.399   6.399  10.059  0.7358 -0.2965 -0.2322
  514MOL0     C69311   5.329   6.506  10.123  0.2544  0.3989 -0.2520
  514MOL0     C69312   5.202   6.486  10.191 -0.4483 -0.2006  0.9355
  514MOL0     C69313   5.149   6.348  10.195  0.8420 -0.7453  0.0315
  514MOL0     O69314   5.029   6.303  10.232 -0.4302 -0.0466 -0.3294
  514MOL0     C69315   4.922   6.399  10.247 -0.2643 -0.0627 -0.3434
  514MOL0     C69316   4.818   6.319  10.319 -0.7346  0.3257  0.0001
  514MOL0     C69317   4.677   6.362  10.358 -0.3664  1.6494  0.4089
  514MOL0     C69318   4.644   6.292  10.493 -0.5097 -0.3258  0.5533
  514MOL0     C69319   4.501   6.297  10.510  0.4433  0.6496  0.6918
  514MOL0     C69320   4.381   6.297  10.539  0.6966  0.5257 -0.0015
  514MOL0     C69321   5.221   6.255  10.126  0.4129 -0.0840 -0.3722
  514MOL0     C69322   5.345   6.275  10.068  0.1371 -0.3565 -0.2717
  514MOL0     H69323   5.848   6.320  10.082  0.0593  1.4521  0.7561
  514MOL0     H69324   6.065   6.411  10.000 -0.9034  0.2193  1.9754
  514MOL0     H69325   6.217   6.384   9.847 -3.3568 -1.6508 -2.3965
  514MOL0     H69326   6.254   6.447   9.692 -0.1209  3.9614 -0.4376
  514MOL0     H69327   6.432   6.544   9.842  0.8533  3.0744 -1.3249
  514MOL0     H69328   6.329   6.638   9.750  1.5628 -1.2514 -1.1573
  514MOL0     H69329   6.190   6.696   9.956 -0.9523 -2.2402 -1.3509
  514MOL0     H69330   6.283   6.579  10.054  0.0180  1.8961  1.3630
  514MOL0     H69331   6.469   6.704  10.078  0.2144  1.2581  1.6491
  514MOL0     H69332   6.433   6.805   9.928  1.5374  2.5098  1.4474
  514MOL0     H69333   6.409   6.936  10.126  1.0722 -1.4237  2.0347
  514MOL0     H69334   6.260   6.930  10.046 -0.5708  0.0581  0.2879
  514MOL0     H69335   6.149   6.771  10.203 -1.1576  1.2941 -1.0712
  514MOL0     H69336   6.292   6.745  10.292 -0.9478 -0.3479  0.8267
  514MOL0     H69337   6.309   7.005  10.349  0.6916 -1.7947  2.4762
  514MOL0     H69338   6.163   7.018  10.258 -1.1422 -2.9798  0.0821
  514MOL0     H69339   6.194   6.842  10.505  3.6902 -0.2217 -2.5271
  514MOL0     H69340   6.047   6.866  10.424 -0.0502 -0.2118 -0.8448
  514MOL0     H69341   6.087   7.206  10.383  0.9643  0.7491  0.2602
  514MOL0     H69342   6.066   7.426  10.701  0.9052 -1.7387  0.9610
  514MOL0     H69343   6.165   7.441  10.557 -0.2753 -1.2868 -0.6580
  514MOL0     H69344   5.860   7.480  10.570 -3.2151 -0.3056 -4.6494
  514MOL0     H69345   5.907   7.374  10.454 -1.2621 -0.5379  1.0979
  514MOL0     H69346   6.040   7.548  10.343  0.7691  1.9726  1.4322
  514MOL0     H69347   6.017   7.661  10.467  0.8167  1.6737 -2.6448
  514MOL0     H69348   5.875   7.712  10.297 -0.1794 -1.3449 -1.4449
  514MOL0     H69349   5.766   7.658  10.433 -0.0826 -2.0814  0.7645
  514MOL0     H69350   5.672   7.777  10.222  1.0480 -1.8736  1.8295
  514MOL0     H69351   5.590   7.956   9.957 -1.2369  0.3278  0.2104
  514MOL0     H69352   5.435   7.881  10.002 -0.4583 -0.7803  3.1200
  514MOL0     H69353   5.545   7.941  10.128  2.8938  0.8818 -0.7559
  514MOL0     H69354   5.322   7.990   9.703  0.6233  1.6629  0.2665
  514MOL0     H69355   5.247   8.067   9.482  1.5717  1.0330  1.1251
  514MOL0     H69356   5.477   7.912   9.119 -0.7516  2.5164  0.5022
  514MOL0     H69357   5.323   7.822   9.096 -2.7943  1.0229 -0.8424
  514MOL0     H69358   5.226   8.029   9.013  0.1087 -1.8317 -1.3420
  514MOL0     H69359   5.388   8.099   9.012  0.1367 -0.4140  1.1095
  514MOL0     H69360   5.265   7.969   8.810 -0.3811  0.5820  0.4348
  514MOL0     H69361   5.356   7.837   8.863  0.0453  0.8329 -1.3017
  514MOL0     H69362   5.458   8.115   8.790 -2.2429 -0.4319 -0.3220
  514MOL0     H69363   5.581   8.011   8.861  0.5184 -1.2646  0.7784
  514MOL0     H69364   5.444   7.992   8.598  1.0655  1.9496  1.2343
  514MOL0     H69365   5.533   7.845   8.679  4.6774  0.8029  1.3751
  514MOL0     H69366   5.663   8.089   8.586  5.4798 -0.9611  1.9888
  514MOL0     H69367   5.733   7.961   8.670  3.4400  0.9154 -3.1178
  514MOL0     H69368   5.564   7.920   8.421 -1.6035 -2.3568  0.5059
  514MOL0     H69369   5.637   7.786   8.510 -0.4642  0.0945  0.2779
  514MOL0     H69370   5.874   7.853   8.452  0.6069 -1.3414 -0.6279
  514MOL0     H69371   5.809   8.004   8.382 -1.2995  0.1282 -1.6215
  514MOL0     H69372   5.459   7.738   9.288  0.9811  0.1568 -0.1691
  514MOL0     H69373   5.557   7.678   9.507 -1.7553 -0.9583  2.4501
  514MOL0     H69374   5.606   7.454   9.862 -4.0942  2.3571 -0.8885
  514MOL0     H69375   5.730   7.375  10.068  0.5848  0.2286 -2.2927
  514MOL0     H69376   5.905   6.488   9.619  1.0440 -1.4731 -0.9803
  514MOL0     H69377   5.665   6.414   9.709  0.7386 -0.7295 -0.6258
  514MOL0     H69378   5.373   6.605  10.114 -0.1733  1.0769  3.2745
  514MOL0     H69379   5.125   6.561  10.210 -0.8866 -0.4227  0.0908
  514MOL0     H69380   4.937   6.487  10.310 -3.5930  1.2323 -1.1710
  514MOL0     H69381   4.874   6.436  10.156  1.1422  0.6181 -0.8418
  514MOL0     H69382   4.867   6.275  10.407 -0.5085 -0.6373 -0.5875
  514MOL0     H69383   4.815   6.240  10.243  4.5994  0.6239 -0.9413
  514MOL0     H69384   4.609   6.329  10.278  1.0486  1.7335 -0.8687
  514MOL0     H69385   4.679   6.472  10.360 -1.4305  1.6761  0.6975
  514MOL0     H69386   4.697   6.364  10.555  1.0168  1.0937 -2.2225
  514MOL0     H69387   4.674   6.187  10.488 -0.0428 -0.1177 -2.0148
  514MOL0     H69388   4.278   6.304  10.568  0.9527  1.3409  0.7427
  514MOL0     H69389   5.189   6.151  10.123  0.5289 -0.2629  2.4064
  514MOL0     H69390   5.385   6.184  10.025 -0.4106 -0.8700  0.2801
  515MOL0     O69391   5.965   7.112   8.535  0.2229  0.7108  0.0021
  515MOL0     C69392   6.046   7.137   8.444  0.1214  0.1354 -0.3074
  515MOL0     O69393   6.063   7.264   8.382 -0.5835  0.2889 -0.2814
  515MOL0     C69394   6.015   7.367   8.451 -0.1655 -0.4065 -0.2558
  515MOL0     C69395   6.064   7.417   8.569 -0.4221  0.4959 -0.5041
  515MOL0     C69396   5.997   7.530   8.631  0.2395 -0.7852  0.0974
  515MOL0     C69397   5.877   7.579   8.591 -0.0884 -0.2656 -0.2073
  515MOL0     O69398   5.802   7.676   8.654 -0.0467 -0.3839  0.2941
  515MOL0     C69399   5.833   7.720   8.793 -1.2370 -0.3898  0.5755
  515MOL0     C69400   5.732   7.660   8.884 -0.2979 -0.0287 -0.2084
  515MOL0     C69401   5.728   7.506   8.880 -0.0954  0.2478 -0.5117
  515MOL0     C69402   5.855   7.436   8.949  0.4163 -0.3918  0.1966
  515MOL0     C69403   5.872   7.287   8.903 -1.4115  0.2888 -0.0093
  515MOL0     C69404   6.011   7.228   8.933  0.0434 -0.4218  0.4987
  515MOL0     C69405   6.012   7.088   8.887  0.6895 -0.0243  0.7944
  515MOL0     C69406   5.943   6.986   8.985 -0.9194 -0.2245 -0.3699
  515MOL0     N69407   6.025   6.981   9.103 -0.2942 -0.2216  0.0732
  515MOL0     C69408   5.976   7.026   9.223 -0.0194  1.1709  0.1567
  515MOL0     C69409   6.081   7.027   9.310 -0.1295  0.8986  0.0941
  515MOL0     C69410   6.072   7.080   9.454  0.7138  0.1923  0.2810
  515MOL0     C69411   5.974   7.005   9.545 -0.0001  0.0980  0.2917
  515MOL0     C69412   6.027   6.873   9.601 -0.0097 -1.1920  0.4968
  515MOL0     C69413   6.141   6.872   9.699 -0.0787 -0.6311  1.1455
  515MOL0     O69414   6.119   6.985   9.783  0.3322  0.3362 -0.6263
  515MOL0     C69415   6.037   6.982   9.894 -0.2668 -0.1814  0.4465
  515MOL0     C69416   5.974   6.867   9.946 -0.5945 -0.0342 -0.1282
  515MOL0     C69417   5.896   6.876  10.065 -0.0485 -0.0636  0.2105
  515MOL0     C69418   5.847   6.740  10.119  1.0640  0.6927  0.8154
  515MOL0     C69419   5.879   7.008  10.126 -0.2446 -0.0034  0.6968
  515MOL0     C69420   5.795   7.036  10.249 -0.9373 -0.1022 -0.8670
  515MOL0     O69421   5.786   6.936  10.351  0.1239 -0.6624  0.2571
  515MOL0     C69422   5.724   6.988  10.459 -0.0346  0.3338  0.1217
  515MOL0     C69423   5.585   7.014  10.458 -0.1617 -0.0639 -0.3968
  515MOL0     C69424   5.529   7.085  10.568 -0.1306  0.5786  0.5504
  515MOL0     C69425   5.601   7.121  10.681  0.0492  0.2002  0.1413
  515MOL0     O69426   5.531   7.196  10.773  0.0062 -0.4620 -0.1244
  515MOL0     C69427   5.607   7.257  10.885  0.6594 -0.7987  0.8340
  515MOL0     C69428   5.661   7.400  10.840 -0.3682 -0.2328  0.4269
  515MOL0     C69429   5.693   7.497  10.958 -0.1715 -0.2915  0.2175
  515MOL0     C69430   5.789   7.615  10.927 -0.0463  0.0628 -0.7911
  515MOL0     C69431   5.812   7.713  11.048 -0.1776 -0.2035 -0.3090
  515MOL0     C69432   5.870   7.855  10.999 -0.5528  1.2572 -0.4757
  515MOL0     C69433   5.981   7.911  11.095 -0.6380  0.4656  0.4113
  515MOL0     C69434   5.981   8.068  11.114  0.2392 -0.4727 -0.0543
  515MOL0    Cl69435   5.839   8.117  11.197  0.0847 -0.1398  0.1439
  515MOL0     C69436   5.737   7.085  10.687  1.6522 -0.1505  0.5210
  515MOL0     C69437   5.796   7.011  10.581  0.3192 -0.2322 -0.9086
  515MOL0     O69438   5.753   7.144  10.265  0.2831 -0.1469 -0.8325
  515MOL0     C69439   5.941   7.124  10.070 -0.7075  0.3369 -0.1122
  515MOL0     C69440   6.027   7.108   9.958 -0.3999  0.2683 -1.0315
  515MOL0     N69441   6.193   6.992   9.241  0.7624 -0.4542 -0.7414
  515MOL0     N69442   6.162   6.971   9.109 -0.1199  0.3828 -0.3244
  515MOL0     C69443   5.836   7.531   8.468  0.2675 -0.2756  0.8239
  515MOL0     C69444   5.902   7.431   8.399  0.6338 -0.3476  0.6108
  515MOL0     C69445   6.116   7.024   8.381  0.0805  0.9298  0.5661
  515MOL0     C69446   6.117   6.900   8.455 -0.4066 -0.6844  0.4265
  515MOL0     C69447   6.201   6.795   8.402  1.0642 -0.7006 -1.0639
  515MOL0     C69448   6.265   6.812   8.282 -0.6450 -0.2251  0.0730
  515MOL0     O69449   6.348   6.715   8.245  0.0697  0.7027  0.4711
  515MOL0     C69450   6.302   6.574   8.253  0.5715 -0.8996 -0.0467
  515MOL0     C69451   6.417   6.478   8.278 -0.6291  0.0615  0.0312
  515MOL0     C69452   6.510   6.457   8.156 -0.2679 -0.6360 -0.7699
  515MOL0     C69453   6.468   6.398   8.021  1.0351 -0.2202  0.6855
  515MOL0     C69454   6.410   6.263   8.041  0.1144  0.8162  0.3897
  515MOL0     C69455   6.361   6.160   8.061 -0.7903  0.6428  0.4328
  515MOL0     C69456   6.267   6.940   8.214 -0.8316 -0.1559 -0.2499
  515MOL0     C69457   6.192   7.043   8.269  0.0041 -1.0316  0.3716
  515MOL0     H69458   6.156   7.382   8.616 -1.2044  0.0386  0.7317
  515MOL0     H69459   6.041   7.566   8.723  0.7293 -1.1487  0.0081
  515MOL0     H69460   5.937   7.694   8.816  1.2409  1.7248 -5.8175
  515MOL0     H69461   5.821   7.827   8.809  0.5981  0.9471 -4.7300
  515MOL0     H69462   5.734   7.694   8.988 -0.5520 -3.0513  0.8902
  515MOL0     H69463   5.628   7.679   8.857 -1.2875 -2.2705  1.6171
  515MOL0     H69464   5.643   7.468   8.936 -0.8149 -0.5903 -2.1183
  515MOL0     H69465   5.711   7.475   8.776  0.8316 -4.5166  0.5221
  515MOL0     H69466   5.950   7.488   8.937  0.5455 -0.5137  0.6578
  515MOL0     H69467   5.833   7.442   9.057 -3.2981  0.5436 -0.4589
  515MOL0     H69468   5.804   7.215   8.950 -2.4914  0.6663 -0.9501
  515MOL0     H69469   5.870   7.282   8.794  3.6693  0.5200 -0.3556
  515MOL0     H69470   6.091   7.279   8.879  0.4588  1.7374  2.9618
  515MOL0     H69471   6.016   7.240   9.041 -2.7349  0.7468  0.5761
  515MOL0     H69472   5.973   7.082   8.785 -0.7701  3.5121  0.9859
  515MOL0     H69473   6.113   7.051   8.871 -0.5269 -2.2639 -2.8700
  515MOL0     H69474   5.952   6.886   8.943  1.9235 -0.0219 -0.4579
  515MOL0     H69475   5.839   7.012   9.007 -0.1452  0.2416  3.4338
  515MOL0     H69476   5.875   7.054   9.251 -2.1882 -0.2694 -5.0010
  515MOL0     H69477   6.175   7.068   9.486  1.4334 -0.2125 -1.9648
  515MOL0     H69478   6.039   7.184   9.461  0.8576  0.2427  0.1987
  515MOL0     H69479   5.885   6.990   9.483  0.4451  0.8629 -0.5580
  515MOL0     H69480   5.950   7.067   9.632  0.3537 -0.7109  0.9740
  515MOL0     H69481   6.076   6.825   9.516  2.8379  1.7041  0.3225
  515MOL0     H69482   5.940   6.836   9.657 -2.0784  0.8915 -1.1389
  515MOL0     H69483   6.240   6.894   9.657 -0.4016  2.3317  1.7079
  515MOL0     H69484   6.146   6.773   9.745  2.0270 -0.6636  0.9214
  515MOL0     H69485   5.997   6.769   9.907  4.8233  0.4210  1.1910
  515MOL0     H69486   5.841   6.667  10.038  0.8001  0.9300  0.6160
  515MOL0     H69487   5.912   6.704  10.199  0.7483 -0.8186  0.4226
  515MOL0     H69488   5.745   6.754  10.155  0.7848  0.4201  0.1458
  515MOL0     H69489   5.534   6.992  10.365  0.8281  1.1062 -1.2483
  515MOL0     H69490   5.428   7.125  10.566  0.3397  1.8191  0.6918
  515MOL0     H69491   5.531   7.278  10.961 -0.8227 -2.0812 -0.2288
  515MOL0     H69492   5.677   7.187  10.933  1.5661  1.1552  2.5058
  515MOL0     H69493   5.757   7.386  10.789 -0.7264  1.9621 -0.9645
  515MOL0     H69494   5.593   7.456  10.776  0.2452  1.1951  0.9637
  515MOL0     H69495   5.739   7.440  11.040 -3.5088 -0.8507  1.9061
  515MOL0     H69496   5.596   7.536  10.993 -1.1833 -3.0902  0.8124
  515MOL0     H69497   5.889   7.580  10.900  0.2364 -1.4835  1.9039
  515MOL0     H69498   5.747   7.673  10.844 -0.9313  2.7350  1.3801
  515MOL0     H69499   5.883   7.664  11.115  1.0853  2.8245  0.7502
  515MOL0     H69500   5.715   7.714  11.099 -1.1035 -3.2364 -1.7412
  515MOL0     H69501   5.918   7.848  10.901  2.3922 -2.3738  0.9541
  515MOL0     H69502   5.783   7.920  10.989 -2.4777 -1.0034  0.6123
  515MOL0     H69503   6.079   7.879  11.057 -1.3449  0.4589 -1.5070
  515MOL0     H69504   5.962   7.865  11.192  1.9323 -2.7306 -0.3895
  515MOL0     H69505   5.994   8.110  11.014 -0.8194  1.0449  0.4078
  515MOL0     H69506   6.070   8.085  11.176 -0.8388 -3.3620  2.5346
  515MOL0     H69507   5.789   7.096  10.782 -1.2901 -1.8824  2.4945
  515MOL0     H69508   5.898   6.974  10.577  0.1238 -0.8474 -0.3861
  515MOL0     H69509   5.933   7.225  10.110 -0.1642 -0.2137  1.4501
  515MOL0     H69510   6.078   7.190   9.907  2.5611  0.3093  1.6764
  515MOL0     H69511   5.744   7.572   8.428 -0.5287 -1.8585  0.9737
  515MOL0     H69512   5.861   7.386   8.308  0.6517 -3.6816  2.1049
  515MOL0     H69513   6.067   6.895   8.551 -1.6643 -2.0833 -0.2631
  515MOL0     H69514   6.211   6.703   8.459  0.9063 -0.8600 -1.2933
  515MOL0     H69515   6.228   6.549   8.330 -0.2687  0.4773 -0.3741
  515MOL0     H69516   6.254   6.554   8.157  0.3335  1.7113 -0.5257
  515MOL0     H69517   6.394   6.379   8.318  2.3347  0.8390  4.4266
  515MOL0     H69518   6.467   6.533   8.358 -1.3227 -0.0472  0.5419
  515MOL0     H69519   6.588   6.394   8.197 -0.2805  1.0474  2.1151
  515MOL0     H69520   6.552   6.550   8.116  1.3133 -0.3629  1.3875
  515MOL0     H69521   6.556   6.382   7.957  0.5944  2.7078 -0.8009
  515MOL0     H69522   6.408   6.474   7.970  0.2953 -0.5704  1.0142
  515MOL0     H69523   6.313   6.066   8.078 -1.2856  1.3186  3.1885
  515MOL0     H69524   6.327   6.965   8.127 -1.2348  2.8769  0.2190
  515MOL0     H69525   6.201   7.141   8.224  2.2367 -1.4880 -0.2967
  516MOL0     O69526   6.835   2.328   8.958 -0.0882  0.2357  0.3474
  516MOL0     C69527   6.713   2.346   8.960  0.5957 -0.0058 -0.2589
  516MOL0     O69528   6.631   2.316   9.076 -0.2261 -0.5972 -0.3708
  516MOL0     C69529   6.676   2.250   9.180 -0.6867 -0.1635 -0.2022
  516MOL0     C69530   6.743   2.128   9.171  0.3364 -0.5385 -0.1000
  516MOL0     C69531   6.800   2.067   9.283  0.3236  0.0378  0.6934
  516MOL0     C69532   6.802   2.126   9.411 -0.0882 -1.2302 -0.0988
  516MOL0     O69533   6.896   2.078   9.501  0.2730  0.1053 -0.2729
  516MOL0     C69534   6.952   2.163   9.603 -0.1049  0.3145 -0.0632
  516MOL0     C69535   7.074   2.087   9.650 -0.4131  0.4847 -0.1476
  516MOL0     C69536   7.039   1.951   9.711 -0.0116 -0.0818 -0.8532
  516MOL0     C69537   7.168   1.876   9.760  1.0120 -0.4443 -0.6184
  516MOL0     C69538   7.250   1.806   9.652  0.1826 -0.5910 -0.1858
  516MOL0     C69539   7.175   1.690   9.588 -0.3208 -0.1291  0.1155
  516MOL0     C69540   7.270   1.592   9.506  1.1781 -0.2371  0.3631
  516MOL0     C69541   7.190   1.499   9.414  0.5415  0.0987 -0.5920
  516MOL0     N69542   7.169   1.364   9.456 -0.1106  0.0480 -0.9035
  516MOL0     C69543   7.156   1.256   9.369 -0.4981 -0.1507 -0.7205
  516MOL0     C69544   7.118   1.156   9.448 -0.1010 -0.4758 -0.9870
  516MOL0     C69545   7.078   1.015   9.414  0.5344 -0.3098  0.0866
  516MOL0     C69546   7.129   0.910   9.519 -0.0962 -0.1218  0.1206
  516MOL0     C69547   7.047   0.778   9.526  2.0557 -0.0047 -1.4827
  516MOL0     C69548   7.096   0.683   9.640  0.1324 -0.3234 -0.3700
  516MOL0     O69549   7.229   0.642   9.599 -0.5077  1.0016  0.6228
  516MOL0     C69550   7.274   0.524   9.652  0.4000  0.7495 -0.1628
  516MOL0     C69551   7.198   0.424   9.713  1.3733 -0.4491  0.5012
  516MOL0     C69552   7.249   0.301   9.750 -0.2818 -0.7250 -0.5780
  516MOL0     C69553   7.162   0.191   9.805  0.1978  0.1843  0.2269
  516MOL0     C69554   7.385   0.285   9.737  0.2428 -0.4061 -0.3163
  516MOL0     C69555   7.446   0.156   9.765 -1.2776 -0.3638 -0.2432
  516MOL0     O69556   7.431   0.105   9.885 -0.1502  0.1825 -0.2446
  516MOL0     C69557   7.500  -0.012   9.901  0.3841  0.7295  0.3959
  516MOL0     C69558   7.614  -0.018   9.963 -0.6657 -1.2163  0.5871
  516MOL0     C69559   7.691  -0.125   9.984  0.4276  0.9194  0.6189
  516MOL0     C69560   7.643  -0.252   9.936 -0.6422 -0.3936  0.6590
  516MOL0     O69561   7.722  -0.363   9.942  0.1453  0.3478  0.5900
  516MOL0     C69562   7.675  -0.461  10.030 -0.5375  1.1961  0.5768
  516MOL0     C69563   7.788  -0.483  10.136  0.0207  0.2721 -0.2872
  516MOL0     C69564   7.749  -0.572  10.254 -1.4305 -0.8014  1.2826
  516MOL0     C69565   7.762  -0.718  10.231  0.1519  0.0750 -0.1884
  516MOL0     C69566   7.693  -0.820  10.323  0.0203  0.1841 -0.6473
  516MOL0     C69567   7.740  -0.965  10.314 -0.2720 -0.4583  0.6321
  516MOL0     C69568   7.655  -1.063  10.403  0.1258 -0.2739  0.6285
  516MOL0     C69569   7.729  -1.094  10.527 -0.3521 -0.3695  1.2105
  516MOL0    Cl69570   7.887  -1.194  10.498  0.4645  0.4183  0.1041
  516MOL0     C69571   7.515  -0.250   9.873 -0.4824  0.6578 -0.1334
  516MOL0     C69572   7.447  -0.132   9.857  0.4878  0.0689 -0.3101
  516MOL0     O69573   7.511   0.105   9.675 -0.5179  0.3595  0.3105
  516MOL0     C69574   7.466   0.379   9.676 -0.8490 -0.2308 -0.0030
  516MOL0     C69575   7.409   0.502   9.629 -0.5311  0.3499  0.2874
  516MOL0     N69576   7.098   1.210   9.577 -0.0030  0.2743 -0.0201
  516MOL0     N69577   7.132   1.325   9.580 -0.0444 -0.6738  0.3306
  516MOL0     C69578   6.723   2.240   9.427  0.6597  0.4858  0.6676
  516MOL0     C69579   6.667   2.303   9.308  0.3891  0.4419 -0.3982
  516MOL0     C69580   6.645   2.408   8.839 -0.3335  0.8445 -0.4348
  516MOL0     C69581   6.720   2.431   8.714  0.3723  0.9747 -0.4308
  516MOL0     C69582   6.655   2.491   8.612 -1.0354  0.1879  0.3738
  516MOL0     C69583   6.522   2.539   8.621 -0.5407  0.4975 -0.1684
  516MOL0     O69584   6.466   2.598   8.508 -0.5059 -1.1168  0.4294
  516MOL0     C69585   6.348   2.681   8.532  0.8065 -0.3422 -0.1583
  516MOL0     C69586   6.382   2.817   8.599 -0.7635  0.3254  0.1197
  516MOL0     C69587   6.423   2.912   8.489 -0.2800 -0.8048  0.1367
  516MOL0     C69588   6.470   3.046   8.534  0.9556  0.2050 -0.7186
  516MOL0     C69589   6.578   3.041   8.630  0.4521  0.0269 -0.0664
  516MOL0     C69590   6.666   3.054   8.719 -0.6103  0.5334 -0.3095
  516MOL0     C69591   6.456   2.520   8.741  0.0611  0.7724 -0.7643
  516MOL0     C69592   6.516   2.445   8.846  0.2104 -0.1848 -0.0371
  516MOL0     H69593   6.762   2.086   9.072  0.7073 -1.5152  0.3793
  516MOL0     H69594   6.863   1.980   9.267  0.1356 -0.6281  3.1360
  516MOL0     H69595   6.974   2.258   9.554  0.8702 -0.4996 -1.2759
  516MOL0     H69596   6.886   2.182   9.688 -0.9728 -0.7492 -0.4800
  516MOL0     H69597   7.139   2.079   9.562 -0.4802 -0.6455 -0.1069
  516MOL0     H69598   7.131   2.154   9.714  2.4059 -1.3988 -0.4887
  516MOL0     H69599   6.970   1.970   9.794 -1.3669  3.2473 -2.5528
  516MOL0     H69600   6.982   1.897   9.636 -0.4933 -0.9449  0.1051
  516MOL0     H69601   7.236   1.956   9.789  3.7374 -2.3420 -1.3752
  516MOL0     H69602   7.143   1.811   9.845 -3.8511  1.2777 -0.4370
  516MOL0     H69603   7.285   1.875   9.575 -2.1026  0.0044 -0.7586
  516MOL0     H69604   7.341   1.771   9.702  0.8246 -0.7745 -1.4431
  516MOL0     H69605   7.123   1.643   9.671 -2.5266  2.2407  0.1978
  516MOL0     H69606   7.103   1.740   9.523  0.3655  1.8216  0.7739
  516MOL0     H69607   7.340   1.661   9.458  0.5609 -0.6129 -1.1502
  516MOL0     H69608   7.342   1.538   9.569  0.9265 -2.0456 -0.8065
  516MOL0     H69609   7.258   1.496   9.328  0.8239  0.1057 -0.3655
  516MOL0     H69610   7.097   1.545   9.377  0.0246  1.2415  1.9565
  516MOL0     H69611   7.192   1.251   9.266  3.1034 -1.4324  0.4511
  516MOL0     H69612   6.968   1.014   9.414  0.4114 -0.9995  3.5260
  516MOL0     H69613   7.113   0.995   9.312  0.3342  4.8218 -1.2313
  516MOL0     H69614   7.116   0.950   9.619 -1.8040  0.6713 -0.3751
  516MOL0     H69615   7.235   0.894   9.497 -0.0280 -2.3164  1.7019
  516MOL0     H69616   7.059   0.732   9.427  0.2440  0.2541 -1.8502
  516MOL0     H69617   6.948   0.818   9.549  3.0882  0.8252  2.1506
  516MOL0     H69618   7.019   0.607   9.654  0.6888 -0.8684 -0.2063
  516MOL0     H69619   7.107   0.735   9.735  3.5340 -1.0003 -0.2604
  516MOL0     H69620   7.090   0.428   9.710  0.9997 -4.3710 -4.0463
  516MOL0     H69621   7.185   0.093   9.764  3.2132  0.4965  0.9034
  516MOL0     H69622   7.175   0.196   9.914 -1.9478 -1.1413  0.5907
  516MOL0     H69623   7.059   0.214   9.779  0.5510  0.3214 -1.1214
  516MOL0     H69624   7.667   0.072   9.992 -0.1757 -1.8061  1.5804
  516MOL0     H69625   7.794  -0.125  10.018  0.8052 -0.4412 -0.4287
  516MOL0     H69626   7.577  -0.431  10.070 -1.6480 -1.8183  0.4159
  516MOL0     H69627   7.655  -0.557   9.980 -0.7207  1.5300  0.0011
  516MOL0     H69628   7.876  -0.530  10.091  0.9231 -1.2150  2.7568
  516MOL0     H69629   7.825  -0.386  10.171  0.2462  0.3073 -0.6177
  516MOL0     H69630   7.643  -0.552  10.270 -0.9895  2.6419  0.6549
  516MOL0     H69631   7.806  -0.549  10.344  1.4234 -4.1088  0.5487
  516MOL0     H69632   7.739  -0.733  10.125  2.8323 -1.8095 -0.6211
  516MOL0     H69633   7.870  -0.738  10.238  0.2622  0.8558  0.3601
  516MOL0     H69634   7.585  -0.818  10.308  0.2646 -1.4150 -3.1351
  516MOL0     H69635   7.712  -0.798  10.429  0.9623 -0.3874 -0.6898
  516MOL0     H69636   7.720  -0.991  10.210  1.5118 -0.3606  0.2331
  516MOL0     H69637   7.846  -0.984  10.333 -0.2294 -0.6167  0.2510
  516MOL0     H69638   7.649  -1.163  10.358  2.2254 -3.6961  6.8092
  516MOL0     H69639   7.553  -1.035  10.427 -0.6253 -2.7525  0.6720
  516MOL0     H69640   7.662  -1.163  10.578  1.6092 -3.0716  0.3161
  516MOL0     H69641   7.738  -0.998  10.581 -0.3276  0.7010 -0.6163
  516MOL0     H69642   7.482  -0.348   9.840 -1.2354  1.0204 -0.4836
  516MOL0     H69643   7.357  -0.138   9.796  2.7645  0.5344 -3.9960
  516MOL0     H69644   7.569   0.356   9.649 -1.1734 -0.1181 -1.4347
  516MOL0     H69645   7.466   0.562   9.559  0.3239  1.6060  1.9861
  516MOL0     H69646   6.704   2.289   9.522 -1.2759  0.7063  0.2117
  516MOL0     H69647   6.623   2.403   9.309 -0.9618 -0.1330  0.7766
  516MOL0     H69648   6.822   2.394   8.712 -0.2173 -1.0872  2.0256
  516MOL0     H69649   6.718   2.502   8.524 -0.4492  3.8598  1.1021
  516MOL0     H69650   6.296   2.682   8.436 -5.3821 -0.6014  2.7265
  516MOL0     H69651   6.266   2.637   8.589 -0.1874  2.5976  0.8294
  516MOL0     H69652   6.462   2.808   8.673 -1.0471 -0.6677  0.3170
  516MOL0     H69653   6.290   2.857   8.642 -1.2438 -0.3457 -0.2662
  516MOL0     H69654   6.333   2.923   8.428 -0.5926  1.6957  0.9613
  516MOL0     H69655   6.504   2.869   8.430 -0.2725  1.8095 -1.9036
  516MOL0     H69656   6.386   3.090   8.589  0.7868 -0.6588 -0.2669
  516MOL0     H69657   6.489   3.098   8.440  0.2893 -1.7788 -2.0303
  516MOL0     H69658   6.741   3.046   8.796 -0.6891 -2.3898 -0.4405
  516MOL0     H69659   6.356   2.551   8.772  0.7098 -0.4809  3.2025
  516MOL0     H69660   6.446   2.424   8.926 -0.2173 -0.1594 -0.4010
  517MOL0     O69661   3.100  10.132   9.463 -0.7077 -1.2628  0.0163
  517MOL0     C69662   3.083  10.023   9.516 -0.5383  1.4474 -0.0696
  517MOL0     O69663   3.046  10.001   9.646  0.4636  0.3795  0.0188
  517MOL0     C69664   3.046  10.107   9.735  0.9099  0.1544 -0.3788
  517MOL0     C69665   3.159  10.177   9.755 -0.9850  0.8921  0.3179
  517MOL0     C69666   3.163  10.267   9.865  0.2274  0.5945 -1.2274
  517MOL0     C69667   3.059  10.278   9.957 -0.3680  0.3344 -0.3508
  517MOL0     O69668   3.080  10.338  10.081 -0.1000  0.2164  0.5225
  517MOL0     C69669   3.175  10.447  10.094  0.2123 -0.9838 -0.0082
  517MOL0     C69670   3.147  10.521  10.228 -0.0775  0.7898  0.1716
  517MOL0     C69671   3.255  10.623  10.254  0.4473 -0.4788 -0.6927
  517MOL0     C69672   3.194  10.728  10.345  0.3022 -0.0224 -0.0334
  517MOL0     C69673   3.307  10.808  10.417  0.3729 -0.7217  0.7313
  517MOL0     C69674   3.249  10.946  10.457 -0.3466 -0.1967 -0.6521
  517MOL0     C69675   3.342  11.024  10.554  0.9018 -0.6400  0.8870
  517MOL0     C69676   3.434  11.120  10.481 -0.4580  0.1382 -0.3709
  517MOL0     N69677   3.565  11.084  10.524 -0.3003  0.1624  0.1179
  517MOL0     C69678   3.609  11.096  10.652  0.2515  0.9379 -0.9012
  517MOL0     C69679   3.738  11.055  10.642  0.0871  0.1598 -0.8021
  517MOL0     C69680   3.831  11.052  10.764  0.0488 -0.0396  0.5624
  517MOL0     C69681   3.900  11.190  10.803 -0.3474  0.1651 -1.0158
  517MOL0     C69682   3.925  11.289  10.691  0.5420  0.1521  0.6586
  517MOL0     C69683   4.025  11.394  10.742 -0.1440 -0.0044 -0.3819
  517MOL0     O69684   3.951  11.511  10.790  0.5576  0.0175  0.1783
  517MOL0     C69685   4.023  11.572  10.881 -0.0727  0.3496 -0.4260
  517MOL0     C69686   4.061  11.695  10.847 -1.6407  0.2273  0.3694
  517MOL0     C69687   4.142  11.775  10.927 -0.4718 -0.0141  0.2092
  517MOL0     C69688   4.161  11.916  10.877 -0.3455 -1.1622  0.9896
  517MOL0     C69689   4.172  11.728  11.056 -0.5827  0.1682 -0.2339
  517MOL0     C69690   4.252  11.805  11.155  0.1037  0.1440  0.5189
  517MOL0     O69691   4.345  11.891  11.102 -0.0029  0.3284  0.2038
  517MOL0     C69692   4.436  11.938  11.192  0.3827  0.5593  0.3313
  517MOL0     C69693   4.499  11.847  11.280 -0.0764 -1.3474 -1.1153
  517MOL0     C69694   4.592  11.888  11.375 -0.2561  0.5942 -0.3137
  517MOL0     C69695   4.625  12.030  11.394  0.9606  0.6630 -1.5514
  517MOL0     O69696   4.709  12.062  11.498 -0.8596  0.2433  0.0557
  517MOL0     C69697   4.772  12.193  11.500 -0.1231 -0.2540 -0.3393
  517MOL0     C69698   4.875  12.209  11.389 -0.9545 -0.4264 -0.4198
  517MOL0     C69699   4.986  12.101  11.398 -1.1309 -0.1328  0.5791
  517MOL0     C69700   5.120  12.156  11.343  1.4851  0.2701 -0.4921
  517MOL0     C69701   5.197  12.240  11.442 -0.5281 -0.3261 -0.2552
  517MOL0     C69702   5.327  12.311  11.390 -0.5572  0.7624 -0.6046
  517MOL0     C69703   5.438  12.200  11.375  0.5918 -0.2645  0.0175
  517MOL0     C69704   5.551  12.277  11.325 -0.3543 -0.5378 -0.7838
  517MOL0    Cl69705   5.636  12.350  11.462 -0.5865 -0.1846  0.0271
  517MOL0     C69706   4.563  12.112  11.302  0.1873 -0.2591  0.4481
  517MOL0     C69707   4.473  12.074  11.199 -0.2499  1.4901  0.2044
  517MOL0     O69708   4.221  11.793  11.274  0.7149 -0.1580  0.1384
  517MOL0     C69709   4.138  11.602  11.091 -0.4312 -0.6400  0.6968
  517MOL0     C69710   4.061  11.525  11.006 -0.3141  0.1739 -0.2394
  517MOL0     N69711   3.780  11.022  10.512 -0.6168  0.5665  0.4045
  517MOL0     N69712   3.666  11.038  10.443  0.0559  1.1511 -0.3050
  517MOL0     C69713   2.935  10.204   9.930 -0.0754 -0.1456  0.3447
  517MOL0     C69714   2.936  10.121   9.817  0.9356 -0.7311 -0.4312
  517MOL0     C69715   3.091   9.906   9.417 -0.6673  0.2368 -0.5824
  517MOL0     C69716   3.142   9.919   9.288  0.4236  0.2966  0.2482
  517MOL0     C69717   3.166   9.811   9.210  0.3005 -0.1087  1.0256
  517MOL0     C69718   3.141   9.682   9.244 -0.0170  0.9415  0.0630
  517MOL0     O69719   3.184   9.584   9.156 -0.7302  0.6001  0.1375
  517MOL0     C69720   3.087   9.579   9.047 -0.4177  0.1141  0.3315
  517MOL0     C69721   3.075   9.435   9.000  0.8420  0.3534 -0.6802
  517MOL0     C69722   2.979   9.427   8.877 -0.3551 -0.4975  1.1009
  517MOL0     C69723   2.957   9.284   8.831 -0.4545 -0.0891 -0.4914
  517MOL0     C69724   3.070   9.243   8.743  0.8982 -0.2559 -0.3968
  517MOL0     C69725   3.170   9.210   8.673  0.8800 -0.1924 -0.5739
  517MOL0     C69726   3.074   9.661   9.363  0.5033 -0.3322 -0.4863
  517MOL0     C69727   3.053   9.773   9.455 -0.0533  0.2116 -0.4598
  517MOL0     H69728   3.248  10.171   9.693 -1.2580 -4.9727  0.0227
  517MOL0     H69729   3.258  10.306   9.901  0.9602 -2.2639  0.2679
  517MOL0     H69730   3.277  10.408  10.098 -0.1106 -1.8455  0.0040
  517MOL0     H69731   3.161  10.531  10.026 -0.4668 -0.9296  0.1857
  517MOL0     H69732   3.048  10.565  10.212 -0.9311 -1.8655 -2.8763
  517MOL0     H69733   3.132  10.449  10.309 -3.0486  0.9056 -0.1400
  517MOL0     H69734   3.328  10.567  10.314 -0.9574  1.2078  2.8969
  517MOL0     H69735   3.295  10.669  10.163  0.1155  1.5561  0.1250
  517MOL0     H69736   3.132  10.800  10.291  1.7188  2.8240  1.9114
  517MOL0     H69737   3.130  10.687  10.424 -2.0637 -0.0507 -1.8562
  517MOL0     H69738   3.347  10.752  10.502  1.0336  1.3752  1.8569
  517MOL0     H69739   3.380  10.824  10.338 -0.1716  0.1970  0.3950
  517MOL0     H69740   3.220  11.000  10.366  2.0579 -0.8210 -1.8852
  517MOL0     H69741   3.155  10.922  10.507  0.2671 -2.2209 -0.3861
  517MOL0     H69742   3.276  11.081  10.620 -0.1255 -2.0550  1.1262
  517MOL0     H69743   3.394  10.950  10.616  1.7943 -1.3116 -0.6032
  517MOL0     H69744   3.413  11.222  10.514 -0.6871 -0.7786  2.6676
  517MOL0     H69745   3.410  11.105  10.375 -2.7356 -0.8313  0.2100
  517MOL0     H69746   3.565  11.155  10.731  0.2444 -2.5472  1.8796
  517MOL0     H69747   3.779  11.010  10.850  1.1602 -3.7081 -0.3759
  517MOL0     H69748   3.908  10.980  10.735  1.9438  1.5905  1.3220
  517MOL0     H69749   3.994  11.170  10.856 -0.4829  0.8922 -0.4800
  517MOL0     H69750   3.825  11.226  10.874  1.7052 -1.3350  2.2071
  517MOL0     H69751   3.830  11.337  10.662  1.2419  0.2619 -1.6784
  517MOL0     H69752   3.961  11.236  10.603 -2.0098 -1.6476  0.5873
  517MOL0     H69753   4.094  11.411  10.659 -1.9334  0.0800 -1.9189
  517MOL0     H69754   4.075  11.349  10.829 -2.9666  1.6226  2.2737
  517MOL0     H69755   4.034  11.723  10.746  3.3710  1.2897 -0.9871
  517MOL0     H69756   4.088  11.947  10.802  2.3090 -1.2638 -1.8686
  517MOL0     H69757   4.160  11.982  10.964 -1.5509  2.3903 -1.4743
  517MOL0     H69758   4.255  11.914  10.821 -1.5135  2.0313 -1.4644
  517MOL0     H69759   4.485  11.740  11.275  0.3975 -1.3784 -2.0315
  517MOL0     H69760   4.630  11.815  11.446 -1.5221 -0.4130 -0.6311
  517MOL0     H69761   4.700  12.275  11.512 -0.9595 -1.3538  3.1474
  517MOL0     H69762   4.827  12.196  11.595 -0.9312  1.7574  0.1104
  517MOL0     H69763   4.839  12.200  11.287  0.0253 -0.0038 -0.8123
  517MOL0     H69764   4.918  12.310  11.395  2.3861 -1.4098 -4.1293
  517MOL0     H69765   4.954  12.010  11.346  3.5147 -1.3954 -0.5507
  517MOL0     H69766   5.013  12.061  11.496 -0.1201  1.4076  0.9457
  517MOL0     H69767   5.180  12.073  11.306 -1.6853 -1.9483 -1.1397
  517MOL0     H69768   5.090  12.223  11.261 -5.2795 -1.2171  0.1757
  517MOL0     H69769   5.229  12.178  11.526 -1.0953 -0.5882 -0.2262
  517MOL0     H69770   5.129  12.321  11.471 -2.0178 -1.8751  0.7364
  517MOL0     H69771   5.302  12.368  11.300 -0.5387  0.2666 -0.9259
  517MOL0     H69772   5.364  12.381  11.465  0.2675 -2.0749  1.8482
  517MOL0     H69773   5.410  12.125  11.301 -0.5995 -2.0783  2.1744
  517MOL0     H69774   5.465  12.157  11.473  1.3017 -3.8095 -1.5658
  517MOL0     H69775   5.531  12.358  11.254  1.1062  1.5379  1.0414
  517MOL0     H69776   5.625  12.211  11.278 -0.8350 -2.2907  0.7980
  517MOL0     H69777   4.591  12.216  11.296  2.2615 -0.8514 -3.3966
  517MOL0     H69778   4.429  12.138  11.124  0.9995  1.0900 -0.9142
  517MOL0     H69779   4.158  11.546  11.182 -3.1239 -0.6738  1.3378
  517MOL0     H69780   4.023  11.424  11.016  0.4767 -0.1945 -0.8160
  517MOL0     H69781   2.854  10.214  10.002  0.9850  2.3781  1.3059
  517MOL0     H69782   2.854  10.061   9.778  0.6217  0.2789 -1.3822
  517MOL0     H69783   3.176  10.018   9.260 -0.7135  1.8232  3.6876
  517MOL0     H69784   3.199   9.841   9.112 -0.1067 -0.3281  0.8159
  517MOL0     H69785   2.984   9.606   9.071 -1.5782  0.4511 -4.0263
  517MOL0     H69786   3.124   9.652   8.974  4.6454 -0.6674  1.7357
  517MOL0     H69787   3.038   9.366   9.076 -0.2218 -1.2908 -2.5651
  517MOL0     H69788   3.171   9.387   8.977 -1.1275 -4.4605 -0.1645
  517MOL0     H69789   3.007   9.483   8.788 -0.5040 -3.5604 -1.0519
  517MOL0     H69790   2.890   9.481   8.910 -1.4123 -1.6758  0.3012
  517MOL0     H69791   2.854   9.284   8.795 -0.0789  2.8824 -1.8887
  517MOL0     H69792   2.982   9.223   8.918  3.1201  2.8487  0.7970
  517MOL0     H69793   3.240   9.163   8.608  0.8487 -0.1594 -0.6322
  517MOL0     H69794   3.060   9.557   9.390  2.6117 -1.5099 -3.4653
  517MOL0     H69795   3.012   9.757   9.555 -0.0237 -1.5164 -0.6936
  518MOL0     O69796   4.926   7.387  10.982 -0.3094  0.1679  0.0220
  518MOL0     C69797   5.025   7.465  11.007  0.1215  0.3470 -0.6634
  518MOL0     O69798   5.042   7.539  11.123  0.6838 -0.6348  0.4211
  518MOL0     C69799   4.937   7.541  11.210 -0.4821  0.3658 -1.3515
  518MOL0     C69800   4.973   7.546  11.343 -0.2375  1.0258 -1.5788
  518MOL0     C69801   4.876   7.553  11.444  0.9037  0.4108  0.1677
  518MOL0     C69802   4.743   7.563  11.410 -0.1757 -0.4670 -0.1464
  518MOL0     O69803   4.628   7.561  11.493 -0.1278  0.4240 -0.1060
  518MOL0     C69804   4.629   7.684  11.578  0.5919  0.3011  0.5822
  518MOL0     C69805   4.557   7.648  11.703  1.0962  0.5315 -0.3295
  518MOL0     C69806   4.432   7.552  11.704  0.1105 -0.2964 -0.1223
  518MOL0     C69807   4.370   7.546  11.851  0.4571 -0.6125 -0.0656
  518MOL0     C69808   4.233   7.481  11.876  0.4944 -1.0191  0.7679
  518MOL0     C69809   4.125   7.561  11.789 -0.5562 -0.0643 -0.4564
  518MOL0     C69810   3.992   7.481  11.807 -0.4287  0.7758 -0.1387
  518MOL0     C69811   3.865   7.542  11.737 -0.1419  0.2012 -0.2554
  518MOL0     N69812   3.759   7.442  11.731 -0.6921 -0.4760 -0.2181
  518MOL0     C69813   3.764   7.338  11.645  0.1664 -0.7734  0.5613
  518MOL0     C69814   3.650   7.266  11.666 -0.1883 -0.4851 -0.5377
  518MOL0     C69815   3.616   7.142  11.584 -0.1708  0.0460  0.3737
  518MOL0     C69816   3.566   7.180  11.447 -0.5245 -0.3724 -0.3210
  518MOL0     C69817   3.539   7.061  11.354  0.1197  0.1855  0.7422
  518MOL0     C69818   3.509   7.095  11.218  0.1249 -0.3835  0.4688
  518MOL0     O69819   3.476   6.971  11.147  0.2048  0.3491 -0.3988
  518MOL0     C69820   3.469   6.984  11.013  0.4044 -0.4762  0.4091
  518MOL0     C69821   3.430   7.104  10.951  0.0700 -0.6145 -0.0736
  518MOL0     C69822   3.458   7.124  10.816 -0.4732 -0.2156 -0.7510
  518MOL0     C69823   3.414   7.254  10.747  0.2055 -0.8067  0.4661
  518MOL0     C69824   3.517   7.019  10.738 -0.8052 -0.1094 -0.7255
  518MOL0     C69825   3.566   7.028  10.600 -0.5561 -0.6465 -0.0618
  518MOL0     O69826   3.628   6.919  10.551 -0.4371  0.0819 -0.1322
  518MOL0     C69827   3.704   6.912  10.434  0.0823  0.6773  0.6881
  518MOL0     C69828   3.758   7.022  10.363 -0.1648  0.5411 -0.1527
  518MOL0     C69829   3.834   6.991  10.250 -1.1784 -0.5787  0.2548
  518MOL0     C69830   3.877   6.860  10.212 -1.1231  0.2227  0.3213
  518MOL0     O69831   3.960   6.822  10.109 -0.2998  0.4733  0.2769
  518MOL0     C69832   3.968   6.917  10.000 -1.1924 -0.6264 -0.1574
  518MOL0     C69833   4.106   6.999  10.008  0.9094 -0.2210 -0.3732
  518MOL0     C69834   4.135   7.100   9.897  0.2104 -0.9841  0.2412
  518MOL0     C69835   4.053   7.233   9.882 -0.3019  0.3666  0.3872
  518MOL0     C69836   4.126   7.350   9.813  0.6124  1.1627 -0.8659
  518MOL0     C69837   4.025   7.467   9.790  0.1184  0.6173  1.0914
  518MOL0     C69838   3.939   7.515   9.911 -1.0270  0.2663  0.3857
  518MOL0     C69839   3.817   7.600   9.871  0.0840 -0.3368  0.1415
  518MOL0    Cl69840   3.891   7.758   9.861 -0.4337 -0.2193  0.2820
  518MOL0     C69841   3.846   6.759  10.297  0.4191  0.3943  0.1485
  518MOL0     C69842   3.757   6.779  10.403  0.9827 -1.0661  0.1939
  518MOL0     O69843   3.573   7.139  10.548  0.1943 -0.0268 -0.3088
  518MOL0     C69844   3.529   6.894  10.805 -0.2513 -0.2467 -0.5338
  518MOL0     C69845   3.521   6.883  10.946  0.7559 -0.0874  1.0648
  518MOL0     N69846   3.571   7.341  11.758 -0.3143 -0.3583  0.6161
  518MOL0     N69847   3.642   7.448  11.793 -0.0748  0.2970  0.8264
  518MOL0     C69848   4.698   7.549  11.279  0.2244 -0.6118  0.3553
  518MOL0     C69849   4.803   7.546  11.179  1.0300  0.0407  0.3137
  518MOL0     C69850   5.134   7.489  10.901  1.0103  0.2725  0.6330
  518MOL0     C69851   5.142   7.410  10.790  0.1672  0.6556 -0.6163
  518MOL0     C69852   5.232   7.430  10.684 -0.2158 -0.7479 -0.7915
  518MOL0     C69853   5.322   7.538  10.688  0.0269  0.6133 -0.9417
  518MOL0     O69854   5.403   7.575  10.585  0.7831  0.0429  0.7051
  518MOL0     C69855   5.466   7.462  10.510 -0.0795  0.1443  0.0890
  518MOL0     C69856   5.415   7.438  10.361 -0.4213 -1.1832  0.2317
  518MOL0     C69857   5.476   7.312  10.304 -0.1249 -0.7211  0.4079
  518MOL0     C69858   5.368   7.224  10.235 -0.9882  0.0434  0.2822
  518MOL0     C69859   5.266   7.188  10.337  0.2174 -0.3457 -0.8020
  518MOL0     C69860   5.186   7.131  10.407 -0.3375 -1.3046  0.0363
  518MOL0     C69861   5.323   7.624  10.806  0.5337  1.1797  0.5120
  518MOL0     C69862   5.228   7.597  10.904 -0.0377 -0.2678  0.3071
  518MOL0     H69863   5.075   7.549  11.380  0.1385 -1.4944 -2.2154
  518MOL0     H69864   4.900   7.551  11.550  2.1426  0.1301 -0.0997
  518MOL0     H69865   4.730   7.724  11.587  0.7703 -0.0212  0.0525
  518MOL0     H69866   4.568   7.759  11.527  2.2029  0.0410 -1.8804
  518MOL0     H69867   4.640   7.610  11.763  2.7647  0.5163 -2.5209
  518MOL0     H69868   4.509   7.736  11.748 -1.7756 -2.1436  2.3860
  518MOL0     H69869   4.357   7.571  11.626 -0.7861 -0.3976  0.6883
  518MOL0     H69870   4.473   7.456  11.673 -0.2952 -0.6684  0.4681
  518MOL0     H69871   4.439   7.485  11.911  0.5275  2.0893  2.8664
  518MOL0     H69872   4.355   7.643  11.900 -3.6979 -1.2747  0.3133
  518MOL0     H69873   4.239   7.376  11.847  0.2167 -1.4638  2.2766
  518MOL0     H69874   4.207   7.499  11.980  0.2355  0.8371  0.4135
  518MOL0     H69875   4.103   7.662  11.825 -0.2306 -0.6411  1.4605
  518MOL0     H69876   4.160   7.565  11.685 -1.7149  0.4440 -0.8322
  518MOL0     H69877   4.021   7.379  11.779 -0.1230  0.2870  1.7980
  518MOL0     H69878   3.975   7.481  11.915 -1.8654  1.5708 -0.3445
  518MOL0     H69879   3.886   7.590  11.641  0.9364  1.9715  0.8086
  518MOL0     H69880   3.816   7.611  11.805 -3.1673 -4.2328  2.6234
  518MOL0     H69881   3.854   7.319  11.587  0.9131 -2.2374  2.0996
  518MOL0     H69882   3.705   7.077  11.578  0.7364  1.2923 -0.0636
  518MOL0     H69883   3.541   7.084  11.639 -0.6948 -0.1681 -0.5588
  518MOL0     H69884   3.638   7.247  11.399 -1.7508  0.9931 -0.3182
  518MOL0     H69885   3.481   7.248  11.443  0.7389  1.3715  1.1538
  518MOL0     H69886   3.455   7.000  11.387  2.7344 -2.7887  2.5373
  518MOL0     H69887   3.632   7.004  11.348  0.8208  1.2591  1.0647
  518MOL0     H69888   3.587   7.156  11.170 -2.4983  1.7767 -1.3661
  518MOL0     H69889   3.417   7.154  11.225  0.0382 -0.3726 -0.6312
  518MOL0     H69890   3.381   7.182  11.008 -1.1256  1.4748 -3.6062
  518MOL0     H69891   3.353   7.317  10.814 -0.6779 -0.6707 -0.4419
  518MOL0     H69892   3.501   7.312  10.714  0.2199 -0.4910  1.0433
  518MOL0     H69893   3.364   7.231  10.653  0.8679 -1.0538  0.1766
  518MOL0     H69894   3.744   7.123  10.400  2.2353  1.1491 -0.7125
  518MOL0     H69895   3.871   7.081  10.203 -0.4507  1.2706  3.9714
  518MOL0     H69896   3.973   6.858   9.908 -0.2301 -0.4380 -0.2346
  518MOL0     H69897   3.885   6.988   9.998  0.1875  1.0488 -1.1504
  518MOL0     H69898   4.093   7.051  10.103  1.2617 -1.8279  0.5902
  518MOL0     H69899   4.189   6.928  10.008  0.9603 -0.1749 -1.3705
  518MOL0     H69900   4.127   7.047   9.802  2.0893 -0.8749 -0.0191
  518MOL0     H69901   4.237   7.124   9.928 -0.6930 -1.5105  4.1242
  518MOL0     H69902   3.964   7.214   9.821  2.0284  0.0875 -3.2276
  518MOL0     H69903   4.023   7.270   9.980  0.8315 -1.1138  1.3314
  518MOL0     H69904   4.168   7.307   9.722  0.6616 -1.7837  0.4244
  518MOL0     H69905   4.205   7.391   9.877 -0.1565  1.4267 -0.0515
  518MOL0     H69906   4.073   7.549   9.736  1.5343 -0.5749  0.4406
  518MOL0     H69907   3.952   7.423   9.722  0.7926 -0.3865  0.9920
  518MOL0     H69908   4.001   7.572   9.982  0.1933  2.7091 -2.4258
  518MOL0     H69909   3.901   7.427   9.963  0.6131  0.3992  1.9445
  518MOL0     H69910   3.732   7.596   9.940 -0.1950 -0.6119 -0.2090
  518MOL0     H69911   3.797   7.560   9.771  4.1882 -0.5454 -0.7788
  518MOL0     H69912   3.900   6.666  10.287  0.3600  0.3274  0.4344
  518MOL0     H69913   3.728   6.692  10.461 -2.5430  0.7626  1.4243
  518MOL0     H69914   3.562   6.808  10.747 -1.2994 -0.6331 -0.5831
  518MOL0     H69915   3.512   6.786  10.993 -0.6199  0.5829  2.2847
  518MOL0     H69916   4.594   7.563  11.251  1.2783  1.9026 -2.9345
  518MOL0     H69917   4.757   7.536  11.081 -0.7046 -2.8776  1.2938
  518MOL0     H69918   5.082   7.320  10.785  4.8450 -3.2179  3.0225
  518MOL0     H69919   5.232   7.375  10.590 -0.8995  1.5783 -2.2395
  518MOL0     H69920   5.573   7.479  10.496 -0.5132  2.9791 -0.3986
  518MOL0     H69921   5.459   7.371  10.570 -2.6794  0.6411  0.6828
  518MOL0     H69922   5.444   7.510  10.283 -2.4718 -1.2573 -0.6475
  518MOL0     H69923   5.306   7.447  10.360 -0.2825  4.8716 -0.5450
  518MOL0     H69924   5.532   7.262  10.384  1.3131  2.0489  1.2584
  518MOL0     H69925   5.536   7.344  10.218  0.2022 -0.6967  0.6443
  518MOL0     H69926   5.407   7.132  10.191  1.7946  0.4544  1.6854
  518MOL0     H69927   5.322   7.274  10.150  0.2864  2.4957  0.9585
  518MOL0     H69928   5.107   7.075  10.454 -0.1832 -2.6317 -1.2382
  518MOL0     H69929   5.392   7.708  10.812 -0.5040  2.1728 -0.7077
  518MOL0     H69930   5.228   7.660  10.993 -3.2613 -0.5853  0.6686
  519MOL0     O69931   5.395   7.444   3.963 -0.0040  0.2010 -0.0414
  519MOL0     C69932   5.345   7.485   4.070  0.3813 -0.0064 -0.8035
  519MOL0     O69933   5.285   7.604   4.095 -0.1688 -0.1344  0.5580
  519MOL0     C69934   5.311   7.694   3.999  1.0635  0.9202  0.1096
  519MOL0     C69935   5.444   7.743   4.003  1.0260  0.2968  0.3262
  519MOL0     C69936   5.489   7.837   3.900 -0.0328 -0.8536 -0.1280
  519MOL0     C69937   5.401   7.880   3.801  0.6236  0.0272  0.1782
  519MOL0     O69938   5.448   7.984   3.726 -0.4166  0.4846 -0.4950
  519MOL0     C69939   5.365   8.026   3.614  1.0163 -1.0293  0.2284
  519MOL0     C69940   5.370   7.936   3.492 -1.1392 -0.1817  0.2563
  519MOL0     C69941   5.252   7.951   3.404 -0.3522  0.4548 -0.4088
  519MOL0     C69942   5.247   7.837   3.298  0.9442 -0.6395 -0.3193
  519MOL0     C69943   5.110   7.811   3.257 -0.1401 -0.7104  0.4470
  519MOL0     C69944   5.109   7.698   3.155 -0.5101 -0.4403 -0.6113
  519MOL0     C69945   4.978   7.688   3.090 -0.0704 -0.3103 -0.0340
  519MOL0     C69946   4.957   7.542   3.058  1.2726  0.0813  1.1214
  519MOL0     N69947   4.819   7.523   3.004 -0.2870 -0.5724 -0.0603
  519MOL0     C69948   4.795   7.505   2.869  0.5924  0.1669  0.3340
  519MOL0     C69949   4.661   7.510   2.863 -0.3921  0.8611  0.2603
  519MOL0     C69950   4.570   7.479   2.744  0.2904  0.7023  0.5431
  519MOL0     C69951   4.577   7.354   2.658  0.4468 -0.4076  0.7677
  519MOL0     C69952   4.591   7.232   2.749  0.3040 -0.0284  0.0910
  519MOL0     C69953   4.576   7.101   2.665 -0.4730  0.6365 -0.2309
  519MOL0     O69954   4.703   7.051   2.615 -0.3365  0.1562  0.5714
  519MOL0     C69955   4.708   6.994   2.483  0.8628 -0.0301  0.6447
  519MOL0     C69956   4.811   7.032   2.397 -0.0228  0.2692 -0.4624
  519MOL0     C69957   4.828   6.992   2.267  0.3204  0.2492  0.1763
  519MOL0     C69958   4.954   7.030   2.191 -0.3452 -0.3469 -0.1214
  519MOL0     C69959   4.723   6.904   2.211 -0.4519  1.0695 -0.5653
  519MOL0     C69960   4.732   6.850   2.073  0.0697  0.5319  0.3789
  519MOL0     O69961   4.610   6.822   2.014 -0.7511 -0.3125  0.1105
  519MOL0     C69962   4.599   6.738   1.904 -0.5129 -0.0621  0.2504
  519MOL0     C69963   4.599   6.599   1.916 -0.0938  0.1411 -0.7347
  519MOL0     C69964   4.559   6.506   1.812 -1.0776 -0.5655 -0.0209
  519MOL0     C69965   4.541   6.566   1.683 -0.3355  0.2217  0.5134
  519MOL0     O69966   4.528   6.487   1.568  0.6682  0.3794 -0.6260
  519MOL0     C69967   4.465   6.542   1.455  0.0205  0.1146 -0.3238
  519MOL0     C69968   4.575   6.591   1.358  0.0326 -0.0327  0.6300
  519MOL0     C69969   4.532   6.562   1.208 -0.0465 -0.3895  0.5333
  519MOL0     C69970   4.500   6.697   1.140  0.3212  0.5992 -0.3930
  519MOL0     C69971   4.461   6.668   0.994 -0.1964 -0.3166 -0.3965
  519MOL0     C69972   4.575   6.632   0.893  0.3920  0.0358  0.0405
  519MOL0     C69973   4.507   6.604   0.756 -0.3382  0.8114 -0.0779
  519MOL0     C69974   4.609   6.558   0.664 -0.0672 -0.5839 -0.0707
  519MOL0    Cl69975   4.685   6.406   0.707 -0.4685  0.0239 -0.0782
  519MOL0     C69976   4.545   6.705   1.667 -0.2327 -0.0235 -0.2407
  519MOL0     C69977   4.575   6.789   1.775  0.7673 -0.2904 -0.5288
  519MOL0     O69978   4.844   6.829   2.013  0.4309 -0.2137 -0.0510
  519MOL0     C69979   4.615   6.865   2.298  0.7227 -1.1717 -0.1084
  519MOL0     C69980   4.602   6.920   2.423 -0.2074 -0.2743 -0.9449
  519MOL0     N69981   4.614   7.518   2.990  0.4431  0.3008 -0.3122
  519MOL0     N69982   4.710   7.519   3.078  0.4954  0.1976  0.2858
  519MOL0     C69983   5.273   7.816   3.794  0.4087 -0.4753 -0.6416
  519MOL0     C69984   5.229   7.734   3.897 -0.1225  0.5404 -0.1329
  519MOL0     C69985   5.329   7.398   4.188  0.1394 -0.6372 -0.6213
  519MOL0     C69986   5.290   7.266   4.184  0.5726 -0.1544  0.1629
  519MOL0     C69987   5.252   7.192   4.300 -0.0584  0.1741 -0.4743
  519MOL0     C69988   5.251   7.257   4.428 -0.3357  1.2137  1.1741
  519MOL0     O69989   5.207   7.175   4.526 -0.4817  0.3895  0.4556
  519MOL0     C69990   5.197   7.230   4.658  0.7237  0.5068  0.6935
  519MOL0     C69991   5.299   7.192   4.765 -1.1369 -0.7250 -0.3580
  519MOL0     C69992   5.264   7.261   4.900  0.3551 -0.1114 -0.0766
  519MOL0     C69993   5.358   7.213   5.005 -0.2957  0.3942 -0.0716
  519MOL0     C69994   5.337   7.286   5.134 -0.4347 -1.0275  0.1086
  519MOL0     C69995   5.298   7.338   5.238  0.3471 -0.2923  1.2934
  519MOL0     C69996   5.294   7.387   4.434 -0.2141  0.9338  0.4595
  519MOL0     C69997   5.323   7.455   4.316 -0.4750 -0.8730 -1.1227
  519MOL0     H69998   5.507   7.704   4.083 -0.9200  0.3427  1.9765
  519MOL0     H69999   5.594   7.865   3.902  0.0812 -1.2913  2.0607
  519MOL0     H70000   5.264   8.049   3.652  0.7653 -0.3629 -0.7947
  519MOL0     H70001   5.397   8.125   3.582 -1.2719 -0.2839  0.0253
  519MOL0     H70002   5.455   7.961   3.428 -1.0026 -0.6767  0.2385
  519MOL0     H70003   5.378   7.834   3.530 -0.1826 -1.1551 -2.3165
  519MOL0     H70004   5.155   7.959   3.455 -0.6433 -0.4489 -0.8021
  519MOL0     H70005   5.261   8.048   3.354  1.3732  0.3575 -0.3530
  519MOL0     H70006   5.309   7.875   3.217  1.1491 -0.3346 -0.0192
  519MOL0     H70007   5.293   7.745   3.336 -0.7345 -1.5771 -0.4360
  519MOL0     H70008   5.036   7.791   3.335 -1.8500  1.1029 -0.6493
  519MOL0     H70009   5.071   7.904   3.217  1.2182 -1.1984 -2.2302
  519MOL0     H70010   5.182   7.713   3.075  0.4566  0.9286  0.4804
  519MOL0     H70011   5.147   7.608   3.205  1.1473 -1.0790 -2.8313
  519MOL0     H70012   4.894   7.710   3.156 -0.6596  1.1351 -1.2169
  519MOL0     H70013   4.975   7.743   2.996  0.0748  1.6688  1.0541
  519MOL0     H70014   4.982   7.481   3.145 -2.8905 -0.4284  2.1706
  519MOL0     H70015   5.023   7.515   2.974 -3.2138  0.3085 -2.8724
  519MOL0     H70016   4.858   7.494   2.782  1.3390  1.8983  0.6119
  519MOL0     H70017   4.474   7.484   2.796  0.2326  0.3485  0.4700
  519MOL0     H70018   4.579   7.567   2.679 -0.2951 -0.3561 -1.0336
  519MOL0     H70019   4.681   7.362   2.625  0.3742  2.7650  1.0201
  519MOL0     H70020   4.509   7.346   2.572  1.8626 -1.0526 -0.3313
  519MOL0     H70021   4.504   7.233   2.816  0.9312  3.9656  1.0940
  519MOL0     H70022   4.682   7.224   2.810  0.6729  0.0992 -0.4403
  519MOL0     H70023   4.515   7.116   2.576  0.3683  0.9273 -0.7686
  519MOL0     H70024   4.529   7.027   2.731  1.1771  0.1150  0.4084
  519MOL0     H70025   4.887   7.096   2.439 -2.6209  1.9995  2.0186
  519MOL0     H70026   5.006   7.110   2.245 -0.4159 -1.6691  1.9971
  519MOL0     H70027   5.010   6.937   2.178  1.2534  0.3182  1.6133
  519MOL0     H70028   4.921   7.075   2.096 -0.9545  3.0155  1.5173
  519MOL0     H70029   4.622   6.557   2.013  1.1323  0.5998 -0.8142
  519MOL0     H70030   4.556   6.398   1.814 -1.3046 -0.5978  3.3250
  519MOL0     H70031   4.410   6.460   1.406 -0.2273  1.2254 -2.0042
  519MOL0     H70032   4.393   6.624   1.464  0.4830  0.8027 -2.2685
  519MOL0     H70033   4.598   6.697   1.377  3.2570 -0.8632  2.1232
  519MOL0     H70034   4.668   6.538   1.381  1.5195  2.4773  0.7674
  519MOL0     H70035   4.442   6.501   1.196 -0.5232  0.7487 -2.8076
  519MOL0     H70036   4.611   6.509   1.155 -0.4557  0.1890 -0.7108
  519MOL0     H70037   4.415   6.743   1.191 -1.6596 -2.0482 -1.0470
  519MOL0     H70038   4.590   6.759   1.132  0.0323  1.0285 -0.3564
  519MOL0     H70039   4.404   6.753   0.956 -1.8685 -1.6622 -1.0062
  519MOL0     H70040   4.389   6.586   1.002 -3.0017  1.8564 -1.4569
  519MOL0     H70041   4.646   6.715   0.888  1.9321 -1.2698 -0.5690
  519MOL0     H70042   4.627   6.542   0.925  1.2073 -0.2398 -1.9480
  519MOL0     H70043   4.460   6.692   0.712 -1.3132 -0.4863 -1.7857
  519MOL0     H70044   4.429   6.533   0.787 -0.6011  1.5271  0.9597
  519MOL0     H70045   4.682   6.637   0.651  0.6030 -1.3813 -1.3604
  519MOL0     H70046   4.573   6.541   0.562  2.2537 -0.7856 -0.9052
  519MOL0     H70047   4.527   6.756   1.572  3.9881  0.4505 -0.9993
  519MOL0     H70048   4.555   6.896   1.771 -2.9330 -0.6550  2.7144
  519MOL0     H70049   4.538   6.796   2.266  1.2939 -0.5784 -3.1546
  519MOL0     H70050   4.509   6.910   2.479 -0.1481  3.9682  0.2774
  519MOL0     H70051   5.200   7.850   3.722 -1.3754 -1.2966  0.7129
  519MOL0     H70052   5.134   7.683   3.885  0.8959 -1.7683  1.1265
  519MOL0     H70053   5.301   7.214   4.089 -0.8807 -0.4978  0.1515
  519MOL0     H70054   5.206   7.095   4.285 -3.2063  1.7903 -2.3367
  519MOL0     H70055   5.182   7.338   4.650 -3.4776  0.1631  1.6858
  519MOL0     H70056   5.099   7.193   4.689  0.8562 -2.4686 -1.8984
  519MOL0     H70057   5.395   7.241   4.746 -1.0063 -0.7961  0.1108
  519MOL0     H70058   5.298   7.084   4.779  1.4789 -0.9455 -1.3709
  519MOL0     H70059   5.156   7.251   4.912  0.3112  0.8321  0.4684
  519MOL0     H70060   5.285   7.368   4.888  0.1983 -0.1815 -1.0166
  519MOL0     H70061   5.463   7.234   4.983  0.6934  2.0380  4.8504
  519MOL0     H70062   5.344   7.105   5.015 -0.5932  0.3696 -0.7027
  519MOL0     H70063   5.251   7.371   5.328 -1.1710  4.3750 -0.9011
  519MOL0     H70064   5.294   7.442   4.528 -4.3223  0.3293  0.9615
  519MOL0     H70065   5.358   7.556   4.335 -1.2791 -0.3730 -2.1447
  520MOL0     O70066  10.880   0.007   5.289  0.3290  0.2222 -0.0380
  520MOL0     C70067  11.003   0.031   5.293 -0.7784  0.7110 -0.1680
  520MOL0     O70068  11.098   0.010   5.184  0.3689  0.6729  0.0810
  520MOL0     C70069  11.034  -0.040   5.067  0.1264 -1.0515  0.5899
  520MOL0     C70070  11.084  -0.161   5.012  0.4536 -0.6060 -0.5496
  520MOL0     C70071  11.067  -0.194   4.880  0.0203  1.0285  0.6034
  520MOL0     C70072  10.979  -0.119   4.809  0.1168  0.3190  0.0110
  520MOL0     O70073  10.951  -0.156   4.675  0.2302 -0.1293  0.5651
  520MOL0     C70074  10.925  -0.048   4.591  0.3858 -0.8968  0.9219
  520MOL0     C70075  10.936  -0.097   4.446 -0.0653 -0.7735  0.4630
  520MOL0     C70076  10.875  -0.011   4.342  1.2715 -0.9847  0.5897
  520MOL0     C70077  10.929   0.134   4.338 -0.3051  0.1012  0.1412
  520MOL0     C70078  10.838   0.240   4.406 -0.0491  0.6420 -0.0018
  520MOL0     C70079  10.888   0.382   4.419  0.7599 -1.1572 -0.6838
  520MOL0     C70080  11.020   0.396   4.502  0.5458 -0.3911  0.1996
  520MOL0     C70081  11.027   0.329   4.636 -0.2119 -0.2470  0.2716
  520MOL0     N70082  11.106   0.405   4.730 -0.0587 -0.4069 -0.4396
  520MOL0     C70083  11.216   0.485   4.711 -0.1378  0.2669  0.4945
  520MOL0     C70084  11.255   0.519   4.839 -0.1698  0.0315  0.1606
  520MOL0     C70085  11.381   0.589   4.860 -0.1251  0.3773  0.3394
  520MOL0     C70086  11.505   0.505   4.840 -0.2318  0.3056 -0.5902
  520MOL0     C70087  11.535   0.428   4.971  0.3238  0.0560 -0.6980
  520MOL0     C70088  11.666   0.362   4.978 -0.1053  0.5994  0.5059
  520MOL0     O70089  11.749   0.438   5.066 -0.3484  0.5035  0.1155
  520MOL0     C70090  11.873   0.385   5.090  0.1128  0.2821 -0.6126
  520MOL0     C70091  11.947   0.482   5.149  0.1521 -0.6999  0.0374
  520MOL0     C70092  12.076   0.451   5.201  0.3784  0.6343  0.7486
  520MOL0     C70093  12.153   0.567   5.239  0.1687 -0.7174 -0.2297
  520MOL0     C70094  12.137   0.325   5.170  0.1947 -0.0045 -0.3402
  520MOL0     C70095  12.268   0.276   5.229 -0.5918  1.1804  0.7062
  520MOL0     O70096  12.318   0.149   5.188  0.1163  0.2544  0.8149
  520MOL0     C70097  12.445   0.125   5.226 -0.0829 -0.1279 -0.5935
  520MOL0     C70098  12.554   0.191   5.159  0.3158  0.3612  0.5793
  520MOL0     C70099  12.685   0.173   5.186 -0.5871  0.1297  0.8936
  520MOL0     C70100  12.716   0.082   5.282  0.0868 -1.2864 -0.2215
  520MOL0     O70101  12.848   0.092   5.318  0.7322  0.1656  0.2341
  520MOL0     C70102  12.903   0.030   5.432  0.4709 -0.3729 -0.0111
  520MOL0     C70103  12.980  -0.097   5.400 -0.0175  1.2510 -0.0363
  520MOL0     C70104  13.057  -0.147   5.514 -0.1030  0.2780  0.5003
  520MOL0     C70105  13.088  -0.298   5.508 -1.0154  0.9738 -0.3655
  520MOL0     C70106  13.162  -0.338   5.629  0.0088  0.3810 -0.7477
  520MOL0     C70107  13.079  -0.317   5.762  0.0213  0.4267  0.1340
  520MOL0     C70108  13.147  -0.393   5.884 -0.6097  1.3891 -0.1928
  520MOL0     C70109  13.239  -0.296   5.957  0.1726 -0.4248 -0.6090
  520MOL0    Cl70110  13.376  -0.252   5.860 -0.0830  0.0603 -0.2284
  520MOL0     C70111  12.608   0.008   5.345 -0.1624 -0.0454  0.1457
  520MOL0     C70112  12.476   0.032   5.318  0.3202  1.6134 -0.2946
  520MOL0     O70113  12.320   0.347   5.311  0.0517  0.6081 -0.2342
  520MOL0     C70114  12.060   0.231   5.106  0.6395 -0.3470  0.7516
  520MOL0     C70115  11.925   0.251   5.068 -0.6195  0.4176  0.0981
  520MOL0     N70116  11.171   0.465   4.928 -0.3229  1.2057  0.3743
  520MOL0     N70117  11.077   0.398   4.868 -0.2356 -0.2923  0.5598
  520MOL0     C70118  10.914  -0.002   4.867 -1.3241 -0.8197 -0.5447
  520MOL0     C70119  10.942   0.041   4.997  0.4427 -1.0759 -0.3119
  520MOL0     C70120  11.064   0.059   5.428  0.1122  0.7666 -0.0455
  520MOL0     C70121  11.204   0.088   5.437  0.6607 -0.7677  0.4283
  520MOL0     C70122  11.262   0.140   5.552  0.5251  0.6688 -1.0110
  520MOL0     C70123  11.178   0.149   5.667  0.2831  0.3425  0.1837
  520MOL0     O70124  11.239   0.203   5.779 -0.5655 -0.6227 -0.0593
  520MOL0     C70125  11.171   0.227   5.898 -0.9605 -0.0540 -0.0491
  520MOL0     C70126  11.263   0.301   5.996  0.3978  0.4869 -0.1379
  520MOL0     C70127  11.286   0.451   5.982  0.4682 -0.1014 -0.0472
  520MOL0     C70128  11.403   0.482   5.887  0.6783  0.6608  0.5875
  520MOL0     C70129  11.534   0.448   5.938 -0.9665  0.4412 -0.9053
  520MOL0     C70130  11.646   0.408   5.979  1.2695  0.7190  0.4641
  520MOL0     C70131  11.046   0.111   5.655 -0.6278  0.9170 -0.5199
  520MOL0     C70132  10.983   0.076   5.542 -0.0680 -0.0285 -0.4060
  520MOL0     H70133  11.146  -0.216   5.082 -0.2499 -0.3488  0.2779
  520MOL0     H70134  11.120  -0.280   4.840  1.6170 -0.0040  4.4005
  520MOL0     H70135  10.820  -0.020   4.600  0.9800  2.5846 -1.0398
  520MOL0     H70136  10.981   0.043   4.613 -0.1293  0.3522 -2.3231
  520MOL0     H70137  11.044  -0.115   4.435 -0.5485 -3.0715 -1.3081
  520MOL0     H70138  10.908  -0.202   4.434  0.2025 -0.6912 -1.2068
  520MOL0     H70139  10.885  -0.067   4.248 -0.3562 -0.2294 -0.0614
  520MOL0     H70140  10.767   0.003   4.356  0.2852 -3.1121 -3.3434
  520MOL0     H70141  11.027   0.135   4.386  0.1466  1.8835 -0.7367
  520MOL0     H70142  10.942   0.171   4.236  4.3595 -3.8282 -1.0600
  520MOL0     H70143  10.749   0.237   4.342 -1.2308  1.8904  1.5304
  520MOL0     H70144  10.805   0.208   4.505  2.5206  0.5538  0.9119
  520MOL0     H70145  10.884   0.425   4.319 -3.1932  2.1380  0.6137
  520MOL0     H70146  10.816   0.429   4.487  0.5030 -3.7589  0.9700
  520MOL0     H70147  11.114   0.389   4.445  1.5414  1.1535  1.5436
  520MOL0     H70148  11.019   0.503   4.527 -2.0635 -0.6236  1.4526
  520MOL0     H70149  11.078   0.237   4.609  1.3393  0.0925  1.8391
  520MOL0     H70150  10.923   0.317   4.671 -0.5272  0.4408 -0.4132
  520MOL0     H70151  11.268   0.496   4.616 -2.2429  2.8502 -0.5055
  520MOL0     H70152  11.368   0.682   4.804 -0.4082  1.9881  2.9005
  520MOL0     H70153  11.379   0.621   4.965 -2.7121  3.6008 -0.5554
  520MOL0     H70154  11.590   0.573   4.827  3.1106 -3.3738  0.0534
  520MOL0     H70155  11.495   0.440   4.752 -0.3744 -0.9086  0.2928
  520MOL0     H70156  11.454   0.355   4.973 -0.5588  0.7287 -4.4746
  520MOL0     H70157  11.528   0.489   5.062  2.8599 -1.6785  0.7751
  520MOL0     H70158  11.709   0.354   4.877  1.3683  2.0877  0.9657
  520MOL0     H70159  11.652   0.259   5.011 -0.7682 -0.2193 -2.0676
  520MOL0     H70160  11.903   0.581   5.152  0.5545 -0.5026 -0.3807
  520MOL0     H70161  12.091   0.657   5.233  0.2328 -0.4135  2.3708
  520MOL0     H70162  12.163   0.562   5.348  0.1796  0.2907 -0.1793
  520MOL0     H70163  12.254   0.571   5.197  0.4018  1.2081  0.4431
  520MOL0     H70164  12.525   0.262   5.081 -0.0186 -1.6961 -1.2521
  520MOL0     H70165  12.767   0.225   5.137 -2.0734  0.1032 -1.7968
  520MOL0     H70166  12.955   0.101   5.496 -2.4449 -0.8491  3.2200
  520MOL0     H70167  12.814   0.003   5.489  0.3140 -2.0167 -0.9719
  520MOL0     H70168  12.914  -0.176   5.363  1.9722 -0.6164  0.1547
  520MOL0     H70169  13.047  -0.081   5.314  1.6973  1.3622  1.2706
  520MOL0     H70170  13.002  -0.113   5.601  1.8755  0.5220  1.7107
  520MOL0     H70171  13.153  -0.095   5.516  0.1182  0.1315 -2.1956
  520MOL0     H70172  12.993  -0.352   5.505 -1.4915  1.8330 -2.0533
  520MOL0     H70173  13.148  -0.323   5.420  2.4662  1.1378  1.7648
  520MOL0     H70174  13.257  -0.284   5.631 -0.7150  1.6672  0.8123
  520MOL0     H70175  13.182  -0.446   5.623  1.0445  0.6325 -2.7823
  520MOL0     H70176  13.079  -0.211   5.788  1.7544  0.6856 -0.7700
  520MOL0     H70177  12.979  -0.362   5.768  1.3450 -2.5300  2.2642
  520MOL0     H70178  13.203  -0.483   5.859 -0.3189  0.7364  2.5419
  520MOL0     H70179  13.084  -0.415   5.970 -1.6810  1.1825 -1.0060
  520MOL0     H70180  13.281  -0.347   6.044  1.6662  0.3861 -0.8283
  520MOL0     H70181  13.191  -0.199   5.976 -0.2667 -0.8817  0.7153
  520MOL0     H70182  12.627  -0.063   5.425 -1.4063 -1.1377 -0.4833
  520MOL0     H70183  12.408  -0.019   5.385  5.4298 -0.6193  3.8017
  520MOL0     H70184  12.097   0.132   5.084  4.2396  1.1292 -0.5832
  520MOL0     H70185  11.868   0.170   5.024  0.6616 -0.7423  0.5065
  520MOL0     H70186  10.825   0.043   4.824 -2.7212 -0.8619  2.1151
  520MOL0     H70187  10.905   0.133   5.042  0.2413 -0.6884 -1.2492
  520MOL0     H70188  11.268   0.060   5.353 -2.3699 -1.0897 -1.9778
  520MOL0     H70189  11.367   0.162   5.570  0.4700  0.6203 -0.6244
  520MOL0     H70190  11.079   0.284   5.886 -1.4255 -1.0211 -1.3578
  520MOL0     H70191  11.140   0.131   5.940  0.7788 -0.4003  0.5421
  520MOL0     H70192  11.362   0.255   5.999  0.0830 -0.1429  1.3054
  520MOL0     H70193  11.219   0.282   6.094 -2.8389 -0.3014 -1.5926
  520MOL0     H70194  11.310   0.502   6.076 -0.7578 -1.8634  1.2765
  520MOL0     H70195  11.194   0.496   5.944 -0.4355 -0.1282  1.9819
  520MOL0     H70196  11.407   0.585   5.851  0.6674  0.5917  0.3820
  520MOL0     H70197  11.388   0.449   5.783  0.7960  2.0371  0.1179
  520MOL0     H70198  11.740   0.373   6.014  0.9090  0.3601  1.0927
  520MOL0     H70199  10.981   0.124   5.741 -1.4012  3.7804 -1.4060
  520MOL0     H70200  10.875   0.071   5.548 -0.6262  5.2217 -1.5680
  521MOL0     O70201   4.983   2.175   5.486 -0.2516  0.2460 -0.2272
  521MOL0     C70202   4.982   2.268   5.409 -0.2464 -0.7502 -1.0351
  521MOL0     O70203   4.981   2.397   5.445  0.2089  0.6551  0.8838
  521MOL0     C70204   5.002   2.431   5.570  0.0835 -0.2993 -0.1293
  521MOL0     C70205   4.899   2.499   5.632 -0.6047 -0.2807  0.6821
  521MOL0     C70206   4.899   2.519   5.763  0.1695  0.9420 -1.6198
  521MOL0     C70207   5.018   2.505   5.839 -0.0124  0.0593  0.0616
  521MOL0     O70208   5.018   2.533   5.978  0.4286  0.0378  0.1011
  521MOL0     C70209   5.082   2.656   6.005  0.1390 -0.0674  1.2315
  521MOL0     C70210   5.189   2.649   6.110  0.1017  0.1763 -0.2166
  521MOL0     C70211   5.273   2.778   6.102 -1.0782 -0.5541  0.8818
  521MOL0     C70212   5.413   2.756   6.167  0.2257 -0.5593  0.5532
  521MOL0     C70213   5.482   2.886   6.176  0.0093 -0.5865 -1.0840
  521MOL0     C70214   5.633   2.863   6.184  0.3355 -0.1395 -0.7581
  521MOL0     C70215   5.702   2.996   6.203  0.1281 -1.1596 -0.0384
  521MOL0     C70216   5.848   2.969   6.224  0.2726 -0.6303  0.3831
  521MOL0     N70217   5.922   3.085   6.260  0.5019 -0.7013  0.0548
  521MOL0     C70218   5.917   3.206   6.185  1.3564  0.7762 -0.0084
  521MOL0     C70219   5.969   3.293   6.263 -1.0774 -0.0803 -0.7097
  521MOL0     C70220   5.995   3.440   6.212 -0.2527  0.4275 -0.0337
  521MOL0     C70221   6.137   3.446   6.151  0.4750 -1.0950 -0.3159
  521MOL0     C70222   6.247   3.411   6.250  0.9711 -0.8086  0.4031
  521MOL0     C70223   6.376   3.488   6.215 -0.3683  0.7076 -0.2275
  521MOL0     O70224   6.469   3.450   6.326 -0.2216 -0.1857  0.6680
  521MOL0     C70225   6.506   3.551   6.412  0.4307 -0.5425  0.1818
  521MOL0     C70226   6.486   3.523   6.544  0.4558 -0.5737  0.3069
  521MOL0     C70227   6.553   3.603   6.634 -0.0165  0.3636 -0.9449
  521MOL0     C70228   6.518   3.554   6.773 -0.5792  0.5681 -0.9302
  521MOL0     C70229   6.642   3.709   6.605 -0.0306 -0.0946  0.3714
  521MOL0     C70230   6.726   3.787   6.696 -0.2637 -0.6141  0.4544
  521MOL0     O70231   6.850   3.808   6.653  0.7935 -0.1295  1.0553
  521MOL0     C70232   6.932   3.888   6.739  1.0816 -0.4298  0.3940
  521MOL0     C70233   7.001   3.840   6.853 -0.5444  0.3356 -0.8439
  521MOL0     C70234   7.073   3.925   6.941 -0.0558  0.8004 -0.7434
  521MOL0     C70235   7.079   4.062   6.924 -0.2281 -0.1533  0.7962
  521MOL0     O70236   7.132   4.146   7.021  0.2664 -1.0167  0.0658
  521MOL0     C70237   7.239   4.115   7.110 -0.3769 -0.1205  0.4872
  521MOL0     C70238   7.200   4.049   7.237 -0.2251  0.7466 -0.5723
  521MOL0     C70239   7.260   4.127   7.364  0.0275  0.4028 -0.0301
  521MOL0     C70240   7.409   4.127   7.390  0.4348  0.5609  0.7685
  521MOL0     C70241   7.454   4.181   7.518  0.1343  0.6252 -0.5475
  521MOL0     C70242   7.450   4.334   7.535 -0.1519  0.1426 -0.6384
  521MOL0     C70243   7.594   4.391   7.534  0.4098  0.4360 -0.4132
  521MOL0     C70244   7.601   4.540   7.551 -0.3669  0.8985 -0.0279
  521MOL0    Cl70245   7.516   4.579   7.708  0.0307 -0.2390 -0.7961
  521MOL0     C70246   7.011   4.111   6.813 -0.0168  0.7130 -0.5047
  521MOL0     C70247   6.940   4.030   6.722  0.3608  0.6709 -0.7637
  521MOL0     O70248   6.669   3.845   6.788 -0.0807 -0.1437 -0.5325
  521MOL0     C70249   6.633   3.742   6.468  0.4297 -0.3942  1.1349
  521MOL0     C70250   6.566   3.664   6.371 -0.8493  0.4394  0.4873
  521MOL0     N70251   6.017   3.237   6.384 -0.1068 -1.1108 -0.4596
  521MOL0     N70252   5.976   3.112   6.384 -0.3207 -0.5824  0.0432
  521MOL0     C70253   5.133   2.441   5.772 -0.8349  1.2857  0.0306
  521MOL0     C70254   5.122   2.404   5.640  0.4878 -0.7191  0.3707
  521MOL0     C70255   4.990   2.231   5.267  0.1588 -0.2112 -0.1493
  521MOL0     C70256   5.085   2.305   5.193 -0.5862  0.3510  1.0185
  521MOL0     C70257   5.082   2.280   5.059  0.1991 -0.5621  0.8116
  521MOL0     C70258   5.016   2.172   4.998 -0.3976 -0.0707  0.4962
  521MOL0     O70259   5.010   2.143   4.867  0.6517  0.1938  0.7933
  521MOL0     C70260   5.142   2.159   4.815  0.0114  0.5223 -0.6108
  521MOL0     C70261   5.179   2.096   4.691 -0.3304  0.1453  0.3493
  521MOL0     C70262   5.110   2.154   4.559  0.4335  0.4642 -0.9598
  521MOL0     C70263   5.156   2.295   4.510 -0.2181  0.4168 -0.0230
  521MOL0     C70264   5.298   2.302   4.462  0.7527 -0.8781  0.2512
  521MOL0     C70265   5.418   2.303   4.426  0.9163 -0.9409  1.1260
  521MOL0     C70266   4.948   2.082   5.085  0.2198  0.2865 -1.1643
  521MOL0     C70267   4.934   2.116   5.221 -0.3920 -0.2726  0.6353
  521MOL0     H70268   4.808   2.521   5.576 -0.0535 -0.1705 -0.1896
  521MOL0     H70269   4.802   2.537   5.808 -1.0380 -1.8263 -2.9168
  521MOL0     H70270   5.121   2.695   5.910 -2.5431  0.8620  0.4267
  521MOL0     H70271   5.013   2.736   6.034 -0.1125  0.6532 -1.0976
  521MOL0     H70272   5.140   2.660   6.208 -0.1884  2.3427 -0.5554
  521MOL0     H70273   5.238   2.552   6.100 -1.4106 -0.4729 -1.6822
  521MOL0     H70274   5.285   2.810   5.998  1.5997  0.5154  1.4316
  521MOL0     H70275   5.217   2.856   6.154 -0.1718  1.5217 -1.0788
  521MOL0     H70276   5.382   2.716   6.265  0.1542 -3.2946 -0.4948
  521MOL0     H70277   5.484   2.689   6.118  0.3498  0.1535 -0.2524
  521MOL0     H70278   5.454   2.926   6.078  0.9068 -1.3816 -1.6798
  521MOL0     H70279   5.451   2.959   6.250 -2.5432 -2.1095 -0.5469
  521MOL0     H70280   5.648   2.806   6.277 -0.4460  1.0005  0.1029
  521MOL0     H70281   5.666   2.801   6.100  2.5442  0.0217 -0.0568
  521MOL0     H70282   5.683   3.079   6.134 -0.5636  0.2688  1.7677
  521MOL0     H70283   5.665   3.034   6.299  2.9344  0.8619  0.3732
  521MOL0     H70284   5.885   2.909   6.140  1.7376 -2.2066  2.0522
  521MOL0     H70285   5.865   2.898   6.305 -2.2841 -2.5677 -0.6282
  521MOL0     H70286   5.876   3.233   6.088  0.2979 -0.6535  0.0244
  521MOL0     H70287   5.914   3.468   6.144 -1.8898 -3.6860 -0.1013
  521MOL0     H70288   5.989   3.494   6.307 -2.9712 -2.6799  1.7587
  521MOL0     H70289   6.163   3.548   6.121  1.3892 -0.7556  1.4923
  521MOL0     H70290   6.147   3.392   6.057 -3.7671  1.2014 -2.3988
  521MOL0     H70291   6.253   3.302   6.251 -3.0259 -1.2452 -2.3427
  521MOL0     H70292   6.215   3.440   6.351  0.0752 -2.0626  0.5078
  521MOL0     H70293   6.350   3.594   6.219  0.2146  0.8475  0.0026
  521MOL0     H70294   6.409   3.457   6.115  1.6976 -1.0202  0.9105
  521MOL0     H70295   6.420   3.445   6.580 -2.6045  1.1394 -1.1708
  521MOL0     H70296   6.598   3.495   6.819  0.2695  1.8235 -0.7597
  521MOL0     H70297   6.503   3.642   6.835 -0.1326 -0.6323  0.9472
  521MOL0     H70298   6.423   3.502   6.786 -0.8916  1.6015  1.3286
  521MOL0     H70299   6.996   3.735   6.881 -0.0050  0.5157 -0.0578
  521MOL0     H70300   7.115   3.859   7.016 -7.8229 -2.1638  1.9655
  521MOL0     H70301   7.302   4.048   7.052 -6.1861 -3.9275 -2.4326
  521MOL0     H70302   7.304   4.196   7.145  2.2210 -2.2015  0.8239
  521MOL0     H70303   7.092   4.036   7.247 -0.1856  0.5854 -0.3559
  521MOL0     H70304   7.258   3.956   7.247  2.8887  1.9169 -4.7009
  521MOL0     H70305   7.204   4.092   7.451 -0.2912  0.5756 -0.1647
  521MOL0     H70306   7.224   4.228   7.344 -2.3488 -0.8286 -2.6741
  521MOL0     H70307   7.439   4.021   7.383 -2.1382 -0.1909  0.0216
  521MOL0     H70308   7.462   4.161   7.300 -0.6761  0.9570  0.2462
  521MOL0     H70309   7.558   4.152   7.535  1.2115  2.7864 -2.8038
  521MOL0     H70310   7.393   4.137   7.598  0.6302  3.0224  1.2313
  521MOL0     H70311   7.397   4.382   7.452  1.3905  1.4840 -0.9064
  521MOL0     H70312   7.406   4.370   7.629 -2.0097  2.5687 -2.3107
  521MOL0     H70313   7.649   4.378   7.440  3.6673  2.0326  1.1082
  521MOL0     H70314   7.656   4.336   7.605  0.7375  1.6296  0.2444
  521MOL0     H70315   7.557   4.594   7.466  2.0651  2.5756 -0.3150
  521MOL0     H70316   7.705   4.571   7.552  0.8506 -2.6686 -1.2687
  521MOL0     H70317   7.027   4.214   6.781  0.4333  1.0677  0.7953
  521MOL0     H70318   6.887   4.069   6.637  1.4868  1.0644 -1.3084
  521MOL0     H70319   6.683   3.835   6.443 -2.0787  0.8251  0.4105
  521MOL0     H70320   6.556   3.690   6.267  1.3320  0.0472  0.1311
  521MOL0     H70321   5.221   2.420   5.833 -0.0706  3.4754 -0.2116
  521MOL0     H70322   5.205   2.357   5.587 -1.3385 -1.9008 -1.6176
  521MOL0     H70323   5.148   2.365   5.258 -0.6353 -0.3751  1.7601
  521MOL0     H70324   5.145   2.349   5.003  1.2936  0.4132  3.0990
  521MOL0     H70325   5.175   2.264   4.810  5.1422 -0.4045  3.6227
  521MOL0     H70326   5.220   2.123   4.884 -0.1114 -0.2972 -0.8952
  521MOL0     H70327   5.151   1.990   4.695  1.5801 -0.3936  0.6137
  521MOL0     H70328   5.286   2.108   4.669 -0.7623 -0.2880 -2.3208
  521MOL0     H70329   5.005   2.170   4.582 -0.0572  2.2313 -3.8698
  521MOL0     H70330   5.124   2.077   4.482 -0.6387  1.0777 -1.8020
  521MOL0     H70331   5.143   2.368   4.590  1.3472  0.9549 -0.2294
  521MOL0     H70332   5.099   2.321   4.421  0.5825  1.5176 -0.2325
  521MOL0     H70333   5.522   2.296   4.401  1.8866  4.9078  2.0126
  521MOL0     H70334   4.900   1.996   5.039 -4.7488  1.3106  1.3923
  521MOL0     H70335   4.879   2.049   5.285  1.5795  0.5776  3.4109
  522MOL0     O70336   8.448   9.351   0.088  0.0428 -0.0926  0.1985
  522MOL0     C70337   8.537   9.416   0.150 -0.4135 -0.1283 -0.2048
  522MOL0     O70338   8.554   9.545   0.170  0.1379 -0.0580  0.4027
  522MOL0     C70339   8.451   9.641   0.151 -0.9781  1.0789  1.5938
  522MOL0     C70340   8.358   9.645   0.040 -0.2374  0.6988  0.0626
  522MOL0     C70341   8.252   9.734   0.032  0.1732 -0.1514  0.2433
  522MOL0     C70342   8.256   9.840   0.128  0.1900 -0.2379  0.4819
  522MOL0     O70343   8.152   9.931   0.128  0.0773  0.6900  0.6706
  522MOL0     C70344   8.134  10.027   0.241 -0.2031 -0.5187 -0.1802
  522MOL0     C70345   8.055   9.975   0.362  0.1766  0.7782  0.1706
  522MOL0     C70346   7.909   9.970   0.321  0.2728  0.6816 -0.2606
  522MOL0     C70347   7.876   9.851   0.223  0.0759 -0.9175 -0.9863
  522MOL0     C70348   7.730   9.803   0.230 -0.6586 -0.7749  0.2337
  522MOL0     C70349   7.700   9.718   0.347  1.1174 -0.4598 -0.3864
  522MOL0     C70350   7.796   9.603   0.381 -0.5744  0.4536  0.0613
  522MOL0     C70351   7.775   9.541   0.517 -0.2718  0.7556  0.2218
  522MOL0     N70352   7.770   9.620   0.635 -0.3867  0.4777  1.0128
  522MOL0     C70353   7.701   9.585   0.746  0.1462  0.2017  0.3815
  522MOL0     C70354   7.772   9.654   0.842  0.2554  1.1780 -0.2004
  522MOL0     C70355   7.723   9.654   0.985  0.2130  0.7146 -0.7688
  522MOL0     C70356   7.572   9.687   0.995 -0.1928  0.8127  0.3019
  522MOL0     C70357   7.512   9.693   1.132 -0.5030 -0.0869 -0.3617
  522MOL0     C70358   7.375   9.760   1.136  0.1306  0.1720 -0.8811
  522MOL0     O70359   7.297   9.712   1.023 -0.4334 -0.3542 -0.1230
  522MOL0     C70360   7.166   9.759   1.005  0.6350 -1.1395 -0.2107
  522MOL0     C70361   7.085   9.707   0.908 -0.4602 -0.3447  0.9725
  522MOL0     C70362   6.942   9.743   0.903 -1.1093  0.2435  0.0908
  522MOL0     C70363   6.858   9.673   0.795  0.3226 -0.4437 -1.1375
  522MOL0     C70364   6.892   9.837   0.994  0.0174 -0.2424 -0.1874
  522MOL0     C70365   6.757   9.887   0.989 -0.7543  0.2957  0.2186
  522MOL0     O70366   6.662   9.796   0.997 -0.7835 -0.4637  0.1032
  522MOL0     C70367   6.535   9.842   1.009  0.5242  0.4575 -0.0696
  522MOL0     C70368   6.472   9.872   0.890  0.4917 -0.0490 -0.3289
  522MOL0     C70369   6.340   9.913   0.894 -0.6549  0.7387 -0.0936
  522MOL0     C70370   6.266   9.913   1.014 -0.1780 -1.2717  0.3404
  522MOL0     O70371   6.150   9.979   1.033  0.0560 -0.1348 -0.4038
  522MOL0     C70372   6.080  10.052   0.923 -0.2406 -0.3607 -0.7593
  522MOL0     C70373   6.162  10.178   0.896  0.5030  0.2149 -0.2374
  522MOL0     C70374   6.178  10.273   1.019 -0.3594 -0.9050  0.0171
  522MOL0     C70375   6.063  10.367   1.051 -0.2136  1.5045 -0.2311
  522MOL0     C70376   6.075  10.453   1.174 -1.4362  0.6994  0.0380
  522MOL0     C70377   6.075  10.365   1.301 -0.6914 -0.3249  0.0229
  522MOL0     C70378   6.067  10.447   1.433 -0.8192 -0.0268 -0.5392
  522MOL0     C70379   6.175  10.556   1.445  0.0937  0.5560 -0.5876
  522MOL0    Cl70380   6.170  10.637   1.616 -0.0598  0.2840  0.4512
  522MOL0     C70381   6.333   9.878   1.133  0.9645 -0.0477 -0.2478
  522MOL0     C70382   6.471   9.852   1.135 -0.3485  0.0677  0.5419
  522MOL0     O70383   6.733  10.006   0.987  0.4168  0.7709  0.0253
  522MOL0     C70384   6.980   9.907   1.075  0.0081 -0.7612  0.1519
  522MOL0     C70385   7.108   9.856   1.084  1.0566 -1.0857  0.4072
  522MOL0     N70386   7.888   9.708   0.790  0.6760 -0.3957  0.2610
  522MOL0     N70387   7.877   9.693   0.663  0.7246 -0.3735  0.0845
  522MOL0     C70388   8.354   9.835   0.231  0.2452  0.3308  0.4467
  522MOL0     C70389   8.449   9.735   0.248 -0.0168 -0.1422  0.3653
  522MOL0     C70390   8.659   9.352   0.200 -0.0398 -0.5988  0.4370
  522MOL0     C70391   8.655   9.217   0.232  0.4024  0.7055 -0.4481
  522MOL0     C70392   8.750   9.134   0.283 -0.6874 -0.0908  0.2030
  522MOL0     C70393   8.876   9.204   0.297  0.6854  0.3521 -0.5593
  522MOL0     O70394   8.990   9.139   0.335 -0.0611  0.4736  0.3928
  522MOL0     C70395   8.993   9.031   0.433  0.4424 -0.0277  0.3349
  522MOL0     C70396   9.094   9.054   0.550 -0.4554 -0.0582 -0.0764
  522MOL0     C70397   9.087   9.190   0.619  0.3663  0.4734  0.6438
  522MOL0     C70398   9.222   9.227   0.698 -0.0433  0.2421  0.4134
  522MOL0     C70399   9.270   9.120   0.783 -0.7009  0.7139  0.1244
  522MOL0     C70400   9.324   9.041   0.855  0.4772  0.5257 -0.0237
  522MOL0     C70401   8.886   9.340   0.269  0.1518  0.8585  0.3339
  522MOL0     C70402   8.780   9.422   0.224 -0.4345  0.2645 -1.0094
  522MOL0     H70403   8.362   9.556  -0.022 -0.3379 -0.7021  1.9646
  522MOL0     H70404   8.178   9.743  -0.047 -1.5219 -1.6433  1.5733
  522MOL0     H70405   8.231  10.060   0.280 -1.9150  0.4800  3.6012
  522MOL0     H70406   8.090  10.114   0.193 -1.5056 -0.8767  0.3301
  522MOL0     H70407   8.078   9.869   0.380  0.2567  0.7836  0.0966
  522MOL0     H70408   8.070  10.040   0.449  0.3334 -0.1552  0.8579
  522MOL0     H70409   7.860   9.950   0.417  1.3114 -4.5058 -0.5199
  522MOL0     H70410   7.878  10.065   0.277  1.6074  1.8757  1.2617
  522MOL0     H70411   7.897   9.901   0.127 -0.4625  2.3843  0.4704
  522MOL0     H70412   7.939   9.763   0.238  1.7468  0.0917 -1.7982
  522MOL0     H70413   7.653   9.880   0.244 -2.4223 -2.8342  2.6652
  522MOL0     H70414   7.715   9.749   0.136 -3.0652  2.3185 -1.3872
  522MOL0     H70415   7.707   9.790   0.429 -1.2606  1.9186 -2.1297
  522MOL0     H70416   7.600   9.675   0.346  0.4303  0.8290  2.7703
  522MOL0     H70417   7.778   9.523   0.309 -1.9882 -1.5327  2.4584
  522MOL0     H70418   7.900   9.636   0.376  0.4267 -1.7054  3.5883
  522MOL0     H70419   7.850   9.462   0.532  1.0322  1.6545 -1.2946
  522MOL0     H70420   7.678   9.491   0.510  0.0591 -0.7181  3.9482
  522MOL0     H70421   7.616   9.519   0.739 -0.8336  1.5845 -2.0189
  522MOL0     H70422   7.758   9.556   1.018  1.7864  0.9394 -1.6907
  522MOL0     H70423   7.773   9.728   1.050  0.8458 -0.3889  0.0458
  522MOL0     H70424   7.519   9.611   0.937  1.6034 -1.7254  1.7719
  522MOL0     H70425   7.559   9.783   0.945  0.2307  1.8004  2.0046
  522MOL0     H70426   7.581   9.738   1.205  0.9800  0.5512 -2.0778
  522MOL0     H70427   7.504   9.592   1.174 -2.6795 -0.1689 -0.8437
  522MOL0     H70428   7.388   9.868   1.139  0.3207  0.1353 -0.0882
  522MOL0     H70429   7.325   9.735   1.231  0.9576 -0.8582 -0.6987
  522MOL0     H70430   7.132   9.646   0.833  1.0921 -1.1491  2.5221
  522MOL0     H70431   6.785   9.606   0.841 -0.1058  1.5740  1.3535
  522MOL0     H70432   6.805   9.750   0.739  0.0796  2.0649  2.2545
  522MOL0     H70433   6.917   9.616   0.723 -1.2185 -2.9813 -0.5314
  522MOL0     H70434   6.525   9.863   0.795  0.7952 -0.4485 -0.1269
  522MOL0     H70435   6.300   9.948   0.800 -0.3739 -0.5589 -0.7122
  522MOL0     H70436   6.062   9.989   0.835 -0.4463  1.4205 -2.0398
  522MOL0     H70437   5.984  10.070   0.972 -1.2234 -3.0332 -1.5551
  522MOL0     H70438   6.268  10.157   0.877  1.2416 -1.8633  4.7082
  522MOL0     H70439   6.127  10.225   0.803 -1.5298 -1.3192 -0.3042
  522MOL0     H70440   6.269  10.333   1.006 -1.1040 -0.3062 -3.2713
  522MOL0     H70441   6.202  10.205   1.102  2.8344  0.7025  0.5499
  522MOL0     H70442   6.056  10.443   0.973  1.8555 -0.2384 -2.2638
  522MOL0     H70443   5.969  10.311   1.054  0.5985 -0.0808  4.3478
  522MOL0     H70444   5.988  10.518   1.190 -1.5486 -0.2340  4.6113
  522MOL0     H70445   6.167  10.513   1.179 -1.3564  0.7531 -1.6657
  522MOL0     H70446   5.993  10.292   1.296 -0.6556 -0.2797 -1.7113
  522MOL0     H70447   6.159  10.296   1.312 -3.4219 -3.7937  1.4418
  522MOL0     H70448   6.090  10.378   1.515  3.1456  1.9302  0.2354
  522MOL0     H70449   5.965  10.482   1.450 -0.9748 -1.3521  1.6637
  522MOL0     H70450   6.178  10.624   1.359  4.8825  0.2615 -0.9711
  522MOL0     H70451   6.275  10.512   1.431 -0.6615 -1.6218  0.4341
  522MOL0     H70452   6.279   9.919   1.218  1.0567 -0.0138 -0.2054
  522MOL0     H70453   6.536   9.835   1.220  1.5150  1.6678 -0.4654
  522MOL0     H70454   6.930   9.979   1.140 -1.1360 -0.3397 -1.1706
  522MOL0     H70455   7.156   9.911   1.165 -0.9310  0.6237  0.5222
  522MOL0     H70456   8.373   9.901   0.315  0.1321 -0.0121  0.7461
  522MOL0     H70457   8.503   9.724   0.342 -1.8339 -2.6834  1.2422
  522MOL0     H70458   8.561   9.166   0.216 -0.2917  1.7161  0.2697
  522MOL0     H70459   8.736   9.027   0.297  3.0177 -0.4294  2.4477
  522MOL0     H70460   8.900   8.999   0.481 -0.3170 -0.0609 -1.1040
  522MOL0     H70461   9.028   8.944   0.376  2.0019  1.0311 -0.4055
  522MOL0     H70462   9.191   9.034   0.506 -1.0337  1.7257 -2.3089
  522MOL0     H70463   9.064   8.974   0.619 -2.5617  0.6431 -0.0956
  522MOL0     H70464   8.999   9.200   0.682  0.6266  1.4370  0.8695
  522MOL0     H70465   9.074   9.261   0.537 -1.5171 -2.8519 -2.1854
  522MOL0     H70466   9.202   9.317   0.757 -2.8229  1.4796 -2.1293
  522MOL0     H70467   9.294   9.266   0.626 -0.8750 -1.5532 -1.4882
  522MOL0     H70468   9.377   8.968   0.913 -0.4003  1.3733  1.9342
  522MOL0     H70469   8.978   9.392   0.292  0.4472  1.5753 -2.1666
  522MOL0     H70470   8.795   9.529   0.225  0.9815  0.1135 -2.6991
  523MOL0     O70471   5.383   1.191   0.808  0.3067 -0.5806  1.2960
  523MOL0     C70472   5.339   1.210   0.694  0.7764 -0.0890  1.4991
  523MOL0     O70473   5.282   1.328   0.648  0.5518  0.0731  0.0211
  523MOL0     C70474   5.294   1.447   0.721 -0.3228  0.1913  0.7717
  523MOL0     C70475   5.359   1.553   0.654  0.9158 -0.5984  0.6148
  523MOL0     C70476   5.399   1.674   0.723 -0.7218 -0.0164 -0.0153
  523MOL0     C70477   5.382   1.679   0.866 -0.5649 -0.0001 -0.3305
  523MOL0     O70478   5.401   1.781   0.966  0.2341  0.6874 -0.3863
  523MOL0     C70479   5.389   1.919   0.926 -1.4129 -0.1654 -0.1496
  523MOL0     C70480   5.479   2.023   1.000  1.2010  0.8478  0.2508
  523MOL0     C70481   5.612   1.971   1.029  0.3491  0.2973 -0.0054
  523MOL0     C70482   5.691   1.924   0.915 -0.1522 -0.2236 -0.1758
  523MOL0     C70483   5.758   2.031   0.831 -0.4763 -0.6770  0.1811
  523MOL0     C70484   5.843   1.966   0.726 -0.1190 -0.2577 -0.0474
  523MOL0     C70485   5.792   1.871   0.612  0.4447  0.9603 -0.1538
  523MOL0     C70486   5.908   1.808   0.535 -0.9790  0.3029 -0.0934
  523MOL0     N70487   5.969   1.905   0.436  0.3677 -0.0138  0.1273
  523MOL0     C70488   6.103   1.903   0.387  0.1283  0.4661 -0.5215
  523MOL0     C70489   6.123   2.011   0.316 -0.8592  0.0939  0.1147
  523MOL0     C70490   6.240   2.053   0.248 -1.0523 -0.5037 -0.0777
  523MOL0     C70491   6.289   2.183   0.313  0.1472  0.4788  0.0897
  523MOL0     C70492   6.433   2.211   0.285 -0.3617  0.4220  0.0628
  523MOL0     C70493   6.480   2.343   0.357 -0.5244  0.4448 -0.6150
  523MOL0     O70494   6.469   2.320   0.497  0.6861 -0.0259 -1.1900
  523MOL0     C70495   6.505   2.436   0.565  0.1490  0.4111  0.7732
  523MOL0     C70496   6.633   2.477   0.557 -0.0279 -0.0833 -0.1080
  523MOL0     C70497   6.680   2.600   0.614  0.6024 -0.7002  0.3785
  523MOL0     C70498   6.815   2.655   0.602 -0.3465  0.6266 -0.3589
  523MOL0     C70499   6.582   2.669   0.695  0.1135 -0.6518 -1.0210
  523MOL0     C70500   6.619   2.787   0.776 -1.0908 -0.6863 -0.6707
  523MOL0     O70501   6.578   2.787   0.901 -0.6949  0.5567 -0.6763
  523MOL0     C70502   6.563   2.912   0.972  1.6248 -1.0896 -0.4150
  523MOL0     C70503   6.483   3.014   0.926 -0.5458  0.2962 -0.4730
  523MOL0     C70504   6.492   3.139   0.996  0.2762 -0.7355 -0.1698
  523MOL0     C70505   6.551   3.148   1.120 -0.4501  0.6417 -0.1891
  523MOL0     O70506   6.519   3.264   1.186 -0.4491  0.6134 -0.7301
  523MOL0     C70507   6.550   3.266   1.329 -0.4211  0.2755 -0.2294
  523MOL0     C70508   6.541   3.403   1.391 -0.1597 -0.1390 -0.1812
  523MOL0     C70509   6.520   3.397   1.545 -0.6902 -0.0070  0.6481
  523MOL0     C70510   6.563   3.527   1.598 -0.2010  0.3714  0.6743
  523MOL0     C70511   6.536   3.536   1.741  0.5281 -0.9695  0.2974
  523MOL0     C70512   6.596   3.653   1.807 -0.0467 -0.0226  0.7057
  523MOL0     C70513   6.523   3.705   1.930 -0.5193  1.2116  0.1662
  523MOL0     C70514   6.604   3.826   1.989  0.0739  0.4465 -0.0753
  523MOL0    Cl70515   6.757   3.735   2.050 -0.4409  0.0827 -0.3107
  523MOL0     C70516   6.630   3.039   1.169 -0.0236 -0.4876 -0.2037
  523MOL0     C70517   6.638   2.922   1.088  0.1831  0.5885 -0.4878
  523MOL0     O70518   6.648   2.882   0.706  0.7192 -0.2280 -0.3441
  523MOL0     C70519   6.449   2.627   0.687 -0.4595 -0.8754 -0.3179
  523MOL0     C70520   6.408   2.519   0.624 -0.9849  0.0997  0.1055
  523MOL0     N70521   5.998   2.082   0.328 -0.0219 -0.6318 -0.3895
  523MOL0     N70522   5.912   2.016   0.391 -0.6913  0.1053 -0.1157
  523MOL0     C70523   5.330   1.559   0.928  0.1855  0.0030 -0.0692
  523MOL0     C70524   5.272   1.453   0.857 -0.0601 -0.9242 -0.1777
  523MOL0     C70525   5.333   1.091   0.599  0.2890 -0.6585  0.0552
  523MOL0     C70526   5.381   0.969   0.645  0.5560 -1.1556  0.6976
  523MOL0     C70527   5.384   0.856   0.567  0.2914  0.0259  0.7965
  523MOL0     C70528   5.350   0.867   0.428  0.0663  0.9766  0.1788
  523MOL0     O70529   5.353   0.759   0.344  0.3284  0.1973 -0.1161
  523MOL0     C70530   5.429   0.768   0.223 -1.2913 -0.3011 -0.3582
  523MOL0     C70531   5.498   0.631   0.220 -0.0505 -0.4905 -0.5143
  523MOL0     C70532   5.636   0.639   0.286 -0.2004 -0.0991 -0.4766
  523MOL0     C70533   5.684   0.505   0.337 -0.4463  0.4762  0.2030
  523MOL0     C70534   5.696   0.394   0.241 -0.4850 -1.4673  0.6796
  523MOL0     C70535   5.707   0.298   0.166  0.0806 -0.6073  0.6653
  523MOL0     C70536   5.305   0.996   0.379 -0.1939  0.1024  0.3357
  523MOL0     C70537   5.291   1.107   0.470 -0.5513  0.0758  1.2087
  523MOL0     H70538   5.362   1.543   0.546 -0.6763  3.0455  0.1108
  523MOL0     H70539   5.455   1.751   0.670  0.6148 -2.4630 -2.4031
  523MOL0     H70540   5.408   1.934   0.820 -0.5440  3.1036  0.3855
  523MOL0     H70541   5.288   1.949   0.955 -1.5109  0.1539 -0.8167
  523MOL0     H70542   5.495   2.099   0.922 -0.1778  1.2958  0.3837
  523MOL0     H70543   5.421   2.058   1.086  2.0421 -1.3892  1.8454
  523MOL0     H70544   5.661   2.059   1.072 -0.8069 -0.9389  4.3724
  523MOL0     H70545   5.617   1.902   1.114  0.4253  2.6720  2.0495
  523MOL0     H70546   5.775   1.866   0.956  2.6210  2.7926 -1.1575
  523MOL0     H70547   5.628   1.872   0.842 -1.3273  1.7795 -0.6515
  523MOL0     H70548   5.679   2.095   0.789 -2.0048 -1.9004  1.0708
  523MOL0     H70549   5.829   2.098   0.878 -0.9552  1.8210 -2.3909
  523MOL0     H70550   5.898   2.045   0.673  2.3163 -1.0728  1.1264
  523MOL0     H70551   5.917   1.918   0.790 -2.5164 -1.5735  1.9420
  523MOL0     H70552   5.733   1.789   0.655  1.8756 -1.1000 -1.9266
  523MOL0     H70553   5.736   1.928   0.537  1.7313  2.1619 -0.2318
  523MOL0     H70554   5.869   1.719   0.484  2.9606 -1.3494 -0.6154
  523MOL0     H70555   5.987   1.776   0.603 -1.2893  2.3858  1.3391
  523MOL0     H70556   6.177   1.833   0.423  1.3909  3.4810  3.4076
  523MOL0     H70557   6.328   1.987   0.244 -0.2646  0.1666  3.0827
  523MOL0     H70558   6.210   2.077   0.146 -1.7894 -1.5744 -0.1167
  523MOL0     H70559   6.276   2.181   0.421  4.1589  1.7557  0.7542
  523MOL0     H70560   6.237   2.270   0.272  2.3753  2.3038  0.9335
  523MOL0     H70561   6.444   2.218   0.176 -1.6032  2.2025  0.0028
  523MOL0     H70562   6.488   2.125   0.324  0.5038  0.7945 -0.3309
  523MOL0     H70563   6.430   2.434   0.324 -0.2472  0.8238 -0.0095
  523MOL0     H70564   6.586   2.360   0.338  0.7473 -4.2360  0.9044
  523MOL0     H70565   6.721   2.431   0.515  0.8315  1.9698 -0.6708
  523MOL0     H70566   6.879   2.592   0.538  1.0078  1.2260  0.3589
  523MOL0     H70567   6.798   2.754   0.560 -1.3384  1.1768  1.2613
  523MOL0     H70568   6.866   2.660   0.699  0.6820  1.2961 -0.9113
  523MOL0     H70569   6.416   2.995   0.843  0.4693  0.9030 -1.4557
  523MOL0     H70570   6.445   3.231   0.965  2.2802  0.6424  0.6810
  523MOL0     H70571   6.475   3.197   1.367 -0.9678  1.0369  0.0892
  523MOL0     H70572   6.649   3.229   1.357  0.5076  2.2032 -0.7942
  523MOL0     H70573   6.623   3.465   1.355 -0.3630  1.5518  2.0336
  523MOL0     H70574   6.451   3.442   1.342  0.5492 -0.2885 -1.6698
  523MOL0     H70575   6.584   3.319   1.586  2.6630  2.7932  1.2332
  523MOL0     H70576   6.415   3.369   1.557 -0.7134  0.3841  1.4420
  523MOL0     H70577   6.673   3.527   1.590 -0.2390 -0.6274 -0.0616
  523MOL0     H70578   6.521   3.611   1.542  0.7773 -0.2881 -1.1389
  523MOL0     H70579   6.565   3.445   1.795 -0.8044 -0.2901  2.2966
  523MOL0     H70580   6.428   3.549   1.752  0.5179  4.2686 -2.6709
  523MOL0     H70581   6.696   3.614   1.827  0.6331  0.6216 -1.1621
  523MOL0     H70582   6.601   3.740   1.741  0.8333  0.1587  1.0037
  523MOL0     H70583   6.500   3.626   2.002  0.6304 -0.9979 -1.7359
  523MOL0     H70584   6.424   3.745   1.906 -0.7257  1.2921  1.1300
  523MOL0     H70585   6.553   3.892   2.059 -1.3974 -2.3323  1.6507
  523MOL0     H70586   6.630   3.887   1.902  0.8837 -1.8073 -1.5014
  523MOL0     H70587   6.675   3.047   1.267 -0.7258  2.7838 -0.0150
  523MOL0     H70588   6.710   2.844   1.107 -1.8670 -1.6354 -1.2870
  523MOL0     H70589   6.379   2.681   0.750  0.7873  0.5394 -0.0882
  523MOL0     H70590   6.302   2.497   0.638 -1.8859  3.2707 -0.8640
  523MOL0     H70591   5.305   1.563   1.034 -0.7869  0.6370 -0.3086
  523MOL0     H70592   5.227   1.367   0.904 -1.1205 -0.3760 -0.1703
  523MOL0     H70593   5.396   0.956   0.752 -2.6840  0.5917  1.4974
  523MOL0     H70594   5.389   0.750   0.588 -4.4099 -0.4865  0.4182
  523MOL0     H70595   5.364   0.796   0.140  0.7574 -2.1800 -2.7394
  523MOL0     H70596   5.503   0.848   0.224 -2.5343  0.8801 -0.0103
  523MOL0     H70597   5.516   0.612   0.113  0.7793 -3.6257  0.0744
  523MOL0     H70598   5.442   0.547   0.262 -0.5254 -1.0467 -2.1759
  523MOL0     H70599   5.637   0.710   0.369  1.9562  1.2392 -1.5461
  523MOL0     H70600   5.707   0.685   0.216 -1.4858 -0.0471 -1.8065
  523MOL0     H70601   5.630   0.463   0.423  0.2162  4.3665  2.7962
  523MOL0     H70602   5.785   0.519   0.376 -1.2183  0.0477  2.5186
  523MOL0     H70603   5.727   0.217   0.098  0.1725  2.6366 -3.5538
  523MOL0     H70604   5.288   1.002   0.272 -3.7251 -0.1290  0.7551
  523MOL0     H70605   5.261   1.202   0.427 -2.1216 -0.7760  0.3434
  524MOL0     O70606   0.009   0.521  10.143 -0.0085  0.3584  0.3254
  524MOL0     C70607  -0.098   0.581  10.140 -0.3318 -0.0122 -1.0742
  524MOL0     O70608  -0.139   0.680  10.228  0.5641  0.2244 -0.4436
  524MOL0     C70609  -0.060   0.712  10.330 -1.0009 -0.4283 -1.0779
  524MOL0     C70610  -0.082   0.650  10.451  0.8557  0.0191  0.1691
  524MOL0     C70611   0.001   0.669  10.556  0.3852  0.0234 -0.4891
  524MOL0     C70612   0.108   0.764  10.544 -0.1827 -0.1456 -0.5012
  524MOL0     O70613   0.177   0.794  10.655  1.1805 -0.1384 -0.6125
  524MOL0     C70614   0.315   0.762  10.659 -0.8706 -0.7634 -0.9337
  524MOL0     C70615   0.396   0.900  10.657 -0.1052 -0.4558  0.1759
  524MOL0     C70616   0.543   0.854  10.651  0.1817 -0.2954  0.4114
  524MOL0     C70617   0.627   0.960  10.596  0.2742  0.3712 -1.1946
  524MOL0     C70618   0.772   0.906  10.577 -0.1516 -0.0969 -1.1629
  524MOL0     C70619   0.853   1.027  10.513  1.0536  0.9347  0.3266
  524MOL0     C70620   1.003   1.019  10.526 -0.0078 -0.4281  0.5756
  524MOL0     C70621   1.058   1.161  10.490 -0.4295 -0.0363  1.2275
  524MOL0     N70622   1.027   1.183  10.344  0.7840 -0.4994 -0.5829
  524MOL0     C70623   1.095   1.123  10.247  0.6312  0.6097  0.4243
  524MOL0     C70624   1.048   1.165  10.133 -0.8623 -0.4661  0.5155
  524MOL0     C70625   1.098   1.117   9.999 -0.2533  0.1314 -0.1346
  524MOL0     C70626   1.075   0.961   9.979 -0.6569  0.1298 -0.7879
  524MOL0     C70627   1.175   0.857  10.033  0.9296 -0.9766 -0.1702
  524MOL0     C70628   1.206   0.742   9.928  0.1796  0.8909 -1.0389
  524MOL0     O70629   1.307   0.804   9.846  0.3973  0.4801  0.6547
  524MOL0     C70630   1.357   0.731   9.748 -0.2966 -0.1572  0.2908
  524MOL0     C70631   1.460   0.782   9.668  0.6588 -0.5901  0.6501
  524MOL0     C70632   1.522   0.706   9.563  0.2224  0.6490  0.4627
  524MOL0     C70633   1.648   0.758   9.516 -1.3585  0.4781 -0.4276
  524MOL0     C70634   1.457   0.579   9.527 -0.0900 -0.0242 -1.6436
  524MOL0     C70635   1.496   0.505   9.414  0.2570 -0.3377  0.3667
  524MOL0     O70636   1.456   0.553   9.289 -0.2394 -0.6748  0.2503
  524MOL0     C70637   1.462   0.486   9.170 -0.2942  0.0561  0.2296
  524MOL0     C70638   1.384   0.539   9.069  0.5776  0.2756  0.5803
  524MOL0     C70639   1.383   0.480   8.940  0.8111  0.1931  0.3153
  524MOL0     C70640   1.473   0.371   8.902 -0.9815 -0.1267  0.4757
  524MOL0     O70641   1.511   0.337   8.776  0.2747  0.5340 -0.3966
  524MOL0     C70642   1.398   0.311   8.687 -0.3119 -0.4110 -0.1252
  524MOL0     C70643   1.443   0.267   8.546 -1.0099  0.2840 -0.6604
  524MOL0     C70644   1.325   0.234   8.455  0.1040 -0.6199 -0.3365
  524MOL0     C70645   1.375   0.184   8.326  0.4054 -1.5463  0.9037
  524MOL0     C70646   1.258   0.169   8.225  0.2351 -0.2257  0.3895
  524MOL0     C70647   1.313   0.088   8.105 -0.0285 -0.4167  0.1566
  524MOL0     C70648   1.213   0.051   7.992  0.5088 -0.7799 -1.1321
  524MOL0     C70649   1.282  -0.002   7.875  0.0672 -0.3002 -0.3332
  524MOL0    Cl70650   1.165  -0.010   7.739 -0.0000 -0.1478  0.0946
  524MOL0     C70651   1.566   0.341   9.001  0.7569 -0.2057  0.7043
  524MOL0     C70652   1.554   0.385   9.134 -0.4822 -0.1195 -0.0159
  524MOL0     O70653   1.565   0.404   9.432  0.7183  0.7723  0.3809
  524MOL0     C70654   1.370   0.522   9.614 -0.7234  0.7454 -0.5618
  524MOL0     C70655   1.323   0.591   9.727  0.2393 -0.0363  0.3354
  524MOL0     N70656   0.956   1.258  10.162 -0.0273  0.9000  0.1290
  524MOL0     N70657   0.939   1.272  10.292 -0.0106  0.1870 -0.2206
  524MOL0     C70658   0.128   0.841  10.433 -1.4145  0.0365 -0.1225
  524MOL0     C70659   0.040   0.814  10.327  0.0742  0.2814  0.0922
  524MOL0     C70660  -0.215   0.521  10.078  0.2514 -0.4994  0.2626
  524MOL0     C70661  -0.207   0.394  10.023  0.5390  0.4217  0.0462
  524MOL0     C70662  -0.312   0.342   9.946 -0.0837 -0.0920 -0.9018
  524MOL0     C70663  -0.433   0.413   9.920 -0.4654  0.3715  0.2808
  524MOL0     O70664  -0.532   0.373   9.836  0.3396 -0.4329  0.2308
  524MOL0     C70665  -0.521   0.252   9.756 -1.0608 -0.5202 -0.0372
  524MOL0     C70666  -0.663   0.210   9.695 -0.0341 -0.2625  0.3280
  524MOL0     C70667  -0.782   0.191   9.793  1.1620 -0.3213 -0.2795
  524MOL0     C70668  -0.745   0.105   9.916 -0.3390  0.0438 -0.2591
  524MOL0     C70669  -0.670  -0.017   9.879  0.2237 -0.6172  0.2812
  524MOL0     C70670  -0.601  -0.105   9.831 -0.6475  0.5698 -1.1651
  524MOL0     C70671  -0.431   0.541   9.971  0.1706 -0.8049  0.1868
  524MOL0     C70672  -0.327   0.596  10.046 -0.1588  0.1412 -0.7226
  524MOL0     H70673  -0.177   0.597  10.455  0.4924  0.7083  1.0425
  524MOL0     H70674  -0.025   0.618  10.648 -1.1790 -1.1566 -1.5477
  524MOL0     H70675   0.326   0.721  10.759 -0.5530  3.1952  0.8492
  524MOL0     H70676   0.342   0.701  10.572 -3.4509 -2.1684 -0.8486
  524MOL0     H70677   0.360   0.963  10.576 -0.2807  0.6966  1.1342
  524MOL0     H70678   0.369   0.958  10.746 -0.7139 -0.8395  0.2496
  524MOL0     H70679   0.570   0.820  10.751  0.3273 -2.2458 -0.2462
  524MOL0     H70680   0.549   0.776  10.574 -2.2909  1.2499 -1.5178
  524MOL0     H70681   0.586   0.976  10.496 -2.6113 -0.1239 -0.2014
  524MOL0     H70682   0.636   1.053  10.654  2.0348 -1.4363  1.6743
  524MOL0     H70683   0.814   0.886  10.676  0.7331 -2.9026 -1.9902
  524MOL0     H70684   0.777   0.813  10.519  1.3200 -1.3482  0.8072
  524MOL0     H70685   0.825   1.028  10.407  4.1522  0.0439 -0.6145
  524MOL0     H70686   0.819   1.119  10.559 -0.8248  0.3473  0.1940
  524MOL0     H70687   1.029   1.005  10.632 -0.9835 -1.2650  0.7102
  524MOL0     H70688   1.051   0.941  10.467 -1.1962 -0.2950 -0.5959
  524MOL0     H70689   1.164   1.182  10.504 -0.2854 -1.5180  2.6764
  524MOL0     H70690   1.004   1.234  10.552 -1.6105  1.5789 -1.5242
  524MOL0     H70691   1.185   1.064  10.259 -0.5007 -1.4298 -0.5227
  524MOL0     H70692   1.047   1.177   9.923 -3.4139  2.0960  3.2582
  524MOL0     H70693   1.202   1.150   9.989  0.5412 -1.2694  2.4670
  524MOL0     H70694   1.063   0.948   9.872 -2.3395  0.0267 -0.6006
  524MOL0     H70695   0.972   0.936  10.006 -0.5125 -0.0428 -0.3772
  524MOL0     H70696   1.123   0.819  10.121 -0.6882 -0.4484 -0.8659
  524MOL0     H70697   1.268   0.902  10.068 -0.2218  0.5837  1.0041
  524MOL0     H70698   1.109   0.721   9.882 -1.0476  1.6418  1.0837
  524MOL0     H70699   1.240   0.661   9.992 -0.9148  3.4165  3.1057
  524MOL0     H70700   1.498   0.875   9.710 -2.2929  0.2764  1.6114
  524MOL0     H70701   1.671   0.733   9.412 -1.7261  1.9706 -0.8896
  524MOL0     H70702   1.650   0.867   9.518  1.6834  0.5067  0.3234
  524MOL0     H70703   1.734   0.717   9.570 -1.0198  0.2067 -1.1648
  524MOL0     H70704   1.332   0.627   9.104 -0.2427  0.1287 -0.2092
  524MOL0     H70705   1.326   0.535   8.865  0.7730  1.6059  1.3466
  524MOL0     H70706   1.333   0.229   8.718 -2.9263  1.9900  1.2082
  524MOL0     H70707   1.332   0.397   8.675  1.5547  0.9690 -0.8986
  524MOL0     H70708   1.508   0.340   8.497  1.3931  0.8568  3.0163
  524MOL0     H70709   1.496   0.175   8.569 -0.4449  0.5424 -0.9175
  524MOL0     H70710   1.257   0.318   8.435  1.0313  0.0187 -0.8877
  524MOL0     H70711   1.262   0.151   8.487 -0.4505 -0.6625 -1.5043
  524MOL0     H70712   1.453   0.249   8.284 -1.6650 -1.1323 -2.7061
  524MOL0     H70713   1.415   0.084   8.341 -3.1504 -3.7894 -2.5763
  524MOL0     H70714   1.230   0.271   8.197  0.7230  0.0540  0.8780
  524MOL0     H70715   1.171   0.126   8.274  0.4018  1.8691  2.7373
  524MOL0     H70716   1.405   0.131   8.065  0.5099 -0.4907  1.2704
  524MOL0     H70717   1.340  -0.010   8.145 -2.6179 -0.4545  2.0568
  524MOL0     H70718   1.156   0.140   7.963 -0.2837 -0.4551  1.2206
  524MOL0     H70719   1.143  -0.014   8.046 -0.1754  0.0346 -1.0102
  524MOL0     H70720   1.336  -0.095   7.890 -1.0257 -0.9255 -0.1880
  524MOL0     H70721   1.361   0.063   7.835 -1.4600 -0.3636 -3.8276
  524MOL0     H70722   1.638   0.265   8.975 -0.0243 -1.1162  1.1732
  524MOL0     H70723   1.621   0.342   9.207  1.3447  2.2462 -0.1838
  524MOL0     H70724   1.321   0.430   9.583 -1.7737  0.8592  0.7042
  524MOL0     H70725   1.250   0.543   9.792  0.9558  0.5216  1.6073
  524MOL0     H70726   0.210   0.911  10.418  0.9961 -2.2735  1.4045
  524MOL0     H70727   0.054   0.868  10.234  0.3233 -0.1324 -0.1154
  524MOL0     H70728  -0.124   0.329  10.049 -0.1818  1.0298  4.7211
  524MOL0     H70729  -0.286   0.251   9.894  1.9573 -1.4189  2.1144
  524MOL0     H70730  -0.461   0.284   9.671 -2.1486 -1.5011 -1.2092
  524MOL0     H70731  -0.473   0.175   9.818 -1.4634 -1.2897 -0.6653
  524MOL0     H70732  -0.652   0.134   9.617 -2.7181 -1.2066  0.7774
  524MOL0     H70733  -0.694   0.293   9.630  1.0953 -0.4168 -0.4357
  524MOL0     H70734  -0.858   0.146   9.728  0.6571  1.1407 -0.7386
  524MOL0     H70735  -0.809   0.292   9.827 -2.3170 -1.5925  1.2029
  524MOL0     H70736  -0.834   0.085   9.976 -0.8374  4.2117  0.6729
  524MOL0     H70737  -0.680   0.169   9.976 -0.0962 -1.2186  0.8745
  524MOL0     H70738  -0.524  -0.176   9.808 -0.0840  1.0557 -0.8174
  524MOL0     H70739  -0.524   0.598   9.972 -1.0689 -2.7088  2.3639
  524MOL0     H70740  -0.332   0.702  10.068 -1.2371 -0.0973  0.2996
  525MOL0     O70741   5.256   4.643   1.286  0.2343  1.0479 -0.6092
  525MOL0     C70742   5.260   4.517   1.273  0.2703  0.1662  0.9414
  525MOL0     O70743   5.187   4.440   1.191 -0.3524 -0.7073 -0.6087
  525MOL0     C70744   5.137   4.500   1.077 -0.4333 -0.0831 -0.5220
  525MOL0     C70745   5.001   4.520   1.070  0.5305 -0.4220  1.3926
  525MOL0     C70746   4.941   4.552   0.942  0.4919 -0.0352  0.1231
  525MOL0     C70747   5.024   4.564   0.831 -1.1709 -0.2779 -0.9013
  525MOL0     O70748   4.982   4.586   0.707 -0.0814 -0.6551 -0.3565
  525MOL0     C70749   4.848   4.557   0.660  0.2924 -0.0685  0.4803
  525MOL0     C70750   4.853   4.480   0.536  0.4329 -0.3174  0.2123
  525MOL0     C70751   4.862   4.577   0.415 -0.2433 -0.6379  0.5994
  525MOL0     C70752   4.849   4.493   0.285 -0.6718 -0.7648 -0.4820
  525MOL0     C70753   4.852   4.574   0.159  0.9802 -1.1474  0.3865
  525MOL0     C70754   4.826   4.474   0.041  0.5297 -1.4042 -0.5959
  525MOL0     C70755   4.846   4.527  -0.103  0.0612  0.6295  0.7151
  525MOL0     C70756   5.002   4.541  -0.125  0.6529  0.0781  0.1683
  525MOL0     N70757   5.024   4.587  -0.262  0.6322 -1.2422  0.7948
  525MOL0     C70758   4.960   4.684  -0.333 -0.0127  0.0353 -0.3533
  525MOL0     C70759   5.006   4.671  -0.455  1.2399 -0.6125 -0.1932
  525MOL0     C70760   4.974   4.743  -0.583 -0.4695 -0.4919 -1.1640
  525MOL0     C70761   4.824   4.775  -0.589 -0.1416  0.0752  0.1225
  525MOL0     C70762   4.724   4.664  -0.583 -0.0453 -1.2811  0.5475
  525MOL0     C70763   4.585   4.713  -0.531 -0.5191  0.5706  0.7437
  525MOL0     O70764   4.597   4.746  -0.395  0.1490  0.0101  0.7462
  525MOL0     C70765   4.561   4.664  -0.296 -0.1577 -0.8424 -0.3500
  525MOL0     C70766   4.540   4.729  -0.171  0.5749  0.5045  0.5681
  525MOL0     C70767   4.502   4.648  -0.062 -0.0758 -0.0889 -1.0259
  525MOL0     C70768   4.493   4.720   0.068 -0.9198  0.1489  0.8880
  525MOL0     C70769   4.481   4.511  -0.069 -0.1691  0.2133  0.4672
  525MOL0     C70770   4.450   4.422   0.042  0.1269  1.2960 -1.0615
  525MOL0     O70771   4.485   4.290   0.020 -0.1996 -0.0246  0.1492
  525MOL0     C70772   4.462   4.208   0.127  0.1562  0.3950 -0.1415
  525MOL0     C70773   4.563   4.183   0.218  0.1149  0.4026 -0.5725
  525MOL0     C70774   4.544   4.096   0.335 -0.4277 -0.9020  0.8082
  525MOL0     C70775   4.415   4.045   0.362  0.1792  0.8779  0.0859
  525MOL0     O70776   4.382   3.964   0.468 -0.1447 -0.2963 -0.3452
  525MOL0     C70777   4.484   3.938   0.570  0.2777 -0.3254  0.4526
  525MOL0     C70778   4.423   3.871   0.687 -0.3537 -0.4191  0.3884
  525MOL0     C70779   4.521   3.887   0.791  0.4357 -0.3760  0.5679
  525MOL0     C70780   4.479   3.811   0.924 -0.2399 -0.2418  0.3650
  525MOL0     C70781   4.600   3.771   0.989 -1.0093  0.8530 -0.5899
  525MOL0     C70782   4.663   3.638   0.940 -0.4566 -0.2159  0.0200
  525MOL0     C70783   4.572   3.516   0.957  0.7042 -0.7001 -0.0769
  525MOL0     C70784   4.508   3.501   1.100 -0.8071 -1.0231 -0.2022
  525MOL0    Cl70785   4.648   3.504   1.209  0.1634 -0.4651  0.5323
  525MOL0     C70786   4.307   4.091   0.278 -0.6203  1.0018  0.3165
  525MOL0     C70787   4.330   4.168   0.160 -0.1305  0.1591  0.1582
  525MOL0     O70788   4.398   4.456   0.149  0.3600  0.1289  0.7465
  525MOL0     C70789   4.509   4.455  -0.199 -0.0538  0.3256 -0.6639
  525MOL0     C70790   4.551   4.530  -0.308  0.2042 -0.0167  0.0850
  525MOL0     N70791   5.108   4.583  -0.461 -0.8133  0.1952 -0.5228
  525MOL0     N70792   5.112   4.529  -0.339  0.0993 -0.0044  0.2688
  525MOL0     C70793   5.159   4.558   0.844 -0.4182 -0.2197  0.1648
  525MOL0     C70794   5.221   4.520   0.961 -1.1702 -0.0696 -0.0507
  525MOL0     C70795   5.376   4.449   1.336  0.6789  0.3691  1.9361
  525MOL0     C70796   5.362   4.320   1.392 -0.4870 -0.3162  0.1278
  525MOL0     C70797   5.468   4.266   1.461 -0.1914 -0.3086 -0.0814
  525MOL0     C70798   5.592   4.326   1.439 -0.0667  0.0038  0.7982
  525MOL0     O70799   5.704   4.288   1.492 -0.5663  0.2866 -0.0200
  525MOL0     C70800   5.712   4.247   1.629 -1.4389 -0.4199  0.1185
  525MOL0     C70801   5.847   4.288   1.688 -0.1380  0.4224  0.0656
  525MOL0     C70802   5.879   4.434   1.661  0.1719  0.2947  0.2209
  525MOL0     C70803   5.988   4.448   1.557  0.5216 -0.2208 -0.0736
  525MOL0     C70804   6.024   4.589   1.533 -0.7174  0.1228 -0.0074
  525MOL0     C70805   6.040   4.707   1.498  0.8103  0.0109 -0.3873
  525MOL0     C70806   5.607   4.443   1.367 -0.5176 -0.4461 -0.1186
  525MOL0     C70807   5.496   4.510   1.324 -0.5849 -0.6146  0.6239
  525MOL0     H70808   4.929   4.535   1.149 -0.0915 -2.0348  1.1861
  525MOL0     H70809   4.833   4.556   0.945  0.3608 -2.0085 -0.6559
  525MOL0     H70810   4.788   4.510   0.738 -0.2050  3.2798  2.2803
  525MOL0     H70811   4.798   4.652   0.640  0.8231  0.2788  0.7821
  525MOL0     H70812   4.947   4.424   0.546  2.3855  2.6926 -0.0813
  525MOL0     H70813   4.763   4.418   0.528  1.1303 -1.3863  0.4141
  525MOL0     H70814   4.791   4.660   0.416  0.2532 -0.1890  1.8174
  525MOL0     H70815   4.958   4.630   0.417 -0.8490  0.7208 -2.0118
  525MOL0     H70816   4.918   4.408   0.274  0.2662  0.0435 -1.0228
  525MOL0     H70817   4.748   4.453   0.298 -0.3439 -0.7915  2.7492
  525MOL0     H70818   4.781   4.657   0.166  1.9168 -0.0301 -2.1882
  525MOL0     H70819   4.943   4.634   0.153 -0.8558  1.6356 -2.9415
  525MOL0     H70820   4.900   4.394   0.047  1.4257 -0.5504  0.2388
  525MOL0     H70821   4.731   4.424   0.058 -0.7958  1.1408 -0.0510
  525MOL0     H70822   4.809   4.445  -0.164  0.1182  0.4988  0.8558
  525MOL0     H70823   4.789   4.620  -0.114 -1.5420  0.1315  3.6516
  525MOL0     H70824   5.056   4.446  -0.118 -0.8422 -0.8997 -1.1090
  525MOL0     H70825   5.051   4.620  -0.068  1.2401 -0.7637  0.8685
  525MOL0     H70826   4.881   4.751  -0.299  1.2122 -0.1938  3.4073
  525MOL0     H70827   5.027   4.838  -0.593 -2.4572  0.8013 -0.2388
  525MOL0     H70828   5.012   4.676  -0.660 -0.1036 -2.7967  0.9181
  525MOL0     H70829   4.821   4.818  -0.690  2.5647 -4.5819 -2.2897
  525MOL0     H70830   4.812   4.845  -0.506  2.9184  0.5527  0.2515
  525MOL0     H70831   4.754   4.600  -0.499 -0.0329  1.1047  2.5027
  525MOL0     H70832   4.727   4.615  -0.680  0.7494  1.5855 -0.9855
  525MOL0     H70833   4.512   4.632  -0.535  1.9045 -1.8772  2.3304
  525MOL0     H70834   4.534   4.792  -0.586 -1.4662  0.5394  1.5547
  525MOL0     H70835   4.553   4.836  -0.158 -0.0614  0.2303  4.7388
  525MOL0     H70836   4.388   4.736   0.095 -0.7213  0.9513  1.2051
  525MOL0     H70837   4.547   4.657   0.140  1.3824 -0.9495 -1.6122
  525MOL0     H70838   4.552   4.811   0.080 -0.5326 -0.1927  1.6291
  525MOL0     H70839   4.660   4.223   0.192  0.1116  0.3702 -0.6358
  525MOL0     H70840   4.635   4.087   0.393 -0.5309  1.1337  1.3655
  525MOL0     H70841   4.557   3.865   0.530 -0.8244 -1.6539  0.7819
  525MOL0     H70842   4.545   4.025   0.596 -0.0108  0.8756 -2.4694
  525MOL0     H70843   4.340   3.938   0.710 -1.9362 -1.5298 -1.7499
  525MOL0     H70844   4.389   3.768   0.671 -1.8201 -0.0473  0.9848
  525MOL0     H70845   4.530   3.993   0.817 -1.9623 -0.3108  1.3783
  525MOL0     H70846   4.620   3.848   0.765  1.0105  0.4883  1.3838
  525MOL0     H70847   4.426   3.887   0.982  0.3834  3.1618 -3.1019
  525MOL0     H70848   4.412   3.725   0.921  2.3889 -2.4040 -0.6309
  525MOL0     H70849   4.578   3.773   1.096  3.4371  0.2718  0.5702
  525MOL0     H70850   4.678   3.846   0.977  1.6946 -1.9062 -1.6938
  525MOL0     H70851   4.679   3.654   0.833  0.7605  0.6857  0.3024
  525MOL0     H70852   4.759   3.613   0.988 -0.9358 -1.5011  0.3523
  525MOL0     H70853   4.628   3.425   0.934  1.9504 -0.6355  2.4102
  525MOL0     H70854   4.499   3.522   0.875 -0.1551  2.4701  0.7649
  525MOL0     H70855   4.451   3.409   1.117  0.2916 -1.5875  0.5964
  525MOL0     H70856   4.448   3.590   1.116  0.7899  0.2684 -1.1265
  525MOL0     H70857   4.206   4.055   0.296 -0.0469  0.1074  1.9782
  525MOL0     H70858   4.236   4.179   0.106 -0.3081 -0.7990  0.2576
  525MOL0     H70859   4.497   4.349  -0.216 -2.5998  0.6025 -0.8762
  525MOL0     H70860   4.564   4.478  -0.402 -2.7421  1.3515 -1.2064
  525MOL0     H70861   5.225   4.571   0.759  0.1274 -0.9559  0.4675
  525MOL0     H70862   5.327   4.506   0.977 -0.7837  2.1167 -0.4814
  525MOL0     H70863   5.268   4.265   1.395 -0.1432 -0.9071  2.9816
  525MOL0     H70864   5.463   4.166   1.503 -1.9321  1.2531  3.9229
  525MOL0     H70865   5.631   4.305   1.676 -1.7741  0.4805 -1.4683
  525MOL0     H70866   5.700   4.139   1.634  2.8334 -1.1277 -1.2875
  525MOL0     H70867   5.916   4.209   1.656  0.0288  0.6999 -0.2622
  525MOL0     H70868   5.838   4.265   1.794  0.8745 -0.5774 -0.0520
  525MOL0     H70869   5.902   4.481   1.757 -6.2832 -0.7974  2.8604
  525MOL0     H70870   5.790   4.484   1.621  0.3567 -0.4520 -1.1731
  525MOL0     H70871   5.946   4.402   1.467 -0.5084 -1.6014  1.0669
  525MOL0     H70872   6.086   4.402   1.576  0.2314 -0.4898  0.8360
  525MOL0     H70873   6.053   4.813   1.491  0.6677  0.2177  1.7861
  525MOL0     H70874   5.701   4.497   1.356 -0.6294 -0.3712 -0.7907
  525MOL0     H70875   5.507   4.597   1.259 -1.5702 -2.0727 -1.5970
  526MOL0     O70876   0.579   9.279   5.921 -0.6288 -0.5418  0.0430
  526MOL0     C70877   0.542   9.175   5.954  0.0881  1.3322 -0.7703
  526MOL0     O70878   0.614   9.056   5.960  0.0830 -0.1708 -0.2136
  526MOL0     C70879   0.742   9.055   5.908 -0.3286  0.6243 -0.3409
  526MOL0     C70880   0.848   9.135   5.950 -1.0129 -0.4839  0.1274
  526MOL0     C70881   0.974   9.124   5.898 -0.1272  0.0188  0.7967
  526MOL0     C70882   0.997   9.023   5.802  0.2731  0.4639 -0.0823
  526MOL0     O70883   1.119   9.016   5.742  0.5003  0.3159 -0.0866
  526MOL0     C70884   1.173   8.882   5.724  0.4446 -0.2379 -0.0447
  526MOL0     C70885   1.321   8.882   5.779 -0.4303 -0.0815 -0.6497
  526MOL0     C70886   1.377   8.744   5.746  0.6094  0.1072 -0.0218
  526MOL0     C70887   1.525   8.750   5.784  0.2731  0.8938  0.7968
  526MOL0     C70888   1.575   8.615   5.817 -0.8485 -0.7194  0.0535
  526MOL0     C70889   1.736   8.625   5.822 -0.3963  0.0155 -0.7488
  526MOL0     C70890   1.788   8.496   5.901  0.5264 -0.3718  0.3972
  526MOL0     C70891   1.743   8.357   5.836  0.4521 -0.7427 -0.4349
  526MOL0     N70892   1.829   8.250   5.894 -0.6968  0.8538  0.6019
  526MOL0     C70893   1.812   8.182   6.010 -0.3840  0.3564  0.5997
  526MOL0     C70894   1.915   8.092   6.020  0.1686 -0.5706 -0.7443
  526MOL0     C70895   1.947   8.008   6.136  0.6880  0.1101 -0.2783
  526MOL0     C70896   1.884   7.867   6.136 -0.1436  0.8913  0.1575
  526MOL0     C70897   1.913   7.810   6.269 -0.2525  0.9992 -0.2120
  526MOL0     C70898   1.909   7.659   6.266  0.0965  0.6965 -0.6333
  526MOL0     O70899   1.929   7.605   6.397  0.6696  0.1291  0.3871
  526MOL0     C70900   1.828   7.578   6.495 -0.6244 -0.2911  0.2967
  526MOL0     C70901   1.698   7.600   6.476  0.6757  0.3168 -0.3175
  526MOL0     C70902   1.599   7.558   6.565 -0.1682 -0.1887 -0.4330
  526MOL0     C70903   1.461   7.576   6.511 -0.7855 -0.6316 -0.2953
  526MOL0     C70904   1.634   7.487   6.688  0.6673  0.1332 -0.1124
  526MOL0     C70905   1.540   7.441   6.786 -0.4811 -0.1828 -0.2382
  526MOL0     O70906   1.591   7.376   6.899  0.3057 -0.1682 -0.2069
  526MOL0     C70907   1.499   7.300   6.965  0.3015 -0.6943  0.2686
  526MOL0     C70908   1.383   7.344   7.023  0.4286  0.4893 -0.0780
  526MOL0     C70909   1.292   7.268   7.082  0.8144  0.0824 -0.2562
  526MOL0     C70910   1.312   7.127   7.078 -0.0290  0.0467 -0.6728
  526MOL0     O70911   1.215   7.029   7.109 -0.0496 -0.6829  0.3441
  526MOL0     C70912   1.102   7.057   7.190 -0.8488 -1.2543  0.6145
  526MOL0     C70913   1.105   6.962   7.305  0.3595 -0.0242 -1.1733
  526MOL0     C70914   1.106   6.816   7.260 -0.3505 -0.4141 -1.7941
  526MOL0     C70915   1.089   6.720   7.373  1.0646  0.0368  0.8994
  526MOL0     C70916   1.101   6.573   7.338 -1.2499 -0.0415 -0.0589
  526MOL0     C70917   1.040   6.495   7.459 -0.9476 -0.0469  0.8235
  526MOL0     C70918   1.013   6.356   7.419  0.6965  0.6535  0.1785
  526MOL0     C70919   0.967   6.274   7.541 -1.2647  0.2723  0.3230
  526MOL0    Cl70920   0.797   6.223   7.502 -0.0491 -0.1176 -0.2380
  526MOL0     C70921   1.430   7.071   7.024 -0.2632  0.1407 -0.1947
  526MOL0     C70922   1.520   7.161   6.964  0.6469  0.1151  0.2424
  526MOL0     O70923   1.423   7.442   6.751  0.3155  0.1185 -0.7514
  526MOL0     C70924   1.772   7.472   6.710 -0.3164 -0.6059 -0.1776
  526MOL0     C70925   1.862   7.514   6.609  0.1255  0.6376 -0.4735
  526MOL0     N70926   1.988   8.095   5.901 -0.2119 -0.4953  0.1992
  526MOL0     N70927   1.934   8.190   5.825  0.4739  0.0783 -0.1189
  526MOL0     C70928   0.893   8.931   5.768 -0.3566 -1.0673  0.1985
  526MOL0     C70929   0.767   8.957   5.817 -0.9886 -0.2284 -0.5239
  526MOL0     C70930   0.401   9.156   5.992  0.0052  0.0093  1.0950
  526MOL0     C70931   0.361   9.021   6.024 -0.8656 -0.0733  0.3179
  526MOL0     C70932   0.241   8.974   6.059  0.9116  0.0362  0.0407
  526MOL0     C70933   0.140   9.072   6.069 -0.3369 -0.1483  0.1234
  526MOL0     O70934   0.023   9.024   6.130 -0.0879  0.4932 -0.5997
  526MOL0     C70935  -0.085   9.114   6.152 -0.6113  0.3272 -0.1887
  526MOL0     C70936  -0.210   9.040   6.168 -0.4050 -0.5123  0.0565
  526MOL0     C70937  -0.338   9.124   6.167 -0.3156  0.0972 -0.4721
  526MOL0     C70938  -0.375   9.197   6.044  0.4165 -0.3405  0.6103
  526MOL0     C70939  -0.496   9.284   6.065  0.7825  0.2806 -0.2446
  526MOL0     C70940  -0.596   9.355   6.071  0.0478 -0.4055 -0.0226
  526MOL0     C70941   0.167   9.209   6.034  0.4353  0.1658  0.0384
  526MOL0     C70942   0.295   9.248   5.992 -0.3487  0.2547 -0.6830
  526MOL0     H70943   0.818   9.206   6.026 -2.5627  2.6462 -3.1184
  526MOL0     H70944   1.061   9.181   5.932 -0.1242  1.4623 -1.3979
  526MOL0     H70945   1.120   8.804   5.779 -1.5337  0.4134 -0.9209
  526MOL0     H70946   1.167   8.864   5.616 -3.0464  1.3952 -0.2552
  526MOL0     H70947   1.379   8.961   5.731  0.0317  0.1518  0.2717
  526MOL0     H70948   1.322   8.913   5.884 -0.2038 -0.1446 -0.6339
  526MOL0     H70949   1.331   8.661   5.800 -0.5391  1.5574  1.3032
  526MOL0     H70950   1.374   8.727   5.638  2.9992  0.2215 -0.1484
  526MOL0     H70951   1.579   8.792   5.698  2.4203  0.7506  2.0005
  526MOL0     H70952   1.536   8.820   5.867  0.5217  1.4386  0.3154
  526MOL0     H70953   1.537   8.571   5.910  1.0712  0.4597  1.4662
  526MOL0     H70954   1.553   8.549   5.733 -2.4278  0.6338 -0.6344
  526MOL0     H70955   1.788   8.621   5.726  1.8026  2.4872  0.2054
  526MOL0     H70956   1.767   8.723   5.861  0.1030  0.6136 -2.5710
  526MOL0     H70957   1.897   8.498   5.896  0.5046 -1.7435 -1.6241
  526MOL0     H70958   1.759   8.497   6.006  0.7016 -3.8867  0.5850
  526MOL0     H70959   1.761   8.353   5.729 -1.7231 -0.0425 -0.8649
  526MOL0     H70960   1.642   8.339   5.875  1.3106 -0.0147  2.4042
  526MOL0     H70961   1.733   8.204   6.081  0.9898  0.7763  2.0361
  526MOL0     H70962   2.053   7.980   6.139 -0.2583 -3.9313  0.2003
  526MOL0     H70963   1.917   8.067   6.223 -1.7411  0.5816 -1.3305
  526MOL0     H70964   1.911   7.797   6.057 -2.0586 -1.2537  1.2857
  526MOL0     H70965   1.777   7.888   6.136 -0.0531  1.3611  0.1168
  526MOL0     H70966   1.828   7.839   6.331 -1.1823  1.0534 -1.4785
  526MOL0     H70967   2.004   7.848   6.316  1.1050  0.3631 -2.1863
  526MOL0     H70968   1.996   7.609   6.223  1.6984 -1.4090  4.2998
  526MOL0     H70969   1.821   7.621   6.213  0.6086  2.3386 -2.7843
  526MOL0     H70970   1.676   7.652   6.383 -3.4228 -3.1826 -1.6565
  526MOL0     H70971   1.427   7.477   6.477  0.5757 -1.1741 -0.1447
  526MOL0     H70972   1.386   7.620   6.577 -2.4958  1.1419 -3.1871
  526MOL0     H70973   1.452   7.638   6.421 -2.3379  1.6048  1.3176
  526MOL0     H70974   1.379   7.451   7.035  1.3509  0.4556  0.7247
  526MOL0     H70975   1.206   7.317   7.127  2.1821  1.7641  0.6526
  526MOL0     H70976   1.105   7.156   7.236  0.1319 -0.0996 -1.7996
  526MOL0     H70977   1.009   7.061   7.132  0.2478  1.0043 -1.1342
  526MOL0     H70978   1.194   6.981   7.366 -1.5208 -1.1245  2.1185
  526MOL0     H70979   1.023   7.002   7.365 -0.6086  0.9020 -3.0180
  526MOL0     H70980   1.209   6.800   7.224  0.8136  0.9860  0.6668
  526MOL0     H70981   1.033   6.797   7.180 -1.3193 -2.5336 -0.5052
  526MOL0     H70982   1.171   6.743   7.442 -0.8602  2.2913  2.5921
  526MOL0     H70983   1.005   6.755   7.433  1.2541 -0.8549  1.7123
  526MOL0     H70984   1.200   6.529   7.326 -0.9626  0.2699  1.0159
  526MOL0     H70985   1.040   6.545   7.252 -2.6333 -0.6464  1.0822
  526MOL0     H70986   1.125   6.499   7.528  0.7376  0.6222 -1.2103
  526MOL0     H70987   0.948   6.540   7.496 -0.2971  1.4822  0.6592
  526MOL0     H70988   1.096   6.306   7.369  1.0306  1.9356 -0.5939
  526MOL0     H70989   0.929   6.347   7.349  1.6173  1.1824 -1.0200
  526MOL0     H70990   0.963   6.347   7.623  1.2975 -0.0111  0.7904
  526MOL0     H70991   1.027   6.187   7.568 -0.9431  0.1597 -0.7264
  526MOL0     H70992   1.436   6.963   7.017  0.0403  0.2759 -2.9078
  526MOL0     H70993   1.600   7.112   6.909 -0.8485 -3.3610  0.9170
  526MOL0     H70994   1.816   7.438   6.804 -0.2476 -1.4708 -0.5088
  526MOL0     H70995   1.967   7.500   6.630  0.2710 -0.8575 -1.9989
  526MOL0     H70996   0.918   8.850   5.701  0.0739 -1.3405  0.6755
  526MOL0     H70997   0.684   8.894   5.785 -2.7419  1.3420  0.7439
  526MOL0     H70998   0.432   8.940   6.016  0.3930  1.0394 -0.1927
  526MOL0     H70999   0.219   8.876   6.101 -1.5316  0.2749 -0.5193
  526MOL0     H71000  -0.073   9.190   6.230 -1.5362 -1.2437  1.5749
  526MOL0     H71001  -0.082   9.170   6.059  0.0957  4.3430  2.0320
  526MOL0     H71002  -0.201   8.985   6.262  1.0481 -0.7572 -0.2068
  526MOL0     H71003  -0.221   8.964   6.090  2.8967 -0.8192 -0.2373
  526MOL0     H71004  -0.330   9.206   6.240  1.4257 -0.8586  0.4961
  526MOL0     H71005  -0.420   9.060   6.200 -1.1178 -0.0213 -2.5395
  526MOL0     H71006  -0.393   9.126   5.963 -1.3846  2.3040 -1.4971
  526MOL0     H71007  -0.295   9.266   6.016  2.3275 -2.6074  0.1769
  526MOL0     H71008  -0.679   9.413   6.108  0.4575  0.1325  0.0758
  526MOL0     H71009   0.086   9.281   6.022  1.2243  1.0747  0.0650
  526MOL0     H71010   0.310   9.350   5.956  2.6725 -0.3385 -1.3762
  527MOL0     O71011   2.491   1.051   4.693  0.1016 -0.7403 -0.0402
  527MOL0     C71012   2.471   1.164   4.655 -0.1222  1.2468  0.3620
  527MOL0     O71013   2.373   1.247   4.702  0.4368 -0.4687  0.1759
  527MOL0     C71014   2.266   1.202   4.784  0.5808 -0.4092 -0.5689
  527MOL0     C71015   2.215   1.069   4.791  0.2785 -0.7482 -0.0379
  527MOL0     C71016   2.126   1.045   4.899 -0.3195  0.8171 -0.7620
  527MOL0     C71017   2.084   1.146   4.996  1.2973  0.7470 -0.3032
  527MOL0     O71018   1.993   1.121   5.104  0.0618  0.6242  0.3029
  527MOL0     C71019   1.934   0.991   5.129 -0.3856  0.3882  0.7586
  527MOL0     C71020   1.844   0.985   5.258  1.1629 -0.8789  0.5689
  527MOL0     C71021   1.701   1.037   5.217 -0.3244 -0.1738  0.0851
  527MOL0     C71022   1.609   1.056   5.346  0.2378  0.0552  0.3903
  527MOL0     C71023   1.459   1.044   5.316  0.3537 -0.3889 -0.1565
  527MOL0     C71024   1.404   1.081   5.445  0.2386 -0.9016  1.2917
  527MOL0     C71025   1.254   1.082   5.448 -0.6742  0.7482 -0.1559
  527MOL0     C71026   1.200   1.106   5.585 -0.2962  0.2927  0.4643
  527MOL0     N71027   1.070   1.050   5.600  0.9120 -0.0013 -0.5047
  527MOL0     C71028   0.966   1.067   5.504 -0.3452 -0.4077 -0.4134
  527MOL0     C71029   0.854   1.025   5.573 -0.1070 -0.2000 -1.0446
  527MOL0     C71030   0.713   1.032   5.529 -0.0824  0.7009  0.5743
  527MOL0     C71031   0.623   1.120   5.613 -0.7551  0.5270  0.2848
  527MOL0     C71032   0.566   1.041   5.737 -0.0638  0.0820 -0.2935
  527MOL0     C71033   0.440   0.965   5.693  0.2571  1.1707  0.7597
  527MOL0     O71034   0.476   0.845   5.630  0.0531  0.1752 -0.2677
  527MOL0     C71035   0.472   0.726   5.708 -0.2234 -0.2312  0.1458
  527MOL0     C71036   0.480   0.609   5.636  0.2777  0.7211 -0.3946
  527MOL0     C71037   0.500   0.483   5.698 -0.1838 -0.2122  0.2704
  527MOL0     C71038   0.549   0.376   5.606  0.4111  0.4008  0.7900
  527MOL0     C71039   0.495   0.473   5.839  0.3199 -0.5823 -0.3099
  527MOL0     C71040   0.511   0.349   5.908 -0.8566 -0.0352 -0.1775
  527MOL0     O71041   0.611   0.267   5.855 -0.6184 -0.5693  0.1072
  527MOL0     C71042   0.626   0.134   5.886 -0.0584  0.0927 -0.5035
  527MOL0     C71043   0.516   0.053   5.879  0.4779  0.1334  0.3662
  527MOL0     C71044   0.519  -0.090   5.885  0.3996  0.4672  0.5477
  527MOL0     C71045   0.636  -0.151   5.917  0.6294 -0.7146 -0.1705
  527MOL0     O71046   0.651  -0.286   5.939 -0.3403  0.0281  0.2442
  527MOL0     C71047   0.535  -0.372   5.905  0.1033  0.3024  0.8320
  527MOL0     C71048   0.558  -0.520   5.949  0.4444  0.7482 -0.0122
  527MOL0     C71049   0.600  -0.534   6.103  0.1419 -0.6272  0.4397
  527MOL0     C71050   0.496  -0.480   6.200 -0.4168  0.0609 -0.0071
  527MOL0     C71051   0.516  -0.548   6.340  0.0726 -0.3908 -0.0189
  527MOL0     C71052   0.416  -0.477   6.437  0.0283  0.1011  0.4515
  527MOL0     C71053   0.436  -0.331   6.472 -0.5259 -0.2990 -0.5082
  527MOL0     C71054   0.396  -0.296   6.612 -0.5540 -0.5027  0.3808
  527MOL0    Cl71055   0.519  -0.359   6.734  0.2124 -0.1713  0.3486
  527MOL0     C71056   0.748  -0.065   5.932 -0.8831 -0.3692 -0.2945
  527MOL0     C71057   0.744   0.074   5.910 -0.3946 -0.5069  0.0318
  527MOL0     O71058   0.460   0.319   6.015 -0.7497  0.1652 -0.5903
  527MOL0     C71059   0.467   0.602   5.908 -0.0807 -0.6608 -0.3297
  527MOL0     C71060   0.463   0.729   5.846 -1.1340  0.5540 -0.3978
  527MOL0     N71061   0.895   0.980   5.696  0.1863 -0.3460  1.1313
  527MOL0     N71062   1.019   1.000   5.712 -0.3476 -0.8540 -0.6655
  527MOL0     C71063   2.148   1.271   4.992  0.3120  0.1824  0.1337
  527MOL0     C71064   2.235   1.300   4.877  0.1347 -0.0705  0.1526
  527MOL0     C71065   2.551   1.212   4.545 -0.1825  0.3593 -0.3265
  527MOL0     C71066   2.519   1.340   4.487  0.1576 -0.2925 -0.4953
  527MOL0     C71067   2.582   1.371   4.365 -0.2534  0.2062 -0.9053
  527MOL0     C71068   2.679   1.292   4.305 -0.8936  0.1941 -0.4818
  527MOL0     O71069   2.749   1.303   4.187  0.0103 -1.0371  0.8084
  527MOL0     C71070   2.710   1.400   4.080 -0.5581 -0.1069  0.2995
  527MOL0     C71071   2.582   1.374   4.017 -0.0760  0.3460 -0.1688
  527MOL0     C71072   2.585   1.257   3.927 -1.0130 -0.9669 -0.0222
  527MOL0     C71073   2.504   1.261   3.805 -0.2091 -0.4427 -0.2874
  527MOL0     C71074   2.530   1.373   3.719  0.0831 -0.8386 -0.0757
  527MOL0     C71075   2.556   1.480   3.658  1.3037  0.7884  0.4596
  527MOL0     C71076   2.712   1.174   4.370  0.3054 -0.0976  0.6859
  527MOL0     C71077   2.643   1.136   4.488 -0.0214 -0.7066  0.4356
  527MOL0     H71078   2.230   0.993   4.715 -4.4778  0.4570 -2.5933
  527MOL0     H71079   2.066   0.955   4.909 -1.1963  1.4446 -0.0530
  527MOL0     H71080   1.887   0.960   5.035  1.5830 -1.1701  0.2037
  527MOL0     H71081   2.006   0.912   5.152 -2.0318 -0.9329  1.6845
  527MOL0     H71082   1.834   0.884   5.298  0.3355 -2.4199 -3.1217
  527MOL0     H71083   1.885   1.054   5.332 -1.9155 -0.8005  2.3491
  527MOL0     H71084   1.716   1.137   5.177 -2.3088 -0.1017 -0.5972
  527MOL0     H71085   1.655   0.973   5.141 -2.5984 -2.2097  2.9181
  527MOL0     H71086   1.632   0.983   5.424  0.2968 -0.6371 -0.2607
  527MOL0     H71087   1.617   1.156   5.388  1.3758 -0.8978  2.6016
  527MOL0     H71088   1.426   1.110   5.235 -1.9438 -1.2717 -0.0072
  527MOL0     H71089   1.431   0.940   5.299 -1.9135  0.2900 -1.0539
  527MOL0     H71090   1.439   1.005   5.516  2.2347 -1.0620  0.2165
  527MOL0     H71091   1.439   1.176   5.487  0.8390 -1.0947  1.2309
  527MOL0     H71092   1.209   1.157   5.382 -2.5776 -2.2310 -2.5848
  527MOL0     H71093   1.233   0.982   5.409  2.2626 -0.9746  2.2760
  527MOL0     H71094   1.194   1.215   5.596  1.5951  0.2738  2.4317
  527MOL0     H71095   1.263   1.065   5.664 -0.6398  2.2905  1.8417
  527MOL0     H71096   0.965   1.118   5.409 -0.4215  1.7018  0.6688
  527MOL0     H71097   0.704   1.067   5.425  0.7178  2.2547  0.9863
  527MOL0     H71098   0.665   0.934   5.523 -0.8084  1.0947 -0.3258
  527MOL0     H71099   0.530   1.154   5.566 -1.1443  0.1937  0.7898
  527MOL0     H71100   0.689   1.201   5.644 -1.9882  0.6980  2.6565
  527MOL0     H71101   0.529   1.113   5.811 -2.7354 -0.6611 -0.8180
  527MOL0     H71102   0.639   0.980   5.791 -1.8217 -0.7960  1.1755
  527MOL0     H71103   0.383   1.014   5.613 -0.0174 -0.1961  0.0785
  527MOL0     H71104   0.376   0.947   5.780  0.3489 -1.6756  0.3287
  527MOL0     H71105   0.481   0.613   5.528  1.2888  0.8042 -0.3857
  527MOL0     H71106   0.510   0.387   5.504 -0.2055 -2.4971  0.6084
  527MOL0     H71107   0.658   0.380   5.608  0.4212  0.6081  3.7231
  527MOL0     H71108   0.513   0.277   5.636 -1.6669  0.1099 -2.2158
  527MOL0     H71109   0.428   0.111   5.855  1.5951 -0.3743 -7.7354
  527MOL0     H71110   0.422  -0.136   5.871 -0.5373  1.6239  2.7067
  527MOL0     H71111   0.450  -0.345   5.969 -0.2668 -2.1202  1.4537
  527MOL0     H71112   0.509  -0.368   5.799 -3.2329  3.1068  1.5487
  527MOL0     H71113   0.469  -0.581   5.934  1.6106 -0.7600 -1.2138
  527MOL0     H71114   0.634  -0.567   5.886  0.8877  2.3473 -0.7193
  527MOL0     H71115   0.697  -0.493   6.130  1.3967 -0.1115 -3.9710
  527MOL0     H71116   0.616  -0.642   6.115  3.6524 -0.1737  0.8753
  527MOL0     H71117   0.493  -0.371   6.212 -2.1125  0.0965 -0.5400
  527MOL0     H71118   0.396  -0.503   6.163 -0.3898  0.6414 -0.4503
  527MOL0     H71119   0.617  -0.539   6.382 -0.1504  2.1243  0.1639
  527MOL0     H71120   0.502  -0.655   6.328  1.1605 -0.6249  0.6752
  527MOL0     H71121   0.312  -0.480   6.404  0.3403 -0.1259 -0.5813
  527MOL0     H71122   0.414  -0.546   6.522 -1.6173 -2.0896 -1.2207
  527MOL0     H71123   0.384  -0.256   6.410 -0.0392  0.7725  0.3409
  527MOL0     H71124   0.543  -0.309   6.461 -0.7508  0.7838 -0.6792
  527MOL0     H71125   0.297  -0.338   6.631 -0.5777 -0.4174  0.4466
  527MOL0     H71126   0.391  -0.187   6.624 -0.2946 -0.5823  1.2556
  527MOL0     H71127   0.848  -0.100   5.957 -0.5122  1.4033  0.9233
  527MOL0     H71128   0.835   0.132   5.909  0.0383 -1.1312 -1.8557
  527MOL0     H71129   0.456   0.607   6.016 -0.4398  1.2985 -0.4164
  527MOL0     H71130   0.455   0.820   5.904 -2.4869  1.0304 -1.2790
  527MOL0     H71131   2.117   1.357   5.050  1.5981  1.8508 -1.5183
  527MOL0     H71132   2.284   1.396   4.889 -1.2994  0.4383  2.9876
  527MOL0     H71133   2.438   1.393   4.534  1.6074  0.4560  1.2805
  527MOL0     H71134   2.548   1.462   4.315 -0.9482  1.8998  2.3415
  527MOL0     H71135   2.696   1.502   4.117 -3.8911 -1.3448  3.0363
  527MOL0     H71136   2.799   1.397   4.016  2.9421 -4.1878  4.5279
  527MOL0     H71137   2.547   1.459   3.957  0.1591 -0.3211 -1.2743
  527MOL0     H71138   2.514   1.357   4.102  1.2563 -0.4262  0.7757
  527MOL0     H71139   2.549   1.171   3.985 -1.3604 -2.0934 -1.8104
  527MOL0     H71140   2.687   1.224   3.909 -0.2929  0.3850  1.3745
  527MOL0     H71141   2.398   1.258   3.832 -0.2151  2.7581  0.4373
  527MOL0     H71142   2.537   1.161   3.773  4.0097  0.7707 -0.3651
  527MOL0     H71143   2.574   1.573   3.609  2.6373  0.8797  1.0873
  527MOL0     H71144   2.785   1.107   4.327  1.2177  1.2783  0.0095
  527MOL0     H71145   2.691   1.051   4.534  2.4679  0.7656  0.6933
  528MOL0     O71146   5.528   9.089   6.202  0.6841  0.0906 -0.0508
  528MOL0     C71147   5.419   9.120   6.148  1.1078 -0.7881 -0.5484
  528MOL0     O71148   5.301   9.050   6.162 -0.1297  0.3990 -0.1643
  528MOL0     C71149   5.303   8.930   6.233  0.3199 -0.5131  0.7829
  528MOL0     C71150   5.405   8.834   6.217  0.4492  0.2811  0.5110
  528MOL0     C71151   5.394   8.721   6.304 -0.0203  0.0708  0.1084
  528MOL0     C71152   5.291   8.706   6.395  0.6063 -0.1105 -0.1391
  528MOL0     O71153   5.279   8.598   6.480 -0.9467 -0.3489  0.1623
  528MOL0     C71154   5.393   8.506   6.490  0.5137  0.5317  1.5674
  528MOL0     C71155   5.379   8.393   6.601  0.3571 -0.4562 -0.3044
  528MOL0     C71156   5.410   8.426   6.753 -0.8674 -0.2198  0.1566
  528MOL0     C71157   5.393   8.295   6.835  0.5959  0.3059  0.8343
  528MOL0     C71158   5.458   8.302   6.973 -0.0722 -0.1938  0.7648
  528MOL0     C71159   5.604   8.270   6.979 -0.5479 -0.3025  0.1383
  528MOL0     C71160   5.680   8.301   7.109 -0.2055  0.5656 -1.3778
  528MOL0     C71161   5.706   8.449   7.114 -0.3967 -1.1480  0.4355
  528MOL0     N71162   5.827   8.467   7.199 -0.6090  0.7290  0.6496
  528MOL0     C71163   5.956   8.511   7.161  0.1772  0.6642 -0.7975
  528MOL0     C71164   6.028   8.522   7.276  0.4079 -0.3198 -0.7480
  528MOL0     C71165   6.180   8.513   7.283  0.6545  0.3192  0.3283
  528MOL0     C71166   6.249   8.644   7.330 -0.4925 -0.3528  1.2808
  528MOL0     C71167   6.406   8.629   7.337  0.3761 -0.6386  0.3174
  528MOL0     C71168   6.481   8.637   7.201  0.2086  0.9556 -0.3335
  528MOL0     O71169   6.437   8.555   7.094  0.6851  0.4675 -0.1868
  528MOL0     C71170   6.497   8.581   6.976 -0.4519 -0.1763 -0.5498
  528MOL0     C71171   6.609   8.511   6.941 -1.1813  0.0430 -0.1348
  528MOL0     C71172   6.684   8.523   6.821  0.3672  0.8307 -0.0023
  528MOL0     C71173   6.821   8.465   6.804  1.0951  0.0291 -0.3033
  528MOL0     C71174   6.629   8.615   6.724  0.6942 -0.0401 -0.4481
  528MOL0     C71175   6.695   8.635   6.595 -0.6840 -0.5104 -0.1848
  528MOL0     O71176   6.636   8.577   6.484  0.2477  0.5426 -0.3221
  528MOL0     C71177   6.655   8.614   6.347 -0.3396  0.3509  0.0692
  528MOL0     C71178   6.714   8.728   6.298 -0.7280  0.0598  0.9841
  528MOL0     C71179   6.727   8.762   6.161 -0.3974  0.0431 -1.5869
  528MOL0     C71180   6.668   8.672   6.066  0.1040  0.2246 -0.6344
  528MOL0     O71181   6.670   8.696   5.931  0.5601  0.6429  0.3386
  528MOL0     C71182   6.701   8.584   5.849  0.2010  0.5698 -0.5118
  528MOL0     C71183   6.690   8.608   5.699  0.3012  0.0597  0.1476
  528MOL0     C71184   6.802   8.709   5.661 -0.5108 -0.4180 -0.1003
  528MOL0     C71185   6.936   8.642   5.620  0.2691 -0.4122  0.0545
  528MOL0     C71186   7.043   8.663   5.727 -0.7372  0.2776 -0.7821
  528MOL0     C71187   7.177   8.630   5.662  0.1870 -0.6295 -0.2040
  528MOL0     C71188   7.261   8.752   5.648 -0.3936 -0.4190  0.1059
  528MOL0     C71189   7.400   8.724   5.598  0.2052  0.2427 -0.9209
  528MOL0    Cl71190   7.480   8.882   5.572  0.3799  0.0203 -0.5513
  528MOL0     C71191   6.598   8.562   6.120  0.6870 -0.8909  0.2341
  528MOL0     C71192   6.599   8.533   6.252  0.1095  0.0244  0.7288
  528MOL0     O71193   6.800   8.696   6.598  0.0859 -0.9053  0.1160
  528MOL0     C71194   6.511   8.685   6.761 -0.2063 -0.9172  0.3470
  528MOL0     C71195   6.438   8.662   6.885 -0.9386  0.0375 -0.4523
  528MOL0     N71196   5.949   8.478   7.380  0.4027  0.2895 -0.0499
  528MOL0     N71197   5.832   8.445   7.338  0.8376 -0.4467  0.1862
  528MOL0     C71198   5.196   8.805   6.402 -0.0011 -0.7989 -0.2956
  528MOL0     C71199   5.204   8.922   6.326  0.5398  0.5503  0.1767
  528MOL0     C71200   5.410   9.241   6.062  0.8213  0.6568 -0.2960
  528MOL0     C71201   5.516   9.313   6.014 -0.1874  0.0530 -0.2618
  528MOL0     C71202   5.490   9.422   5.926 -0.1108  0.4036  1.2698
  528MOL0     C71203   5.368   9.467   5.893  0.1389 -0.4517  0.3459
  528MOL0     O71204   5.364   9.565   5.798 -0.6843 -0.1152 -0.4272
  528MOL0     C71205   5.247   9.632   5.761  0.3987 -0.7211  0.8928
  528MOL0     C71206   5.174   9.554   5.649  0.7998 -0.6183 -0.5320
  528MOL0     C71207   5.251   9.535   5.516 -0.5339 -0.5282  0.3400
  528MOL0     C71208   5.323   9.658   5.472 -0.8390 -0.7238  0.0957
  528MOL0     C71209   5.365   9.636   5.327  0.4680  0.0040 -0.9507
  528MOL0     C71210   5.395   9.617   5.211 -0.3847  0.2793  0.2278
  528MOL0     C71211   5.254   9.399   5.952  0.1896 -0.0450  0.0399
  528MOL0     C71212   5.282   9.298   6.035  0.2818  0.5638  0.8835
  528MOL0     H71213   5.486   8.834   6.144  0.8406 -2.0050  0.8788
  528MOL0     H71214   5.466   8.641   6.292 -3.4588 -3.1639 -0.5505
  528MOL0     H71215   5.397   8.461   6.391 -1.7035  1.9142  0.7793
  528MOL0     H71216   5.483   8.559   6.521  0.4481  2.4708 -1.2267
  528MOL0     H71217   5.282   8.342   6.597  0.5404 -1.2492  2.8274
  528MOL0     H71218   5.454   8.315   6.582 -2.7452 -3.3084 -1.7806
  528MOL0     H71219   5.513   8.461   6.759 -0.9850 -0.0015  1.1951
  528MOL0     H71220   5.353   8.507   6.800  1.1811  0.3157  1.8942
  528MOL0     H71221   5.287   8.274   6.848  1.3654 -2.3080  4.3942
  528MOL0     H71222   5.438   8.204   6.795 -0.3062 -1.6114  3.8739
  528MOL0     H71223   5.439   8.400   7.019 -3.6195  0.5670 -1.9146
  528MOL0     H71224   5.402   8.225   7.027 -1.7604  2.1510  2.5824
  528MOL0     H71225   5.609   8.164   6.953 -4.0470  0.1212 -3.1849
  528MOL0     H71226   5.661   8.323   6.903  0.8628  1.3955  2.2776
  528MOL0     H71227   5.616   8.264   7.189 -0.6645 -0.4908 -2.2048
  528MOL0     H71228   5.776   8.250   7.100 -0.3762 -0.6441  2.1728
  528MOL0     H71229   5.627   8.506   7.162 -1.4838  0.2893 -2.8083
  528MOL0     H71230   5.728   8.493   7.016  0.6068 -0.8549  0.7812
  528MOL0     H71231   6.004   8.485   7.067 -0.2901 -1.2875 -0.5384
  528MOL0     H71232   6.207   8.441   7.361 -2.5409  0.2049  1.5016
  528MOL0     H71233   6.215   8.486   7.183 -1.3174 -2.0115  0.1911
  528MOL0     H71234   6.207   8.670   7.428  0.2295  0.7827  1.2970
  528MOL0     H71235   6.225   8.723   7.259  2.8825  0.7639  1.2324
  528MOL0     H71236   6.440   8.539   7.390  2.9810  0.5264  0.8116
  528MOL0     H71237   6.440   8.708   7.405  0.1328 -1.7395  1.7870
  528MOL0     H71238   6.584   8.606   7.221 -0.0503  0.0767 -0.2879
  528MOL0     H71239   6.495   8.742   7.173  0.6195  0.9822 -0.0327
  528MOL0     H71240   6.634   8.436   7.016 -3.7367 -0.7245  0.0428
  528MOL0     H71241   6.836   8.413   6.899 -3.4239  0.8666  1.1040
  528MOL0     H71242   6.816   8.381   6.733  3.3562 -1.8688  1.5968
  528MOL0     H71243   6.899   8.537   6.780  0.0635  0.6153 -2.0839
  528MOL0     H71244   6.774   8.798   6.355  1.8531  2.1588 -3.7772
  528MOL0     H71245   6.780   8.853   6.134 -2.5117  2.1168  0.6692
  528MOL0     H71246   6.802   8.548   5.872  0.0417  2.0091  3.2022
  528MOL0     H71247   6.636   8.497   5.859  1.3743 -0.2617 -0.0039
  528MOL0     H71248   6.700   8.520   5.635 -0.0922 -1.5921  2.2469
  528MOL0     H71249   6.592   8.655   5.680  0.6553  1.0638  0.7150
  528MOL0     H71250   6.831   8.775   5.743  1.9012 -1.2812 -0.1728
  528MOL0     H71251   6.781   8.773   5.575 -3.3551  2.8723  2.7462
  528MOL0     H71252   6.914   8.536   5.602  0.9789 -1.0880  2.7264
  528MOL0     H71253   6.962   8.680   5.521 -1.8446  1.2029  0.0540
  528MOL0     H71254   7.030   8.598   5.814  2.5580 -1.7155 -1.5815
  528MOL0     H71255   7.043   8.769   5.754  1.2193 -0.4360  2.5524
  528MOL0     H71256   7.239   8.557   5.716  0.5745 -0.6015 -0.6075
  528MOL0     H71257   7.169   8.574   5.568  2.8919 -0.5639 -0.5382
  528MOL0     H71258   7.281   8.788   5.750 -3.4758 -0.0007  0.6661
  528MOL0     H71259   7.214   8.828   5.585  2.2823 -0.8411 -2.6249
  528MOL0     H71260   7.361   8.673   5.510 -1.6534  1.7753 -1.0461
  528MOL0     H71261   7.454   8.649   5.656 -1.3347 -2.8538 -3.2277
  528MOL0     H71262   6.544   8.498   6.050  1.6815 -2.5235  0.8978
  528MOL0     H71263   6.545   8.444   6.282  3.3671 -3.4494 -2.5681
  528MOL0     H71264   6.480   8.763   6.693  3.5546  3.2661  2.8315
  528MOL0     H71265   6.347   8.702   6.929  0.8683  1.4241  2.3717
  528MOL0     H71266   5.113   8.799   6.472 -0.5233  2.9827 -0.3606
  528MOL0     H71267   5.121   8.992   6.327 -1.1425 -1.3014 -0.6282
  528MOL0     H71268   5.615   9.271   6.031 -0.5922 -0.6521  0.4309
  528MOL0     H71269   5.580   9.463   5.881 -0.2518  0.5441  1.1140
  528MOL0     H71270   5.182   9.649   5.846 -1.4870 -0.8081 -0.4739
  528MOL0     H71271   5.275   9.728   5.718 -1.0099 -1.5210 -2.1037
  528MOL0     H71272   5.088   9.620   5.634  0.6882  0.1075  2.7155
  528MOL0     H71273   5.126   9.461   5.683  0.3002 -0.2357 -0.1890
  528MOL0     H71274   5.178   9.514   5.437  0.0087 -1.2941  0.0246
  528MOL0     H71275   5.312   9.445   5.523 -1.1369 -1.3763 -3.3029
  528MOL0     H71276   5.419   9.673   5.522 -0.8734 -0.7053  0.1560
  528MOL0     H71277   5.261   9.748   5.476  0.3514  0.1367 -0.3101
  528MOL0     H71278   5.400   9.622   5.104 -1.9593  1.3352  0.1772
  528MOL0     H71279   5.150   9.430   5.947 -0.1176 -0.7816  1.3119
  528MOL0     H71280   5.197   9.239   6.067 -1.7390  1.4762 -2.3042
  529MOL0     O71281   2.010  11.470   7.702 -0.1638  0.2593  0.2649
  529MOL0     C71282   2.109  11.408   7.735 -0.1695  0.0615  0.1412
  529MOL0     O71283   2.128  11.279   7.695 -0.4711  0.7458 -0.3071
  529MOL0     C71284   2.052  11.214   7.597  0.3712  0.4722  0.2864
  529MOL0     C71285   2.005  11.081   7.623  0.6793  0.1161 -0.7339
  529MOL0     C71286   1.919  11.015   7.530 -0.5158 -0.2593  0.1538
  529MOL0     C71287   1.904  11.064   7.400 -0.0401  0.1517 -0.5498
  529MOL0     O71288   1.846  10.977   7.306 -0.2184 -0.3324  0.7287
  529MOL0     C71289   1.829  11.008   7.159  0.7600  0.3674  0.6665
  529MOL0     C71290   1.678  11.029   7.124 -0.6177  0.2973 -0.1852
  529MOL0     C71291   1.624  11.148   7.193 -0.1078 -1.3447 -0.1810
  529MOL0     C71292   1.496  11.109   7.278  0.0855  0.0948 -0.0656
  529MOL0     C71293   1.479  11.222   7.388 -0.5351  0.0869  0.3984
  529MOL0     C71294   1.567  11.195   7.509 -0.3526  0.3094 -0.5739
  529MOL0     C71295   1.536  11.292   7.627  0.3326  0.1614 -0.1020
  529MOL0     C71296   1.655  11.280   7.727 -0.1153 -0.1116 -0.4918
  529MOL0     N71297   1.636  11.363   7.852  0.6653 -0.5445  0.0655
  529MOL0     C71298   1.729  11.457   7.893 -0.2330 -0.2413 -0.6026
  529MOL0     C71299   1.694  11.504   8.020 -0.0678  0.4610  0.1272
  529MOL0     C71300   1.763  11.607   8.115  0.1371  0.4791  0.1937
  529MOL0     C71301   1.718  11.583   8.265 -0.6903 -0.0533 -0.1309
  529MOL0     C71302   1.745  11.440   8.311  0.7810  0.8170  0.0866
  529MOL0     C71303   1.711  11.417   8.452 -0.7286 -0.3643  0.4118
  529MOL0     O71304   1.809  11.497   8.529 -0.9434  0.8363 -0.1656
  529MOL0     C71305   1.807  11.499   8.667 -0.3698 -0.3334  0.0052
  529MOL0     C71306   1.693  11.479   8.740 -0.4891  0.2925 -0.4926
  529MOL0     C71307   1.694  11.501   8.882 -0.3579  0.4001 -0.3850
  529MOL0     C71308   1.554  11.505   8.948 -0.0763 -0.5960  0.2597
  529MOL0     C71309   1.815  11.521   8.954  0.6902 -0.2997  0.3450
  529MOL0     C71310   1.839  11.530   9.100 -0.7044 -0.7411  1.0649
  529MOL0     O71311   1.743  11.578   9.184  0.5169  0.3369  0.1555
  529MOL0     C71312   1.759  11.550   9.319  0.7850 -0.5907 -0.0882
  529MOL0     C71313   1.858  11.611   9.388  0.0912  0.4222 -0.0133
  529MOL0     C71314   1.863  11.584   9.526  0.6470 -0.0036 -0.0508
  529MOL0     C71315   1.781  11.496   9.592 -1.2883  0.8443 -0.2624
  529MOL0     O71316   1.794  11.453   9.726 -0.1727 -0.6329 -0.0367
  529MOL0     C71317   1.926  11.472   9.791  0.3945 -0.0281  0.2728
  529MOL0     C71318   1.960  11.330   9.855  0.5365  0.3535 -0.6147
  529MOL0     C71319   2.076  11.332   9.957  0.3864 -0.0240  0.2269
  529MOL0     C71320   2.210  11.392   9.893  0.2260  0.5592  1.3724
  529MOL0     C71321   2.328  11.382   9.997 -0.4652  1.0279 -0.1871
  529MOL0     C71322   2.372  11.241  10.016 -0.5256 -0.9733  0.1988
  529MOL0     C71323   2.476  11.224  10.130  0.1791  0.6717 -0.6330
  529MOL0     C71324   2.513  11.071  10.144 -0.0790  0.1746  0.1391
  529MOL0    Cl71325   2.601  11.005  10.013  0.3295 -0.3974 -0.2705
  529MOL0     C71326   1.687  11.426   9.515  1.2168 -0.1571  0.2056
  529MOL0     C71327   1.678  11.460   9.380 -0.9547  0.5283  0.3040
  529MOL0     O71328   1.949  11.489   9.128 -0.4713 -0.1701  0.3827
  529MOL0     C71329   1.932  11.535   8.872 -0.1398  0.3867 -0.1889
  529MOL0     C71330   1.925  11.522   8.734 -0.5070 -0.7903  0.0023
  529MOL0     N71331   1.574  11.430   8.044  0.0477 -0.4974 -0.3680
  529MOL0     N71332   1.538  11.346   7.944 -0.9979  0.0687  0.0276
  529MOL0     C71333   1.948  11.200   7.375  0.4446  0.5755  0.2723
  529MOL0     C71334   2.019  11.272   7.475 -0.4383 -0.0779  0.3292
  529MOL0     C71335   2.225  11.472   7.809 -0.6850  0.0292 -0.1225
  529MOL0     C71336   2.270  11.609   7.793 -0.4948 -0.3439  0.0337
  529MOL0     C71337   2.369  11.671   7.868  0.1062  0.1706  0.6909
  529MOL0     C71338   2.444  11.601   7.956  0.9201 -0.0384 -0.1492
  529MOL0     O71339   2.538  11.669   8.024  0.4638 -0.2787  0.9798
  529MOL0     C71340   2.667  11.618   8.047  0.0217 -0.9844  0.2885
  529MOL0     C71341   2.695  11.583   8.191  0.3098  0.0654 -0.1539
  529MOL0     C71342   2.673  11.710   8.278 -0.0991  0.6423 -0.7777
  529MOL0     C71343   2.751  11.709   8.414 -0.7790 -0.3858  0.0178
  529MOL0     C71344   2.705  11.602   8.503 -0.6279  0.2640  0.2226
  529MOL0     C71345   2.680  11.505   8.572  0.5116 -0.7909  1.4555
  529MOL0     C71346   2.422  11.461   7.966  0.0521  0.5397  0.7351
  529MOL0     C71347   2.317  11.398   7.895  0.3102 -0.7306  0.7872
  529MOL0     H71348   2.037  11.048   7.721 -1.2086  0.9112  0.1883
  529MOL0     H71349   1.886  10.916   7.557 -0.8219 -0.1749  0.0953
  529MOL0     H71350   1.878  11.104   7.142 -0.4043  0.5155 -2.6816
  529MOL0     H71351   1.873  10.936   7.090  1.8541  1.8953 -0.2751
  529MOL0     H71352   1.663  11.029   7.015 -2.9080 -0.1849  0.0766
  529MOL0     H71353   1.615  10.947   7.159 -2.2120  0.4588 -2.4156
  529MOL0     H71354   1.697  11.206   7.250 -2.0452  2.1576 -0.9742
  529MOL0     H71355   1.588  11.215   7.115  0.3991 -1.8107 -0.8275
  529MOL0     H71356   1.402  11.115   7.223  0.1403 -2.1642 -0.4971
  529MOL0     H71357   1.495  11.017   7.337 -1.8376  0.0163 -0.1597
  529MOL0     H71358   1.512  11.320   7.351  0.7918 -0.3668  0.3261
  529MOL0     H71359   1.378  11.230   7.428  1.0106  1.2119  4.5977
  529MOL0     H71360   1.547  11.098   7.556  1.4322 -0.8011 -1.9501
  529MOL0     H71361   1.674  11.208   7.489  0.2697  0.7273  2.4384
  529MOL0     H71362   1.533  11.397   7.595 -3.3429  0.6776  1.4716
  529MOL0     H71363   1.434  11.271   7.661 -0.3117  2.4576 -0.4490
  529MOL0     H71364   1.749  11.310   7.679 -0.4052  0.0666 -0.9495
  529MOL0     H71365   1.666  11.175   7.756 -1.2576 -0.4606 -1.2552
  529MOL0     H71366   1.824  11.477   7.846  2.0858 -1.5272  3.1036
  529MOL0     H71367   1.871  11.598   8.105 -0.0654  0.4438 -3.7544
  529MOL0     H71368   1.724  11.703   8.080  0.2202 -0.1979 -1.9423
  529MOL0     H71369   1.614  11.614   8.272 -0.0464  3.1137 -2.4361
  529MOL0     H71370   1.764  11.660   8.328 -2.1667  2.3271 -1.8000
  529MOL0     H71371   1.849  11.408   8.302  0.7001  0.4905  0.2858
  529MOL0     H71372   1.686  11.366   8.255  1.6440 -1.5750  2.1620
  529MOL0     H71373   1.721  11.308   8.460 -1.0631 -0.5944 -1.7069
  529MOL0     H71374   1.606  11.434   8.476 -1.4988 -3.7367  0.0300
  529MOL0     H71375   1.602  11.448   8.691 -0.5471 -2.3816  1.1215
  529MOL0     H71376   1.543  11.611   8.971  0.8157 -0.7990  1.7583
  529MOL0     H71377   1.471  11.462   8.892 -0.4199  1.1915 -0.6721
  529MOL0     H71378   1.553  11.456   9.046  1.5591 -0.9254  0.1460
  529MOL0     H71379   1.942  11.667   9.347  1.2896 -0.2380  1.4584
  529MOL0     H71380   1.950  11.636   9.564  1.9937 -0.6591 -2.1310
  529MOL0     H71381   1.992  11.494   9.706 -1.9059  2.6449 -0.9891
  529MOL0     H71382   1.924  11.557   9.860  0.8489  1.2352 -1.2104
  529MOL0     H71383   1.868  11.281   9.888  1.4136 -0.8062  0.2022
  529MOL0     H71384   2.001  11.272   9.772  2.7475  0.5575  0.2799
  529MOL0     H71385   2.079  11.229   9.993  1.9885  0.7258  2.4739
  529MOL0     H71386   2.061  11.395  10.045  0.8757  1.7208 -0.8720
  529MOL0     H71387   2.224  11.348   9.794 -0.9252  1.6585  0.6884
  529MOL0     H71388   2.194  11.499   9.881  1.7143  0.9035  2.2137
  529MOL0     H71389   2.298  11.419  10.095  2.0252 -1.5333  1.6814
  529MOL0     H71390   2.409  11.448   9.965 -0.0869  0.2884 -0.8000
  529MOL0     H71391   2.294  11.168  10.039 -2.9074  0.8368 -1.6284
  529MOL0     H71392   2.409  11.210   9.918 -2.9465 -0.6699 -0.8829
  529MOL0     H71393   2.440  11.261  10.227 -0.2689 -2.8194  0.6861
  529MOL0     H71394   2.565  11.283  10.106  0.1447 -0.1869 -3.1899
  529MOL0     H71395   2.430  11.001  10.159  1.1806 -0.9469  2.4275
  529MOL0     H71396   2.557  11.049  10.242 -4.8843  1.3301  2.8904
  529MOL0     H71397   1.619  11.353   9.556 -1.3720  2.9775  1.9305
  529MOL0     H71398   1.609  11.399   9.323  0.1922 -4.1451  3.4369
  529MOL0     H71399   2.031  11.544   8.915  0.0207 -0.8588 -0.2685
  529MOL0     H71400   2.013  11.531   8.672 -1.5160 -1.1224 -1.5139
  529MOL0     H71401   1.914  11.261   7.291 -1.2670 -1.0910 -0.3324
  529MOL0     H71402   2.039  11.377   7.461 -0.6399 -0.1725 -0.7683
  529MOL0     H71403   2.207  11.679   7.739 -0.7795  2.5617  3.7511
  529MOL0     H71404   2.387  11.777   7.850  2.8213 -0.2637  0.4421
  529MOL0     H71405   2.681  11.527   7.988 -1.9394 -0.3011 -1.3601
  529MOL0     H71406   2.739  11.688   8.004 -1.5533  0.2627 -0.4309
  529MOL0     H71407   2.800  11.553   8.185  0.3701  0.2024  0.2348
  529MOL0     H71408   2.638  11.502   8.238  0.9723  0.2731  1.0343
  529MOL0     H71409   2.565  11.717   8.293 -0.0228  2.1239 -0.7936
  529MOL0     H71410   2.717  11.787   8.214 -2.1201 -1.8526 -5.7130
  529MOL0     H71411   2.739  11.807   8.460 -0.8852 -0.6240  0.4982
  529MOL0     H71412   2.856  11.680   8.397 -1.1042 -0.1430 -3.1214
  529MOL0     H71413   2.662  11.423   8.639 -1.3320 -1.4484  0.2559
  529MOL0     H71414   2.482  11.408   8.039 -0.1091  2.9397  2.7428
  529MOL0     H71415   2.289  11.294   7.901 -0.2388 -0.6570 -0.1430
  530MOL0     O71416   6.178   6.893   2.896 -0.5205  0.6583 -0.8745
  530MOL0     C71417   6.166   6.953   3.002 -0.1466 -0.6004 -0.7285
  530MOL0     O71418   6.069   6.927   3.093  0.3958 -1.0409  0.1381
  530MOL0     C71419   5.984   6.819   3.064  0.9648 -1.3121 -0.7567
  530MOL0     C71420   5.852   6.837   3.023  0.2697 -0.4682  0.0622
  530MOL0     C71421   5.765   6.733   3.026 -0.3720 -1.2706 -0.3137
  530MOL0     C71422   5.805   6.609   3.069  0.1700 -0.1039 -1.1647
  530MOL0     O71423   5.706   6.507   3.078 -0.3056  0.1239 -0.7199
  530MOL0     C71424   5.630   6.512   3.199  0.5107 -1.1099 -0.0397
  530MOL0     C71425   5.580   6.379   3.256  0.9645  0.4996  0.6923
  530MOL0     C71426   5.484   6.302   3.157  0.5096  0.5310  0.5475
  530MOL0     C71427   5.372   6.219   3.222  0.2100 -0.1043 -0.6136
  530MOL0     C71428   5.273   6.160   3.113 -0.4622  0.2536  0.0792
  530MOL0     C71429   5.345   6.043   3.055 -0.4056 -0.4204 -0.6280
  530MOL0     C71430   5.263   5.959   2.958  0.5443  0.0356 -0.4596
  530MOL0     C71431   5.120   5.912   3.008 -1.1449 -0.7832  0.1743
  530MOL0     N71432   5.065   5.808   2.914  0.3507  0.2449 -0.8274
  530MOL0     C71433   5.086   5.669   2.935  0.4957 -0.2417 -0.7362
  530MOL0     C71434   5.025   5.615   2.825  0.1852 -0.0513  0.2630
  530MOL0     C71435   5.002   5.467   2.785  0.1982 -0.1897  0.2060
  530MOL0     C71436   5.053   5.360   2.879  0.3200 -0.3385 -1.0814
  530MOL0     C71437   5.067   5.218   2.829  0.1232 -0.8817 -0.4932
  530MOL0     C71438   4.923   5.158   2.793  0.3324 -1.0882 -0.7952
  530MOL0     O71439   4.920   5.018   2.770 -0.4935 -0.4602  0.1594
  530MOL0     C71440   4.962   4.962   2.645 -0.0524 -0.7159  0.1468
  530MOL0     C71441   4.974   4.826   2.631 -0.0248  0.6222  0.6963
  530MOL0     C71442   5.024   4.759   2.516  0.4005 -0.4460  0.7966
  530MOL0     C71443   5.044   4.611   2.518  1.0101  0.9890 -0.3791
  530MOL0     C71444   5.055   4.839   2.399  0.4045 -0.3739 -0.4038
  530MOL0     C71445   5.100   4.770   2.269  0.5263  0.7124 -0.5737
  530MOL0     O71446   5.232   4.746   2.236  0.1074  0.7111 -0.7105
  530MOL0     C71447   5.315   4.709   2.339 -0.7533 -0.5005 -0.1358
  530MOL0     C71448   5.344   4.568   2.358  0.3002 -0.5748 -0.1723
  530MOL0     C71449   5.450   4.532   2.444  0.1735 -1.2497  0.4464
  530MOL0     C71450   5.519   4.634   2.517 -1.5632  0.4235 -0.0107
  530MOL0     O71451   5.616   4.614   2.611 -0.3739 -0.1247  0.3093
  530MOL0     C71452   5.693   4.486   2.600  0.2486 -0.1255 -0.2746
  530MOL0     C71453   5.844   4.518   2.638 -0.0765  0.1699 -0.4789
  530MOL0     C71454   5.918   4.386   2.671 -1.1036 -0.0202  0.1938
  530MOL0     C71455   5.971   4.360   2.806  0.1369 -0.4229 -0.3692
  530MOL0     C71456   6.060   4.233   2.817 -0.0017 -0.4120  0.0553
  530MOL0     C71457   6.184   4.240   2.734 -0.0098 -0.4864 -0.0929
  530MOL0     C71458   6.272   4.111   2.759  0.7297  0.3441  0.1112
  530MOL0     C71459   6.411   4.115   2.689  0.4600 -0.1020  0.2349
  530MOL0    Cl71460   6.505   3.988   2.767 -0.1761 -0.4984 -0.1108
  530MOL0     C71461   5.475   4.764   2.518 -0.6687 -0.0887 -0.5276
  530MOL0     C71462   5.383   4.802   2.422 -0.3294 -0.0378  0.5081
  530MOL0     O71463   5.002   4.750   2.199  0.0383 -0.5113  0.1054
  530MOL0     C71464   5.036   4.978   2.412  0.2910 -0.6788  0.6766
  530MOL0     C71465   4.988   5.046   2.524  0.6744  0.1582 -1.2416
  530MOL0     N71466   4.985   5.712   2.736 -0.8886 -0.8061 -0.2180
  530MOL0     N71467   4.998   5.830   2.792 -0.1659 -0.6899 -0.2394
  530MOL0     C71468   5.936   6.590   3.127 -0.1102 -0.3163 -0.7433
  530MOL0     C71469   6.024   6.702   3.122 -0.2745  0.7750  0.1056
  530MOL0     C71470   6.272   7.055   3.035  0.5618 -0.6759 -0.2075
  530MOL0     C71471   6.281   7.116   3.153 -0.1822 -0.2115 -0.6571
  530MOL0     C71472   6.392   7.195   3.180  0.4741 -0.6803 -1.2345
  530MOL0     C71473   6.494   7.216   3.093 -0.6599 -0.2569  0.3329
  530MOL0     O71474   6.608   7.296   3.113  0.5442 -0.9212 -0.5768
  530MOL0     C71475   6.729   7.231   3.138 -0.3570 -0.6554 -0.5778
  530MOL0     C71476   6.749   7.249   3.287 -0.3718 -0.2036 -0.1063
  530MOL0     C71477   6.838   7.369   3.325  0.2478  0.2667  0.3069
  530MOL0     C71478   6.864   7.363   3.476 -0.6513  0.0800 -0.2874
  530MOL0     C71479   6.947   7.477   3.518 -0.7897  0.7444  0.7223
  530MOL0     C71480   7.018   7.573   3.559  1.1327 -0.1047 -0.6043
  530MOL0     C71481   6.481   7.163   2.964  0.7952 -0.2198 -0.2175
  530MOL0     C71482   6.370   7.084   2.934 -0.4259  0.9571  0.1211
  530MOL0     H71483   5.819   6.937   2.998  0.8179 -0.5045 -0.8338
  530MOL0     H71484   5.666   6.734   2.981 -0.5663  0.6805  0.0851
  530MOL0     H71485   5.676   6.574   3.276  0.3316 -0.1535 -0.6784
  530MOL0     H71486   5.540   6.572   3.178 -0.1046 -1.7618  0.6687
  530MOL0     H71487   5.672   6.325   3.282  0.9560  0.5834  0.8902
  530MOL0     H71488   5.528   6.410   3.346 -2.1313 -0.1874 -0.7292
  530MOL0     H71489   5.452   6.373   3.080  1.3587 -0.8173 -1.1028
  530MOL0     H71490   5.542   6.230   3.099  1.6220  0.8745  1.1999
  530MOL0     H71491   5.407   6.149   3.298 -1.0312  1.8406  1.8714
  530MOL0     H71492   5.320   6.302   3.270  1.0679  2.6921 -4.0213
  530MOL0     H71493   5.183   6.130   3.167 -0.8622 -0.3700 -0.9223
  530MOL0     H71494   5.250   6.236   3.039  0.5481  2.1415  1.6058
  530MOL0     H71495   5.434   6.079   3.002 -0.3615  0.0139 -0.2720
  530MOL0     H71496   5.392   5.983   3.134  3.8148  1.9990 -0.9796
  530MOL0     H71497   5.253   6.008   2.861  1.7331 -1.6293 -1.4895
  530MOL0     H71498   5.330   5.873   2.948 -0.7262 -1.6094  3.2936
  530MOL0     H71499   5.063   6.005   2.998  0.4453 -0.0455 -5.2967
  530MOL0     H71500   5.113   5.885   3.114 -4.1420 -1.3752 -0.0742
  530MOL0     H71501   5.126   5.620   3.023  1.1143 -0.3037 -1.0426
  530MOL0     H71502   4.899   5.447   2.754 -0.6981  2.5954  1.1317
  530MOL0     H71503   5.059   5.454   2.693  2.7558 -0.8440  1.7744
  530MOL0     H71504   4.982   5.368   2.961 -0.1391  0.2883 -1.5327
  530MOL0     H71505   5.147   5.391   2.926 -0.1666  1.2247 -1.0719
  530MOL0     H71506   5.099   5.155   2.912 -2.5984  0.1109  1.4970
  530MOL0     H71507   5.137   5.212   2.745 -0.7040  0.0188 -1.2862
  530MOL0     H71508   4.881   5.219   2.713  0.0114 -0.7128 -0.3413
  530MOL0     H71509   4.870   5.181   2.885  4.8828 -0.4016  1.9877
  530MOL0     H71510   4.941   4.762   2.713  2.9320 -0.9286  0.8197
  530MOL0     H71511   5.116   4.586   2.597  0.0545 -0.4001  0.0815
  530MOL0     H71512   4.944   4.573   2.539  0.7399  2.2677  0.7996
  530MOL0     H71513   5.089   4.572   2.426 -3.3747  0.2183 -2.4423
  530MOL0     H71514   5.293   4.483   2.313 -2.0792 -0.1230  1.5012
  530MOL0     H71515   5.485   4.431   2.463  2.2080 -0.3793  1.6435
  530MOL0     H71516   5.641   4.408   2.656  0.5713  0.2360  0.5301
  530MOL0     H71517   5.687   4.443   2.499  0.7246 -0.4988 -0.1443
  530MOL0     H71518   5.895   4.578   2.561  0.0302 -1.7384 -1.9711
  530MOL0     H71519   5.839   4.580   2.728 -0.5606  0.3748 -0.6430
  530MOL0     H71520   6.005   4.377   2.605  1.3569 -2.4489  3.4103
  530MOL0     H71521   5.859   4.300   2.637  0.8996 -1.7970  0.9653
  530MOL0     H71522   6.030   4.445   2.841  0.8499 -1.3950  0.8503
  530MOL0     H71523   5.879   4.345   2.865 -1.9698 -2.4323 -3.8255
  530MOL0     H71524   5.995   4.154   2.778  0.7247 -0.1546 -1.7784
  530MOL0     H71525   6.085   4.198   2.917  1.1647  0.3751  0.0615
  530MOL0     H71526   6.170   4.244   2.626 -1.3077 -1.8600 -0.0036
  530MOL0     H71527   6.245   4.328   2.755  3.1476 -2.7223  0.9401
  530MOL0     H71528   6.231   4.017   2.719  4.6400 -1.0534 -0.9913
  530MOL0     H71529   6.280   4.117   2.868 -0.7487  1.9966  0.1817
  530MOL0     H71530   6.451   4.215   2.706  1.2454  0.0046 -1.8974
  530MOL0     H71531   6.407   4.093   2.582  0.1540  1.3496 -0.0708
  530MOL0     H71532   5.521   4.834   2.587 -0.3986 -2.4918  1.8729
  530MOL0     H71533   5.335   4.899   2.413 -1.1563 -0.6123 -1.8064
  530MOL0     H71534   5.050   5.038   2.322 -1.3242 -0.9920  0.1927
  530MOL0     H71535   4.980   5.154   2.526 -0.6525  0.0797  0.5231
  530MOL0     H71536   5.955   6.492   3.169 -0.2715  0.4935  1.3681
  530MOL0     H71537   6.126   6.709   3.158  0.7193  1.1882 -2.5544
  530MOL0     H71538   6.199   7.090   3.219 -3.5298  2.4670 -3.4098
  530MOL0     H71539   6.414   7.230   3.280  1.7599 -6.1905  0.8055
  530MOL0     H71540   6.721   7.127   3.105 -2.2991 -0.8239  0.3224
  530MOL0     H71541   6.803   7.284   3.076  1.5358 -0.5582  1.6197
  530MOL0     H71542   6.781   7.155   3.334 -2.3268 -1.5757 -1.3695
  530MOL0     H71543   6.652   7.275   3.328  0.4358  0.3825  1.5283
  530MOL0     H71544   6.780   7.459   3.301 -1.3037 -0.5245  0.9322
  530MOL0     H71545   6.934   7.373   3.272 -0.0120  0.1251 -0.1839
  530MOL0     H71546   6.913   7.269   3.501  2.0183  0.9232 -1.9650
  530MOL0     H71547   6.768   7.368   3.528 -0.9865 -2.0716 -0.6301
  530MOL0     H71548   7.074   7.658   3.593 -0.6937  0.3713  1.5008
  530MOL0     H71549   6.556   7.164   2.886 -0.1430 -0.1605 -1.1321
  530MOL0     H71550   6.349   7.042   2.836 -0.0451  0.7960  0.1053
  531MOL0     O71551   0.500   8.551   2.637  0.3339  0.2060 -0.2344
  531MOL0     C71552   0.493   8.656   2.708  0.1730  0.3095  0.3064
  531MOL0     O71553   0.590   8.737   2.723  0.7032 -0.2954  0.1917
  531MOL0     C71554   0.717   8.736   2.661  1.6639 -0.8085  0.7580
  531MOL0     C71555   0.797   8.846   2.701  0.0645 -0.9378  0.4186
  531MOL0     C71556   0.918   8.867   2.638  0.9684 -0.2529 -0.2844
  531MOL0     C71557   0.962   8.777   2.543  0.6490 -0.7708 -0.7376
  531MOL0     O71558   1.059   8.805   2.455 -0.5007  0.3915 -0.8830
  531MOL0     C71559   1.113   8.934   2.462  0.4261 -0.4671  0.3555
  531MOL0     C71560   1.192   8.948   2.339  0.8160  0.3893  0.3433
  531MOL0     C71561   1.107   8.963   2.207  0.8819  0.5992  0.2422
  531MOL0     C71562   1.182   9.042   2.100  0.2647  0.1138  0.9522
  531MOL0     C71563   1.091   9.043   1.969  0.3066 -0.2309 -0.0581
  531MOL0     C71564   1.146   9.145   1.868 -0.1782  1.4745 -0.0484
  531MOL0     C71565   1.066   9.146   1.730 -0.0000 -0.4297 -0.2233
  531MOL0     C71566   1.074   9.022   1.638 -0.1204  0.4302  0.1287
  531MOL0     N71567   1.203   8.978   1.587  0.2478  0.2412  0.9745
  531MOL0     C71568   1.281   8.891   1.654  0.4557 -0.6007 -0.6889
  531MOL0     C71569   1.393   8.872   1.580 -0.8396 -0.1537 -0.9312
  531MOL0     C71570   1.519   8.795   1.586  0.5771  1.0138 -0.2308
  531MOL0     C71571   1.502   8.660   1.659 -0.4929 -0.3044  0.3828
  531MOL0     C71572   1.620   8.615   1.736  0.1381  1.1006  0.2825
  531MOL0     C71573   1.735   8.571   1.646 -0.3302 -0.3233 -0.5859
  531MOL0     O71574   1.704   8.440   1.597  0.4959  0.4952 -0.1871
  531MOL0     C71575   1.747   8.337   1.680  0.2190 -0.5899 -0.5958
  531MOL0     C71576   1.658   8.240   1.727 -0.3769 -0.7153 -0.3900
  531MOL0     C71577   1.716   8.131   1.803 -0.4984  0.7209 -0.8624
  531MOL0     C71578   1.629   8.013   1.844  0.3494 -0.8792  0.2143
  531MOL0     C71579   1.853   8.126   1.837 -0.3814  0.5855  1.3624
  531MOL0     C71580   1.913   8.016   1.909  0.0750 -0.0715 -0.7437
  531MOL0     O71581   1.971   7.926   1.816 -0.4034  0.1535  0.7616
  531MOL0     C71582   2.056   7.831   1.867  0.3304  0.2300  0.0326
  531MOL0     C71583   2.195   7.859   1.893 -0.3957  0.2363  0.2962
  531MOL0     C71584   2.282   7.772   1.948  0.5349  0.0620 -1.0858
  531MOL0     C71585   2.235   7.648   1.986 -0.3818  0.5476  0.0076
  531MOL0     O71586   2.300   7.558   2.068  0.2996  0.1235 -0.3395
  531MOL0     C71587   2.328   7.604   2.201 -1.4263 -0.4994  0.0658
  531MOL0     C71588   2.440   7.523   2.246  0.7229  0.0492  0.1738
  531MOL0     C71589   2.395   7.400   2.325 -0.0161  0.7523 -0.2647
  531MOL0     C71590   2.392   7.264   2.242 -0.9422 -0.6583  0.3370
  531MOL0     C71591   2.342   7.146   2.343  0.1682  0.0924 -0.0137
  531MOL0     C71592   2.318   7.005   2.277  0.0993  0.6139 -0.8610
  531MOL0     C71593   2.403   6.976   2.152 -1.1339  0.7315 -0.3107
  531MOL0     C71594   2.337   6.840   2.100 -0.0437 -0.6744 -0.1874
  531MOL0    Cl71595   2.435   6.746   1.984  0.3061 -0.0522  0.0433
  531MOL0     C71596   2.100   7.611   1.951  0.3443 -0.1932 -0.4737
  531MOL0     C71597   2.008   7.701   1.890  0.2091 -0.1398 -0.4481
  531MOL0     O71598   1.932   8.022   2.029  0.7587 -0.4029 -0.5921
  531MOL0     C71599   1.937   8.225   1.786  0.7569 -0.4793 -0.2356
  531MOL0     C71600   1.890   8.319   1.699  0.3533 -0.2267  0.3563
  531MOL0     N71601   1.376   8.942   1.468  0.1462  0.4888  0.3050
  531MOL0     N71602   1.265   9.003   1.464 -0.4206 -0.2788 -0.7027
  531MOL0     C71603   0.899   8.659   2.519 -0.1113  0.0280 -0.5197
  531MOL0     C71604   0.767   8.646   2.562 -0.4473 -0.1591  0.3556
  531MOL0     C71605   0.367   8.684   2.776  0.1433  0.4830 -0.7660
  531MOL0     C71606   0.274   8.576   2.798 -0.4986 -0.7849  1.0825
  531MOL0     C71607   0.160   8.603   2.882  0.9542 -0.0682  0.8536
  531MOL0     C71608   0.123   8.734   2.921  0.5497  0.3865 -0.4072
  531MOL0     O71609   0.002   8.751   2.984 -0.2702  0.1601  0.0234
  531MOL0     C71610  -0.001   8.871   3.049  0.5948 -0.2337 -0.4468
  531MOL0     C71611  -0.097   8.963   2.981 -0.1284  0.5170  0.6551
  531MOL0     C71612  -0.062   9.109   3.038 -0.9985 -0.0323  0.2269
  531MOL0     C71613  -0.139   9.229   2.977  0.4797  1.0383 -0.5080
  531MOL0     C71614  -0.095   9.261   2.844 -0.1080 -0.8695 -0.0312
  531MOL0     C71615  -0.045   9.271   2.733  0.1108 -0.1304  1.0634
  531MOL0     C71616   0.202   8.841   2.875 -0.5758  0.2284 -0.5922
  531MOL0     C71617   0.328   8.814   2.808  0.1395 -0.5634 -0.6003
  531MOL0     H71618   0.755   8.920   2.769 -1.8660 -1.9042  0.3590
  531MOL0     H71619   0.983   8.952   2.656  0.9066  0.1479 -1.8310
  531MOL0     H71620   1.034   9.010   2.470  0.7138 -0.3280  2.3847
  531MOL0     H71621   1.174   8.951   2.551 -0.6235 -0.7396  1.1505
  531MOL0     H71622   1.262   9.032   2.334  1.2497 -0.0294 -1.1259
  531MOL0     H71623   1.259   8.862   2.347 -0.6242 -0.7154  0.7039
  531MOL0     H71624   1.075   8.861   2.184 -1.4018  0.1513  4.3692
  531MOL0     H71625   1.010   9.011   2.222  0.0468 -0.8165 -0.4259
  531MOL0     H71626   1.203   9.140   2.146  3.8803 -0.1467  0.1341
  531MOL0     H71627   1.278   8.998   2.073  0.0895  0.8695 -1.0905
  531MOL0     H71628   1.093   8.939   1.937  1.2811 -0.7857  1.6692
  531MOL0     H71629   0.989   9.064   2.001  0.3061  2.9991 -1.7004
  531MOL0     H71630   1.134   9.241   1.918  0.7715 -1.1155  6.0456
  531MOL0     H71631   1.249   9.113   1.855 -1.4784 -3.6751  0.1721
  531MOL0     H71632   0.964   9.174   1.760  1.8384  1.4335  5.7909
  531MOL0     H71633   1.100   9.235   1.676  0.8650  0.4337  1.6344
  531MOL0     H71634   1.009   9.029   1.551  0.6622  0.8079 -0.4401
  531MOL0     H71635   1.032   8.946   1.705  0.8252 -0.4888 -0.2916
  531MOL0     H71636   1.250   8.849   1.749 -1.5427  1.2312 -0.4680
  531MOL0     H71637   1.558   8.782   1.485  3.0531 -3.6587  1.0172
  531MOL0     H71638   1.594   8.851   1.643  1.0012 -2.3004  2.8549
  531MOL0     H71639   1.461   8.593   1.582 -1.6023  1.3305 -0.4995
  531MOL0     H71640   1.422   8.669   1.733 -2.3274  0.0318 -1.5358
  531MOL0     H71641   1.590   8.529   1.797  5.5130 -0.5342  1.1488
  531MOL0     H71642   1.646   8.697   1.805  0.5684  0.6742  0.6330
  531MOL0     H71643   1.822   8.567   1.713  0.0081 -1.9229 -1.0887
  531MOL0     H71644   1.760   8.645   1.570  0.3642  1.1779  1.0232
  531MOL0     H71645   1.557   8.257   1.690  0.5484  0.8838 -2.3348
  531MOL0     H71646   1.674   7.944   1.916 -0.1868 -2.0571 -0.5307
  531MOL0     H71647   1.539   8.054   1.891 -0.0001 -1.1182 -0.2410
  531MOL0     H71648   1.604   7.952   1.756  0.7496 -0.3936 -0.2357
  531MOL0     H71649   2.239   7.956   1.874 -3.2937  1.4799 -0.6179
  531MOL0     H71650   2.383   7.801   1.977 -0.6256  1.7493  1.7675
  531MOL0     H71651   2.349   7.712   2.201  1.2691 -0.9576  1.7510
  531MOL0     H71652   2.235   7.595   2.258 -1.9178  1.5855 -0.3043
  531MOL0     H71653   2.502   7.487   2.163 -1.6065  0.6336 -1.9304
  531MOL0     H71654   2.499   7.584   2.315 -1.1963 -0.8984  2.8374
  531MOL0     H71655   2.300   7.410   2.377  1.4324 -0.7346  2.9364
  531MOL0     H71656   2.461   7.383   2.411  0.1214 -0.6064 -0.6125
  531MOL0     H71657   2.328   7.287   2.155  3.3929  1.0870 -2.7598
  531MOL0     H71658   2.489   7.248   2.193 -1.8002  0.6219 -1.9851
  531MOL0     H71659   2.242   7.177   2.372 -0.3805  0.7323 -2.3855
  531MOL0     H71660   2.401   7.147   2.435 -2.4644 -3.4914  1.9508
  531MOL0     H71661   2.327   6.926   2.351 -1.7840  0.9115 -0.2770
  531MOL0     H71662   2.211   7.007   2.253  0.0430  3.0330 -0.6400
  531MOL0     H71663   2.507   6.962   2.181 -1.0152 -0.9856 -1.4610
  531MOL0     H71664   2.391   7.058   2.080  2.0218 -1.0183 -3.0992
  531MOL0     H71665   2.242   6.859   2.050  0.3407  0.3256 -0.5686
  531MOL0     H71666   2.327   6.778   2.189 -1.0853  2.5058  2.0741
  531MOL0     H71667   2.069   7.515   1.991 -1.1892  1.2782  2.1697
  531MOL0     H71668   1.908   7.679   1.852  0.4307 -0.2162 -0.9903
  531MOL0     H71669   2.043   8.216   1.805  1.1705  1.4875 -1.3432
  531MOL0     H71670   1.951   8.389   1.642 -0.6028  1.6467  1.5485
  531MOL0     H71671   0.938   8.584   2.451 -1.7443 -0.3745 -1.0627
  531MOL0     H71672   0.708   8.567   2.518  1.9821 -0.8682 -1.9038
  531MOL0     H71673   0.282   8.474   2.762 -2.6619 -1.3573  2.1019
  531MOL0     H71674   0.094   8.519   2.905 -1.0826  0.3249 -2.8150
  531MOL0     H71675  -0.047   8.864   3.148 -1.1109 -3.5186 -1.3465
  531MOL0     H71676   0.098   8.912   3.074  1.0319 -1.9228  0.7400
  531MOL0     H71677  -0.203   8.945   3.002 -1.0516  2.2364 -1.9614
  531MOL0     H71678  -0.094   8.956   2.872 -0.0478  1.2300  0.6062
  531MOL0     H71679   0.042   9.135   3.014 -1.4942  0.1029 -2.0066
  531MOL0     H71680  -0.071   9.113   3.147  1.6781  2.6510  0.4738
  531MOL0     H71681  -0.117   9.317   3.039 -0.4304  2.0845 -1.6242
  531MOL0     H71682  -0.246   9.203   2.973  0.7483  0.0705 -2.4691
  531MOL0     H71683  -0.005   9.265   2.634  0.5238 -0.3327  1.2393
  531MOL0     H71684   0.172   8.944   2.886 -2.2413 -0.4992  2.7830
  531MOL0     H71685   0.376   8.906   2.774 -0.6546  0.3879  0.7514
  532MOL0     O71686   5.794   0.014   6.527  0.4707  0.4069 -0.0707
  532MOL0     C71687   5.721   0.044   6.617 -0.5122  0.3878 -0.3353
  532MOL0     O71688   5.756   0.032   6.742 -0.0967  0.6511 -0.0559
  532MOL0     C71689   5.891  -0.002   6.771  0.9785 -0.6185 -0.8370
  532MOL0     C71690   5.914  -0.126   6.839  0.2476 -0.3445 -0.6989
  532MOL0     C71691   6.044  -0.175   6.869 -0.1912 -0.0936  0.0960
  532MOL0     C71692   6.145  -0.096   6.829 -1.3563  0.0755 -0.7148
  532MOL0     O71693   6.272  -0.145   6.834  0.0034 -0.2802 -0.4796
  532MOL0     C71694   6.338  -0.103   6.961  1.0096  0.0368  0.1214
  532MOL0     C71695   6.487  -0.138   6.947 -0.5924  0.2548 -0.1877
  532MOL0     C71696   6.584  -0.094   7.067 -0.4924 -0.2937  0.6572
  532MOL0     C71697   6.720  -0.152   7.057 -0.2549  0.8937  0.3306
  532MOL0     C71698   6.720  -0.297   7.123  0.6335 -0.7716 -0.2675
  532MOL0     C71699   6.864  -0.348   7.133 -0.2637 -0.1245  0.3296
  532MOL0     C71700   6.937  -0.293   7.255  0.2601  0.8802  0.4755
  532MOL0     C71701   6.937  -0.409   7.365 -0.9909  0.7887  0.2155
  532MOL0     N71702   7.006  -0.366   7.482 -0.5402 -1.0651  0.2754
  532MOL0     C71703   7.146  -0.362   7.487  0.7709 -0.0353 -0.7142
  532MOL0     C71704   7.177  -0.308   7.603 -0.1516  0.3113 -0.1998
  532MOL0     C71705   7.315  -0.308   7.660 -0.0678  0.2110  0.5655
  532MOL0     C71706   7.406  -0.260   7.546  0.9279  1.1485 -0.6476
  532MOL0     C71707   7.554  -0.245   7.596 -0.1538  0.4262  0.4003
  532MOL0     C71708   7.591  -0.112   7.661  1.1861 -0.6872  0.6949
  532MOL0     O71709   7.561  -0.009   7.559 -0.4443 -0.3638  0.6388
  532MOL0     C71710   7.537   0.119   7.581  0.2902 -0.1303  0.3347
  532MOL0     C71711   7.497   0.204   7.479 -0.3141 -0.2674 -0.5066
  532MOL0     C71712   7.461   0.335   7.501 -0.7177  0.7622  0.3519
  532MOL0     C71713   7.431   0.414   7.375 -0.3604  0.2545 -0.1482
  532MOL0     C71714   7.462   0.393   7.630  0.0215 -0.5534 -0.3795
  532MOL0     C71715   7.425   0.534   7.681 -0.0527  0.0095  0.0284
  532MOL0     O71716   7.414   0.546   7.818 -0.0389 -1.1933 -0.5534
  532MOL0     C71717   7.333   0.640   7.876 -0.2929 -1.3677  0.2780
  532MOL0     C71718   7.374   0.776   7.852  0.4622 -0.3910 -0.2892
  532MOL0     C71719   7.314   0.876   7.933  0.9388  0.4344 -0.2456
  532MOL0     C71720   7.196   0.850   8.005  0.1393 -0.0882  0.0867
  532MOL0     O71721   7.128   0.946   8.081 -0.1250  0.2454 -0.5824
  532MOL0     C71722   7.120   1.081   8.020 -0.4742  1.1697  0.1200
  532MOL0     C71723   6.974   1.125   8.007  0.1701 -0.6789  0.5629
  532MOL0     C71724   6.881   1.134   8.138  0.3292 -0.5076 -0.2542
  532MOL0     C71725   6.788   1.016   8.152 -0.7032 -0.6819  0.4233
  532MOL0     C71726   6.702   1.019   8.290 -0.7442 -0.8155 -0.0789
  532MOL0     C71727   6.741   0.903   8.368 -1.5707 -0.4211 -0.1685
  532MOL0     C71728   6.647   0.873   8.488  0.6293  0.2745 -0.4502
  532MOL0     C71729   6.650   0.986   8.600  0.2240 -0.7395  0.7094
  532MOL0    Cl71730   6.810   1.013   8.669 -0.4676  0.5477 -0.2759
  532MOL0     C71731   7.149   0.719   8.018 -0.5178  0.1856 -0.8574
  532MOL0     C71732   7.212   0.612   7.953 -0.9386 -0.8770  0.0705
  532MOL0     O71733   7.397   0.625   7.602  0.3419 -0.8197 -0.5891
  532MOL0     C71734   7.512   0.308   7.733 -0.3330  0.5592 -0.9424
  532MOL0     C71735   7.544   0.173   7.710  0.8525  0.6153  0.4223
  532MOL0     N71736   7.056  -0.293   7.664  0.0523  0.8207  0.2441
  532MOL0     N71737   6.953  -0.317   7.592 -0.0334 -0.1911 -1.3594
  532MOL0     C71738   6.127   0.026   6.769  0.2252 -0.6096  0.0971
  532MOL0     C71739   5.998   0.066   6.725 -0.6849 -0.0346 -0.3114
  532MOL0     C71740   5.591   0.113   6.582 -0.8867 -0.4870  0.3721
  532MOL0     C71741   5.526   0.187   6.677 -1.0672  0.7416  0.1871
  532MOL0     C71742   5.423   0.276   6.643  0.4787 -0.3958  0.3650
  532MOL0     C71743   5.380   0.293   6.516  0.1743  0.2382 -0.4395
  532MOL0     O71744   5.285   0.395   6.495 -0.3517  0.1442  0.1038
  532MOL0     C71745   5.264   0.443   6.358 -0.1579 -0.0553 -0.3182
  532MOL0     C71746   5.149   0.554   6.367 -0.3508 -0.1163  1.0702
  532MOL0     C71747   5.157   0.648   6.249 -0.2708 -0.5056 -0.8116
  532MOL0     C71748   5.041   0.754   6.255  0.7721 -0.2319  1.0665
  532MOL0     C71749   4.916   0.668   6.246 -0.5024 -0.6461  0.2270
  532MOL0     C71750   4.822   0.582   6.238 -0.8253  0.3847 -0.7459
  532MOL0     C71751   5.450   0.218   6.419  0.1848 -0.8852  0.2798
  532MOL0     C71752   5.555   0.135   6.452  0.2891  0.7954  0.1529
  532MOL0     H71753   5.833  -0.184   6.883  1.3702 -0.8983  0.7263
  532MOL0     H71754   6.073  -0.262   6.928  1.0751 -1.7827 -2.8083
  532MOL0     H71755   6.338   0.004   6.981  1.3580  0.2231 -0.8270
  532MOL0     H71756   6.288  -0.153   7.044 -3.5669  0.6060 -1.9751
  532MOL0     H71757   6.505  -0.246   6.940  1.3471  0.4724  0.7686
  532MOL0     H71758   6.530  -0.089   6.859 -0.3231  1.2490  0.4855
  532MOL0     H71759   6.579   0.015   7.067  0.4974 -0.2071 -1.0570
  532MOL0     H71760   6.552  -0.139   7.162  0.7488  0.0448  1.2526
  532MOL0     H71761   6.750  -0.159   6.952 -1.4046 -0.7796  0.0866
  532MOL0     H71762   6.788  -0.088   7.115 -0.3376  0.2554  1.1357
  532MOL0     H71763   6.657  -0.302   7.213  0.9777 -0.1479  0.0154
  532MOL0     H71764   6.667  -0.360   7.051  0.2221  1.5673 -2.1315
  532MOL0     H71765   6.860  -0.457   7.125  2.5586 -0.1549 -3.4035
  532MOL0     H71766   6.931  -0.325   7.049 -0.1660 -1.2273  0.0983
  532MOL0     H71767   7.040  -0.266   7.229  0.4755 -1.4412 -1.4756
  532MOL0     H71768   6.888  -0.206   7.299 -2.4458 -2.0694  3.9423
  532MOL0     H71769   6.991  -0.499   7.334  0.0995  2.3084 -2.7122
  532MOL0     H71770   6.838  -0.451   7.383  0.3984 -2.5106  0.9180
  532MOL0     H71771   7.208  -0.399   7.407 -0.0485  0.8961 -1.8156
  532MOL0     H71772   7.315  -0.251   7.753  2.7016  0.9529  0.2015
  532MOL0     H71773   7.341  -0.412   7.680 -2.3204 -0.2040  1.6440
  532MOL0     H71774   7.360  -0.169   7.508  0.4505  0.7420 -1.0688
  532MOL0     H71775   7.396  -0.335   7.467 -2.4555 -1.8609  2.2375
  532MOL0     H71776   7.626  -0.279   7.520  1.1926  3.4674  0.1992
  532MOL0     H71777   7.564  -0.316   7.678 -1.9826  1.5854  1.6966
  532MOL0     H71778   7.694  -0.100   7.695  2.2598 -2.5326 -1.6046
  532MOL0     H71779   7.524  -0.093   7.746  0.9135  2.4759 -0.1073
  532MOL0     H71780   7.494   0.167   7.377  0.4517 -0.8200 -0.3458
  532MOL0     H71781   7.372   0.366   7.296  1.8365  0.4542 -2.0399
  532MOL0     H71782   7.383   0.504   7.413 -0.2186 -0.2617  1.3100
  532MOL0     H71783   7.525   0.441   7.325  0.0094  1.4236  1.1135
  532MOL0     H71784   7.452   0.802   7.782  0.5987  0.1801  0.0672
  532MOL0     H71785   7.345   0.979   7.920 -1.6541  1.2819 -0.1727
  532MOL0     H71786   7.183   1.147   8.079 -1.6667  1.1506  1.4561
  532MOL0     H71787   7.167   1.071   7.921 -3.8630  1.2125 -1.6396
  532MOL0     H71788   6.964   1.227   7.966 -1.1433 -0.9313  0.1841
  532MOL0     H71789   6.931   1.057   7.933  0.9917 -0.3706 -0.2234
  532MOL0     H71790   6.823   1.227   8.134  2.7825  1.1205 -0.2995
  532MOL0     H71791   6.938   1.133   8.232  0.3207  0.2263 -0.2366
  532MOL0     H71792   6.721   1.014   8.065 -1.2831 -4.4285  0.7862
  532MOL0     H71793   6.836   0.918   8.139  1.4493  0.1519  1.5123
  532MOL0     H71794   6.597   1.009   8.260 -1.1637 -0.4000  1.2028
  532MOL0     H71795   6.713   1.115   8.340 -1.3601 -1.4455  1.3128
  532MOL0     H71796   6.759   0.814   8.308 -0.0376  0.8158 -1.6526
  532MOL0     H71797   6.836   0.933   8.413 -2.0457  0.1470  0.4889
  532MOL0     H71798   6.662   0.777   8.539 -1.2105  1.6690  3.0644
  532MOL0     H71799   6.549   0.861   8.441  0.7772 -2.3647 -0.2163
  532MOL0     H71800   6.580   0.957   8.679  1.0773 -4.0904  0.3792
  532MOL0     H71801   6.606   1.078   8.560 -2.4672 -1.5522  1.6004
  532MOL0     H71802   7.058   0.696   8.073  0.1225 -0.4002 -0.0144
  532MOL0     H71803   7.168   0.513   7.962  1.0393 -1.6807  1.4876
  532MOL0     H71804   7.511   0.342   7.836 -2.5725 -0.2083 -0.6591
  532MOL0     H71805   7.569   0.107   7.792 -1.9405 -2.5129 -1.0193
  532MOL0     H71806   6.214   0.084   6.739 -1.1059  1.2913 -0.2459
  532MOL0     H71807   5.986   0.156   6.665  1.3451  0.7787  0.3830
  532MOL0     H71808   5.541   0.178   6.784  0.2407 -2.5014 -0.1620
  532MOL0     H71809   5.381   0.337   6.723 -2.0588 -1.8481  0.2375
  532MOL0     H71810   5.351   0.492   6.313 -0.3404  1.5532  0.9775
  532MOL0     H71811   5.233   0.367   6.286 -1.3824  0.2409 -0.1262
  532MOL0     H71812   5.156   0.611   6.460  2.4305 -0.9283  1.4601
  532MOL0     H71813   5.057   0.499   6.385  0.9687 -3.3264 -1.0243
  532MOL0     H71814   5.170   0.593   6.155  0.3476 -0.1394 -0.9470
  532MOL0     H71815   5.250   0.702   6.270  0.1005 -1.7238  0.8668
  532MOL0     H71816   5.043   0.827   6.173 -1.1142 -1.5571 -0.2724
  532MOL0     H71817   5.038   0.803   6.352 -0.9525  1.0050  0.4523
  532MOL0     H71818   4.745   0.516   6.204 -1.7033  2.6921 -3.7071
  532MOL0     H71819   5.428   0.235   6.314  0.5330 -1.5376  0.0905
  532MOL0     H71820   5.589   0.074   6.369  0.2276 -1.6688  1.8474
  533MOL0     O71821  10.898  10.251   4.820  1.2824 -0.0612 -0.2602
  533MOL0     C71822  10.914  10.126   4.820  0.3723 -1.4033 -0.3067
  533MOL0     O71823  10.943  10.053   4.932 -0.3871 -0.5100  0.1332
  533MOL0     C71824  10.953  10.115   5.057 -0.5417 -0.4808 -0.1393
  533MOL0     C71825  10.843  10.186   5.110  0.6940 -0.2482  0.2251
  533MOL0     C71826  10.853  10.245   5.239 -0.0434 -0.1702  0.4379
  533MOL0     C71827  10.964  10.227   5.324 -0.2209  1.2440 -0.3552
  533MOL0     O71828  10.984  10.294   5.442 -0.2096  0.5134  0.1554
  533MOL0     C71829  10.985  10.207   5.558  0.2873  0.6600  0.8614
  533MOL0     C71830  10.918  10.276   5.680  0.1235 -0.7527  0.0273
  533MOL0     C71831  11.026  10.337   5.779 -0.0729  0.5385 -0.0234
  533MOL0     C71832  11.086  10.221   5.862 -0.1000 -0.0664 -0.1962
  533MOL0     C71833  10.989  10.164   5.960  0.7805  0.2624 -0.3154
  533MOL0     C71834  11.056  10.067   6.060  0.5717 -0.1642 -0.4030
  533MOL0     C71835  10.951  10.059   6.174 -0.1764  0.0154 -0.4278
  533MOL0     C71836  10.990   9.982   6.295 -0.3649 -0.1981 -0.1956
  533MOL0     N71837  10.932  10.038   6.416 -0.0583  0.0754 -0.6575
  533MOL0     C71838  10.853   9.971   6.511  0.4531  0.3390 -0.6786
  533MOL0     C71839  10.835  10.063   6.612 -0.2879  1.0297  0.7878
  533MOL0     C71840  10.779  10.045   6.740  0.0570  1.5756  0.6793
  533MOL0     C71841  10.757   9.904   6.793  0.0852 -0.3504 -0.7100
  533MOL0     C71842  10.895   9.832   6.823  0.4250 -0.5455 -0.1472
  533MOL0     C71843  10.862   9.693   6.874  0.1113  1.2320  1.0611
  533MOL0     O71844  10.831   9.596   6.763 -0.5568 -0.6383  0.1838
  533MOL0     C71845  10.763   9.486   6.809  0.3495  0.8269  0.3684
  533MOL0     C71846  10.813   9.353   6.816 -0.9615  0.3298  0.4466
  533MOL0     C71847  10.746   9.241   6.880  0.4399 -0.2115 -0.8097
  533MOL0     C71848  10.826   9.125   6.885 -0.3716 -0.0610  0.1996
  533MOL0     C71849  10.623   9.257   6.943 -0.4882 -0.3192 -0.5681
  533MOL0     C71850  10.546   9.161   7.009  0.2828  0.3419  0.0355
  533MOL0     O71851  10.619   9.048   7.045 -0.0917  0.0540 -0.3523
  533MOL0     C71852  10.568   8.956   7.142 -0.4917 -0.2137  0.8743
  533MOL0     C71853  10.446   8.979   7.213  0.1984  0.2895  0.0539
  533MOL0     C71854  10.383   8.876   7.284 -0.2535 -0.3620  0.5164
  533MOL0     C71855  10.439   8.745   7.291 -0.2626 -0.0589  0.3121
  533MOL0     O71856  10.398   8.633   7.360  0.8192  0.1079  0.2023
  533MOL0     C71857  10.284   8.645   7.443  0.5639 -0.2946  0.0404
  533MOL0     C71858  10.242   8.518   7.510 -0.1247 -0.3713 -0.9384
  533MOL0     C71859  10.139   8.550   7.617  0.6411  0.5309  0.5754
  533MOL0     C71860  10.085   8.440   7.703  0.7411 -0.6654  0.0895
  533MOL0     C71861  10.185   8.376   7.800 -0.1130 -0.2579 -0.0588
  533MOL0     C71862  10.111   8.273   7.878  0.0784  0.1051  0.0802
  533MOL0     C71863  10.172   8.245   8.019 -0.2640 -0.4601 -0.3702
  533MOL0     C71864  10.107   8.128   8.085  0.2483  0.7757  0.0120
  533MOL0    Cl71865  10.159   8.111   8.263 -0.5485 -0.6502  0.3195
  533MOL0     C71866  10.563   8.730   7.235  0.5979  0.0313 -0.2370
  533MOL0     C71867  10.619   8.832   7.156 -0.4648  0.1077  0.1799
  533MOL0     O71868  10.421   9.176   7.006  0.3514  0.3558 -0.1648
  533MOL0     C71869  10.570   9.386   6.933 -0.9432 -0.2668 -0.3234
  533MOL0     C71870  10.637   9.496   6.875 -0.5540 -0.3024 -0.6973
  533MOL0     N71871  10.895  10.175   6.569 -0.1863 -0.5737 -0.1433
  533MOL0     N71872  10.944  10.164   6.455  0.4192 -0.5152  0.6145
  533MOL0     C71873  11.070  10.152   5.275 -1.7001  0.2375  1.2957
  533MOL0     C71874  11.066  10.105   5.136 -0.3529  0.4168 -0.5677
  533MOL0     C71875  10.885  10.041   4.704 -0.3128  0.4069  1.1416
  533MOL0     C71876  10.828  10.092   4.589  0.7884  0.2735  0.0772
  533MOL0     C71877  10.790  10.014   4.473  0.2335  0.2938 -0.3398
  533MOL0     C71878  10.833   9.879   4.469 -0.4544 -0.2058  0.0161
  533MOL0     O71879  10.812   9.816   4.346  0.1143 -0.3880  0.7825
  533MOL0     C71880  10.810   9.665   4.336 -0.5241  0.2879 -0.5315
  533MOL0     C71881  10.690   9.596   4.395 -0.0447  1.0227  0.1364
  533MOL0     C71882  10.557   9.627   4.311 -0.9649 -0.7574 -0.8434
  533MOL0     C71883  10.486   9.497   4.266 -0.8982 -0.5270 -0.4559
  533MOL0     C71884  10.427   9.436   4.381  0.1952  0.1730  0.7533
  533MOL0     C71885  10.368   9.383   4.469 -0.5546 -0.2596 -0.0223
  533MOL0     C71886  10.907   9.830   4.577  0.1575  0.7882  1.0447
  533MOL0     C71887  10.927   9.904   4.698 -0.5295 -0.0689  0.4733
  533MOL0     H71888  10.747  10.199   5.060 -0.7595 -1.0698  2.6017
  533MOL0     H71889  10.782  10.323   5.263  1.7869  2.9260 -3.2539
  533MOL0     H71890  10.935  10.111   5.538  2.3560 -0.3061  0.0775
  533MOL0     H71891  11.089  10.180   5.577  0.2866 -2.2670 -2.3418
  533MOL0     H71892  10.842  10.348   5.647  0.7569  1.0531  2.2846
  533MOL0     H71893  10.866  10.210   5.750  1.5297  0.3346  2.1774
  533MOL0     H71894  11.104  10.393   5.727 -1.6156  2.0272 -0.8682
  533MOL0     H71895  10.986  10.409   5.851  3.2231  1.9217  0.5775
  533MOL0     H71896  11.127  10.139   5.803 -2.9298 -3.4570  2.1539
  533MOL0     H71897  11.158  10.277   5.922 -0.1419 -0.3572  0.1258
  533MOL0     H71898  10.957  10.255   6.013  3.3241  2.0313 -1.5767
  533MOL0     H71899  10.911  10.102   5.916 -1.1228  0.6502  2.2733
  533MOL0     H71900  11.076   9.970   6.013  1.9997 -0.1019  0.0547
  533MOL0     H71901  11.150  10.109   6.097  1.6210 -0.2327 -2.8007
  533MOL0     H71902  10.944  10.164   6.201  2.2011  1.0047 -3.1947
  533MOL0     H71903  10.855  10.029   6.130 -0.6389 -1.1924  1.2847
  533MOL0     H71904  11.098   9.982   6.311 -0.1931  1.5419 -1.0702
  533MOL0     H71905  10.962   9.877   6.286  4.1777 -1.7660  1.2865
  533MOL0     H71906  10.818   9.868   6.512 -0.8468  0.7538 -1.3447
  533MOL0     H71907  10.847  10.094   6.810  2.0510  1.4784 -1.0769
  533MOL0     H71908  10.681  10.093   6.747 -2.9242 -3.8015  1.2679
  533MOL0     H71909  10.707   9.849   6.713 -4.0903 -0.7956  1.8773
  533MOL0     H71910  10.697   9.915   6.884 -1.3808 -0.8112 -1.5851
  533MOL0     H71911  10.948   9.893   6.897 -0.5051 -1.3985  1.2645
  533MOL0     H71912  10.950   9.812   6.731  1.0874 -3.8815  0.8347
  533MOL0     H71913  10.783   9.701   6.949 -0.8969 -0.0145  0.2010
  533MOL0     H71914  10.949   9.659   6.931  0.0429 -0.0293  0.4669
  533MOL0     H71915  10.911   9.346   6.771 -1.6755  5.4227 -2.6442
  533MOL0     H71916  10.912   9.143   6.821 -1.9026  2.3418 -1.3309
  533MOL0     H71917  10.864   9.103   6.985  1.7459 -1.7501 -0.8952
  533MOL0     H71918  10.764   9.041   6.848 -2.5251 -0.8066  4.7813
  533MOL0     H71919  10.393   9.074   7.217 -0.0466  0.1591 -0.1348
  533MOL0     H71920  10.280   8.898   7.310 -0.9956 -1.7005 -1.0938
  533MOL0     H71921  10.290   8.728   7.513  0.5680  0.0739 -0.3877
  533MOL0     H71922  10.208   8.684   7.374  2.6103 -1.5153 -3.1734
  533MOL0     H71923  10.209   8.443   7.437  1.8287 -2.8792  0.6214
  533MOL0     H71924  10.330   8.481   7.561  3.0130  0.3969 -5.2245
  533MOL0     H71925  10.051   8.602   7.578 -0.5582 -2.2830 -0.7666
  533MOL0     H71926  10.188   8.628   7.677  0.2308 -1.0344  3.0740
  533MOL0     H71927   9.998   8.470   7.761  1.2039 -2.7307  1.9825
  533MOL0     H71928  10.050   8.364   7.633  4.0980 -0.0229 -2.5884
  533MOL0     H71929  10.205   8.452   7.876  2.1680 -1.6165  0.8098
  533MOL0     H71930  10.286   8.352   7.766 -0.0944 -0.5229  0.1678
  533MOL0     H71931  10.006   8.298   7.896 -0.4680 -1.7105 -0.3622
  533MOL0     H71932  10.120   8.187   7.811  1.7456  1.9674 -2.2593
  533MOL0     H71933  10.139   8.320   8.092 -2.7881 -2.4118  0.6424
  533MOL0     H71934  10.282   8.245   8.020 -0.1071  3.1036 -1.2904
  533MOL0     H71935  10.109   8.034   8.028 -1.4017  0.5078  0.3450
  533MOL0     H71936   9.999   8.144   8.083  0.3621  1.5607 -0.1828
  533MOL0     H71937  10.615   8.635   7.238 -0.8548 -0.8751 -2.1484
  533MOL0     H71938  10.708   8.799   7.103 -1.1329 -1.9951  0.2645
  533MOL0     H71939  10.467   9.401   6.963 -1.6538 -0.7390 -2.3743
  533MOL0     H71940  10.585   9.591   6.881  0.5533  0.4276 -2.1229
  533MOL0     H71941  11.151  10.122   5.339  1.7973 -0.4709 -2.9632
  533MOL0     H71942  11.151  10.050   5.095  0.9347  2.2510 -0.4801
  533MOL0     H71943  10.808  10.199   4.587 -3.9369 -0.1832 -5.7933
  533MOL0     H71944  10.752  10.065   4.385  3.8311 -0.7160 -2.7171
  533MOL0     H71945  10.802   9.642   4.230  2.2249  0.3608 -0.8219
  533MOL0     H71946  10.911   9.642   4.371 -0.7667  0.2030  0.1245
  533MOL0     H71947  10.697   9.610   4.504  4.5720  1.0399  0.0100
  533MOL0     H71948  10.719   9.491   4.393  1.1784  1.3353  0.6450
  533MOL0     H71949  10.577   9.682   4.218 -1.0091  1.9654  0.6404
  533MOL0     H71950  10.496   9.695   4.371 -1.6327 -1.7000 -0.4349
  533MOL0     H71951  10.561   9.432   4.220  3.4974  3.3861  0.3900
  533MOL0     H71952  10.413   9.540   4.197 -1.6561 -0.1061  0.5793
  533MOL0     H71953  10.306   9.339   4.545 -3.0806  1.4418 -0.9552
  533MOL0     H71954  10.954   9.734   4.556  0.5134  1.2070 -0.1940
  533MOL0     H71955  10.986   9.867   4.781  0.9683 -0.1601 -0.5977
  534MOL0     O71956   7.710   5.568   3.998 -0.2435  0.3044  0.3573
  534MOL0     C71957   7.717   5.529   3.882  0.8005 -0.5572  0.3572
  534MOL0     O71958   7.810   5.447   3.836 -0.4204  0.5917 -0.0157
  534MOL0     C71959   7.898   5.389   3.925  0.5231  0.1982  0.0378
  534MOL0     C71960   7.870   5.260   3.967  0.0471  0.4157  0.0678
  534MOL0     C71961   7.952   5.200   4.054 -0.0448  0.3941 -0.7760
  534MOL0     C71962   8.065   5.265   4.095  0.2156  0.1269 -0.1202
  534MOL0     O71963   8.157   5.217   4.180 -0.2348 -0.1903 -0.5542
  534MOL0     C71964   8.200   5.081   4.163 -0.4009 -0.0787 -0.2480
  534MOL0     C71965   8.271   5.027   4.285 -0.0141 -0.7338 -0.5237
  534MOL0     C71966   8.353   4.904   4.260  0.3448  1.6000  0.1246
  534MOL0     C71967   8.378   4.816   4.378 -1.4566  0.4341 -0.8891
  534MOL0     C71968   8.447   4.681   4.351 -0.7202 -0.3103  0.8710
  534MOL0     C71969   8.492   4.610   4.481 -0.3913  0.0234 -0.3173
  534MOL0     C71970   8.390   4.560   4.585 -0.0914  0.2772  0.4330
  534MOL0     C71971   8.458   4.485   4.701  0.2987 -0.4505  0.2995
  534MOL0     N71972   8.379   4.464   4.819  0.2590 -0.0821 -0.1976
  534MOL0     C71973   8.306   4.350   4.841  0.4870 -0.0165  0.7423
  534MOL0     C71974   8.233   4.364   4.958  0.1042 -0.8223  0.1590
  534MOL0     C71975   8.150   4.248   5.033  1.0334 -1.1182 -0.7286
  534MOL0     C71976   8.039   4.311   5.115 -0.1942  0.8943 -0.0685
  534MOL0     C71977   7.970   4.205   5.207  0.8977 -0.3428  0.0659
  534MOL0     C71978   7.873   4.283   5.292  0.5053 -1.1435  0.6641
  534MOL0     O71979   7.822   4.201   5.391  0.2137 -0.1884 -0.3031
  534MOL0     C71980   7.739   4.089   5.350 -0.7518 -0.5944  0.5416
  534MOL0     C71981   7.679   4.079   5.228  0.1466 -0.3140  0.6099
  534MOL0     C71982   7.629   3.963   5.176  0.1675  0.1807  0.6160
  534MOL0     C71983   7.590   3.957   5.036 -0.5805  0.4120  0.4031
  534MOL0     C71984   7.607   3.854   5.268 -0.4793  0.2771 -1.0756
  534MOL0     C71985   7.543   3.732   5.228  0.5286  0.1504  0.0795
  534MOL0     O71986   7.465   3.721   5.113 -0.7560 -0.1361 -0.0151
  534MOL0     C71987   7.384   3.609   5.103  1.1235 -0.7550 -0.3202
  534MOL0     C71988   7.277   3.585   5.186  0.4833  0.1083 -0.7394
  534MOL0     C71989   7.201   3.469   5.181  0.2693 -0.3239 -0.4541
  534MOL0     C71990   7.203   3.391   5.062  0.5767 -0.2692 -0.0510
  534MOL0     O71991   7.120   3.280   5.023 -0.7338  0.4120 -0.1778
  534MOL0     C71992   7.040   3.218   5.130  0.3240  0.0198 -0.0281
  534MOL0     C71993   6.926   3.141   5.066  0.5175  0.3864 -0.2758
  534MOL0     C71994   6.815   3.123   5.165 -1.1886 -0.6268  0.1209
  534MOL0     C71995   6.862   3.061   5.305  0.6303 -0.2743  0.4167
  534MOL0     C71996   6.746   3.061   5.403  1.1477  0.0837  0.3311
  534MOL0     C71997   6.611   2.984   5.368 -0.3519 -0.7681  0.0120
  534MOL0     C71998   6.517   2.966   5.491  0.5810 -0.1963  0.0372
  534MOL0     C71999   6.392   2.895   5.444 -0.8290 -0.1218 -0.0674
  534MOL0    Cl72000   6.295   2.854   5.588 -0.3494 -0.5196 -0.1559
  534MOL0     C72001   7.313   3.419   4.980 -0.0443  0.0847  0.5491
  534MOL0     C72002   7.401   3.519   5.003 -0.6638  0.3950  0.0698
  534MOL0     O72003   7.554   3.646   5.306  1.0415 -0.2786  0.9168
  534MOL0     C72004   7.653   3.868   5.403  0.3469 -0.8003 -0.7134
  534MOL0     C72005   7.718   3.987   5.445  0.6350 -0.4285 -0.2734
  534MOL0     N72006   8.268   4.495   5.005 -0.4870 -0.2758  0.3864
  534MOL0     N72007   8.361   4.548   4.922  0.2963 -1.3995  0.2833
  534MOL0     C72008   8.101   5.380   4.043  1.0885 -0.0069 -0.4807
  534MOL0     C72009   8.019   5.454   3.960 -0.0872  0.1973 -0.0264
  534MOL0     C72010   7.614   5.568   3.783 -0.3061  0.7564  0.7266
  534MOL0     C72011   7.497   5.642   3.821  0.8632  0.5030 -0.3761
  534MOL0     C72012   7.392   5.683   3.736 -0.3059 -0.4075  1.7067
  534MOL0     C72013   7.398   5.630   3.607  0.2658  0.3588  0.3809
  534MOL0     O72014   7.277   5.648   3.542 -0.3638 -0.6126 -0.5665
  534MOL0     C72015   7.266   5.635   3.399  0.4772 -1.3103  0.2286
  534MOL0     C72016   7.256   5.487   3.362 -0.4859  0.6349  0.0762
  534MOL0     C72017   7.278   5.467   3.208 -0.3353 -0.1233  0.2561
  534MOL0     C72018   7.416   5.448   3.140  0.1781  0.3582 -0.0014
  534MOL0     C72019   7.508   5.554   3.154  0.7077 -0.5889 -0.1213
  534MOL0     C72020   7.589   5.645   3.175 -0.1755 -0.9481 -0.1282
  534MOL0     C72021   7.515   5.564   3.565  0.1891  0.0018 -0.2009
  534MOL0     C72022   7.610   5.524   3.646 -0.2485 -0.3903 -0.7148
  534MOL0     H72023   7.793   5.193   3.931 -0.5580  0.2343  1.5994
  534MOL0     H72024   7.934   5.101   4.095 -0.4699 -0.4566 -2.8805
  534MOL0     H72025   8.121   5.011   4.134  1.5151 -0.6454 -4.9870
  534MOL0     H72026   8.267   5.080   4.077 -0.1868 -2.6607 -0.1240
  534MOL0     H72027   8.327   5.114   4.321 -0.5521 -0.6404  0.0944
  534MOL0     H72028   8.207   4.998   4.369 -1.4007  1.2497 -0.8277
  534MOL0     H72029   8.296   4.841   4.191  0.1220  2.0186 -0.0781
  534MOL0     H72030   8.445   4.924   4.203  0.5692 -3.0363 -1.6106
  534MOL0     H72031   8.449   4.874   4.438 -1.4163 -0.1864 -0.3344
  534MOL0     H72032   8.278   4.804   4.421 -1.2993 -1.4470 -0.9828
  534MOL0     H72033   8.383   4.609   4.299  1.4445 -0.3090 -2.0597
  534MOL0     H72034   8.536   4.694   4.289  0.6421  2.7882  3.2211
  534MOL0     H72035   8.538   4.519   4.443 -0.6361  0.6910 -2.2930
  534MOL0     H72036   8.573   4.674   4.516 -1.7153  3.1936 -2.5698
  534MOL0     H72037   8.334   4.646   4.622  2.4343  1.8414  0.8156
  534MOL0     H72038   8.325   4.498   4.522  2.2044 -1.1037 -0.7195
  534MOL0     H72039   8.531   4.561   4.733  1.3340 -1.0822 -0.4744
  534MOL0     H72040   8.505   4.392   4.667 -2.0778 -1.2988 -0.8256
  534MOL0     H72041   8.315   4.261   4.780 -1.8594  0.6910 -0.7994
  534MOL0     H72042   8.103   4.175   4.967 -1.9444 -0.2679  0.2651
  534MOL0     H72043   8.215   4.189   5.098 -0.6881 -1.9308  0.3520
  534MOL0     H72044   7.948   4.337   5.061 -2.0807 -1.4320  1.7449
  534MOL0     H72045   8.074   4.400   5.168  0.3884  0.5328  0.1708
  534MOL0     H72046   8.050   4.160   5.267  1.5659  1.6196  0.7298
  534MOL0     H72047   7.917   4.129   5.148  0.0202  1.3293 -1.3801
  534MOL0     H72048   7.796   4.325   5.226  3.1794 -0.3000 -2.1397
  534MOL0     H72049   7.926   4.358   5.351 -1.2716  0.9693 -0.2647
  534MOL0     H72050   7.676   4.165   5.161  1.4572  1.2117  2.4115
  534MOL0     H72051   7.624   3.861   4.996  0.7480  2.0575 -2.7064
  534MOL0     H72052   7.483   3.970   5.017 -0.7836 -2.1978 -0.6994
  534MOL0     H72053   7.641   4.027   4.970  0.6626  0.7513  1.6721
  534MOL0     H72054   7.285   3.645   5.276  4.1068 -0.0424 -0.8114
  534MOL0     H72055   7.136   3.441   5.264  2.7324  1.4712  2.2794
  534MOL0     H72056   7.116   3.158   5.182 -0.1626  1.8516  3.0078
  534MOL0     H72057   6.990   3.292   5.193 -1.5628 -1.4635  0.3138
  534MOL0     H72058   6.888   3.196   4.979 -2.0583 -3.2018 -1.6916
  534MOL0     H72059   6.962   3.042   5.037 -2.0815 -0.3956 -1.0855
  534MOL0     H72060   6.736   3.060   5.124  0.0219 -1.0426 -1.6622
  534MOL0     H72061   6.770   3.221   5.180  1.2528  0.5724 -0.0354
  534MOL0     H72062   6.901   2.960   5.291 -1.8626 -1.3367  0.6220
  534MOL0     H72063   6.942   3.125   5.343  0.8949 -1.9936  3.0307
  534MOL0     H72064   6.728   3.163   5.438 -1.4317  0.3623 -1.5514
  534MOL0     H72065   6.770   3.018   5.501  0.9817 -2.6574 -0.7543
  534MOL0     H72066   6.562   3.039   5.287 -1.4898 -0.6068  0.7898
  534MOL0     H72067   6.616   2.888   5.315 -2.1827 -0.0829 -1.5071
  534MOL0     H72068   6.490   3.062   5.534  0.1983  0.5642 -1.7911
  534MOL0     H72069   6.568   2.890   5.551  3.0295  0.1005 -1.5104
  534MOL0     H72070   6.422   2.807   5.387  0.0697 -0.5741  1.0675
  534MOL0     H72071   6.344   2.977   5.391 -1.8687 -1.0778 -0.6494
  534MOL0     H72072   7.336   3.366   4.889 -2.4611  2.1035 -1.3611
  534MOL0     H72073   7.472   3.547   4.926  0.8546 -2.2441  0.3811
  534MOL0     H72074   7.636   3.802   5.488 -0.3280 -1.3182 -1.2454
  534MOL0     H72075   7.758   4.006   5.543 -0.0978  1.8304 -0.3623
  534MOL0     H72076   8.202   5.401   4.076  1.4606 -1.2693 -0.7491
  534MOL0     H72077   8.069   5.543   3.923  0.3786 -0.7243 -1.7226
  534MOL0     H72078   7.498   5.667   3.927  1.2620 -2.3183  0.3570
  534MOL0     H72079   7.303   5.733   3.773 -0.6555  0.0117  0.3478
  534MOL0     H72080   7.188   5.700   3.359  1.6294  0.6189  0.9901
  534MOL0     H72081   7.365   5.664   3.363  1.4797 -2.9365  1.5039
  534MOL0     H72082   7.158   5.445   3.388 -0.0751 -1.3862 -1.4218
  534MOL0     H72083   7.333   5.441   3.424  1.3836  1.8555 -1.2257
  534MOL0     H72084   7.249   5.558   3.156 -0.2763 -0.9091 -1.2269
  534MOL0     H72085   7.212   5.385   3.178 -2.7953  2.7631 -2.8683
  534MOL0     H72086   7.397   5.448   3.032 -1.4566  3.1194  0.1795
  534MOL0     H72087   7.449   5.347   3.165  1.0005  0.6666  0.1757
  534MOL0     H72088   7.647   5.726   3.214 -1.2179 -0.1210 -0.2539
  534MOL0     H72089   7.540   5.535   3.464  3.1702 -3.9997  1.4228
  534MOL0     H72090   7.699   5.473   3.610 -0.1170 -1.0274  0.4857
  535MOL0     O72091   7.605   8.886   9.445 -0.0922 -0.8625 -0.1124
  535MOL0     C72092   7.616   8.964   9.540  0.5091 -0.3047  0.6676
  535MOL0     O72093   7.540   9.071   9.568 -0.4595 -0.5541 -0.9254
  535MOL0     C72094   7.418   9.069   9.517  0.9186  0.5302 -1.1428
  535MOL0     C72095   7.318   9.015   9.604  0.1063 -0.5295  0.0228
  535MOL0     C72096   7.183   9.039   9.584  0.8513 -0.8226  0.1750
  535MOL0     C72097   7.135   9.094   9.467 -0.9892  0.3709  0.5387
  535MOL0     O72098   6.997   9.104   9.435  0.4697 -0.1879 -0.3000
  535MOL0     C72099   6.941   8.989   9.370  0.0961  0.0153  0.6334
  535MOL0     C72100   6.792   8.986   9.352 -0.4653  0.6077 -0.1705
  535MOL0     C72101   6.737   8.844   9.326 -1.0052 -0.3862 -0.1500
  535MOL0     C72102   6.592   8.848   9.282 -0.7038 -0.5900 -0.2765
  535MOL0     C72103   6.498   8.917   9.391  0.1077  0.9937  0.2120
  535MOL0     C72104   6.339   8.897   9.388 -0.2134  0.3599  1.0400
  535MOL0     C72105   6.268   8.985   9.506  0.1336  0.7482  0.3988
  535MOL0     C72106   6.119   8.974   9.508 -0.2763 -0.3047  0.5093
  535MOL0     N72107   6.052   9.045   9.629 -0.7145  0.2753 -0.1474
  535MOL0     C72108   5.954   9.142   9.636  0.2516  0.5234 -0.9567
  535MOL0     C72109   5.903   9.140   9.763 -0.3599  0.2339 -0.9972
  535MOL0     C72110   5.789   9.236   9.800  0.3848 -0.2434 -0.1715
  535MOL0     C72111   5.645   9.181   9.796 -0.0014 -0.4207  0.7576
  535MOL0     C72112   5.532   9.296   9.816  0.3997  0.1486  0.0497
  535MOL0     C72113   5.534   9.412   9.718  1.0889  1.0985  0.5404
  535MOL0     O72114   5.548   9.345   9.587 -0.3210  0.5797  0.5602
  535MOL0     C72115   5.460   9.395   9.494  0.0715 -0.1623 -0.7196
  535MOL0     C72116   5.327   9.353   9.500 -0.6103  0.1420 -0.1670
  535MOL0     C72117   5.239   9.399   9.399 -0.6232 -0.5703 -1.1472
  535MOL0     C72118   5.100   9.391   9.439 -0.2164 -0.2182  0.0263
  535MOL0     C72119   5.292   9.466   9.286 -0.3054 -0.2018  0.5300
  535MOL0     C72120   5.204   9.521   9.170 -0.3554  0.6358 -0.4758
  535MOL0     O72121   5.072   9.483   9.172 -0.0693  0.7275  0.6062
  535MOL0     C72122   5.003   9.506   9.051 -0.2818  0.3135 -0.0462
  535MOL0     C72123   4.889   9.578   9.070 -0.4569 -0.6122 -0.2555
  535MOL0     C72124   4.804   9.619   8.968  0.0369 -0.2816 -0.4004
  535MOL0     C72125   4.836   9.563   8.842 -0.2890 -0.3988 -0.1951
  535MOL0     O72126   4.776   9.584   8.722  0.0940 -0.7755 -0.3868
  535MOL0     C72127   4.660   9.664   8.726 -0.7670 -0.4077 -0.4583
  535MOL0     C72128   4.596   9.654   8.585  0.2623  0.5662  0.4892
  535MOL0     C72129   4.572   9.791   8.525 -0.1899  0.2933 -0.5607
  535MOL0     C72130   4.495   9.898   8.608 -0.3935  0.3202 -0.5201
  535MOL0     C72131   4.449  10.005   8.499 -1.0264 -0.4992  0.9254
  535MOL0     C72132   4.423  10.147   8.570  0.5705 -0.6076 -0.7002
  535MOL0     C72133   4.289  10.147   8.641  0.8380 -0.4876 -0.2673
  535MOL0     C72134   4.263  10.283   8.697  0.6216 -0.1211  0.0149
  535MOL0    Cl72135   4.385  10.332   8.808 -0.1416  0.0805  0.4899
  535MOL0     C72136   4.948   9.478   8.825 -0.5064 -0.5275  0.2578
  535MOL0     C72137   5.035   9.451   8.926  0.3378  0.2269  0.0107
  535MOL0     O72138   5.255   9.593   9.085  0.3589  0.5850 -0.1511
  535MOL0     C72139   5.430   9.493   9.275  0.7075  0.1000 -0.3524
  535MOL0     C72140   5.513   9.463   9.380  0.0897  0.4374 -0.2313
  535MOL0     N72141   5.958   9.037   9.835 -0.0812 -0.0806  0.1189
  535MOL0     N72142   6.035   8.977   9.746  0.2591 -0.0289 -0.1654
  535MOL0     C72143   7.234   9.144   9.382  0.6363  0.2057  1.3127
  535MOL0     C72144   7.368   9.141   9.410 -1.1247 -0.3409  0.6187
  535MOL0     C72145   7.740   8.945   9.622  0.1637 -0.2949 -0.2528
  535MOL0     C72146   7.839   8.853   9.584  0.7779 -0.5711 -0.4050
  535MOL0     C72147   7.955   8.833   9.658  0.3175  0.5102  0.8204
  535MOL0     C72148   7.979   8.902   9.770 -0.4987 -0.7678  0.1573
  535MOL0     O72149   8.100   8.884   9.824 -0.0818 -0.5867  0.3318
  535MOL0     C72150   8.214   8.899   9.731 -0.6072  1.5377  0.0151
  535MOL0     C72151   8.349   8.949   9.800  0.7330 -0.8145  0.8110
  535MOL0     C72152   8.329   9.082   9.873  0.0014 -0.5841 -0.7430
  535MOL0     C72153   8.442   9.124   9.966 -0.2858 -0.4566 -0.1492
  535MOL0     C72154   8.467   9.037  10.085  0.3949 -0.0154  1.1297
  535MOL0     C72155   8.470   8.973  10.184 -1.0677 -0.0390  0.0820
  535MOL0     C72156   7.886   8.998   9.808  0.4659  0.5501  0.8065
  535MOL0     C72157   7.762   9.013   9.745  0.2134  0.2630 -0.4714
  535MOL0     H72158   7.345   8.963   9.695  2.3848  2.1290  1.0089
  535MOL0     H72159   7.119   9.009   9.666  0.5490 -0.9321 -0.0948
  535MOL0     H72160   6.988   8.969   9.273 -3.1870 -2.3410 -0.6510
  535MOL0     H72161   6.971   8.904   9.432  0.5898  1.3257  2.2828
  535MOL0     H72162   6.743   9.036   9.436 -2.1197  3.1555 -2.4569
  535MOL0     H72163   6.763   9.053   9.270 -0.0134  0.0947 -0.7631
  535MOL0     H72164   6.799   8.790   9.253  0.7792 -0.5670  1.4362
  535MOL0     H72165   6.739   8.794   9.423  1.6466  2.1704  1.2458
  535MOL0     H72166   6.575   8.907   9.192 -2.9140  1.1132  1.1535
  535MOL0     H72167   6.565   8.744   9.262 -2.5078 -0.6592  2.0913
  535MOL0     H72168   6.514   8.874   9.490 -0.8119  1.0956  0.4204
  535MOL0     H72169   6.511   9.025   9.399 -0.8929  0.9568  3.6449
  535MOL0     H72170   6.302   8.928   9.290  2.3362  0.1597 -0.0653
  535MOL0     H72171   6.309   8.792   9.390  4.3060 -1.1620  3.4757
  535MOL0     H72172   6.304   8.939   9.599  1.0985  0.4172 -0.1252
  535MOL0     H72173   6.277   9.094   9.503 -2.0111  1.0362  2.0276
  535MOL0     H72174   6.089   8.870   9.493 -1.4059  0.1198 -0.3475
  535MOL0     H72175   6.081   9.019   9.416 -0.7504 -0.3902  0.6621
  535MOL0     H72176   5.921   9.205   9.554 -0.2816  1.8766  0.2575
  535MOL0     H72177   5.801   9.281   9.899 -0.0970  0.1385 -0.2820
  535MOL0     H72178   5.799   9.310   9.720 -1.3248 -0.7105 -0.8723
  535MOL0     H72179   5.645   9.097   9.867  2.2135 -0.2737  0.9983
  535MOL0     H72180   5.624   9.127   9.703 -1.3223 -2.3273  2.0781
  535MOL0     H72181   5.543   9.355   9.907  0.1611  4.4774 -2.4642
  535MOL0     H72182   5.427   9.266   9.815  0.5735 -0.4708 -0.5932
  535MOL0     H72183   5.633   9.458   9.727  3.0374 -2.8617  1.2605
  535MOL0     H72184   5.451   9.484   9.724 -0.2425 -0.4485  1.2804
  535MOL0     H72185   5.293   9.313   9.595 -1.0179 -0.0004 -0.3685
  535MOL0     H72186   5.049   9.482   9.404 -0.4466  0.1350  1.2333
  535MOL0     H72187   5.051   9.303   9.396 -2.8929  0.3992  1.5560
  535MOL0     H72188   5.087   9.377   9.547 -0.5056  0.5352  0.0993
  535MOL0     H72189   4.878   9.609   9.174  2.3139 -0.6071  0.0977
  535MOL0     H72190   4.720   9.686   8.981  2.1942  1.9316  4.0555
  535MOL0     H72191   4.596   9.626   8.806 -0.4527 -0.4385 -0.2213
  535MOL0     H72192   4.693   9.767   8.740  0.8411 -0.8824 -0.5471
  535MOL0     H72193   4.658   9.591   8.520  0.5125 -0.2798  1.5194
  535MOL0     H72194   4.498   9.606   8.599 -1.4023  2.5001 -3.2130
  535MOL0     H72195   4.532   9.780   8.424 -0.2133 -0.0306 -0.5175
  535MOL0     H72196   4.663   9.837   8.485 -0.3594  0.3836 -0.8464
  535MOL0     H72197   4.407   9.856   8.658  1.2330  0.0965  2.3059
  535MOL0     H72198   4.550   9.935   8.695 -0.4007  0.1887 -0.4587
  535MOL0     H72199   4.363   9.964   8.446  0.2119  0.5201 -2.0823
  535MOL0     H72200   4.536  10.027   8.436 -2.4544  1.3086 -0.5053
  535MOL0     H72201   4.505  10.165   8.641  0.3969 -1.9756 -0.1303
  535MOL0     H72202   4.418  10.227   8.495 -0.6959 -1.6230 -1.7374
  535MOL0     H72203   4.291  10.068   8.717 -2.6501 -1.7069 -1.2633
  535MOL0     H72204   4.215  10.128   8.563  2.0170  0.6525 -1.7346
  535MOL0     H72205   4.165  10.276   8.746  0.3952 -3.2093 -0.6693
  535MOL0     H72206   4.252  10.348   8.609  1.1008 -1.5053 -1.1069
  535MOL0     H72207   4.970   9.428   8.732  0.3300  1.9819 -1.0018
  535MOL0     H72208   5.126   9.398   8.901  0.6367  0.5701  0.3631
  535MOL0     H72209   5.461   9.547   9.186  0.4156 -3.6878 -2.9866
  535MOL0     H72210   5.617   9.488   9.360  0.2482  0.7475  0.9096
  535MOL0     H72211   7.206   9.193   9.289  0.2954 -1.1748  0.6554
  535MOL0     H72212   7.437   9.201   9.352  1.7173 -2.4127  1.6398
  535MOL0     H72213   7.825   8.800   9.490 -0.2887 -1.6777  0.3439
  535MOL0     H72214   8.022   8.754   9.628 -0.5030  0.7226 -1.8344
  535MOL0     H72215   8.241   8.801   9.690  2.6630  1.5073  1.9585
  535MOL0     H72216   8.199   8.965   9.645 -0.8312 -0.4228 -1.5197
  535MOL0     H72217   8.421   8.962   9.719  0.4817  2.8475  1.0327
  535MOL0     H72218   8.391   8.869   9.861  1.1605 -2.6441 -1.6933
  535MOL0     H72219   8.239   9.068   9.934 -0.9787 -1.5830 -2.3466
  535MOL0     H72220   8.297   9.162   9.805  0.3802 -0.0950 -0.3557
  535MOL0     H72221   8.430   9.228   9.996  4.4168 -0.2640  2.0983
  535MOL0     H72222   8.535   9.114   9.909 -0.9002 -0.1080 -1.2351
  535MOL0     H72223   8.468   8.905  10.266 -0.7183  1.5384  1.4597
  535MOL0     H72224   7.912   9.063   9.891  1.6868 -0.3690  1.1685
  535MOL0     H72225   7.682   9.082   9.771  0.4176  1.2760 -2.2983
  536MOL0     O72226  10.058   1.104   5.398  0.1567 -0.1636  0.3876
  536MOL0     C72227  10.032   1.207   5.332 -0.0481  1.1190 -0.7288
  536MOL0     O72228  10.133   1.293   5.287  0.3027 -0.1823  0.0402
  536MOL0     C72229  10.249   1.298   5.355 -0.3709 -0.2958  0.1207
  536MOL0     C72230  10.365   1.302   5.279  0.0636  0.6657  0.7330
  536MOL0     C72231  10.485   1.304   5.352 -0.1429  0.3972  0.2979
  536MOL0     C72232  10.501   1.322   5.495 -0.1838  0.5303  0.1187
  536MOL0     O72233  10.619   1.334   5.574  0.3809  0.4492  0.2543
  536MOL0     C72234  10.725   1.258   5.524 -1.3566 -0.0782  0.2056
  536MOL0     C72235  10.834   1.233   5.635  1.5479  0.4438 -0.4718
  536MOL0     C72236  10.784   1.136   5.745  0.3649  0.1293 -0.0888
  536MOL0     C72237  10.767   0.991   5.683 -0.7031 -0.7232 -0.4861
  536MOL0     C72238  10.786   0.871   5.769  0.1058 -0.5432  0.4037
  536MOL0     C72239  10.811   0.741   5.691  0.5199 -1.4987  0.5150
  536MOL0     C72240  10.846   0.628   5.781 -0.0251  0.4026  0.3073
  536MOL0     C72241  10.991   0.606   5.840 -0.6520 -0.1393  0.3899
  536MOL0     N72242  11.097   0.594   5.732 -0.2012  0.1095 -0.2329
  536MOL0     C72243  11.100   0.492   5.638  0.0989  0.4242 -0.6039
  536MOL0     C72244  11.191   0.527   5.553  0.2434 -0.5303  0.2144
  536MOL0     C72245  11.212   0.462   5.422  0.0661 -0.1422  0.3191
  536MOL0     C72246  11.154   0.530   5.297 -0.0959  0.1637 -0.2325
  536MOL0     C72247  10.998   0.512   5.301  0.7125  0.5278  0.6792
  536MOL0     C72248  10.945   0.375   5.260 -1.0296  0.1760  0.0515
  536MOL0     O72249  10.803   0.371   5.250  0.0513  0.6893  0.1526
  536MOL0     C72250  10.758   0.348   5.122 -0.1534  0.3244 -0.2257
  536MOL0     C72251  10.677   0.237   5.095  0.5609  0.5469 -0.1185
  536MOL0     C72252  10.608   0.220   4.975 -0.5591  0.8473 -0.4310
  536MOL0     C72253  10.517   0.108   4.965 -0.1186 -0.1162  0.3285
  536MOL0     C72254  10.641   0.312   4.868  1.4713  0.5069 -0.0204
  536MOL0     C72255  10.591   0.294   4.733 -0.4031 -0.4332 -0.0532
  536MOL0     O72256  10.541   0.172   4.696 -0.3709  1.2434  0.0350
  536MOL0     C72257  10.489   0.142   4.576  0.5279  0.0591  0.6238
  536MOL0     C72258  10.514   0.212   4.454  0.4739  0.7926  0.0913
  536MOL0     C72259  10.464   0.157   4.335  0.8401 -0.4119  0.0130
  536MOL0     C72260  10.395   0.029   4.335 -0.3580 -0.9628 -0.0447
  536MOL0     O72261  10.338  -0.018   4.220  0.2001 -0.5304 -0.3795
  536MOL0     C72262  10.380  -0.155   4.184  0.6013 -0.0429 -0.1656
  536MOL0     C72263  10.373  -0.207   4.033 -0.2275 -0.0879 -0.6826
  536MOL0     C72264  10.243  -0.213   3.945  0.5250 -0.0748 -0.2065
  536MOL0     C72265  10.263  -0.307   3.823 -0.3610  0.3641 -0.4174
  536MOL0     C72266  10.149  -0.314   3.735  0.5190  0.9801 -0.2261
  536MOL0     C72267  10.152  -0.433   3.639  0.9184 -0.2964 -0.3074
  536MOL0     C72268  10.048  -0.397   3.537  0.2518 -0.0195 -0.7652
  536MOL0     C72269  10.019  -0.508   3.437 -0.4531 -0.2831  0.2786
  536MOL0    Cl72270   9.914  -0.459   3.303 -0.3133  0.6819  0.5890
  536MOL0     C72271  10.392  -0.042   4.445 -0.4875 -0.1393 -0.4697
  536MOL0     C72272  10.443   0.007   4.562 -0.2967  0.0978 -0.1468
  536MOL0     O72273  10.599   0.397   4.659  0.2768  0.4702 -0.1206
  536MOL0     C72274  10.720   0.431   4.900 -1.1661  0.6008 -0.5427
  536MOL0     C72275  10.785   0.441   5.028  0.3806  0.4664 -0.2333
  536MOL0     N72276  11.231   0.660   5.587 -0.9073 -0.5642  0.5167
  536MOL0     N72277  11.172   0.698   5.690  0.2100 -0.0164 -0.4663
  536MOL0     C72278  10.376   1.325   5.563 -0.3373 -0.4890 -0.2164
  536MOL0     C72279  10.252   1.314   5.492 -0.2686  0.3581 -0.0245
  536MOL0     C72280   9.889   1.245   5.303 -1.1909 -0.6425 -0.5025
  536MOL0     C72281   9.864   1.380   5.279  0.6099 -0.5839 -0.4295
  536MOL0     C72282   9.732   1.431   5.263  0.1180 -0.2486 -0.1821
  536MOL0     C72283   9.623   1.345   5.282 -0.6604 -0.6225  0.4319
  536MOL0     O72284   9.501   1.403   5.264 -0.1190 -0.5405 -0.1537
  536MOL0     C72285   9.392   1.313   5.236  0.4313  0.4943  0.0265
  536MOL0     C72286   9.265   1.397   5.234  1.0053 -0.4712  0.3144
  536MOL0     C72287   9.250   1.488   5.109  0.1896  0.1387  0.3324
  536MOL0     C72288   9.139   1.433   5.015  0.9583  0.3294  0.1981
  536MOL0     C72289   9.012   1.496   5.058  0.8637  0.4040  0.4580
  536MOL0     C72290   8.895   1.531   5.082  0.4939 -0.2866 -0.3520
  536MOL0     C72291   9.650   1.205   5.299  0.4425  0.0923  0.9649
  536MOL0     C72292   9.782   1.152   5.302 -0.2299 -1.1012 -0.2012
  536MOL0     H72293  10.345   1.299   5.172 -2.6420  0.5650  1.1718
  536MOL0     H72294  10.579   1.291   5.299 -0.7474 -3.2213 -0.1868
  536MOL0     H72295  10.701   1.158   5.485 -1.5072  1.0967 -2.9858
  536MOL0     H72296  10.766   1.301   5.433 -2.1199  0.6889  0.2101
  536MOL0     H72297  10.919   1.180   5.592  2.9655 -1.4404  4.0154
  536MOL0     H72298  10.870   1.330   5.672  1.0391  0.9020 -1.1645
  536MOL0     H72299  10.848   1.141   5.833 -0.0210  2.5188  0.1171
  536MOL0     H72300  10.689   1.171   5.787  0.2089  1.8467 -1.7632
  536MOL0     H72301  10.677   0.983   5.621 -0.9981 -0.5294 -0.0844
  536MOL0     H72302  10.845   0.974   5.607 -2.2364 -3.8168 -1.5373
  536MOL0     H72303  10.864   0.883   5.845  0.7588 -0.4995 -0.2653
  536MOL0     H72304  10.693   0.856   5.823  0.2029 -1.5597  0.3057
  536MOL0     H72305  10.719   0.723   5.633  0.0384 -0.0121  0.7507
  536MOL0     H72306  10.896   0.753   5.623 -0.7293  1.2220 -0.7521
  536MOL0     H72307  10.775   0.647   5.862 -2.5750  1.8827 -2.1085
  536MOL0     H72308  10.809   0.532   5.744  1.2603  1.1963 -3.5527
  536MOL0     H72309  11.000   0.510   5.892  2.6955  0.4069  1.0736
  536MOL0     H72310  11.013   0.684   5.914 -0.4013 -0.4687  0.6651
  536MOL0     H72311  11.038   0.403   5.632 -0.6336  0.7501  1.3088
  536MOL0     H72312  11.321   0.450   5.416 -0.1265 -1.4862 -1.4151
  536MOL0     H72313  11.172   0.360   5.423  0.1401 -0.1935  2.3686
  536MOL0     H72314  11.192   0.475   5.210  1.2025 -1.0658  1.0627
  536MOL0     H72315  11.184   0.634   5.286  1.5195 -0.3140 -0.5925
  536MOL0     H72316  10.955   0.575   5.222 -1.6786  0.3944  1.7913
  536MOL0     H72317  10.969   0.550   5.399  2.1726  0.9287  0.9830
  536MOL0     H72318  10.981   0.311   5.341  2.9935  2.4678  0.3164
  536MOL0     H72319  10.998   0.334   5.174  1.6366  1.9143  0.7347
  536MOL0     H72320  10.654   0.172   5.179 -2.9547  3.4094  1.4130
  536MOL0     H72321  10.431   0.141   4.905  0.8579 -2.0495 -2.3289
  536MOL0     H72322  10.562   0.025   4.910  1.6274  0.5439  0.6928
  536MOL0     H72323  10.493   0.062   5.061  1.6568  0.8073  1.2624
  536MOL0     H72324  10.564   0.308   4.459  0.0986  0.9596  0.7363
  536MOL0     H72325  10.461   0.202   4.236 -1.4545 -0.9653 -0.2228
  536MOL0     H72326  10.486  -0.172   4.204  0.8490 -0.2825 -1.5545
  536MOL0     H72327  10.330  -0.229   4.248 -0.3545 -0.8523 -1.7803
  536MOL0     H72328  10.436  -0.144   3.969  1.6088 -1.6883 -0.5539
  536MOL0     H72329  10.407  -0.311   4.036 -0.5613 -0.1830  0.7854
  536MOL0     H72330  10.233  -0.109   3.913  3.1857  0.5069  0.5801
  536MOL0     H72331  10.155  -0.236   4.005 -0.3052  0.0290 -1.3565
  536MOL0     H72332  10.347  -0.277   3.760 -0.3961 -0.3990 -0.8433
  536MOL0     H72333  10.283  -0.406   3.865 -2.5487 -0.8403 -1.9979
  536MOL0     H72334  10.154  -0.225   3.672  0.4657  1.7446  0.8242
  536MOL0     H72335  10.061  -0.313   3.800  2.3396 -2.3341  2.6181
  536MOL0     H72336  10.257  -0.445   3.610  0.6635  0.2369 -1.5252
  536MOL0     H72337  10.128  -0.522   3.697 -1.0647 -0.9079 -1.9576
  536MOL0     H72338  10.071  -0.303   3.486 -0.5673  0.9236  0.5308
  536MOL0     H72339   9.955  -0.382   3.592  0.4396 -1.4461 -0.0107
  536MOL0     H72340   9.975  -0.596   3.486  1.4028 -1.1395  0.4707
  536MOL0     H72341  10.106  -0.553   3.389 -2.3319 -1.8658 -1.8847
  536MOL0     H72342  10.330  -0.131   4.438  0.1630 -0.8458  1.8912
  536MOL0     H72343  10.451  -0.057   4.649  6.5846 -1.6323 -1.4490
  536MOL0     H72344  10.738   0.503   4.821  0.1788  2.6964  1.5367
  536MOL0     H72345  10.858   0.520   5.045  4.1006 -3.0888  1.7863
  536MOL0     H72346  10.360   1.352   5.667  0.3485 -1.5504  0.1795
  536MOL0     H72347  10.162   1.333   5.550 -0.6485 -0.4735 -0.3310
  536MOL0     H72348   9.946   1.449   5.292 -0.6893  1.0964 -0.8426
  536MOL0     H72349   9.711   1.537   5.268  0.3905  0.0543 -3.2012
  536MOL0     H72350   9.417   1.271   5.138 -0.3188  1.1447 -0.4538
  536MOL0     H72351   9.383   1.241   5.317  1.8848  1.4511  1.0961
  536MOL0     H72352   9.255   1.463   5.320  0.6354 -0.9710  0.6580
  536MOL0     H72353   9.178   1.333   5.250 -0.0609  0.7877 -0.2298
  536MOL0     H72354   9.343   1.489   5.050 -0.6239 -0.4593 -1.0116
  536MOL0     H72355   9.231   1.588   5.148 -1.3226  0.3141 -0.7472
  536MOL0     H72356   9.135   1.325   5.032  1.1571  0.1686 -0.7203
  536MOL0     H72357   9.163   1.455   4.910 -1.1266  0.4818 -0.2813
  536MOL0     H72358   8.795   1.548   5.114  1.9094  2.5842  3.1841
  536MOL0     H72359   9.572   1.131   5.308  0.5103 -0.0797  0.2274
  536MOL0     H72360   9.809   1.047   5.311  1.6379 -1.4443 -5.7180
  537MOL0     O72361   6.891  10.296   8.298 -0.2718 -0.0722 -0.2381
  537MOL0     C72362   6.798  10.296   8.377 -0.6153  0.1751 -0.4057
  537MOL0     O72363   6.667  10.255   8.359 -0.5866  0.4939  0.3591
  537MOL0     C72364   6.627  10.219   8.233  0.0320 -0.2237  0.2530
  537MOL0     C72365   6.518  10.279   8.172 -0.7417  0.7511 -0.0211
  537MOL0     C72366   6.478  10.248   8.046 -0.0378  0.7453  0.7089
  537MOL0     C72367   6.542  10.160   7.969 -0.1424  0.2626 -0.5983
  537MOL0     O72368   6.513  10.157   7.838  0.2709  0.7361  0.5613
  537MOL0     C72369   6.494  10.027   7.799 -0.2891  0.2691  0.6417
  537MOL0     C72370   6.445  10.026   7.650  0.0476 -0.6654 -0.2334
  537MOL0     C72371   6.578  10.019   7.571  0.3448 -0.0289  0.5100
  537MOL0     C72372   6.557  10.050   7.419  0.1048 -0.0985 -1.0972
  537MOL0     C72373   6.668  10.003   7.319  0.8681 -0.2068 -0.5649
  537MOL0     C72374   6.664   9.854   7.308 -0.8426 -0.1119  0.2681
  537MOL0     C72375   6.566   9.796   7.208  0.5181 -0.1417  0.1408
  537MOL0     C72376   6.562   9.646   7.202 -0.3417  0.0124  0.5081
  537MOL0     N72377   6.483   9.599   7.077  0.5837 -0.5598 -0.6519
  537MOL0     C72378   6.351   9.634   7.048 -0.5025 -0.8410 -0.3975
  537MOL0     C72379   6.318   9.577   6.933  0.3702  0.1254  0.0021
  537MOL0     C72380   6.204   9.600   6.847  0.8686  0.4625 -0.0478
  537MOL0     C72381   6.247   9.660   6.713 -0.8990 -0.2094 -0.4855
  537MOL0     C72382   6.137   9.662   6.609 -0.3698 -0.2723 -1.0272
  537MOL0     C72383   6.179   9.725   6.476  0.5713 -0.3935  0.5885
  537MOL0     O72384   6.298   9.672   6.408 -0.4664 -0.4359 -0.4517
  537MOL0     C72385   6.315   9.538   6.410 -0.6140 -0.5821 -0.1659
  537MOL0     C72386   6.441   9.473   6.424 -0.0520  0.3819  0.4109
  537MOL0     C72387   6.462   9.330   6.428  0.4991  0.4020  0.5839
  537MOL0     C72388   6.606   9.289   6.439  0.4020 -0.4939 -0.4524
  537MOL0     C72389   6.353   9.237   6.429 -0.8403 -0.6533 -0.6792
  537MOL0     C72390   6.354   9.093   6.451  1.6797 -0.7735  0.8777
  537MOL0     O72391   6.230   9.034   6.458 -0.8433  0.6032  0.5848
  537MOL0     C72392   6.222   8.896   6.456 -0.2752 -0.0064 -0.7987
  537MOL0     C72393   6.159   8.840   6.564 -1.0091  0.1583  0.6097
  537MOL0     C72394   6.140   8.707   6.569  0.3083 -1.0356  0.4064
  537MOL0     C72395   6.205   8.622   6.474 -0.0131 -0.4332 -1.3846
  537MOL0     O72396   6.186   8.483   6.492 -0.5575 -0.3864  0.5429
  537MOL0     C72397   6.310   8.406   6.474  1.3618  0.3855 -0.1555
  537MOL0     C72398   6.287   8.272   6.405 -0.0837 -0.1793 -0.5614
  537MOL0     C72399   6.403   8.164   6.418 -0.1430  0.6581  0.1248
  537MOL0     C72400   6.464   8.166   6.561  0.6403  0.2382 -0.4964
  537MOL0     C72401   6.527   8.034   6.591 -0.5373 -0.1001 -0.6455
  537MOL0     C72402   6.615   8.031   6.721 -0.1374 -1.5845  0.2911
  537MOL0     C72403   6.662   7.888   6.746  0.0668 -1.2279  0.6340
  537MOL0     C72404   6.679   7.871   6.898 -0.1297 -0.2239  0.0351
  537MOL0    Cl72405   6.811   7.985   6.962  0.1993  0.3630 -0.2733
  537MOL0     C72406   6.266   8.678   6.365  0.4976 -0.2011  0.0556
  537MOL0     C72407   6.281   8.816   6.354  0.1980 -0.9959 -0.5304
  537MOL0     O72408   6.457   9.036   6.452 -0.4450 -0.3704 -0.4244
  537MOL0     C72409   6.228   9.304   6.419 -1.3048 -0.0008  0.4158
  537MOL0     C72410   6.219   9.440   6.401 -0.3084  0.4469 -0.6636
  537MOL0     N72411   6.429   9.499   6.897  0.9479  0.5973 -0.4690
  537MOL0     N72412   6.522   9.518   6.979 -0.0059  0.9593  0.3854
  537MOL0     C72413   6.667  10.110   8.023  0.5968  0.8698  0.1018
  537MOL0     C72414   6.692  10.128   8.156  0.9221 -0.6162 -0.0828
  537MOL0     C72415   6.837  10.329   8.515  0.4131  0.2453  0.3794
  537MOL0     C72416   6.741  10.326   8.612 -0.1951  0.0830 -0.1434
  537MOL0     C72417   6.765  10.363   8.745 -0.2089 -0.8554  0.0251
  537MOL0     C72418   6.890  10.415   8.788 -0.0258  0.5665 -0.8651
  537MOL0     O72419   6.909  10.439   8.919  0.9414  0.4154 -0.3374
  537MOL0     C72420   6.896  10.573   8.965  1.0538 -1.0763  0.5205
  537MOL0     C72421   6.798  10.577   9.088 -1.1395 -0.4286  0.1566
  537MOL0     C72422   6.846  10.686   9.194 -0.2231  0.3013  0.6574
  537MOL0     C72423   6.743  10.668   9.307 -0.6433 -0.4434  0.9545
  537MOL0     C72424   6.791  10.724   9.434  0.2018  0.8323 -0.2535
  537MOL0     C72425   6.817  10.787   9.524 -0.8295  0.2298  0.9729
  537MOL0     C72426   6.990  10.428   8.684  0.2538  0.5168 -0.6539
  537MOL0     C72427   6.962  10.394   8.550  0.0337  0.9251 -0.7416
  537MOL0     H72428   6.473  10.364   8.221  1.5835  1.7796  0.4830
  537MOL0     H72429   6.394  10.293   7.995 -1.4307 -4.2745 -2.1183
  537MOL0     H72430   6.581   9.964   7.819 -0.8779 -0.8532 -0.2050
  537MOL0     H72431   6.412   9.984   7.858 -0.1665 -0.2840  0.4177
  537MOL0     H72432   6.380   9.942   7.624 -0.6857  0.2206 -1.3653
  537MOL0     H72433   6.400  10.121   7.620  1.4898 -0.1729 -0.9371
  537MOL0     H72434   6.658  10.083   7.610  0.6774 -1.2406  1.9028
  537MOL0     H72435   6.619   9.918   7.583  1.0683 -0.4138 -3.5308
  537MOL0     H72436   6.473   9.992   7.382 -0.2534 -0.2672 -0.0573
  537MOL0     H72437   6.533  10.157   7.416 -0.6540 -0.0405  2.4770
  537MOL0     H72438   6.657  10.053   7.222 -0.4462 -1.2942 -0.9921
  537MOL0     H72439   6.768  10.030   7.357  1.9001 -0.2821 -3.0382
  537MOL0     H72440   6.763   9.825   7.274 -1.0288 -0.8882  0.3647
  537MOL0     H72441   6.645   9.803   7.403 -1.0937  0.3906  0.4912
  537MOL0     H72442   6.463   9.825   7.230  0.3241  1.9197 -2.8477
  537MOL0     H72443   6.595   9.833   7.109  3.1155 -2.9817 -0.3110
  537MOL0     H72444   6.516   9.610   7.294 -1.0968  1.0585  0.5557
  537MOL0     H72445   6.659   9.598   7.184 -0.0923  0.8335 -0.4515
  537MOL0     H72446   6.292   9.719   7.082  1.1645  1.0701 -2.0316
  537MOL0     H72447   6.152   9.505   6.832  0.5064  0.6178  0.2024
  537MOL0     H72448   6.134   9.667   6.897  0.8335  0.9419 -0.7262
  537MOL0     H72449   6.318   9.587   6.673 -0.7806  0.3577 -1.3208
  537MOL0     H72450   6.279   9.764   6.722 -1.2801 -0.0231 -1.2614
  537MOL0     H72451   6.064   9.730   6.654 -3.8311 -2.8356 -2.2963
  537MOL0     H72452   6.083   9.567   6.598  0.3841 -0.7680 -0.5107
  537MOL0     H72453   6.187   9.833   6.493 -0.3554 -0.2685  0.3189
  537MOL0     H72454   6.100   9.719   6.401  2.9545  1.2722 -2.2591
  537MOL0     H72455   6.522   9.544   6.421 -0.6455  1.0463 -0.1948
  537MOL0     H72456   6.637   9.249   6.536 -0.1422 -1.4484 -0.6523
  537MOL0     H72457   6.620   9.214   6.360  0.8704 -0.7174 -0.1617
  537MOL0     H72458   6.666   9.371   6.398 -1.2766  0.7957 -0.4313
  537MOL0     H72459   6.137   8.897   6.654  1.2355  0.7550  0.8343
  537MOL0     H72460   6.078   8.666   6.648 -0.2324  0.5492  0.8575
  537MOL0     H72461   6.390   8.461   6.423  1.6201 -0.9269 -1.2458
  537MOL0     H72462   6.350   8.385   6.574 -2.3685  1.5707  1.7667
  537MOL0     H72463   6.193   8.226   6.438  0.5101 -1.8854 -1.1259
  537MOL0     H72464   6.274   8.279   6.296  0.7155 -1.9311 -0.8164
  537MOL0     H72465   6.481   8.195   6.348  0.2224 -0.2204  0.1242
  537MOL0     H72466   6.373   8.061   6.397  2.2638  0.3042 -2.0859
  537MOL0     H72467   6.541   8.242   6.575  0.3695  0.5569 -0.7064
  537MOL0     H72468   6.385   8.185   6.634 -0.1781 -1.3715 -0.9128
  537MOL0     H72469   6.595   8.009   6.509 -1.3866  1.5621 -1.9078
  537MOL0     H72470   6.442   7.967   6.608 -2.0933  1.9763  0.0978
  537MOL0     H72471   6.700   8.097   6.699 -0.2151 -2.0497 -1.5767
  537MOL0     H72472   6.556   8.069   6.805 -0.6788 -5.0240  1.6332
  537MOL0     H72473   6.754   7.879   6.688 -1.1858 -1.1590 -1.5014
  537MOL0     H72474   6.584   7.823   6.705 -0.1765 -2.9532  3.5615
  537MOL0     H72475   6.722   7.775   6.928 -1.0095  0.5787  4.6869
  537MOL0     H72476   6.586   7.901   6.947 -0.4223  1.4453 -1.4547
  537MOL0     H72477   6.289   8.618   6.278 -3.5183 -0.6967 -0.8509
  537MOL0     H72478   6.326   8.875   6.274 -1.0230 -1.8217 -1.8699
  537MOL0     H72479   6.132   9.253   6.408 -2.5981  2.7084 -2.4184
  537MOL0     H72480   6.118   9.475   6.382 -1.1357 -2.6037 -2.7372
  537MOL0     H72481   6.735  10.059   7.955  0.7262 -1.2276  1.7136
  537MOL0     H72482   6.782  10.083   8.197 -0.1365 -2.9225 -0.1386
  537MOL0     H72483   6.645  10.277   8.600 -0.8531  1.5400 -0.9922
  537MOL0     H72484   6.686  10.359   8.819  0.8384  1.4455  1.3498
  537MOL0     H72485   6.992  10.598   9.012  0.0265  0.6195  1.8543
  537MOL0     H72486   6.867  10.646   8.889  2.4512  2.8079  3.3852
  537MOL0     H72487   6.811  10.488   9.150  0.4757  0.0589  0.5674
  537MOL0     H72488   6.693  10.591   9.062 -1.7080 -5.0481 -1.0402
  537MOL0     H72489   6.843  10.789   9.156  1.8727  1.7280  3.9428
  537MOL0     H72490   6.952  10.671   9.217  0.0358 -1.5475 -1.3773
  537MOL0     H72491   6.705  10.567   9.324 -1.9635 -0.0558  0.4864
  537MOL0     H72492   6.653  10.724   9.280  0.6589  0.3626 -2.1705
  537MOL0     H72493   6.848  10.852   9.604  0.4629  1.1790 -0.2361
  537MOL0     H72494   7.084  10.472   8.715 -0.2824  0.9183  0.4716
  537MOL0     H72495   7.035  10.414   8.472  0.0451  4.4631  0.0166
  538MOL0     O72496   2.979   5.801   8.516  0.2550 -1.0987  0.2216
  538MOL0     C72497   2.893   5.873   8.455 -0.4558  0.7183  0.2151
  538MOL0     O72498   2.908   5.983   8.374  0.0574  0.7013 -0.0151
  538MOL0     C72499   3.033   6.049   8.368 -0.0375  0.6036  0.4111
  538MOL0     C72500   3.023   6.185   8.386 -0.2965 -0.3000 -0.8326
  538MOL0     C72501   3.145   6.250   8.398 -0.4568 -0.1938  0.5378
  538MOL0     C72502   3.260   6.194   8.383 -0.6582  0.8860 -0.2494
  538MOL0     O72503   3.367   6.267   8.404  0.2407 -0.2912  0.4806
  538MOL0     C72504   3.465   6.216   8.494 -0.2515  0.3866  0.4245
  538MOL0     C72505   3.561   6.312   8.559 -0.2823  0.6600  0.6057
  538MOL0     C72506   3.486   6.406   8.645  0.7263  0.1857  0.6419
  538MOL0     C72507   3.568   6.498   8.731  0.3802  1.6636  0.5276
  538MOL0     C72508   3.468   6.586   8.792  0.5286 -0.3434  0.2639
  538MOL0     C72509   3.530   6.696   8.881 -0.0155 -0.3870 -0.3214
  538MOL0     C72510   3.449   6.822   8.916  0.5170 -0.5439 -1.0397
  538MOL0     C72511   3.305   6.794   8.961  0.3884  0.0551  0.4508
  538MOL0     N72512   3.205   6.910   8.969 -0.2405  0.3398  0.2908
  538MOL0     C72513   3.180   6.994   8.863  0.2335  0.5556  0.5209
  538MOL0     C72514   3.070   7.066   8.907 -0.0206  0.4452  0.8305
  538MOL0     C72515   2.995   7.169   8.829  0.1134 -0.0463 -0.3333
  538MOL0     C72516   2.858   7.190   8.869  0.4132 -0.0000  1.1202
  538MOL0     C72517   2.790   7.317   8.805  0.6536 -1.2338 -0.0493
  538MOL0     C72518   2.633   7.301   8.815  0.4505 -0.3891 -0.8341
  538MOL0     O72519   2.576   7.348   8.937 -0.4203  0.2169 -0.1985
  538MOL0     C72520   2.584   7.488   8.964 -0.1378  0.1573  0.4396
  538MOL0     C72521   2.563   7.519   9.105  0.4934 -0.5906  0.8497
  538MOL0     C72522   2.559   7.650   9.151 -0.1705  0.2180 -0.2858
  538MOL0     C72523   2.508   7.660   9.294 -0.6359 -0.6052  0.0833
  538MOL0     C72524   2.587   7.757   9.064  0.6296  0.3230  0.5469
  538MOL0     C72525   2.596   7.895   9.106 -0.1694  0.0044 -1.3252
  538MOL0     O72526   2.686   7.973   9.049  0.0847  0.1172  0.2600
  538MOL0     C72527   2.701   8.100   9.103  0.5945  0.0624 -0.3072
  538MOL0     C72528   2.721   8.116   9.241 -0.5185  0.1330 -1.4061
  538MOL0     C72529   2.714   8.244   9.294 -0.8551 -0.3042  0.6813
  538MOL0     C72530   2.722   8.351   9.204  0.7834  0.3726 -0.2230
  538MOL0     O72531   2.728   8.469   9.271 -0.5967  0.4858 -0.1364
  538MOL0     C72532   2.761   8.598   9.203 -0.2494 -0.3839 -0.0254
  538MOL0     C72533   2.812   8.681   9.314  0.3241 -0.9501  0.4578
  538MOL0     C72534   2.855   8.822   9.272 -0.3392  0.1041  0.3048
  538MOL0     C72535   3.001   8.821   9.241 -0.6317 -0.2583  0.6853
  538MOL0     C72536   3.055   8.949   9.172  0.7830  0.0521 -0.6440
  538MOL0     C72537   3.208   8.946   9.159  0.4447  0.5143 -0.6915
  538MOL0     C72538   3.257   8.839   9.063 -0.2037 -0.5299 -0.6822
  538MOL0     C72539   3.231   8.879   8.913 -0.2460  0.4227 -0.2633
  538MOL0    Cl72540   3.265   8.747   8.789  0.4193  0.1391  0.2354
  538MOL0     C72541   2.730   8.331   9.066 -0.6865  0.2628  0.2918
  538MOL0     C72542   2.724   8.202   9.019 -0.2558 -0.1475  0.2164
  538MOL0     O72543   2.506   7.938   9.177 -0.4108  0.4067 -0.1950
  538MOL0     C72544   2.613   7.721   8.931 -0.2549  0.2082  0.3786
  538MOL0     C72545   2.617   7.594   8.874  0.2783 -0.3469 -0.1794
  538MOL0     N72546   3.019   7.001   9.020  1.1936  0.0666  0.1733
  538MOL0     N72547   3.112   6.918   9.058  0.6909 -0.2339  0.7889
  538MOL0     C72548   3.267   6.057   8.352 -0.0178  1.1871  0.1537
  538MOL0     C72549   3.152   5.980   8.341 -0.2038 -0.2982  0.3291
  538MOL0     C72550   2.757   5.821   8.464  0.5689  0.8131 -0.4830
  538MOL0     C72551   2.646   5.886   8.417  0.9686  0.6615 -0.0409
  538MOL0     C72552   2.516   5.831   8.430  0.3648 -0.0330  0.0714
  538MOL0     C72553   2.492   5.708   8.489  0.0597 -0.7611 -0.9238
  538MOL0     O72554   2.379   5.636   8.484  0.2200 -0.3413 -0.6068
  538MOL0     C72555   2.253   5.698   8.441  0.6207 -0.6950  0.1412
  538MOL0     C72556   2.116   5.625   8.465 -0.1438 -0.9500 -0.5078
  538MOL0     C72557   2.076   5.531   8.350 -0.0101 -0.3040  0.0129
  538MOL0     C72558   2.158   5.413   8.327 -0.3277  0.5311 -0.0853
  538MOL0     C72559   2.079   5.318   8.240 -0.0233 -1.1134 -0.1959
  538MOL0     C72560   2.015   5.227   8.193 -0.5215  1.0551  0.4298
  538MOL0     C72561   2.599   5.652   8.559 -0.2201 -0.2394 -0.1417
  538MOL0     C72562   2.732   5.699   8.543  0.6583 -0.5711 -0.6165
  538MOL0     H72563   2.931   6.230   8.423 -1.6511 -3.8216  0.5405
  538MOL0     H72564   3.139   6.356   8.419  1.3700 -0.0268  0.3856
  538MOL0     H72565   3.426   6.159   8.579  1.0434  2.0584  2.2758
  538MOL0     H72566   3.528   6.149   8.435 -0.4554 -0.8211  1.5376
  538MOL0     H72567   3.650   6.266   8.603  1.6176 -0.0509 -3.4557
  538MOL0     H72568   3.602   6.364   8.472  2.1613 -0.6569  0.8753
  538MOL0     H72569   3.422   6.469   8.582  0.6324 -1.5397 -1.0863
  538MOL0     H72570   3.426   6.350   8.717 -1.7256  1.1060 -0.5513
  538MOL0     H72571   3.622   6.441   8.808  2.0153 -2.8553 -3.4616
  538MOL0     H72572   3.641   6.555   8.673  0.2127  0.6630 -0.7060
  538MOL0     H72573   3.419   6.632   8.705  1.0812 -0.5947 -0.1856
  538MOL0     H72574   3.389   6.528   8.842 -0.4101  2.0454  1.7188
  538MOL0     H72575   3.576   6.656   8.971  0.7656 -0.8915 -0.9235
  538MOL0     H72576   3.613   6.745   8.829 -0.2047  1.4029  0.9767
  538MOL0     H72577   3.497   6.870   9.002  0.5465  0.3519 -1.5488
  538MOL0     H72578   3.451   6.890   8.830 -1.3553  2.1938  0.9086
  538MOL0     H72579   3.302   6.736   9.054 -3.3881  1.1601  1.1965
  538MOL0     H72580   3.257   6.731   8.885 -0.8784  2.4690 -0.9057
  538MOL0     H72581   3.237   6.994   8.771 -0.0758  1.3977  0.3184
  538MOL0     H72582   3.044   7.267   8.830 -0.9768  0.5262 -0.9866
  538MOL0     H72583   2.995   7.132   8.726 -2.5815  1.2080 -0.8792
  538MOL0     H72584   2.836   7.188   8.976 -2.7286 -2.2946  0.5863
  538MOL0     H72585   2.804   7.105   8.824  3.7934 -0.3908 -2.7397
  538MOL0     H72586   2.824   7.313   8.700  1.9859  2.1053  0.1179
  538MOL0     H72587   2.825   7.411   8.849 -0.7450 -0.9783  0.5672
  538MOL0     H72588   2.602   7.197   8.800 -1.1813  0.1670 -1.5911
  538MOL0     H72589   2.589   7.364   8.737 -0.7681  0.8637  0.7845
  538MOL0     H72590   2.520   7.445   9.171 -1.4188  3.8225  5.1887
  538MOL0     H72591   2.405   7.693   9.308 -1.0164 -1.5122 -0.5267
  538MOL0     H72592   2.497   7.558   9.331  1.7496 -1.4498 -1.3179
  538MOL0     H72593   2.583   7.709   9.357 -0.5556 -0.0028 -0.4708
  538MOL0     H72594   2.719   8.033   9.310 -1.2665 -0.2475 -1.8728
  538MOL0     H72595   2.705   8.269   9.399  0.5428  0.8614  0.5577
  538MOL0     H72596   2.828   8.580   9.119 -1.1043 -2.3526 -0.3462
  538MOL0     H72597   2.668   8.641   9.162 -0.8214  0.3783  1.9446
  538MOL0     H72598   2.723   8.698   9.375  1.3909  2.5798  1.3119
  538MOL0     H72599   2.896   8.647   9.376  2.3100  1.0268 -0.9804
  538MOL0     H72600   2.846   8.884   9.362 -0.6126 -0.8611  0.9526
  538MOL0     H72601   2.786   8.862   9.196 -1.2070 -2.1953 -0.2131
  538MOL0     H72602   3.064   8.808   9.329 -1.4911 -2.1142  1.0685
  538MOL0     H72603   3.019   8.736   9.175 -0.9794  1.2586 -1.4867
  538MOL0     H72604   3.028   9.049   9.208 -1.2107  0.4477 -2.9169
  538MOL0     H72605   3.012   8.941   9.071  0.6882 -2.2525 -0.4771
  538MOL0     H72606   3.233   9.046   9.123  4.5189 -1.0171 -2.7675
  538MOL0     H72607   3.269   8.949   9.250 -0.5352 -0.6145  0.0388
  538MOL0     H72608   3.219   8.738   9.080 -0.9709 -0.0142  0.8143
  538MOL0     H72609   3.365   8.827   9.078 -0.0412  1.0454 -0.3586
  538MOL0     H72610   3.285   8.970   8.886 -1.9601  1.1180 -1.5745
  538MOL0     H72611   3.128   8.908   8.893 -0.7460 -2.7783 -3.2071
  538MOL0     H72612   2.750   8.417   9.004 -0.2448  0.6869  0.9989
  538MOL0     H72613   2.732   8.190   8.911  2.0961 -3.5820  0.6290
  538MOL0     H72614   2.642   7.792   8.854  1.8030 -0.9636  0.0056
  538MOL0     H72615   2.626   7.581   8.766  3.5416 -0.5942  0.0350
  538MOL0     H72616   3.363   6.008   8.337 -0.7109  0.1190 -0.8663
  538MOL0     H72617   3.147   5.875   8.315 -0.3684  0.2043 -1.8386
  538MOL0     H72618   2.643   5.973   8.352 -1.8934  0.7199  0.0453
  538MOL0     H72619   2.442   5.899   8.388  2.3508  3.1619  1.3999
  538MOL0     H72620   2.240   5.789   8.501  1.5837  1.6724 -2.9875
  538MOL0     H72621   2.261   5.727   8.336 -1.7275  0.4177  0.2065
  538MOL0     H72622   2.032   5.694   8.478  1.1290  1.1150 -2.5662
  538MOL0     H72623   2.127   5.582   8.565  0.5132  2.7849  1.2044
  538MOL0     H72624   2.071   5.586   8.255 -0.3655 -2.0873 -1.0423
  538MOL0     H72625   1.971   5.503   8.364 -0.3227 -0.0349 -1.5753
  538MOL0     H72626   2.187   5.375   8.426 -0.5966  0.5499 -0.0003
  538MOL0     H72627   2.251   5.439   8.274  0.3013 -0.3210  0.5666
  538MOL0     H72628   1.941   5.161   8.151 -0.9387  1.1524  1.0085
  538MOL0     H72629   2.570   5.567   8.620  0.6046  1.0672  2.1732
  538MOL0     H72630   2.812   5.645   8.592 -0.9042 -0.8097  1.8223
  539MOL0     O72631   4.836   7.345   1.746  0.1404  1.0792 -0.0044
  539MOL0     C72632   4.848   7.313   1.627 -0.0152  1.2511 -0.3466
  539MOL0     O72633   4.873   7.389   1.521 -0.4664  0.0066 -0.0913
  539MOL0     C72634   4.919   7.509   1.550  0.9216 -0.4538  0.0719
  539MOL0     C72635   4.825   7.613   1.524  0.2457  1.0606 -0.1398
  539MOL0     C72636   4.854   7.749   1.547 -0.9221 -0.1978  0.4466
  539MOL0     C72637   4.982   7.783   1.589  0.8387 -0.2784 -0.3069
  539MOL0     O72638   5.011   7.914   1.604  0.1487  0.0176 -0.5427
  539MOL0     C72639   5.129   7.941   1.675  0.2745  0.6240 -0.1981
  539MOL0     C72640   5.129   8.093   1.724  0.0090  0.1941  0.1381
  539MOL0     C72641   5.222   8.176   1.644  0.1178 -0.1076  0.1978
  539MOL0     C72642   5.236   8.310   1.708  0.6138  0.4228  0.1107
  539MOL0     C72643   5.292   8.412   1.607  0.6307 -1.0720 -0.5806
  539MOL0     C72644   5.337   8.537   1.692  0.7223  0.2980 -0.7763
  539MOL0     C72645   5.351   8.639   1.586 -0.0169  0.7486 -0.0537
  539MOL0     C72646   5.377   8.789   1.636  0.3510  0.5167 -0.3389
  539MOL0     N72647   5.513   8.832   1.672 -0.1911 -0.2612 -0.7161
  539MOL0     C72648   5.568   8.807   1.792 -0.4547 -0.6926  0.3205
  539MOL0     C72649   5.670   8.899   1.783 -0.5344  0.7319 -0.0704
  539MOL0     C72650   5.776   8.910   1.887 -0.4300 -0.4869 -0.0564
  539MOL0     C72651   5.914   8.957   1.838  0.1128  0.3542 -0.3967
  539MOL0     C72652   6.023   8.951   1.943  0.1255 -0.2450 -0.0769
  539MOL0     C72653   6.165   8.951   1.883  0.9160 -0.2857  0.4851
  539MOL0     O72654   6.256   8.893   1.979 -0.0833  0.3141  0.5810
  539MOL0     C72655   6.381   8.863   1.932  0.2014  0.3813  0.4165
  539MOL0     C72656   6.457   8.921   1.835 -0.8114  0.6033  0.2269
  539MOL0     C72657   6.587   8.883   1.807 -0.4571 -0.7032 -0.3399
  539MOL0     C72658   6.668   8.958   1.699  0.0219  0.0795  0.1125
  539MOL0     C72659   6.643   8.781   1.885 -0.5538  0.8325 -0.0538
  539MOL0     C72660   6.781   8.735   1.868  0.0790  0.4760 -0.2790
  539MOL0     O72661   6.842   8.717   1.992  0.2056 -0.5320 -0.1111
  539MOL0     C72662   6.955   8.623   2.000  0.9561  0.3122  0.7449
  539MOL0     C72663   7.088   8.667   2.033 -0.1081 -0.6873 -0.6554
  539MOL0     C72664   7.194   8.585   2.041  1.0285 -0.7210 -0.0323
  539MOL0     C72665   7.172   8.450   2.035  0.3741  0.9720 -0.0664
  539MOL0     O72666   7.283   8.378   2.013  0.3557  0.7659 -0.1483
  539MOL0     C72667   7.284   8.311   1.885  0.2965 -0.0580  0.5473
  539MOL0     C72668   7.424   8.241   1.886  0.2760 -0.4370  0.2466
  539MOL0     C72669   7.417   8.130   1.781  0.9143 -0.3697 -0.3513
  539MOL0     C72670   7.548   8.053   1.761  0.6609 -0.6552 -0.3091
  539MOL0     C72671   7.543   7.938   1.664  0.4765 -0.4681 -0.2444
  539MOL0     C72672   7.489   7.961   1.520 -0.5332 -0.0118 -0.0080
  539MOL0     C72673   7.476   7.835   1.436 -0.5782 -0.4331  0.0725
  539MOL0     C72674   7.407   7.870   1.303  0.3974 -0.2998  0.1813
  539MOL0    Cl72675   7.372   8.042   1.289 -0.0009 -0.1994 -0.0713
  539MOL0     C72676   7.043   8.401   2.012  0.2287  0.5890  0.4475
  539MOL0     C72677   6.940   8.485   1.977 -0.1163  0.1066 -0.0534
  539MOL0     O72678   6.831   8.690   1.765 -0.1013 -0.1232 -1.0196
  539MOL0     C72679   6.566   8.714   1.983 -0.2785  0.4904  0.5684
  539MOL0     C72680   6.437   8.757   2.011  0.1190  0.3124 -0.0079
  539MOL0     N72681   5.677   8.968   1.669 -0.4357 -0.6865 -0.5637
  539MOL0     N72682   5.574   8.929   1.606 -0.4145 -0.0213 -0.3404
  539MOL0     C72683   5.081   7.678   1.608 -0.4263 -0.1916  0.4219
  539MOL0     C72684   5.044   7.545   1.591 -0.2020 -0.5249 -0.7738
  539MOL0     C72685   4.842   7.160   1.598 -0.9788  0.1211  0.1008
  539MOL0     C72686   4.863   7.074   1.705 -0.4958 -0.5427  0.2280
  539MOL0     C72687   4.859   6.932   1.691 -0.1632 -0.1965  0.5064
  539MOL0     C72688   4.854   6.873   1.560 -0.0522 -0.4673 -0.4752
  539MOL0     O72689   4.848   6.740   1.545  0.6736 -0.6759 -0.3895
  539MOL0     C72690   4.871   6.645   1.655  0.2576  0.5655  0.2196
  539MOL0     C72691   5.023   6.612   1.681 -0.5953  0.1858 -1.6315
  539MOL0     C72692   5.110   6.564   1.569 -0.6937  0.1261 -0.0039
  539MOL0     C72693   5.244   6.506   1.612  0.3574  1.0050  0.4490
  539MOL0     C72694   5.321   6.462   1.493 -0.5382  0.5168 -0.0304
  539MOL0     C72695   5.390   6.433   1.408  0.1373 -0.4360  1.3133
  539MOL0     C72696   4.834   6.957   1.455 -0.4941 -0.1940 -0.3304
  539MOL0     C72697   4.832   7.096   1.474 -0.0020 -0.1020  0.6452
  539MOL0     H72698   4.726   7.583   1.491  1.2406 -2.0200 -0.6459
  539MOL0     H72699   4.780   7.828   1.541  1.0167  1.6029 -1.4450
  539MOL0     H72700   5.133   7.884   1.768 -2.3672  1.0929  0.2852
  539MOL0     H72701   5.214   7.907   1.615 -0.3120  0.8113 -1.1546
  539MOL0     H72702   5.026   8.128   1.716 -0.1444  0.0813  1.4810
  539MOL0     H72703   5.155   8.093   1.830 -1.1228 -0.6722  0.4355
  539MOL0     H72704   5.318   8.125   1.634  2.0152  3.2113 -0.1403
  539MOL0     H72705   5.175   8.182   1.545  0.2313  3.0178  0.2387
  539MOL0     H72706   5.137   8.352   1.729  0.2800 -0.9692  1.5210
  539MOL0     H72707   5.308   8.311   1.791  1.5668  0.2117 -0.6920
  539MOL0     H72708   5.383   8.370   1.565  1.8601 -0.2372  1.1356
  539MOL0     H72709   5.210   8.432   1.538 -0.2240 -1.8517  0.1798
  539MOL0     H72710   5.252   8.559   1.758 -0.9395 -3.4642 -1.4132
  539MOL0     H72711   5.429   8.528   1.749  1.8256  1.3209 -2.3125
  539MOL0     H72712   5.428   8.609   1.515 -0.4423  0.9945 -0.6266
  539MOL0     H72713   5.257   8.641   1.530 -2.2632 -1.3280  3.2636
  539MOL0     H72714   5.319   8.807   1.726 -1.2317  2.2276 -1.6305
  539MOL0     H72715   5.336   8.862   1.566  0.5139  0.2579 -0.7115
  539MOL0     H72716   5.543   8.736   1.870  0.9525  1.2747  2.6695
  539MOL0     H72717   5.748   8.993   1.952 -2.6962 -0.4827 -0.9610
  539MOL0     H72718   5.785   8.817   1.943  0.7088 -0.5344 -0.2921
  539MOL0     H72719   5.897   9.056   1.796 -2.1230 -0.1939 -0.8833
  539MOL0     H72720   5.946   8.880   1.767  0.9830 -3.9930  4.1341
  539MOL0     H72721   6.003   8.862   2.003  0.5025  1.2380  2.4436
  539MOL0     H72722   6.012   9.027   2.022 -1.9277  0.8800 -1.3486
  539MOL0     H72723   6.192   9.045   1.833 -0.1117 -0.1342  0.1848
  539MOL0     H72724   6.158   8.886   1.795 -4.9924 -1.0137  1.0550
  539MOL0     H72725   6.404   8.995   1.776 -0.0524  0.3048 -0.8694
  539MOL0     H72726   6.664   8.904   1.603  1.6840  0.5390 -0.2503
  539MOL0     H72727   6.626   9.058   1.689 -3.3875 -1.3386 -1.0571
  539MOL0     H72728   6.776   8.954   1.719  0.3368 -1.5362 -1.5425
  539MOL0     H72729   7.095   8.771   2.064 -1.7371 -2.0256  5.5913
  539MOL0     H72730   7.291   8.630   2.056  1.7062 -1.9569 -0.5570
  539MOL0     H72731   7.206   8.235   1.890 -2.2903  2.3577 -0.0783
  539MOL0     H72732   7.267   8.382   1.803  2.2823  1.9096  1.7192
  539MOL0     H72733   7.505   8.312   1.863  1.6657 -1.4466  1.7750
  539MOL0     H72734   7.441   8.185   1.979 -1.4519 -0.5780  0.5070
  539MOL0     H72735   7.380   8.180   1.691 -3.4059 -3.9719 -0.9280
  539MOL0     H72736   7.340   8.057   1.804 -0.3904  0.5236 -1.6932
  539MOL0     H72737   7.620   8.131   1.732 -0.6095  0.1254 -1.4966
  539MOL0     H72738   7.574   8.010   1.858 -0.2648 -0.9754 -0.1963
  539MOL0     H72739   7.499   7.852   1.715  1.2545 -2.5831 -2.8737
  539MOL0     H72740   7.648   7.908   1.652  1.0214  1.1968  0.0327
  539MOL0     H72741   7.388   8.002   1.532  0.2974  2.3278 -0.4666
  539MOL0     H72742   7.556   8.042   1.489 -1.3006  1.6808  2.4393
  539MOL0     H72743   7.414   7.757   1.480  3.1157 -3.6130  0.2147
  539MOL0     H72744   7.571   7.787   1.411 -2.9861 -6.1673  0.3886
  539MOL0     H72745   7.309   7.822   1.311  2.3914 -5.1031 -0.5719
  539MOL0     H72746   7.460   7.830   1.216  0.7679 -1.5939  0.9717
  539MOL0     H72747   7.043   8.295   1.991  4.6098  0.5368 -0.3027
  539MOL0     H72748   6.842   8.448   1.947  1.1721 -4.1880  0.4394
  539MOL0     H72749   6.616   8.644   2.050 -2.3952 -0.6087  1.0863
  539MOL0     H72750   6.384   8.726   2.100 -0.9390  3.3629  0.5717
  539MOL0     H72751   5.180   7.703   1.646 -0.8842  2.0779  0.2727
  539MOL0     H72752   5.115   7.464   1.595  0.3014 -0.0419  1.9370
  539MOL0     H72753   4.872   7.102   1.810 -1.2865 -0.6748  0.3386
  539MOL0     H72754   4.881   6.871   1.778  0.4456 -1.0957 -0.2566
  539MOL0     H72755   4.823   6.675   1.748 -0.9214 -2.0089  0.5217
  539MOL0     H72756   4.834   6.544   1.635 -1.2883  1.1941 -0.1827
  539MOL0     H72757   5.027   6.535   1.759 -2.2851 -1.2135 -2.8529
  539MOL0     H72758   5.058   6.696   1.742 -0.4948 -2.0017  1.5465
  539MOL0     H72759   5.136   6.659   1.523 -1.5842  1.4970  2.1254
  539MOL0     H72760   5.056   6.499   1.500  1.4914  1.4299 -3.1498
  539MOL0     H72761   5.223   6.429   1.688 -0.1784  2.2303  1.5997
  539MOL0     H72762   5.307   6.583   1.658  2.5833  0.0671 -0.8809
  539MOL0     H72763   5.448   6.402   1.323 -4.6058  2.0101 -3.4479
  539MOL0     H72764   4.804   6.914   1.359  1.8409 -0.3516 -1.0360
  539MOL0     H72765   4.814   7.156   1.385 -4.7871 -2.2293 -0.1639
  540MOL0     O72766   2.645   2.659   4.900 -0.8309 -0.4794 -0.3981
  540MOL0     C72767   2.695   2.770   4.906 -0.0172  0.9313 -0.1010
  540MOL0     O72768   2.633   2.871   4.970 -0.0419  0.4491  0.8063
  540MOL0     C72769   2.495   2.865   4.990 -1.4883 -0.0684  0.7178
  540MOL0     C72770   2.392   2.805   4.905  0.3415 -0.4390 -0.0748
  540MOL0     C72771   2.257   2.828   4.947  1.0526 -0.0293 -0.1485
  540MOL0     C72772   2.220   2.884   5.070 -0.6585 -0.1365  0.4708
  540MOL0     O72773   2.088   2.891   5.108  0.5846 -0.8482  0.0018
  540MOL0     C72774   2.058   2.855   5.246 -0.7311  0.5043  0.3438
  540MOL0     C72775   2.087   2.713   5.288  0.6307  0.5217  0.2477
  540MOL0     C72776   1.968   2.617   5.276  0.6586 -0.2376  0.0823
  540MOL0     C72777   2.002   2.472   5.302 -0.1071 -0.7125 -0.3888
  540MOL0     C72778   1.886   2.373   5.281 -0.6869 -0.5357 -0.0645
  540MOL0     C72779   1.947   2.232   5.280 -0.8147  1.3298  0.2416
  540MOL0     C72780   1.976   2.169   5.419  0.3006 -0.2325 -0.1658
  540MOL0     C72781   2.127   2.168   5.461  0.3482 -1.2385  0.6572
  540MOL0     N72782   2.150   2.072   5.573 -0.5583  0.1213 -0.9118
  540MOL0     C72783   2.256   1.997   5.609  0.4654 -0.3588  0.4796
  540MOL0     C72784   2.214   1.917   5.717  0.3555  0.1396  1.4804
  540MOL0     C72785   2.301   1.836   5.804 -0.7195  0.2636 -0.7874
  540MOL0     C72786   2.244   1.826   5.939 -0.9638 -0.2980 -0.1610
  540MOL0     C72787   2.245   1.956   6.020 -0.2298  0.0480  0.6640
  540MOL0     C72788   2.225   1.952   6.164  1.1713 -0.0375  0.4572
  540MOL0     O72789   2.190   2.082   6.216 -0.6201  0.1276  0.6364
  540MOL0     C72790   2.286   2.174   6.231  1.1341  0.7443 -0.3284
  540MOL0     C72791   2.400   2.158   6.312  0.5357  0.4381  0.6188
  540MOL0     C72792   2.503   2.252   6.329 -0.8719 -0.4052 -0.4125
  540MOL0     C72793   2.610   2.215   6.429  0.0005  0.2483 -0.6430
  540MOL0     C72794   2.503   2.372   6.250 -0.4454  0.2065  0.8376
  540MOL0     C72795   2.618   2.469   6.252  0.5785 -0.2853  0.0928
  540MOL0     O72796   2.600   2.593   6.210 -0.7005  0.5601 -0.0107
  540MOL0     C72797   2.718   2.671   6.191  0.4461  0.4773  0.1572
  540MOL0     C72798   2.747   2.777   6.277 -0.2452  0.8515 -0.4531
  540MOL0     C72799   2.849   2.870   6.251  0.4210  0.1354  1.4421
  540MOL0     C72800   2.918   2.866   6.133 -1.3347  1.1184  0.4131
  540MOL0     O72801   2.998   2.969   6.101 -0.0345 -0.2291  0.2459
  540MOL0     C72802   2.986   3.024   5.973  0.2144 -0.0951  0.6175
  540MOL0     C72803   3.106   3.118   5.968  0.2656 -0.0170 -0.3393
  540MOL0     C72804   3.237   3.048   6.014 -0.7357 -0.2535 -0.4751
  540MOL0     C72805   3.358   3.088   5.947 -1.0219  0.3955 -0.7551
  540MOL0     C72806   3.394   3.242   5.957 -0.9521  0.4772 -0.5910
  540MOL0     C72807   3.380   3.302   6.098  0.5879  1.3927 -0.2686
  540MOL0     C72808   3.420   3.444   6.089  0.0581  0.9317  0.4047
  540MOL0     C72809   3.452   3.497   6.230  0.8380  0.5556 -0.2609
  540MOL0    Cl72810   3.610   3.456   6.292 -0.1969 -0.1741  0.0570
  540MOL0     C72811   2.906   2.746   6.056  0.7201  0.1410 -0.0170
  540MOL0     C72812   2.804   2.649   6.081  0.7563 -0.2385  0.4479
  540MOL0     O72813   2.733   2.422   6.279  0.3777 -0.9701 -0.3609
  540MOL0     C72814   2.376   2.399   6.182 -0.3650 -0.1072  0.5821
  540MOL0     C72815   2.274   2.304   6.183  0.4289 -0.5449 -0.0668
  540MOL0     N72816   2.082   1.940   5.725  1.1092  0.3794  0.6094
  540MOL0     N72817   2.041   2.024   5.649 -0.0585 -0.4072 -0.2748
  540MOL0     C72818   2.329   2.922   5.150  0.0706 -0.4097 -0.3228
  540MOL0     C72819   2.462   2.924   5.107  0.0961 -0.0144 -0.8266
  540MOL0     C72820   2.827   2.796   4.859 -0.2815 -0.7110 -0.5893
  540MOL0     C72821   2.907   2.700   4.803  0.0461 -0.3605 -1.1843
  540MOL0     C72822   3.039   2.732   4.781 -0.2420  0.5332 -1.0330
  540MOL0     C72823   3.095   2.859   4.812  0.1919 -0.1072  0.2508
  540MOL0     O72824   3.234   2.889   4.803 -0.7713  0.3128  0.3998
  540MOL0     C72825   3.314   2.800   4.884  0.6360 -0.8389 -0.4176
  540MOL0     C72826   3.348   2.843   5.022 -1.0572  0.3814  0.2647
  540MOL0     C72827   3.461   2.764   5.085 -0.7782 -0.3137  0.1193
  540MOL0     C72828   3.524   2.836   5.209 -0.6569 -0.0294 -0.2110
  540MOL0     C72829   3.621   2.733   5.267  0.6715 -0.4521  0.8418
  540MOL0     C72830   3.697   2.667   5.322 -0.1685  0.4843 -0.3522
  540MOL0     C72831   3.011   2.966   4.846 -0.5597 -0.3588 -0.0395
  540MOL0     C72832   2.887   2.927   4.891  0.8692 -0.3635  0.5918
  540MOL0     H72833   2.425   2.757   4.814 -1.0751  1.1408 -1.5095
  540MOL0     H72834   2.192   2.811   4.862  2.0784 -0.6547 -0.8364
  540MOL0     H72835   2.121   2.921   5.306  2.1901 -0.1765 -1.7201
  540MOL0     H72836   1.952   2.874   5.267 -0.5417  0.0903  1.7541
  540MOL0     H72837   2.165   2.679   5.219  2.7183  1.0235  2.2088
  540MOL0     H72838   2.129   2.717   5.389  0.5015 -2.3370  0.5056
  540MOL0     H72839   1.899   2.649   5.354  1.1890 -1.7787  1.2399
  540MOL0     H72840   1.942   2.626   5.170 -1.1573  0.8350  0.5780
  540MOL0     H72841   2.090   2.452   5.240 -1.9040 -0.8605 -3.0702
  540MOL0     H72842   2.024   2.465   5.409  1.3858  0.6898 -0.5639
  540MOL0     H72843   1.811   2.397   5.356  0.3959  2.0188  0.2927
  540MOL0     H72844   1.859   2.385   5.176 -1.2270 -1.1865 -0.0062
  540MOL0     H72845   1.877   2.165   5.229  1.7086  1.7928 -4.3722
  540MOL0     H72846   2.038   2.215   5.221  0.0117  2.5410  1.1349
  540MOL0     H72847   1.922   2.220   5.500 -2.5038 -1.6057 -1.0343
  540MOL0     H72848   1.930   2.070   5.424 -2.7207  1.0967  1.1188
  540MOL0     H72849   2.153   2.272   5.479  0.5239 -0.8178 -1.7581
  540MOL0     H72850   2.206   2.150   5.388  2.4396 -0.8329  2.7099
  540MOL0     H72851   2.359   2.009   5.576  1.1931 -4.8042  0.6093
  540MOL0     H72852   2.337   1.742   5.761  2.4758  1.1885 -0.3872
  540MOL0     H72853   2.400   1.880   5.820  0.6551 -3.4401  2.5946
  540MOL0     H72854   2.300   1.755   6.001  0.8508 -0.7898 -2.2067
  540MOL0     H72855   2.142   1.786   5.932 -0.3768 -1.5554 -4.0572
  540MOL0     H72856   2.157   2.008   5.981  0.4328 -0.1644 -1.2044
  540MOL0     H72857   2.339   2.002   5.987 -0.9781 -1.3903 -4.3763
  540MOL0     H72858   2.313   1.920   6.220  1.1799  2.2967  1.9482
  540MOL0     H72859   2.144   1.882   6.185 -3.4816  3.9957 -1.9586
  540MOL0     H72860   2.416   2.066   6.368  2.2626 -0.0288 -0.5758
  540MOL0     H72861   2.586   2.124   6.483  0.7483 -1.0075 -2.3238
  540MOL0     H72862   2.699   2.195   6.369 -1.5651  0.6097 -3.2529
  540MOL0     H72863   2.634   2.294   6.501  0.7934  1.0200 -1.7199
  540MOL0     H72864   2.679   2.796   6.359  1.6171 -0.6936  1.5745
  540MOL0     H72865   2.868   2.956   6.313 -1.0033  2.0950 -0.6934
  540MOL0     H72866   2.997   2.952   5.892 -0.2880  1.4644 -0.9055
  540MOL0     H72867   2.889   3.073   5.958  0.1732 -0.1144  0.8264
  540MOL0     H72868   3.108   3.169   5.872 -1.7199  1.8723  0.5139
  540MOL0     H72869   3.086   3.203   6.035  2.6793 -0.8667  1.6328
  540MOL0     H72870   3.233   2.941   5.992 -1.2921 -0.1346 -0.9646
  540MOL0     H72871   3.255   3.066   6.120  3.1647  0.4939 -1.1185
  540MOL0     H72872   3.424   3.018   5.999 -1.0266 -0.9986 -2.5212
  540MOL0     H72873   3.378   3.053   5.845 -1.6743 -0.4756 -0.6036
  540MOL0     H72874   3.332   3.290   5.881  1.1223 -0.3358 -2.9166
  540MOL0     H72875   3.500   3.254   5.935 -1.0675  1.6039 -0.6294
  540MOL0     H72876   3.276   3.293   6.130 -0.4460 -1.6874 -3.8058
  540MOL0     H72877   3.439   3.250   6.173 -1.0871  0.5222  0.4892
  540MOL0     H72878   3.338   3.500   6.042 -1.6995 -0.9579  1.0923
  540MOL0     H72879   3.509   3.459   6.027  0.3598 -0.8938  0.3437
  540MOL0     H72880   3.373   3.476   6.303  1.3450  4.9598  1.9040
  540MOL0     H72881   3.454   3.605   6.215 -0.4968  0.4898 -1.1086
  540MOL0     H72882   2.963   2.723   5.967 -1.2945 -0.2912 -1.2763
  540MOL0     H72883   2.791   2.561   6.018  3.1170 -1.2622  1.2601
  540MOL0     H72884   2.364   2.499   6.141 -0.2436 -1.2170 -2.4225
  540MOL0     H72885   2.178   2.339   6.146  0.8076  2.0481  1.1472
  540MOL0     H72886   2.311   2.973   5.244  1.2918  1.4747 -1.0450
  540MOL0     H72887   2.547   2.971   5.155  2.3926 -1.3781 -3.2624
  540MOL0     H72888   2.868   2.600   4.785  1.4128 -2.2550  4.3134
  540MOL0     H72889   3.103   2.654   4.742  0.5068 -0.8813  2.6396
  540MOL0     H72890   3.282   2.695   4.884 -2.1619 -0.0812  0.4998
  540MOL0     H72891   3.411   2.793   4.833 -0.9043 -5.2886 -3.3671
  540MOL0     H72892   3.265   2.835   5.092 -0.7278 -1.8950  0.4976
  540MOL0     H72893   3.374   2.948   5.008 -0.5321  0.0107 -2.0557
  540MOL0     H72894   3.533   2.746   5.006 -1.2235  0.9037 -0.5793
  540MOL0     H72895   3.424   2.669   5.126  1.7145 -0.3030  2.7411
  540MOL0     H72896   3.449   2.858   5.285  0.8642  0.2441  1.2635
  540MOL0     H72897   3.568   2.929   5.172 -1.5746  0.7759  0.6871
  540MOL0     H72898   3.771   2.615   5.379  0.4474  1.4580 -0.2455
  540MOL0     H72899   3.068   3.057   4.863 -0.1674 -0.9226  1.8393
  540MOL0     H72900   2.831   3.006   4.941  1.5498  1.8284 -1.9123
  541MOL0     O72901  10.485   3.944  11.528  0.2080 -0.1318  0.8803
  541MOL0     C72902  10.509   3.839  11.469  0.7304 -0.9942 -0.0576
  541MOL0     O72903  10.451   3.712  11.492 -0.0123  0.4949 -0.7777
  541MOL0     C72904  10.330   3.713  11.558  0.5023 -0.9833 -1.2057
  541MOL0     C72905  10.321   3.771  11.685  0.0503  0.3970 -0.2342
  541MOL0     C72906  10.203   3.764  11.753  0.5581  0.1250 -0.2291
  541MOL0     C72907  10.089   3.698  11.701  0.3341 -0.4197  0.9395
  541MOL0     O72908   9.968   3.703  11.760 -0.1561 -0.9954  0.8294
  541MOL0     C72909   9.963   3.670  11.891 -0.2017  0.0396 -0.1538
  541MOL0     C72910   9.845   3.721  11.967  0.4811  0.0613  0.8205
  541MOL0     C72911   9.714   3.631  11.969  0.2091  0.0585 -0.1629
  541MOL0     C72912   9.602   3.709  12.039  2.1571 -0.8547  0.7655
  541MOL0     C72913   9.462   3.640  12.036 -0.9021 -0.6631  0.7655
  541MOL0     C72914   9.343   3.712  12.077 -0.0663  0.1109  0.1867
  541MOL0     C72915   9.332   3.851  12.009 -0.3623  0.0998  0.4059
  541MOL0     C72916   9.213   3.931  12.041  0.5048 -0.0418 -0.6392
  541MOL0     N72917   9.081   3.873  12.000 -0.9127  0.0746 -0.4801
  541MOL0     C72918   9.065   3.864  11.867  0.1115 -0.1289 -0.3184
  541MOL0     C72919   8.930   3.865  11.847 -0.8059  0.0386  0.4171
  541MOL0     C72920   8.855   3.865  11.716 -0.4853 -0.5767 -0.1129
  541MOL0     C72921   8.826   3.728  11.653 -0.0111  0.4946  0.5032
  541MOL0     C72922   8.774   3.733  11.501  0.5625  0.4348 -0.3985
  541MOL0     C72923   8.626   3.753  11.499 -0.0835 -0.6833  1.1717
  541MOL0     O72924   8.585   3.775  11.360 -0.5229  0.4451  0.1241
  541MOL0     C72925   8.565   3.902  11.318 -0.3914  0.6142 -0.1913
  541MOL0     C72926   8.449   3.930  11.258  0.7691 -0.3577 -1.2286
  541MOL0     C72927   8.405   4.065  11.222  0.1558  0.6325  0.3702
  541MOL0     C72928   8.290   4.078  11.121  0.0454 -0.0489 -1.1832
  541MOL0     C72929   8.472   4.171  11.271 -0.8674 -0.6581 -0.0987
  541MOL0     C72930   8.427   4.313  11.276  1.1660  0.3378  0.6056
  541MOL0     O72931   8.530   4.406  11.271 -0.5101 -0.7940 -0.1648
  541MOL0     C72932   8.494   4.532  11.244 -0.2657  0.2059 -0.9133
  541MOL0     C72933   8.487   4.574  11.105  0.3336 -0.9514  0.5861
  541MOL0     C72934   8.477   4.712  11.080 -1.1360  0.4286  1.1019
  541MOL0     C72935   8.473   4.809  11.176 -0.2702 -0.1810 -0.9434
  541MOL0     O72936   8.475   4.941  11.143 -0.0635 -0.4454  0.1433
  541MOL0     C72937   8.531   5.041  11.231 -0.3138  0.5531 -0.6766
  541MOL0     C72938   8.583   5.167  11.159 -0.4372  0.1541 -0.5906
  541MOL0     C72939   8.697   5.129  11.069  0.8075 -0.8332 -0.3737
  541MOL0     C72940   8.779   5.253  11.043 -0.3283  0.5035  0.8909
  541MOL0     C72941   8.878   5.226  10.925  1.0108 -0.3315 -0.1128
  541MOL0     C72942   8.951   5.347  10.876  0.4275 -0.2935  0.4625
  541MOL0     C72943   9.028   5.416  10.988 -0.5689 -0.1983 -0.4522
  541MOL0     C72944   9.137   5.520  10.946 -1.7456  0.4101  0.7312
  541MOL0    Cl72945   9.230   5.573  11.097  0.0374  0.4211 -0.3602
  541MOL0     C72946   8.475   4.766  11.313  0.2540  0.4272 -0.4969
  541MOL0     C72947   8.487   4.631  11.347  0.5598  0.3197 -0.5999
  541MOL0     O72948   8.307   4.342  11.271  0.5268  0.6929 -0.2254
  541MOL0     C72949   8.592   4.139  11.341  0.2103  0.2726  1.3779
  541MOL0     C72950   8.646   4.012  11.349  0.0394  0.0853 -0.9909
  541MOL0     N72951   8.874   3.860  11.974  0.0315 -0.1658 -0.3277
  541MOL0     N72952   8.967   3.873  12.066  0.4439 -0.6721 -0.3226
  541MOL0     C72953  10.094   3.655  11.567 -0.3841 -0.2400  0.3401
  541MOL0     C72954  10.215   3.670  11.491 -1.0564  0.7446 -0.4965
  541MOL0     C72955  10.619   3.841  11.373  0.3157 -0.0774 -0.5319
  541MOL0     C72956  10.690   3.950  11.336 -0.0462  0.0595  0.5033
  541MOL0     C72957  10.792   3.942  11.242 -0.6173 -1.1708  0.6073
  541MOL0     C72958  10.839   3.817  11.201 -0.1389  0.0287 -0.1752
  541MOL0     O72959  10.955   3.825  11.125  0.0512 -0.1407  0.7018
  541MOL0     C72960  11.017   3.710  11.067 -0.5662  1.1254  0.5712
  541MOL0     C72961  11.050   3.753  10.924 -0.1353  0.6694  0.2262
  541MOL0     C72962  10.919   3.806  10.864 -1.5226  0.0653 -0.4476
  541MOL0     C72963  10.953   3.880  10.730  0.9077 -0.8195  0.2412
  541MOL0     C72964  10.827   3.901  10.651 -0.8811 -0.2463 -0.8721
  541MOL0     C72965  10.721   3.925  10.595 -0.2459  0.8447 -0.0495
  541MOL0     C72966  10.784   3.703  11.256  1.1922 -0.7050 -0.0187
  541MOL0     C72967  10.671   3.716  11.343  0.2300  1.1135  0.0524
  541MOL0     H72968  10.407   3.818  11.732 -1.2344  1.4892  1.1381
  541MOL0     H72969  10.182   3.817  11.846  0.1506  0.2247 -0.3772
  541MOL0     H72970   9.961   3.561  11.885 -1.4936  0.1064 -2.3003
  541MOL0     H72971  10.046   3.706  11.953  1.6996  2.2726 -3.6664
  541MOL0     H72972   9.881   3.711  12.069 -2.1638 -0.7362  1.7590
  541MOL0     H72973   9.831   3.825  11.934 -1.8827 -0.4483  0.0683
  541MOL0     H72974   9.687   3.618  11.864  2.1569 -0.5085 -0.6331
  541MOL0     H72975   9.734   3.536  12.020 -0.8600 -0.3983 -0.5676
  541MOL0     H72976   9.634   3.747  12.137 -1.3899  0.7508  1.4428
  541MOL0     H72977   9.589   3.801  11.982  2.6270 -1.4955 -0.3971
  541MOL0     H72978   9.449   3.619  11.929  1.2592  0.3934  0.2506
  541MOL0     H72979   9.477   3.540  12.077  2.6882 -1.3290 -1.7234
  541MOL0     H72980   9.255   3.651  12.057  0.1157 -0.8644  2.1350
  541MOL0     H72981   9.342   3.712  12.187  0.1720 -3.0812  0.2878
  541MOL0     H72982   9.417   3.913  12.039 -0.6445 -0.2131  1.9389
  541MOL0     H72983   9.330   3.827  11.902 -1.5652  0.2538  0.3786
  541MOL0     H72984   9.226   4.033  12.006 -3.2561  2.0253  2.9679
  541MOL0     H72985   9.212   3.947  12.150  7.1123  0.0537 -0.1747
  541MOL0     H72986   9.142   3.869  11.791  1.1338  0.9231  0.7549
  541MOL0     H72987   8.765   3.927  11.729  1.3923  1.9703  1.8795
  541MOL0     H72988   8.925   3.917  11.650 -1.3919 -2.0163 -2.3209
  541MOL0     H72989   8.753   3.678  11.717 -1.5063  0.7656 -0.9213
  541MOL0     H72990   8.904   3.651  11.654 -1.6307 -1.2092  0.4923
  541MOL0     H72991   8.806   3.639  11.453  1.3623  0.1487  0.6528
  541MOL0     H72992   8.809   3.821  11.448  0.4562  0.3543 -0.6026
  541MOL0     H72993   8.597   3.839  11.559  2.7376 -1.0114  3.2388
  541MOL0     H72994   8.585   3.662  11.543  2.9262 -1.6690  2.2545
  541MOL0     H72995   8.393   3.842  11.226  0.5501  0.2990 -2.7136
  541MOL0     H72996   8.198   4.046  11.171  0.5949 -1.8749 -1.2876
  541MOL0     H72997   8.267   4.184  11.103  1.0227  0.1972 -1.0186
  541MOL0     H72998   8.302   4.016  11.032 -1.5627 -1.3643 -0.5304
  541MOL0     H72999   8.488   4.506  11.020  2.0142  0.8203 -0.9164
  541MOL0     H73000   8.466   4.741  10.976 -2.5209 -0.6646  0.9146
  541MOL0     H73001   8.457   5.084  11.300 -0.7696  0.6643 -1.2307
  541MOL0     H73002   8.616   5.000  11.287  0.4028  0.2076 -1.9950
  541MOL0     H73003   8.503   5.200  11.092 -0.2045 -3.2848 -2.8103
  541MOL0     H73004   8.601   5.255  11.222  1.6150  0.3070 -1.3172
  541MOL0     H73005   8.647   5.084  10.982 -0.2433 -1.9734  0.7853
  541MOL0     H73006   8.756   5.057  11.127  3.2006  1.5598  0.3590
  541MOL0     H73007   8.719   5.339  11.013 -2.5641 -0.4728  2.3014
  541MOL0     H73008   8.835   5.289  11.131 -2.0500  2.1226  1.3831
  541MOL0     H73009   8.811   5.199  10.842  0.8330  0.7578 -0.3412
  541MOL0     H73010   8.945   5.147  10.959  0.1082  0.3695  3.8150
  541MOL0     H73011   9.012   5.311  10.793  1.8423 -0.5655  1.5862
  541MOL0     H73012   8.884   5.416  10.824  1.4393 -1.6195 -2.8809
  541MOL0     H73013   9.072   5.336  11.048  0.2389  1.2708  0.9874
  541MOL0     H73014   8.950   5.477  11.034 -0.7850 -0.8376  0.0527
  541MOL0     H73015   9.087   5.606  10.901 -0.7726  0.2109 -0.8148
  541MOL0     H73016   9.204   5.479  10.870  0.3414 -0.1906  2.7587
  541MOL0     H73017   8.470   4.844  11.388  0.4695 -0.4472  0.4430
  541MOL0     H73018   8.483   4.601  11.451 -1.3000  1.0978 -0.4023
  541MOL0     H73019   8.667   4.215  11.359  0.9368 -0.1244  0.1896
  541MOL0     H73020   8.736   4.006  11.410 -0.6468  3.8321  0.6508
  541MOL0     H73021   9.996   3.621  11.535 -1.5595 -0.8351  4.1178
  541MOL0     H73022  10.222   3.639  11.388 -0.6749 -1.2378  0.0785
  541MOL0     H73023  10.657   4.047  11.373 -0.6628  0.4485 -0.9580
  541MOL0     H73024  10.834   4.033  11.200 -1.8930  0.2629  2.2868
  541MOL0     H73025  11.109   3.675  11.116 -1.4667 -0.8709  0.9655
  541MOL0     H73026  10.950   3.623  11.059 -1.3796  1.8115 -0.3125
  541MOL0     H73027  11.076   3.662  10.868 -2.0340  0.4936 -0.4355
  541MOL0     H73028  11.129   3.828  10.928 -1.4339  2.1668 -0.8342
  541MOL0     H73029  10.862   3.874  10.928 -2.3395 -1.1842  0.1784
  541MOL0     H73030  10.858   3.716  10.858 -1.4403 -0.1062  1.0368
  541MOL0     H73031  11.011   3.812  10.668 -2.2149 -4.6201  1.0660
  541MOL0     H73032  10.991   3.979  10.757 -0.9319 -0.6286  2.4952
  541MOL0     H73033  10.627   3.937  10.545 -0.0162  2.9922 -0.0486
  541MOL0     H73034  10.820   3.606  11.222 -0.5434 -0.4500 -2.9021
  541MOL0     H73035  10.627   3.626  11.385 -1.1202  2.1858  1.0457
  542MOL0     O73036   2.803  11.312   3.878  0.4868  0.0625  0.3134
  542MOL0     C73037   2.925  11.292   3.903  0.0121  0.4168  0.3275
  542MOL0     O73038   2.975  11.214   4.001  0.4386 -0.2993 -0.0804
  542MOL0     C73039   2.890  11.158   4.095 -0.8388 -0.9149  1.0144
  542MOL0     C73040   2.807  11.239   4.173  0.3669 -0.0476  0.2629
  542MOL0     C73041   2.722  11.180   4.268  0.5263 -0.1072 -0.2867
  542MOL0     C73042   2.723  11.042   4.286 -0.1440  1.0337 -0.3581
  542MOL0     O73043   2.639  10.980   4.383  0.4203 -0.2563 -0.7505
  542MOL0     C73044   2.685  11.010   4.517  0.6119 -0.2911  0.1572
  542MOL0     C73045   2.811  10.945   4.573 -0.5595 -0.1554 -0.1680
  542MOL0     C73046   2.799  10.794   4.558  0.2821 -0.4048 -0.4802
  542MOL0     C73047   2.674  10.737   4.619  0.1104 -0.3065  0.2705
  542MOL0     C73048   2.653  10.587   4.627  0.1224  0.5911 -0.5906
  542MOL0     C73049   2.590  10.535   4.496  0.1668  0.8800  0.2427
  542MOL0     C73050   2.523  10.407   4.512 -0.2499  0.2810 -0.0991
  542MOL0     C73051   2.470  10.355   4.378 -1.0087 -0.1626 -0.2017
  542MOL0     N73052   2.403  10.229   4.415  0.3738 -0.2019  1.4122
  542MOL0     C73053   2.270  10.197   4.408 -0.2643 -1.1934 -1.0560
  542MOL0     C73054   2.265  10.068   4.450 -0.5678  0.1092  0.4823
  542MOL0     C73055   2.144   9.977   4.451 -0.3222  0.5256 -0.3683
  542MOL0     C73056   2.150   9.889   4.580  1.0894  0.4381  0.1996
  542MOL0     C73057   2.068   9.943   4.690  1.0086 -0.3443 -0.7633
  542MOL0     C73058   2.128  10.083   4.745 -0.6717  1.3810  0.4106
  542MOL0     O73059   2.087  10.197   4.661 -0.4311  0.6586 -0.3665
  542MOL0     C73060   2.122  10.324   4.679  0.5514 -0.7085  0.6383
  542MOL0     C73061   2.186  10.369   4.792 -0.4617  0.3032 -0.8617
  542MOL0     C73062   2.222  10.500   4.792 -0.2846 -0.1147  0.5028
  542MOL0     C73063   2.327  10.530   4.901  0.3688  0.6681  0.0088
  542MOL0     C73064   2.199  10.601   4.687  0.4724  0.4494  0.0876
  542MOL0     C73065   2.248  10.742   4.684 -0.1850 -1.0011  0.4759
  542MOL0     O73066   2.266  10.805   4.806 -0.1778  0.3519 -0.1911
  542MOL0     C73067   2.331  10.928   4.796 -0.2772  0.4053  0.8321
  542MOL0     C73068   2.267  11.034   4.735 -0.3467  0.3089 -0.5691
  542MOL0     C73069   2.329  11.161   4.751  0.4548  0.3525 -1.0183
  542MOL0     C73070   2.439  11.191   4.832  0.2460  0.7639 -0.1732
  542MOL0     O73071   2.485  11.325   4.829  0.0151  0.3022  0.1719
  542MOL0     C73072   2.558  11.369   4.954  0.3690 -0.8558 -0.5291
  542MOL0     C73073   2.539  11.509   4.981 -0.4989 -0.3371 -0.8626
  542MOL0     C73074   2.583  11.548   5.124 -0.7970  0.4644 -0.8028
  542MOL0     C73075   2.740  11.547   5.146 -0.4143 -0.0364  0.1680
  542MOL0     C73076   2.754  11.551   5.307  0.0903  0.4879  0.2285
  542MOL0     C73077   2.882  11.618   5.361 -0.2917  0.4977 -1.3171
  542MOL0     C73078   3.007  11.523   5.352 -0.0205 -0.0297  0.4536
  542MOL0     C73079   3.090  11.564   5.481 -0.6874  0.1988 -0.1984
  542MOL0    Cl73080   3.236  11.458   5.486  0.7629 -0.1128 -0.1793
  542MOL0     C73081   2.498  11.078   4.887 -1.0511 -0.1287 -0.4923
  542MOL0     C73082   2.446  10.955   4.876 -0.9213 -0.2347 -0.7241
  542MOL0     O73083   2.273  10.793   4.574  0.0803 -0.3538  0.4122
  542MOL0     C73084   2.131  10.550   4.574  0.0022  0.3809  0.4237
  542MOL0     C73085   2.089  10.411   4.572 -0.1216  0.2874 -0.1216
  542MOL0     N73086   2.397  10.018   4.464 -0.3323 -0.2666  0.2659
  542MOL0     N73087   2.471  10.124   4.453 -0.9954 -0.8497 -0.5407
  542MOL0     C73088   2.803  10.960   4.212 -0.0428 -0.5502 -0.1976
  542MOL0     C73089   2.891  11.020   4.114  0.5930  1.1438  1.0573
  542MOL0     C73090   3.023  11.360   3.822  0.4377  1.1235  0.5685
  542MOL0     C73091   2.994  11.379   3.683 -0.0436  0.0389 -0.8119
  542MOL0     C73092   3.083  11.457   3.600  1.0807  0.3885  0.5052
  542MOL0     C73093   3.206  11.492   3.649 -0.0528  0.1735 -0.1960
  542MOL0     O73094   3.283  11.564   3.567  0.3799  0.7481  0.5665
  542MOL0     C73095   3.337  11.694   3.609  0.0604  0.0429 -0.4372
  542MOL0     C73096   3.423  11.750   3.505 -0.6402  0.5456  0.2164
  542MOL0     C73097   3.438  11.898   3.509  0.6778 -0.7462  1.0684
  542MOL0     C73098   3.559  11.953   3.425  0.4344 -0.5386 -1.5505
  542MOL0     C73099   3.522  11.976   3.290  0.5640  0.1957  0.3266
  542MOL0     C73100   3.491  11.980   3.173  0.1457  0.0339  0.9863
  542MOL0     C73101   3.244  11.459   3.778 -0.4630  0.2617  0.3154
  542MOL0     C73102   3.154  11.387   3.860 -0.2935 -0.3152 -0.1896
  542MOL0     H73103   2.815  11.346   4.159  0.7296 -0.2337 -1.0786
  542MOL0     H73104   2.663  11.244   4.333  1.9381 -0.4935  1.4487
  542MOL0     H73105   2.701  11.118   4.521 -1.8984  0.1348  0.3826
  542MOL0     H73106   2.601  10.988   4.583  1.5343 -3.4983  0.4473
  542MOL0     H73107   2.891  10.991   4.514 -1.7402 -1.1826 -2.6908
  542MOL0     H73108   2.821  10.967   4.680  0.1391 -0.4802 -0.1581
  542MOL0     H73109   2.802  10.763   4.453  0.9509  1.2254 -0.9718
  542MOL0     H73110   2.882  10.742   4.607 -0.0112 -0.2268  0.2242
  542MOL0     H73111   2.656  10.784   4.716 -0.0041  0.0301  0.0910
  542MOL0     H73112   2.597  10.765   4.545  0.3277 -0.5130 -0.0358
  542MOL0     H73113   2.746  10.531   4.634 -0.3299 -0.8519 -4.0834
  542MOL0     H73114   2.589  10.563   4.713  0.5875  1.1572 -0.0813
  542MOL0     H73115   2.507  10.601   4.469 -0.2307 -0.0630 -0.9297
  542MOL0     H73116   2.660  10.524   4.412  1.1715 -3.2725  1.3756
  542MOL0     H73117   2.587  10.331   4.556  0.8514  0.9585 -0.4859
  542MOL0     H73118   2.438  10.419   4.580  0.9198  1.6624  1.1759
  542MOL0     H73119   2.551  10.341   4.307 -0.9037  0.7532 -0.2753
  542MOL0     H73120   2.399  10.431   4.343  2.4597  4.1583  1.1885
  542MOL0     H73121   2.187  10.266   4.392  0.3696  1.0380  3.6279
  542MOL0     H73122   2.056  10.042   4.443 -0.3087  0.2944 -3.1282
  542MOL0     H73123   2.149   9.917   4.360 -1.7494 -0.7218  0.3263
  542MOL0     H73124   2.256   9.876   4.604  2.3761  2.1342 -3.7476
  542MOL0     H73125   2.102   9.793   4.563 -0.4482  1.4036 -1.2361
  542MOL0     H73126   2.061   9.888   4.784 -1.6952 -1.5288 -1.5426
  542MOL0     H73127   1.963   9.966   4.665 -0.1657 -1.7151  2.3673
  542MOL0     H73128   2.236  10.073   4.759 -0.8592 -1.7408  0.3460
  542MOL0     H73129   2.089  10.110   4.844 -1.5156  0.3212  0.3870
  542MOL0     H73130   2.204  10.301   4.874 -0.2584 -0.8343 -1.8289
  542MOL0     H73131   2.405  10.572   4.838  0.4533 -1.0836 -1.1080
  542MOL0     H73132   2.291  10.592   4.984  1.2578 -0.4968  1.3097
  542MOL0     H73133   2.359  10.438   4.951 -2.2409 -0.3327 -0.0020
  542MOL0     H73134   2.184  11.020   4.666  0.5778  0.8503 -1.8358
  542MOL0     H73135   2.294  11.250   4.700  2.3388  3.8727  3.1582
  542MOL0     H73136   2.516  11.314   5.039  1.7749 -0.4228  0.4628
  542MOL0     H73137   2.666  11.358   4.940  0.6030 -2.3717  1.8694
  542MOL0     H73138   2.589  11.571   4.907  3.9934  1.1705  2.9256
  542MOL0     H73139   2.432  11.528   4.971 -1.6610 -4.8763  0.4373
  542MOL0     H73140   2.517  11.484   5.184  0.8369  0.6642  1.2989
  542MOL0     H73141   2.551  11.648   5.156 -1.7242 -0.5174  1.5354
  542MOL0     H73142   2.777  11.449   5.115 -0.4311  0.2493 -0.7683
  542MOL0     H73143   2.811  11.621   5.109  0.1923  0.7076  2.6163
  542MOL0     H73144   2.746  11.451   5.351  2.7721  0.5147  0.9497
  542MOL0     H73145   2.668  11.608   5.343 -1.5474 -1.3881 -0.5576
  542MOL0     H73146   2.880  11.720   5.321 -2.3353  1.1322  0.2763
  542MOL0     H73147   2.860  11.633   5.467 -2.3465  1.7659 -1.8815
  542MOL0     H73148   3.073  11.525   5.265  1.4846 -4.8487  1.1792
  542MOL0     H73149   2.977  11.418   5.353  4.4675 -1.5461  1.9498
  542MOL0     H73150   3.046  11.565   5.582  0.3728 -1.4524  0.3396
  542MOL0     H73151   3.129  11.662   5.454  0.8936 -1.3512 -4.4515
  542MOL0     H73152   2.587  11.086   4.948 -2.1111  2.1778  0.8665
  542MOL0     H73153   2.488  10.866   4.921 -1.2404  0.7633  1.6640
  542MOL0     H73154   2.113  10.611   4.486  1.0974  2.0543  1.3261
  542MOL0     H73155   2.027  10.368   4.493 -2.7643 -2.7113  3.2576
  542MOL0     H73156   2.787  10.853   4.218  1.6683 -0.8645  5.8764
  542MOL0     H73157   2.957  10.948   4.067 -1.3569 -0.7286  1.0444
  542MOL0     H73158   2.901  11.351   3.635  0.0731  1.1697 -1.7385
  542MOL0     H73159   3.056  11.476   3.497 -1.3712 -0.3741  0.9381
  542MOL0     H73160   3.253  11.758   3.637  0.9437  1.0446 -0.0515
  542MOL0     H73161   3.399  11.690   3.699 -4.2330 -0.3264  2.8484
  542MOL0     H73162   3.386  11.714   3.409 -2.8757  0.3608  1.1060
  542MOL0     H73163   3.521  11.710   3.533 -1.1735  1.4092  3.7547
  542MOL0     H73164   3.442  11.931   3.613 -0.1001 -1.1219  1.2244
  542MOL0     H73165   3.352  11.949   3.465  2.2257 -0.5368 -1.9592
  542MOL0     H73166   3.643  11.884   3.440  2.3260  2.0949  1.3532
  542MOL0     H73167   3.592  12.050   3.463 -1.3231 -1.3146  2.5435
  542MOL0     H73168   3.456  11.971   3.072 -0.6099  1.4427  1.1003
  542MOL0     H73169   3.348  11.475   3.804 -0.1070 -1.3764  0.0510
  542MOL0     H73170   3.173  11.384   3.967  4.4182 -0.2409 -0.8140
  543MOL0     O73171  10.954  10.148   9.412 -0.2582 -0.0326 -0.5973
  543MOL0     C73172  10.967  10.169   9.294 -0.2342  0.6223 -0.3016
  543MOL0     O73173  10.929  10.073   9.202  0.0477 -0.7027  0.4204
  543MOL0     C73174  10.817   9.997   9.214  0.0904  0.6854 -0.5461
  543MOL0     C73175  10.788   9.922   9.098 -0.2327  0.9172 -0.6690
  543MOL0     C73176  10.674   9.835   9.098 -0.0157 -0.0225  0.5497
  543MOL0     C73177  10.589   9.826   9.202  0.8413  0.0597 -1.5390
  543MOL0     O73178  10.478   9.756   9.171 -0.4706  0.4271 -0.6616
  543MOL0     C73179  10.401   9.694   9.276  0.0829  0.7685  0.3906
  543MOL0     C73180  10.304   9.586   9.234 -0.6719 -0.3311 -0.0904
  543MOL0     C73181  10.245   9.610   9.091 -0.1898 -0.0347  0.5553
  543MOL0     C73182  10.158   9.733   9.071 -0.7266 -0.6700  0.1481
  543MOL0     C73183  10.109   9.771   8.926 -0.6123 -0.2366  0.4715
  543MOL0     C73184  10.053   9.659   8.849  0.5274 -0.7808  0.0989
  543MOL0     C73185   9.989   9.707   8.720 -0.9064  0.3112  0.1732
  543MOL0     C73186   9.917   9.600   8.645 -1.1678 -0.4775  0.0592
  543MOL0     N73187   9.910   9.644   8.508  0.0874 -0.8538  0.0410
  543MOL0     C73188   9.795   9.693   8.442  0.0356 -0.0900  0.0663
  543MOL0     C73189   9.847   9.719   8.314  0.5646 -0.8517  0.9221
  543MOL0     C73190   9.774   9.772   8.192 -0.3438 -0.1170 -0.3503
  543MOL0     C73191   9.679   9.651   8.133 -0.4869 -0.9924 -0.1418
  543MOL0     C73192   9.770   9.542   8.054 -0.4260  0.1900 -0.0967
  543MOL0     C73193   9.848   9.596   7.929 -0.3643  0.5151 -0.1490
  543MOL0     O73194   9.758   9.682   7.862 -0.2766  0.2171  0.8142
  543MOL0     C73195   9.800   9.750   7.752  0.4238 -0.4041  0.7085
  543MOL0     C73196   9.759   9.878   7.745 -0.2004 -0.5273 -0.9074
  543MOL0     C73197   9.805   9.966   7.652  0.4980  0.1654  0.3545
  543MOL0     C73198   9.757  10.107   7.676 -0.4657 -0.1576 -0.1882
  543MOL0     C73199   9.896   9.922   7.555  1.0159 -0.4452  0.4126
  543MOL0     C73200   9.957  10.007   7.446 -0.2124 -0.2964 -0.8067
  543MOL0     O73201   9.923  10.137   7.419  0.4627  0.5343  0.1624
  543MOL0     C73202   9.990  10.190   7.306  0.6336  0.2533 -0.4160
  543MOL0     C73203  10.096  10.284   7.320  0.5975  0.5942 -0.1829
  543MOL0     C73204  10.159  10.346   7.218  0.4010  0.5456  0.3804
  543MOL0     C73205  10.105  10.339   7.095 -0.5914  0.4916 -0.5272
  543MOL0     O73206  10.177  10.422   7.006  0.6899  0.0497 -0.0880
  543MOL0     C73207  10.128  10.472   6.882  0.0215 -0.4269  0.5209
  543MOL0     C73208  10.008  10.561   6.894 -0.2876 -0.1972 -0.7337
  543MOL0     C73209   9.951  10.604   6.766  1.0578 -0.0342 -1.1022
  543MOL0     C73210   9.871  10.487   6.689  0.5135 -0.1383 -0.0037
  543MOL0     C73211   9.783  10.529   6.569 -0.5975 -0.4783 -0.0597
  543MOL0     C73212   9.836  10.641   6.489  0.0021 -0.5926 -1.0184
  543MOL0     C73213   9.760  10.655   6.358 -0.5630 -0.5116  0.2615
  543MOL0     C73214   9.611  10.696   6.377 -0.5037  0.8845 -0.1138
  543MOL0    Cl73215   9.515  10.555   6.355  0.1862  0.6676 -0.3019
  543MOL0     C73216   9.985  10.266   7.072  0.6367  0.7092 -0.1246
  543MOL0     C73217   9.939  10.188   7.182  0.5089 -0.0900  0.5895
  543MOL0     O73218  10.036   9.940   7.381  0.2026  0.0875  0.0428
  543MOL0     C73219   9.941   9.787   7.563 -0.3047 -0.5946 -1.0863
  543MOL0     C73220   9.902   9.704   7.668  0.2833  0.3590  0.3234
  543MOL0     N73221   9.972   9.668   8.300 -0.6176 -0.2802  0.0607
  543MOL0     N73222  10.015   9.636   8.422  0.5513  1.2225 -0.4525
  543MOL0     C73223  10.605   9.910   9.318 -0.5877 -0.2001  0.1184
  543MOL0     C73224  10.725   9.991   9.317  1.0929  0.0784 -0.5813
  543MOL0     C73225  11.030  10.298   9.247 -0.0892 -0.9166 -0.2410
  543MOL0     C73226  11.027  10.326   9.102 -0.1970  0.9327  0.2792
  543MOL0     C73227  11.106  10.444   9.056  0.6653  0.3633  0.1652
  543MOL0     C73228  11.159  10.542   9.142  0.1626  0.3169 -0.7385
  543MOL0     O73229  11.224  10.656   9.102 -0.4005 -0.5612 -0.1052
  543MOL0     C73230  11.311  10.639   8.995  0.4356  0.8150 -0.1481
  543MOL0     C73231  11.250  10.696   8.866  0.2061  0.3215  0.6176
  543MOL0     C73232  11.229  10.846   8.858 -0.7034  0.0278  1.4323
  543MOL0     C73233  11.285  10.902   8.719 -0.1329  0.8246 -1.1657
  543MOL0     C73234  11.427  10.921   8.718  0.1047 -0.1911 -0.2843
  543MOL0     C73235  11.547  10.944   8.710 -0.0459  0.0775 -0.1146
  543MOL0     C73236  11.156  10.512   9.275 -0.4781  0.0748 -1.1990
  543MOL0     C73237  11.100  10.394   9.327 -0.0880  0.6433 -0.2104
  543MOL0     H73238  10.854   9.917   9.013  2.3344 -2.4817  1.2692
  543MOL0     H73239  10.650   9.781   9.008  4.6905 -0.2980 -0.8270
  543MOL0     H73240  10.464   9.653   9.356  0.1650  0.8989  0.3930
  543MOL0     H73241  10.334   9.767   9.323 -1.5383 -0.0717 -0.5413
  543MOL0     H73242  10.339   9.483   9.244  4.2775  1.0722 -0.4488
  543MOL0     H73243  10.209   9.591   9.289 -2.2014 -2.6297 -2.2766
  543MOL0     H73244  10.335   9.625   9.031  0.0957 -3.5483 -0.1217
  543MOL0     H73245  10.206   9.516   9.051  0.6378 -1.7127  3.3889
  543MOL0     H73246  10.073   9.741   9.140 -0.1779  1.9860  0.6181
  543MOL0     H73247  10.230   9.814   9.089  0.2764 -0.4381 -3.8921
  543MOL0     H73248  10.034   9.851   8.926 -0.1845  0.1676  0.6627
  543MOL0     H73249  10.199   9.801   8.870 -0.7740 -0.0955  0.2840
  543MOL0     H73250  10.131   9.583   8.836  1.5460  0.2602 -0.0198
  543MOL0     H73251   9.975   9.613   8.909  0.0149 -1.2165 -0.8757
  543MOL0     H73252   9.925   9.795   8.728 -0.7273  0.3077  2.0233
  543MOL0     H73253  10.067   9.732   8.648 -5.0977  3.9300 -3.7292
  543MOL0     H73254   9.818   9.576   8.685 -1.9891 -1.8925 -2.5701
  543MOL0     H73255   9.968   9.504   8.635  0.9968  0.6731 -0.5814
  543MOL0     H73256   9.694   9.709   8.479 -0.2810 -2.7974  0.5996
  543MOL0     H73257   9.704   9.846   8.233 -1.0989  0.4447 -2.5141
  543MOL0     H73258   9.844   9.819   8.123 -0.1246 -2.2516 -1.6275
  543MOL0     H73259   9.612   9.686   8.054 -0.5625 -0.7274  0.0380
  543MOL0     H73260   9.613   9.612   8.211 -2.4601  1.4044 -0.5049
  543MOL0     H73261   9.692   9.473   8.019 -1.0382  0.9674 -0.2958
  543MOL0     H73262   9.837   9.495   8.126 -1.7942 -0.0027  1.0939
  543MOL0     H73263   9.890   9.508   7.878 -0.2173  0.6023 -0.1796
  543MOL0     H73264   9.927   9.656   7.975  1.5569 -1.7732 -0.2576
  543MOL0     H73265   9.689   9.896   7.825  1.1217 -3.7774  1.1785
  543MOL0     H73266   9.839  10.179   7.679 -1.1779  0.6473  2.3598
  543MOL0     H73267   9.684  10.138   7.600 -0.7416  1.8244  0.8227
  543MOL0     H73268   9.710  10.126   7.773 -0.7280  2.7853 -0.8029
  543MOL0     H73269  10.132  10.291   7.422 -0.1844 -1.7673  0.3305
  543MOL0     H73270  10.243  10.411   7.238 -0.0799  1.0536  0.8018
  543MOL0     H73271  10.212  10.532   6.846 -2.5428  2.1339 -1.7449
  543MOL0     H73272  10.104  10.401   6.802  0.3863  2.3353 -2.2052
  543MOL0     H73273   9.931  10.525   6.963  1.0631 -2.7308 -0.4279
  543MOL0     H73274  10.054  10.649   6.939  1.3822 -0.9097 -0.9763
  543MOL0     H73275  10.021  10.656   6.700  0.1946  0.0105 -1.9924
  543MOL0     H73276   9.882  10.685   6.788 -0.7167 -1.3281 -1.6818
  543MOL0     H73277   9.951  10.421   6.652  1.0833  0.3207  0.3910
  543MOL0     H73278   9.811  10.431   6.760  1.4878 -2.4382 -0.8796
  543MOL0     H73279   9.682  10.555   6.601  0.1864  3.6013 -0.3159
  543MOL0     H73280   9.794  10.442   6.503  3.8545 -2.3312  2.6619
  543MOL0     H73281   9.844  10.733   6.548 -0.5376 -0.8111 -0.5970
  543MOL0     H73282   9.936  10.614   6.453 -1.3188 -2.9562 -3.2645
  543MOL0     H73283   9.775  10.572   6.289  0.3404 -1.6499  1.7594
  543MOL0     H73284   9.798  10.743   6.305 -2.9252  1.1420  1.0978
  543MOL0     H73285   9.591  10.763   6.292 -2.0493 -1.5475 -1.8227
  543MOL0     H73286   9.590  10.756   6.466 -0.6219  2.2857 -1.0525
  543MOL0     H73287   9.930  10.292   6.982  0.3545  1.4857  0.2654
  543MOL0     H73288   9.845  10.136   7.162  0.7017 -0.1251 -0.2732
  543MOL0     H73289  10.010   9.734   7.498  2.0816 -0.6215  1.2446
  543MOL0     H73290   9.948   9.606   7.670  0.0712  0.2465 -0.1263
  543MOL0     H73291  10.541   9.917   9.405  0.3882 -3.0182  1.1794
  543MOL0     H73292  10.741  10.045   9.410 -1.3509  0.3393 -0.2352
  543MOL0     H73293  10.984  10.257   9.030  1.0730 -0.9101  1.1931
  543MOL0     H73294  11.106  10.457   8.948 -1.6278  1.4976  0.2531
  543MOL0     H73295  11.396  10.707   9.011 -0.0044  1.1093  1.1037
  543MOL0     H73296  11.349  10.539   8.973  0.4139  1.1858 -1.9460
  543MOL0     H73297  11.161  10.644   8.830  0.5742  2.4374 -4.2029
  543MOL0     H73298  11.329  10.669   8.795  0.6914 -0.4825  1.4367
  543MOL0     H73299  11.269  10.900   8.945  0.4134 -2.7741  2.7778
  543MOL0     H73300  11.120  10.857   8.868 -0.9945 -0.3530 -0.8025
  543MOL0     H73301  11.255  10.999   8.679  0.8804  0.5208 -2.7370
  543MOL0     H73302  11.240  10.840   8.641 -3.0663  1.6144 -0.2513
  543MOL0     H73303  11.651  10.966   8.698 -0.2846 -0.0055 -3.3133
  543MOL0     H73304  11.198  10.583   9.345 -1.6456 -0.9134  0.5823
  543MOL0     H73305  11.095  10.367   9.432 -0.6803  0.1026 -0.3728
  544MOL0     O73306   1.385   6.704   9.704  0.3994  0.1375 -0.0362
  544MOL0     C73307   1.338   6.822   9.704 -0.5011  0.1221 -0.2726
  544MOL0     O73308   1.302   6.892   9.817  0.8191 -0.0783 -0.4936
  544MOL0     C73309   1.251   6.834   9.932 -0.3103  0.3144 -0.1696
  544MOL0     C73310   1.196   6.918  10.029 -0.4216  0.1635 -0.0886
  544MOL0     C73311   1.144   6.881  10.152  0.1899  0.2941  0.2326
  544MOL0     C73312   1.148   6.743  10.185 -0.0326  0.4069 -0.0017
  544MOL0     O73313   1.092   6.688  10.296  0.2656 -0.6551 -0.0095
  544MOL0     C73314   0.968   6.727  10.347  1.5788  0.9615  0.0243
  544MOL0     C73315   0.941   6.663  10.486 -0.1265  1.0430  0.3995
  544MOL0     C73316   0.968   6.764  10.601 -0.7224  0.3566  0.1034
  544MOL0     C73317   0.853   6.866  10.619 -0.8424  0.0849  0.2560
  544MOL0     C73318   0.914   7.001  10.661 -0.3842 -0.0191 -0.5295
  544MOL0     C73319   0.993   6.991  10.798 -0.4586 -0.0195 -0.7803
  544MOL0     C73320   1.047   7.127  10.845  0.1761 -0.4967  0.5870
  544MOL0     C73321   1.177   7.104  10.918 -0.0656 -1.0921  0.1081
  544MOL0     N73322   1.164   7.102  11.064 -0.0110 -0.2826 -0.4230
  544MOL0     C73323   1.212   7.202  11.145  0.2320  0.1535 -0.3739
  544MOL0     C73324   1.200   7.150  11.274  0.2142 -0.7838 -0.0943
  544MOL0     C73325   1.228   7.222  11.405  0.2521  0.3075 -0.3886
  544MOL0     C73326   1.340   7.139  11.467 -0.0305 -0.3538  1.1495
  544MOL0     C73327   1.376   7.192  11.604  0.2961  0.5452  0.1568
  544MOL0     C73328   1.276   7.155  11.713 -0.0895 -0.1971  0.4341
  544MOL0     O73329   1.317   7.204  11.844  0.5706 -0.0103  0.5747
  544MOL0     C73330   1.420   7.145  11.907  0.1966  0.7993  0.1832
  544MOL0     C73331   1.460   7.204  12.030  0.0214  0.1313 -0.6023
  544MOL0     C73332   1.566   7.148  12.099  0.3899  0.6566 -0.5520
  544MOL0     C73333   1.606   7.218  12.231  0.2307 -0.0846  0.4905
  544MOL0     C73334   1.641   7.031  12.059  0.7990 -0.2552 -0.1077
  544MOL0     C73335   1.756   6.961  12.135 -0.8949  0.1349 -0.4763
  544MOL0     O73336   1.819   6.848  12.068  0.5503  0.4259  0.0483
  544MOL0     C73337   1.920   6.783  12.141 -0.3927  0.0963  0.0304
  544MOL0     C73338   2.062   6.810  12.133  0.0890  0.0055 -0.3874
  544MOL0     C73339   2.165   6.742  12.204  0.3789  0.4115  0.3203
  544MOL0     C73340   2.113   6.639  12.281 -0.2499 -0.4806 -0.5118
  544MOL0     O73341   2.202   6.559  12.349 -0.1803  0.8207 -0.1563
  544MOL0     C73342   2.293   6.622  12.448 -0.7322 -0.1927  0.3366
  544MOL0     C73343   2.345   6.500  12.532 -0.5781  0.6350 -0.3618
  544MOL0     C73344   2.458   6.522  12.629 -0.4893 -0.5635  0.4151
  544MOL0     C73345   2.438   6.430  12.754  0.2204 -0.9132  0.0478
  544MOL0     C73346   2.561   6.439  12.849  0.8072  0.9703  0.0531
  544MOL0     C73347   2.688   6.360  12.792  0.1295  0.1712  0.6832
  544MOL0     C73348   2.792   6.318  12.904 -0.8694  1.1961 -0.0455
  544MOL0     C73349   2.746   6.219  13.008 -0.2394 -0.6920  0.3376
  544MOL0    Cl73350   2.655   6.074  12.959 -0.8531 -0.2564 -0.7115
  544MOL0     C73351   1.977   6.619  12.300  0.6156 -0.2488 -0.6306
  544MOL0     C73352   1.874   6.700  12.238 -0.1734  0.3716 -0.6485
  544MOL0     O73353   1.778   6.996  12.257  0.2182 -0.2240 -0.1987
  544MOL0     C73354   1.582   6.957  11.946  0.8908  0.5210  0.3137
  544MOL0     C73355   1.468   7.006  11.876  0.1562 -0.1815 -0.0863
  544MOL0     N73356   1.142   7.023  11.264 -0.0142  0.6877 -0.2069
  544MOL0     N73357   1.118   6.993  11.137  0.4493 -0.0374 -0.2686
  544MOL0     C73358   1.206   6.654  10.096 -1.2355 -0.3280  1.0869
  544MOL0     C73359   1.242   6.701   9.966 -0.3013  0.9481 -1.1287
  544MOL0     C73360   1.368   6.898   9.589  0.3062 -0.0506  0.5412
  544MOL0     C73361   1.380   6.830   9.462  0.3148  1.2324  0.2880
  544MOL0     C73362   1.418   6.890   9.346 -0.7557 -0.7038  0.1373
  544MOL0     C73363   1.437   7.032   9.339  0.2479  0.8075  0.2387
  544MOL0     O73364   1.457   7.110   9.227 -0.0916  0.8944  0.5569
  544MOL0     C73365   1.451   7.037   9.104 -0.3880 -0.7228  1.0458
  544MOL0     C73366   1.310   6.980   9.061  0.5100  0.4487 -0.9319
  544MOL0     C73367   1.301   6.934   8.918  0.6143  0.0358 -0.1547
  544MOL0     C73368   1.174   6.853   8.883  0.1211  0.3358 -0.8017
  544MOL0     C73369   1.190   6.784   8.756 -1.1687 -0.3995  0.1976
  544MOL0     C73370   1.220   6.731   8.653  0.0466 -0.2682  0.6131
  544MOL0     C73371   1.424   7.102   9.463 -0.0217 -0.3031  0.8415
  544MOL0     C73372   1.390   7.037   9.582 -0.2792  0.7798 -0.2940
  544MOL0     H73373   1.183   7.021   9.996  0.5875  0.7139  1.1188
  544MOL0     H73374   1.088   6.946  10.219  0.1981 -1.1349  1.6962
  544MOL0     H73375   0.973   6.835  10.363 -1.2583  0.6861  4.8931
  544MOL0     H73376   0.879   6.707  10.287  1.7555 -0.7081  0.2704
  544MOL0     H73377   0.839   6.625  10.489  0.5632 -0.9581  0.2749
  544MOL0     H73378   1.019   6.586  10.492 -0.3910  0.8920  2.5445
  544MOL0     H73379   0.987   6.731  10.703  0.3882  0.1908 -0.1396
  544MOL0     H73380   1.060   6.820  10.579 -1.0234  1.7169  2.1028
  544MOL0     H73381   0.793   6.870  10.528 -0.7340  0.7488  0.2078
  544MOL0     H73382   0.784   6.829  10.695 -3.9963  2.0311 -1.4622
  544MOL0     H73383   0.982   7.030  10.581  0.0363 -3.1823 -1.4617
  544MOL0     H73384   0.845   7.085  10.658  1.2083  1.3020 -2.2505
  544MOL0     H73385   0.928   6.948  10.875  1.0099 -2.0920 -0.6125
  544MOL0     H73386   1.083   6.931  10.786  0.9137  1.2966  2.0079
  544MOL0     H73387   1.066   7.177  10.750 -3.4704  1.3754  0.6674
  544MOL0     H73388   0.968   7.179  10.900 -0.1119  0.5471 -0.7481
  544MOL0     H73389   1.233   7.195  10.896 -2.1631  0.1304 -0.3918
  544MOL0     H73390   1.246   7.023  10.892  2.4560  1.0977 -0.4876
  544MOL0     H73391   1.253   7.296  11.111  1.5022 -0.2895 -0.1307
  544MOL0     H73392   1.262   7.326  11.394  1.6180  0.2604  2.4910
  544MOL0     H73393   1.139   7.223  11.468 -0.6182  1.1631 -1.5723
  544MOL0     H73394   1.431   7.140  11.406 -0.1312  0.1778  1.0030
  544MOL0     H73395   1.311   7.033  11.465 -0.1897 -0.3279 -1.4652
  544MOL0     H73396   1.386   7.300  11.601  2.6111  0.3578 -1.3073
  544MOL0     H73397   1.475   7.154  11.631  1.1449  0.9766 -2.1092
  544MOL0     H73398   1.266   7.046  11.707 -3.3409 -0.0200  0.9818
  544MOL0     H73399   1.182   7.205  11.692  1.3857  2.3485 -0.5690
  544MOL0     H73400   1.403   7.292  12.061 -1.0291 -1.3335  1.9599
  544MOL0     H73401   1.704   7.260  12.210 -1.0263  3.9744  1.7516
  544MOL0     H73402   1.550   7.306  12.265 -0.0358  0.1232 -0.4455
  544MOL0     H73403   1.611   7.144  12.311 -0.5173  0.4446  1.0467
  544MOL0     H73404   2.092   6.899  12.078  3.0787  0.6801  2.0581
  544MOL0     H73405   2.272   6.760  12.209  0.2022  1.8940 -0.7817
  544MOL0     H73406   2.376   6.672  12.399 -2.9653  1.3259 -2.1576
  544MOL0     H73407   2.239   6.691  12.514  1.6561  0.1116  2.1110
  544MOL0     H73408   2.260   6.476  12.596  2.2748 -2.3193  2.7288
  544MOL0     H73409   2.376   6.420  12.464 -1.4654  0.0954 -0.1467
  544MOL0     H73410   2.468   6.621  12.674 -0.8477 -0.9104  1.2980
  544MOL0     H73411   2.550   6.495  12.577 -0.2407  1.6266 -0.3690
  544MOL0     H73412   2.363   6.479  12.817  1.0305  0.3890  0.0419
  544MOL0     H73413   2.406   6.328  12.732 -2.6582 -0.3692  1.2309
  544MOL0     H73414   2.524   6.396  12.942  0.2665 -0.5935 -0.8572
  544MOL0     H73415   2.592   6.538  12.885 -3.3937  1.8642  1.9009
  544MOL0     H73416   2.649   6.273  12.740  3.7755 -0.2440 -1.6771
  544MOL0     H73417   2.740   6.421  12.718 -2.1083 -1.6887 -2.6826
  544MOL0     H73418   2.818   6.412  12.954  0.5607  0.3816  0.8112
  544MOL0     H73419   2.879   6.280  12.849 -1.1339  1.7975 -0.8828
  544MOL0     H73420   2.675   6.271  13.074 -0.3998  1.5087 -1.4333
  544MOL0     H73421   2.836   6.204  13.070  0.9087  3.8831  0.2073
  544MOL0     H73422   1.937   6.541  12.364 -1.9654  0.2621 -1.5204
  544MOL0     H73423   1.773   6.667  12.255  0.7209 -2.3499 -0.1455
  544MOL0     H73424   1.628   6.861  11.926 -2.2481 -1.1267  0.2225
  544MOL0     H73425   1.446   6.942  11.791 -0.4824  0.3187 -0.2997
  544MOL0     H73426   1.205   6.549  10.124 -1.0695  0.0868  2.7323
  544MOL0     H73427   1.288   6.630   9.898 -0.1777 -0.2234  0.1312
  544MOL0     H73428   1.375   6.722   9.459 -1.5300  1.2653 -3.8115
  544MOL0     H73429   1.438   6.830   9.258  3.4996 -3.2743  2.4896
  544MOL0     H73430   1.479   7.109   9.026  0.0262 -1.1808  0.7664
  544MOL0     H73431   1.530   6.962   9.105  2.4248  1.9391 -1.2376
  544MOL0     H73432   1.233   7.054   9.085 -1.1349 -2.0145  2.2416
  544MOL0     H73433   1.268   6.909   9.133 -2.9734  0.5318 -2.6873
  544MOL0     H73434   1.387   6.867   8.909 -0.9882 -1.9059 -2.1794
  544MOL0     H73435   1.318   7.021   8.854  1.1822  1.1017  1.3733
  544MOL0     H73436   1.088   6.920   8.882  2.6222  3.7682 -0.3830
  544MOL0     H73437   1.156   6.776   8.959  1.9355 -0.7846 -1.4432
  544MOL0     H73438   1.242   6.676   8.564 -2.3857  0.6732 -0.6854
  544MOL0     H73439   1.436   7.209   9.454  0.4503 -0.3446  0.9674
  544MOL0     H73440   1.367   7.103   9.665 -1.5654  0.2720 -0.2278
  545MOL0     O73441   4.522  10.443  10.370  0.4187  0.1914  0.0864
  545MOL0     C73442   4.420  10.383  10.418  0.4025  1.0636  0.4563
  545MOL0     O73443   4.305  10.356  10.354 -0.6475 -0.3874  0.6232
  545MOL0     C73444   4.298  10.389  10.222  1.1734  0.2168  1.0771
  545MOL0     C73445   4.176  10.451  10.185 -0.3866 -1.4256  0.2465
  545MOL0     C73446   4.150  10.487  10.050  0.0593 -1.1883  0.9076
  545MOL0     C73447   4.252  10.460   9.953 -0.2991  0.1418 -0.1241
  545MOL0     O73448   4.223  10.499   9.827  0.2446  0.8028 -0.2679
  545MOL0     C73449   4.300  10.605   9.774 -0.3862  0.3036  0.8213
  545MOL0     C73450   4.306  10.632   9.631  0.9722  0.3152  0.2415
  545MOL0     C73451   4.362  10.520   9.539  0.4787  0.7527 -0.6761
  545MOL0     C73452   4.263  10.448   9.453  0.2672 -0.4206 -0.0764
  545MOL0     C73453   4.324  10.348   9.359  0.5917  0.0012  0.1247
  545MOL0     C73454   4.347  10.210   9.425  0.1411 -0.0570 -0.6094
  545MOL0     C73455   4.408  10.094   9.327  0.5433 -1.1367  0.4953
  545MOL0     C73456   4.306  10.042   9.228 -1.7670 -0.2205 -0.0609
  545MOL0     N73457   4.344   9.921   9.157 -0.2218 -0.3360  0.1798
  545MOL0     C73458   4.354   9.799   9.214  0.3256 -0.6143  0.4911
  545MOL0     C73459   4.411   9.724   9.110 -0.7373  0.3374  0.2735
  545MOL0     C73460   4.468   9.583   9.126  1.3019 -0.0356 -0.0608
  545MOL0     C73461   4.346   9.494   9.163 -0.9177 -1.0392 -0.3850
  545MOL0     C73462   4.251   9.487   9.036 -0.4413 -0.1156 -0.8124
  545MOL0     C73463   4.142   9.388   9.051 -0.4223  0.3872 -0.6244
  545MOL0     O73464   4.032   9.435   8.972  0.0221  0.4203  0.4133
  545MOL0     C73465   3.916   9.383   9.022  0.0262 -0.2162  0.5037
  545MOL0     C73466   3.830   9.471   9.085  0.1008  0.2213  0.1709
  545MOL0     C73467   3.724   9.430   9.160  0.4939 -0.1864 -0.4773
  545MOL0     C73468   3.650   9.530   9.236 -0.0145  0.1193  1.0661
  545MOL0     C73469   3.691   9.294   9.157  0.4574 -0.4031  0.5937
  545MOL0     C73470   3.571   9.230   9.221 -0.2903  0.6590 -0.3623
  545MOL0     O73471   3.532   9.268   9.344 -0.2174 -0.0957 -0.3512
  545MOL0     C73472   3.407   9.227   9.382  0.4299  0.0652  0.9414
  545MOL0     C73473   3.384   9.119   9.478 -0.0437 -0.4355  0.5016
  545MOL0     C73474   3.253   9.092   9.522  0.8763 -0.3519  0.9229
  545MOL0     C73475   3.141   9.173   9.481  0.6138 -0.1472  0.4216
  545MOL0     O73476   3.017   9.163   9.533  1.0186  0.1531  1.0064
  545MOL0     C73477   2.977   9.070   9.634 -0.1581  0.2288  0.3728
  545MOL0     C73478   2.929   9.148   9.765  0.1411  0.1350 -0.4810
  545MOL0     C73479   2.799   9.224   9.732 -1.0673  0.0160 -0.2308
  545MOL0     C73480   2.819   9.366   9.783 -0.9209  0.0020 -0.6197
  545MOL0     C73481   2.710   9.455   9.741  0.5431 -0.0865 -0.2251
  545MOL0     C73482   2.751   9.591   9.780 -0.4102  0.3620 -0.0749
  545MOL0     C73483   2.709   9.699   9.677  0.2153 -0.6556 -0.1099
  545MOL0     C73484   2.722   9.841   9.736  0.4548 -0.3964 -0.1864
  545MOL0    Cl73485   2.576   9.863   9.832  0.1814 -0.1834  0.4162
  545MOL0     C73486   3.163   9.273   9.391 -0.2942  0.3579 -0.3850
  545MOL0     C73487   3.295   9.299   9.333  0.1191  0.4102 -0.0830
  545MOL0     O73488   3.527   9.126   9.167 -0.7652 -0.2316  0.0869
  545MOL0     C73489   3.776   9.208   9.087 -1.0480 -0.1473 -0.0933
  545MOL0     C73490   3.893   9.247   9.020  0.6583  1.0173 -0.1841
  545MOL0     N73491   4.394   9.794   8.991 -0.1626  0.1679 -0.1925
  545MOL0     N73492   4.358   9.912   9.022 -0.4474  0.1052 -0.6801
  545MOL0     C73493   4.368  10.393   9.988 -0.0068 -0.3725  0.0110
  545MOL0     C73494   4.390  10.362  10.119 -0.0487  0.5108  0.0671
  545MOL0     C73495   4.417  10.377  10.559 -0.1983 -1.2738  0.4913
  545MOL0     C73496   4.299  10.365  10.626 -0.4402  0.7107  0.0680
  545MOL0     C73497   4.291  10.355  10.766 -0.3980 -0.4701 -0.4929
  545MOL0     C73498   4.410  10.360  10.842  0.4407  0.5922  1.8188
  545MOL0     O73499   4.407  10.351  10.978 -0.6464  1.0609  0.0693
  545MOL0     C73500   4.276  10.334  11.042 -0.1333 -0.1614  0.1122
  545MOL0     C73501   4.288  10.332  11.195 -0.6943 -0.0327  1.0873
  545MOL0     C73502   4.156  10.283  11.248  0.1867  1.2098 -0.5360
  545MOL0     C73503   4.151  10.282  11.403 -0.0048 -0.2110  0.6086
  545MOL0     C73504   4.023  10.246  11.456 -0.5634 -0.2980  0.0946
  545MOL0     C73505   3.917  10.220  11.507  0.0425 -0.0527 -0.2567
  545MOL0     C73506   4.535  10.364  10.776  0.5147  0.0451 -0.2940
  545MOL0     C73507   4.540  10.372  10.635 -0.0220 -0.3016 -0.3525
  545MOL0     H73508   4.101  10.467  10.262  1.2909  1.5177  1.4572
  545MOL0     H73509   4.057  10.532  10.018  0.2600 -0.6332  1.0875
  545MOL0     H73510   4.259  10.686   9.834 -0.8120  1.4474 -0.9455
  545MOL0     H73511   4.405  10.598   9.804 -0.2109  2.8206  1.0028
  545MOL0     H73512   4.208  10.654   9.587  2.1948 -1.1213 -3.6489
  545MOL0     H73513   4.363  10.726   9.621  2.1114 -0.4121 -0.3715
  545MOL0     H73514   4.442  10.562   9.478  0.2318  0.8282 -0.9498
  545MOL0     H73515   4.407  10.450   9.610 -2.6681  1.8747  2.7459
  545MOL0     H73516   4.184  10.396   9.508  0.5124  0.0204  0.7077
  545MOL0     H73517   4.218  10.529   9.396  2.3307 -0.5042 -1.9492
  545MOL0     H73518   4.258  10.341   9.272 -2.3152  3.3612  1.7760
  545MOL0     H73519   4.416  10.395   9.324  0.1835  0.0566 -0.9238
  545MOL0     H73520   4.405  10.200   9.518  0.8964  0.1517 -1.0486
  545MOL0     H73521   4.246  10.178   9.454 -0.5217  2.0811 -0.4279
  545MOL0     H73522   4.484  10.135   9.260 -2.0266 -1.6547 -3.0488
  545MOL0     H73523   4.447  10.007   9.382 -1.2656 -1.0864  1.9475
  545MOL0     H73524   4.281  10.119   9.155  0.1706  0.9324  0.4095
  545MOL0     H73525   4.215  10.018   9.284 -0.9579 -0.9568  0.9833
  545MOL0     H73526   4.351   9.782   9.321 -1.6885 -0.0431  0.5692
  545MOL0     H73527   4.504   9.547   9.029 -2.6901 -2.0995 -0.9956
  545MOL0     H73528   4.541   9.580   9.208 -1.2903 -0.7391  2.3878
  545MOL0     H73529   4.285   9.517   9.251 -2.8618 -4.3462 -0.6777
  545MOL0     H73530   4.383   9.393   9.182 -1.5155 -1.1728  0.1095
  545MOL0     H73531   4.300   9.452   8.945  2.5841  0.3689  0.5084
  545MOL0     H73532   4.205   9.584   9.017  2.2089  1.1776 -1.1452
  545MOL0     H73533   4.121   9.377   9.157  0.1177 -0.6179 -0.6062
  545MOL0     H73534   4.159   9.285   9.017 -0.3342  1.2830 -3.6554
  545MOL0     H73535   3.849   9.577   9.074  0.9618  0.0305 -0.2540
  545MOL0     H73536   3.554   9.548   9.187  0.8194 -0.1187 -0.7197
  545MOL0     H73537   3.631   9.502   9.340 -0.7554  0.1197  0.9355
  545MOL0     H73538   3.697   9.629   9.240  1.8995 -0.7575  3.5667
  545MOL0     H73539   3.471   9.065   9.516 -1.2964  0.1803  4.7732
  545MOL0     H73540   3.227   9.005   9.582 -0.4606 -0.2510  0.5310
  545MOL0     H73541   2.900   9.006   9.590  1.4699 -1.4054 -0.1929
  545MOL0     H73542   3.059   9.005   9.665  0.5013 -0.7697 -3.0447
  545MOL0     H73543   2.903   9.084   9.850 -2.6881  0.7627 -0.7635
  545MOL0     H73544   3.008   9.216   9.796 -1.3046 -0.1294  4.8339
  545MOL0     H73545   2.713   9.181   9.784 -0.2288  1.7879  2.9081
  545MOL0     H73546   2.774   9.209   9.627 -1.3190 -0.1766 -0.1451
  545MOL0     H73547   2.829   9.364   9.892 -1.3293  0.1774 -0.5783
  545MOL0     H73548   2.905   9.409   9.732 -2.0872  0.0945 -2.5860
  545MOL0     H73549   2.619   9.426   9.795  1.2525 -0.7324  0.6640
  545MOL0     H73550   2.706   9.456   9.631  0.6112 -0.8736 -0.2441
  545MOL0     H73551   2.710   9.638   9.870 -0.7692  1.8803 -0.9898
  545MOL0     H73552   2.860   9.600   9.790 -0.1524 -0.2237 -1.9768
  545MOL0     H73553   2.604   9.687   9.648 -0.1238  1.6371 -0.0227
  545MOL0     H73554   2.778   9.695   9.592  1.4616  2.5213  0.6052
  545MOL0     H73555   2.711   9.902   9.646  1.8162  0.6974  0.3596
  545MOL0     H73556   2.807   9.858   9.802 -0.7609  1.2415  1.0586
  545MOL0     H73557   3.073   9.333   9.384 -1.4391 -0.4229  4.2830
  545MOL0     H73558   3.321   9.394   9.287 -0.8883  0.1972 -1.1549
  545MOL0     H73559   3.749   9.103   9.087 -0.2259 -0.3745 -0.8519
  545MOL0     H73560   3.951   9.179   8.958  1.7960  1.9770 -0.2009
  545MOL0     H73561   4.447  10.377   9.915  0.3879 -0.7207  0.5010
  545MOL0     H73562   4.473  10.293  10.132 -0.1401 -0.0048 -1.7614
  545MOL0     H73563   4.207  10.368  10.569 -0.8124 -0.5035  0.5601
  545MOL0     H73564   4.190  10.334  10.801  0.4679 -0.1338  2.4775
  545MOL0     H73565   4.208  10.409  10.999 -1.8295 -3.2571 -3.0913
  545MOL0     H73566   4.240  10.234  11.017 -0.2755  0.1912 -1.1730
  545MOL0     H73567   4.312  10.431  11.236  2.7119  0.1286 -0.9189
  545MOL0     H73568   4.362  10.255  11.215 -1.8097 -0.7874  2.5245
  545MOL0     H73569   4.139  10.178  11.222  2.8096  0.4202  0.6053
  545MOL0     H73570   4.077  10.343  11.202 -1.4686  0.0399  0.6608
  545MOL0     H73571   4.181  10.378  11.446  2.7407 -2.1300  3.4416
  545MOL0     H73572   4.231  10.218  11.442  2.8630  2.6763 -0.0597
  545MOL0     H73573   3.823  10.212  11.559  1.3448  1.3023  2.5368
  545MOL0     H73574   4.625  10.352  10.835  0.0333 -0.6569  0.3212
  545MOL0     H73575   4.637  10.370  10.586  0.8885 -0.8404  1.3793
  546MOL0     O73576   7.091   6.912   5.347 -0.6151 -0.0136  0.5221
  546MOL0     C73577   6.978   6.924   5.306 -0.3809 -0.4913  0.3672
  546MOL0     O73578   6.873   6.986   5.363  0.6323 -0.7623  0.3515
  546MOL0     C73579   6.882   7.043   5.485  0.7281  0.1318 -0.3290
  546MOL0     C73580   6.985   7.029   5.586 -0.4075 -0.1613  0.1828
  546MOL0     C73581   6.965   7.089   5.709  0.1547 -0.1733  0.0448
  546MOL0     C73582   6.844   7.155   5.746 -0.3593 -0.5163  0.0927
  546MOL0     O73583   6.801   7.199   5.870  0.6391  0.0612  0.2564
  546MOL0     C73584   6.903   7.278   5.933 -0.4603  0.7786  0.2796
  546MOL0     C73585   6.959   7.200   6.054  0.0061 -0.3263 -0.4999
  546MOL0     C73586   6.858   7.130   6.144  0.3911 -0.7211  0.3023
  546MOL0     C73587   6.929   7.061   6.262 -0.5059 -0.3587  0.3367
  546MOL0     C73588   6.833   6.997   6.352 -0.0819 -0.4044 -0.6259
  546MOL0     C73589   6.724   7.070   6.419  0.3179 -0.3233  0.8166
  546MOL0     C73590   6.636   6.971   6.501 -0.0903  0.6713 -0.6792
  546MOL0     C73591   6.573   6.853   6.427 -0.4137  0.1075 -0.9318
  546MOL0     N73592   6.476   6.886   6.329  0.0103  0.1343  0.3629
  546MOL0     C73593   6.500   6.905   6.200  0.1390 -0.3662  1.5326
  546MOL0     C73594   6.383   6.911   6.135  0.1755 -0.9870 -0.0462
  546MOL0     C73595   6.371   6.913   5.990 -0.1074  0.1567 -0.5048
  546MOL0     C73596   6.335   7.044   5.934 -1.8663 -0.3049  0.4350
  546MOL0     C73597   6.463   7.135   5.910  0.1185  0.2790 -0.3924
  546MOL0     C73598   6.473   7.256   5.988  0.3294 -0.5359 -0.6760
  546MOL0     O73599   6.512   7.214   6.116 -1.2555  0.0839 -0.5423
  546MOL0     C73600   6.485   7.294   6.218 -0.4384 -0.9117 -0.8630
  546MOL0     C73601   6.587   7.386   6.260  0.8638 -0.6888 -0.8991
  546MOL0     C73602   6.559   7.476   6.373 -0.7152  0.1061 -0.3155
  546MOL0     C73603   6.678   7.558   6.414  0.8866 -0.4245 -0.3027
  546MOL0     C73604   6.437   7.478   6.437  0.0341 -0.1416  0.2776
  546MOL0     C73605   6.401   7.560   6.550  0.2657 -0.5793 -0.7831
  546MOL0     O73606   6.263   7.558   6.566  0.0420  1.0865 -1.0074
  546MOL0     C73607   6.193   7.642   6.654 -0.0845  0.2541  0.0650
  546MOL0     C73608   6.096   7.587   6.742  0.3853 -0.5545 -0.9200
  546MOL0     C73609   6.052   7.669   6.846  0.0227  0.9174 -0.3522
  546MOL0     C73610   6.087   7.810   6.842  0.0808 -0.3685  0.5979
  546MOL0     O73611   6.043   7.914   6.921 -0.6751  0.4297 -0.4608
  546MOL0     C73612   5.987   7.880   7.046  0.2948 -0.3525 -0.4808
  546MOL0     C73613   5.955   8.018   7.121  0.4562  0.3323 -0.1278
  546MOL0     C73614   5.914   8.007   7.274 -0.4754 -0.5270 -0.1106
  546MOL0     C73615   5.800   7.910   7.294  0.1816  0.6117  1.1419
  546MOL0     C73616   5.828   7.852   7.444 -0.3932 -0.8549  0.9168
  546MOL0     C73617   5.942   7.747   7.440 -0.6360  0.2923  0.4780
  546MOL0     C73618   5.946   7.676   7.568 -0.2574 -0.3771 -1.3340
  546MOL0     C73619   6.064   7.572   7.555 -0.0676 -0.0507  0.3479
  546MOL0    Cl73620   6.233   7.644   7.513  0.4637 -0.8537  0.4984
  546MOL0     C73621   6.176   7.858   6.749  1.1378 -0.5945  0.1786
  546MOL0     C73622   6.229   7.774   6.659 -1.2290 -0.3893 -0.7341
  546MOL0     O73623   6.475   7.596   6.641 -0.8545 -0.5295 -0.5386
  546MOL0     C73624   6.334   7.402   6.375 -0.7887  0.0715  0.8034
  546MOL0     C73625   6.360   7.309   6.272 -0.8938 -0.2546 -0.9210
  546MOL0     N73626   6.287   6.908   6.231  1.1648  0.5019 -0.3905
  546MOL0     N73627   6.344   6.873   6.342 -0.2751 -0.8347 -1.0934
  546MOL0     C73628   6.759   7.178   5.640 -0.0135  1.0891  0.1751
  546MOL0     C73629   6.770   7.117   5.518  0.6363 -1.0415  0.0458
  546MOL0     C73630   6.951   6.840   5.177  0.6353  0.1069  0.2251
  546MOL0     C73631   7.054   6.758   5.125  1.2957  0.2440  0.6193
  546MOL0     C73632   7.021   6.686   5.003  0.1619  0.2336  0.0104
  546MOL0     C73633   6.898   6.685   4.940  0.0396 -0.2858 -0.2463
  546MOL0     O73634   6.857   6.614   4.827 -0.6880  0.3785  0.5377
  546MOL0     C73635   6.896   6.695   4.711 -0.1922 -0.4067  0.2946
  546MOL0     C73636   6.898   6.599   4.597  0.4585 -0.1963 -0.1781
  546MOL0     C73637   6.756   6.553   4.547  0.3446 -0.0174 -0.0280
  546MOL0     C73638   6.735   6.412   4.522  0.3572 -0.5883  0.2993
  546MOL0     C73639   6.818   6.312   4.598  0.4887 -0.0728 -0.1311
  546MOL0     C73640   6.885   6.234   4.659  0.1014  0.2061  0.2143
  546MOL0     C73641   6.800   6.761   5.004  0.5146 -0.6127 -1.0943
  546MOL0     C73642   6.825   6.847   5.113 -0.1373  0.0823 -0.6749
  546MOL0     H73643   7.081   6.992   5.554  0.3441  0.7024  1.3571
  546MOL0     H73644   7.047   7.074   5.779  0.2216 -0.7679 -0.1559
  546MOL0     H73645   6.987   7.305   5.868  0.5732 -1.5649  0.4960
  546MOL0     H73646   6.859   7.370   5.971  1.8661  1.3203  1.9006
  546MOL0     H73647   7.013   7.114   6.012  2.0558  0.7905 -0.3150
  546MOL0     H73648   7.028   7.264   6.109 -1.3861  3.9507 -3.2785
  546MOL0     H73649   6.786   7.195   6.195  0.5108  2.6548 -3.3403
  546MOL0     H73650   6.791   7.064   6.088 -0.4349  0.9632 -0.7821
  546MOL0     H73651   6.999   6.990   6.219 -3.6110 -4.3126  1.2012
  546MOL0     H73652   6.984   7.136   6.320 -2.7581  0.8301  1.0642
  546MOL0     H73653   6.788   6.919   6.291  1.0348 -0.7257 -1.0492
  546MOL0     H73654   6.884   6.960   6.442 -3.9855 -1.3997  1.4283
  546MOL0     H73655   6.761   7.154   6.479  1.4169  1.0307 -1.5993
  546MOL0     H73656   6.657   7.115   6.346 -0.3528 -2.7576 -0.1481
  546MOL0     H73657   6.702   6.929   6.577  1.0481  0.0600 -1.9558
  546MOL0     H73658   6.558   7.028   6.552  0.8331 -0.6490  2.4865
  546MOL0     H73659   6.523   6.808   6.513 -1.7974  0.8710 -1.3151
  546MOL0     H73660   6.647   6.786   6.383  1.7176 -0.3204  2.8646
  546MOL0     H73661   6.591   6.938   6.150  0.6782  1.6978  3.6677
  546MOL0     H73662   6.467   6.887   5.946 -0.3032  2.6569 -2.6574
  546MOL0     H73663   6.294   6.841   5.960  0.5023 -0.1047 -1.4671
  546MOL0     H73664   6.258   7.104   5.983 -2.2431  0.9654 -1.5804
  546MOL0     H73665   6.299   7.025   5.833 -2.0748 -0.7487  0.5899
  546MOL0     H73666   6.478   7.146   5.802 -0.3075 -5.5518 -1.3713
  546MOL0     H73667   6.546   7.076   5.948 -2.0935 -1.1930  2.5771
  546MOL0     H73668   6.385   7.321   5.989  2.1359  2.0775 -0.2944
  546MOL0     H73669   6.548   7.318   5.938 -2.5485  2.8595 -1.1854
  546MOL0     H73670   6.682   7.397   6.207  1.0818  0.2972 -0.3326
  546MOL0     H73671   6.694   7.565   6.522  0.9612 -2.2735 -0.1637
  546MOL0     H73672   6.773   7.521   6.373  1.8289  0.7408  0.7515
  546MOL0     H73673   6.672   7.657   6.368  2.7691 -1.6505 -3.5381
  546MOL0     H73674   6.072   7.482   6.750  0.3516 -0.4234  1.6254
  546MOL0     H73675   5.989   7.626   6.923 -1.3253  2.7270 -0.3773
  546MOL0     H73676   5.909   7.806   7.022  3.2013 -2.3253 -5.0730
  546MOL0     H73677   6.066   7.828   7.102 -0.7759  2.1604  3.8304
  546MOL0     H73678   6.037   8.091   7.117  0.2371  0.7322  1.8499
  546MOL0     H73679   5.868   8.054   7.065  1.1123 -2.8779 -3.6635
  546MOL0     H73680   5.893   8.101   7.326  1.1967 -0.4944  0.5885
  546MOL0     H73681   6.011   7.981   7.318  1.0856  1.6516 -1.9557
  546MOL0     H73682   5.706   7.966   7.289 -0.5110 -0.6131 -0.8602
  546MOL0     H73683   5.794   7.826   7.224  1.6812  0.9853  0.5414
  546MOL0     H73684   5.745   7.806   7.499  1.7643 -2.4164  3.0831
  546MOL0     H73685   5.862   7.938   7.502  2.0975 -1.6489  0.7489
  546MOL0     H73686   5.932   7.672   7.361  0.4226  1.0797 -0.4218
  546MOL0     H73687   6.039   7.796   7.427 -0.0682 -0.3847  1.8967
  546MOL0     H73688   5.856   7.620   7.592  0.2883 -1.2329 -1.2302
  546MOL0     H73689   5.968   7.750   7.646 -0.2485 -0.4209 -1.2949
  546MOL0     H73690   6.052   7.499   7.474  1.9165 -0.8856  0.7406
  546MOL0     H73691   6.070   7.512   7.647 -3.7871 -1.6233 -0.2467
  546MOL0     H73692   6.206   7.962   6.740 -0.4100 -0.2089 -0.8297
  546MOL0     H73693   6.297   7.808   6.582  0.7508 -2.1610  0.1189
  546MOL0     H73694   6.228   7.406   6.397 -1.1747  1.5490 -1.0096
  546MOL0     H73695   6.271   7.264   6.228 -0.9834  0.3380 -1.3459
  546MOL0     H73696   6.671   7.242   5.645 -2.5399 -2.0607 -0.3819
  546MOL0     H73697   6.694   7.130   5.442 -1.0663  1.7736  2.0602
  546MOL0     H73698   7.151   6.750   5.174  2.2431 -1.9648 -1.3846
  546MOL0     H73699   7.101   6.621   4.969  1.5649  1.5178  0.7678
  546MOL0     H73700   6.837   6.785   4.691  1.5292  0.6073 -0.4520
  546MOL0     H73701   6.996   6.735   4.728 -0.3105  1.4783 -2.6896
  546MOL0     H73702   6.958   6.512   4.624  0.1237  0.2405  2.2651
  546MOL0     H73703   6.949   6.635   4.508 -0.1269 -4.0928 -2.3349
  546MOL0     H73704   6.733   6.612   4.458 -4.1231  0.4805  1.2391
  546MOL0     H73705   6.684   6.573   4.626  1.9067  1.5625  1.0720
  546MOL0     H73706   6.753   6.386   4.417  0.1886  0.9939 -0.1501
  546MOL0     H73707   6.628   6.391   4.532  0.3313 -0.5610  0.0945
  546MOL0     H73708   6.947   6.160   4.706  1.3572  0.9798 -0.1708
  546MOL0     H73709   6.697   6.746   4.976  0.3157 -0.1787 -0.6117
  546MOL0     H73710   6.739   6.904   5.145 -2.1393 -1.8241 -2.3396
  547MOL0     O73711   1.952   1.625   2.987 -0.0075  0.7636 -0.1500
  547MOL0     C73712   1.886   1.677   2.896  0.2649  0.6672 -1.3501
  547MOL0     O73713   1.937   1.779   2.817  0.1082  0.1239 -0.7462
  547MOL0     C73714   2.028   1.868   2.873  0.2474  0.3548 -0.5931
  547MOL0     C73715   2.027   1.903   3.012 -0.0001 -0.2643  0.7064
  547MOL0     C73716   2.133   1.992   3.051 -0.0016  0.2713  0.0871
  547MOL0     C73717   2.190   2.081   2.954  0.4050 -0.7031 -0.4607
  547MOL0     O73718   2.284   2.171   3.002  0.0614  0.1914 -0.3771
  547MOL0     C73719   2.372   2.235   2.913 -1.5899 -0.5847 -0.3977
  547MOL0     C73720   2.486   2.330   2.968  0.1487  0.3317 -0.9283
  547MOL0     C73721   2.552   2.259   3.083  0.7620 -0.2984 -0.3299
  547MOL0     C73722   2.617   2.368   3.174  0.1050 -0.0655  0.3434
  547MOL0     C73723   2.536   2.409   3.298 -0.4765 -0.5741 -0.6213
  547MOL0     C73724   2.414   2.489   3.277  0.0861 -0.3446  0.7326
  547MOL0     C73725   2.360   2.549   3.409  0.0260  0.1483  0.5784
  547MOL0     C73726   2.447   2.653   3.479 -1.1316  0.3679  0.9987
  547MOL0     N73727   2.495   2.749   3.373  0.5393 -0.9407 -0.8354
  547MOL0     C73728   2.423   2.852   3.308 -0.0053 -0.4656 -0.1254
  547MOL0     C73729   2.517   2.921   3.240 -1.3548  0.8323  1.1538
  547MOL0     C73730   2.509   3.048   3.152 -0.9809 -0.3356 -0.4336
  547MOL0     C73731   2.374   3.100   3.147 -0.5618  0.3376 -0.0622
  547MOL0     C73732   2.395   3.229   3.063  0.6321 -0.0056  0.6401
  547MOL0     C73733   2.262   3.295   3.025  0.2438  0.5886 -0.9651
  547MOL0     O73734   2.162   3.305   3.134  0.3779 -0.4095 -0.0450
  547MOL0     C73735   2.059   3.390   3.098  0.3739  0.2030  0.1059
  547MOL0     C73736   2.066   3.514   3.151  0.5317  0.2255  1.8382
  547MOL0     C73737   1.961   3.609   3.121  0.1906  1.1361 -1.3805
  547MOL0     C73738   1.979   3.747   3.161  0.5457  0.3590  0.1830
  547MOL0     C73739   1.853   3.561   3.043 -1.0105  1.0143  0.7662
  547MOL0     C73740   1.737   3.645   2.997  0.1690  0.5650  0.3299
  547MOL0     O73741   1.666   3.592   2.880 -0.0742 -0.2498 -0.2036
  547MOL0     C73742   1.541   3.623   2.847 -0.6029  0.2945 -1.0702
  547MOL0     C73743   1.444   3.678   2.932 -1.4622 -0.8651  0.0840
  547MOL0     C73744   1.326   3.728   2.871  0.2590  0.6783  0.4116
  547MOL0     C73745   1.303   3.698   2.745  0.1541 -0.3922  0.4946
  547MOL0     O73746   1.182   3.747   2.702 -0.4687  0.5667  1.0281
  547MOL0     C73747   1.167   3.741   2.552 -0.1705 -0.6015  1.3333
  547MOL0     C73748   1.040   3.803   2.492  0.5178 -0.1923 -0.8216
  547MOL0     C73749   1.031   3.954   2.518  0.1671 -0.7765 -0.3070
  547MOL0     C73750   0.929   4.030   2.435 -0.1794  0.1192  0.0758
  547MOL0     C73751   0.930   4.180   2.466  0.5583 -0.5403  0.0926
  547MOL0     C73752   0.806   4.248   2.414  0.2191  0.5345  0.3372
  547MOL0     C73753   0.770   4.229   2.267 -0.5010 -0.2607 -0.2378
  547MOL0     C73754   0.635   4.270   2.223  0.0399 -0.3149 -0.3570
  547MOL0    Cl73755   0.595   4.443   2.240  0.1887  0.2941  0.3110
  547MOL0     C73756   1.396   3.633   2.662 -0.6124  1.1099 -0.8767
  547MOL0     C73757   1.519   3.585   2.715  0.1629 -0.5695 -0.5326
  547MOL0     O73758   1.698   3.749   3.053 -0.3411 -0.2554 -0.7017
  547MOL0     C73759   1.853   3.423   2.998  0.5900 -1.1860  0.6147
  547MOL0     C73760   1.952   3.337   3.025 -0.4250 -0.0162  0.6783
  547MOL0     N73761   2.642   2.863   3.265 -0.1012  0.9767 -0.8487
  547MOL0     N73762   2.626   2.757   3.338  0.6258 -0.4486  0.4347
  547MOL0     C73763   2.163   2.061   2.823  0.4776  0.1906 -0.3536
  547MOL0     C73764   2.083   1.959   2.782  0.2694  0.5631 -0.3641
  547MOL0     C73765   1.762   1.604   2.866  0.2955 -0.5750 -0.2062
  547MOL0     C73766   1.747   1.468   2.903  0.1915 -0.1899  0.4169
  547MOL0     C73767   1.630   1.403   2.905  0.4172 -0.7580 -0.4991
  547MOL0     C73768   1.518   1.467   2.852  0.1904  0.1705  0.0912
  547MOL0     O73769   1.407   1.403   2.808 -0.0424  0.1265 -0.4548
  547MOL0     C73770   1.308   1.385   2.915  0.0418 -0.3482  0.6451
  547MOL0     C73771   1.238   1.246   2.905  0.6687 -0.4563 -0.6400
  547MOL0     C73772   1.143   1.243   2.790 -0.4383 -0.8349  0.4105
  547MOL0     C73773   1.067   1.122   2.770  0.2979  0.3973  0.2394
  547MOL0     C73774   1.148   1.000   2.745  0.0610  0.3411 -0.0224
  547MOL0     C73775   1.214   0.899   2.726  0.5052 -0.4820 -0.1929
  547MOL0     C73776   1.524   1.603   2.817  0.2128 -0.0435 -0.6374
  547MOL0     C73777   1.634   1.675   2.838  0.1288  0.0592 -0.8207
  547MOL0     H73778   1.971   1.847   3.087  2.7872 -0.1656  3.0334
  547MOL0     H73779   2.148   1.994   3.158 -0.9023  0.9409  0.2209
  547MOL0     H73780   2.417   2.155   2.854  0.9247 -0.1625  0.7830
  547MOL0     H73781   2.313   2.306   2.854  0.3453  0.1472 -1.5452
  547MOL0     H73782   2.567   2.362   2.902  2.7477 -3.4440  0.1020
  547MOL0     H73783   2.438   2.425   2.996 -1.2045  0.4842 -3.4825
  547MOL0     H73784   2.475   2.210   3.143  2.2130 -2.1227  0.1413
  547MOL0     H73785   2.635   2.191   3.059  1.1170 -0.1124  0.3243
  547MOL0     H73786   2.703   2.311   3.211 -1.0800 -2.0801  0.1870
  547MOL0     H73787   2.647   2.455   3.115  0.3801 -0.1904  0.2960
  547MOL0     H73788   2.504   2.320   3.353 -4.1879  0.9071 -0.0797
  547MOL0     H73789   2.603   2.477   3.352 -1.7074  1.5341 -1.6207
  547MOL0     H73790   2.427   2.568   3.202 -3.1964  0.3701  0.7689
  547MOL0     H73791   2.336   2.428   3.231 -0.3196  0.8711 -0.2544
  547MOL0     H73792   2.262   2.592   3.386  0.1348  0.3527  0.4950
  547MOL0     H73793   2.346   2.459   3.470  1.8935 -1.9964 -1.8824
  547MOL0     H73794   2.535   2.609   3.528 -0.9493  0.8885  1.1426
  547MOL0     H73795   2.399   2.711   3.559  0.4094  1.8922  0.8704
  547MOL0     H73796   2.319   2.870   3.332 -0.4875 -3.5271  0.5556
  547MOL0     H73797   2.580   3.125   3.183  0.7361 -1.1386 -2.1700
  547MOL0     H73798   2.549   3.008   3.059  1.1948 -3.7965  1.7423
  547MOL0     H73799   2.330   3.116   3.247 -0.5149  1.4866 -0.2094
  547MOL0     H73800   2.296   3.040   3.099 -1.0970 -0.5491  1.8027
  547MOL0     H73801   2.460   3.218   2.976 -3.4141  0.1914 -2.7003
  547MOL0     H73802   2.453   3.304   3.119  3.2878  1.0317 -3.0766
  547MOL0     H73803   2.217   3.243   2.940  0.7173 -0.3536 -0.6560
  547MOL0     H73804   2.291   3.390   2.980  2.6312  0.3438 -0.0748
  547MOL0     H73805   2.160   3.542   3.198  1.6932 -0.5137  0.0525
  547MOL0     H73806   2.071   3.778   3.211 -0.4578  0.1145  2.2611
  547MOL0     H73807   1.981   3.817   3.076  0.2439  1.6273  1.1902
  547MOL0     H73808   1.897   3.771   3.228  1.0127  1.4059  0.3980
  547MOL0     H73809   1.454   3.693   3.039 -1.4155  1.7120 -0.2191
  547MOL0     H73810   1.245   3.771   2.929  0.0422 -2.0619  2.3411
  547MOL0     H73811   1.252   3.783   2.498 -1.4380 -0.4866 -0.6762
  547MOL0     H73812   1.184   3.636   2.527  4.2398  0.1529  0.3479
  547MOL0     H73813   1.044   3.784   2.384 -0.6304  0.4116 -0.9806
  547MOL0     H73814   0.957   3.747   2.535  1.6171 -1.4404 -0.2513
  547MOL0     H73815   1.134   3.991   2.514 -0.3525  1.5721  3.4290
  547MOL0     H73816   1.003   3.972   2.623  1.9007 -1.2169  0.2658
  547MOL0     H73817   0.932   4.002   2.330 -3.9538 -0.1094 -0.1063
  547MOL0     H73818   0.833   3.993   2.472  0.1363 -0.6687  0.1136
  547MOL0     H73819   1.020   4.230   2.428 -0.4631  0.2717 -1.3629
  547MOL0     H73820   0.903   4.186   2.572 -2.0056  1.1909 -0.5435
  547MOL0     H73821   0.722   4.207   2.471  0.2674 -1.5190 -0.9733
  547MOL0     H73822   0.818   4.354   2.440 -1.9109  0.4599  1.8906
  547MOL0     H73823   0.760   4.125   2.237 -1.8764  0.3971 -2.3126
  547MOL0     H73824   0.844   4.283   2.207 -0.4516 -2.2135 -2.0230
  547MOL0     H73825   0.565   4.212   2.283  3.0696 -0.8548  3.0244
  547MOL0     H73826   0.623   4.236   2.119 -0.8512  3.8071 -1.7978
  547MOL0     H73827   1.381   3.611   2.557  0.9488 -5.4691 -0.1707
  547MOL0     H73828   1.591   3.537   2.649  2.5463  2.3017 -0.2658
  547MOL0     H73829   1.766   3.385   2.945  0.3237  1.8056 -1.2866
  547MOL0     H73830   1.951   3.234   2.991 -0.4568  0.2832 -0.2379
  547MOL0     H73831   2.222   2.109   2.745  3.8088 -2.3438  0.3759
  547MOL0     H73832   2.055   1.946   2.678  0.5218  1.7272 -0.5932
  547MOL0     H73833   1.831   1.413   2.944  0.6624 -0.6891 -1.1657
  547MOL0     H73834   1.624   1.298   2.934 -2.9029 -0.1767  1.4943
  547MOL0     H73835   1.349   1.410   3.013 -2.0296  1.0123  1.2357
  547MOL0     H73836   1.227   1.457   2.897  0.6923  0.1836 -0.2701
  547MOL0     H73837   1.184   1.238   2.999  1.1413  0.3465 -0.2879
  547MOL0     H73838   1.317   1.171   2.896 -0.6032 -2.0058  0.5482
  547MOL0     H73839   1.203   1.266   2.701  0.7309 -2.6957  0.6668
  547MOL0     H73840   1.066   1.321   2.800 -1.2689 -1.1558 -2.3898
  547MOL0     H73841   1.008   1.135   2.679  1.7046  2.1068 -0.4771
  547MOL0     H73842   1.005   1.108   2.859  0.3187  2.2185  0.5715
  547MOL0     H73843   1.268   0.809   2.700  0.7652 -0.2891 -0.3271
  547MOL0     H73844   1.445   1.646   2.757 -1.7706 -1.1702  1.0390
  547MOL0     H73845   1.629   1.780   2.812 -1.2181  0.2848  0.2378
  548MOL0     O73846  10.668   9.419  10.734 -0.5590 -0.0892 -0.2712
  548MOL0     C73847  10.740   9.345  10.809  0.7520 -0.5715 -0.5141
  548MOL0     O73848  10.840   9.259  10.766 -0.5246  0.7345  0.0034
  548MOL0     C73849  10.895   9.270  10.641 -0.8046 -0.4222 -0.1387
  548MOL0     C73850  10.902   9.380  10.555 -0.4458  0.0623  0.3535
  548MOL0     C73851  10.966   9.374  10.431  0.5362  0.0415  0.5310
  548MOL0     C73852  11.022   9.258  10.378  0.2648  1.6884  0.0064
  548MOL0     O73853  11.089   9.259  10.258 -0.0483  0.8681  0.1591
  548MOL0     C73854  11.085   9.153  10.162  0.0851  0.7509 -0.2433
  548MOL0     C73855  11.003   9.194  10.042  0.4359 -0.5756 -0.3202
  548MOL0     C73856  10.967   9.087   9.942 -0.0913 -0.1337 -0.1371
  548MOL0     C73857  10.867   9.138   9.837 -0.2307  0.8772 -0.9271
  548MOL0     C73858  10.829   9.040   9.728  0.1305  0.6479 -0.0592
  548MOL0     C73859  10.695   9.076   9.654 -0.0512  0.3451  0.3247
  548MOL0     C73860  10.681   9.013   9.523 -0.2924  0.0131 -0.5999
  548MOL0     C73861  10.554   9.052   9.455 -0.5809 -0.7767  0.3151
  548MOL0     N73862  10.588   9.172   9.380  0.0281 -0.0277  0.2617
  548MOL0     C73863  10.633   9.173   9.253 -0.4488 -0.0677  0.6268
  548MOL0     C73864  10.630   9.303   9.211  0.6983  0.7351  0.1385
  548MOL0     C73865  10.674   9.369   9.085  0.2094 -0.0693 -0.3902
  548MOL0     C73866  10.820   9.412   9.088 -0.6714 -0.2623 -0.6714
  548MOL0     C73867  10.844   9.520   8.977 -0.5621  0.5808 -0.4527
  548MOL0     C73868  10.936   9.486   8.858  0.4553 -0.0818 -0.3005
  548MOL0     O73869  10.897   9.376   8.780 -0.5892 -0.0494  0.3536
  548MOL0     C73870  10.972   9.364   8.667 -0.3026  0.3002  0.1339
  548MOL0     C73871  10.915   9.273   8.566  0.3685  0.2883 -0.3472
  548MOL0     C73872  10.967   9.264   8.438  0.4243 -0.7124  0.1326
  548MOL0     C73873  10.885   9.190   8.336  0.0663  0.5658 -0.3521
  548MOL0     C73874  11.084   9.336   8.404  1.3819 -0.2546 -0.2255
  548MOL0     C73875  11.152   9.324   8.273  0.2766 -0.4855 -0.5947
  548MOL0     O73876  11.228   9.425   8.226  0.3005  0.8784 -0.0637
  548MOL0     C73877  11.327   9.407   8.133  0.4677 -0.0585 -0.3651
  548MOL0     C73878  11.410   9.288   8.116  0.2472 -0.0290 -0.3322
  548MOL0     C73879  11.498   9.279   8.006 -0.0565 -0.3616  0.4962
  548MOL0     C73880  11.522   9.397   7.926 -0.3155  0.2473 -0.3311
  548MOL0     O73881  11.620   9.389   7.827 -0.3853  0.8510  0.0314
  548MOL0     C73882  11.718   9.493   7.797 -0.0613  0.3812  0.3397
  548MOL0     C73883  11.803   9.523   7.919  0.3252 -0.3267 -0.1805
  548MOL0     C73884  11.826   9.675   7.947  0.6978  0.2585 -0.2512
  548MOL0     C73885  11.946   9.738   7.860  0.3298  0.4217  0.2859
  548MOL0     C73886  11.916   9.872   7.813 -0.2104 -0.2634 -0.2183
  548MOL0     C73887  12.031   9.926   7.714 -0.5744  0.2037  0.6591
  548MOL0     C73888  11.951  10.022   7.605 -0.2136  0.2052 -0.6882
  548MOL0     C73889  12.052  10.077   7.499 -0.6865 -0.1029 -0.1223
  548MOL0    Cl73890  11.956  10.167   7.375 -0.2896  0.1665 -0.3674
  548MOL0     C73891  11.446   9.510   7.944  1.1643 -0.0939  0.5490
  548MOL0     C73892  11.339   9.510   8.047 -0.6661 -0.8967  0.0205
  548MOL0     O73893  11.145   9.215   8.219  0.2836 -0.4935 -0.3951
  548MOL0     C73894  11.135   9.430   8.504 -0.5032 -0.5445  1.0663
  548MOL0     C73895  11.078   9.453   8.625  0.0911  0.7796 -0.7899
  548MOL0     N73896  10.589   9.385   9.319 -0.2294  0.5371  0.5659
  548MOL0     N73897  10.564   9.306   9.419  0.1939  0.3758  0.9219
  548MOL0     C73898  11.009   9.145  10.464 -0.1843  0.5801 -0.5312
  548MOL0     C73899  10.953   9.151  10.590 -0.7817 -0.8652 -0.3264
  548MOL0     C73900  10.715   9.357  10.947  0.7181 -0.8066  0.4684
  548MOL0     C73901  10.629   9.451  11.007  0.1436  0.1231  0.2814
  548MOL0     C73902  10.600   9.451  11.146 -0.4519  0.0937 -0.0118
  548MOL0     C73903  10.672   9.357  11.232  0.6026  0.4330  0.0140
  548MOL0     O73904  10.643   9.350  11.372  0.8751  0.1709  0.0240
  548MOL0     C73905  10.535   9.425  11.429  0.0581 -0.4806  0.7527
  548MOL0     C73906  10.546   9.407  11.585 -0.1649  1.0475 -0.0001
  548MOL0     C73907  10.516   9.263  11.631  0.1935 -0.3628 -0.2696
  548MOL0     C73908  10.517   9.270  11.780 -0.1325  0.5034 -0.0112
  548MOL0     C73909  10.458   9.148  11.835  0.8552 -0.4991  0.3022
  548MOL0     C73910  10.422   9.033  11.869 -0.1524 -0.4337 -1.1892
  548MOL0     C73911  10.755   9.266  11.176  0.6085  0.9234  0.4589
  548MOL0     C73912  10.769   9.256  11.033  0.6610 -0.2621  0.5082
  548MOL0     H73913  10.850   9.473  10.578 -0.4335  0.4544 -1.1584
  548MOL0     H73914  10.982   9.462  10.370  0.2749  0.2103  0.7004
  548MOL0     H73915  11.185   9.118  10.136  0.4982  2.0526 -0.4921
  548MOL0     H73916  11.026   9.081  10.219  0.3220  1.3562  0.8108
  548MOL0     H73917  10.911   9.238  10.081 -0.1259 -2.3181  0.4531
  548MOL0     H73918  11.064   9.264   9.986  2.4512 -1.8712  0.1505
  548MOL0     H73919  11.054   9.043   9.893  0.0396  1.0764 -1.0202
  548MOL0     H73920  10.918   9.001   9.990 -0.2730  0.4024  0.6633
  548MOL0     H73921  10.775   9.171   9.885  1.3861  3.0540  0.8582
  548MOL0     H73922  10.906   9.232   9.797  3.5754  0.6950  1.8206
  548MOL0     H73923  10.915   9.046   9.661 -1.1454  0.7805 -1.7718
  548MOL0     H73924  10.821   8.936   9.760  1.1472  0.4922 -0.2739
  548MOL0     H73925  10.609   9.034   9.707  0.4394  3.0949  3.6448
  548MOL0     H73926  10.683   9.184   9.643 -0.9064  0.1672 -0.5886
  548MOL0     H73927  10.771   9.026   9.462 -0.3358  1.0571 -0.4717
  548MOL0     H73928  10.678   8.907   9.550 -2.1802  0.1079 -0.2990
  548MOL0     H73929  10.469   9.071   9.521 -1.4139  0.2993 -1.0048
  548MOL0     H73930  10.527   8.971   9.387  1.1192 -2.6360  1.7213
  548MOL0     H73931  10.653   9.076   9.208  1.7612 -0.6491  2.6368
  548MOL0     H73932  10.654   9.309   8.995 -2.6126  1.7248 -1.1055
  548MOL0     H73933  10.608   9.455   9.077  0.8557  0.4625 -0.0422
  548MOL0     H73934  10.889   9.333   9.058  2.7626  1.6045  1.5872
  548MOL0     H73935  10.863   9.442   9.184  0.9003 -0.7474 -1.1924
  548MOL0     H73936  10.891   9.611   9.015 -2.3928  2.0282 -1.5210
  548MOL0     H73937  10.749   9.569   8.954 -1.3681  0.2126  1.8111
  548MOL0     H73938  11.034   9.458   8.897 -0.5066 -2.1177  0.8305
  548MOL0     H73939  10.936   9.579   8.801 -0.3368  1.0384  1.4183
  548MOL0     H73940  10.836   9.209   8.603 -0.2767  1.2624 -0.0148
  548MOL0     H73941  10.791   9.155   8.379  0.1255 -0.2448 -0.8637
  548MOL0     H73942  10.859   9.259   8.256  0.6013  0.6739 -0.4380
  548MOL0     H73943  10.931   9.110   8.277  0.0169 -0.1211  0.5205
  548MOL0     H73944  11.404   9.208   8.190  0.4476 -0.5262 -0.8464
  548MOL0     H73945  11.561   9.206   7.957 -0.6546  0.6294 -1.9003
  548MOL0     H73946  11.771   9.458   7.708 -1.9371 -1.7217 -0.0557
  548MOL0     H73947  11.672   9.586   7.762  0.7796  0.7797  0.2765
  548MOL0     H73948  11.748   9.502   8.011  0.6589 -0.0134  0.0907
  548MOL0     H73949  11.896   9.469   7.901  1.1852  0.6342  1.2239
  548MOL0     H73950  11.844   9.705   8.050  3.4206  0.5434 -0.7314
  548MOL0     H73951  11.728   9.716   7.921 -0.3102 -1.2101  1.0325
  548MOL0     H73952  12.041   9.732   7.913  0.9395 -2.8157 -0.9610
  548MOL0     H73953  11.965   9.673   7.774 -0.0919 -0.7951  1.0945
  548MOL0     H73954  11.915   9.943   7.897 -2.8589  0.8548 -1.0763
  548MOL0     H73955  11.813   9.862   7.777 -1.4219 -1.1355  3.0486
  548MOL0     H73956  12.115   9.975   7.765  0.4038 -0.9196  0.1734
  548MOL0     H73957  12.074   9.841   7.661 -1.1691  0.3627 -0.0884
  548MOL0     H73958  11.904  10.110   7.650  0.7493  0.0490  0.6900
  548MOL0     H73959  11.870   9.957   7.571 -2.3064  1.4556  1.5975
  548MOL0     H73960  12.111   9.989   7.469 -0.6109 -0.0462 -0.1409
  548MOL0     H73961  12.116  10.152   7.546 -2.7323  1.2222  0.7144
  548MOL0     H73962  11.444   9.592   7.873 -1.7655  0.3832  1.0571
  548MOL0     H73963  11.269   9.592   8.050  0.4649  0.0866  2.2331
  548MOL0     H73964  11.217   9.493   8.472 -1.9884  0.8000 -0.2886
  548MOL0     H73965  11.125   9.534   8.680  0.1576 -0.6781  1.4265
  548MOL0     H73966  11.047   9.050  10.428  0.0003  0.4613 -0.0344
  548MOL0     H73967  10.916   9.059  10.635 -4.8401  0.7186  0.0168
  548MOL0     H73968  10.578   9.527  10.949 -0.8353  1.4449  2.7069
  548MOL0     H73969  10.533   9.524  11.189 -1.0525 -1.8885  2.6680
  548MOL0     H73970  10.531   9.531  11.401  0.3937  0.9791  5.3957
  548MOL0     H73971  10.444   9.378  11.390  0.7001  1.5003 -3.7912
  548MOL0     H73972  10.463   9.462  11.630 -2.6011 -1.6804 -0.8453
  548MOL0     H73973  10.644   9.443  11.619  0.7610 -2.6787  1.7749
  548MOL0     H73974  10.593   9.192  11.599  1.1654  0.3044  0.5106
  548MOL0     H73975  10.417   9.240  11.590 -0.2745  0.9939  0.0455
  548MOL0     H73976  10.463   9.356  11.821  0.2571  0.0259  1.6008
  548MOL0     H73977  10.618   9.273  11.821  0.2363 -2.7439 -0.3788
  548MOL0     H73978  10.384   8.934  11.881  0.4982 -0.4602  1.1527
  548MOL0     H73979  10.799   9.195  11.246 -0.4761  2.0863  2.4143
  548MOL0     H73980  10.824   9.171  10.994 -0.8459 -1.4627  0.9150
  549MOL0     O73981   9.730   0.741   1.995 -0.0647 -0.7324 -0.3799
  549MOL0     C73982   9.722   0.811   1.894 -0.4988 -0.5913 -0.0564
  549MOL0     O73983   9.611   0.858   1.846 -0.1234 -0.7665  0.0531
  549MOL0     C73984   9.482   0.812   1.871 -0.5988  0.1182  0.5724
  549MOL0     C73985   9.439   0.713   1.947 -0.4885  1.1832  0.4566
  549MOL0     C73986   9.308   0.702   2.000  0.2036 -0.2484  0.9029
  549MOL0     C73987   9.207   0.789   1.947 -0.0177  0.3804 -0.5429
  549MOL0     O73988   9.077   0.776   1.972  0.0826  1.3217 -0.2559
  549MOL0     C73989   9.032   0.710   2.088 -0.1286  0.3951 -0.5220
  549MOL0     C73990   9.012   0.555   2.069 -0.7224  0.4213 -0.1198
  549MOL0     C73991   8.868   0.501   2.035 -0.6155 -0.3930  0.2439
  549MOL0     C73992   8.775   0.517   2.159  0.6221  0.9432 -0.0401
  549MOL0     C73993   8.624   0.465   2.135  0.3671 -0.0383  0.1817
  549MOL0     C73994   8.598   0.332   2.203 -0.2404 -0.1727  0.2218
  549MOL0     C73995   8.443   0.301   2.205  0.2887  0.8416 -0.1387
  549MOL0     C73996   8.388   0.170   2.150  0.2123  0.8780 -0.4443
  549MOL0     N73997   8.253   0.143   2.192 -0.0964 -0.5015 -0.0946
  549MOL0     C73998   8.199   0.017   2.212 -0.8755 -0.8242  0.4265
  549MOL0     C73999   8.066   0.033   2.205  0.0762 -0.0986  0.4137
  549MOL0     C74000   7.965  -0.074   2.223 -0.3845 -0.0318  0.0248
  549MOL0     C74001   7.860  -0.027   2.320  0.3626  0.7569 -0.1156
  549MOL0     C74002   7.753  -0.137   2.331 -0.3932  0.4116 -0.2235
  549MOL0     C74003   7.625  -0.080   2.277  0.0923 -0.3132 -0.7772
  549MOL0     O74004   7.538  -0.183   2.268  0.0093  0.1599 -0.0950
  549MOL0     C74005   7.415  -0.169   2.206 -0.2419  0.0732 -0.2570
  549MOL0     C74006   7.356  -0.055   2.160  0.0585 -0.2355 -0.5880
  549MOL0     C74007   7.228  -0.049   2.092 -0.0747 -0.4150 -0.8214
  549MOL0     C74008   7.187   0.087   2.040 -0.2913 -0.6490 -1.1793
  549MOL0     C74009   7.167  -0.173   2.073 -0.2181  0.1608  0.9313
  549MOL0     C74010   7.041  -0.196   2.000  0.7098  1.0219 -0.1071
  549MOL0     O74011   6.981  -0.315   2.019  0.3516 -0.1847  0.7851
  549MOL0     C74012   6.853  -0.342   1.989  0.4716 -0.0786 -0.3589
  549MOL0     C74013   6.764  -0.386   2.085 -0.1491  0.1965  0.0540
  549MOL0     C74014   6.630  -0.426   2.047 -0.5798  0.1572 -0.1057
  549MOL0     C74015   6.599  -0.445   1.905 -0.7507  1.2968  0.7744
  549MOL0     O74016   6.481  -0.498   1.858 -0.2888  0.8864  0.6635
  549MOL0     C74017   6.394  -0.577   1.945 -0.5099 -0.0976  0.3381
  549MOL0     C74018   6.460  -0.711   1.974  0.1286 -0.3098  0.1351
  549MOL0     C74019   6.369  -0.782   2.078 -0.1238 -0.3012  0.3435
  549MOL0     C74020   6.431  -0.906   2.132  0.2417 -0.4868  0.6021
  549MOL0     C74021   6.333  -0.990   2.205  0.3029  0.0752  0.1215
  549MOL0     C74022   6.413  -1.097   2.278  0.3475  0.2736  0.2277
  549MOL0     C74023   6.339  -1.186   2.373  0.4766 -0.8454  0.9707
  549MOL0     C74024   6.438  -1.236   2.481 -0.2044  0.1149  0.6599
  549MOL0    Cl74025   6.375  -1.360   2.595  0.1851  0.0391 -0.5602
  549MOL0     C74026   6.692  -0.413   1.804 -1.0828 -0.4556 -0.2812
  549MOL0     C74027   6.810  -0.354   1.853 -0.4676  1.5573  0.1010
  549MOL0     O74028   6.992  -0.092   1.950  0.8408  0.6469  0.7532
  549MOL0     C74029   7.228  -0.295   2.126  1.2384 -1.0677  1.3394
  549MOL0     C74030   7.342  -0.289   2.189 -0.9198  0.7783 -0.2989
  549MOL0     N74031   8.044   0.170   2.194 -1.6855 -0.4111  0.0880
  549MOL0     N74032   8.157   0.234   2.174 -0.2580 -0.2034  0.6712
  549MOL0     C74033   9.243   0.890   1.852 -0.0125  0.0045  0.7923
  549MOL0     C74034   9.384   0.900   1.826  0.1464 -0.0285  0.0514
  549MOL0     C74035   9.856   0.849   1.841  0.0169  0.5995 -0.2581
  549MOL0     C74036   9.968   0.771   1.877 -0.6384 -0.0733 -0.5303
  549MOL0     C74037  10.093   0.808   1.816 -0.2208  0.3802  0.6116
  549MOL0     C74038  10.103   0.923   1.732 -0.3229 -0.1946 -0.7754
  549MOL0     O74039  10.221   0.991   1.694  0.7606 -0.3016  0.1869
  549MOL0     C74040  10.350   0.921   1.699  0.8325  0.5201 -0.5932
  549MOL0     C74041  10.459   1.008   1.647  0.8320  0.1042  0.6767
  549MOL0     C74042  10.482   1.031   1.489 -0.2094  0.0780  0.5860
  549MOL0     C74043  10.604   1.129   1.458 -0.1370 -0.5938  0.5705
  549MOL0     C74044  10.600   1.150   1.319 -0.9849 -0.4791  0.6707
  549MOL0     C74045  10.612   1.174   1.199  0.1572  0.4607 -0.2295
  549MOL0     C74046   9.983   0.989   1.697  0.4803  0.2126  0.2160
  549MOL0     C74047   9.863   0.957   1.753 -0.3074 -0.0573 -0.3510
  549MOL0     H74048   9.512   0.646   1.993  0.9769  1.5412 -1.2039
  549MOL0     H74049   9.281   0.624   2.071  3.0119 -3.6968 -1.5106
  549MOL0     H74050   9.089   0.731   2.179 -2.1638 -3.2664  1.8659
  549MOL0     H74051   8.931   0.750   2.101 -0.0434 -0.0553  2.2810
  549MOL0     H74052   9.080   0.517   1.993 -1.8570 -3.4429  0.5670
  549MOL0     H74053   9.041   0.489   2.150 -1.5451 -0.0326 -0.1811
  549MOL0     H74054   8.827   0.569   1.959  2.4711  2.0868  0.5994
  549MOL0     H74055   8.874   0.396   2.003  3.2157  0.1402 -1.2639
  549MOL0     H74056   8.820   0.462   2.242 -1.1334  0.4141  0.6014
  549MOL0     H74057   8.759   0.621   2.187 -2.4357 -0.0150  2.3587
  549MOL0     H74058   8.548   0.536   2.168  0.9197  1.6348 -1.9371
  549MOL0     H74059   8.597   0.448   2.031  1.2016  1.8320 -0.3818
  549MOL0     H74060   8.655   0.250   2.158  0.8529 -0.3682  1.8863
  549MOL0     H74061   8.628   0.330   2.309 -0.6672 -1.1486  0.3334
  549MOL0     H74062   8.409   0.298   2.309 -0.0826  0.1632 -0.2739
  549MOL0     H74063   8.396   0.383   2.149  0.6720  1.8342  0.9488
  549MOL0     H74064   8.457   0.087   2.170 -0.3722 -0.4725 -3.5340
  549MOL0     H74065   8.379   0.178   2.042 -2.9039  1.1603 -0.2467
  549MOL0     H74066   8.251  -0.079   2.210  0.3296 -0.2914  2.8031
  549MOL0     H74067   7.926  -0.085   2.121 -1.4795  4.0507 -0.1648
  549MOL0     H74068   8.012  -0.171   2.242 -0.0176 -1.0704 -4.7995
  549MOL0     H74069   7.814   0.064   2.280 -0.6072  0.0736 -0.5887
  549MOL0     H74070   7.898  -0.013   2.422 -2.4760  0.4184  1.0923
  549MOL0     H74071   7.731  -0.163   2.435  1.4084 -2.7433 -0.4830
  549MOL0     H74072   7.791  -0.224   2.277  1.4066  0.5824  0.7018
  549MOL0     H74073   7.627  -0.046   2.173  0.8424  0.1626 -0.6156
  549MOL0     H74074   7.595   0.007   2.337 -2.7725 -0.4568 -1.8577
  549MOL0     H74075   7.414   0.035   2.174 -0.5582 -0.1486  1.7329
  549MOL0     H74076   7.240   0.174   2.080 -0.7245  1.1427 -4.1590
  549MOL0     H74077   7.192   0.076   1.931 -4.2378  0.2531 -1.6225
  549MOL0     H74078   7.084   0.110   2.071  0.0254  1.7840 -1.7134
  549MOL0     H74079   6.779  -0.372   2.192  2.6257  2.9432 -0.5441
  549MOL0     H74080   6.563  -0.438   2.131  1.9190  1.3558  2.1960
  549MOL0     H74081   6.374  -0.520   2.036 -2.6555  3.1272 -1.9379
  549MOL0     H74082   6.301  -0.589   1.890  0.2099  1.4094 -1.2823
  549MOL0     H74083   6.463  -0.774   1.885  0.4986 -0.6242  0.3676
  549MOL0     H74084   6.560  -0.703   2.017  0.9124 -2.1130 -1.2046
  549MOL0     H74085   6.282  -0.811   2.019 -0.5346  1.1560  0.1856
  549MOL0     H74086   6.350  -0.720   2.166 -0.8819 -2.0878  1.4745
  549MOL0     H74087   6.469  -0.964   2.047  0.8101  2.4483 -1.3220
  549MOL0     H74088   6.523  -0.893   2.190  0.6743 -3.0946  0.5912
  549MOL0     H74089   6.267  -1.035   2.130 -1.6943  4.1377 -0.8589
  549MOL0     H74090   6.278  -0.926   2.274 -0.2146 -0.0849 -0.1353
  549MOL0     H74091   6.468  -1.162   2.211  0.8610 -1.8202  2.5258
  549MOL0     H74092   6.487  -1.039   2.334  0.6316 -1.0170  1.2388
  549MOL0     H74093   6.297  -1.272   2.320 -3.0664 -0.3794  2.7284
  549MOL0     H74094   6.254  -1.134   2.418 -2.3346 -3.7241 -0.5581
  549MOL0     H74095   6.502  -1.161   2.528  2.1431 -1.2850 -0.1312
  549MOL0     H74096   6.501  -1.290   2.409 -0.0934  1.2789 -0.1393
  549MOL0     H74097   6.672  -0.435   1.699 -1.2168 -5.7252  0.5575
  549MOL0     H74098   6.893  -0.328   1.788 -0.8949  1.7863 -0.3601
  549MOL0     H74099   7.167  -0.385   2.129 -0.9501  0.2596 -0.2913
  549MOL0     H74100   7.391  -0.378   2.226 -0.3603  1.1117 -0.2201
  549MOL0     H74101   9.170   0.952   1.801 -2.9090 -2.0119  2.1496
  549MOL0     H74102   9.415   0.985   1.767  2.4197 -0.9638 -0.2083
  549MOL0     H74103   9.957   0.698   1.956  3.3392  0.1460  0.4369
  549MOL0     H74104  10.179   0.745   1.834 -1.6232 -1.4629  1.2288
  549MOL0     H74105  10.373   0.900   1.804 -0.9393  2.7924  0.3527
  549MOL0     H74106  10.348   0.826   1.644  0.8503 -0.2064  0.6066
  549MOL0     H74107  10.551   0.967   1.689  0.2148 -1.1184  0.8866
  549MOL0     H74108  10.430   1.106   1.685 -2.0966 -1.0401  1.7441
  549MOL0     H74109  10.393   1.074   1.441  0.8129 -1.1731 -2.7289
  549MOL0     H74110  10.511   0.934   1.447 -1.2196 -0.0034  0.0470
  549MOL0     H74111  10.704   1.095   1.486 -0.2042 -1.0648  0.2428
  549MOL0     H74112  10.593   1.232   1.495 -0.9270  0.8334 -3.1641
  549MOL0     H74113  10.630   1.182   1.093  0.1729 -1.7009 -0.4185
  549MOL0     H74114   9.975   1.069   1.625 -0.7046  0.6202  0.7776
  549MOL0     H74115   9.780   1.019   1.720 -2.2767 -2.3708 -0.0487
  550MOL0     O74116  10.345  10.209  10.157 -0.3876  0.0722 -0.1688
  550MOL0     C74117  10.284  10.293  10.230 -0.5607  0.1733 -0.0638
  550MOL0     O74118  10.326  10.356  10.349 -0.3245 -0.2734 -0.3191
  550MOL0     C74119  10.435  10.313  10.411  0.5296  0.5745  1.4969
  550MOL0     C74120  10.421  10.191  10.487 -0.5362  0.1545 -0.1137
  550MOL0     C74121  10.538  10.141  10.555  0.4622  0.8012 -0.0508
  550MOL0     C74122  10.662  10.194  10.543 -0.1680  0.1179 -0.0439
  550MOL0     O74123  10.771  10.145  10.608 -0.6754  0.4645 -0.7590
  550MOL0     C74124  10.777  10.005  10.633 -0.2999 -0.5549  0.2446
  550MOL0     C74125  10.921   9.967  10.667 -0.2422 -0.1125  0.3994
  550MOL0     C74126  10.961   9.825  10.679  0.3459  0.3664 -0.1279
  550MOL0     C74127  11.115   9.814  10.727  0.1657 -0.0283 -0.2154
  550MOL0     C74128  11.167   9.667  10.739 -0.0078 -0.4973 -0.3570
  550MOL0     C74129  11.086   9.586  10.824 -0.1466 -0.5001  0.4242
  550MOL0     C74130  11.090   9.634  10.974  0.9500  0.5775 -0.5729
  550MOL0     C74131  10.975   9.578  11.044 -0.2521 -0.3154  0.4495
  550MOL0     N74132  10.980   9.603  11.188  0.5323  0.1227  0.2865
  550MOL0     C74133  11.054   9.524  11.278 -0.0539  1.0419  0.2180
  550MOL0     C74134  10.990   9.542  11.397  0.6164  0.2177  0.0851
  550MOL0     C74135  11.048   9.485  11.530  0.1612 -0.0232  0.1151
  550MOL0     C74136  11.002   9.340  11.551 -0.1370  0.2701  0.5083
  550MOL0     C74137  11.033   9.298  11.698  0.6349  0.4874  0.0115
  550MOL0     C74138  10.982   9.155  11.729  0.6082 -0.8650 -0.3111
  550MOL0     O74139  10.912   9.177  11.857 -0.3446 -0.1685  0.2090
  550MOL0     C74140  10.967   9.104  11.958 -0.2463 -0.3857 -0.1980
  550MOL0     C74141  11.000   9.177  12.072  0.4191  0.1215  0.7497
  550MOL0     C74142  11.052   9.110  12.188 -0.4039  0.0178  1.1653
  550MOL0     C74143  11.117   9.181  12.300  0.3833 -0.6050  0.3105
  550MOL0     C74144  11.049   8.968  12.193  0.1548 -0.1769  0.9960
  550MOL0     C74145  11.073   8.887  12.313  0.9002  0.4245 -0.1945
  550MOL0     O74146  11.151   8.777  12.300 -0.8315  0.0993  1.1055
  550MOL0     C74147  11.218   8.705  12.393 -0.3119 -0.8257 -0.0393
  550MOL0     C74148  11.185   8.700  12.529  0.1618  0.0450 -0.1836
  550MOL0     C74149  11.262   8.621  12.622  0.8228  1.0947  0.6501
  550MOL0     C74150  11.366   8.546  12.577  0.6809  1.7163  0.0452
  550MOL0     O74151  11.433   8.454  12.654 -0.1531 -0.9920 -0.5419
  550MOL0     C74152  11.536   8.509  12.743 -0.7002 -0.3217  1.1204
  550MOL0     C74153  11.559   8.433  12.865  0.7167 -1.1090  0.5917
  550MOL0     C74154  11.442   8.417  12.956 -0.3375  0.1964  0.5264
  550MOL0     C74155  11.467   8.334  13.084 -0.3623 -0.1616  0.0996
  550MOL0     C74156  11.336   8.296  13.147 -0.0094  0.6989 -0.2478
  550MOL0     C74157  11.348   8.203  13.270 -0.2545  0.0096  0.4846
  550MOL0     C74158  11.216   8.142  13.307  0.4589 -0.3870 -0.3632
  550MOL0     C74159  11.113   8.242  13.347 -0.2415 -0.5760  0.2999
  550MOL0    Cl74160  10.961   8.150  13.380  0.2894 -0.5694 -0.6584
  550MOL0     C74161  11.392   8.540  12.440  0.6787  0.4518  0.0190
  550MOL0     C74162  11.326   8.630  12.349 -1.2230  0.3065 -0.6626
  550MOL0     O74163  11.040   8.939  12.418  1.1306 -0.7134  0.0216
  550MOL0     C74164  11.023   8.901  12.065  0.3617  0.5913 -0.6975
  550MOL0     C74165  10.991   8.967  11.949 -0.3872 -0.5926 -0.9943
  550MOL0     N74166  10.874   9.618  11.385 -0.5996 -0.9670  0.3619
  550MOL0     N74167  10.879   9.663  11.258 -0.6072 -0.3132 -0.3707
  550MOL0     C74168  10.668  10.312  10.459  0.1216  0.1247  0.1891
  550MOL0     C74169  10.560  10.367  10.400 -0.6047  0.8269  1.0586
  550MOL0     C74170  10.162  10.341  10.177  0.3169  0.9114  0.2522
  550MOL0     C74171  10.096  10.274  10.074  1.3796 -0.9822 -0.9177
  550MOL0     C74172   9.980  10.334  10.019  0.2128 -0.2704 -0.4294
  550MOL0     C74173   9.922  10.453  10.060 -0.6384  0.1813  0.3777
  550MOL0     O74174   9.809  10.492   9.989 -0.0331 -0.0286  0.1564
  550MOL0     C74175   9.762  10.630   9.999 -0.2644 -0.1737  0.8248
  550MOL0     C74176   9.856  10.715   9.911 -0.7083  0.2514  0.1183
  550MOL0     C74177   9.847  10.862   9.977  0.2306  1.2101  0.2731
  550MOL0     C74178   9.944  10.973   9.924 -1.1430  0.0508 -0.5341
  550MOL0     C74179   9.925  10.997   9.780 -0.9306  0.7333 -0.1636
  550MOL0     C74180   9.917  11.007   9.661  0.5820  0.3740 -0.3146
  550MOL0     C74181   9.990  10.522  10.164  0.7132 -0.5120 -0.5543
  550MOL0     C74182  10.107  10.463  10.223  0.1731  0.8469 -0.7353
  550MOL0     H74183  10.324  10.148  10.508  1.2512 -2.7264  3.3707
  550MOL0     H74184  10.524  10.054  10.618 -2.6575  2.0578  1.2036
  550MOL0     H74185  10.709   9.964  10.709  1.9662 -1.5849  1.8124
  550MOL0     H74186  10.754   9.957  10.537 -0.1036  0.6622 -0.4213
  550MOL0     H74187  10.995  10.012  10.600 -1.1239 -0.3275 -0.7611
  550MOL0     H74188  10.945  10.007  10.766 -0.0252 -0.0455  0.3204
  550MOL0     H74189  10.896   9.773  10.750  0.5948  2.6409  1.9066
  550MOL0     H74190  10.949   9.774  10.583 -4.9505  1.5903 -0.4333
  550MOL0     H74191  11.183   9.873  10.665  0.1215  0.1087 -0.1356
  550MOL0     H74192  11.126   9.863  10.825 -0.4391  0.1167 -0.2179
  550MOL0     H74193  11.175   9.613  10.644  0.0427  0.0269 -0.6531
  550MOL0     H74194  11.270   9.680  10.774 -1.1389  1.0249  2.7494
  550MOL0     H74195  10.982   9.586  10.791 -0.8604 -3.0724  2.3003
  550MOL0     H74196  11.127   9.485  10.825 -1.2895 -1.0274 -1.3663
  550MOL0     H74197  11.186   9.599  11.012  1.0361  1.4217  0.0314
  550MOL0     H74198  11.093   9.743  10.986  2.7758  0.4579  0.3300
  550MOL0     H74199  10.971   9.470  11.031  0.7960 -0.2427 -0.6187
  550MOL0     H74200  10.883   9.625  11.008  0.9491  2.1555  0.4129
  550MOL0     H74201  11.140   9.462  11.257 -1.4118 -1.8270  2.5184
  550MOL0     H74202  11.157   9.481  11.541 -0.0502 -0.4039  2.5604
  550MOL0     H74203  11.013   9.542  11.616 -1.1688 -1.1230  0.3452
  550MOL0     H74204  11.055   9.277  11.479 -1.7359 -1.6914  0.9708
  550MOL0     H74205  10.895   9.341  11.532  0.1703 -0.2451 -1.5665
  550MOL0     H74206  10.970   9.360  11.763 -2.8237 -1.1887 -1.4795
  550MOL0     H74207  11.139   9.313  11.716  0.7903 -2.3456  1.9638
  550MOL0     H74208  11.069   9.088  11.731  1.6767  0.1290 -4.1611
  550MOL0     H74209  10.910   9.132  11.650  1.3378 -1.5385 -0.8011
  550MOL0     H74210  11.010   9.285  12.074  0.4698  0.3514 -3.4023
  550MOL0     H74211  11.177   9.259  12.251  0.6671  0.1307  1.7748
  550MOL0     H74212  11.046   9.234  12.365  2.4672 -0.5615  2.7273
  550MOL0     H74213  11.191   9.133  12.365  3.8337  2.0098 -1.3186
  550MOL0     H74214  11.116   8.776  12.565 -1.5718 -1.8606  0.7381
  550MOL0     H74215  11.246   8.626  12.729 -0.5760 -2.7651  0.7644
  550MOL0     H74216  11.628   8.529  12.687  0.1455  1.3162  2.9521
  550MOL0     H74217  11.512   8.613  12.769  2.3622  1.3880 -2.0491
  550MOL0     H74218  11.608   8.336  12.848 -2.2530 -2.7052  0.3301
  550MOL0     H74219  11.639   8.480  12.923  2.5933  0.3553 -2.9292
  550MOL0     H74220  11.358   8.387  12.892  1.3514  2.8085 -3.2988
  550MOL0     H74221  11.415   8.517  12.990 -2.7849 -1.3437  3.6330
  550MOL0     H74222  11.526   8.244  13.062 -0.7567  0.3527 -3.7995
  550MOL0     H74223  11.523   8.397  13.154  4.2748  0.1261 -3.3810
  550MOL0     H74224  11.279   8.243  13.071 -0.9973  2.1483 -0.5535
  550MOL0     H74225  11.290   8.389  13.183  1.6537  0.8986  1.5755
  550MOL0     H74226  11.404   8.112  13.250  1.2764  0.7925  1.0776
  550MOL0     H74227  11.392   8.258  13.353 -3.8801  2.4139  1.0399
  550MOL0     H74228  11.232   8.093  13.403 -2.2845  0.9206  0.8489
  550MOL0     H74229  11.182   8.074  13.229  0.8407 -0.3406 -0.5776
  550MOL0     H74230  11.097   8.307  13.261 -1.4135  1.2508  1.8187
  550MOL0     H74231  11.145   8.310  13.426  1.7539  3.3072 -3.4492
  550MOL0     H74232  11.473   8.471  12.421  1.2025  0.3011  2.5229
  550MOL0     H74233  11.330   8.619  12.241 -2.4873 -3.2019 -0.4662
  550MOL0     H74234  11.011   8.794  12.076  1.9468  0.6571  2.9804
  550MOL0     H74235  10.965   8.915  11.858 -0.1806 -0.4948 -1.1096
  550MOL0     H74236  10.770  10.349  10.451  2.6496 -5.3306  2.0768
  550MOL0     H74237  10.583  10.449  10.333 -3.8784  0.5764 -0.5276
  550MOL0     H74238  10.126  10.179  10.031  1.3927 -0.8072 -1.3045
  550MOL0     H74239   9.927  10.283   9.939  1.3841  0.6158 -1.8060
  550MOL0     H74240   9.657  10.641   9.970  0.2376  1.1704 -0.6070
  550MOL0     H74241   9.770  10.660  10.103 -0.2454 -2.2164  1.4536
  550MOL0     H74242   9.817  10.712   9.808  0.5654 -1.3786 -0.3639
  550MOL0     H74243   9.953  10.663   9.911 -0.6056  0.4373  0.6276
  550MOL0     H74244   9.870  10.842  10.082 -1.9984 -2.7567  0.1680
  550MOL0     H74245   9.743  10.889   9.962 -0.1363 -1.3821 -3.1391
  550MOL0     H74246  10.045  10.934   9.936 -1.2492 -0.2209 -0.5243
  550MOL0     H74247   9.933  11.061   9.989 -1.7581 -0.2691 -0.1887
  550MOL0     H74248   9.937  11.010   9.556  0.4249  0.3679 -0.3455
  550MOL0     H74249   9.950  10.612  10.210  0.1429 -1.0955  0.1115
  550MOL0     H74250  10.149  10.508  10.312  0.9078  0.8472 -1.0758
  551MOL0     O74251   9.713   1.662  11.071  1.0184  0.3199 -0.1793
  551MOL0     C74252   9.782   1.764  11.067 -0.2667  0.6373 -0.2274
  551MOL0     O74253   9.750   1.893  11.046 -0.1663 -0.6943  1.3129
  551MOL0     C74254   9.617   1.935  11.038 -0.6985  0.1910  0.5203
  551MOL0     C74255   9.591   2.026  10.934 -0.0308  0.2809 -0.4494
  551MOL0     C74256   9.465   2.066  10.923  0.2405  0.6635  0.3471
  551MOL0     C74257   9.362   2.028  11.015  1.2774 -0.2963  0.4277
  551MOL0     O74258   9.235   2.065  11.000 -0.1258  0.1199  0.2122
  551MOL0     C74259   9.136   1.982  10.925 -0.0648  0.2454 -0.6812
  551MOL0     C74260   9.154   2.024  10.781  0.2387 -1.1506  0.4693
  551MOL0     C74261   9.080   1.929  10.686 -0.8179  0.6533  0.4007
  551MOL0     C74262   9.113   1.959  10.540 -0.0511 -0.6941 -0.1748
  551MOL0     C74263   9.063   1.840  10.457 -0.0215 -0.0154  0.7066
  551MOL0     C74264   8.906   1.823  10.463 -0.2989 -0.2682 -0.4814
  551MOL0     C74265   8.847   1.741  10.347 -0.2850  0.5735 -0.7557
  551MOL0     C74266   8.825   1.822  10.220  0.6982 -0.7110 -1.2750
  551MOL0     N74267   8.822   1.724  10.110 -0.4272  0.1897 -0.7795
  551MOL0     C74268   8.928   1.685  10.033  0.0703  0.5140  0.4563
  551MOL0     C74269   8.870   1.611   9.933 -0.7589  0.0844 -0.7456
  551MOL0     C74270   8.942   1.553   9.813 -0.0965 -0.6796 -0.9341
  551MOL0     C74271   9.007   1.423   9.858 -0.2160  0.7253 -0.1422
  551MOL0     C74272   9.057   1.347   9.723 -0.6446 -0.0515 -0.0051
  551MOL0     C74273   9.116   1.216   9.749  0.7909 -0.7258  0.1313
  551MOL0     O74274   9.118   1.148   9.621 -0.2991  0.0356 -0.0594
  551MOL0     C74275   9.186   1.035   9.600  0.4560  0.0128  0.5005
  551MOL0     C74276   9.255   0.961   9.702  0.1076 -0.6735 -0.0457
  551MOL0     C74277   9.340   0.858   9.671  0.3568  0.1125 -0.2299
  551MOL0     C74278   9.398   0.795   9.788  0.4798  0.2719 -0.6709
  551MOL0     C74279   9.357   0.807   9.534 -0.1340 -0.8180 -0.3975
  551MOL0     C74280   9.437   0.689   9.493 -0.3914 -0.7717  0.5336
  551MOL0     O74281   9.468   0.702   9.362 -0.3928  1.1212  0.5629
  551MOL0     C74282   9.549   0.614   9.302  0.1823 -0.0920  1.0439
  551MOL0     C74283   9.558   0.472   9.302 -0.2139 -0.2624  0.1968
  551MOL0     C74284   9.649   0.394   9.218  0.2157  1.5493  0.7229
  551MOL0     C74285   9.741   0.468   9.142  0.9789  0.8408  0.7997
  551MOL0     O74286   9.839   0.417   9.063 -0.8588 -0.0394 -0.6055
  551MOL0     C74287   9.966   0.421   9.134 -0.6148 -0.6742 -0.3734
  551MOL0     C74288  10.071   0.377   9.040  0.0540  1.4935 -0.8901
  551MOL0     C74289  10.204   0.347   9.121 -0.2838  1.2469  0.8961
  551MOL0     C74290  10.324   0.322   9.024  0.2727  1.5058  0.1601
  551MOL0     C74291  10.455   0.379   9.069  0.6931 -1.5958 -0.7206
  551MOL0     C74292  10.481   0.529   9.008  0.9073 -0.8531  0.8549
  551MOL0     C74293  10.636   0.555   9.023  0.4840  0.6444 -1.4152
  551MOL0     C74294  10.687   0.701   9.038  1.0475  0.1642  0.1164
  551MOL0    Cl74295  10.859   0.712   9.072  0.2336 -0.0073  0.1583
  551MOL0     C74296   9.736   0.612   9.134 -0.3823 -0.7196  0.3155
  551MOL0     C74297   9.632   0.676   9.204  0.3543 -0.5530  0.7325
  551MOL0     O74298   9.483   0.607   9.568 -0.0145 -0.0972  0.6982
  551MOL0     C74299   9.283   0.880   9.432 -1.3932 -0.5301  0.8575
  551MOL0     C74300   9.195   0.985   9.470  0.3105  0.3455 -0.2370
  551MOL0     N74301   8.740   1.606   9.963  0.4285  0.0046  0.6508
  551MOL0     N74302   8.707   1.657  10.074  0.2175 -0.4650 -0.6290
  551MOL0     C74303   9.390   1.934  11.114  0.4190  0.3985 -0.0431
  551MOL0     C74304   9.521   1.899  11.138 -0.5181 -0.5615 -0.3760
  551MOL0     C74305   9.922   1.740  11.090  0.0718 -0.1821  0.2551
  551MOL0     C74306   9.984   1.620  11.051 -0.2039 -0.2891 -1.0426
  551MOL0     C74307  10.123   1.596  11.073 -0.7201 -0.3400  0.8024
  551MOL0     C74308  10.200   1.701  11.123 -0.4135 -0.0456 -0.1371
  551MOL0     O74309  10.333   1.662  11.136 -0.0081  0.3309 -0.4969
  551MOL0     C74310  10.425   1.737  11.218 -0.3420  0.2504  0.3550
  551MOL0     C74311  10.536   1.636  11.271 -0.3849 -0.9941 -0.6015
  551MOL0     C74312  10.651   1.699  11.350 -0.3321 -0.3208  0.3206
  551MOL0     C74313  10.744   1.795  11.278  0.6512 -0.0294  0.6976
  551MOL0     C74314  10.857   1.832  11.367 -0.2300 -0.1256  0.6499
  551MOL0     C74315  10.960   1.873  11.419 -0.4739  0.1093  0.1814
  551MOL0     C74316  10.144   1.824  11.154  0.2348 -0.7337  0.6302
  551MOL0     C74317  10.006   1.856  11.129 -0.1001  0.9869  0.6185
  551MOL0     H74318   9.666   2.040  10.857  1.1393  0.0109  0.6164
  551MOL0     H74319   9.434   2.146  10.856  2.0791  2.0981  1.1267
  551MOL0     H74320   9.143   1.877  10.952 -4.3418  0.2821  1.4466
  551MOL0     H74321   9.041   2.010  10.971 -0.2858  2.7766 -2.4932
  551MOL0     H74322   9.113   2.124  10.766  4.1496  0.6340  0.5653
  551MOL0     H74323   9.258   2.034  10.749 -0.7815 -2.3418 -3.9714
  551MOL0     H74324   9.119   1.829  10.709 -0.2789  0.6448 -0.5126
  551MOL0     H74325   8.971   1.925  10.696 -1.2773  1.4916 -3.0020
  551MOL0     H74326   9.061   2.050  10.507  0.9225 -0.5216 -1.3411
  551MOL0     H74327   9.221   1.974  10.527  0.3565 -1.9058  1.5128
  551MOL0     H74328   9.094   1.851  10.352 -1.0997  2.0602  0.5444
  551MOL0     H74329   9.125   1.755  10.486 -0.6877 -1.5825 -2.0593
  551MOL0     H74330   8.872   1.784  10.559 -0.2275 -0.3435 -0.4857
  551MOL0     H74331   8.861   1.921  10.446 -0.1354 -0.3563 -1.4449
  551MOL0     H74332   8.919   1.661  10.326  1.5067  1.9939 -0.3362
  551MOL0     H74333   8.747   1.711  10.380 -0.1480 -0.5200 -1.2841
  551MOL0     H74334   8.908   1.886  10.189 -0.3696  0.7943 -1.1610
  551MOL0     H74335   8.730   1.875  10.219  1.2097  0.4493  1.7793
  551MOL0     H74336   9.036   1.690  10.046  0.2950  3.0044 -1.5462
  551MOL0     H74337   8.864   1.544   9.737 -1.0212 -2.6666  0.1824
  551MOL0     H74338   9.018   1.613   9.762  0.2130 -0.6048 -0.3911
  551MOL0     H74339   8.931   1.361   9.906  1.7836 -0.4260  1.7333
  551MOL0     H74340   9.092   1.447   9.922  0.5189 -2.8527  0.4418
  551MOL0     H74341   9.130   1.408   9.669 -1.1106 -2.3237 -3.5651
  551MOL0     H74342   8.974   1.329   9.654  1.6810  1.4850 -3.5124
  551MOL0     H74343   9.060   1.164   9.827  1.3955 -0.8428  0.4988
  551MOL0     H74344   9.218   1.221   9.791  0.7453 -1.8632  0.4076
  551MOL0     H74345   9.257   1.000   9.803  2.9546 -1.5070  0.3187
  551MOL0     H74346   9.501   0.832   9.789 -0.1666  2.3377 -2.2297
  551MOL0     H74347   9.362   0.828   9.886  2.8607 -2.0123  1.1018
  551MOL0     H74348   9.388   0.688   9.807  3.0401  0.4184  2.1762
  551MOL0     H74349   9.500   0.433   9.384  0.2407 -1.3124  0.0412
  551MOL0     H74350   9.657   0.287   9.234 -0.8820  1.4720  0.7737
  551MOL0     H74351   9.996   0.520   9.170  1.1858 -1.5495  0.6387
  551MOL0     H74352   9.977   0.354   9.219  1.4159 -0.8999 -0.7649
  551MOL0     H74353  10.034   0.284   8.996  0.5278  2.1549 -2.7815
  551MOL0     H74354  10.086   0.442   8.954 -0.7231 -0.1517 -2.3282
  551MOL0     H74355  10.181   0.256   9.178 -1.6032 -1.1142 -2.9729
  551MOL0     H74356  10.233   0.427   9.189 -0.2355  1.4944  0.5871
  551MOL0     H74357  10.334   0.214   9.012 -2.1700  1.1648  0.5891
  551MOL0     H74358  10.295   0.369   8.929 -2.8177 -1.7009 -0.6757
  551MOL0     H74359  10.533   0.312   9.032  0.2066 -2.1166 -0.7999
  551MOL0     H74360  10.453   0.375   9.178  1.5545 -0.8840 -0.6640
  551MOL0     H74361  10.436   0.535   8.908 -0.1651  1.1651  1.3900
  551MOL0     H74362  10.428   0.607   9.063 -3.2175 -0.7782 -2.7115
  551MOL0     H74363  10.691   0.509   8.940 -1.9113 -0.3713 -2.5498
  551MOL0     H74364  10.669   0.506   9.115 -1.8064 -0.8179 -1.2945
  551MOL0     H74365  10.630   0.755   9.115 -1.3159 -3.5398  1.2599
  551MOL0     H74366  10.659   0.743   8.941 -2.6152 -2.2420 -0.0699
  551MOL0     H74367   9.809   0.667   9.076 -0.3494  0.7530  1.6883
  551MOL0     H74368   9.625   0.783   9.194 -3.7915 -0.6535  0.9801
  551MOL0     H74369   9.298   0.854   9.327 -2.0593 -0.3631  0.7171
  551MOL0     H74370   9.126   1.032   9.401  1.0173  1.0743 -0.4518
  551MOL0     H74371   9.298   1.915  11.169 -0.5439 -1.4443 -2.0984
  551MOL0     H74372   9.552   1.834  11.220  1.5614 -0.4431 -1.0061
  551MOL0     H74373   9.938   1.531  11.008 -1.1986 -0.5388  0.4823
  551MOL0     H74374  10.156   1.498  11.041 -2.7331 -0.6730 -0.4880
  551MOL0     H74375  10.467   1.811  11.150 -1.4092 -0.5385 -1.2229
  551MOL0     H74376  10.373   1.786  11.301 -2.9253  0.0155 -1.0108
  551MOL0     H74377  10.578   1.588  11.182  0.9114  1.7657 -1.5895
  551MOL0     H74378  10.478   1.574  11.340 -0.2259 -0.5795 -0.0977
  551MOL0     H74379  10.702   1.611  11.391 -0.7248 -1.2527 -1.0915
  551MOL0     H74380  10.609   1.754  11.434 -1.2859 -3.1042  1.8174
  551MOL0     H74381  10.697   1.882  11.230 -2.3343 -2.3556 -0.9237
  551MOL0     H74382  10.783   1.735  11.195  1.9249 -0.8087  1.8215
  551MOL0     H74383  11.057   1.911  11.443 -0.0769  1.0852 -2.5944
  551MOL0     H74384  10.213   1.904  11.180 -1.0796 -0.0530  2.2746
  551MOL0     H74385   9.970   1.958  11.138 -2.7497  0.1759  0.0964
  552MOL0     O74386   8.425   4.228   8.314 -0.3214 -1.1036 -0.1943
  552MOL0     C74387   8.505   4.129   8.298  0.7938  0.1615  0.2181
  552MOL0     O74388   8.630   4.129   8.224  0.3066 -0.3206  0.8256
  552MOL0     C74389   8.671   4.246   8.169  0.2354  0.2179 -0.5359
  552MOL0     C74390   8.719   4.250   8.039  0.2165 -0.3686  0.4714
  552MOL0     C74391   8.776   4.370   7.983  0.6041 -0.3963  0.4958
  552MOL0     C74392   8.790   4.481   8.065 -0.5331 -0.9651  0.0027
  552MOL0     O74393   8.845   4.595   8.015 -0.9045 -0.5000  0.0720
  552MOL0     C74394   8.873   4.713   8.088  0.7933 -0.3819  0.3677
  552MOL0     C74395   8.895   4.817   7.975  0.0777  0.5258 -0.1350
  552MOL0     C74396   8.893   4.964   8.027 -0.8162 -0.2348  0.8074
  552MOL0     C74397   8.939   5.068   7.916 -0.0568 -0.1317  0.3104
  552MOL0     C74398   8.972   5.206   7.981 -0.3081  0.1290 -0.2280
  552MOL0     C74399   8.995   5.314   7.880 -1.1109  0.2616 -0.3637
  552MOL0     C74400   9.002   5.453   7.946 -0.6919 -0.0965 -0.8888
  552MOL0     C74401   8.872   5.511   7.998  0.3670  0.0653 -0.3321
  552MOL0     N74402   8.881   5.654   7.992  0.1700  0.0219 -0.9199
  552MOL0     C74403   8.850   5.740   7.889 -0.5149 -0.0383 -0.5459
  552MOL0     C74404   8.888   5.857   7.946 -0.0099  0.5233  0.6427
  552MOL0     C74405   8.869   5.987   7.871  0.6629 -0.6319 -0.2838
  552MOL0     C74406   8.770   6.077   7.949  0.5993  0.4655 -0.1205
  552MOL0     C74407   8.706   6.187   7.858  0.2665 -0.4172  0.2826
  552MOL0     C74408   8.815   6.260   7.764  0.1809  0.2386 -0.0479
  552MOL0     O74409   8.841   6.182   7.643 -0.3315 -0.3683  0.1778
  552MOL0     C74410   8.945   6.215   7.558 -0.1680 -0.7927  0.3324
  552MOL0     C74411   9.038   6.121   7.522  0.3313  1.0764  0.1284
  552MOL0     C74412   9.146   6.145   7.446 -0.0599 -0.4697 -0.4502
  552MOL0     C74413   9.235   6.033   7.406 -0.5475  0.1613 -0.0805
  552MOL0     C74414   9.171   6.282   7.397 -0.2620  0.8051 -0.2376
  552MOL0     C74415   9.296   6.317   7.313 -0.5172  0.8821 -0.3864
  552MOL0     O74416   9.412   6.249   7.336  0.0869 -0.1398  0.3953
  552MOL0     C74417   9.523   6.276   7.261  0.1443 -1.0698  0.0057
  552MOL0     C74418   9.610   6.373   7.308  0.2289 -0.3127  0.2052
  552MOL0     C74419   9.733   6.399   7.243  0.0216  0.3574 -1.2094
  552MOL0     C74420   9.757   6.346   7.122 -0.5794  0.3488  0.5682
  552MOL0     O74421   9.863   6.410   7.048  0.3990  0.0013 -0.4314
  552MOL0     C74422   9.888   6.391   6.915  0.3050  0.4266  0.8612
  552MOL0     C74423   9.950   6.261   6.898 -0.5694 -0.6659  0.8470
  552MOL0     C74424  10.072   6.233   6.988 -0.3145 -0.3547 -0.2375
  552MOL0     C74425  10.128   6.090   6.966 -0.5536  0.2881  0.1783
  552MOL0     C74426  10.045   5.980   7.036  0.1078  1.0951 -0.5919
  552MOL0     C74427  10.116   5.849   7.062  0.0159  0.2586  0.3634
  552MOL0     C74428  10.265   5.861   7.110 -0.6999  0.1587 -0.2381
  552MOL0     C74429  10.329   5.725   7.150  0.4383 -0.6998 -0.4643
  552MOL0    Cl74430  10.345   5.616   7.020 -0.0138  0.0754 -0.3481
  552MOL0     C74431   9.663   6.250   7.070 -0.5351  0.1516 -0.4300
  552MOL0     C74432   9.560   6.214   7.147  0.0790 -0.3781  0.0821
  552MOL0     O74433   9.280   6.403   7.231 -0.9888  0.0167 -0.1709
  552MOL0     C74434   9.083   6.380   7.429 -0.9899 -0.6482 -0.8765
  552MOL0     C74435   8.969   6.347   7.507  0.5521  0.0563  1.0828
  552MOL0     N74436   8.955   5.847   8.067 -0.2210  0.0332  0.5358
  552MOL0     N74437   8.933   5.729   8.098  0.0611  0.7353  0.0509
  552MOL0     C74438   8.745   4.469   8.198 -0.2985 -0.5203 -0.2391
  552MOL0     C74439   8.690   4.357   8.248  0.3981 -0.1199  0.2940
  552MOL0     C74440   8.461   3.991   8.337 -0.5285  0.0207  0.6717
  552MOL0     C74441   8.353   3.981   8.425 -0.1976  0.5048 -0.1662
  552MOL0     C74442   8.323   3.862   8.480 -0.5595 -0.0364  1.0027
  552MOL0     C74443   8.395   3.741   8.436 -0.6233 -1.5464 -0.5648
  552MOL0     O74444   8.387   3.628   8.515 -0.1405 -0.0789  0.0452
  552MOL0     C74445   8.355   3.636   8.654 -0.4158  0.1109 -0.2992
  552MOL0     C74446   8.343   3.508   8.718  0.9726 -0.4759  0.0003
  552MOL0     C74447   8.274   3.513   8.854  0.1605 -0.1051  0.0910
  552MOL0     C74448   8.246   3.366   8.915  0.1093 -0.4671  0.2225
  552MOL0     C74449   8.371   3.291   8.923 -0.5023  0.3682  0.3228
  552MOL0     C74450   8.475   3.232   8.945  0.5441 -0.0163  0.0330
  552MOL0     C74451   8.500   3.751   8.338 -0.4640  0.0617  0.3101
  552MOL0     C74452   8.529   3.880   8.293 -0.1218  0.7654 -0.2113
  552MOL0     H74453   8.713   4.160   7.980  1.2478  0.9724 -1.8323
  552MOL0     H74454   8.817   4.373   7.883  4.3551  0.6189  1.9018
  552MOL0     H74455   8.795   4.747   8.157  1.6666  3.4803 -0.2939
  552MOL0     H74456   8.960   4.711   8.154  0.8593 -1.1107  0.2702
  552MOL0     H74457   8.992   4.801   7.927  1.7777 -0.3653  3.2933
  552MOL0     H74458   8.811   4.805   7.906  0.6974 -0.4864 -0.7416
  552MOL0     H74459   8.795   4.990   8.070  0.5325  0.4639  3.7079
  552MOL0     H74460   8.964   4.958   8.110 -2.8610 -2.8096  2.5609
  552MOL0     H74461   9.020   5.028   7.854 -0.9725 -0.8149 -0.4918
  552MOL0     H74462   8.849   5.079   7.854 -0.1993  2.3024  0.8588
  552MOL0     H74463   8.880   5.232   8.034 -1.2696 -1.6782 -0.9308
  552MOL0     H74464   9.053   5.200   8.055  0.0848  0.4935 -0.6239
  552MOL0     H74465   9.090   5.288   7.833 -1.1966  1.5712 -1.3454
  552MOL0     H74466   8.926   5.325   7.795  1.4002  2.9707 -2.2706
  552MOL0     H74467   9.078   5.451   8.025  0.0155 -0.2136 -1.5578
  552MOL0     H74468   9.032   5.516   7.862 -2.7457 -1.0733 -2.4189
  552MOL0     H74469   8.855   5.465   8.096 -0.7489 -0.0853 -0.5832
  552MOL0     H74470   8.785   5.483   7.938  0.3830 -2.1408  0.5854
  552MOL0     H74471   8.804   5.723   7.793  0.3124 -1.4488 -0.7250
  552MOL0     H74472   8.963   6.042   7.856 -0.6987  1.8733 -0.2944
  552MOL0     H74473   8.835   5.971   7.769 -1.3476  0.8252  0.1057
  552MOL0     H74474   8.812   6.122   8.039 -2.0840  0.9680  0.9648
  552MOL0     H74475   8.690   6.004   7.968  2.0858 -0.9178  1.2197
  552MOL0     H74476   8.676   6.260   7.934 -0.1236 -1.4080  1.1024
  552MOL0     H74477   8.623   6.149   7.796 -0.3100 -0.7845  1.2539
  552MOL0     H74478   8.908   6.289   7.813  0.6544  1.2842 -1.4893
  552MOL0     H74479   8.775   6.355   7.728  0.1678  0.7897  1.3958
  552MOL0     H74480   9.015   6.020   7.555  0.6085  0.5318 -1.2788
  552MOL0     H74481   9.195   5.938   7.442  1.1812 -1.0641 -1.2141
  552MOL0     H74482   9.259   6.033   7.300  4.8396 -2.2534  0.7709
  552MOL0     H74483   9.337   6.042   7.446 -0.3824  1.5337 -0.7707
  552MOL0     H74484   9.593   6.434   7.396  1.7646  2.7241 -1.4431
  552MOL0     H74485   9.802   6.469   7.289 -0.5555 -1.8354  3.6516
  552MOL0     H74486   9.793   6.396   6.861  1.5506  0.5276 -1.4926
  552MOL0     H74487   9.968   6.462   6.891  1.8738 -1.5897 -0.3066
  552MOL0     H74488   9.876   6.182   6.914  1.7158 -2.8233  1.3864
  552MOL0     H74489   9.975   6.252   6.792 -2.7959  1.5367  0.0429
  552MOL0     H74490  10.049   6.239   7.095 -2.9124 -2.2722 -0.6073
  552MOL0     H74491  10.156   6.301   6.968  1.9655 -2.8557  0.3183
  552MOL0     H74492  10.150   6.068   6.861  2.7886 -1.6115  1.1431
  552MOL0     H74493  10.226   6.093   7.015 -1.8533 -3.0725  3.4864
  552MOL0     H74494   9.953   5.950   6.984 -1.8212 -0.6108  3.3953
  552MOL0     H74495  10.025   6.009   7.139  0.8935 -1.6207  0.4235
  552MOL0     H74496  10.055   5.790   7.132 -0.1220 -1.7990 -1.3837
  552MOL0     H74497  10.115   5.778   6.979 -6.6299  0.4039 -0.1890
  552MOL0     H74498  10.268   5.932   7.193 -1.5918 -0.3338  0.2245
  552MOL0     H74499  10.317   5.917   7.031 -3.2331  4.1392  0.6235
  552MOL0     H74500  10.265   5.668   7.218  0.8828 -1.3538 -0.5901
  552MOL0     H74501  10.425   5.735   7.202  0.5351 -0.5939 -0.6642
  552MOL0     H74502   9.682   6.207   6.972 -1.2395 -1.2135  0.0207
  552MOL0     H74503   9.505   6.127   7.113 -1.6583 -0.2020  2.2665
  552MOL0     H74504   9.093   6.483   7.396  1.9157 -0.2581  0.8468
  552MOL0     H74505   8.899   6.422   7.542  0.6083  1.4650 -1.5986
  552MOL0     H74506   8.736   4.552   8.268 -0.3759 -0.5830 -0.1731
  552MOL0     H74507   8.648   4.363   8.348 -3.0951  1.4966 -1.0986
  552MOL0     H74508   8.295   4.068   8.452  2.9072  3.4516 -2.1059
  552MOL0     H74509   8.244   3.872   8.554  1.5547  2.1877  3.1840
  552MOL0     H74510   8.407   3.717   8.706 -2.1903  1.1413 -0.0492
  552MOL0     H74511   8.252   3.671   8.646 -0.1448  1.7436  2.1503
  552MOL0     H74512   8.442   3.464   8.727  1.9409  1.6220  0.3578
  552MOL0     H74513   8.287   3.449   8.645 -0.3730  0.2595  0.4074
  552MOL0     H74514   8.177   3.555   8.827 -0.0335 -0.8258 -0.3609
  552MOL0     H74515   8.324   3.573   8.930 -3.4943  0.3453  2.3982
  552MOL0     H74516   8.174   3.313   8.852  0.4468 -3.1327  1.8971
  552MOL0     H74517   8.191   3.382   9.008 -3.2054  0.6231 -1.7717
  552MOL0     H74518   8.565   3.181   8.971  1.4829  1.1972 -0.7603
  552MOL0     H74519   8.575   3.674   8.324 -3.8544 -2.8934 -4.5182
  552MOL0     H74520   8.627   3.886   8.248  1.4451 -0.3718  2.7268
  553MOL0     O74521   1.411   0.382  10.720 -0.5719  0.2087 -0.0794
  553MOL0     C74522   1.406   0.438  10.827 -0.3985  0.6763 -0.1120
  553MOL0     O74523   1.495   0.532  10.870 -0.0109  0.0364 -0.3705
  553MOL0     C74524   1.600   0.578  10.794  0.1653 -1.8767  0.5207
  553MOL0     C74525   1.667   0.511  10.691 -1.2900  0.4286 -0.5003
  553MOL0     C74526   1.756   0.580  10.612 -0.4658  0.2278  0.2837
  553MOL0     C74527   1.796   0.710  10.631  0.5887 -0.2871  0.1072
  553MOL0     O74528   1.892   0.783  10.556 -0.6058  0.3710  0.1558
  553MOL0     C74529   1.970   0.859  10.642 -1.3082 -0.0349 -0.5373
  553MOL0     C74530   2.100   0.900  10.565  0.2756  0.9220 -0.4597
  553MOL0     C74531   2.205   0.971  10.657  0.4868 -0.6974  0.3766
  553MOL0     C74532   2.314   1.037  10.572  0.2696  0.6726  0.3663
  553MOL0     C74533   2.417   1.105  10.655 -0.2058  0.3521 -0.4174
  553MOL0     C74534   2.372   1.213  10.745 -0.5860  0.5859 -0.5077
  553MOL0     C74535   2.342   1.154  10.890 -0.4525 -0.0404  0.3976
  553MOL0     C74536   2.312   1.261  10.996  0.8298  0.6316 -0.1375
  553MOL0     N74537   2.380   1.389  10.984  0.0725 -0.0063 -0.4306
  553MOL0     C74538   2.348   1.483  10.888  0.7856 -0.7922 -0.2941
  553MOL0     C74539   2.450   1.570  10.898 -1.4461 -0.2853  0.1850
  553MOL0     C74540   2.461   1.684  10.807 -0.1387  0.1866 -0.6748
  553MOL0     C74541   2.604   1.730  10.753 -0.0614  0.0797  0.1386
  553MOL0     C74542   2.666   1.618  10.673  0.3494 -0.9588 -0.0914
  553MOL0     C74543   2.798   1.671  10.607 -0.7592  0.2531  0.2563
  553MOL0     O74544   2.761   1.772  10.513 -0.0808 -0.0975 -0.0040
  553MOL0     C74545   2.871   1.824  10.448 -0.4055 -0.7123 -0.8434
  553MOL0     C74546   2.850   1.913  10.345  0.7623  0.8926 -0.3401
  553MOL0     C74547   2.957   1.981  10.290 -0.7729 -0.2708  0.9313
  553MOL0     C74548   2.929   2.075  10.183 -0.3525 -0.7996  0.0827
  553MOL0     C74549   3.094   1.937  10.306  0.2746  0.2282  0.4328
  553MOL0     C74550   3.217   1.978  10.218  0.1356  1.1776 -0.5936
  553MOL0     O74551   3.336   1.910  10.233 -0.5225 -0.8470 -0.1796
  553MOL0     C74552   3.404   1.885  10.119 -0.3060 -1.0888  0.3077
  553MOL0     C74553   3.391   1.765  10.060  0.6278  0.5367  0.5237
  553MOL0     C74554   3.475   1.725   9.960 -0.8070  0.6357 -0.0124
  553MOL0     C74555   3.571   1.804   9.900  0.6333  0.0516  0.5057
  553MOL0     O74556   3.645   1.757   9.797  0.1377  0.2295 -0.5381
  553MOL0     C74557   3.757   1.678   9.839  0.3038 -0.4544  0.8386
  553MOL0     C74558   3.886   1.765   9.832  0.4662 -0.4211 -0.3993
  553MOL0     C74559   4.012   1.670   9.843  0.9079 -0.3108  0.1986
  553MOL0     C74560   4.151   1.730   9.825 -0.1725  0.7601 -0.1553
  553MOL0     C74561   4.273   1.632   9.849 -0.6539  1.5880 -0.4005
  553MOL0     C74562   4.276   1.543   9.978 -0.0255 -0.0796 -0.6660
  553MOL0     C74563   4.409   1.473   9.998 -0.3397  0.0606 -0.3203
  553MOL0     C74564   4.505   1.516  10.115  1.0643  0.0333 -0.3547
  553MOL0    Cl74565   4.503   1.426  10.263 -0.2427 -0.1108  0.4680
  553MOL0     C74566   3.575   1.938   9.938  0.1645  0.4544  0.2304
  553MOL0     C74567   3.494   1.974  10.052 -1.7219 -0.0879  0.0359
  553MOL0     O74568   3.200   2.051  10.120 -0.0489 -0.4587 -0.2073
  553MOL0     C74569   3.112   1.844  10.398  0.3668 -0.5486  0.5137
  553MOL0     C74570   3.008   1.794  10.476  0.1539 -0.4558  0.6180
  553MOL0     N74571   2.554   1.526  10.974  0.4029 -0.1978 -0.0833
  553MOL0     N74572   2.500   1.423  11.031 -0.2923  0.6031 -0.7415
  553MOL0     C74573   1.725   0.773  10.730  0.4864 -0.1864 -0.6016
  553MOL0     C74574   1.623   0.718  10.811 -0.8219  0.1295  0.4818
  553MOL0     C74575   1.288   0.401  10.916 -0.6692 -0.9212 -0.2138
  553MOL0     C74576   1.224   0.508  10.979 -1.5581 -1.0077  0.0198
  553MOL0     C74577   1.127   0.477  11.066  0.8454  0.4447 -0.2098
  553MOL0     C74578   1.087   0.343  11.094 -0.1744  0.0475 -1.5124
  553MOL0     O74579   0.988   0.332  11.189  0.2238  0.3918  0.4648
  553MOL0     C74580   0.885   0.234  11.154  0.0777  0.8193  0.6284
  553MOL0     C74581   0.800   0.274  11.035  0.3015 -0.6566  0.7346
  553MOL0     C74582   0.804   0.192  10.912 -0.5825 -0.0289  0.0653
  553MOL0     C74583   0.745   0.050  10.919  0.4469 -0.4976  0.6283
  553MOL0     C74584   0.766  -0.040  10.806  0.3648  0.6725  0.2708
  553MOL0     C74585   0.781  -0.111  10.715  0.2227  0.5848  0.7998
  553MOL0     C74586   1.154   0.237  11.034  0.1254  0.4299  0.4484
  553MOL0     C74587   1.246   0.269  10.941  0.0559  0.4109  0.2647
  553MOL0     H74588   1.634   0.409  10.670  0.7225 -0.2378 -0.6615
  553MOL0     H74589   1.802   0.531  10.527 -0.8434 -1.9548  1.2509
  553MOL0     H74590   1.915   0.952  10.655 -1.7047  0.0625 -2.6127
  553MOL0     H74591   1.989   0.820  10.743  0.9900  0.8044 -0.5832
  553MOL0     H74592   2.142   0.807  10.526  1.2791  0.0539  2.4172
  553MOL0     H74593   2.073   0.967  10.483 -2.0752 -0.9187 -1.2969
  553MOL0     H74594   2.147   1.047  10.711 -0.0498 -0.0049 -1.1306
  553MOL0     H74595   2.244   0.908  10.737 -1.2499 -0.1851  1.6931
  553MOL0     H74596   2.371   0.975  10.501 -2.7906 -1.5006 -0.3757
  553MOL0     H74597   2.265   1.112  10.508  0.2060  0.7129  0.4637
  553MOL0     H74598   2.474   1.035  10.716  1.4556  1.7305 -0.3167
  553MOL0     H74599   2.492   1.153  10.592  2.1447  1.4541  2.9502
  553MOL0     H74600   2.448   1.291  10.746 -2.2699  2.3151 -1.3541
  553MOL0     H74601   2.285   1.263  10.701 -1.4360 -1.9774 -1.9916
  553MOL0     H74602   2.263   1.079  10.883  0.4000 -0.8095 -2.6675
  553MOL0     H74603   2.440   1.114  10.917  0.1656  1.4983  0.5109
  553MOL0     H74604   2.317   1.235  11.102 -1.8570  0.1110 -0.0465
  553MOL0     H74605   2.207   1.290  10.980  1.0395  1.5213  0.0225
  553MOL0     H74606   2.262   1.481  10.823 -1.4110 -1.1307  2.4420
  553MOL0     H74607   2.395   1.669  10.722  0.7278 -2.5473 -0.9746
  553MOL0     H74608   2.422   1.772  10.859 -1.3565 -0.1746 -0.9661
  553MOL0     H74609   2.666   1.757  10.839  1.4679  2.1311 -1.4989
  553MOL0     H74610   2.588   1.818  10.690  1.7033  0.6242  0.3986
  553MOL0     H74611   2.605   1.583  10.590 -0.3316  1.9497 -0.9293
  553MOL0     H74612   2.692   1.538  10.744  0.5897 -2.1179 -1.4425
  553MOL0     H74613   2.858   1.587  10.570  2.4671  2.0066  1.1541
  553MOL0     H74614   2.857   1.713  10.688  0.0398 -4.7784  2.6758
  553MOL0     H74615   2.745   1.937  10.333  0.7534  1.9141  1.4895
  553MOL0     H74616   2.989   2.166  10.186 -1.5148 -0.0082  0.3337
  553MOL0     H74617   2.935   2.033  10.083 -1.6231  1.7791 -1.1903
  553MOL0     H74618   2.829   2.120  10.195 -0.9050 -1.9643 -0.0459
  553MOL0     H74619   3.318   1.697  10.104  1.2055  0.2561  1.0547
  553MOL0     H74620   3.457   1.632   9.907  1.6787 -0.0036  0.1714
  553MOL0     H74621   3.733   1.632   9.935  0.0732  1.6374  1.8340
  553MOL0     H74622   3.764   1.588   9.777 -1.6612  0.6598 -1.1587
  553MOL0     H74623   3.895   1.821   9.738 -1.9499 -1.4249 -1.3076
  553MOL0     H74624   3.885   1.843   9.909  3.4035  2.5833 -3.0405
  553MOL0     H74625   3.983   1.592   9.773 -0.1305  0.2590 -0.0224
  553MOL0     H74626   4.023   1.628   9.944  1.9696  1.0753  0.6978
  553MOL0     H74627   4.159   1.775   9.726 -1.6794 -4.2224 -2.8558
  553MOL0     H74628   4.159   1.807   9.903  3.2120  3.2669 -2.6557
  553MOL0     H74629   4.368   1.686   9.848  0.3363  0.0481 -3.5884
  553MOL0     H74630   4.264   1.554   9.773  0.4027 -3.0100  3.6777
  553MOL0     H74631   4.231   1.589  10.066 -1.4312  0.8138 -1.7934
  553MOL0     H74632   4.204   1.461   9.972 -0.0396 -0.3834  2.3405
  553MOL0     H74633   4.465   1.471   9.904  0.3850 -1.2405  0.1169
  553MOL0     H74634   4.381   1.368  10.013 -0.2867 -0.0816 -1.1351
  553MOL0     H74635   4.482   1.619  10.144  0.7930 -0.9290  3.2118
  553MOL0     H74636   4.606   1.506  10.075  0.2088 -0.9792 -2.4752
  553MOL0     H74637   3.652   2.004   9.900  0.3004  0.5837  0.7146
  553MOL0     H74638   3.503   2.078  10.081  2.0437 -0.0125 -0.9436
  553MOL0     H74639   3.216   1.816  10.409  0.2321 -0.8847  0.9572
  553MOL0     H74640   3.027   1.708  10.539 -3.8392 -0.2267  2.4706
  553MOL0     H74641   1.743   0.880  10.731 -0.3116  0.1848 -5.4510
  553MOL0     H74642   1.561   0.784  10.872 -0.9696 -0.3163  0.8139
  553MOL0     H74643   1.262   0.609  10.973  0.0617 -1.4445  1.8140
  553MOL0     H74644   1.072   0.561  11.108 -1.1226 -0.7054 -0.3686
  553MOL0     H74645   0.919   0.133  11.129 -1.1205  0.1399  1.6315
  553MOL0     H74646   0.826   0.228  11.246  1.5586  2.0336  1.7115
  553MOL0     H74647   0.835   0.366  10.988 -2.2322 -1.3276 -2.8421
  553MOL0     H74648   0.699   0.292  11.075  1.4777  4.4632  2.1883
  553MOL0     H74649   0.911   0.173  10.903  0.1580  1.9583  2.9911
  553MOL0     H74650   0.766   0.253  10.830  1.8212  0.8527 -0.4935
  553MOL0     H74651   0.637   0.066  10.920  0.5479  0.1710  2.2525
  553MOL0     H74652   0.781   0.006  11.012  0.2646  1.3492  1.6040
  553MOL0     H74653   0.789  -0.173  10.629  0.4738 -1.8170  2.4457
  553MOL0     H74654   1.125   0.133  11.047  0.7120  0.2399  0.2296
  553MOL0     H74655   1.294   0.191  10.883 -1.9757  0.6359 -1.9057
  554MOL0     O74656   7.500   6.291   9.522 -0.5048 -0.1323  0.0340
  554MOL0     C74657   7.474   6.220   9.426 -0.7309  0.9601 -0.7127
  554MOL0     O74658   7.498   6.092   9.428 -0.3722 -0.1306  0.5781
  554MOL0     C74659   7.513   6.018   9.542  1.0291  0.3336 -1.3265
  554MOL0     C74660   7.553   5.878   9.517 -0.4696 -0.7063 -0.2800
  554MOL0     C74661   7.575   5.792   9.621 -0.4530  0.8304 -0.6375
  554MOL0     C74662   7.540   5.819   9.753  0.9138  1.1155 -0.6662
  554MOL0     O74663   7.558   5.720   9.853  0.2305 -1.3441 -0.9397
  554MOL0     C74664   7.500   5.595   9.819 -0.8727  0.8073  0.3419
  554MOL0     C74665   7.494   5.498   9.934 -0.3349 -0.1689  0.4206
  554MOL0     C74666   7.629   5.485   9.989 -0.4386  0.3086  0.7752
  554MOL0     C74667   7.621   5.377  10.095  0.0377 -0.3204 -0.3971
  554MOL0     C74668   7.757   5.363  10.166 -0.0529  0.0385  0.5982
  554MOL0     C74669   7.763   5.235  10.242 -1.0575  0.0957 -0.8504
  554MOL0     C74670   7.916   5.195  10.253  0.3846  0.0154 -0.2699
  554MOL0     C74671   7.924   5.049  10.289  0.0217  0.6168  0.2579
  554MOL0     N74672   7.870   5.035  10.421  0.4882  0.4075 -0.2389
  554MOL0     C74673   7.735   5.035  10.452 -0.8702 -0.8370 -1.2026
  554MOL0     C74674   7.735   5.031  10.591 -0.2558 -0.9730 -0.0355
  554MOL0     C74675   7.621   5.069  10.683  0.2883  0.0367 -0.7209
  554MOL0     C74676   7.520   4.968  10.709  0.7185  0.5799 -0.4920
  554MOL0     C74677   7.558   4.819  10.667  0.1462 -0.9465  0.0282
  554MOL0     C74678   7.638   4.737  10.769  0.4928 -0.3325 -0.3728
  554MOL0     O74679   7.673   4.613  10.703 -0.7397  0.6597  0.9486
  554MOL0     C74680   7.711   4.520  10.790 -0.2138 -0.1089  0.3654
  554MOL0     C74681   7.729   4.529  10.929  1.3368  0.3611 -0.1318
  554MOL0     C74682   7.752   4.416  11.013  0.1584 -0.3803 -0.8882
  554MOL0     C74683   7.764   4.450  11.155 -0.3621 -0.5062  0.6140
  554MOL0     C74684   7.787   4.295  10.950 -1.0232  0.0020  0.0551
  554MOL0     C74685   7.820   4.177  11.027 -0.1506  0.1337 -0.4959
  554MOL0     O74686   7.882   4.083  10.953  0.2293  0.6910  0.2424
  554MOL0     C74687   7.927   3.961  11.006  0.1599 -0.0434 -0.0057
  554MOL0     C74688   7.846   3.883  11.091  0.0787 -0.7619  0.2602
  554MOL0     C74689   7.881   3.764  11.143 -0.5129 -0.2187 -0.5338
  554MOL0     C74690   7.997   3.700  11.099 -0.0560  0.0138  1.1379
  554MOL0     O74691   8.015   3.587  11.165  1.1384 -0.4745  0.2123
  554MOL0     C74692   8.147   3.519  11.148  0.3117  0.7295  0.1312
  554MOL0     C74693   8.272   3.575  11.208  1.0979 -0.4873  0.3737
  554MOL0     C74694   8.278   3.554  11.360 -0.7520 -0.4636 -1.3375
  554MOL0     C74695   8.171   3.622  11.438  0.5651  0.7385  0.6769
  554MOL0     C74696   8.211   3.633  11.581 -0.7762  1.2251  0.2381
  554MOL0     C74697   8.205   3.501  11.653  0.2158 -0.2567 -0.2225
  554MOL0     C74698   8.176   3.532  11.797  0.8029 -0.8071 -1.0982
  554MOL0     C74699   8.295   3.607  11.875 -0.0345  0.5353  0.1625
  554MOL0    Cl74700   8.338   3.775  11.828  0.0985  0.3841  0.5586
  554MOL0     C74701   8.076   3.766  10.998  0.7490 -0.1290 -0.1053
  554MOL0     C74702   8.036   3.895  10.950 -1.0749 -0.5417  0.5039
  554MOL0     O74703   7.764   4.163  11.130  0.4880  0.5469 -0.1718
  554MOL0     C74704   7.793   4.290  10.813  0.0323  0.7831 -0.2910
  554MOL0     C74705   7.747   4.399  10.733  0.4361  1.2561  0.7068
  554MOL0     N74706   7.864   5.009  10.636 -0.9939  0.3890 -0.5907
  554MOL0     N74707   7.944   5.005  10.539 -0.2701 -0.3113 -0.1729
  554MOL0     C74708   7.490   5.949   9.783  0.1002  0.6194  0.3887
  554MOL0     C74709   7.481   6.040   9.675 -0.5815  0.7259 -0.6503
  554MOL0     C74710   7.426   6.272   9.304  0.6228 -0.2143  0.7886
  554MOL0     C74711   7.356   6.190   9.215 -0.7079  0.3366  1.0815
  554MOL0     C74712   7.289   6.235   9.105  0.3915 -0.3397  0.2323
  554MOL0     C74713   7.287   6.371   9.087  1.2156 -0.5864  0.9425
  554MOL0     O74714   7.216   6.431   8.982 -0.0583  0.4593 -0.5309
  554MOL0     C74715   7.225   6.369   8.852 -1.1375  0.1984  0.9271
  554MOL0     C74716   7.175   6.462   8.749  0.0308  0.5699 -0.1416
  554MOL0     C74717   7.269   6.589   8.740  0.5717  0.3846 -0.0838
  554MOL0     C74718   7.251   6.665   8.611 -0.4409 -0.0870  0.0467
  554MOL0     C74719   7.326   6.792   8.601  0.3472 -0.7959  0.1915
  554MOL0     C74720   7.382   6.892   8.563 -0.1681 -1.4540  0.1762
  554MOL0     C74721   7.344   6.457   9.175 -1.4421  0.7005  0.1379
  554MOL0     C74722   7.414   6.411   9.289 -0.3607 -0.2703 -0.8330
  554MOL0     H74723   7.585   5.853   9.416 -0.7641 -1.4760 -0.1860
  554MOL0     H74724   7.619   5.696   9.597  1.6313  1.0678  1.7717
  554MOL0     H74725   7.399   5.609   9.780 -1.6195 -0.3243  1.7991
  554MOL0     H74726   7.558   5.544   9.742 -1.9285 -3.1105  1.9126
  554MOL0     H74727   7.428   5.543  10.008  0.1862  2.5295 -0.6342
  554MOL0     H74728   7.458   5.401   9.896  4.3852 -1.1856 -2.1994
  554MOL0     H74729   7.703   5.462   9.913 -2.2930  0.0326 -1.0425
  554MOL0     H74730   7.652   5.581  10.037 -2.0523  0.4187  1.3996
  554MOL0     H74731   7.538   5.391  10.164  0.6220  0.1582  0.2232
  554MOL0     H74732   7.610   5.279  10.047  2.3985 -2.0297  2.2276
  554MOL0     H74733   7.835   5.373  10.090 -0.5165 -3.6184 -0.5672
  554MOL0     H74734   7.771   5.453  10.226  3.0023 -1.2796  2.0953
  554MOL0     H74735   7.712   5.236  10.339 -0.2451  0.2208 -0.4110
  554MOL0     H74736   7.722   5.151  10.186 -0.1936 -1.9990  1.4444
  554MOL0     H74737   7.973   5.218  10.163  2.7193  0.4455  1.2108
  554MOL0     H74738   7.972   5.258  10.324  0.1329 -0.0404 -0.0177
  554MOL0     H74739   8.025   5.008  10.286 -0.9926 -2.0784  0.9554
  554MOL0     H74740   7.875   4.990  10.211  4.3274  0.5428 -2.7178
  554MOL0     H74741   7.650   5.018  10.387 -1.8826  0.7943 -0.3632
  554MOL0     H74742   7.663   5.096  10.780  0.8920 -0.3860 -0.8556
  554MOL0     H74743   7.570   5.156  10.640 -0.5507 -0.3479 -0.5173
  554MOL0     H74744   7.426   4.990  10.657  0.6283  1.2740 -0.0517
  554MOL0     H74745   7.485   4.968  10.812  2.0903 -0.1198  0.0038
  554MOL0     H74746   7.607   4.819  10.570 -3.8464  0.8835 -2.2463
  554MOL0     H74747   7.464   4.764  10.660 -0.4763 -0.0569  1.0195
  554MOL0     H74748   7.569   4.731  10.853 -0.6419 -3.5051 -1.4010
  554MOL0     H74749   7.731   4.785  10.800  2.2009 -3.6678  0.0585
  554MOL0     H74750   7.721   4.626  10.977 -2.3020 -0.7907  1.9851
  554MOL0     H74751   7.752   4.557  11.173  1.3246  0.0468 -1.1703
  554MOL0     H74752   7.678   4.389  11.185  0.8754 -2.6676 -0.0038
  554MOL0     H74753   7.858   4.409  11.193  2.1540  2.4892 -1.8089
  554MOL0     H74754   7.753   3.931  11.120  2.8729  3.8268  2.8297
  554MOL0     H74755   7.813   3.710  11.208  1.3218 -1.8620  0.1242
  554MOL0     H74756   8.132   3.419  11.189 -2.7455  1.6431  1.5627
  554MOL0     H74757   8.173   3.502  11.043  0.7681  0.8027  0.2324
  554MOL0     H74758   8.358   3.530  11.158 -1.2713 -2.7484 -1.9925
  554MOL0     H74759   8.283   3.677  11.171 -1.3786 -1.0633 -2.2213
  554MOL0     H74760   8.369   3.600  11.400 -2.3724  1.8888 -0.0719
  554MOL0     H74761   8.289   3.450  11.391  0.8957 -1.6181 -5.1762
  554MOL0     H74762   8.161   3.723  11.398 -1.3703 -0.3758 -1.8698
  554MOL0     H74763   8.073   3.574  11.435  0.5480  0.7574  0.8838
  554MOL0     H74764   8.152   3.709  11.632 -3.3869 -0.4267 -0.1274
  554MOL0     H74765   8.318   3.659  11.578 -0.0406 -1.5429 -0.5022
  554MOL0     H74766   8.136   3.432  11.605  1.9295 -2.0299 -0.2527
  554MOL0     H74767   8.299   3.446  11.645  0.2041 -0.2163 -0.6656
  554MOL0     H74768   8.151   3.447  11.861  0.3135  0.9503  1.1751
  554MOL0     H74769   8.082   3.587  11.795 -1.1288 -3.8518 -1.7156
  554MOL0     H74770   8.386   3.545  11.872 -0.3866  0.0346 -0.4907
  554MOL0     H74771   8.252   3.619  11.975 -3.2718 -0.8531 -0.9186
  554MOL0     H74772   8.166   3.728  10.951 -0.9401  1.1958 -4.9928
  554MOL0     H74773   8.087   3.960  10.880 -4.8064  1.9624 -0.1645
  554MOL0     H74774   7.828   4.204  10.758  1.2432  0.1542  1.4062
  554MOL0     H74775   7.726   4.384  10.628 -2.7342  1.8998  1.1660
  554MOL0     H74776   7.474   5.984   9.884 -0.8711  0.6174  0.2409
  554MOL0     H74777   7.441   6.137   9.704 -3.2269 -1.0687  2.2824
  554MOL0     H74778   7.342   6.082   9.224 -1.4212  0.2033 -0.9149
  554MOL0     H74779   7.234   6.172   9.036  0.9645 -2.8582  1.9455
  554MOL0     H74780   7.324   6.328   8.828 -1.9030 -0.6897 -0.9248
  554MOL0     H74781   7.163   6.278   8.851  1.1347 -1.4853  2.9433
  554MOL0     H74782   7.074   6.493   8.779  0.4708 -0.1844  2.3331
  554MOL0     H74783   7.164   6.407   8.655  1.3280  1.0872 -0.6102
  554MOL0     H74784   7.375   6.563   8.742  0.6385  0.5552 -0.8589
  554MOL0     H74785   7.260   6.653   8.828 -0.8525  1.6203 -1.0666
  554MOL0     H74786   7.144   6.686   8.598  0.1843  5.4922  1.3715
  554MOL0     H74787   7.275   6.595   8.531 -0.6117  0.2600 -0.3103
  554MOL0     H74788   7.444   6.967   8.519 -2.1573  0.6393  0.7362
  554MOL0     H74789   7.326   6.562   9.152 -2.8989 -0.2141 -3.6594
  554MOL0     H74790   7.455   6.491   9.350 -1.8287  2.4548 -3.1657
  555MOL0     O74791   9.142   4.989   4.141 -0.4969  0.2869 -0.0941
  555MOL0     C74792   9.259   5.012   4.131 -0.4286  0.5876  0.3330
  555MOL0     O74793   9.315   5.097   4.039 -0.3194 -0.8583 -0.2401
  555MOL0     C74794   9.231   5.177   3.965 -0.0407  0.2376  0.6659
  555MOL0     C74795   9.174   5.132   3.843  0.4956 -0.0118 -1.5934
  555MOL0     C74796   9.073   5.199   3.778  0.1889 -0.2317 -0.3664
  555MOL0     C74797   9.019   5.319   3.814  0.3620 -1.8324 -0.8154
  555MOL0     O74798   8.929   5.399   3.744 -0.4526  0.0644 -0.4053
  555MOL0     C74799   8.837   5.314   3.670 -0.5335 -0.7028  1.4603
  555MOL0     C74800   8.718   5.412   3.619  0.2986 -0.4745  1.0252
  555MOL0     C74801   8.759   5.559   3.595 -0.2366  0.6726 -0.2769
  555MOL0     C74802   8.879   5.557   3.491 -0.6460  0.3481  0.1319
  555MOL0     C74803   8.913   5.692   3.428  0.4395 -0.8011 -0.3729
  555MOL0     C74804   8.991   5.790   3.524 -0.6738  0.1419 -0.2687
  555MOL0     C74805   9.120   5.735   3.593 -1.3119  0.3216 -0.2873
  555MOL0     C74806   9.165   5.815   3.708 -0.3601 -0.1576 -0.2259
  555MOL0     N74807   9.193   5.955   3.674 -0.2255 -0.3726  0.0545
  555MOL0     C74808   9.314   5.998   3.624  0.5576  0.2450  0.0566
  555MOL0     C74809   9.307   6.132   3.630 -0.0372  0.2144  0.4548
  555MOL0     C74810   9.409   6.234   3.570 -0.0776  0.1723  0.0309
  555MOL0     C74811   9.368   6.261   3.429 -0.6550  0.9438 -0.7821
  555MOL0     C74812   9.441   6.374   3.356 -0.4789  0.6981  0.8063
  555MOL0     C74813   9.368   6.513   3.346  0.2328 -0.8260  1.0238
  555MOL0     O74814   9.458   6.623   3.323 -0.1997 -0.2027 -0.7912
  555MOL0     C74815   9.483   6.688   3.439  0.4666 -0.7329 -0.3478
  555MOL0     C74816   9.419   6.805   3.462  0.6400  0.3667  0.3171
  555MOL0     C74817   9.428   6.884   3.576 -0.6326  0.5877 -0.1776
  555MOL0     C74818   9.373   7.026   3.571 -1.4481  0.4326  1.0445
  555MOL0     C74819   9.488   6.827   3.697 -0.2006  0.1363  1.1884
  555MOL0     C74820   9.504   6.897   3.826 -0.6951 -0.5359  0.0885
  555MOL0     O74821   9.523   6.807   3.929  0.1888  0.0560  0.8631
  555MOL0     C74822   9.522   6.840   4.058 -0.0283 -0.6562  0.6486
  555MOL0     C74823   9.638   6.818   4.138 -0.4090  0.1538  0.4384
  555MOL0     C74824   9.651   6.860   4.267  0.5448  0.1039  0.2283
  555MOL0     C74825   9.543   6.928   4.331 -1.3688  0.0953  0.9449
  555MOL0     O74826   9.563   6.953   4.462  0.1540 -0.5642 -0.0052
  555MOL0     C74827   9.482   7.053   4.529  0.5191  0.0128  0.6340
  555MOL0     C74828   9.546   7.097   4.662 -0.0483  0.4679 -0.3477
  555MOL0     C74829   9.463   7.207   4.742 -0.9452 -0.2653 -0.8268
  555MOL0     C74830   9.552   7.255   4.853 -0.1279 -0.7111 -0.1289
  555MOL0     C74831   9.515   7.391   4.917  0.7069 -0.0557  0.3246
  555MOL0     C74832   9.601   7.406   5.043 -0.2296 -0.6635 -0.0707
  555MOL0     C74833   9.614   7.554   5.087  0.1325 -1.1984 -1.0716
  555MOL0     C74834   9.665   7.580   5.239 -0.0412 -0.7716  1.2465
  555MOL0    Cl74835   9.801   7.479   5.284 -0.3440 -0.2489 -0.2881
  555MOL0     C74836   9.423   6.947   4.256 -0.5122 -0.4843  0.2201
  555MOL0     C74837   9.411   6.903   4.118 -0.8435 -0.2617  0.0647
  555MOL0     O74838   9.506   7.022   3.835 -0.1791  0.7191 -0.7987
  555MOL0     C74839   9.549   6.700   3.677 -0.4296 -0.2591 -1.0985
  555MOL0     C74840   9.545   6.636   3.554  0.4947  0.1441  0.5320
  555MOL0     N74841   9.191   6.175   3.678 -0.9637  0.3696  0.8684
  555MOL0     N74842   9.119   6.062   3.721 -0.0711  0.0803  1.6548
  555MOL0     C74843   9.074   5.370   3.931  0.3337  0.6247  0.1112
  555MOL0     C74844   9.173   5.291   4.008  0.3242 -0.3427 -0.0162
  555MOL0     C74845   9.354   4.927   4.210 -1.0240 -0.6468  0.4953
  555MOL0     C74846   9.324   4.797   4.257  1.0209  0.8428  0.6010
  555MOL0     C74847   9.422   4.720   4.326 -0.3296  0.3356 -0.3654
  555MOL0     C74848   9.555   4.766   4.334 -0.7164 -0.0703  0.0643
  555MOL0     O74849   9.655   4.711   4.414 -0.7569  0.0984 -0.0657
  555MOL0     C74850   9.641   4.591   4.481  0.2333  0.7076 -0.3948
  555MOL0     C74851   9.761   4.583   4.571 -0.2813 -0.3191  0.3459
  555MOL0     C74852   9.727   4.480   4.682 -0.3433  0.0466 -0.5201
  555MOL0     C74853   9.859   4.426   4.751 -0.2556  0.7052 -0.3804
  555MOL0     C74854   9.927   4.546   4.807  0.6425  0.2437  0.1630
  555MOL0     C74855  10.017   4.622   4.828 -0.8818 -0.3156 -0.3858
  555MOL0     C74856   9.576   4.893   4.292  0.4109 -0.0359 -1.3979
  555MOL0     C74857   9.482   4.972   4.233 -0.1072  0.1860  0.2031
  555MOL0     H74858   9.205   5.033   3.807 -0.1860 -0.5874 -0.6241
  555MOL0     H74859   9.047   5.149   3.685  0.0138 -0.5178 -0.1625
  555MOL0     H74860   8.902   5.292   3.584 -3.0000  3.4816 -1.8170
  555MOL0     H74861   8.805   5.226   3.727 -0.3002 -0.4997  1.9160
  555MOL0     H74862   8.674   5.372   3.527  0.5738 -2.4600  1.6968
  555MOL0     H74863   8.644   5.411   3.700  0.2673 -1.5161  1.0052
  555MOL0     H74864   8.680   5.629   3.564 -2.1645 -0.1637  2.3510
  555MOL0     H74865   8.796   5.587   3.694  0.9733 -2.2568  0.1894
  555MOL0     H74866   8.970   5.519   3.540 -1.4040 -1.2793  0.3449
  555MOL0     H74867   8.857   5.489   3.408  1.4886 -0.1294 -0.1022
  555MOL0     H74868   8.986   5.680   3.347  1.2735 -0.9627  0.3875
  555MOL0     H74869   8.834   5.754   3.384 -0.5138 -0.8214  1.2379
  555MOL0     H74870   9.018   5.878   3.465  1.2477 -0.3185 -0.1553
  555MOL0     H74871   8.928   5.821   3.607 -0.2061 -1.1259  0.6019
  555MOL0     H74872   9.115   5.628   3.615 -0.1967  0.4123  0.4713
  555MOL0     H74873   9.205   5.737   3.524 -1.5215  0.1378 -0.5514
  555MOL0     H74874   9.261   5.769   3.734 -2.7176 -3.4107  3.9003
  555MOL0     H74875   9.099   5.811   3.795  1.4174 -2.4345  1.1251
  555MOL0     H74876   9.391   5.931   3.587 -0.4973  0.2024 -2.2975
  555MOL0     H74877   9.400   6.329   3.624  1.5175  1.6687 -2.1795
  555MOL0     H74878   9.512   6.198   3.569 -0.7911 -2.0034 -0.8286
  555MOL0     H74879   9.264   6.296   3.432 -0.6466  0.8866  0.4656
  555MOL0     H74880   9.382   6.166   3.377  1.3039  1.9464 -2.2266
  555MOL0     H74881   9.476   6.349   3.255  0.8849 -0.7936  1.6073
  555MOL0     H74882   9.537   6.391   3.405  1.1012 -0.8011 -1.5881
  555MOL0     H74883   9.296   6.533   3.426 -0.3273  0.2828  0.2656
  555MOL0     H74884   9.296   6.513   3.264 -1.0043 -0.5448  2.0791
  555MOL0     H74885   9.380   6.852   3.372  1.4701  1.3731  0.4590
  555MOL0     H74886   9.455   7.099   3.575 -1.0472  0.1095 -0.6309
  555MOL0     H74887   9.317   7.029   3.477 -1.9694  0.8835  1.3598
  555MOL0     H74888   9.309   7.042   3.658 -0.8790  0.9877  1.3730
  555MOL0     H74889   9.722   6.762   4.099 -0.5637  0.3027 -0.1146
  555MOL0     H74890   9.746   6.854   4.319  1.8351 -1.1999 -2.0853
  555MOL0     H74891   9.469   7.144   4.469  0.4200  0.9684  2.0555
  555MOL0     H74892   9.385   7.011   4.558  0.0905  0.6168  0.0785
  555MOL0     H74893   9.555   7.004   4.719 -1.0098 -0.4552 -1.6323
  555MOL0     H74894   9.649   7.126   4.644  0.6602 -1.0332  1.0831
  555MOL0     H74895   9.368   7.163   4.771 -0.9421  1.3044  1.8106
  555MOL0     H74896   9.437   7.295   4.683 -0.8319 -0.2205 -0.8105
  555MOL0     H74897   9.564   7.182   4.933 -2.8230 -2.6299 -1.3611
  555MOL0     H74898   9.650   7.272   4.807 -0.7484  0.1087 -1.1915
  555MOL0     H74899   9.408   7.409   4.935  0.7442  3.3204 -1.8455
  555MOL0     H74900   9.539   7.475   4.851  1.6044 -0.5305  0.0420
  555MOL0     H74901   9.554   7.348   5.123 -0.3176 -1.3103 -0.5814
  555MOL0     H74902   9.700   7.364   5.023 -0.2733 -0.5496 -0.5284
  555MOL0     H74903   9.515   7.597   5.072 -0.8673 -2.7880  0.6049
  555MOL0     H74904   9.685   7.603   5.020  1.9784 -2.3867 -0.0723
  555MOL0     H74905   9.584   7.553   5.308  0.1802 -0.6642  1.5542
  555MOL0     H74906   9.684   7.687   5.252  0.1726 -0.4519 -1.2275
  555MOL0     H74907   9.334   6.983   4.307 -0.2779  2.3092 -1.1360
  555MOL0     H74908   9.324   6.915   4.054 -0.1341  3.2278 -0.4431
  555MOL0     H74909   9.606   6.658   3.760  0.6394  2.7136 -0.2024
  555MOL0     H74910   9.607   6.548   3.540  1.7251  0.7690  1.7507
  555MOL0     H74911   9.051   5.472   3.960 -1.2120  0.8354 -1.6214
  555MOL0     H74912   9.217   5.338   4.096  2.4370 -0.9804 -0.6631
  555MOL0     H74913   9.231   4.755   4.220  1.2044  1.2127 -0.3019
  555MOL0     H74914   9.394   4.627   4.374  0.3336  1.0616  1.5189
  555MOL0     H74915   9.552   4.590   4.543  1.0488  2.8408  0.9185
  555MOL0     H74916   9.638   4.509   4.408  1.5104 -1.2609  1.6282
  555MOL0     H74917   9.789   4.678   4.617  2.6419  0.4835 -2.6807
  555MOL0     H74918   9.848   4.544   4.518 -0.6169  0.5398 -0.8932
  555MOL0     H74919   9.683   4.392   4.633  1.0866  0.2348 -2.2364
  555MOL0     H74920   9.662   4.515   4.763 -0.5505 -2.2144  0.3959
  555MOL0     H74921   9.938   4.385   4.687  2.4138  1.4787  2.2128
  555MOL0     H74922   9.847   4.346   4.825  2.4315  0.9121  0.3745
  555MOL0     H74923  10.106   4.675   4.854 -1.2405  1.2461 -2.1593
  555MOL0     H74924   9.675   4.936   4.298  0.3182  0.3211 -2.2273
  555MOL0     H74925   9.501   5.076   4.209  1.1010 -0.2159 -0.7131
  556MOL0     O74926   5.807  11.266   1.787  0.8013  0.9619 -0.3306
  556MOL0     C74927   5.915  11.213   1.821 -0.0522  0.5387  0.1796
  556MOL0     O74928   5.985  11.107   1.755  0.6801 -0.6182 -0.1223
  556MOL0     C74929   5.946  11.059   1.637  1.3097  0.0929 -0.6452
  556MOL0     C74930   6.008  10.944   1.598  0.3067 -0.4492 -0.7250
  556MOL0     C74931   5.976  10.887   1.478  0.0765 -0.4321  0.2357
  556MOL0     C74932   5.891  10.936   1.386 -0.0479 -0.4188  0.7138
  556MOL0     O74933   5.866  10.853   1.284  0.1938  0.5202 -0.0086
  556MOL0     C74934   5.810  10.917   1.165 -0.8282 -0.2144  0.0196
  556MOL0     C74935   5.822  10.837   1.039  0.3871  0.4213 -0.0381
  556MOL0     C74936   5.970  10.837   0.990 -1.3977  0.1438  0.3130
  556MOL0     C74937   5.991  10.743   0.873  0.2482  0.1217 -0.3705
  556MOL0     C74938   5.916  10.781   0.742 -0.5460  0.9730 -0.5396
  556MOL0     C74939   5.984  10.705   0.626  0.0928  0.1054  0.0984
  556MOL0     C74940   5.994  10.553   0.647 -0.5733 -0.3728  0.5808
  556MOL0     C74941   6.002  10.469   0.516 -0.0073 -0.1327  0.4858
  556MOL0     N74942   6.090  10.527   0.412  1.5653 -0.7138  0.2451
  556MOL0     C74943   6.227  10.520   0.405  0.2991  0.5576 -0.2041
  556MOL0     C74944   6.261  10.586   0.290  0.5785 -0.8663  0.0847
  556MOL0     C74945   6.399  10.606   0.245 -0.5326 -0.2783 -0.1497
  556MOL0     C74946   6.488  10.713   0.318  0.5360 -0.0148  0.0839
  556MOL0     C74947   6.417  10.850   0.308 -0.6465 -0.6781  0.6101
  556MOL0     C74948   6.523  10.953   0.360 -0.3270  0.2501 -0.4515
  556MOL0     O74949   6.630  10.980   0.265  0.3963  0.1186 -0.7311
  556MOL0     C74950   6.759  11.018   0.300  0.6031  0.2426  0.3577
  556MOL0     C74951   6.847  11.078   0.208 -0.6999  0.5192  0.1975
  556MOL0     C74952   6.970  11.130   0.254 -0.2005  0.1299  0.1555
  556MOL0     C74953   7.057  11.192   0.161  0.3425 -0.9323 -0.0256
  556MOL0     C74954   7.009  11.122   0.386  0.9444  0.1209 -0.8765
  556MOL0     C74955   7.115  11.193   0.452 -0.5389 -0.1567  0.5034
  556MOL0     O74956   7.167  11.122   0.558  0.3559 -0.4581 -0.6765
  556MOL0     C74957   7.233  11.197   0.656  0.1069  0.1644  0.2652
  556MOL0     C74958   7.375  11.226   0.662  0.3893  0.6097  0.8491
  556MOL0     C74959   7.436  11.301   0.767  0.2733 -0.5421 -0.5290
  556MOL0     C74960   7.359  11.362   0.862 -0.1173 -0.3816 -0.0630
  556MOL0     O74961   7.412  11.429   0.964  0.6434 -0.9861  0.1158
  556MOL0     C74962   7.526  11.504   0.952  0.7113  0.0529 -0.5604
  556MOL0     C74963   7.568  11.562   1.092  0.0838 -0.5271 -0.0771
  556MOL0     C74964   7.689  11.657   1.069 -0.0744 -0.1780 -0.2929
  556MOL0     C74965   7.691  11.791   1.165  1.2332  0.6909  0.8462
  556MOL0     C74966   7.750  11.756   1.297  0.5162 -0.5024 -0.5010
  556MOL0     C74967   7.832  11.875   1.360 -0.6898  0.0849 -1.4577
  556MOL0     C74968   7.958  11.909   1.275  0.7603  0.4910 -0.4517
  556MOL0     C74969   8.045  12.010   1.350 -0.2439  0.6609  0.5324
  556MOL0    Cl74970   8.182  12.053   1.239  0.1396  0.0342  1.0458
  556MOL0     C74971   7.226  11.319   0.869 -0.5421 -0.2598  0.8351
  556MOL0     C74972   7.170  11.232   0.774  0.6770 -0.6525 -0.1018
  556MOL0     O74973   7.137  11.306   0.417  0.4720 -0.1913 -0.0221
  556MOL0     C74974   6.927  11.051   0.478  0.0163 -0.0876 -0.7523
  556MOL0     C74975   6.798  11.005   0.435 -0.0681  0.0109  0.1127
  556MOL0     N74976   6.148  10.626   0.222 -0.3097  0.3602 -0.0689
  556MOL0     N74977   6.051  10.579   0.288  0.0402  0.1374 -0.8045
  556MOL0     C74978   5.826  11.051   1.427  0.3406 -0.8187 -0.5955
  556MOL0     C74979   5.858  11.121   1.547  0.8972  0.7355  0.2728
  556MOL0     C74980   5.984  11.265   1.946 -0.4385 -0.3439 -0.4851
  556MOL0     C74981   6.123  11.277   1.950 -0.9413 -0.3529 -0.8857
  556MOL0     C74982   6.176  11.356   2.051 -0.0160  0.1112  0.1110
  556MOL0     C74983   6.093  11.403   2.157  0.2058  0.7587  0.9843
  556MOL0     O74984   6.159  11.460   2.258  0.1004 -0.1913  0.4165
  556MOL0     C74985   6.103  11.443   2.390 -0.1723  0.3268 -0.0602
  556MOL0     C74986   6.145  11.298   2.437 -1.0437 -0.4492 -0.2426
  556MOL0     C74987   6.110  11.278   2.582 -0.2277  0.4577  0.1464
  556MOL0     C74988   6.134  11.127   2.617  1.3247  0.5046 -0.0127
  556MOL0     C74989   6.165  11.137   2.758 -0.2064 -0.4348  0.7864
  556MOL0     C74990   6.180  11.153   2.871 -1.6179 -0.3845 -1.4511
  556MOL0     C74991   5.953  11.389   2.148  0.4324 -0.2388  0.4977
  556MOL0     C74992   5.902  11.333   2.034  0.5336  0.3395 -0.7469
  556MOL0     H74993   6.080  10.892   1.660 -2.3907 -2.1252  1.1927
  556MOL0     H74994   6.022  10.792   1.454 -0.5435 -0.4475 -1.0158
  556MOL0     H74995   5.705  10.944   1.181 -0.8464 -0.5238  0.4395
  556MOL0     H74996   5.867  11.009   1.147 -0.3257 -0.5949 -0.3645
  556MOL0     H74997   5.793  10.736   1.070 -1.3730  0.6093 -0.9286
  556MOL0     H74998   5.756  10.865   0.956  0.6360  0.7539 -0.1274
  556MOL0     H74999   5.996  10.938   0.958  1.4096 -0.2124  1.1661
  556MOL0     H75000   6.051  10.820   1.061 -1.0368  0.1405 -0.0949
  556MOL0     H75001   6.097  10.743   0.844  0.4288 -0.4840  0.2907
  556MOL0     H75002   5.969  10.643   0.909  0.6606  0.4338  0.7980
  556MOL0     H75003   5.810  10.755   0.739 -0.4744  0.5572 -4.3317
  556MOL0     H75004   5.920  10.889   0.723  0.7520  1.0068 -0.1691
  556MOL0     H75005   5.931  10.723   0.532  2.5680  0.7731 -1.2582
  556MOL0     H75006   6.082  10.753   0.612 -0.6479  1.8072  0.4815
  556MOL0     H75007   6.077  10.516   0.708 -0.5953 -0.5941  0.4774
  556MOL0     H75008   5.905  10.523   0.703 -1.9438  0.8069 -0.8963
  556MOL0     H75009   5.902  10.478   0.473 -0.0132  2.1325  0.8482
  556MOL0     H75010   6.032  10.366   0.537  2.6776  0.1492 -1.4740
  556MOL0     H75011   6.281  10.469   0.484 -1.0637 -1.0036 -0.2508
  556MOL0     H75012   6.444  10.507   0.259 -0.1363  0.1554  1.9300
  556MOL0     H75013   6.397  10.634   0.139  0.6506  0.5732  0.0345
  556MOL0     H75014   6.587  10.718   0.272  1.2879 -3.3772  1.0900
  556MOL0     H75015   6.494  10.681   0.422  0.4971 -0.9153 -0.1866
  556MOL0     H75016   6.325  10.853   0.366 -1.1941  2.4960 -0.2170
  556MOL0     H75017   6.402  10.879   0.204 -0.7491  2.0374  1.3126
  556MOL0     H75018   6.542  10.911   0.459  0.5660  4.1877  1.2020
  556MOL0     H75019   6.460  11.040   0.377 -0.9777  0.0461 -1.7011
  556MOL0     H75020   6.822  11.086   0.103 -0.5306  0.2489  0.1348
  556MOL0     H75021   7.107  11.115   0.102 -1.4223 -1.3318 -1.0607
  556MOL0     H75022   6.998  11.244   0.086  0.2359 -1.8967 -0.6269
  556MOL0     H75023   7.137  11.252   0.205 -2.5511  2.1111  1.4993
  556MOL0     H75024   7.444  11.196   0.584 -1.0518  1.5146 -0.8397
  556MOL0     H75025   7.545  11.302   0.769  0.3343  1.9003 -1.5951
  556MOL0     H75026   7.615  11.460   0.906  2.0509  3.0314 -1.0975
  556MOL0     H75027   7.503  11.591   0.889  2.6644  2.0281  1.2603
  556MOL0     H75028   7.500  11.612   1.161 -0.0012 -3.3457  2.0675
  556MOL0     H75029   7.606  11.475   1.146  0.4609 -1.0861 -1.2043
  556MOL0     H75030   7.682  11.696   0.967 -2.7383 -0.7575 -0.4036
  556MOL0     H75031   7.783  11.603   1.079  1.0269  1.2713 -2.0482
  556MOL0     H75032   7.757  11.869   1.126  0.5838  0.5190 -0.6794
  556MOL0     H75033   7.589  11.828   1.173  0.8022 -0.4920  1.1156
  556MOL0     H75034   7.822  11.676   1.286  1.3841 -0.2141  2.2713
  556MOL0     H75035   7.668  11.709   1.353  0.4359 -1.3353 -1.2980
  556MOL0     H75036   7.770  11.965   1.374 -1.6971 -1.0433  2.4734
  556MOL0     H75037   7.853  11.841   1.462  1.0008  1.7931 -1.1738
  556MOL0     H75038   7.935  11.945   1.174 -1.5560 -0.6815 -0.3862
  556MOL0     H75039   8.015  11.817   1.256  2.1255  0.5375  2.7156
  556MOL0     H75040   8.089  11.959   1.436 -1.5945 -4.3143 -1.3662
  556MOL0     H75041   7.987  12.098   1.380 -0.1088  0.6153  0.9405
  556MOL0     H75042   7.158  11.370   0.935 -3.2622 -2.4125 -0.0970
  556MOL0     H75043   7.065  11.214   0.796  1.3323 -0.6741  3.5854
  556MOL0     H75044   6.963  11.029   0.578 -0.6465  2.4937  0.1389
  556MOL0     H75045   6.748  10.947   0.512  1.4155 -0.4930  0.7360
  556MOL0     H75046   5.750  11.097   1.365  2.1368  1.1824 -1.4058
  556MOL0     H75047   5.800  11.211   1.564 -0.7269  0.1187 -1.6399
  556MOL0     H75048   6.185  11.234   1.873  0.9139 -2.6609  1.6996
  556MOL0     H75049   6.284  11.371   2.049  0.4468 -1.5656  3.6905
  556MOL0     H75050   6.141  11.519   2.458  1.0176  0.3388 -0.6922
  556MOL0     H75051   5.995  11.458   2.385 -0.1684 -0.0493 -2.6856
  556MOL0     H75052   6.254  11.288   2.427 -1.1379 -1.5165 -0.3766
  556MOL0     H75053   6.102  11.223   2.370  1.8247 -1.3511 -1.2446
  556MOL0     H75054   6.008  11.299   2.615  0.6720  0.7772  3.0096
  556MOL0     H75055   6.172  11.341   2.646 -2.1020  0.7019  1.8275
  556MOL0     H75056   6.219  11.080   2.566  0.1118 -2.4945  0.4938
  556MOL0     H75057   6.038  11.074   2.613  2.1767 -1.7172  3.9310
  556MOL0     H75058   6.203  11.166   2.975 -0.7854 -1.6100 -1.4588
  556MOL0     H75059   5.889  11.450   2.211  1.2822  1.7389 -0.4973
  556MOL0     H75060   5.798  11.356   2.012  0.0009 -0.4691  0.7583
  557MOL0     O75061   6.004  10.248  10.135  0.3898  0.0800 -0.4935
  557MOL0     C75062   6.056  10.186  10.226 -0.6027 -0.3534  0.1139
  557MOL0     O75063   6.155  10.097  10.212 -0.4076  0.6438 -0.2581
  557MOL0     C75064   6.241  10.082  10.105  0.7279  0.4604 -0.2003
  557MOL0     C75065   6.292   9.950  10.102  0.1532  0.4294  0.5010
  557MOL0     C75066   6.380   9.919   9.994  0.5641  0.4195  0.3544
  557MOL0     C75067   6.429  10.021   9.918 -0.4801 -1.2444 -0.5076
  557MOL0     O75068   6.517   9.998   9.807  0.9562 -0.0064 -0.1313
  557MOL0     C75069   6.603   9.885   9.790  0.8644  0.2872  0.0321
  557MOL0     C75070   6.730   9.916   9.714 -0.7503 -0.0200  0.3131
  557MOL0     C75071   6.794   9.799   9.625 -0.6347 -0.4479  0.5979
  557MOL0     C75072   6.851   9.692   9.710 -0.7170  0.8825 -0.7802
  557MOL0     C75073   6.857   9.551   9.628  0.2183 -0.3895 -0.0649
  557MOL0     C75074   6.913   9.428   9.718  0.2753  0.5327  0.4327
  557MOL0     C75075   7.034   9.470   9.795 -0.4656 -0.3417 -1.8790
  557MOL0     C75076   7.097   9.343   9.855 -0.1021 -1.1160 -0.0740
  557MOL0     N75077   7.001   9.262   9.931 -0.5801  0.3107 -0.5374
  557MOL0     C75078   6.934   9.296  10.050  0.4882 -0.2291  0.0825
  557MOL0     C75079   6.851   9.196  10.072  0.1113 -0.1729  0.1267
  557MOL0     C75080   6.750   9.194  10.179 -0.4674 -0.3310  0.3171
  557MOL0     C75081   6.790   9.083  10.276  0.5553 -0.3286 -0.4125
  557MOL0     C75082   6.745   9.120  10.422 -0.0129 -0.5167  0.2112
  557MOL0     C75083   6.790   8.999  10.510  0.2920 -0.3318 -0.2545
  557MOL0     O75084   6.756   9.032  10.640 -0.3201  0.2577 -0.0435
  557MOL0     C75085   6.831   9.119  10.714  0.3868 -0.9834  0.1344
  557MOL0     C75086   6.952   9.186  10.675 -0.9739 -0.1764 -0.5981
  557MOL0     C75087   7.013   9.281  10.759  1.1658 -0.5675 -0.1140
  557MOL0     C75088   7.145   9.340  10.718 -0.5296 -0.2944 -0.1663
  557MOL0     C75089   6.959   9.309  10.887 -0.6685 -0.0247  0.0613
  557MOL0     C75090   7.009   9.412  10.984 -0.5747  0.5704 -0.6574
  557MOL0     O75091   6.908   9.452  11.072 -0.1077  0.3550  0.5346
  557MOL0     C75092   6.921   9.551  11.162  0.9765  0.2664 -0.8832
  557MOL0     C75093   6.837   9.543  11.278  0.1946  0.6185  0.7203
  557MOL0     C75094   6.860   9.611  11.393 -0.5419  0.5349  0.3256
  557MOL0     C75095   6.959   9.710  11.392 -0.2367  0.9464 -0.7179
  557MOL0     O75096   6.972   9.774  11.515  0.2330  0.4815  0.2309
  557MOL0     C75097   7.064   9.883  11.529 -0.6112  0.2877  0.1536
  557MOL0     C75098   7.079   9.936  11.679 -1.1177 -0.1851  0.9433
  557MOL0     C75099   7.216   9.999  11.689 -0.4441  0.2378 -0.4498
  557MOL0     C75100   7.277   9.982  11.829 -1.0774 -0.8717  0.6686
  557MOL0     C75101   7.423  10.029  11.829 -0.1991 -1.2838  0.1343
  557MOL0     C75102   7.438  10.178  11.813  0.2635 -0.3568  0.0638
  557MOL0     C75103   7.588  10.217  11.835  0.2058  0.1851  0.4397
  557MOL0     C75104   7.608  10.369  11.829  0.0599  0.2792 -0.1798
  557MOL0    Cl75105   7.791  10.424  11.862  0.0641 -0.5078  0.0457
  557MOL0     C75106   7.020   9.740  11.276  0.1579 -0.7809 -0.6735
  557MOL0     C75107   7.010   9.660  11.164  1.0967 -0.0436 -0.4549
  557MOL0     O75108   7.123   9.463  10.971 -0.6412 -0.2113 -0.0043
  557MOL0     C75109   6.845   9.237  10.928 -0.5101  0.5658  1.1143
  557MOL0     C75110   6.781   9.156  10.836  0.6523 -0.7230  0.4513
  557MOL0     N75111   6.878   9.094   9.980  0.2842  0.7104  0.0046
  557MOL0     N75112   6.962   9.138   9.890 -0.3832  0.2074 -0.2882
  557MOL0     C75113   6.389  10.153   9.942  0.3573 -0.5129 -0.1869
  557MOL0     C75114   6.287  10.184  10.033 -1.3535 -0.6205  0.1914
  557MOL0     C75115   6.019  10.218  10.367  0.3348  0.0181  0.1163
  557MOL0     C75116   5.905  10.292  10.390  0.7019 -0.2235 -0.5570
  557MOL0     C75117   5.862  10.317  10.523  0.7239 -0.6791 -0.2616
  557MOL0     C75118   5.936  10.276  10.632  0.2708 -0.1742  0.2271
  557MOL0     O75119   5.919  10.310  10.766 -0.3888  0.4012 -0.3811
  557MOL0     C75120   5.907  10.456  10.797 -0.4585  0.8269  0.2247
  557MOL0     C75121   5.764  10.492  10.819 -0.9944  0.4333  0.1584
  557MOL0     C75122   5.738  10.645  10.856 -0.3258  0.0293 -0.5683
  557MOL0     C75123   5.775  10.672  11.003  0.1077 -0.5510 -0.1974
  557MOL0     C75124   5.715  10.809  11.031 -0.7977  0.1548 -1.3927
  557MOL0     C75125   5.680  10.915  11.086  0.8221  0.6549  0.9999
  557MOL0     C75126   6.044  10.187  10.606 -0.4372  0.2953 -0.3313
  557MOL0     C75127   6.085  10.154  10.473 -0.5661 -0.3743  0.1629
  557MOL0     H75128   6.244   9.873  10.163 -0.7733  0.5770 -0.0217
  557MOL0     H75129   6.397   9.814   9.972  0.2426  0.3141  0.6007
  557MOL0     H75130   6.626   9.843   9.888 -1.0723  2.5523  1.5691
  557MOL0     H75131   6.538   9.821   9.731  1.1628  0.4921 -0.5269
  557MOL0     H75132   6.707  10.006   9.656  2.1004  1.1131  0.7611
  557MOL0     H75133   6.813   9.946   9.779 -2.7615 -0.3245  3.1965
  557MOL0     H75134   6.711   9.766   9.563 -0.9054  2.2957 -0.6354
  557MOL0     H75135   6.863   9.854   9.560 -1.7164  1.6060  1.0945
  557MOL0     H75136   6.950   9.726   9.742 -1.7866  1.0933  2.6851
  557MOL0     H75137   6.788   9.674   9.797 -3.0415  3.2508 -1.8239
  557MOL0     H75138   6.756   9.528   9.593  0.0135 -0.1881  0.3905
  557MOL0     H75139   6.924   9.560   9.541  0.7658 -4.8572 -0.3250
  557MOL0     H75140   6.837   9.396   9.790  3.0700 -1.1792  2.8761
  557MOL0     H75141   6.932   9.330   9.673  1.5871  0.9015  0.1403
  557MOL0     H75142   7.106   9.512   9.724  0.8098  2.5350  0.8780
  557MOL0     H75143   7.017   9.546   9.871  2.2508 -0.7256 -0.7897
  557MOL0     H75144   7.184   9.371   9.916  0.6493  1.2995 -2.0669
  557MOL0     H75145   7.133   9.277   9.775 -0.8765 -1.3351 -0.2424
  557MOL0     H75146   6.933   9.392  10.102 -1.2135  0.8810 -1.8383
  557MOL0     H75147   6.747   9.292  10.227  2.5349 -0.6785  1.4454
  557MOL0     H75148   6.653   9.171  10.135 -0.6505  0.3954  0.3328
  557MOL0     H75149   6.896   9.060  10.263  0.9409  1.0171  0.2464
  557MOL0     H75150   6.737   8.991  10.248  2.1486 -2.1421  2.1446
  557MOL0     H75151   6.636   9.127  10.430 -0.3456  1.7463 -3.9783
  557MOL0     H75152   6.786   9.215  10.455 -1.5630  0.2275  0.0796
  557MOL0     H75153   6.898   8.997  10.496  1.0747 -3.3107  4.2423
  557MOL0     H75154   6.746   8.910  10.465 -1.4258  0.7107 -0.7776
  557MOL0     H75155   7.000   9.174  10.578 -0.5375  0.8266 -0.5220
  557MOL0     H75156   7.135   9.448  10.704 -1.7338 -0.5915 -2.0363
  557MOL0     H75157   7.228   9.326  10.787  0.2909  0.6022 -0.9443
  557MOL0     H75158   7.180   9.290  10.627 -0.9048  0.6878 -0.8741
  557MOL0     H75159   6.759   9.468  11.269  1.4544 -0.5779 -0.9926
  557MOL0     H75160   6.797   9.605  11.481  1.0105  1.9543  1.6052
  557MOL0     H75161   7.162   9.849  11.495 -0.9173 -3.1405  2.2187
  557MOL0     H75162   7.032   9.973  11.476  1.4856 -0.2248 -2.1348
  557MOL0     H75163   7.002  10.009  11.705 -0.4029  0.6274  0.8129
  557MOL0     H75164   7.061   9.861  11.758  1.3725 -2.4895 -0.5132
  557MOL0     H75165   7.213  10.108  11.684  3.3553  0.4465 -1.1300
  557MOL0     H75166   7.291   9.971  11.615  1.8719  0.9000  1.5015
  557MOL0     H75167   7.214  10.046  11.891 -0.5197 -1.4574  1.8674
  557MOL0     H75168   7.266   9.878  11.862 -0.1641 -0.4471  2.4770
  557MOL0     H75169   7.463   9.977  11.741  2.8340 -1.2023  1.3511
  557MOL0     H75170   7.460  10.000  11.928  2.9662 -0.3081 -0.6480
  557MOL0     H75171   7.411  10.213  11.713  3.0591  0.9904 -0.3131
  557MOL0     H75172   7.371  10.224  11.886 -2.0265 -0.9012 -1.6085
  557MOL0     H75173   7.639  10.168  11.751 -1.6038 -0.3794 -0.4074
  557MOL0     H75174   7.637  10.171  11.921  2.6015 -1.6803 -1.7636
  557MOL0     H75175   7.551  10.427  11.902  0.2669  1.5122 -0.9582
  557MOL0     H75176   7.570  10.403  11.733  0.3453 -1.4639 -0.9479
  557MOL0     H75177   7.096   9.815  11.295  0.9399 -1.5034 -0.8715
  557MOL0     H75178   7.083   9.677  11.086  1.0848  0.5275 -0.3429
  557MOL0     H75179   6.802   9.237  11.027 -2.2900  0.3166  0.3955
  557MOL0     H75180   6.681   9.124  10.865 -0.5804  1.9652 -0.5238
  557MOL0     H75181   6.428  10.234   9.881 -4.2524  0.8086 -1.7470
  557MOL0     H75182   6.269  10.291  10.045 -0.1602 -0.1792 -1.4676
  557MOL0     H75183   5.837  10.326  10.312 -0.4869 -3.5662 -1.1245
  557MOL0     H75184   5.795  10.401  10.539  2.1752  0.5225 -0.2824
  557MOL0     H75185   5.967  10.476  10.887 -0.4468  2.2112 -0.0624
  557MOL0     H75186   5.955  10.512  10.716  1.2988 -1.9633 -0.8040
  557MOL0     H75187   5.728  10.429  10.901  2.3569 -0.3111  1.2065
  557MOL0     H75188   5.703  10.478  10.729 -1.2085 -2.4228  0.6635
  557MOL0     H75189   5.630  10.657  10.862 -0.2809 -0.2654  2.2639
  557MOL0     H75190   5.790  10.714  10.788  0.3220 -1.3158 -1.4848
  557MOL0     H75191   5.881  10.696  11.008  0.1653 -0.8232 -0.1157
  557MOL0     H75192   5.743  10.600  11.079 -0.8257  0.4611  0.4006
  557MOL0     H75193   5.644  10.997  11.144 -1.4494  1.0674 -0.8494
  557MOL0     H75194   6.090  10.141  10.693 -0.5250  1.4062  0.3150
  557MOL0     H75195   6.164  10.081  10.460 -0.3565 -0.0371 -0.4793
  558MOL0     O75196   6.003   3.817   8.040 -0.3100  0.3212  0.2372
  558MOL0     C75197   5.876   3.834   8.048  0.0660 -0.7463 -0.0474
  558MOL0     O75198   5.804   3.909   8.145 -0.2426 -0.1317  0.0389
  558MOL0     C75199   5.897   3.981   8.221 -0.6922 -0.3202  0.1347
  558MOL0     C75200   5.968   3.936   8.331  0.9095 -0.4139  0.3790
  558MOL0     C75201   6.058   4.022   8.397  0.2385  0.5911 -0.6973
  558MOL0     C75202   6.082   4.157   8.354  0.8737  0.2095 -0.0123
  558MOL0     O75203   6.162   4.241   8.423  0.2286  0.1820 -0.2243
  558MOL0     C75204   6.176   4.375   8.380  0.5611 -0.2777 -0.0376
  558MOL0     C75205   6.260   4.453   8.472  0.9104  0.1238  0.0651
  558MOL0     C75206   6.397   4.369   8.499  0.8084 -0.2665 -0.0886
  558MOL0     C75207   6.475   4.452   8.605  0.7931  0.2477 -0.4757
  558MOL0     C75208   6.619   4.478   8.572  0.0899 -0.1178  0.0064
  558MOL0     C75209   6.696   4.529   8.689 -0.3684 -0.3749 -0.0174
  558MOL0     C75210   6.851   4.558   8.667 -0.0637 -0.2204  0.2503
  558MOL0     C75211   6.922   4.424   8.649  0.5034  1.0704  0.0564
  558MOL0     N75212   7.059   4.456   8.614 -0.6202 -0.6708  0.0454
  558MOL0     C75213   7.159   4.487   8.697 -0.2326  0.8661  0.1124
  558MOL0     C75214   7.257   4.524   8.614  0.1389 -0.8416 -0.1041
  558MOL0     C75215   7.404   4.562   8.650  0.7374 -0.6422 -0.1669
  558MOL0     C75216   7.506   4.461   8.603 -0.4562 -0.2442  0.3634
  558MOL0     C75217   7.646   4.508   8.637  0.3999  0.0071 -0.8045
  558MOL0     C75218   7.759   4.416   8.590  0.5378 -0.7676  0.6405
  558MOL0     O75219   7.759   4.373   8.456 -0.5110 -0.2304 -0.0986
  558MOL0     C75220   7.805   4.454   8.360  0.1502 -0.2221  0.0161
  558MOL0     C75221   7.787   4.404   8.228 -0.0775 -0.7233  0.1084
  558MOL0     C75222   7.840   4.481   8.112 -0.1270 -0.4665 -0.9546
  558MOL0     C75223   7.831   4.418   7.977  0.3313  1.4501 -0.0208
  558MOL0     C75224   7.917   4.601   8.141 -0.1789 -0.1386  0.5795
  558MOL0     C75225   7.970   4.690   8.036  0.3061 -0.3662  0.1820
  558MOL0     O75226   7.974   4.822   8.066 -0.9783 -0.6091 -0.0589
  558MOL0     C75227   8.031   4.919   7.992 -0.6712  0.2664 -0.2313
  558MOL0     C75228   8.056   4.931   7.856  0.1418  0.1578  0.2512
  558MOL0     C75229   8.134   5.035   7.794 -0.8857 -0.4374 -0.0786
  558MOL0     C75230   8.194   5.141   7.869 -0.0040 -0.2470 -0.2277
  558MOL0     O75231   8.264   5.238   7.805 -0.7422  0.0606  0.0478
  558MOL0     C75232   8.380   5.285   7.869 -0.7175 -0.8432 -0.7970
  558MOL0     C75233   8.358   5.434   7.918  0.1173  0.1806  0.5522
  558MOL0     C75234   8.491   5.484   7.991  0.4148 -0.3812 -0.4765
  558MOL0     C75235   8.485   5.629   8.061 -0.3630  0.1448  0.1589
  558MOL0     C75236   8.583   5.652   8.180  0.1972 -0.0176  0.0962
  558MOL0     C75237   8.576   5.804   8.234 -0.3187  0.9302 -0.1050
  558MOL0     C75238   8.634   5.829   8.371  0.4801 -0.4367  0.4418
  558MOL0     C75239   8.578   5.954   8.439 -0.5597 -0.5352 -0.2859
  558MOL0    Cl75240   8.586   6.099   8.353 -0.1701 -0.2440  0.4515
  558MOL0     C75241   8.167   5.130   8.008 -0.2787 -1.4356  0.0236
  558MOL0     C75242   8.096   5.016   8.065  0.2223  0.2412  1.0337
  558MOL0     O75243   7.997   4.645   7.928 -0.2524  0.2835  0.1514
  558MOL0     C75244   7.920   4.649   8.273 -0.0122  1.1719  0.2853
  558MOL0     C75245   7.859   4.579   8.379  0.9660 -0.2254  0.2853
  558MOL0     N75246   7.208   4.525   8.483 -0.4574 -0.6236 -0.0107
  558MOL0     N75247   7.090   4.470   8.484  0.2941 -0.3559  0.0241
  558MOL0     C75248   6.013   4.194   8.237  0.6411 -0.7135  0.5492
  558MOL0     C75249   5.932   4.102   8.172  0.0693 -0.5333  0.3476
  558MOL0     C75250   5.793   3.764   7.949 -0.2882  0.1659  0.0497
  558MOL0     C75251   5.661   3.725   7.986 -0.6450  0.4704  0.6042
  558MOL0     C75252   5.584   3.661   7.884 -0.2552  0.1786 -0.1649
  558MOL0     C75253   5.641   3.620   7.764  0.5153  1.1234  0.4762
  558MOL0     O75254   5.565   3.545   7.668 -0.6169 -0.8186  0.2367
  558MOL0     C75255   5.637   3.496   7.552  0.2042  0.3010  0.1483
  558MOL0     C75256   5.571   3.364   7.487  0.8485  0.3064 -0.3354
  558MOL0     C75257   5.507   3.262   7.582  0.1963  0.0295  0.1952
  558MOL0     C75258   5.619   3.190   7.665  0.2149 -0.4171  0.3662
  558MOL0     C75259   5.585   3.061   7.723  0.0491  0.3510 -0.3070
  558MOL0     C75260   5.559   2.966   7.789  0.1259  0.5445 -0.0638
  558MOL0     C75261   5.774   3.655   7.745  0.4911 -0.6436 -0.1663
  558MOL0     C75262   5.849   3.729   7.826  0.3442 -0.2813  0.0907
  558MOL0     H75263   5.964   3.835   8.372  0.5398 -0.0672  1.2312
  558MOL0     H75264   6.112   3.986   8.484  0.8258  1.7713 -0.5639
  558MOL0     H75265   6.209   4.376   8.276 -0.3428 -2.4547 -0.4007
  558MOL0     H75266   6.081   4.430   8.384  0.3814 -0.4242 -1.6542
  558MOL0     H75267   6.282   4.543   8.414  0.4979 -1.0548 -2.0291
  558MOL0     H75268   6.205   4.469   8.566 -1.9255  1.3615 -1.6641
  558MOL0     H75269   6.376   4.268   8.535  0.8055 -0.1281  0.3019
  558MOL0     H75270   6.459   4.358   8.410 -0.0744 -0.9637 -0.6357
  558MOL0     H75271   6.438   4.551   8.634  1.6473  0.0092  1.6018
  558MOL0     H75272   6.484   4.393   8.697  0.0945 -1.4171 -1.4424
  558MOL0     H75273   6.658   4.388   8.523 -2.5350 -1.2601 -0.1621
  558MOL0     H75274   6.632   4.550   8.491  1.4694  0.0242  0.3278
  558MOL0     H75275   6.646   4.624   8.709 -3.1600 -1.1615 -2.4880
  558MOL0     H75276   6.678   4.467   8.777  0.1820 -2.4984 -1.3157
  558MOL0     H75277   6.873   4.622   8.581  0.4262  2.1533  2.0335
  558MOL0     H75278   6.878   4.614   8.757 -4.9890  2.9334  0.1717
  558MOL0     H75279   6.873   4.372   8.567 -0.0324 -5.6582  3.9149
  558MOL0     H75280   6.913   4.360   8.737  0.9285  3.1027  1.6652
  558MOL0     H75281   7.157   4.485   8.806 -1.2348 -4.0336  0.2200
  558MOL0     H75282   7.421   4.667   8.626  2.2331 -1.1217 -1.3426
  558MOL0     H75283   7.399   4.563   8.759 -2.7205  2.5167 -0.1641
  558MOL0     H75284   7.490   4.431   8.499 -0.8670  2.2131 -0.3472
  558MOL0     H75285   7.491   4.365   8.654  0.4892 -1.5667 -1.7196
  558MOL0     H75286   7.656   4.523   8.745 -1.1337  0.8398 -0.7615
  558MOL0     H75287   7.654   4.603   8.583 -2.1630  0.2099 -0.9233
  558MOL0     H75288   7.752   4.328   8.654 -1.3723 -1.3918 -0.3548
  558MOL0     H75289   7.857   4.462   8.608 -2.1975  6.2597  0.7178
  558MOL0     H75290   7.736   4.309   8.213 -0.9700 -0.6021  2.0830
  558MOL0     H75291   7.930   4.412   7.930 -0.2748  2.9101 -1.5531
  558MOL0     H75292   7.784   4.319   7.977 -0.4000  1.7714 -1.6436
  558MOL0     H75293   7.760   4.481   7.924 -2.5436  0.3518  2.2548
  558MOL0     H75294   8.011   4.853   7.794 -2.5830  1.0367  0.9662
  558MOL0     H75295   8.166   5.047   7.691 -2.6330 -0.5625 -0.6583
  558MOL0     H75296   8.408   5.223   7.954 -2.9461 -0.5005  0.2685
  558MOL0     H75297   8.458   5.291   7.793 -0.2390  1.9283 -0.1875
  558MOL0     H75298   8.336   5.497   7.831  0.8227 -2.7820 -1.9240
  558MOL0     H75299   8.273   5.438   7.987  1.1731 -0.3507  1.9397
  558MOL0     H75300   8.562   5.498   7.909 -2.1141 -2.8657 -3.3479
  558MOL0     H75301   8.529   5.402   8.052 -1.4450 -2.5218 -2.0063
  558MOL0     H75302   8.497   5.709   7.988  1.5180 -1.8037 -1.8176
  558MOL0     H75303   8.381   5.636   8.095 -1.8598 -1.9433 -3.3474
  558MOL0     H75304   8.685   5.616   8.162 -0.8641 -3.0088 -0.5379
  558MOL0     H75305   8.551   5.575   8.251 -0.4527 -2.0233 -2.2296
  558MOL0     H75306   8.644   5.859   8.168  2.9734 -3.0706 -0.4479
  558MOL0     H75307   8.474   5.845   8.231 -0.4349  0.6858  0.3521
  558MOL0     H75308   8.741   5.847   8.357  0.0231  1.4024 -1.2625
  558MOL0     H75309   8.618   5.734   8.424 -0.5994  0.8584  2.5827
  558MOL0     H75310   8.647   5.979   8.520  1.9349  1.6481 -2.8441
  558MOL0     H75311   8.477   5.934   8.475 -0.5252  0.6086  0.5032
  558MOL0     H75312   8.211   5.202   8.076  1.4402 -1.3673 -1.1135
  558MOL0     H75313   8.094   5.004   8.172  2.2460 -3.3105  0.8323
  558MOL0     H75314   7.978   4.738   8.294  1.8864 -0.6127  3.2852
  558MOL0     H75315   7.875   4.622   8.478  0.2331 -0.2545  0.4180
  558MOL0     H75316   6.009   4.297   8.202 -0.6405 -0.2861  1.8375
  558MOL0     H75317   5.888   4.125   8.075 -0.7300 -0.2956  0.7617
  558MOL0     H75318   5.625   3.755   8.084  2.4136 -4.1622  3.5467
  558MOL0     H75319   5.485   3.624   7.909  0.1955  1.0221  3.5702
  558MOL0     H75320   5.636   3.579   7.481 -1.0080  0.9874  0.9241
  558MOL0     H75321   5.743   3.472   7.554  0.1674  0.1345  0.1646
  558MOL0     H75322   5.642   3.316   7.418  4.0667  2.3784  1.2795
  558MOL0     H75323   5.483   3.401   7.434  0.2563  1.4552  1.3731
  558MOL0     H75324   5.450   3.188   7.524 -0.3405 -0.5187  1.4026
  558MOL0     H75325   5.442   3.325   7.642 -0.1781  0.2671 -0.4553
  558MOL0     H75326   5.640   3.257   7.748 -0.6222  0.3529 -0.0241
  558MOL0     H75327   5.709   3.169   7.606 -0.7515  1.1336 -1.8160
  558MOL0     H75328   5.554   2.894   7.868  0.4089  0.3817 -0.1950
  558MOL0     H75329   5.828   3.617   7.659  0.1452 -1.8293  0.1155
  558MOL0     H75330   5.954   3.754   7.813 -0.1186  1.6101 -0.3410
  559MOL0     O75331   2.951  10.019  11.206 -0.3657 -0.3528 -0.4465
  559MOL0     C75332   2.832  10.018  11.234 -1.1133 -0.4531 -0.3055
  559MOL0     O75333   2.737   9.948  11.166 -0.0607 -0.2078 -0.2724
  559MOL0     C75334   2.770   9.876  11.055 -0.4842  0.0742  0.2015
  559MOL0     C75335   2.854   9.769  11.067 -0.8391  0.3536 -0.3881
  559MOL0     C75336   2.860   9.678  10.962  0.2744  0.0918 -0.6590
  559MOL0     C75337   2.783   9.688  10.842 -0.5523 -0.4006 -0.1275
  559MOL0     O75338   2.799   9.598  10.748  0.1770  0.0634 -0.1652
  559MOL0     C75339   2.815   9.639  10.608 -0.4628  0.8831  0.3880
  559MOL0     C75340   2.937   9.721  10.571 -0.2266  0.1531 -0.3870
  559MOL0     C75341   3.065   9.675  10.643  0.2750 -0.6456  0.5442
  559MOL0     C75342   3.171   9.634  10.547 -1.1958 -0.3057  0.6865
  559MOL0     C75343   3.260   9.747  10.517 -0.7255  0.2868  0.2281
  559MOL0     C75344   3.351   9.723  10.393  0.3928  1.3107 -0.0580
  559MOL0     C75345   3.453   9.605  10.425  0.6353 -0.7596  0.1790
  559MOL0     C75346   3.562   9.597  10.319 -0.1018 -0.6961 -0.0981
  559MOL0     N75347   3.675   9.502  10.364  0.3049  0.5084 -0.4987
  559MOL0     C75348   3.677   9.372  10.332 -0.5734  0.1768 -0.2557
  559MOL0     C75349   3.790   9.322  10.395  0.1903  0.4534  0.4506
  559MOL0     C75350   3.838   9.180  10.396 -0.4918  0.1991  0.1389
  559MOL0     C75351   3.948   9.163  10.297 -0.3832  0.8596  0.4253
  559MOL0     C75352   4.020   9.027  10.279  0.6187  0.7772 -0.3833
  559MOL0     C75353   4.123   9.037  10.177 -0.4879  0.1620  0.6085
  559MOL0     O75354   4.058   9.056  10.048 -0.0602  0.4433  0.6850
  559MOL0     C75355   4.145   9.074   9.944 -0.5044  0.1716 -0.3366
  559MOL0     C75356   4.286   9.042   9.948 -0.4991  0.3225  0.6441
  559MOL0     C75357   4.380   9.084   9.858  0.1089  0.4543  1.3241
  559MOL0     C75358   4.519   9.044   9.873  0.2043 -0.3365  0.8809
  559MOL0     C75359   4.330   9.153   9.736  0.1856 -1.2742  0.4331
  559MOL0     C75360   4.412   9.195   9.620  0.5101 -1.6255 -0.0964
  559MOL0     O75361   4.540   9.241   9.645 -0.4373  1.0774 -0.6790
  559MOL0     C75362   4.639   9.205   9.555  0.1928 -0.3962 -0.0875
  559MOL0     C75363   4.736   9.103   9.582  0.2978 -0.0269  0.1218
  559MOL0     C75364   4.826   9.061   9.486 -0.6425 -0.1213 -0.4606
  559MOL0     C75365   4.830   9.117   9.356  0.0677 -0.0666 -0.8897
  559MOL0     O75366   4.932   9.090   9.261  0.1500  0.1052  0.1420
  559MOL0     C75367   5.052   9.022   9.298  0.2763  0.7969 -0.1650
  559MOL0     C75368   5.111   8.979   9.164 -0.3236 -0.5681 -0.5401
  559MOL0     C75369   5.169   9.081   9.069  0.6649 -0.7570 -0.5036
  559MOL0     C75370   5.308   9.128   9.115 -0.1352 -0.5019  0.5368
  559MOL0     C75371   5.386   9.181   8.991 -1.0069 -0.4959 -0.0323
  559MOL0     C75372   5.532   9.191   9.017  0.1501  0.7468 -0.0298
  559MOL0     C75373   5.599   9.057   8.984  0.0619 -0.1563  0.9425
  559MOL0     C75374   5.744   9.065   9.003  0.1921  0.1792 -0.5956
  559MOL0    Cl75375   5.818   9.229   8.976 -0.4407  0.3040 -0.2373
  559MOL0     C75376   4.734   9.224   9.339 -0.2525 -0.6732 -0.0004
  559MOL0     C75377   4.639   9.266   9.429  0.7337  0.3085 -0.2279
  559MOL0     O75378   4.373   9.178   9.506 -0.1759 -0.5206 -0.9623
  559MOL0     C75379   4.187   9.156   9.720 -0.1897 -0.3356 -0.0725
  559MOL0     C75380   4.099   9.127   9.824  0.5223 -0.2597  1.0847
  559MOL0     N75381   3.847   9.428  10.462  0.3090 -0.1609 -0.6780
  559MOL0     N75382   3.776   9.533  10.444  0.0737 -0.0684  1.0084
  559MOL0     C75383   2.706   9.801  10.834 -0.2336  0.8567  0.0921
  559MOL0     C75384   2.689   9.883  10.934  0.2903 -0.5482 -0.4767
  559MOL0     C75385   2.800  10.083  11.357 -0.3499  0.3592  0.9226
  559MOL0     C75386   2.672  10.073  11.406 -0.7733  0.0369  0.4926
  559MOL0     C75387   2.632  10.155  11.514  0.4218  0.4960 -0.4060
  559MOL0     C75388   2.727  10.227  11.583  0.3612  0.6098  0.3077
  559MOL0     O75389   2.679  10.305  11.680 -0.1996 -0.2488 -0.1518
  559MOL0     C75390   2.768  10.393  11.748  0.5948 -0.1504 -0.5578
  559MOL0     C75391   2.842  10.323  11.862  0.3903 -0.4695  0.6531
  559MOL0     C75392   2.914  10.407  11.958 -0.0420 -0.5099 -0.1333
  559MOL0     C75393   2.951  10.323  12.080 -1.2418  0.1434 -0.1271
  559MOL0     C75394   3.040  10.405  12.169  0.6634  0.2866 -0.2931
  559MOL0     C75395   3.132  10.468  12.220 -0.0349  1.1813 -0.1643
  559MOL0     C75396   2.861  10.226  11.542 -0.6151  0.1187 -0.4592
  559MOL0     C75397   2.898  10.154  11.428  0.4204 -0.1909  0.0455
  559MOL0     H75398   2.927   9.756  11.147 -0.6112  0.8631 -0.5097
  559MOL0     H75399   2.913   9.584  10.976 -0.7603 -0.5508 -0.8796
  559MOL0     H75400   2.821   9.545  10.553 -0.4615  0.6865  0.7203
  559MOL0     H75401   2.735   9.702  10.570 -0.4202 -0.5950 -2.3955
  559MOL0     H75402   2.943   9.731  10.462 -1.6608  1.7795 -0.3407
  559MOL0     H75403   2.924   9.824  10.604  0.2140 -0.1096  0.6476
  559MOL0     H75404   3.093   9.765  10.699  2.7553 -0.4003 -0.9296
  559MOL0     H75405   3.054   9.598  10.719  0.4083  0.1250  1.3619
  559MOL0     H75406   3.238   9.561  10.594  0.6986  0.4862 -0.6367
  559MOL0     H75407   3.131   9.598  10.452  0.8563  0.2350 -0.4489
  559MOL0     H75408   3.210   9.839  10.483  0.1656  0.0923 -1.7879
  559MOL0     H75409   3.321   9.769  10.605 -1.2901  2.5612  0.1264
  559MOL0     H75410   3.295   9.686  10.307 -0.7877  3.3873 -0.2744
  559MOL0     H75411   3.394   9.819  10.362 -1.3512  2.2178  0.1746
  559MOL0     H75412   3.492   9.635  10.523 -1.2129  1.2005  0.4021
  559MOL0     H75413   3.415   9.503  10.431  2.0954 -1.4114 -1.0337
  559MOL0     H75414   3.590   9.694  10.277 -1.1690  0.7234  2.2766
  559MOL0     H75415   3.526   9.553  10.226 -0.8653  0.4387 -0.3612
  559MOL0     H75416   3.610   9.316  10.267  0.0941  2.5946 -3.2707
  559MOL0     H75417   3.860   9.151  10.499 -1.2002 -2.1647 -0.3288
  559MOL0     H75418   3.754   9.122  10.356  0.1084 -0.2127 -0.5585
  559MOL0     H75419   4.026   9.233  10.328  1.1789 -1.1650  1.3464
  559MOL0     H75420   3.920   9.196  10.197  0.2878 -2.1762 -0.8762
  559MOL0     H75421   3.949   8.951  10.243  1.5367  1.8500 -5.1724
  559MOL0     H75422   4.065   8.989  10.371  1.6748 -0.3152 -1.3269
  559MOL0     H75423   4.189   8.950  10.180  0.2145  0.5197 -2.0821
  559MOL0     H75424   4.191   9.121  10.193  1.6962 -1.5602  0.9557
  559MOL0     H75425   4.312   8.968  10.023  1.6900 -0.7012 -1.0058
  559MOL0     H75426   4.514   8.951   9.931  3.7930 -0.6022  1.0021
  559MOL0     H75427   4.580   9.015   9.787  1.6860  0.4674  1.6321
  559MOL0     H75428   4.579   9.120   9.923  0.9460  0.7863 -1.6010
  559MOL0     H75429   4.742   9.066   9.684  1.1163  2.1438  0.9168
  559MOL0     H75430   4.902   8.995   9.527 -2.6420  0.5700  5.1986
  559MOL0     H75431   5.113   9.090   9.358  0.5771  2.6159 -2.4190
  559MOL0     H75432   5.034   8.931   9.357  0.2870  1.4518  0.8768
  559MOL0     H75433   5.185   8.905   9.195 -2.2256 -2.3431 -0.0151
  559MOL0     H75434   5.034   8.921   9.112  0.2636 -3.5330  1.6335
  559MOL0     H75435   5.106   9.169   9.062 -2.7068 -3.1614 -3.8416
  559MOL0     H75436   5.180   9.030   8.973  0.5958 -0.7147 -0.5329
  559MOL0     H75437   5.321   9.210   9.187  1.0500  0.2264 -0.4556
  559MOL0     H75438   5.360   9.047   9.168  1.5464 -0.2305 -0.6073
  559MOL0     H75439   5.342   9.280   8.977 -3.4884 -0.9424  3.4807
  559MOL0     H75440   5.359   9.119   8.905  0.5215 -0.8955 -0.2456
  559MOL0     H75441   5.587   9.265   8.957  0.7700 -0.2023 -0.6579
  559MOL0     H75442   5.540   9.216   9.123 -0.3254  1.6295 -0.1871
  559MOL0     H75443   5.592   9.023   8.880  0.9631 -0.1656  0.8808
  559MOL0     H75444   5.556   8.991   9.061 -0.7066  0.9004  1.4445
  559MOL0     H75445   5.788   8.991   8.936  0.1648 -0.9102  0.5615
  559MOL0     H75446   5.766   9.035   9.106 -3.1121  0.7869  0.4012
  559MOL0     H75447   4.736   9.279   9.246 -1.8350 -0.2566  0.1890
  559MOL0     H75448   4.575   9.353   9.416  3.6117  3.0872  2.4027
  559MOL0     H75449   4.153   9.206   9.630  0.7851  1.5868  0.5558
  559MOL0     H75450   3.994   9.146   9.804  1.0794  0.4552 -1.4544
  559MOL0     H75451   2.638   9.808  10.749 -0.8275 -2.0413  0.2066
  559MOL0     H75452   2.606   9.953  10.937  0.0426 -0.8729  0.7869
  559MOL0     H75453   2.614  10.000  11.350  2.1407 -0.7618 -1.7916
  559MOL0     H75454   2.532  10.152  11.558  0.2930 -2.3154 -0.6608
  559MOL0     H75455   2.827  10.455  11.680  0.3839  0.5271 -0.1397
  559MOL0     H75456   2.702  10.459  11.806 -0.8253 -0.5792 -1.6259
  559MOL0     H75457   2.915  10.260  11.810  0.0818  0.1371 -0.5499
  559MOL0     H75458   2.761  10.264  11.905 -2.3756  2.9644  0.5964
  559MOL0     H75459   2.859  10.497  11.986  0.0696 -0.1647 -0.9978
  559MOL0     H75460   3.005  10.435  11.905 -2.1276  1.2645 -3.0456
  559MOL0     H75461   3.001  10.230  12.051 -1.4292  0.8998 -3.1655
  559MOL0     H75462   2.861  10.297  12.136 -2.1243  3.4386  0.1705
  559MOL0     H75463   3.215  10.515  12.269  0.8550 -1.3981  0.9648
  559MOL0     H75464   2.943  10.272  11.596 -0.2223 -1.9943  0.8601
  559MOL0     H75465   2.999  10.163  11.390  0.0254  3.8203 -0.4987
  560MOL0     O75466   4.077  10.918   9.465  0.1439 -0.3883 -0.5552
  560MOL0     C75467   4.050  10.916   9.584 -0.4522  0.2246  0.2438
  560MOL0     O75468   3.935  10.856   9.632 -0.0559  0.4789  0.9950
  560MOL0     C75469   3.834  10.844   9.537 -0.1658 -0.1015  0.1929
  560MOL0     C75470   3.762  10.955   9.505 -0.4367 -0.8166 -0.3006
  560MOL0     C75471   3.655  10.949   9.420 -1.6482 -0.2661  0.8721
  560MOL0     C75472   3.629  10.838   9.354 -0.5160 -0.5983  1.0436
  560MOL0     O75473   3.522  10.831   9.272  0.0782  0.2450 -0.4726
  560MOL0     C75474   3.522  10.769   9.142  0.5344  0.8810 -0.2234
  560MOL0     C75475   3.380  10.770   9.082 -1.7235  1.0326 -0.5074
  560MOL0     C75476   3.279  10.669   9.137 -0.6977  0.7199 -0.0475
  560MOL0     C75477   3.303  10.519   9.090 -0.8851  0.9207 -0.0981
  560MOL0     C75478   3.194  10.433   9.150  0.2610 -0.0722 -0.1679
  560MOL0     C75479   3.042  10.464   9.101  0.5225  0.4920 -0.6306
  560MOL0     C75480   2.919  10.387   9.161 -0.6171 -0.2073 -0.4529
  560MOL0     C75481   2.783  10.402   9.100  0.3451  0.0591  0.3916
  560MOL0     N75482   2.758  10.314   8.983 -0.0225  0.8971  0.2201
  560MOL0     C75483   2.650  10.228   8.976 -0.2623  0.1850 -0.1079
  560MOL0     C75484   2.647  10.178   8.846 -0.0564  0.5781 -0.3673
  560MOL0     C75485   2.541  10.104   8.775 -0.3389  0.1147 -0.4023
  560MOL0     C75486   2.475   9.986   8.852 -0.5472  0.6100  0.0821
  560MOL0     C75487   2.349  10.032   8.921 -0.5273 -0.4462  0.5115
  560MOL0     C75488   2.284   9.918   9.002 -0.9112  0.3818  0.5362
  560MOL0     O75489   2.161   9.959   9.065 -1.0303  0.7827  0.3821
  560MOL0     C75490   2.059   9.995   8.987 -0.3602 -0.9117  0.2274
  560MOL0     C75491   2.024   9.938   8.868  0.8491 -0.2677  0.9032
  560MOL0     C75492   1.905   9.976   8.789 -1.0175  0.3542 -0.3664
  560MOL0     C75493   1.863   9.887   8.681 -0.0757 -0.1210  0.5425
  560MOL0     C75494   1.837  10.087   8.831  0.4906  0.1831  0.3933
  560MOL0     C75495   1.702  10.115   8.771  0.1450  0.7216  0.4636
  560MOL0     O75496   1.687  10.118   8.637  0.0439 -0.4269 -0.4326
  560MOL0     C75497   1.557  10.123   8.588 -0.2344 -0.0241  0.1696
  560MOL0     C75498   1.472  10.229   8.610 -0.0537 -0.0035  0.4325
  560MOL0     C75499   1.356  10.239   8.538  0.0062 -0.8129 -0.4473
  560MOL0     C75500   1.307  10.134   8.459  0.1774  0.8775  0.2896
  560MOL0     O75501   1.181  10.116   8.403 -0.3637  0.3897  0.2657
  560MOL0     C75502   1.171  10.139   8.262  0.0461  0.5608  0.2272
  560MOL0     C75503   1.028  10.122   8.211 -0.0660 -0.2076  0.5436
  560MOL0     C75504   0.949  10.248   8.218 -0.0083 -0.4766 -0.0993
  560MOL0     C75505   0.806  10.224   8.166 -0.5806  0.3003  0.0395
  560MOL0     C75506   0.756  10.366   8.133 -0.2022  0.8714 -0.9169
  560MOL0     C75507   0.617  10.347   8.090  0.6253  0.8622  0.7827
  560MOL0     C75508   0.555  10.484   8.046  0.9183  0.2866  0.2638
  560MOL0     C75509   0.414  10.454   8.006  0.4794 -0.2560  0.2100
  560MOL0    Cl75510   0.311  10.426   8.156 -0.5409  0.0461 -0.3084
  560MOL0     C75511   1.399  10.026   8.442 -1.3374 -1.0537 -0.1187
  560MOL0     C75512   1.522  10.018   8.506 -0.1858 -0.0371  0.3440
  560MOL0     O75513   1.616  10.127   8.857  0.5235  0.5121  0.5349
  560MOL0     C75514   1.879  10.151   8.946  0.2161  0.1392 -0.7552
  560MOL0     C75515   1.982  10.106   9.027  1.0982 -0.1437  0.3032
  560MOL0     N75516   2.773  10.221   8.791  0.1626  0.4969 -0.1042
  560MOL0     N75517   2.834  10.301   8.872  0.2136  0.6174  0.2182
  560MOL0     C75518   3.702  10.725   9.386 -0.2151 -0.0355 -0.0249
  560MOL0     C75519   3.795  10.723   9.482 -0.4566 -0.1603 -0.4431
  560MOL0     C75520   4.132  10.984   9.680  0.9625  0.1498  0.5293
  560MOL0     C75521   4.261  11.003   9.644  0.7075  0.7909  0.9964
  560MOL0     C75522   4.344  11.068   9.729  0.4572  0.1382 -0.6405
  560MOL0     C75523   4.301  11.107   9.856 -1.1815  0.2577 -0.4734
  560MOL0     O75524   4.370  11.182   9.951 -0.1476 -0.6204  0.0212
  560MOL0     C75525   4.501  11.241   9.922  0.8022 -0.4641 -0.5070
  560MOL0     C75526   4.525  11.352  10.021 -0.3807  0.1214  0.0035
  560MOL0     C75527   4.560  11.298  10.163 -0.3762  0.1729 -0.5651
  560MOL0     C75528   4.587  11.425  10.258  1.3003 -0.7169  0.8943
  560MOL0     C75529   4.469  11.517  10.275  0.5257  0.1998 -0.3356
  560MOL0     C75530   4.382  11.604  10.287  0.8125 -0.3913  0.2161
  560MOL0     C75531   4.163  11.087   9.893 -0.2293  0.1330 -0.7053
  560MOL0     C75532   4.078  11.018   9.809  1.2492 -0.0000 -0.4854
  560MOL0     H75533   3.795  11.043   9.561  4.0795 -2.3928 -0.0483
  560MOL0     H75534   3.630  11.050   9.391  2.1476  0.0768 -1.9768
  560MOL0     H75535   3.594  10.819   9.076 -1.2591  2.3941 -1.1299
  560MOL0     H75536   3.564  10.669   9.156  0.8137  0.9868 -0.2893
  560MOL0     H75537   3.350  10.875   9.087 -4.4670  0.6985 -4.7650
  560MOL0     H75538   3.389  10.757   8.973  0.7370  1.1175 -0.3641
  560MOL0     H75539   3.282  10.681   9.245  0.8944  0.3407 -0.0235
  560MOL0     H75540   3.183  10.690   9.090 -1.3332 -1.5124  0.1263
  560MOL0     H75541   3.307  10.510   8.981  0.7880 -4.3098  0.1221
  560MOL0     H75542   3.403  10.497   9.129  0.3431  1.2782 -2.7645
  560MOL0     H75543   3.217  10.330   9.120  0.0831  0.1321 -1.0562
  560MOL0     H75544   3.199  10.434   9.259  4.6271 -1.5430 -0.1509
  560MOL0     H75545   3.019  10.570   9.117  2.2366  0.9786 -1.1471
  560MOL0     H75546   3.049  10.441   8.994  2.2531  1.3704 -0.7464
  560MOL0     H75547   2.928  10.278   9.153 -1.0980 -0.5179  2.5007
  560MOL0     H75548   2.914  10.414   9.266  2.3548 -0.4267 -0.1486
  560MOL0     H75549   2.778  10.506   9.066 -0.3115  0.1517  0.7553
  560MOL0     H75550   2.705  10.374   9.170 -1.2961 -3.7049 -2.6002
  560MOL0     H75551   2.567  10.210   9.043 -0.8783  0.3886 -0.8064
  560MOL0     H75552   2.475  10.183   8.739  2.3369  2.0209 -1.5103
  560MOL0     H75553   2.584  10.072   8.679 -0.9059  0.6463 -0.8408
  560MOL0     H75554   2.549   9.946   8.921 -1.2215  1.4516  1.3228
  560MOL0     H75555   2.448   9.908   8.779 -0.1167 -1.7473  2.2982
  560MOL0     H75556   2.273  10.070   8.851  0.0440 -0.7549 -0.2930
  560MOL0     H75557   2.372  10.112   8.992  3.1555 -2.5517  1.9591
  560MOL0     H75558   2.364   9.892   9.072  0.9138 -1.2076 -1.9527
  560MOL0     H75559   2.264   9.830   8.940  0.9607  1.2556 -1.4276
  560MOL0     H75560   2.087   9.866   8.818  1.1873  1.7280 -1.7534
  560MOL0     H75561   1.758   9.860   8.670 -0.3804  0.6428  1.4436
  560MOL0     H75562   1.893   9.925   8.582  0.1362 -1.9207 -0.1306
  560MOL0     H75563   1.925   9.797   8.686  0.7099  0.3443 -0.2973
  560MOL0     H75564   1.509  10.307   8.676 -1.9386  2.4151 -1.1880
  560MOL0     H75565   1.297  10.329   8.549  1.0467  0.0086 -1.3722
  560MOL0     H75566   1.199  10.243   8.245 -1.2552  1.7666  4.4048
  560MOL0     H75567   1.238  10.075   8.203 -2.6785  0.6208 -3.1932
  560MOL0     H75568   1.050  10.093   8.107  0.2802 -0.5535  0.7101
  560MOL0     H75569   0.982  10.031   8.250 -1.0676 -0.3315 -0.8425
  560MOL0     H75570   1.004  10.324   8.162 -1.4919 -0.6380 -1.8477
  560MOL0     H75571   0.952  10.283   8.322 -0.4613 -0.6190 -0.0375
  560MOL0     H75572   0.805  10.170   8.070  2.2321  3.1487 -1.7947
  560MOL0     H75573   0.749  10.183   8.249 -1.0653 -0.1287 -0.4954
  560MOL0     H75574   0.814  10.423   8.061 -1.0029  0.8830 -1.5680
  560MOL0     H75575   0.752  10.424   8.226 -0.2473  2.9429 -2.1566
  560MOL0     H75576   0.610  10.278   8.006  2.0265 -0.3280  1.5891
  560MOL0     H75577   0.556  10.313   8.174 -2.1001  0.4978 -1.2419
  560MOL0     H75578   0.603  10.511   7.952 -0.1456 -1.0744 -0.7092
  560MOL0     H75579   0.555  10.569   8.116  0.7685 -0.1225  0.7620
  560MOL0     H75580   0.417  10.363   7.945  3.3704  2.4661 -4.3768
  560MOL0     H75581   0.361  10.538   7.960  3.4364  2.6052  1.6110
  560MOL0     H75582   1.371   9.942   8.379 -0.1116 -0.0504 -2.1116
  560MOL0     H75583   1.577   9.926   8.488 -2.0837 -1.2982  0.7062
  560MOL0     H75584   1.816  10.227   8.990 -0.4142  1.1051 -3.1439
  560MOL0     H75585   2.003  10.148   9.125  3.5303  3.5376 -1.5454
  560MOL0     H75586   3.678  10.627   9.346 -1.5113 -0.0804  0.8132
  560MOL0     H75587   3.846  10.631   9.506 -3.4052 -1.3044  2.3374
  560MOL0     H75588   4.303  10.974   9.548 -1.9294  1.6372 -0.5048
  560MOL0     H75589   4.448  11.091   9.708  1.4831 -3.2552  0.1320
  560MOL0     H75590   4.585  11.175   9.944  2.9675  2.0688 -0.7319
  560MOL0     H75591   4.496  11.284   9.822  0.6039  2.8625  0.7734
  560MOL0     H75592   4.438  11.417  10.031 -1.1493 -1.1100  2.3082
  560MOL0     H75593   4.616  11.408   9.997 -0.8034 -0.1989 -2.5375
  560MOL0     H75594   4.647  11.233  10.175 -0.9036 -0.1409  2.1071
  560MOL0     H75595   4.479  11.244  10.213  1.4008  0.4813  2.8669
  560MOL0     H75596   4.668  11.477  10.206 -0.2635 -0.9445 -1.9805
  560MOL0     H75597   4.614  11.379  10.353 -0.0865  0.4143  1.8856
  560MOL0     H75598   4.303  11.676  10.298  2.0072  1.0785 -0.3576
  560MOL0     H75599   4.135  11.137   9.985  0.8542  1.7738 -1.2207
  560MOL0     H75600   3.971  11.004   9.818  1.0389  1.5316 -0.2777
  561MOL0     O75601   7.968   0.883   4.038  0.2957 -0.9504  1.1407
  561MOL0     C75602   7.853   0.899   3.985  0.7387  0.0690  0.5704
  561MOL0     O75603   7.823   0.891   3.858 -0.5539 -0.2959  0.7046
  561MOL0     C75604   7.934   0.884   3.780 -0.1251  1.2189 -0.5401
  561MOL0     C75605   7.967   0.768   3.716  0.8481  0.5828 -0.2837
  561MOL0     C75606   8.074   0.755   3.625  0.0971 -0.7760 -0.6775
  561MOL0     C75607   8.163   0.867   3.616  0.2786  0.2086  0.8849
  561MOL0     O75608   8.287   0.859   3.555  0.0170  0.6308  1.0749
  561MOL0     C75609   8.274   0.907   3.425 -0.0012  0.0438 -0.7779
  561MOL0     C75610   8.384   0.834   3.346 -0.0609 -0.2163 -0.5186
  561MOL0     C75611   8.524   0.886   3.368 -0.5330 -0.8030 -1.3282
  561MOL0     C75612   8.635   0.841   3.264 -0.0518  0.0776 -0.8992
  561MOL0     C75613   8.782   0.883   3.304  0.2043  0.5644  0.1335
  561MOL0     C75614   8.894   0.840   3.208 -0.2726 -0.4275 -0.0313
  561MOL0     C75615   8.889   0.881   3.056 -0.0524  0.6671  0.7875
  561MOL0     C75616   8.982   0.980   3.004  0.0501 -0.2795 -0.3572
  561MOL0     N75617   9.115   0.927   2.969  0.0683 -0.0018  0.1146
  561MOL0     C75618   9.233   0.974   3.026 -0.1703 -0.7354  0.3701
  561MOL0     C75619   9.325   0.924   2.946  0.0364  0.3818 -0.1235
  561MOL0     C75620   9.470   0.953   2.939 -0.1464  0.5969 -0.2357
  561MOL0     C75621   9.538   0.935   3.075 -0.1698  0.2384  0.7713
  561MOL0     C75622   9.691   0.979   3.084 -0.3426  0.3774 -1.1030
  561MOL0     C75623   9.772   0.880   3.001 -0.6440  0.2407  0.6179
  561MOL0     O75624   9.909   0.901   3.032  0.6719  0.6679  0.4416
  561MOL0     C75625   9.969   1.014   2.995  0.3182  0.0446  0.8536
  561MOL0     C75626   9.974   1.130   3.081 -0.2079  0.4331  0.8503
  561MOL0     C75627  10.041   1.247   3.040 -0.1424 -1.2390 -0.6593
  561MOL0     C75628  10.047   1.359   3.154  0.4391 -0.7108 -0.6395
  561MOL0     C75629  10.112   1.261   2.911  0.6042  0.3412  0.0257
  561MOL0     C75630  10.199   1.377   2.872  0.5070  0.4090  0.2685
  561MOL0     O75631  10.253   1.366   2.744  0.4306  0.4821  0.4475
  561MOL0     C75632  10.348   1.439   2.677  0.3639  0.6798  0.1013
  561MOL0     C75633  10.419   1.532   2.735  0.3736 -0.4633  0.1389
  561MOL0     C75634  10.509   1.608   2.667 -0.4225  0.1102 -0.2461
  561MOL0     C75635  10.542   1.580   2.535 -0.0661 -0.2523 -0.9606
  561MOL0     O75636  10.613   1.665   2.456 -0.1981 -0.2905 -0.2215
  561MOL0     C75637  10.626   1.806   2.478 -0.2874  0.4220  0.4014
  561MOL0     C75638  10.773   1.844   2.485  0.2790  0.3689  0.0028
  561MOL0     C75639  10.787   1.993   2.504 -0.1170 -1.0684 -0.0407
  561MOL0     C75640  10.936   2.018   2.473 -0.5185 -0.5304  0.0750
  561MOL0     C75641  10.952   2.150   2.399 -0.3255  0.6798  0.1772
  561MOL0     C75642  11.093   2.179   2.355  0.1736 -0.3840  0.5832
  561MOL0     C75643  11.125   2.324   2.317 -0.7161  0.5976  0.8199
  561MOL0     C75644  11.260   2.330   2.229  0.6277  1.0803 -0.5065
  561MOL0    Cl75645  11.257   2.284   2.062 -0.0464 -0.2333  0.0823
  561MOL0     C75646  10.470   1.473   2.479 -0.7609 -0.4016  0.1017
  561MOL0     C75647  10.376   1.406   2.548  0.1750  0.7720  0.9368
  561MOL0     O75648  10.219   1.464   2.955 -0.2443 -0.2794  0.5033
  561MOL0     C75649  10.095   1.147   2.826  0.2848 -0.4242  0.2475
  561MOL0     C75650  10.031   1.032   2.870  0.1829  0.3398  0.5542
  561MOL0     N75651   9.260   0.824   2.861 -1.1824  0.0361 -0.0870
  561MOL0     N75652   9.134   0.838   2.865  0.3970  0.6456 -0.1616
  561MOL0     C75653   8.141   0.977   3.690 -0.2102 -0.7634 -0.5359
  561MOL0     C75654   8.030   0.995   3.769  1.8788  0.4741 -0.9753
  561MOL0     C75655   7.745   0.924   4.080  0.1591 -0.9068 -0.9817
  561MOL0     C75656   7.614   0.938   4.033 -0.4742  0.1400  0.9328
  561MOL0     C75657   7.510   0.945   4.123  0.0875 -0.7318 -0.4950
  561MOL0     C75658   7.519   0.946   4.260  0.0631 -0.1451  0.3402
  561MOL0     O75659   7.420   0.967   4.346  0.8664 -0.1679  0.6961
  561MOL0     C75660   7.316   1.070   4.319 -0.6754  0.9244  0.1904
  561MOL0     C75661   7.373   1.211   4.314 -0.3333  0.2477  0.3489
  561MOL0     C75662   7.417   1.281   4.439 -0.1974  0.8487 -0.5860
  561MOL0     C75663   7.543   1.226   4.490 -0.1548  0.6746 -1.3403
  561MOL0     C75664   7.568   1.288   4.621  0.6051  0.2699  0.1412
  561MOL0     C75665   7.571   1.303   4.739 -0.3937 -0.3445  0.6534
  561MOL0     C75666   7.651   0.948   4.308 -0.3875  0.2947  0.1346
  561MOL0     C75667   7.762   0.940   4.222  0.3684  0.3893  0.2072
  561MOL0     H75668   7.893   0.689   3.721 -0.0525  1.2431 -2.2292
  561MOL0     H75669   8.107   0.665   3.575  1.2171 -0.8607  0.1599
  561MOL0     H75670   8.177   0.883   3.380 -0.5721  0.8450 -0.0297
  561MOL0     H75671   8.287   1.015   3.414 -0.6254  0.8261  3.8360
  561MOL0     H75672   8.372   0.725   3.351 -4.8382  0.0918 -0.6790
  561MOL0     H75673   8.351   0.851   3.243 -3.1250  0.7391  0.5325
  561MOL0     H75674   8.532   0.995   3.377  1.5415 -1.0986  3.0776
  561MOL0     H75675   8.552   0.857   3.470 -2.2493 -1.6805 -1.0617
  561MOL0     H75676   8.626   0.733   3.257 -1.1080  0.0575  0.4051
  561MOL0     H75677   8.613   0.879   3.164  3.2592  0.8046 -1.4873
  561MOL0     H75678   8.775   0.991   3.320  0.1207  0.5252  0.3666
  561MOL0     H75679   8.804   0.842   3.403 -0.3988  0.6852  0.3265
  561MOL0     H75680   9.000   0.849   3.236  0.0269 -1.5299 -0.7541
  561MOL0     H75681   8.883   0.731   3.212 -0.4319 -0.3923  0.8489
  561MOL0     H75682   8.905   0.793   2.993  2.8406  3.1101 -2.2151
  561MOL0     H75683   8.792   0.926   3.030 -1.0101 -1.7919 -0.1751
  561MOL0     H75684   8.987   1.071   3.065  3.8631  2.0018 -3.5748
  561MOL0     H75685   8.958   1.023   2.906  6.5604 -0.4238 -2.5193
  561MOL0     H75686   9.245   1.054   3.098 -1.3788  1.5141 -1.7775
  561MOL0     H75687   9.513   0.878   2.872 -1.2885 -0.2890 -0.0111
  561MOL0     H75688   9.484   1.048   2.886 -0.6770  1.5644  1.3101
  561MOL0     H75689   9.527   0.832   3.110  1.8152 -0.5495 -0.7221
  561MOL0     H75690   9.490   1.009   3.140 -0.0440 -0.6348  1.8821
  561MOL0     H75691   9.726   0.970   3.187 -0.9356  4.5530 -0.3401
  561MOL0     H75692   9.710   1.080   3.045  0.3178  0.5223 -0.4262
  561MOL0     H75693   9.758   0.894   2.894  2.0392 -0.7463  0.0665
  561MOL0     H75694   9.745   0.775   3.015 -2.4869  0.8825  2.4921
  561MOL0     H75695   9.927   1.132   3.178  0.8161 -2.4890  1.5097
  561MOL0     H75696   9.998   1.449   3.115 -0.8135 -0.8807  0.4652
  561MOL0     H75697  10.003   1.321   3.247 -2.0416  1.5874 -0.7377
  561MOL0     H75698  10.149   1.389   3.179 -0.3679  1.2540  0.5377
  561MOL0     H75699  10.396   1.566   2.836 -1.6983  1.3591 -0.8511
  561MOL0     H75700  10.542   1.689   2.731  0.7444 -2.4579  2.6243
  561MOL0     H75701  10.580   1.865   2.398  3.0490  4.1109  0.8576
  561MOL0     H75702  10.580   1.840   2.571 -1.4475  2.6211 -0.8868
  561MOL0     H75703  10.815   1.789   2.570 -1.0788 -1.0857 -0.2024
  561MOL0     H75704  10.825   1.816   2.393  1.6255  0.6730  0.6549
  561MOL0     H75705  10.756   2.029   2.602  0.2087  0.9483 -0.6288
  561MOL0     H75706  10.719   2.042   2.433 -0.7190 -0.0906  1.1876
  561MOL0     H75707  10.986   2.036   2.569 -0.7655 -1.0883  0.3159
  561MOL0     H75708  10.981   1.928   2.430 -0.2302 -0.3235 -0.0618
  561MOL0     H75709  10.897   2.235   2.440 -1.7803 -0.8305  1.5345
  561MOL0     H75710  10.898   2.142   2.305  4.1875 -0.9240 -2.6190
  561MOL0     H75711  11.154   2.164   2.445  0.7876 -0.3913  0.1687
  561MOL0     H75712  11.128   2.118   2.272  0.6267 -1.3710  1.4790
  561MOL0     H75713  11.161   2.382   2.402  6.3983  0.0376 -1.2151
  561MOL0     H75714  11.046   2.364   2.253 -0.8574 -4.7479 -2.9781
  561MOL0     H75715  11.335   2.270   2.280 -3.7577 -2.5962  2.4752
  561MOL0     H75716  11.288   2.436   2.239  0.7600  1.0238 -0.2762
  561MOL0     H75717  10.485   1.471   2.371 -2.9505 -0.1117 -0.2636
  561MOL0     H75718  10.327   1.325   2.496  0.9818  1.4104 -0.9116
  561MOL0     H75719  10.137   1.153   2.726  0.1477 -5.7177 -0.4272
  561MOL0     H75720  10.023   0.946   2.805  1.3603 -0.6010  1.6066
  561MOL0     H75721   8.212   1.058   3.696 -0.7058 -0.3946  3.1419
  561MOL0     H75722   8.010   1.083   3.830  2.1542 -1.9431  3.0155
  561MOL0     H75723   7.590   0.940   3.927  1.6177  0.9729  0.4228
  561MOL0     H75724   7.408   0.954   4.088 -0.8519  0.3545  2.2477
  561MOL0     H75725   7.266   1.051   4.224 -0.9571  1.4248  0.2300
  561MOL0     H75726   7.237   1.058   4.395 -1.5545  1.1970 -0.6560
  561MOL0     H75727   7.296   1.273   4.266 -0.7287  0.7018  1.5393
  561MOL0     H75728   7.455   1.205   4.242  0.0911 -2.2160  0.9637
  561MOL0     H75729   7.341   1.286   4.518  0.8024  0.7539  0.4156
  561MOL0     H75730   7.441   1.383   4.410  0.9022  1.1129  1.0654
  561MOL0     H75731   7.625   1.245   4.420  1.4721 -1.8288 -0.2572
  561MOL0     H75732   7.523   1.120   4.503 -0.4048  1.0369  2.0450
  561MOL0     H75733   7.571   1.308   4.846  0.1261 -0.9528  0.6870
  561MOL0     H75734   7.669   0.953   4.415  2.0099 -0.1262 -0.1921
  561MOL0     H75735   7.861   0.931   4.264  0.7478  0.7385 -0.5947
  562MOL0     O75736   4.479   3.989   8.054 -0.4610  0.5135  0.9905
  562MOL0     C75737   4.576   3.914   8.054  0.0564  0.0143  0.1856
  562MOL0     O75738   4.703   3.962   8.030 -0.6003  0.7687 -0.4975
  562MOL0     C75739   4.737   4.097   8.031  0.3020 -0.5442  0.6589
  562MOL0     C75740   4.840   4.126   7.953  0.3862 -0.4140  0.0462
  562MOL0     C75741   4.888   4.254   7.931 -0.7212  0.1788  0.2178
  562MOL0     C75742   4.836   4.357   8.014  0.3719  0.5268  0.2400
  562MOL0     O75743   4.870   4.485   8.007 -0.5171 -0.1968 -0.3323
  562MOL0     C75744   4.990   4.501   7.913 -0.0363 -0.5580 -0.7947
  562MOL0     C75745   5.006   4.647   7.903  1.4408 -0.1558  0.7801
  562MOL0     C75746   5.086   4.689   7.794 -0.2477 -0.1754  0.3867
  562MOL0     C75747   5.014   4.726   7.665  0.9223  0.6855 -0.1881
  562MOL0     C75748   5.112   4.743   7.553 -0.2015 -0.0394 -0.6104
  562MOL0     C75749   5.046   4.793   7.420  0.8493 -0.3543  1.0379
  562MOL0     C75750   5.129   4.759   7.297  0.6550 -0.0642 -0.1116
  562MOL0     C75751   5.243   4.862   7.280  0.4283  0.0797 -0.1189
  562MOL0     N75752   5.200   4.980   7.203 -0.3253 -0.7218  1.0099
  562MOL0     C75753   5.205   5.113   7.247 -0.2783 -0.4063 -0.1664
  562MOL0     C75754   5.145   5.190   7.146 -0.5646 -0.6339 -1.0546
  562MOL0     C75755   5.116   5.340   7.168 -0.5305 -0.0755  0.7327
  562MOL0     C75756   5.212   5.433   7.243  1.2271 -0.1227  1.1540
  562MOL0     C75757   5.359   5.398   7.216 -0.0128 -0.2956 -0.3587
  562MOL0     C75758   5.455   5.460   7.326  0.2600  0.5721 -0.6268
  562MOL0     O75759   5.591   5.428   7.296 -0.5775 -0.6129 -0.0288
  562MOL0     C75760   5.677   5.531   7.240 -0.4237  0.8127 -0.8765
  562MOL0     C75761   5.760   5.604   7.322 -0.7956  0.2677 -0.6837
  562MOL0     C75762   5.853   5.695   7.280  1.2350  0.4216  0.4907
  562MOL0     C75763   5.945   5.768   7.384  0.2002  0.6295  0.1003
  562MOL0     C75764   5.860   5.733   7.148  0.8082 -0.0029  0.3392
  562MOL0     C75765   5.939   5.843   7.078  0.3154  0.2153  0.6194
  562MOL0     O75766   6.018   5.926   7.151  0.6391  0.1456 -0.5245
  562MOL0     C75767   6.073   6.026   7.085  0.7457  0.7758  0.5826
  562MOL0     C75768   6.002   6.137   7.037 -1.1245  0.6075 -0.3678
  562MOL0     C75769   6.064   6.238   6.968  0.2244  1.1218  0.9778
  562MOL0     C75770   6.192   6.229   6.923 -0.1783  0.7143  0.0541
  562MOL0     O75771   6.225   6.322   6.831 -0.2691 -0.1087  0.3247
  562MOL0     C75772   6.336   6.296   6.743  0.4313 -0.6946 -0.1280
  562MOL0     C75773   6.295   6.371   6.617 -0.5632 -0.0388  0.0911
  562MOL0     C75774   6.423   6.378   6.525  0.0633  0.1899  0.2734
  562MOL0     C75775   6.462   6.243   6.457 -0.0720 -0.9655 -0.3005
  562MOL0     C75776   6.551   6.259   6.333  0.0627  1.2943 -0.1378
  562MOL0     C75777   6.602   6.121   6.277 -0.2935  0.6865  0.2310
  562MOL0     C75778   6.684   6.134   6.148  0.5911  0.4808 -0.3193
  562MOL0     C75779   6.722   5.989   6.114  0.1732 -0.3301  0.2329
  562MOL0    Cl75780   6.838   5.917   6.223  0.5421 -0.2653 -0.1564
  562MOL0     C75781   6.272   6.124   6.973  0.8981 -1.5176  0.2797
  562MOL0     C75782   6.205   6.026   7.053  0.5508 -0.5427  0.5169
  562MOL0     O75783   5.911   5.867   6.962  0.6251  0.5364  0.4070
  562MOL0     C75784   5.775   5.653   7.059  0.3042 -0.5311  0.3459
  562MOL0     C75785   5.685   5.557   7.107  0.5982 -0.3943  0.1728
  562MOL0     N75786   5.091   5.103   7.051  0.7290 -1.0359  0.5156
  562MOL0     N75787   5.128   4.978   7.082 -0.7082  0.8904  0.0036
  562MOL0     C75788   4.736   4.326   8.100  0.4537  0.4514 -0.1713
  562MOL0     C75789   4.684   4.195   8.113 -0.8156 -0.4440  0.1047
  562MOL0     C75790   4.554   3.769   8.074 -0.0596 -0.1330  0.5247
  562MOL0     C75791   4.441   3.703   8.017 -0.2548 -0.3757 -0.9820
  562MOL0     C75792   4.432   3.562   8.032  0.3652  1.3259 -0.1832
  562MOL0     C75793   4.530   3.482   8.097 -0.7682  0.4257  0.0019
  562MOL0     O75794   4.541   3.349   8.118  0.0664 -0.5670 -0.4171
  562MOL0     C75795   4.458   3.269   8.044  0.8852 -0.6186  0.0416
  562MOL0     C75796   4.340   3.233   8.122 -0.1930  0.3868 -1.0787
  562MOL0     C75797   4.252   3.147   8.040 -1.2181 -0.0883  0.2752
  562MOL0     C75798   4.120   3.107   8.099 -0.2501 -0.4050 -0.0489
  562MOL0     C75799   4.019   3.086   8.002 -0.0114 -0.4396 -0.1001
  562MOL0     C75800   3.947   3.078   7.904 -0.3799 -0.1071  0.1236
  562MOL0     C75801   4.641   3.550   8.151  0.6652  0.1150 -0.5805
  562MOL0     C75802   4.648   3.688   8.139 -0.2705  0.2589 -0.5837
  562MOL0     H75803   4.881   4.041   7.898 -3.8941 -2.4784 -0.4085
  562MOL0     H75804   4.959   4.257   7.849 -0.6815 -3.1170 -0.0046
  562MOL0     H75805   5.083   4.459   7.952 -0.0962  1.0277  1.2012
  562MOL0     H75806   4.966   4.457   7.815 -0.1397  1.2075 -1.5985
  562MOL0     H75807   4.912   4.696   7.877  1.7402 -0.0687 -0.1989
  562MOL0     H75808   5.054   4.690   7.992  1.5356 -0.4481  0.8713
  562MOL0     H75809   5.153   4.772   7.818 -2.4571  1.3622  1.5853
  562MOL0     H75810   5.155   4.609   7.764  0.7754  1.2798 -1.4058
  562MOL0     H75811   4.941   4.650   7.638  0.3535  1.6384 -1.4628
  562MOL0     H75812   4.956   4.817   7.683 -3.5980 -2.1048  0.7018
  562MOL0     H75813   5.193   4.813   7.575  1.8842 -1.6894 -2.6042
  562MOL0     H75814   5.160   4.646   7.540 -0.3136 -0.2687  0.5213
  562MOL0     H75815   4.961   4.726   7.409  1.6182 -0.9292 -2.2421
  562MOL0     H75816   5.030   4.901   7.424  0.3369 -0.4223  0.8670
  562MOL0     H75817   5.181   4.663   7.300  0.3588 -0.3619 -2.6259
  562MOL0     H75818   5.065   4.749   7.209 -0.6122 -2.3610  0.9825
  562MOL0     H75819   5.314   4.815   7.211  2.0982  2.0457  0.1757
  562MOL0     H75820   5.285   4.898   7.374  1.1849  0.8579 -0.7354
  562MOL0     H75821   5.264   5.159   7.326 -0.9830  0.9353 -0.4008
  562MOL0     H75822   5.119   5.378   7.065  1.7236 -1.2936  0.2964
  562MOL0     H75823   5.018   5.354   7.215 -0.5706 -0.2118  0.6895
  562MOL0     H75824   5.188   5.435   7.350 -1.6021 -3.9776  0.7889
  562MOL0     H75825   5.196   5.532   7.200 -2.0937 -0.4097  1.5022
  562MOL0     H75826   5.382   5.428   7.114  1.0817 -1.1708 -0.3908
  562MOL0     H75827   5.372   5.289   7.218 -2.2133 -0.5961  1.0091
  562MOL0     H75828   5.425   5.418   7.422 -0.4217  0.7082 -0.7692
  562MOL0     H75829   5.439   5.567   7.342 -0.6968  0.3385  0.0413
  562MOL0     H75830   5.771   5.581   7.428  1.9522  2.7250 -0.2974
  562MOL0     H75831   6.051   5.751   7.365 -0.4457 -1.0024 -2.6171
  562MOL0     H75832   5.930   5.875   7.368 -0.4176  0.1904 -2.8372
  562MOL0     H75833   5.924   5.745   7.489  1.2871 -1.2319 -0.0441
  562MOL0     H75834   5.897   6.141   7.064 -0.5042 -0.2978  2.5722
  562MOL0     H75835   6.016   6.324   6.923 -0.8179 -1.1639 -2.7222
  562MOL0     H75836   6.425   6.335   6.793  0.8311  0.5591 -1.7367
  562MOL0     H75837   6.343   6.189   6.726  0.2616 -0.7618  0.2087
  562MOL0     H75838   6.218   6.325   6.554  0.5880 -0.1667 -1.2675
  562MOL0     H75839   6.269   6.475   6.637 -0.8713 -0.0051 -0.4440
  562MOL0     H75840   6.508   6.419   6.581  1.3337 -2.2536  0.3015
  562MOL0     H75841   6.385   6.454   6.457 -1.4551  0.1292  1.0049
  562MOL0     H75842   6.518   6.195   6.538  1.4655  0.2050 -0.6348
  562MOL0     H75843   6.375   6.185   6.424  0.0652 -1.2592 -0.1501
  562MOL0     H75844   6.638   6.324   6.344  0.4721  0.8126 -0.4514
  562MOL0     H75845   6.488   6.305   6.256 -0.6524 -0.3336 -0.5605
  562MOL0     H75846   6.650   6.069   6.360 -0.8469  0.2818  0.3086
  562MOL0     H75847   6.520   6.059   6.239 -0.2375  1.4526 -1.1904
  562MOL0     H75848   6.766   6.206   6.155 -0.8972  2.1770  0.6732
  562MOL0     H75849   6.611   6.155   6.068 -0.6250 -1.0104  0.3428
  562MOL0     H75850   6.762   5.990   6.012 -0.5091  0.0400 -0.0437
  562MOL0     H75851   6.637   5.920   6.126 -1.1052  1.5542  2.9196
  562MOL0     H75852   6.376   6.120   6.941  0.2220  1.2440 -2.8814
  562MOL0     H75853   6.255   5.944   7.104  1.1690 -0.4686  0.0399
  562MOL0     H75854   5.780   5.665   6.951  0.9829  1.1038  0.5410
  562MOL0     H75855   5.644   5.484   7.038  0.9922 -0.0856 -0.3911
  562MOL0     H75856   4.684   4.403   8.155  0.1318  1.2671 -1.5740
  562MOL0     H75857   4.613   4.166   8.190  1.9407  0.3060  3.1620
  562MOL0     H75858   4.363   3.768   7.976  1.1775  2.8140  0.9289
  562MOL0     H75859   4.353   3.502   7.988 -0.5380  2.4370 -0.1230
  562MOL0     H75860   4.443   3.310   7.943  0.1777  0.5535  0.6053
  562MOL0     H75861   4.525   3.186   8.018  1.6501  0.9432 -3.7532
  562MOL0     H75862   4.278   3.317   8.156  1.0035  1.3236 -1.1610
  562MOL0     H75863   4.386   3.180   8.205  1.3175  3.7589  0.4206
  562MOL0     H75864   4.303   3.052   8.021 -1.5554 -0.0742 -0.7838
  562MOL0     H75865   4.247   3.199   7.943  1.6602 -2.1006 -1.1048
  562MOL0     H75866   4.088   3.197   8.152 -0.5089  0.4340 -1.5780
  562MOL0     H75867   4.121   3.027   8.174  1.6115  1.5595  2.1860
  562MOL0     H75868   3.889   3.087   7.814 -1.5982  1.4223  1.0115
  562MOL0     H75869   4.721   3.490   8.194 -0.9717 -1.2146  0.7450
  562MOL0     H75870   4.732   3.742   8.181 -1.8075  2.1131  0.2494
  563MOL0     O75871   7.192   6.469   7.175  0.6779  0.4962 -0.0763
  563MOL0     C75872   7.206   6.352   7.216  0.5204  0.0035 -0.6835
  563MOL0     O75873   7.319   6.274   7.205  0.1732 -0.1430  0.7020
  563MOL0     C75874   7.441   6.315   7.159 -0.0563 -0.6418 -0.7430
  563MOL0     C75875   7.527   6.238   7.075 -0.2392  1.2353  0.3474
  563MOL0     C75876   7.655   6.281   7.053 -0.8017  0.5889 -0.4760
  563MOL0     C75877   7.706   6.406   7.094  0.6825  0.1469  0.2709
  563MOL0     O75878   7.836   6.440   7.066  0.2603  0.4963 -0.0223
  563MOL0     C75879   7.862   6.577   7.037  0.3098  0.2520  0.1223
  563MOL0     C75880   8.012   6.576   7.026 -0.3865  0.1832 -0.1479
  563MOL0     C75881   8.065   6.716   7.036  1.2627 -0.5965 -0.5632
  563MOL0     C75882   8.211   6.707   7.077 -0.1589 -1.1027  1.1527
  563MOL0     C75883   8.270   6.813   7.177 -0.0142  0.6514  0.5406
  563MOL0     C75884   8.412   6.778   7.236  0.1357 -0.2240  0.0049
  563MOL0     C75885   8.528   6.830   7.149 -0.0663  0.3342 -0.4362
  563MOL0     C75886   8.580   6.735   7.042  0.0845  0.0610 -0.0967
  563MOL0     N75887   8.709   6.769   6.971 -0.2572 -0.6892  0.2958
  563MOL0     C75888   8.836   6.772   7.018 -1.1879 -0.1768  0.8362
  563MOL0     C75889   8.909   6.818   6.907  0.2098  0.2188  0.1351
  563MOL0     C75890   9.056   6.848   6.905 -1.8296 -0.1363  0.3256
  563MOL0     C75891   9.085   6.992   6.884  0.2400 -0.0994 -0.0208
  563MOL0     C75892   9.232   7.023   6.896 -0.4774  0.5715  0.6990
  563MOL0     C75893   9.278   7.164   6.854  0.5578  0.7065 -0.9282
  563MOL0     O75894   9.416   7.138   6.835  0.4107  0.1994  0.1078
  563MOL0     C75895   9.502   7.173   6.944 -0.4843 -0.7004  0.5345
  563MOL0     C75896   9.477   7.244   7.057 -1.5155  0.4140  0.2125
  563MOL0     C75897   9.586   7.278   7.142  0.1624 -1.0089 -0.4632
  563MOL0     C75898   9.538   7.362   7.259  0.1992 -0.3679  0.5076
  563MOL0     C75899   9.711   7.214   7.122  0.5336 -0.0497  0.6198
  563MOL0     C75900   9.816   7.220   7.224 -1.2270 -0.4545  1.4594
  563MOL0     O75901   9.926   7.144   7.194  0.9268 -0.1004 -0.0791
  563MOL0     C75902  10.046   7.163   7.266  0.0478  0.5548 -0.1099
  563MOL0     C75903  10.126   7.043   7.288 -0.1726  0.1463 -0.6825
  563MOL0     C75904  10.254   7.047   7.359  1.0946  0.7662 -0.6911
  563MOL0     C75905  10.300   7.171   7.407 -0.0692  0.2899 -0.0553
  563MOL0     O75906  10.426   7.191   7.467  0.1639  0.8433  0.0960
  563MOL0     C75907  10.473   7.071   7.538  0.1710  0.4810  0.6250
  563MOL0     C75908  10.585   7.118   7.637 -0.3239 -0.2017 -0.0570
  563MOL0     C75909  10.595   7.030   7.769  0.1858  0.4278  0.0415
  563MOL0     C75910  10.715   7.077   7.853 -0.2227 -0.5666  0.2403
  563MOL0     C75911  10.729   6.983   7.969 -0.0761 -0.1611  0.6400
  563MOL0     C75912  10.846   7.033   8.059  0.1902  0.4798  0.4975
  563MOL0     C75913  10.789   7.111   8.175  0.5453  0.8987  0.4468
  563MOL0     C75914  10.895   7.166   8.276  0.1875 -0.7200  0.0160
  563MOL0    Cl75915  10.985   7.295   8.188 -0.1128  0.6584  0.2234
  563MOL0     C75916  10.237   7.294   7.367 -0.4547 -0.0521 -0.3198
  563MOL0     C75917  10.103   7.286   7.306 -0.0099  0.3896  0.0671
  563MOL0     O75918   9.788   7.266   7.335  0.2196 -0.4128  0.5399
  563MOL0     C75919   9.724   7.144   7.003 -0.4342 -0.0095  0.6411
  563MOL0     C75920   9.627   7.134   6.913 -0.1039 -0.3765  0.7228
  563MOL0     N75921   8.830   6.837   6.802  0.7059  0.1061  0.3303
  563MOL0     N75922   8.708   6.807   6.835  0.4350 -0.8106  0.7976
  563MOL0     C75923   7.624   6.479   7.180 -1.4173  0.1408 -0.7073
  563MOL0     C75924   7.496   6.433   7.207  1.0008 -1.0599  0.4546
  563MOL0     C75925   7.096   6.288   7.292 -0.1542 -0.2393  1.3541
  563MOL0     C75926   6.971   6.355   7.315 -0.7651  0.4186  0.4471
  563MOL0     C75927   6.875   6.303   7.408 -0.3652 -0.0422 -0.2155
  563MOL0     C75928   6.894   6.174   7.466  0.5697 -0.1354 -0.6001
  563MOL0     O75929   6.811   6.109   7.557  0.1374 -0.6255  0.8923
  563MOL0     C75930   6.715   6.187   7.614  0.2611 -0.5560  0.1039
  563MOL0     C75931   6.641   6.112   7.724  0.0489 -0.8120  0.3907
  563MOL0     C75932   6.710   6.086   7.859  0.8233 -0.4432 -0.2923
  563MOL0     C75933   6.799   6.198   7.921 -0.8243  0.0411  0.0923
  563MOL0     C75934   6.862   6.181   8.054 -0.3255  0.1632 -1.0682
  563MOL0     C75935   6.907   6.166   8.168 -0.5933 -0.3108 -0.6491
  563MOL0     C75936   7.010   6.104   7.425  0.0277  0.1651 -0.1815
  563MOL0     C75937   7.112   6.146   7.342  0.9478 -0.0015  1.0459
  563MOL0     H75938   7.487   6.142   7.041  2.9674 -0.0049 -0.2721
  563MOL0     H75939   7.726   6.219   7.000 -0.5118  0.3699  0.1624
  563MOL0     H75940   7.788   6.594   6.957 -2.8768 -1.8963  2.3485
  563MOL0     H75941   7.836   6.643   7.120 -1.7482 -1.2913  0.8025
  563MOL0     H75942   8.050   6.509   7.103 -0.9970  3.5364  3.3916
  563MOL0     H75943   8.044   6.527   6.934 -1.6948 -0.6479 -0.1964
  563MOL0     H75944   8.039   6.763   6.940  0.2597  0.7639  0.3391
  563MOL0     H75945   8.006   6.769   7.111  0.9420 -1.2672 -0.3375
  563MOL0     H75946   8.238   6.609   7.119 -0.7289 -2.0923 -0.7026
  563MOL0     H75947   8.266   6.718   6.984 -0.2439 -1.6121  1.0367
  563MOL0     H75948   8.281   6.911   7.130  3.6261  0.5305  0.8762
  563MOL0     H75949   8.197   6.809   7.258 -0.4332 -0.2077  0.1293
  563MOL0     H75950   8.409   6.847   7.320 -0.2584  2.4832 -2.0832
  563MOL0     H75951   8.431   6.675   7.267 -0.3086 -0.4041 -0.3096
  563MOL0     H75952   8.491   6.924   7.109  0.7816  2.9351  4.1499
  563MOL0     H75953   8.612   6.865   7.210  0.0633  1.5519 -1.2869
  563MOL0     H75954   8.502   6.722   6.967  1.4726  0.0204 -1.6058
  563MOL0     H75955   8.591   6.631   7.074 -0.5155  0.5393  1.8149
  563MOL0     H75956   8.860   6.749   7.122  0.6278  1.4474  0.8339
  563MOL0     H75957   9.089   6.819   7.005 -1.1491  0.8851  0.4120
  563MOL0     H75958   9.104   6.787   6.828 -0.9087  0.4234  0.4453
  563MOL0     H75959   9.033   7.059   6.952  0.0116 -1.1910  0.9202
  563MOL0     H75960   9.045   7.020   6.786  0.8657  1.7882  0.2284
  563MOL0     H75961   9.287   6.952   6.834 -0.1535 -0.1143  1.7446
  563MOL0     H75962   9.263   7.012   7.000 -0.2774  0.5906  0.6419
  563MOL0     H75963   9.268   7.236   6.936  2.2656 -1.5035  1.3651
  563MOL0     H75964   9.223   7.213   6.773 -2.2293  1.7023  1.3746
  563MOL0     H75965   9.374   7.267   7.081 -1.4448 -0.7355  1.7533
  563MOL0     H75966   9.434   7.391   7.241  1.2445  2.8991 -1.0724
  563MOL0     H75967   9.555   7.312   7.355  2.3196 -1.5802 -0.4322
  563MOL0     H75968   9.587   7.460   7.269  0.4786 -0.5506  0.9553
  563MOL0     H75969  10.076   6.949   7.264 -3.8584  2.2973 -2.1794
  563MOL0     H75970  10.314   6.957   7.367 -1.5699 -1.1091 -0.0466
  563MOL0     H75971  10.390   7.039   7.600 -2.4804  1.7784 -2.0026
  563MOL0     H75972  10.508   6.987   7.477 -0.1219 -1.1200  2.5814
  563MOL0     H75973  10.677   7.115   7.577 -0.5090 -4.5043 -0.4944
  563MOL0     H75974  10.570   7.220   7.672  0.8182  0.5078 -1.5319
  563MOL0     H75975  10.621   6.926   7.747 -0.0539  0.2082  0.7563
  563MOL0     H75976  10.508   7.033   7.836  1.6629 -0.0965  2.0723
  563MOL0     H75977  10.808   7.099   7.799  1.0621 -0.8385  2.2300
  563MOL0     H75978  10.688   7.171   7.902 -1.8373 -0.5310 -0.6531
  563MOL0     H75979  10.748   6.882   7.932  0.4703 -0.5459  1.9118
  563MOL0     H75980  10.635   6.978   8.025 -0.4934  0.6198  0.0238
  563MOL0     H75981  10.900   6.945   8.094 -0.8091 -0.1444  0.5093
  563MOL0     H75982  10.912   7.102   8.006 -1.0750  2.0745  0.8951
  563MOL0     H75983  10.714   7.044   8.218 -2.0986  0.6888 -3.9601
  563MOL0     H75984  10.728   7.192   8.134 -3.4477 -2.8153 -1.8014
  563MOL0     H75985  10.962   7.099   8.331 -0.1547 -1.2663 -0.2205
  563MOL0     H75986  10.840   7.210   8.359  0.5032  0.4141 -0.3557
  563MOL0     H75987  10.290   7.384   7.397 -0.7760 -0.5753  1.9990
  563MOL0     H75988  10.065   7.382   7.272 -1.3802 -0.7183 -1.7019
  563MOL0     H75989   9.814   7.089   6.978 -2.3014 -2.2077 -1.7149
  563MOL0     H75990   9.651   7.074   6.826  0.3445 -0.7802  1.1227
  563MOL0     H75991   7.680   6.568   7.207  1.8672 -1.4979 -1.6345
  563MOL0     H75992   7.436   6.494   7.274  0.9937 -1.7413  1.0896
  563MOL0     H75993   6.947   6.434   7.245  1.1119  0.2476 -0.4584
  563MOL0     H75994   6.786   6.364   7.423  1.1623  2.4565 -0.7643
  563MOL0     H75995   6.761   6.276   7.658  0.7974 -1.1901  0.8264
  563MOL0     H75996   6.644   6.231   7.543  1.8433  2.2255  0.1077
  563MOL0     H75997   6.611   6.018   7.677 -0.8447 -0.8823  1.0636
  563MOL0     H75998   6.556   6.180   7.738  1.2747  1.4037 -2.0790
  563MOL0     H75999   6.777   6.001   7.844  1.1323 -0.5109  1.2921
  563MOL0     H76000   6.627   6.059   7.927  2.2856  2.4413  2.9780
  563MOL0     H76001   6.763   6.302   7.914  3.1987  1.6296  0.1765
  563MOL0     H76002   6.888   6.210   7.859  0.1538 -2.2370  0.9714
  563MOL0     H76003   6.965   6.172   8.258  2.0556 -4.1094 -1.8670
  563MOL0     H76004   7.026   6.004   7.462  2.5246  0.9945  1.2578
  563MOL0     H76005   7.186   6.077   7.304 -0.4599 -1.2994  0.5894
  564MOL0     O76006   9.141   1.933   2.521 -0.0483 -0.0036  0.2600
  564MOL0     C76007   9.107   1.963   2.409  0.1996 -0.4425  0.4643
  564MOL0     O76008   9.020   2.058   2.381 -0.9988  0.5182  0.5093
  564MOL0     C76009   8.971   2.130   2.487 -0.8454  1.8398  0.3141
  564MOL0     C76010   8.887   2.073   2.583  0.5641  1.4063  0.9874
  564MOL0     C76011   8.803   2.141   2.670  0.4279  0.8633 -0.6074
  564MOL0     C76012   8.800   2.279   2.668 -0.1465 -0.4749  0.3319
  564MOL0     O76013   8.715   2.352   2.741  0.5125 -0.0114 -1.7489
  564MOL0     C76014   8.649   2.295   2.853  0.5954 -0.2037  0.1869
  564MOL0     C76015   8.528   2.388   2.883  0.0943  0.5729  0.3332
  564MOL0     C76016   8.426   2.360   2.995  0.5075  0.0697  0.4638
  564MOL0     C76017   8.413   2.481   3.088 -1.2216  0.1805 -0.1978
  564MOL0     C76018   8.284   2.458   3.173 -0.3030  0.2167  0.8433
  564MOL0     C76019   8.224   2.589   3.221  0.6136 -0.2963 -0.7737
  564MOL0     C76020   8.304   2.664   3.321 -0.0389 -1.7837 -0.8369
  564MOL0     C76021   8.252   2.795   3.364  0.5318  0.4217  0.8666
  564MOL0     N76022   8.144   2.800   3.465 -0.6261 -0.7400  0.2685
  564MOL0     C76023   8.148   2.725   3.576 -0.5882  0.4854 -0.6589
  564MOL0     C76024   8.031   2.746   3.642 -0.1540 -0.4488  0.2308
  564MOL0     C76025   7.998   2.666   3.773  0.5097 -0.3301 -0.2809
  564MOL0     C76026   8.053   2.744   3.892 -0.7176 -0.1470 -0.3840
  564MOL0     C76027   7.961   2.857   3.948  0.3741 -0.0342  0.0515
  564MOL0     C76028   7.929   2.968   3.851  0.6434  0.6185 -0.1422
  564MOL0     O76029   7.839   3.050   3.926  0.3747  0.1723  0.3118
  564MOL0     C76030   7.797   3.165   3.867 -0.2632 -0.5398  0.6719
  564MOL0     C76031   7.886   3.241   3.786 -0.7186  0.9105  0.2051
  564MOL0     C76032   7.849   3.368   3.744 -0.1872  0.6459  0.3515
  564MOL0     C76033   7.937   3.440   3.642  0.2323 -0.0042 -0.1366
  564MOL0     C76034   7.741   3.433   3.810  0.1734  0.7200 -0.3645
  564MOL0     C76035   7.701   3.576   3.774  1.0692 -0.1128 -0.4350
  564MOL0     O76036   7.706   3.664   3.877  0.3641  0.7212  0.7252
  564MOL0     C76037   7.626   3.772   3.882 -0.2916 -0.5685 -0.1611
  564MOL0     C76038   7.677   3.895   3.924  1.2004  0.2338  0.4097
  564MOL0     C76039   7.594   4.011   3.931  0.2576 -0.7086 -0.2214
  564MOL0     C76040   7.461   4.003   3.888  0.2624  0.0232 -0.2496
  564MOL0     O76041   7.379   4.112   3.865 -0.2708 -0.3105 -0.0470
  564MOL0     C76042   7.432   4.246   3.835  1.0239  0.2280  0.2911
  564MOL0     C76043   7.384   4.346   3.942 -0.3078 -0.1632 -0.2337
  564MOL0     C76044   7.476   4.362   4.059 -1.3967  0.9568  0.4489
  564MOL0     C76045   7.433   4.478   4.155 -0.0885  0.0862 -0.0300
  564MOL0     C76046   7.311   4.454   4.244 -0.0915 -0.0506 -0.5407
  564MOL0     C76047   7.264   4.579   4.325 -0.8235 -0.4103 -0.7879
  564MOL0     C76048   7.384   4.654   4.406  0.3613 -0.2269  0.0750
  564MOL0     C76049   7.426   4.580   4.537  0.5129  0.2618  0.7009
  564MOL0    Cl76050   7.559   4.648   4.621 -0.0864 -0.4429  0.1755
  564MOL0     C76051   7.412   3.883   3.849  0.6745 -0.4020  0.0662
  564MOL0     C76052   7.490   3.769   3.846 -0.6045 -0.5446  0.7489
  564MOL0     O76053   7.653   3.601   3.667  0.3866 -0.1519 -0.2315
  564MOL0     C76054   7.658   3.362   3.897 -0.0063 -1.1724  0.4606
  564MOL0     C76055   7.687   3.229   3.920 -0.5138  0.5041 -0.5778
  564MOL0     N76056   7.952   2.820   3.561 -0.3680 -0.4310 -0.2918
  564MOL0     N76057   8.020   2.865   3.460 -0.2195  0.4048  0.0378
  564MOL0     C76058   8.888   2.344   2.578  0.6545  0.5544 -0.2798
  564MOL0     C76059   8.966   2.267   2.481 -0.9542  0.5780 -0.5165
  564MOL0     C76060   9.154   1.890   2.295 -0.0532  0.5325  0.5892
  564MOL0     C76061   9.150   1.946   2.168  0.0469  0.8236 -0.6206
  564MOL0     C76062   9.191   1.871   2.055  0.0235 -0.1587  0.8431
  564MOL0     C76063   9.259   1.748   2.068 -0.1989  0.0363  0.0914
  564MOL0     O76064   9.297   1.658   1.973  0.2302  0.7874 -1.2122
  564MOL0     C76065   9.279   1.681   1.832  0.0287  0.4008 -0.9348
  564MOL0     C76066   9.368   1.569   1.769 -0.5731  0.2457  0.0157
  564MOL0     C76067   9.520   1.577   1.806  0.5448  0.1581  0.0254
  564MOL0     C76068   9.567   1.724   1.810 -0.2122 -0.0987 -0.3673
  564MOL0     C76069   9.709   1.721   1.837 -0.5556 -0.3615 -0.3920
  564MOL0     C76070   9.825   1.738   1.869  0.9425  0.5564  0.1809
  564MOL0     C76071   9.273   1.700   2.203 -0.7214 -0.2629  0.5448
  564MOL0     C76072   9.216   1.771   2.310  0.0731  0.3130  0.9544
  564MOL0     H76073   8.880   1.965   2.577 -1.9304  1.3930  2.4175
  564MOL0     H76074   8.748   2.091   2.749  1.0283 -0.4783 -1.0107
  564MOL0     H76075   8.610   2.195   2.830  0.9780 -0.4311  0.4979
  564MOL0     H76076   8.718   2.292   2.938  1.1646 -1.2093 -0.2904
  564MOL0     H76077   8.579   2.482   2.907 -0.8842  0.8147  1.5457
  564MOL0     H76078   8.466   2.410   2.797 -0.9760  0.6473  1.1060
  564MOL0     H76079   8.327   2.344   2.952  1.4930 -1.7140 -1.3068
  564MOL0     H76080   8.458   2.272   3.052  1.1122 -0.1745 -0.2300
  564MOL0     H76081   8.500   2.488   3.155  0.0264 -2.0456 -1.4758
  564MOL0     H76082   8.415   2.573   3.029  0.6848  0.3979  0.1386
  564MOL0     H76083   8.208   2.411   3.109  1.6867  1.7307 -2.9317
  564MOL0     H76084   8.302   2.388   3.255 -0.8291  2.9293  3.4731
  564MOL0     H76085   8.202   2.658   3.139  0.4800  1.2544  0.5222
  564MOL0     H76086   8.129   2.576   3.273 -0.2876 -0.0647 -2.2923
  564MOL0     H76087   8.315   2.595   3.404 -0.5714 -2.7732 -1.5679
  564MOL0     H76088   8.403   2.686   3.280  1.9894  0.9503  4.5857
  564MOL0     H76089   8.224   2.859   3.279 -0.3309 -0.8344  0.1753
  564MOL0     H76090   8.344   2.836   3.405  0.7653  0.1717  0.5979
  564MOL0     H76091   8.232   2.671   3.618 -1.8971  1.6941  4.1269
  564MOL0     H76092   7.889   2.657   3.771  0.6453 -3.3347 -3.1335
  564MOL0     H76093   8.034   2.563   3.782 -1.5835 -0.9717  1.8177
  564MOL0     H76094   8.149   2.788   3.864  0.0507 -1.5436 -0.0502
  564MOL0     H76095   8.053   2.685   3.984 -0.7156 -0.0228 -0.3032
  564MOL0     H76096   8.015   2.903   4.031  1.7673 -4.3031  1.7598
  564MOL0     H76097   7.869   2.820   3.993  2.4867 -1.3797  3.6406
  564MOL0     H76098   7.865   2.942   3.766 -1.2669  2.9354  0.4898
  564MOL0     H76099   8.019   3.004   3.800  0.7228 -2.1198 -2.2025
  564MOL0     H76100   7.965   3.188   3.734  0.1646  2.3174  0.0410
  564MOL0     H76101   8.039   3.429   3.680  0.2930  2.4410  0.5701
  564MOL0     H76102   7.937   3.389   3.546 -0.7715 -1.2910  0.5148
  564MOL0     H76103   7.925   3.547   3.624  2.2185  0.3384  0.3015
  564MOL0     H76104   7.780   3.903   3.959  1.0040  4.4832  0.5485
  564MOL0     H76105   7.621   4.109   3.967  0.0391 -0.6834 -0.1260
  564MOL0     H76106   7.536   4.265   3.806  0.5167  2.9253 -0.0039
  564MOL0     H76107   7.377   4.269   3.744  0.6387  2.5076  1.0570
  564MOL0     H76108   7.379   4.441   3.889 -0.5596  0.0429  0.1601
  564MOL0     H76109   7.290   4.304   3.980  0.2927 -0.7263  0.6595
  564MOL0     H76110   7.572   4.390   4.014 -1.4797 -2.1046 -1.9352
  564MOL0     H76111   7.502   4.271   4.115 -1.2916 -1.0629 -2.6585
  564MOL0     H76112   7.513   4.497   4.227  0.2116  0.5134 -0.4775
  564MOL0     H76113   7.420   4.569   4.096 -0.0629 -0.3525 -0.7319
  564MOL0     H76114   7.352   4.375   4.307  2.6212  0.7951 -1.1192
  564MOL0     H76115   7.225   4.419   4.186 -0.0238 -1.8913  0.4076
  564MOL0     H76116   7.201   4.643   4.262 -2.8953  1.3645  2.7261
  564MOL0     H76117   7.188   4.551   4.399  1.1417 -0.5381  1.2974
  564MOL0     H76118   7.332   4.747   4.428  0.2140  0.0443 -1.3631
  564MOL0     H76119   7.472   4.679   4.347  1.2015  0.0207  1.3883
  564MOL0     H76120   7.449   4.479   4.501 -1.5177  0.4426 -1.3422
  564MOL0     H76121   7.335   4.566   4.596 -2.8093  2.0363 -3.4432
  564MOL0     H76122   7.305   3.886   3.831  0.5086 -0.1497  1.0587
  564MOL0     H76123   7.457   3.681   3.791  0.5528  0.1156 -1.1083
  564MOL0     H76124   7.592   3.415   3.965  0.2429 -1.8063  1.1958
  564MOL0     H76125   7.626   3.176   3.993  0.9849  1.0936  1.1872
  564MOL0     H76126   8.884   2.452   2.585  2.3242  1.1494 -4.8075
  564MOL0     H76127   9.016   2.309   2.394  0.7529 -0.1522  0.0624
  564MOL0     H76128   9.115   2.048   2.167  1.6993  1.4208 -0.1537
  564MOL0     H76129   9.174   1.920   1.960 -0.0127 -0.3762  0.7373
  564MOL0     H76130   9.175   1.666   1.800 -0.4659  0.7214  0.4187
  564MOL0     H76131   9.304   1.784   1.806  1.7695  0.9241  2.2443
  564MOL0     H76132   9.357   1.570   1.660  0.6126 -0.4787 -0.1343
  564MOL0     H76133   9.330   1.473   1.804  1.5161 -0.9716 -0.8787
  564MOL0     H76134   9.587   1.536   1.730  0.0801  0.5462 -0.6051
  564MOL0     H76135   9.543   1.534   1.904  1.0059  2.2560  0.9058
  564MOL0     H76136   9.512   1.786   1.881 -3.8757  0.6321 -3.4896
  564MOL0     H76137   9.555   1.774   1.713  2.9644  1.7879  0.0822
  564MOL0     H76138   9.925   1.750   1.907  0.7451  0.0007  0.8828
  564MOL0     H76139   9.320   1.603   2.217 -3.9347 -1.4902  4.7631
  564MOL0     H76140   9.213   1.721   2.406  0.1716  1.6217  1.6524
  565MOL0     O76141   9.155   4.628   5.446 -0.3463  0.6783 -0.0292
  565MOL0     C76142   9.206   4.573   5.545 -0.4035 -0.9750 -0.2739
  565MOL0     O76143   9.236   4.637   5.668 -0.0102 -0.7432  0.5064
  565MOL0     C76144   9.209   4.769   5.665 -0.5920 -0.3734  0.5970
  565MOL0     C76145   9.095   4.801   5.726 -0.2012 -0.2545 -0.4805
  565MOL0     C76146   9.050   4.932   5.732  0.5183 -1.0677 -0.5672
  565MOL0     C76147   9.126   5.029   5.668 -0.0059  0.5440  0.2250
  565MOL0     O76148   9.093   5.154   5.691  0.0117 -0.5544  0.2839
  565MOL0     C76149   9.123   5.253   5.585 -0.2535  1.3512  0.1022
  565MOL0     C76150   9.014   5.359   5.594 -0.0765 -0.2968  0.2546
  565MOL0     C76151   9.052   5.485   5.512 -0.0438 -0.2476  0.2417
  565MOL0     C76152   8.956   5.601   5.542  0.5221 -0.2078 -0.5494
  565MOL0     C76153   8.973   5.717   5.454  0.3708 -0.4983 -0.5246
  565MOL0     C76154   8.888   5.718   5.323  0.9678  0.9232  0.5173
  565MOL0     C76155   8.909   5.821   5.213 -0.3711 -0.6604  0.4325
  565MOL0     C76156   8.982   5.952   5.255 -0.3690  0.0104  0.0981
  565MOL0     N76157   9.125   5.936   5.268  0.5007  0.0943  1.0375
  565MOL0     C76158   9.215   5.888   5.175  0.2339  0.9605 -0.3687
  565MOL0     C76159   9.336   5.886   5.232  0.2020 -0.0785  0.1002
  565MOL0     C76160   9.469   5.845   5.170  0.3393 -0.1145 -0.6470
  565MOL0     C76161   9.521   5.962   5.096  0.0508  0.3386 -0.8492
  565MOL0     C76162   9.654   5.924   5.033  0.0087 -0.4226  0.5421
  565MOL0     C76163   9.711   6.040   4.941 -0.0274  0.8559 -0.4904
  565MOL0     O76164   9.741   6.160   5.014  0.3245 -0.1628  0.1911
  565MOL0     C76165   9.651   6.256   5.034  0.7194 -0.2790  0.0526
  565MOL0     C76166   9.521   6.263   4.978  0.2309  0.6151 -0.1064
  565MOL0     C76167   9.421   6.358   5.025 -0.1023  0.8774  0.9307
  565MOL0     C76168   9.282   6.342   4.961  0.4290  0.1892  1.9308
  565MOL0     C76169   9.472   6.465   5.106 -0.0088 -0.2065 -0.2202
  565MOL0     C76170   9.397   6.586   5.130 -0.2770  0.1213 -0.4360
  565MOL0     O76171   9.473   6.685   5.205  0.6416  0.1795 -0.3825
  565MOL0     C76172   9.413   6.804   5.233  0.3265  0.2260 -0.0905
  565MOL0     C76173   9.428   6.909   5.152 -0.3680 -0.7868 -0.1137
  565MOL0     C76174   9.391   7.033   5.185  1.3055  0.4087  0.2670
  565MOL0     C76175   9.317   7.051   5.305  1.2401 -0.5753 -0.1507
  565MOL0     O76176   9.277   7.182   5.336  0.6719  0.8487 -0.7261
  565MOL0     C76177   9.158   7.232   5.256 -0.1641  0.3287  0.6460
  565MOL0     C76178   9.183   7.279   5.114 -0.5981  0.1036 -0.0451
  565MOL0     C76179   9.076   7.377   5.069 -0.0872 -0.5737  0.8269
  565MOL0     C76180   9.087   7.413   4.916 -0.2677  0.3098 -0.3575
  565MOL0     C76181   8.985   7.336   4.833  0.3631  0.7106 -0.6597
  565MOL0     C76182   8.960   7.394   4.702 -0.1817  0.7848  1.1246
  565MOL0     C76183   9.072   7.407   4.597  1.3068 -1.2077 -0.1959
  565MOL0     C76184   9.149   7.287   4.584 -0.7979 -0.2661  0.0198
  565MOL0    Cl76185   9.204   7.295   4.428 -0.0051 -0.1055 -0.3631
  565MOL0     C76186   9.285   6.943   5.381  1.2212 -0.7054 -0.5694
  565MOL0     C76187   9.334   6.817   5.340  0.5427 -0.4027 -0.1618
  565MOL0     O76188   9.278   6.600   5.100 -0.0217  0.3511 -0.7561
  565MOL0     C76189   9.605   6.466   5.148  0.4956  0.4185  0.3529
  565MOL0     C76190   9.688   6.367   5.113  0.7483  0.7203  0.3139
  565MOL0     N76191   9.318   5.921   5.366  0.1869  0.4657 -0.0467
  565MOL0     N76192   9.196   5.961   5.386  0.8573  0.7030  0.4663
  565MOL0     C76193   9.239   4.992   5.606  0.6763  0.1720  0.1988
  565MOL0     C76194   9.280   4.858   5.586 -0.1957 -0.2821  0.3385
  565MOL0     C76195   9.237   4.437   5.527  0.4380  0.5714 -0.2308
  565MOL0     C76196   9.181   4.360   5.419  0.5588  0.6935 -0.2067
  565MOL0     C76197   9.219   4.228   5.397 -0.2453  0.9731 -0.7789
  565MOL0     C76198   9.294   4.163   5.504  0.4221 -0.8233 -0.5267
  565MOL0     O76199   9.302   4.028   5.489 -0.0615  0.5531 -0.7065
  565MOL0     C76200   9.372   3.951   5.582 -0.9323 -0.6665 -0.7978
  565MOL0     C76201   9.321   3.812   5.573 -0.7160  0.1325 -0.4193
  565MOL0     C76202   9.390   3.721   5.470 -0.0574  0.2791  0.9674
  565MOL0     C76203   9.304   3.708   5.342  0.7392  0.6708 -0.0754
  565MOL0     C76204   9.381   3.627   5.250  1.4721  0.6657  1.2237
  565MOL0     C76205   9.439   3.561   5.160 -0.2571 -0.7609  0.3637
  565MOL0     C76206   9.355   4.237   5.608  0.3383  0.0946  0.1191
  565MOL0     C76207   9.319   4.366   5.623  0.2369 -1.3065  0.1270
  565MOL0     H76208   9.042   4.728   5.787  0.7552 -0.0682  0.5952
  565MOL0     H76209   8.972   4.951   5.806  1.5968 -4.0216  1.5378
  565MOL0     H76210   9.220   5.297   5.613  1.8220 -0.9744 -2.8251
  565MOL0     H76211   9.140   5.218   5.483  0.9594  0.5396  0.5600
  565MOL0     H76212   8.920   5.313   5.560 -0.0191 -0.2362  0.0170
  565MOL0     H76213   8.997   5.394   5.697 -0.7281 -0.7513  0.3110
  565MOL0     H76214   9.157   5.509   5.532 -0.1561  0.2637  0.2282
  565MOL0     H76215   9.047   5.455   5.407 -1.6746  1.3413 -0.1820
  565MOL0     H76216   8.852   5.566   5.542 -0.1013  1.2739 -3.6578
  565MOL0     H76217   8.973   5.637   5.643 -3.0335  0.6048 -0.0949
  565MOL0     H76218   8.944   5.800   5.520  3.1352  1.2759 -1.3449
  565MOL0     H76219   9.080   5.733   5.441 -0.1568  3.7690 -1.1731
  565MOL0     H76220   8.886   5.617   5.282 -3.3176  0.9006  0.2918
  565MOL0     H76221   8.787   5.724   5.365  1.9001  4.0434  2.6067
  565MOL0     H76222   8.945   5.770   5.123 -3.9865 -1.0060 -0.9879
  565MOL0     H76223   8.817   5.869   5.178 -0.2980 -1.1366 -0.4449
  565MOL0     H76224   8.943   5.993   5.349 -0.5151 -1.5810  0.7630
  565MOL0     H76225   8.950   6.016   5.172 -1.9972  1.4257  1.7276
  565MOL0     H76226   9.194   5.860   5.072  4.5875 -3.9333 -0.3219
  565MOL0     H76227   9.547   5.823   5.244  0.1953 -0.4782 -0.6006
  565MOL0     H76228   9.454   5.749   5.120 -2.3140  0.2059 -0.5967
  565MOL0     H76229   9.530   6.053   5.155 -1.5566  2.4092 -3.5865
  565MOL0     H76230   9.452   5.968   5.011 -0.7354 -0.1036 -0.2543
  565MOL0     H76231   9.644   5.830   4.978  1.9294  1.1347 -2.8138
  565MOL0     H76232   9.729   5.908   5.111  0.4054 -3.6097 -0.3558
  565MOL0     H76233   9.663   6.060   4.844  0.2897  2.0738 -0.4097
  565MOL0     H76234   9.806   5.995   4.911 -1.1496 -2.5791  0.6327
  565MOL0     H76235   9.492   6.186   4.907 -0.5352  0.5929  0.2204
  565MOL0     H76236   9.275   6.250   4.903 -0.5964  1.7783 -0.6464
  565MOL0     H76237   9.205   6.336   5.039 -4.1615  1.0048 -2.0734
  565MOL0     H76238   9.253   6.423   4.893  0.1701  0.2832  2.1506
  565MOL0     H76239   9.493   6.901   5.066  0.1647  2.6774 -0.1927
  565MOL0     H76240   9.391   7.120   5.120 -3.9036 -0.2464 -1.0598
  565MOL0     H76241   9.065   7.174   5.255  0.1683 -0.5772 -4.2244
  565MOL0     H76242   9.122   7.318   5.313 -0.8200 -0.2596  1.1414
  565MOL0     H76243   9.281   7.327   5.118 -1.3885  1.7315  0.8190
  565MOL0     H76244   9.181   7.194   5.046  0.1620 -1.0039  1.2757
  565MOL0     H76245   9.082   7.478   5.111  2.5890  0.1163 -0.9501
  565MOL0     H76246   8.982   7.323   5.085  0.6562 -1.3778  2.8901
  565MOL0     H76247   9.071   7.520   4.904  2.1237  0.8766  0.8635
  565MOL0     H76248   9.186   7.389   4.875 -0.6920 -1.8254 -0.2294
  565MOL0     H76249   8.890   7.341   4.887  1.7666 -2.5634  2.5106
  565MOL0     H76250   9.008   7.229   4.828 -0.7439  0.4476 -0.3646
  565MOL0     H76251   8.885   7.331   4.653  1.1760 -0.1301  0.1310
  565MOL0     H76252   8.914   7.493   4.702  0.2765  1.0749 -1.7202
  565MOL0     H76253   9.126   7.501   4.616 -0.8547  0.0838 -0.1352
  565MOL0     H76254   9.018   7.422   4.503  2.4193  2.4418 -0.4192
  565MOL0     H76255   9.082   7.201   4.595  0.2254 -1.1840 -0.7174
  565MOL0     H76256   9.231   7.272   4.655 -2.2141  2.3380  2.4079
  565MOL0     H76257   9.218   6.938   5.466 -1.3025  3.0244 -2.0683
  565MOL0     H76258   9.335   6.726   5.399  2.6723  0.0762  0.6232
  565MOL0     H76259   9.644   6.532   5.224  4.7686 -0.6854 -0.6093
  565MOL0     H76260   9.790   6.372   5.150  0.7331  0.8284  0.3413
  565MOL0     H76261   9.287   5.068   5.544 -0.3819  0.8843  0.2316
  565MOL0     H76262   9.353   4.819   5.516 -0.1206  0.3505  0.0648
  565MOL0     H76263   9.123   4.405   5.338 -0.8360  2.0430  1.4645
  565MOL0     H76264   9.162   4.159   5.336  2.9091 -2.3934 -0.3143
  565MOL0     H76265   9.479   3.960   5.567 -1.0969  2.5162 -0.8156
  565MOL0     H76266   9.347   3.987   5.682  2.0521 -1.4187  0.3118
  565MOL0     H76267   9.214   3.807   5.552 -0.6020 -2.2366 -0.6984
  565MOL0     H76268   9.332   3.771   5.673 -0.3627  4.2326  1.4286
  565MOL0     H76269   9.426   3.624   5.504 -0.2731  0.1568  0.8453
  565MOL0     H76270   9.477   3.776   5.432  0.3682 -0.2656  1.1400
  565MOL0     H76271   9.287   3.812   5.311  1.9786  1.0370  0.4097
  565MOL0     H76272   9.216   3.645   5.359 -0.9733  3.4043  2.2390
  565MOL0     H76273   9.504   3.504   5.096  4.5305  2.5011  1.7128
  565MOL0     H76274   9.417   4.182   5.678 -2.9961 -0.8582  2.5496
  565MOL0     H76275   9.363   4.423   5.705 -0.7656  0.1364 -0.2837
  566MOL0     O76276   2.258   1.566   2.229 -0.4382 -0.1788 -0.1793
  566MOL0     C76277   2.154   1.594   2.171 -0.0400 -0.6780  0.4347
  566MOL0     O76278   2.099   1.725   2.154 -0.5415  1.2859 -0.0058
  566MOL0     C76279   2.174   1.824   2.209  0.1875 -0.9534 -0.1696
  566MOL0     C76280   2.183   1.850   2.344 -0.7488  0.3067 -0.4379
  566MOL0     C76281   2.261   1.955   2.388 -0.5323  0.4223 -1.5736
  566MOL0     C76282   2.323   2.035   2.300  0.1366  0.4023 -0.4073
  566MOL0     O76283   2.388   2.147   2.334 -0.6391  0.8822 -0.1151
  566MOL0     C76284   2.537   2.138   2.311 -0.0692 -0.6504 -0.6074
  566MOL0     C76285   2.621   2.224   2.399 -0.5819 -0.4656  0.4059
  566MOL0     C76286   2.609   2.191   2.546 -0.3507  0.5108  0.8093
  566MOL0     C76287   2.663   2.295   2.633 -1.1206 -0.8428 -0.0932
  566MOL0     C76288   2.815   2.291   2.634 -0.7372 -1.1545 -0.0198
  566MOL0     C76289   2.886   2.392   2.723 -0.2989  0.0206 -0.7109
  566MOL0     C76290   3.044   2.369   2.707  0.3104  1.3419  0.6230
  566MOL0     C76291   3.100   2.485   2.634  0.8203 -1.6487 -0.2848
  566MOL0     N76292   3.232   2.481   2.567 -0.4953 -0.3998  0.5970
  566MOL0     C76293   3.277   2.569   2.478 -0.2156 -0.7869 -0.5485
  566MOL0     C76294   3.398   2.527   2.440  0.6096  0.1678  0.5808
  566MOL0     C76295   3.484   2.589   2.338 -0.5414 -0.7406  1.0217
  566MOL0     C76296   3.488   2.741   2.333 -0.2863  0.8983 -0.4142
  566MOL0     C76297   3.474   2.803   2.198  0.0573  0.0600  0.6587
  566MOL0     C76298   3.573   2.751   2.099  0.0579  0.4924  0.3171
  566MOL0     O76299   3.519   2.772   1.964  0.1176  0.2878  0.1107
  566MOL0     C76300   3.611   2.826   1.882 -1.3730 -0.2797 -0.3110
  566MOL0     C76301   3.643   2.970   1.870 -0.6433  0.3738 -0.9827
  566MOL0     C76302   3.744   3.016   1.780 -0.0952 -0.7584 -0.2441
  566MOL0     C76303   3.768   3.164   1.770  0.5475  0.1451 -0.4064
  566MOL0     C76304   3.808   2.922   1.693  0.4372 -0.3159 -1.0956
  566MOL0     C76305   3.909   2.956   1.593 -1.7484 -0.5671  0.4708
  566MOL0     O76306   3.923   3.083   1.533  0.2212  0.1671 -0.4034
  566MOL0     C76307   4.036   3.108   1.462  0.4765 -0.4847 -0.0690
  566MOL0     C76308   4.139   3.203   1.496 -0.7505  0.9634 -0.1357
  566MOL0     C76309   4.256   3.230   1.424 -0.6365 -0.4954 -0.1581
  566MOL0     C76310   4.267   3.157   1.304 -0.4335  0.1370 -0.3722
  566MOL0     O76311   4.371   3.189   1.221  0.0313 -0.4731  0.6415
  566MOL0     C76312   4.477   3.086   1.208 -0.2318 -0.4289  0.7658
  566MOL0     C76313   4.566   3.111   1.089  0.6049  0.1355 -1.0146
  566MOL0     C76314   4.486   3.125   0.956 -0.1862  0.0528 -0.3045
  566MOL0     C76315   4.597   3.124   0.847  0.1880 -0.8691  0.3610
  566MOL0     C76316   4.564   3.207   0.718  0.6090 -0.0925  0.2335
  566MOL0     C76317   4.668   3.191   0.593  0.6192  0.5116 -0.9690
  566MOL0     C76318   4.757   3.057   0.588 -1.4458  0.7197  0.2501
  566MOL0     C76319   4.904   3.072   0.521 -0.0194 -0.0531 -0.2562
  566MOL0    Cl76320   4.960   2.916   0.484  0.2512  0.4025 -0.2000
  566MOL0     C76321   4.168   3.069   1.256  0.1179 -0.9271  0.4965
  566MOL0     C76322   4.055   3.046   1.336  1.0900 -0.6989  0.7946
  566MOL0     O76323   3.976   2.857   1.551 -0.2401 -0.2749  0.4151
  566MOL0     C76324   3.768   2.787   1.710  0.2019  0.6782 -0.3030
  566MOL0     C76325   3.681   2.740   1.798  0.1752  0.1099  0.1369
  566MOL0     N76326   3.424   2.398   2.494  1.1456 -0.6873 -0.9872
  566MOL0     N76327   3.315   2.369   2.560 -0.4223  0.2978 -0.2550
  566MOL0     C76328   2.305   2.012   2.165 -0.0824 -0.3503 -0.7080
  566MOL0     C76329   2.236   1.912   2.113  0.1869  0.7482 -0.7028
  566MOL0     C76330   2.085   1.477   2.103  0.0446 -0.2040 -1.3571
  566MOL0     C76331   2.151   1.393   2.012 -1.0804 -0.2216 -0.3755
  566MOL0     C76332   2.082   1.280   1.957  0.1562  0.0038 -0.7415
  566MOL0     C76333   1.945   1.258   1.991 -0.3167  0.1394  0.7013
  566MOL0     O76334   1.887   1.136   1.948 -0.6026 -0.2946 -0.4979
  566MOL0     C76335   1.785   1.146   1.852 -0.8435 -0.5011 -0.5226
  566MOL0     C76336   1.855   1.178   1.724 -0.7704 -0.6359 -0.3397
  566MOL0     C76337   1.761   1.157   1.605  0.1561  0.0108  0.8239
  566MOL0     C76338   1.826   1.132   1.467  0.8890 -0.3613 -0.5280
  566MOL0     C76339   1.857   0.991   1.445 -0.3718  0.3777 -0.2609
  566MOL0     C76340   1.861   0.876   1.407 -1.1180 -0.2844  0.8646
  566MOL0     C76341   1.880   1.345   2.079 -0.1030 -0.2973 -1.1871
  566MOL0     C76342   1.952   1.456   2.131 -0.3034  0.0714 -0.0055
  566MOL0     H76343   2.121   1.793   2.413  1.8000 -1.1740  0.7493
  566MOL0     H76344   2.269   1.965   2.496 -4.3610 -0.1026 -1.1078
  566MOL0     H76345   2.572   2.034   2.310 -0.7247 -0.9044  0.7840
  566MOL0     H76346   2.550   2.174   2.209 -2.0906 -1.3558 -1.1670
  566MOL0     H76347   2.723   2.187   2.381 -0.5460  0.4320 -1.4704
  566MOL0     H76348   2.596   2.327   2.374  2.4778  0.7312  1.8157
  566MOL0     H76349   2.504   2.177   2.576 -0.6890 -2.8564 -1.4389
  566MOL0     H76350   2.664   2.100   2.573 -2.8505 -0.5349  2.9030
  566MOL0     H76351   2.620   2.393   2.609 -0.0326 -0.4746 -0.5840
  566MOL0     H76352   2.633   2.273   2.736 -0.6068  0.9879  0.4924
  566MOL0     H76353   2.854   2.189   2.637 -0.6596 -1.1123  0.6689
  566MOL0     H76354   2.828   2.323   2.530  1.6522 -2.2502 -0.1278
  566MOL0     H76355   2.851   2.496   2.723 -0.6906 -0.0902  1.0405
  566MOL0     H76356   2.866   2.366   2.827  3.0670  0.0352  0.0664
  566MOL0     H76357   3.105   2.354   2.797 -1.2574 -3.0391  1.1882
  566MOL0     H76358   3.063   2.277   2.653 -3.1215  0.1022  1.3007
  566MOL0     H76359   3.118   2.560   2.711  4.1199 -4.7171  2.2736
  566MOL0     H76360   3.029   2.513   2.556  2.3193  0.0981 -1.1027
  566MOL0     H76361   3.226   2.662   2.453  0.2961  0.6893  3.1904
  566MOL0     H76362   3.583   2.543   2.338 -0.6374 -0.9839 -0.2846
  566MOL0     H76363   3.431   2.566   2.245  1.0357 -0.7176  0.0712
  566MOL0     H76364   3.586   2.770   2.372  0.1093  0.0367 -0.7562
  566MOL0     H76365   3.412   2.776   2.405 -0.3581  1.0151 -0.5464
  566MOL0     H76366   3.510   2.907   2.197 -1.9615  0.8056  0.0616
  566MOL0     H76367   3.369   2.811   2.168  0.3838 -0.3468 -0.6548
  566MOL0     H76368   3.599   2.646   2.117 -1.4445  0.1998  0.9694
  566MOL0     H76369   3.659   2.816   2.117 -0.2089  1.3161 -1.2520
  566MOL0     H76370   3.593   3.030   1.945 -1.5986 -3.1895  1.5238
  566MOL0     H76371   3.717   3.197   1.678 -2.0070 -2.1726  0.0550
  566MOL0     H76372   3.743   3.223   1.858 -1.0516 -0.8165 -0.1826
  566MOL0     H76373   3.876   3.179   1.760  0.8609 -1.3134  0.5199
  566MOL0     H76374   4.133   3.270   1.581  1.2037  3.9026 -2.0913
  566MOL0     H76375   4.336   3.291   1.465 -1.2289  0.2210 -0.0451
  566MOL0     H76376   4.527   3.100   1.304 -2.9411 -3.7345  2.9217
  566MOL0     H76377   4.451   2.980   1.200  3.4465 -1.3517 -0.7567
  566MOL0     H76378   4.635   3.195   1.106 -0.3211  0.3383  2.5654
  566MOL0     H76379   4.628   3.021   1.088  0.6433 -0.0238  2.5647
  566MOL0     H76380   4.441   3.225   0.959 -0.5004 -0.0735  2.8127
  566MOL0     H76381   4.401   3.058   0.938 -1.0820  0.6941  1.2728
  566MOL0     H76382   4.695   3.160   0.882 -0.5513 -0.3182  1.9701
  566MOL0     H76383   4.617   3.019   0.825 -0.6369 -1.1615  0.9715
  566MOL0     H76384   4.569   3.310   0.754  2.3096 -0.0972  0.1169
  566MOL0     H76385   4.463   3.171   0.697  1.3629 -1.0835 -1.9018
  566MOL0     H76386   4.624   3.199   0.493 -0.3575 -3.5650 -1.0415
  566MOL0     H76387   4.740   3.272   0.608  1.3973  0.1016 -2.3149
  566MOL0     H76388   4.706   2.968   0.550  0.3801 -0.4862  0.4830
  566MOL0     H76389   4.802   3.028   0.684  2.5299 -0.4229 -1.7419
  566MOL0     H76390   4.965   3.119   0.598  0.7216  0.3950 -1.1036
  566MOL0     H76391   4.898   3.139   0.435  1.8364  3.0289  1.8506
  566MOL0     H76392   4.174   3.040   1.152 -2.2207  2.2062 -0.7023
  566MOL0     H76393   3.974   2.988   1.294 -0.7658  2.7807 -0.9015
  566MOL0     H76394   3.815   2.707   1.653 -1.0500 -0.8688  0.7445
  566MOL0     H76395   3.661   2.634   1.811 -1.2840  0.2840 -0.5166
  566MOL0     H76396   2.359   2.071   2.093  1.8444  0.0134  0.9347
  566MOL0     H76397   2.199   1.895   2.012 -0.8141  2.6841 -0.7141
  566MOL0     H76398   2.255   1.412   1.990 -1.4266  3.1114  0.3239
  566MOL0     H76399   2.121   1.203   1.891  0.1398 -1.1021  0.4866
  566MOL0     H76400   1.711   1.066   1.854 -0.8401 -0.6422 -3.0750
  566MOL0     H76401   1.719   1.229   1.880  1.4273 -0.0026  4.6390
  566MOL0     H76402   1.940   1.110   1.712 -2.5465 -2.7128 -1.9019
  566MOL0     H76403   1.884   1.283   1.711  2.4991 -1.6330 -2.6654
  566MOL0     H76404   1.682   1.233   1.601 -1.3919 -1.5248  1.0827
  566MOL0     H76405   1.698   1.072   1.632  0.1545 -1.1205 -2.3730
  566MOL0     H76406   1.925   1.177   1.456  3.1574 -3.7649  3.1670
  566MOL0     H76407   1.761   1.180   1.393  1.7748  0.6261 -0.6881
  566MOL0     H76408   1.855   0.782   1.356 -1.0632  0.3668 -0.3733
  566MOL0     H76409   1.778   1.326   2.108  1.1317 -2.2000  2.5874
  566MOL0     H76410   1.901   1.527   2.195  2.4149  1.6222  0.6124
  567MOL0     O76411   9.794   5.294   6.074 -0.0081  0.4918 -0.5439
  567MOL0     C76412   9.917   5.288   6.061 -0.0482 -0.2483 -0.1522
  567MOL0     O76413   9.992   5.183   6.105 -0.4008  0.0411  0.6549
  567MOL0     C76414   9.946   5.059   6.132  0.5589 -0.3013 -0.8239
  567MOL0     C76415  10.033   4.948   6.122  0.3177 -0.6508  0.5743
  567MOL0     C76416   9.992   4.817   6.152  0.7804 -0.2453 -0.2114
  567MOL0     C76417   9.870   4.785   6.207 -0.0113  0.1519  0.8868
  567MOL0     O76418   9.822   4.660   6.223 -0.4846  0.2327  0.2382
  567MOL0     C76419   9.773   4.598   6.104  0.2214 -0.4796 -0.2693
  567MOL0     C76420   9.735   4.456   6.130  0.3640  2.0611  0.1949
  567MOL0     C76421   9.619   4.430   6.232 -0.5470  0.0706  1.0903
  567MOL0     C76422   9.482   4.498   6.204 -0.0465  0.3778 -0.2878
  567MOL0     C76423   9.378   4.469   6.313 -0.0929  0.0042 -1.1380
  567MOL0     C76424   9.419   4.498   6.460  0.3226 -0.3866 -0.0821
  567MOL0     C76425   9.490   4.640   6.485 -0.0826  0.5072  0.0773
  567MOL0     C76426   9.393   4.749   6.481  0.8428 -0.5421  0.8166
  567MOL0     N76427   9.455   4.876   6.487  1.3025 -0.4451  1.0260
  567MOL0     C76428   9.536   4.921   6.589 -0.3437  1.1416 -1.6841
  567MOL0     C76429   9.577   5.040   6.545  0.6586 -0.1843 -0.1400
  567MOL0     C76430   9.679   5.101   6.635  0.3490  0.7458  0.3170
  567MOL0     C76431   9.732   5.243   6.591 -0.3203  0.8050 -0.4877
  567MOL0     C76432   9.823   5.236   6.466  0.5556 -0.0859 -0.4537
  567MOL0     C76433   9.894   5.368   6.430  0.1248 -0.7286 -0.5385
  567MOL0     O76434   9.990   5.409   6.521  0.0196 -0.1918 -0.0655
  567MOL0     C76435  10.039   5.542   6.499  0.7568  0.3619  0.0047
  567MOL0     C76436  10.152   5.589   6.575 -0.5509 -0.4089 -0.1287
  567MOL0     C76437  10.196   5.723   6.555  0.2379  0.1396  0.1551
  567MOL0     C76438  10.324   5.776   6.625  0.2990 -0.6187  0.4627
  567MOL0     C76439  10.137   5.801   6.448 -0.0376 -0.7032 -0.1026
  567MOL0     C76440  10.182   5.932   6.409 -0.4311  0.0272  0.6797
  567MOL0     O76441  10.131   6.046   6.465  0.6476  0.4468 -0.9726
  567MOL0     C76442  10.192   6.159   6.429 -0.1547  0.4508 -0.5675
  567MOL0     C76443  10.175   6.223   6.309 -0.1104 -0.8549  0.4569
  567MOL0     C76444  10.246   6.347   6.287  0.5332 -0.1789  0.0251
  567MOL0     C76445  10.331   6.402   6.387 -0.7175 -0.8699 -0.5014
  567MOL0     O76446  10.406   6.520   6.365  0.2038  0.6508 -0.1825
  567MOL0     C76447  10.522   6.475   6.309  0.2991 -0.1467 -0.2144
  567MOL0     C76448  10.601   6.599   6.274 -0.2597  0.5967 -0.7089
  567MOL0     C76449  10.563   6.696   6.157  0.3683  0.1453  0.7119
  567MOL0     C76450  10.612   6.843   6.182  0.2937  0.3117  0.1936
  567MOL0     C76451  10.748   6.859   6.231  0.0253  1.2219 -0.2467
  567MOL0     C76452  10.798   7.001   6.258 -0.3831 -0.2654  0.6124
  567MOL0     C76453  10.935   6.999   6.327  0.0212  0.0941 -0.1216
  567MOL0     C76454  10.990   7.144   6.346 -0.4616  0.2909  0.2582
  567MOL0    Cl76455  10.909   7.225   6.474 -0.2140 -0.3333 -0.8640
  567MOL0     C76456  10.330   6.341   6.516 -0.1505  0.2591 -0.2134
  567MOL0     C76457  10.272   6.214   6.525  0.5672  0.0876 -0.1472
  567MOL0     O76458  10.290   5.930   6.345  0.1586 -0.5197  0.1434
  567MOL0     C76459  10.039   5.752   6.367 -0.6063  0.1402 -0.9649
  567MOL0     C76460   9.992   5.621   6.391 -0.2786  0.6857  1.2244
  567MOL0     N76461   9.537   5.063   6.416  0.7324 -0.3346  0.6194
  567MOL0     N76462   9.471   4.960   6.382  0.1837 -0.2377 -0.6686
  567MOL0     C76463   9.786   4.893   6.224 -0.5774 -0.3915 -0.4001
  567MOL0     C76464   9.821   5.023   6.193 -0.1053  0.4522 -0.1129
  567MOL0     C76465   9.985   5.418   6.027 -0.0248 -0.3142  0.5212
  567MOL0     C76466  10.121   5.425   6.015 -0.5697 -0.4203 -0.1366
  567MOL0     C76467  10.184   5.546   5.988 -0.6471  1.3219 -0.0394
  567MOL0     C76468  10.117   5.660   5.984  0.4086 -0.8367 -0.0216
  567MOL0     O76469  10.181   5.771   5.934  0.2587  0.9985  0.3802
  567MOL0     C76470  10.175   5.897   6.001 -0.3172 -0.0111 -0.2078
  567MOL0     C76471  10.199   6.002   5.896  0.6459 -0.2069 -0.5836
  567MOL0     C76472  10.224   6.137   5.957 -0.0546  0.7533  1.0028
  567MOL0     C76473  10.099   6.234   5.959  0.0186  0.0727 -0.9029
  567MOL0     C76474   9.964   6.178   5.986  0.8701  0.3161  0.8633
  567MOL0     C76475   9.850   6.152   6.005 -0.1614 -0.2252  0.5465
  567MOL0     C76476   9.972   5.658   5.984 -0.3576 -0.0366 -0.5617
  567MOL0     C76477   9.911   5.544   6.021  0.3391  0.1367  0.2082
  567MOL0     H76478  10.121   4.991   6.075 -1.5538  2.1553 -0.6022
  567MOL0     H76479  10.066   4.746   6.116  1.6210  1.3214 -1.7696
  567MOL0     H76480   9.685   4.655   6.073  0.3518  1.8477  3.0985
  567MOL0     H76481   9.845   4.598   6.022 -0.4295  1.7043 -0.9058
  567MOL0     H76482   9.706   4.419   6.032  0.8602  1.4577  0.2638
  567MOL0     H76483   9.826   4.396   6.142  0.3692  2.0060 -0.1234
  567MOL0     H76484   9.619   4.321   6.243  0.0291 -0.5533 -3.2266
  567MOL0     H76485   9.650   4.463   6.331 -0.1870 -0.9883  1.3422
  567MOL0     H76486   9.492   4.606   6.191 -0.4956  0.8862  2.8229
  567MOL0     H76487   9.456   4.459   6.105 -0.1961 -1.3843  0.4144
  567MOL0     H76488   9.290   4.530   6.293 -0.8042 -0.6821 -0.2036
  567MOL0     H76489   9.346   4.366   6.292 -0.0910 -0.1081 -0.6113
  567MOL0     H76490   9.338   4.488   6.533  0.3239  1.1792  0.1578
  567MOL0     H76491   9.487   4.417   6.489 -1.3672 -1.0082  2.4635
  567MOL0     H76492   9.548   4.638   6.577 -1.7652 -1.7043  1.2012
  567MOL0     H76493   9.570   4.657   6.412 -0.3398 -0.4241 -0.4510
  567MOL0     H76494   9.329   4.744   6.570  2.1291  2.7425  2.1032
  567MOL0     H76495   9.327   4.733   6.395  2.0064 -0.8448 -0.0476
  567MOL0     H76496   9.569   4.875   6.682 -0.0195  0.2836 -2.2158
  567MOL0     H76497   9.640   5.114   6.737  2.6814  0.8570  1.2682
  567MOL0     H76498   9.764   5.032   6.639 -1.3296 -1.3953  0.8087
  567MOL0     H76499   9.790   5.284   6.674  4.1182  1.2509 -3.4406
  567MOL0     H76500   9.654   5.315   6.564 -0.8807  0.9659  1.4423
  567MOL0     H76501   9.767   5.201   6.379 -3.3553 -1.2811  2.2743
  567MOL0     H76502   9.899   5.158   6.477  0.6936  0.3230  2.0912
  567MOL0     H76503   9.819   5.447   6.423  0.6667 -0.1969 -0.3876
  567MOL0     H76504   9.944   5.360   6.333  3.7264 -3.8156  1.2817
  567MOL0     H76505  10.190   5.543   6.666  1.0387  0.3580 -0.3808
  567MOL0     H76506  10.416   5.718   6.613  2.7856  3.2949 -1.6166
  567MOL0     H76507  10.369   5.866   6.581 -0.2153 -0.2896  0.5891
  567MOL0     H76508  10.312   5.787   6.733 -2.1431 -0.8066  0.2809
  567MOL0     H76509  10.101   6.185   6.239  0.3965 -1.0094 -0.0030
  567MOL0     H76510  10.231   6.403   6.195  0.0480  0.1658  0.3081
  567MOL0     H76511  10.585   6.419   6.379  4.1242  2.5920 -1.1350
  567MOL0     H76512  10.510   6.417   6.217 -0.3678 -0.2821 -0.0459
  567MOL0     H76513  10.592   6.660   6.364 -0.0622  2.9740 -2.2187
  567MOL0     H76514  10.710   6.592   6.272 -0.1787  1.8219 -1.1025
  567MOL0     H76515  10.454   6.696   6.142  0.5766  2.2270 -1.3018
  567MOL0     H76516  10.607   6.653   6.066 -0.5809 -0.7593  0.6477
  567MOL0     H76517  10.600   6.893   6.085 -2.6477 -3.1899 -1.4911
  567MOL0     H76518  10.551   6.881   6.264  1.2948 -2.7735  2.5304
  567MOL0     H76519  10.818   6.800   6.171 -0.8973 -1.1667  0.9097
  567MOL0     H76520  10.750   6.814   6.331 -2.6341 -0.1363 -0.7200
  567MOL0     H76521  10.802   7.048   6.159  0.6467  2.3368  1.7793
  567MOL0     H76522  10.727   7.060   6.317 -1.5656  1.1954 -2.0859
  567MOL0     H76523  11.005   6.940   6.267  0.0132 -1.9347  1.7453
  567MOL0     H76524  10.914   6.950   6.422  1.2240  0.1847  0.2032
  567MOL0     H76525  10.978   7.195   6.250 -0.6006 -1.2716 -0.5882
  567MOL0     H76526  11.099   7.136   6.358  0.0966  0.7416 -3.4508
  567MOL0     H76527  10.394   6.377   6.596 -2.3975  1.6457  1.0404
  567MOL0     H76528  10.289   6.149   6.611  0.9815  2.4883  1.7006
  567MOL0     H76529  10.005   5.812   6.284 -0.1402  3.6617  1.1914
  567MOL0     H76530   9.932   5.585   6.308 -2.1217  3.1470  1.3781
  567MOL0     H76531   9.687   4.881   6.267 -0.9309  3.4159  0.1779
  567MOL0     H76532   9.741   5.095   6.206  2.2652  3.3851 -0.5066
  567MOL0     H76533  10.180   5.334   6.022  0.1188 -0.0489 -0.9741
  567MOL0     H76534  10.290   5.548   5.965 -0.1706  3.2578  1.9554
  567MOL0     H76535  10.070   5.912   6.028 -0.6369 -0.3410 -1.2179
  567MOL0     H76536  10.247   5.904   6.083  1.0252 -3.3945 -0.9485
  567MOL0     H76537  10.115   6.009   5.827 -2.2142 -2.0357  2.3843
  567MOL0     H76538  10.287   5.978   5.835 -0.9278 -1.0852 -2.6204
  567MOL0     H76539  10.301   6.185   5.896  1.7639 -2.4940  0.5647
  567MOL0     H76540  10.275   6.127   6.053 -1.3477 -0.6033  1.6010
  567MOL0     H76541  10.114   6.274   5.858  0.1269  0.6836 -0.6496
  567MOL0     H76542  10.118   6.328   6.012  1.8712 -0.9289  0.3110
  567MOL0     H76543   9.745   6.138   6.022  0.0450  0.0851  2.2043
  567MOL0     H76544   9.910   5.745   5.963  1.7632  1.1547 -2.2595
  567MOL0     H76545   9.809   5.559   6.053  0.8468 -0.6674  2.3887
  568MOL0     O76546   7.167   8.000   9.617  0.0283 -0.5081 -0.2667
  568MOL0     C76547   7.213   7.912   9.548 -0.4741  0.4740 -0.9730
  568MOL0     O76548   7.296   7.807   9.587  0.1019  0.1070  0.3725
  568MOL0     C76549   7.341   7.778   9.706  0.1684 -0.5637  0.3588
  568MOL0     C76550   7.299   7.840   9.823 -0.8848  0.2874  0.1193
  568MOL0     C76551   7.336   7.796   9.951  0.2273 -1.3565  0.3965
  568MOL0     C76552   7.410   7.680   9.960  0.7587  0.4464 -0.3054
  568MOL0     O76553   7.430   7.641  10.094  0.5371 -0.3224 -0.3739
  568MOL0     C76554   7.459   7.494  10.115 -1.2797  0.0072 -0.8635
  568MOL0     C76555   7.493   7.462  10.270  0.0732 -0.4271  0.8512
  568MOL0     C76556   7.617   7.543  10.318 -0.5119  0.1837 -0.6861
  568MOL0     C76557   7.641   7.512  10.465 -0.2751 -0.3193 -0.0868
  568MOL0     C76558   7.767   7.565  10.533 -0.0712 -0.3160 -0.2397
  568MOL0     C76559   7.779   7.514  10.681 -0.9529  0.0903 -0.0262
  568MOL0     C76560   7.923   7.538  10.724  0.2084  0.0148 -0.4684
  568MOL0     C76561   7.926   7.574  10.870 -1.3401  0.2429  0.3744
  568MOL0     N76562   8.075   7.586  10.892  0.5747  0.1777 -0.5105
  568MOL0     C76563   8.181   7.500  10.869 -0.0609  0.1033  0.5323
  568MOL0     C76564   8.299   7.566  10.882 -0.6897  0.5574  0.1748
  568MOL0     C76565   8.437   7.521  10.864 -0.0608  0.1669  0.0138
  568MOL0     C76566   8.474   7.410  10.961 -0.9188 -0.2005  0.0322
  568MOL0     C76567   8.435   7.267  10.935 -0.5403  0.0512  0.3432
  568MOL0     C76568   8.388   7.184  11.056  1.0148  0.8125  0.2985
  568MOL0     O76569   8.243   7.200  11.073  0.5221 -0.6923 -0.0943
  568MOL0     C76570   8.169   7.110  11.148  1.1595  0.6286 -1.6447
  568MOL0     C76571   8.222   7.002  11.222 -0.7429 -0.6533 -0.4401
  568MOL0     C76572   8.144   6.905  11.289  0.0429 -0.5035  0.1352
  568MOL0     C76573   8.224   6.798  11.356 -0.2775 -0.4506 -0.7875
  568MOL0     C76574   8.004   6.928  11.277 -0.3000 -0.3264  0.3122
  568MOL0     C76575   7.897   6.836  11.325  0.3740 -0.0445 -0.6101
  568MOL0     O76576   7.759   6.886  11.318  0.2792 -0.5516  0.4353
  568MOL0     C76577   7.674   6.836  11.411  0.8640 -0.4828 -0.4461
  568MOL0     C76578   7.560   6.774  11.370  0.6795 -0.8090  1.0742
  568MOL0     C76579   7.462   6.731  11.469 -0.7655  1.1595 -0.6215
  568MOL0     C76580   7.472   6.779  11.600  0.3783 -0.2845  0.3110
  568MOL0     O76581   7.360   6.771  11.681 -0.4067 -0.4361 -0.3315
  568MOL0     C76582   7.382   6.742  11.822  0.1255  0.3823  0.9884
  568MOL0     C76583   7.242   6.744  11.880 -1.0708 -0.9424  0.4018
  568MOL0     C76584   7.162   6.624  11.835 -0.4601 -0.5473  0.0298
  568MOL0     C76585   7.039   6.600  11.923  0.4169  0.7276 -0.2164
  568MOL0     C76586   6.984   6.458  11.904 -0.3403 -0.2492 -0.5658
  568MOL0     C76587   7.075   6.349  11.968 -0.5567 -0.6534  0.3556
  568MOL0     C76588   7.006   6.218  11.962  0.7400  0.1173  0.4901
  568MOL0     C76589   7.079   6.115  12.047  0.0180 -0.4086 -0.0003
  568MOL0    Cl76590   7.216   6.037  11.949 -0.1309 -0.2725  0.4689
  568MOL0     C76591   7.593   6.851  11.631 -0.0242 -0.1897  0.0565
  568MOL0     C76592   7.694   6.875  11.545 -0.3077  0.4239 -0.6754
  568MOL0     O76593   7.917   6.720  11.357 -0.7102  0.5807  0.0606
  568MOL0     C76594   7.949   7.042  11.208  0.5387 -0.3790 -0.0451
  568MOL0     C76595   8.033   7.133  11.145  1.0308 -0.4889  0.4496
  568MOL0     N76596   8.259   7.691  10.923 -1.6407 -0.9722  0.6111
  568MOL0     N76597   8.128   7.700  10.933  0.3453 -0.3932 -0.8846
  568MOL0     C76598   7.469   7.620   9.845 -0.2308 -0.6438  1.5163
  568MOL0     C76599   7.427   7.671   9.716 -0.5406 -0.1793 -0.3758
  568MOL0     C76600   7.193   7.927   9.406  0.2002  0.0797  0.2848
  568MOL0     C76601   7.254   7.839   9.311  0.6022 -0.0076 -0.8407
  568MOL0     C76602   7.235   7.850   9.172 -0.8022  0.1007 -0.7703
  568MOL0     C76603   7.193   7.974   9.122  0.3523  0.0913 -0.1757
  568MOL0     O76604   7.187   7.979   8.986  0.2755  0.4122  0.3332
  568MOL0     C76605   7.156   8.110   8.925 -0.4783  0.8233  0.1168
  568MOL0     C76606   7.125   8.090   8.777 -0.5417 -0.0215  0.2954
  568MOL0     C76607   7.240   8.019   8.705  0.6211  0.2590 -0.0141
  568MOL0     C76608   7.207   7.995   8.561 -0.5220  0.0264 -0.0335
  568MOL0     C76609   7.325   7.957   8.477 -0.1226  0.2517  0.5460
  568MOL0     C76610   7.428   7.923   8.419  0.3574  0.5522  0.1889
  568MOL0     C76611   7.156   8.076   9.214  0.9304 -0.2733  1.0635
  568MOL0     C76612   7.158   8.054   9.348  0.0451 -0.0054 -0.1516
  568MOL0     H76613   7.229   7.924   9.825 -1.9916 -0.3742 -3.5545
  568MOL0     H76614   7.294   7.852  10.034  0.1334 -2.0801  0.8509
  568MOL0     H76615   7.375   7.428  10.090 -0.3378 -0.8395 -1.9657
  568MOL0     H76616   7.543   7.457  10.056 -0.1558 -0.2355  0.8350
  568MOL0     H76617   7.403   7.464  10.332  0.3546 -0.5505  1.2642
  568MOL0     H76618   7.514   7.355  10.272 -0.5941 -0.7252 -2.2490
  568MOL0     H76619   7.709   7.511  10.267 -0.7550 -4.5611  1.3692
  568MOL0     H76620   7.596   7.650  10.307  0.0787  0.1895 -1.9097
  568MOL0     H76621   7.551   7.558  10.507 -0.8749 -0.6067 -1.0296
  568MOL0     H76622   7.630   7.405  10.481 -1.0547 -0.1106  0.8871
  568MOL0     H76623   7.849   7.517  10.478 -0.3514 -2.3389  1.0172
  568MOL0     H76624   7.765   7.674  10.528 -3.4081 -0.3079 -2.4358
  568MOL0     H76625   7.700   7.556  10.743  0.8917  0.2202  2.3451
  568MOL0     H76626   7.752   7.408  10.684 -3.4896  0.7004  2.1697
  568MOL0     H76627   7.983   7.447  10.712  1.6045  0.6289  1.4227
  568MOL0     H76628   7.966   7.619  10.664 -0.5437  2.5037  2.1159
  568MOL0     H76629   7.890   7.486  10.924  1.8594 -1.4923 -0.0775
  568MOL0     H76630   7.874   7.670  10.880 -1.7495  0.3418 -2.0318
  568MOL0     H76631   8.166   7.405  10.820 -0.5729  0.3772  0.1458
  568MOL0     H76632   8.450   7.475  10.766  0.3599  0.2483  0.0287
  568MOL0     H76633   8.506   7.605  10.862  0.6401 -0.4126 -1.1464
  568MOL0     H76634   8.436   7.431  11.062  0.1984 -0.7044  0.5776
  568MOL0     H76635   8.582   7.414  10.979 -0.9253  0.0617  0.0199
  568MOL0     H76636   8.508   7.210  10.878 -0.5137 -0.0145  0.4422
  568MOL0     H76637   8.355   7.272  10.861 -1.1628 -2.1068  0.8090
  568MOL0     H76638   8.431   7.201  11.155  1.6725 -0.2611  0.2079
  568MOL0     H76639   8.410   7.078  11.037 -0.9274  0.8359 -2.8111
  568MOL0     H76640   8.328   6.977  11.221 -1.0759 -2.1667 -1.1159
  568MOL0     H76641   8.193   6.701  11.316  1.6652 -1.1564 -0.7230
  568MOL0     H76642   8.328   6.794  11.322 -0.3770  2.0258 -1.5821
  568MOL0     H76643   8.244   6.794  11.463  3.4087 -0.4722 -1.3465
  568MOL0     H76644   7.553   6.718  11.277 -1.0446  1.2833 -0.1632
  568MOL0     H76645   7.378   6.667  11.442 -0.3088  0.4604 -0.3996
  568MOL0     H76646   7.422   6.640  11.828  1.7625  0.8490 -0.9666
  568MOL0     H76647   7.445   6.821  11.864 -1.5532  1.8713  0.7897
  568MOL0     H76648   7.258   6.748  11.988 -1.6262 -3.1824  0.6317
  568MOL0     H76649   7.180   6.833  11.863  1.4898  0.9183  0.3301
  568MOL0     H76650   7.224   6.535  11.844 -1.6304 -1.5913 -1.6177
  568MOL0     H76651   7.133   6.635  11.730  0.3184 -2.8690 -0.4764
  568MOL0     H76652   7.060   6.619  12.029  0.2079 -0.2782  0.0162
  568MOL0     H76653   6.973   6.682  11.892 -0.1397 -0.9190 -3.8354
  568MOL0     H76654   6.980   6.425  11.800 -0.5390  0.1795 -0.6997
  568MOL0     H76655   6.881   6.468  11.940  0.9146  4.3254  2.6041
  568MOL0     H76656   7.181   6.345  11.939  0.2413  0.6982  2.7536
  568MOL0     H76657   7.067   6.389  12.070 -1.5048  0.8640 -0.2800
  568MOL0     H76658   7.001   6.183  11.859 -2.0369  0.7265  0.3466
  568MOL0     H76659   6.904   6.238  11.994 -0.3039  0.7645 -2.8170
  568MOL0     H76660   7.002   6.044  12.078 -1.2988  1.4417  1.1764
  568MOL0     H76661   7.120   6.164  12.136  1.8125  1.2369 -1.6396
  568MOL0     H76662   7.610   6.884  11.733  0.8738  0.7000 -0.3612
  568MOL0     H76663   7.769   6.943  11.583 -0.6443  0.5079 -0.1413
  568MOL0     H76664   7.848   7.076  11.190  0.7928  0.9575  0.8536
  568MOL0     H76665   7.997   7.212  11.079  0.1160 -0.6826  0.7075
  568MOL0     H76666   7.537   7.537   9.859  4.3297  2.1275 -1.4333
  568MOL0     H76667   7.448   7.624   9.620  1.7688  1.6585 -0.8934
  568MOL0     H76668   7.314   7.758   9.351  1.7861  1.5414  0.6499
  568MOL0     H76669   7.256   7.769   9.102  2.9320  1.4824 -1.4935
  568MOL0     H76670   7.072   8.167   8.968 -0.4270  1.9922 -1.2793
  568MOL0     H76671   7.249   8.167   8.926  1.1265 -1.3207 -4.0793
  568MOL0     H76672   7.114   8.185   8.724  1.5737  0.1879  0.1535
  568MOL0     H76673   7.039   8.027   8.751  0.5235 -1.4150  0.0703
  568MOL0     H76674   7.244   7.921   8.755 -5.8734  0.3254  1.6208
  568MOL0     H76675   7.328   8.082   8.706  0.8245  0.1005 -2.5351
  568MOL0     H76676   7.156   8.088   8.534 -0.9518  0.2021  1.3304
  568MOL0     H76677   7.128   7.920   8.551 -1.1377  0.8929 -2.3199
  568MOL0     H76678   7.514   7.876   8.376  0.1151 -0.2727  0.5806
  568MOL0     H76679   7.128   8.179   9.192  0.6922 -0.0367  2.3731
  568MOL0     H76680   7.123   8.133   9.414 -2.8719 -1.7994  0.5887
  569MOL0     O76681   4.252   2.219   3.146 -0.2011 -0.1119 -0.1620
  569MOL0     C76682   4.250   2.213   3.025 -0.0437  0.0623  0.6666
  569MOL0     O76683   4.295   2.305   2.944 -0.2904 -0.0811 -0.2518
  569MOL0     C76684   4.315   2.429   2.993  0.1237 -0.3243 -0.0658
  569MOL0     C76685   4.195   2.495   3.010 -0.5449 -0.2893  0.0378
  569MOL0     C76686   4.194   2.628   3.051 -0.2652 -0.1396 -0.5933
  569MOL0     C76687   4.315   2.697   3.094 -0.3551  0.4217 -0.3148
  569MOL0     O76688   4.297   2.827   3.131 -0.0566  0.6312  0.6946
  569MOL0     C76689   4.382   2.930   3.076 -1.0672  0.5128 -0.4334
  569MOL0     C76690   4.290   3.052   3.074  0.6857  0.2162  0.0725
  569MOL0     C76691   4.149   3.035   3.028 -0.4651 -0.0916 -0.3695
  569MOL0     C76692   4.148   2.968   2.898  0.4919 -0.5347 -0.1087
  569MOL0     C76693   4.034   3.020   2.813 -0.2087  0.5733 -0.1070
  569MOL0     C76694   4.056   3.150   2.743  0.6986 -0.9443  0.2400
  569MOL0     C76695   3.921   3.193   2.672 -0.6510  0.2630  0.2706
  569MOL0     C76696   3.888   3.339   2.681  0.2322  0.2472  0.4638
  569MOL0     N76697   3.883   3.382   2.825 -0.3606  0.3644  0.0400
  569MOL0     C76698   3.936   3.494   2.880 -0.7860 -0.1984 -0.8532
  569MOL0     C76699   3.892   3.485   3.008 -0.8708  0.0823 -0.2787
  569MOL0     C76700   3.908   3.589   3.121 -0.7903  0.3683  0.9941
  569MOL0     C76701   4.061   3.611   3.162  0.1510 -0.3747  0.3333
  569MOL0     C76702   4.134   3.475   3.187 -0.5834 -0.1834 -0.5580
  569MOL0     C76703   4.141   3.455   3.337  0.0750  0.5421  0.3346
  569MOL0     O76704   4.185   3.326   3.370  0.2730  0.6334 -0.3141
  569MOL0     C76705   4.239   3.295   3.492  0.0091  0.7121 -0.7219
  569MOL0     C76706   4.235   3.380   3.604  0.4056  1.0472 -0.3793
  569MOL0     C76707   4.291   3.338   3.729  0.0424  0.1637  0.6699
  569MOL0     C76708   4.263   3.432   3.847  0.8232  0.6801 -0.2067
  569MOL0     C76709   4.362   3.218   3.740 -0.1220 -0.9175 -1.0117
  569MOL0     C76710   4.421   3.162   3.872  0.0839 -0.0914  0.6727
  569MOL0     O76711   4.349   3.175   3.981 -0.2936  0.0293  0.2168
  569MOL0     C76712   4.425   3.147   4.096 -0.6532  0.1187  0.6046
  569MOL0     C76713   4.428   3.022   4.160 -0.1508 -0.5594  0.3373
  569MOL0     C76714   4.508   3.005   4.279  0.0920 -0.7673  0.1431
  569MOL0     C76715   4.565   3.122   4.339 -0.3673 -0.6999 -0.6647
  569MOL0     O76716   4.623   3.123   4.460 -0.0310  0.4373 -0.0353
  569MOL0     C76717   4.642   2.998   4.536 -0.7483  0.4304 -0.2066
  569MOL0     C76718   4.510   2.946   4.595 -0.2790 -0.4206 -0.7957
  569MOL0     C76719   4.486   2.799   4.599 -0.5253  0.8950 -0.5916
  569MOL0     C76720   4.336   2.778   4.630  0.6071  0.8784 -0.7294
  569MOL0     C76721   4.302   2.633   4.601 -0.3820 -0.2076 -0.1614
  569MOL0     C76722   4.155   2.600   4.596  0.2307 -0.4144  0.2059
  569MOL0     C76723   4.122   2.462   4.557  0.3419  0.0097  0.1429
  569MOL0     C76724   4.133   2.444   4.402 -0.0963  0.4386 -0.1891
  569MOL0    Cl76725   4.007   2.549   4.329 -0.2429  0.1602  0.6178
  569MOL0     C76726   4.561   3.245   4.275  0.7530 -0.2728 -0.0602
  569MOL0     C76727   4.493   3.256   4.153 -0.8331  0.1274  0.2555
  569MOL0     O76728   4.538   3.123   3.860  0.1755 -0.6723  0.3565
  569MOL0     C76729   4.375   3.151   3.614 -0.0615 -0.5237 -0.8168
  569MOL0     C76730   4.316   3.182   3.495  0.9920  0.6758  0.9452
  569MOL0     N76731   3.830   3.370   3.031  0.2910 -0.9248 -0.3685
  569MOL0     N76732   3.818   3.309   2.919 -0.4132  0.3360 -0.3138
  569MOL0     C76733   4.433   2.625   3.075 -0.5913 -0.2910  0.0605
  569MOL0     C76734   4.439   2.487   3.040  0.4150 -0.3045  0.5736
  569MOL0     C76735   4.207   2.089   2.959 -0.2846 -0.3236  0.4311
  569MOL0     C76736   4.190   2.083   2.814  0.3391  0.3956 -0.3761
  569MOL0     C76737   4.147   1.963   2.746 -0.2597 -0.7391 -0.3784
  569MOL0     C76738   4.129   1.841   2.823  0.6446 -0.7060  0.4353
  569MOL0     O76739   4.111   1.717   2.781  0.1325  0.4773 -0.0089
  569MOL0     C76740   4.139   1.686   2.644 -1.1000 -0.1024  0.2647
  569MOL0     C76741   4.162   1.533   2.633 -0.2437  0.1181  0.0861
  569MOL0     C76742   4.045   1.449   2.689  0.0410 -0.0465  0.0695
  569MOL0     C76743   4.089   1.298   2.694 -0.6052 -0.0001 -0.7766
  569MOL0     C76744   4.017   1.208   2.780 -0.4626  0.1626  0.2479
  569MOL0     C76745   3.961   1.129   2.854  0.1910 -0.0538  0.7903
  569MOL0     C76746   4.127   1.845   2.959 -0.5962 -0.0127 -0.5383
  569MOL0     C76747   4.176   1.966   3.029  0.3428 -0.3810  0.5570
  569MOL0     H76748   4.097   2.457   2.984 -1.6010  0.9580  1.9278
  569MOL0     H76749   4.102   2.687   3.050 -0.6817 -0.7787 -1.0083
  569MOL0     H76750   4.467   2.948   3.141 -1.4566 -0.7201  0.4636
  569MOL0     H76751   4.415   2.904   2.975  1.7891  2.3802 -0.0681
  569MOL0     H76752   4.287   3.085   3.179 -0.6015  1.0757 -0.2124
  569MOL0     H76753   4.340   3.131   3.017 -2.1772  1.2806 -1.1480
  569MOL0     H76754   4.098   2.968   3.097  1.4881 -4.3631 -2.6822
  569MOL0     H76755   4.115   3.139   3.033  0.8760  0.4100 -0.9464
  569MOL0     H76756   4.240   2.977   2.840  0.4772 -1.3447 -0.2668
  569MOL0     H76757   4.135   2.859   2.902  0.2959 -0.5148 -0.2189
  569MOL0     H76758   4.001   2.941   2.745 -0.3998 -0.5760  1.2658
  569MOL0     H76759   3.948   3.034   2.878 -0.7542  4.6882 -1.4409
  569MOL0     H76760   4.066   3.219   2.827  0.2204 -1.4529  0.7155
  569MOL0     H76761   4.139   3.158   2.671 -1.3206  1.3253 -2.0577
  569MOL0     H76762   3.928   3.157   2.568  0.4472  0.5346  0.2347
  569MOL0     H76763   3.833   3.144   2.714 -2.0559  2.0766 -0.4582
  569MOL0     H76764   3.800   3.361   2.620  1.7648  0.9491 -1.6111
  569MOL0     H76765   3.968   3.394   2.630  1.1993 -1.8946 -0.4500
  569MOL0     H76766   3.984   3.576   2.827 -0.7535  0.5314  0.2681
  569MOL0     H76767   3.849   3.675   3.088 -4.1038 -2.2918 -0.6186
  569MOL0     H76768   3.855   3.557   3.211  0.9354 -4.9234  0.4580
  569MOL0     H76769   4.084   3.689   3.235 -0.0984  0.6797 -0.6741
  569MOL0     H76770   4.107   3.655   3.072 -0.3482  1.2447  0.8335
  569MOL0     H76771   4.236   3.482   3.148  0.1495  2.1078  1.4813
  569MOL0     H76772   4.081   3.391   3.142 -2.2101 -0.4723  1.7377
  569MOL0     H76773   4.036   3.470   3.365  0.1943  1.6646  0.2447
  569MOL0     H76774   4.205   3.536   3.375 -0.0561  2.2416 -2.7013
  569MOL0     H76775   4.172   3.468   3.597  2.8149  2.9116 -0.2877
  569MOL0     H76776   4.211   3.523   3.818  0.6143  0.5251 -0.3217
  569MOL0     H76777   4.205   3.363   3.909  3.0838 -0.5269  0.7189
  569MOL0     H76778   4.350   3.451   3.911  0.1381 -2.5872  1.9560
  569MOL0     H76779   4.367   2.940   4.122  0.7974 -0.7353 -0.8597
  569MOL0     H76780   4.521   2.900   4.306 -0.8998 -2.2804 -4.3798
  569MOL0     H76781   4.698   2.920   4.483  1.3274 -0.9371  3.6344
  569MOL0     H76782   4.705   3.036   4.617 -0.6659  1.9462 -0.9493
  569MOL0     H76783   4.488   2.974   4.699  0.8215 -0.4115 -0.5469
  569MOL0     H76784   4.440   2.995   4.527  0.3133 -2.4650 -3.0131
  569MOL0     H76785   4.550   2.756   4.676  0.3274 -0.1417 -1.8185
  569MOL0     H76786   4.501   2.742   4.506 -0.0912 -1.0111  0.5955
  569MOL0     H76787   4.312   2.809   4.732 -1.1369  0.9718 -1.1401
  569MOL0     H76788   4.274   2.838   4.562 -3.3934  0.4507  2.1709
  569MOL0     H76789   4.349   2.559   4.666 -1.0985 -2.2645 -1.8770
  569MOL0     H76790   4.328   2.610   4.497 -0.4303  1.6027 -0.6074
  569MOL0     H76791   4.126   2.619   4.700 -0.9976 -0.3107 -0.1352
  569MOL0     H76792   4.107   2.672   4.529  0.2598  1.3880  2.0254
  569MOL0     H76793   4.027   2.427   4.598  3.0375 -4.5571  3.5276
  569MOL0     H76794   4.197   2.404   4.611 -0.0198  0.7295  1.4708
  569MOL0     H76795   4.108   2.340   4.379 -1.6580  1.0713 -1.5105
  569MOL0     H76796   4.230   2.468   4.358  0.9752 -1.2125  1.1325
  569MOL0     H76797   4.582   3.334   4.335 -1.6327  0.8683 -0.7945
  569MOL0     H76798   4.492   3.354   4.106 -0.0836 -0.6031 -1.3825
  569MOL0     H76799   4.444   3.067   3.612 -0.5831 -0.9452 -1.6798
  569MOL0     H76800   4.331   3.128   3.402  3.7868  2.9143 -0.0442
  569MOL0     H76801   4.527   2.676   3.093 -1.2146  1.4727 -1.4115
  569MOL0     H76802   4.531   2.432   3.026  0.8567  0.7685 -1.1871
  569MOL0     H76803   4.220   2.168   2.755  2.5650 -1.2783 -1.8373
  569MOL0     H76804   4.155   1.955   2.638  4.4523 -4.8575 -0.0863
  569MOL0     H76805   4.050   1.694   2.580 -1.3496 -1.4773  0.4186
  569MOL0     H76806   4.229   1.736   2.609 -1.8193  1.6879  0.8367
  569MOL0     H76807   4.247   1.508   2.697 -0.8524 -0.4524  0.6862
  569MOL0     H76808   4.195   1.493   2.536  0.2153  5.1232 -2.1389
  569MOL0     H76809   3.960   1.469   2.624 -1.5989  3.0451  2.8383
  569MOL0     H76810   4.029   1.495   2.787 -3.4864 -0.1828 -0.3122
  569MOL0     H76811   4.194   1.298   2.727 -0.9522  2.2264  0.5671
  569MOL0     H76812   4.081   1.250   2.597 -0.1127 -0.7132 -0.4759
  569MOL0     H76813   3.899   1.070   2.919 -1.1871  2.1966  1.6458
  569MOL0     H76814   4.110   1.748   3.005  2.4420 -0.9019 -1.0513
  569MOL0     H76815   4.200   1.972   3.135  1.3542 -2.2700  0.4729
  570MOL0     O76816   5.867   1.720   4.281  0.2642  0.4355  0.8827
  570MOL0     C76817   5.963   1.802   4.303  0.1241  0.6814 -0.1436
  570MOL0     O76818   6.037   1.869   4.211  0.8284  0.4259  0.8206
  570MOL0     C76819   6.005   1.863   4.079  0.3156 -0.1408 -0.2205
  570MOL0     C76820   5.865   1.872   4.036 -0.7120  0.2814 -0.0527
  570MOL0     C76821   5.837   1.902   3.905  0.1889  0.5724  0.1581
  570MOL0     C76822   5.939   1.899   3.808 -1.0319  0.2409 -1.3721
  570MOL0     O76823   5.932   1.932   3.675 -0.2458 -0.1821  0.2777
  570MOL0     C76824   5.820   2.016   3.631 -0.0437 -0.1814  0.0080
  570MOL0     C76825   5.734   1.942   3.532  0.4408 -0.1775  0.5066
  570MOL0     C76826   5.624   1.850   3.589  0.7999 -0.6133 -0.4858
  570MOL0     C76827   5.505   1.927   3.651 -0.1303  0.3549  0.2917
  570MOL0     C76828   5.393   1.977   3.560 -0.4550 -0.3562 -0.1564
  570MOL0     C76829   5.262   2.025   3.615 -0.2681 -0.6796 -0.1045
  570MOL0     C76830   5.169   1.911   3.649  0.0615 -0.6541 -0.0208
  570MOL0     C76831   5.023   1.946   3.631 -0.0782  0.1389  0.0273
  570MOL0     N76832   4.931   1.825   3.668 -0.2370  0.2550 -0.1330
  570MOL0     C76833   4.889   1.815   3.799 -1.2914  0.1989 -0.8786
  570MOL0     C76834   4.833   1.692   3.807  0.5618 -0.0593  0.1656
  570MOL0     C76835   4.784   1.619   3.929 -0.7565 -0.2130 -0.0099
  570MOL0     C76836   4.904   1.550   4.018  0.7611 -0.2043  0.8759
  570MOL0     C76837   5.001   1.648   4.093 -0.8749  0.8173 -0.2651
  570MOL0     C76838   4.944   1.713   4.212 -1.0885 -0.1535 -0.2630
  570MOL0     O76839   5.020   1.813   4.278 -0.1225  0.1526  0.1743
  570MOL0     C76840   4.938   1.898   4.351  0.2279 -0.6066 -0.2751
  570MOL0     C76841   4.848   1.989   4.296 -0.2715 -0.1805  0.6601
  570MOL0     C76842   4.757   2.057   4.383  0.7382  0.2340  0.5353
  570MOL0     C76843   4.658   2.159   4.326  0.8082  0.8745  0.1448
  570MOL0     C76844   4.753   2.042   4.520 -0.4717  0.0631  0.2710
  570MOL0     C76845   4.658   2.107   4.607  0.6695 -0.3143 -0.1669
  570MOL0     O76846   4.585   2.030   4.685  0.6216 -0.6510  0.2025
  570MOL0     C76847   4.516   2.104   4.776  0.1272 -0.2033 -0.1474
  570MOL0     C76848   4.388   2.149   4.738  0.8711  0.0622 -0.2366
  570MOL0     C76849   4.312   2.229   4.824 -0.8072 -0.1733 -0.9024
  570MOL0     C76850   4.360   2.261   4.952  0.5701 -0.0836  0.2582
  570MOL0     O76851   4.283   2.346   5.018 -0.6918 -0.3943 -0.4330
  570MOL0     C76852   4.244   2.307   5.153 -0.2673 -0.5484 -0.4168
  570MOL0     C76853   4.142   2.415   5.183 -0.4590 -0.2946  0.1285
  570MOL0     C76854   4.117   2.442   5.331 -0.0497  0.2284  0.2737
  570MOL0     C76855   4.239   2.510   5.409 -0.4684  0.6514  0.2508
  570MOL0     C76856   4.229   2.505   5.568 -0.0816  0.3327  0.4572
  570MOL0     C76857   4.320   2.617   5.626  0.7203 -0.1732  0.4181
  570MOL0     C76858   4.353   2.562   5.764  0.4314 -0.9593 -0.3049
  570MOL0     C76859   4.402   2.669   5.862  0.4274 -1.1654 -0.3035
  570MOL0    Cl76860   4.557   2.721   5.800 -0.0677 -0.1911  0.0620
  570MOL0     C76861   4.488   2.218   4.994 -0.1678 -1.1088 -0.3039
  570MOL0     C76862   4.565   2.155   4.898 -0.4233 -1.3797 -0.1045
  570MOL0     O76863   4.655   2.233   4.612 -0.6013  0.0329  0.7340
  570MOL0     C76864   4.831   1.934   4.560  0.4884 -0.3584 -0.8204
  570MOL0     C76865   4.934   1.873   4.491 -0.2558 -0.5068 -0.4950
  570MOL0     N76866   4.847   1.627   3.681  0.1707 -0.0833  0.0302
  570MOL0     N76867   4.900   1.713   3.602  0.7465 -0.0564  0.0940
  570MOL0     C76868   6.065   1.874   3.853 -0.2923  0.7391  0.5588
  570MOL0     C76869   6.098   1.861   3.984  0.1218 -0.0624  0.7224
  570MOL0     C76870   5.992   1.820   4.448 -0.2810 -0.0513 -0.4856
  570MOL0     C76871   6.108   1.888   4.480  0.6952  0.3509 -0.1348
  570MOL0     C76872   6.143   1.912   4.617  0.0753 -0.1179  0.4878
  570MOL0     C76873   6.056   1.869   4.720  0.4605  0.8859  0.2013
  570MOL0     O76874   6.072   1.895   4.857  0.7366 -0.2879 -0.6806
  570MOL0     C76875   6.204   1.906   4.907 -0.5617 -0.2206 -0.6038
  570MOL0     C76876   6.185   1.944   5.062  0.4315 -0.7306 -0.2433
  570MOL0     C76877   6.176   2.102   5.099  0.7346  0.6187  0.3387
  570MOL0     C76878   6.058   2.177   5.022 -0.5168  0.1595  0.9634
  570MOL0     C76879   6.106   2.227   4.888  0.7382  0.2512 -0.0582
  570MOL0     C76880   6.153   2.280   4.789 -0.0023  0.0539  0.4806
  570MOL0     C76881   5.941   1.793   4.684 -0.4239 -0.7805 -0.9300
  570MOL0     C76882   5.914   1.763   4.552  0.9171 -1.2277  0.8330
  570MOL0     H76883   5.783   1.873   4.107 -0.4488 -3.1864  0.4936
  570MOL0     H76884   5.731   1.912   3.886 -0.0351 -1.9985 -0.2570
  570MOL0     H76885   5.765   2.058   3.716 -0.7027 -0.3544 -0.3229
  570MOL0     H76886   5.866   2.101   3.578  1.1177  0.6281  2.1952
  570MOL0     H76887   5.686   2.016   3.467 -1.6624  0.7517  2.9792
  570MOL0     H76888   5.804   1.886   3.468  1.2050  2.0828 -0.7410
  570MOL0     H76889   5.578   1.800   3.504 -0.0734 -1.5294  0.4970
  570MOL0     H76890   5.663   1.789   3.671 -1.4144  0.8172  1.7557
  570MOL0     H76891   5.461   1.849   3.713 -0.0367  0.0663  0.0006
  570MOL0     H76892   5.536   2.006   3.719  1.8817  0.9212 -1.1978
  570MOL0     H76893   5.443   2.059   3.509  1.8266  0.5046  3.1307
  570MOL0     H76894   5.371   1.898   3.488  1.3667 -0.4856 -0.6291
  570MOL0     H76895   5.279   2.086   3.705  0.5773 -1.9475  0.6252
  570MOL0     H76896   5.209   2.091   3.545  1.4440 -1.7141 -2.4953
  570MOL0     H76897   5.192   1.825   3.586  0.8035 -0.8393  0.4950
  570MOL0     H76898   5.170   1.887   3.755  1.9544 -4.4476 -0.7480
  570MOL0     H76899   4.996   1.978   3.530  2.2786 -0.7289 -0.9572
  570MOL0     H76900   5.005   2.030   3.698 -2.5693 -0.4904  0.2625
  570MOL0     H76901   4.910   1.889   3.876 -0.5539  3.8121 -4.2409
  570MOL0     H76902   4.731   1.688   3.994  1.1253 -1.0161  2.5789
  570MOL0     H76903   4.717   1.534   3.909 -1.9812  0.3004  1.6665
  570MOL0     H76904   4.958   1.488   3.946  0.4755 -0.8222  1.1865
  570MOL0     H76905   4.856   1.490   4.096 -0.1956 -0.2530  0.2639
  570MOL0     H76906   5.042   1.722   4.024  0.0394 -0.5184 -1.2341
  570MOL0     H76907   5.083   1.585   4.130 -0.8266  0.9421 -0.1614
  570MOL0     H76908   4.941   1.640   4.294  0.9457  2.6633  2.5377
  570MOL0     H76909   4.851   1.764   4.183  0.6071  2.0743 -2.1183
  570MOL0     H76910   4.834   2.007   4.190  0.7174  3.5427  1.0474
  570MOL0     H76911   4.672   2.259   4.368 -1.7560  2.4282 -2.3517
  570MOL0     H76912   4.657   2.150   4.217 -1.3386 -0.7013  0.2390
  570MOL0     H76913   4.556   2.134   4.357  0.8611 -0.0406 -0.4088
  570MOL0     H76914   4.345   2.134   4.640 -0.9656  3.7074 -0.1394
  570MOL0     H76915   4.210   2.257   4.798 -2.7756 -4.8639  0.6228
  570MOL0     H76916   4.205   2.207   5.174  3.8119 -1.7501  2.9039
  570MOL0     H76917   4.331   2.328   5.217 -0.9574  1.0437  0.0510
  570MOL0     H76918   4.166   2.510   5.135  0.1716 -1.4295 -1.8978
  570MOL0     H76919   4.049   2.391   5.132  0.3559  0.4197 -1.7786
  570MOL0     H76920   4.103   2.344   5.380 -1.7156 -0.8924 -2.2554
  570MOL0     H76921   4.030   2.505   5.351  0.0887  0.2025  1.0110
  570MOL0     H76922   4.323   2.443   5.391 -0.0880  0.9416  0.9178
  570MOL0     H76923   4.258   2.608   5.363  2.6201  0.6967  1.3797
  570MOL0     H76924   4.262   2.407   5.602  4.9535  1.4324 -0.4107
  570MOL0     H76925   4.126   2.522   5.601 -0.2392 -2.7242  1.8259
  570MOL0     H76926   4.413   2.630   5.569  0.0940 -1.9601 -1.1129
  570MOL0     H76927   4.269   2.714   5.625 -2.9596 -1.9449  0.7976
  570MOL0     H76928   4.433   2.488   5.755 -0.3729 -1.6923 -1.5348
  570MOL0     H76929   4.271   2.503   5.807  2.5634 -3.0490  1.2008
  570MOL0     H76930   4.422   2.626   5.961  0.7596 -0.7662 -0.1902
  570MOL0     H76931   4.331   2.752   5.867  0.8625 -0.8414  1.5094
  570MOL0     H76932   4.525   2.260   5.086 -1.7764  1.8205 -0.8655
  570MOL0     H76933   4.673   2.148   4.896  0.5422  5.5291 -3.0532
  570MOL0     H76934   4.833   1.898   4.662  0.6107  0.5785 -0.4832
  570MOL0     H76935   4.994   1.801   4.546  0.5040  1.1996  1.0270
  570MOL0     H76936   6.136   1.862   3.772 -1.9888 -2.8453 -0.5847
  570MOL0     H76937   6.202   1.866   4.017 -0.1905  3.1243  1.5954
  570MOL0     H76938   6.176   1.925   4.404  2.6667 -3.5801 -0.5401
  570MOL0     H76939   6.231   1.971   4.640 -0.2581 -0.9183  4.6017
  570MOL0     H76940   6.258   1.812   4.896  1.5192  1.0206 -1.9121
  570MOL0     H76941   6.261   1.985   4.856  0.4067 -0.7427 -0.3571
  570MOL0     H76942   6.277   1.912   5.113  0.9688  0.6792 -0.2799
  570MOL0     H76943   6.093   1.905   5.107  0.8095 -0.1056  1.1476
  570MOL0     H76944   6.270   2.147   5.066  0.7379  0.8808  0.7051
  570MOL0     H76945   6.161   2.115   5.206 -0.2674 -1.9071  0.5655
  570MOL0     H76946   6.033   2.276   5.062 -1.7670  1.4259 -2.5131
  570MOL0     H76947   5.969   2.113   5.020 -1.1396  1.0016  0.9330
  570MOL0     H76948   6.207   2.338   4.717  1.5548 -0.7257  0.9776
  570MOL0     H76949   5.875   1.769   4.767  1.6022 -1.3892  0.5965
  570MOL0     H76950   5.820   1.715   4.528 -0.4984  1.7076  0.0273
  571MOL0     O76951   9.515   8.974   4.765 -0.1896  0.3506  0.1764
  571MOL0     C76952   9.410   8.918   4.753 -0.0536  1.4454  0.0852
  571MOL0     O76953   9.281   8.964   4.760 -0.8754 -0.1569  0.2257
  571MOL0     C76954   9.252   9.088   4.813  0.2715 -1.0422  0.2036
  571MOL0     C76955   9.209   9.204   4.746  0.5218  1.1412  0.2486
  571MOL0     C76956   9.190   9.318   4.818 -0.8288 -1.2091 -0.1963
  571MOL0     C76957   9.217   9.339   4.953 -0.6299 -0.5165 -0.3125
  571MOL0     O76958   9.212   9.471   4.992 -0.0778 -0.2343 -0.0617
  571MOL0     C76959   9.141   9.481   5.118  0.2196 -0.4455 -0.2695
  571MOL0     C76960   8.989   9.464   5.092  0.0869 -0.0788 -0.4513
  571MOL0     C76961   8.918   9.564   5.003  0.4721 -0.1318 -1.1025
  571MOL0     C76962   8.761   9.547   4.999 -0.4168  0.7867  0.0521
  571MOL0     C76963   8.690   9.668   4.931 -0.9750 -0.3208 -0.2294
  571MOL0     C76964   8.540   9.669   4.905 -0.0795  0.2086  0.1735
  571MOL0     C76965   8.499   9.774   4.801 -0.7766  0.2520 -0.6508
  571MOL0     C76966   8.347   9.780   4.807  1.3347  0.8705  0.4142
  571MOL0     N76967   8.301   9.866   4.707  0.2420 -0.9283  0.3209
  571MOL0     C76968   8.241   9.826   4.595  0.2245 -0.2359  0.3410
  571MOL0     C76969   8.207   9.940   4.540  0.6918 -0.5063 -0.0740
  571MOL0     C76970   8.153   9.934   4.398  0.1624  0.2724  0.6715
  571MOL0     C76971   8.053  10.041   4.371  0.2947 -0.0363 -0.2338
  571MOL0     C76972   7.971  10.006   4.239  0.6482  1.0817  0.4310
  571MOL0     C76973   7.910  10.136   4.201 -0.1769 -0.4016 -0.2332
  571MOL0     O76974   7.877  10.144   4.060 -0.5960 -0.8980  0.8683
  571MOL0     C76975   7.794  10.246   4.017 -1.1962 -0.3080  1.0471
  571MOL0     C76976   7.784  10.264   3.875 -0.5796  0.3746 -0.4654
  571MOL0     C76977   7.706  10.366   3.814 -0.5274 -0.1178  0.5964
  571MOL0     C76978   7.704  10.373   3.663  0.5214  0.4373  0.7519
  571MOL0     C76979   7.639  10.456   3.892  0.3032  0.9863 -0.8049
  571MOL0     C76980   7.551  10.565   3.845 -0.8286  0.7536 -1.0012
  571MOL0     O76981   7.609  10.643   3.753 -0.8377 -0.5190 -0.1863
  571MOL0     C76982   7.543  10.732   3.666  0.1470 -0.4582 -0.1941
  571MOL0     C76983   7.432  10.700   3.587 -0.1412  0.5780 -0.5373
  571MOL0     C76984   7.380  10.801   3.499 -0.0987 -0.3032  0.5575
  571MOL0     C76985   7.433  10.932   3.493 -0.9423  0.1649 -1.2417
  571MOL0     O76986   7.375  11.038   3.429 -0.0506 -0.3335 -0.4019
  571MOL0     C76987   7.246  11.036   3.357  0.5912  0.3635 -0.2712
  571MOL0     C76988   7.201  11.179   3.324  0.4602  0.9314  0.5588
  571MOL0     C76989   7.094  11.182   3.214 -0.0888  0.2031 -0.0368
  571MOL0     C76990   7.054  11.325   3.184 -0.2281 -0.7477  0.6664
  571MOL0     C76991   6.957  11.343   3.059  0.0951  0.4392  0.1112
  571MOL0     C76992   6.944  11.484   3.013 -0.0080 -0.5000 -0.2281
  571MOL0     C76993   6.957  11.593   3.125  0.6265 -0.2916  1.2428
  571MOL0     C76994   6.832  11.580   3.221  0.0879 -0.9462 -0.7667
  571MOL0    Cl76995   6.856  11.671   3.372 -0.3476 -0.2426 -0.5218
  571MOL0     C76996   7.533  10.964   3.577  0.0465  0.9865  0.0157
  571MOL0     C76997   7.592  10.866   3.667  0.0150 -0.1456 -0.8174
  571MOL0     O76998   7.445  10.585   3.898  0.5733 -0.2718  0.1196
  571MOL0     C76999   7.654  10.439   4.038  0.3310 -0.4999 -0.7447
  571MOL0     C77000   7.723  10.336   4.102  0.5918 -0.5586 -0.5949
  571MOL0     N77001   8.240  10.045   4.616 -0.0381 -0.4184 -0.5316
  571MOL0     N77002   8.296  10.004   4.722 -0.4174  0.5700 -0.0910
  571MOL0     C77003   9.249   9.224   5.021 -0.3368 -0.3870  0.3562
  571MOL0     C77004   9.270   9.104   4.952  1.0569  1.2321  0.9113
  571MOL0     C77005   9.417   8.773   4.748  0.1990 -0.5210 -0.3370
  571MOL0     C77006   9.514   8.724   4.663  0.7404 -0.6507 -0.7133
  571MOL0     C77007   9.540   8.587   4.650 -0.9142  0.3881 -0.3510
  571MOL0     C77008   9.463   8.492   4.718  0.3605  0.3296  0.0330
  571MOL0     O77009   9.498   8.362   4.723  0.1858  0.2673 -0.1857
  571MOL0     C77010   9.401   8.294   4.644 -0.1980 -0.2353  0.0624
  571MOL0     C77011   9.412   8.142   4.654 -0.7373  0.9533  0.6392
  571MOL0     C77012   9.332   8.095   4.775 -0.5376  1.0022  0.6682
  571MOL0     C77013   9.406   8.128   4.898 -0.0867  0.0264 -0.9967
  571MOL0     C77014   9.388   8.034   5.001 -0.8215  0.1937  0.1840
  571MOL0     C77015   9.359   7.944   5.087 -0.2589 -1.4754  0.2389
  571MOL0     C77016   9.373   8.535   4.808 -0.1837 -0.3194  0.1817
  571MOL0     C77017   9.342   8.677   4.821 -0.4267  0.2303 -0.1484
  571MOL0     H77018   9.190   9.215   4.640  3.2419  2.4631 -0.1846
  571MOL0     H77019   9.148   9.401   4.762 -2.9011 -0.5428  2.1502
  571MOL0     H77020   9.182   9.426   5.204  0.3441  2.9375  2.0079
  571MOL0     H77021   9.150   9.584   5.153 -0.7587  0.7801 -3.2746
  571MOL0     H77022   8.965   9.364   5.056  0.2351 -0.2315 -0.1335
  571MOL0     H77023   8.933   9.462   5.186 -1.1615 -2.3888 -1.1504
  571MOL0     H77024   8.936   9.659   5.053  1.3260 -3.1124  5.2815
  571MOL0     H77025   8.961   9.575   4.902  1.9870  2.6872 -0.2626
  571MOL0     H77026   8.732   9.462   4.937 -1.1389  2.5267 -2.1798
  571MOL0     H77027   8.718   9.527   5.097  0.3002 -2.8394 -0.2512
  571MOL0     H77028   8.707   9.760   4.988 -1.5783  0.2585 -0.9595
  571MOL0     H77029   8.736   9.696   4.836 -4.0916  0.0574 -1.7423
  571MOL0     H77030   8.517   9.574   4.855 -0.7754  0.6810 -0.4221
  571MOL0     H77031   8.487   9.690   4.998 -1.1912  3.9614 -1.0978
  571MOL0     H77032   8.545   9.871   4.826 -1.5550  0.7082 -0.9557
  571MOL0     H77033   8.541   9.734   4.708 -0.7950 -0.1676 -0.4795
  571MOL0     H77034   8.318   9.824   4.903 -3.0224 -3.8594  1.7227
  571MOL0     H77035   8.291   9.686   4.812  1.6517  0.7209  1.4561
  571MOL0     H77036   8.229   9.723   4.563 -0.2875 -0.9660  2.6536
  571MOL0     H77037   8.245   9.950   4.340  0.4068  2.3019  1.5181
  571MOL0     H77038   8.109   9.838   4.374 -3.4838  1.6701  1.1717
  571MOL0     H77039   8.104  10.138   4.370  1.7453 -0.7425  1.0705
  571MOL0     H77040   7.982  10.044   4.454 -2.4881 -2.1030 -2.3697
  571MOL0     H77041   7.894   9.930   4.257  2.6641 -2.3988 -3.7028
  571MOL0     H77042   8.034   9.972   4.156 -2.1682  0.8134 -1.7724
  571MOL0     H77043   7.970  10.227   4.214  1.6024 -1.2644 -1.9202
  571MOL0     H77044   7.826  10.165   4.264 -0.7588  0.7126 -1.4562
  571MOL0     H77045   7.847  10.200   3.814  0.8522  0.8101  0.4959
  571MOL0     H77046   7.601  10.351   3.634 -0.3975 -1.0454  4.5474
  571MOL0     H77047   7.737  10.464   3.611  2.6764 -0.4921  0.4172
  571MOL0     H77048   7.764  10.289   3.629  0.6516  0.4627  0.9218
  571MOL0     H77049   7.407  10.594   3.586 -0.8776  0.7431  0.1986
  571MOL0     H77050   7.296  10.778   3.434 -1.3244  3.6012  0.4836
  571MOL0     H77051   7.272  10.988   3.262  1.5349 -1.1174  0.6965
  571MOL0     H77052   7.168  10.974   3.404  2.9168 -3.1753 -0.6460
  571MOL0     H77053   7.165  11.226   3.416 -0.0649 -0.7029  1.2256
  571MOL0     H77054   7.294  11.227   3.293  0.9205  0.4510  1.1406
  571MOL0     H77055   7.001  11.137   3.250 -1.4741  0.6023 -2.8526
  571MOL0     H77056   7.138  11.125   3.132  0.1356  2.3720 -1.4955
  571MOL0     H77057   7.017  11.379   3.271 -0.6583  2.5359 -1.3795
  571MOL0     H77058   7.151  11.359   3.146 -0.2290 -1.9719 -0.5081
  571MOL0     H77059   6.854  11.311   3.077 -0.9149  4.1366  1.8811
  571MOL0     H77060   6.987  11.292   2.966  1.1342 -1.0177  1.2013
  571MOL0     H77061   7.032  11.499   2.950  0.4802 -0.6018  0.4309
  571MOL0     H77062   6.857  11.500   2.948  0.6024  0.9591 -0.7131
  571MOL0     H77063   6.938  11.689   3.075 -1.0961 -0.5048  1.4059
  571MOL0     H77064   7.056  11.596   3.171  0.0679  1.6709  2.4585
  571MOL0     H77065   6.793  11.482   3.251  0.1423 -0.2037  1.9871
  571MOL0     H77066   6.746  11.628   3.174  0.7369  0.2441 -0.7694
  571MOL0     H77067   7.566  11.068   3.576 -2.5035  1.8752 -1.3465
  571MOL0     H77068   7.663  10.905   3.740 -0.1268 -0.6922 -0.3836
  571MOL0     H77069   7.610  10.527   4.085  1.5376  0.2330 -0.9350
  571MOL0     H77070   7.711  10.337   4.210  1.4796  1.8164 -0.4602
  571MOL0     H77071   9.255   9.230   5.129 -3.2911  3.2789  0.4971
  571MOL0     H77072   9.306   9.022   5.013  2.2201  1.9553  1.2189
  571MOL0     H77073   9.570   8.790   4.597 -2.6889 -0.4864 -3.7630
  571MOL0     H77074   9.630   8.551   4.600 -0.4031  0.8120  0.2369
  571MOL0     H77075   9.298   8.325   4.661 -0.5125 -2.1484  2.1773
  571MOL0     H77076   9.426   8.306   4.538  2.6571  0.9566  0.7584
  571MOL0     H77077   9.516   8.114   4.671 -1.0811 -0.7058  0.1969
  571MOL0     H77078   9.360   8.104   4.565 -0.8155 -0.2538  1.1840
  571MOL0     H77079   9.308   7.989   4.762 -3.7076  1.8273 -1.4877
  571MOL0     H77080   9.228   8.129   4.783 -0.5962  0.6835  1.3324
  571MOL0     H77081   9.363   8.215   4.949 -1.0332 -1.0202  0.0256
  571MOL0     H77082   9.509   8.160   4.881 -1.1374  3.9394 -0.9697
  571MOL0     H77083   9.340   7.886   5.175  1.9634  0.4960  2.1904
  571MOL0     H77084   9.318   8.461   4.866 -0.7114  0.0342  0.1405
  571MOL0     H77085   9.266   8.721   4.885 -4.4300 -5.2367 -0.3348
  572MOL0     O77086   0.595   3.203   4.282  0.2255 -0.6090  0.7528
  572MOL0     C77087   0.566   3.184   4.163 -0.0306 -0.2709  0.4604
  572MOL0     O77088   0.539   3.062   4.102  0.0547  0.2582 -0.0684
  572MOL0     C77089   0.511   2.956   4.195 -0.4797  0.1747  0.3263
  572MOL0     C77090   0.386   2.925   4.235 -0.2188  0.0085  0.2616
  572MOL0     C77091   0.366   2.833   4.336  1.2164  0.8629 -0.5827
  572MOL0     C77092   0.471   2.753   4.381 -0.5615 -0.6450 -0.8464
  572MOL0     O77093   0.458   2.642   4.461  0.9379 -0.2549 -0.4771
  572MOL0     C77094   0.337   2.603   4.534 -0.2570  0.4262  0.4678
  572MOL0     C77095   0.380   2.569   4.672 -0.8606 -0.4943 -0.3459
  572MOL0     C77096   0.470   2.437   4.684 -0.3683 -0.0865 -0.6100
  572MOL0     C77097   0.392   2.314   4.644 -0.5230 -0.2132  0.7015
  572MOL0     C77098   0.458   2.179   4.689 -0.5532 -0.8111  0.1170
  572MOL0     C77099   0.566   2.152   4.585 -0.0634 -0.0315  0.5012
  572MOL0     C77100   0.653   2.038   4.628 -0.2928  0.5032 -0.4451
  572MOL0     C77101   0.751   1.988   4.519 -0.2481 -0.1753  0.3827
  572MOL0     N77102   0.865   2.083   4.499  0.6663 -0.4422 -0.4221
  572MOL0     C77103   0.970   2.076   4.590 -0.1851  0.5054 -0.3125
  572MOL0     C77104   1.071   2.133   4.525  0.2834 -0.5498  0.1821
  572MOL0     C77105   1.210   2.141   4.579  0.0498 -0.6712  0.2795
  572MOL0     C77106   1.241   2.015   4.663  0.2966 -0.0561 -1.5396
  572MOL0     C77107   1.390   1.977   4.683 -0.3022  0.0291 -0.8988
  572MOL0     C77108   1.475   2.089   4.745 -0.1484 -0.3137  0.4142
  572MOL0     O77109   1.496   2.206   4.658 -0.1883 -0.5527  0.1292
  572MOL0     C77110   1.513   2.326   4.722  1.4862  0.4011 -0.0208
  572MOL0     C77111   1.465   2.437   4.652 -0.7334 -0.6336  0.3404
  572MOL0     C77112   1.511   2.570   4.676  0.7374  0.1120  0.4633
  572MOL0     C77113   1.461   2.677   4.577  0.0567 -0.1385  0.3839
  572MOL0     C77114   1.602   2.594   4.778  0.3119  0.0810  0.8800
  572MOL0     C77115   1.635   2.730   4.823 -0.5249  0.3490 -0.1719
  572MOL0     O77116   1.725   2.725   4.935  0.0320  0.5655 -0.4472
  572MOL0     C77117   1.768   2.853   4.974 -1.1461 -0.3025 -0.9644
  572MOL0     C77118   1.856   2.923   4.892  0.7740 -1.1201  0.0199
  572MOL0     C77119   1.876   3.071   4.922  1.1893 -0.0923 -0.0985
  572MOL0     C77120   1.817   3.132   5.031 -0.2830  0.1923 -0.2259
  572MOL0     O77121   1.824   3.262   5.063 -0.1845 -0.1750 -0.0793
  572MOL0     C77122   1.863   3.367   4.965  0.6735  0.8639 -0.2267
  572MOL0     C77123   1.816   3.498   5.022 -0.0652  0.1967 -0.1001
  572MOL0     C77124   1.849   3.611   4.916 -0.3938  0.5834  0.3899
  572MOL0     C77125   1.992   3.665   4.940 -0.5736 -1.0450 -0.2140
  572MOL0     C77126   2.062   3.740   4.829 -0.6648 -0.4772  0.7483
  572MOL0     C77127   2.171   3.834   4.886  0.0711 -0.1901 -0.0173
  572MOL0     C77128   2.282   3.771   4.965 -0.2862  0.5768  0.0197
  572MOL0     C77129   2.415   3.850   4.949  0.4253  0.0427  0.2511
  572MOL0    Cl77130   2.554   3.764   5.016  0.1820  0.1077 -0.2226
  572MOL0     C77131   1.731   3.056   5.114 -0.0220  0.3741  0.1002
  572MOL0     C77132   1.708   2.922   5.084 -0.4033 -0.3094  0.2850
  572MOL0     O77133   1.600   2.833   4.760 -0.2877  0.2461 -0.4832
  572MOL0     C77134   1.648   2.479   4.850 -0.4393 -0.6206 -0.3184
  572MOL0     C77135   1.603   2.352   4.829 -0.1070 -0.4226  0.3783
  572MOL0     N77136   1.028   2.172   4.396 -0.4586  0.4389 -0.5533
  572MOL0     N77137   0.906   2.142   4.384  1.0874  0.0895  0.1677
  572MOL0     C77138   0.594   2.770   4.328 -0.4266 -1.1653 -0.2386
  572MOL0     C77139   0.617   2.869   4.232 -0.9251  0.6365 -0.4501
  572MOL0     C77140   0.587   3.300   4.078  0.0545 -0.0539 -0.3156
  572MOL0     C77141   0.505   3.320   3.968  0.1672  0.8793  0.7637
  572MOL0     C77142   0.537   3.418   3.876  0.0008 -0.3194  0.1543
  572MOL0     C77143   0.639   3.507   3.895  0.2769  0.4149  0.2330
  572MOL0     O77144   0.665   3.594   3.792  0.3794  0.6285  0.1256
  572MOL0     C77145   0.783   3.677   3.786  0.3730 -0.7414  0.7638
  572MOL0     C77146   0.762   3.814   3.847 -0.4146 -0.9468  0.6474
  572MOL0     C77147   0.887   3.867   3.915 -0.4960  0.0363  1.1290
  572MOL0     C77148   0.870   3.989   4.001  0.6960  0.1017  0.4271
  572MOL0     C77149   0.771   4.095   3.957 -0.0302  0.6953  1.1721
  572MOL0     C77150   0.675   4.174   3.918  0.4010  0.5551  0.6566
  572MOL0     C77151   0.704   3.512   4.023  0.3751  0.3598  0.2755
  572MOL0     C77152   0.676   3.403   4.108 -0.1233 -0.0055  0.1146
  572MOL0     H77153   0.297   2.972   4.195 -0.0246 -0.7703 -1.1303
  572MOL0     H77154   0.263   2.820   4.369  2.2445  0.1656  2.7320
  572MOL0     H77155   0.272   2.690   4.545 -0.0106  0.7154 -0.3019
  572MOL0     H77156   0.285   2.520   4.484 -0.6928  0.3140  1.0921
  572MOL0     H77157   0.440   2.656   4.701 -0.2985 -1.1753  0.5881
  572MOL0     H77158   0.291   2.560   4.735 -2.4664 -1.0336 -2.5583
  572MOL0     H77159   0.566   2.445   4.631  0.9521 -3.8257  0.8907
  572MOL0     H77160   0.502   2.426   4.788 -0.0540  0.0850 -0.6877
  572MOL0     H77161   0.287   2.324   4.674 -1.1360  2.1140 -1.8461
  572MOL0     H77162   0.377   2.313   4.536  3.9076  1.7289 -0.1675
  572MOL0     H77163   0.491   2.197   4.791  4.4296  1.7005 -1.6012
  572MOL0     H77164   0.394   2.091   4.688  1.1937 -2.3158  3.6483
  572MOL0     H77165   0.515   2.135   4.489  0.6250  4.8606 -1.0594
  572MOL0     H77166   0.619   2.247   4.571 -0.9233  0.4119  0.1058
  572MOL0     H77167   0.712   2.077   4.711 -1.8020  2.8419 -0.3659
  572MOL0     H77168   0.593   1.954   4.665  0.7984  0.1081  0.4631
  572MOL0     H77169   0.701   1.973   4.422  1.1965 -0.0478 -0.4116
  572MOL0     H77170   0.796   1.893   4.547  0.6261  0.1506  0.1154
  572MOL0     H77171   0.968   2.039   4.692 -4.5641  0.4480 -0.2396
  572MOL0     H77172   1.279   2.159   4.497 -0.7464  0.0220 -0.2669
  572MOL0     H77173   1.226   2.219   4.655 -0.1099 -0.2471 -0.1148
  572MOL0     H77174   1.194   1.929   4.616 -0.1468 -0.0299 -1.1532
  572MOL0     H77175   1.203   2.043   4.762 -1.9453 -2.9515 -1.4464
  572MOL0     H77176   1.411   1.950   4.579  1.3198 -0.7956 -0.3983
  572MOL0     H77177   1.395   1.882   4.737  0.6093  0.3016 -0.4891
  572MOL0     H77178   1.579   2.064   4.766  0.4594  0.1089 -1.7830
  572MOL0     H77179   1.426   2.121   4.837  1.6471  3.9755  0.1182
  572MOL0     H77180   1.395   2.422   4.571  0.8238 -2.0468 -0.8098
  572MOL0     H77181   1.380   2.642   4.512  0.7838 -0.1917 -0.5077
  572MOL0     H77182   1.422   2.761   4.635 -1.8078 -0.3154 -0.5243
  572MOL0     H77183   1.544   2.714   4.517 -1.8550  3.2448 -0.4171
  572MOL0     H77184   1.910   2.889   4.805  4.2462  3.8210 -0.1838
  572MOL0     H77185   1.941   3.131   4.860  2.0478 -0.8882  0.0049
  572MOL0     H77186   1.972   3.361   4.960  0.8011 -4.0632  1.8778
  572MOL0     H77187   1.823   3.353   4.864  1.7308 -1.2653 -0.4096
  572MOL0     H77188   1.708   3.498   5.043  0.5038  1.9158  3.4890
  572MOL0     H77189   1.861   3.512   5.121 -2.0645 -3.7698  1.6251
  572MOL0     H77190   1.772   3.689   4.916 -1.0030  0.0481 -1.3517
  572MOL0     H77191   1.848   3.569   4.815 -0.7450  0.6315  0.3720
  572MOL0     H77192   1.977   3.743   5.015  0.9010 -1.6506  0.7752
  572MOL0     H77193   2.056   3.593   4.993  0.9951  0.2818 -0.2283
  572MOL0     H77194   1.991   3.793   4.765  1.9979 -1.3541 -3.3235
  572MOL0     H77195   2.105   3.668   4.759  0.1857 -0.5778  1.3592
  572MOL0     H77196   2.200   3.888   4.795 -2.1253 -1.3685 -1.5095
  572MOL0     H77197   2.122   3.904   4.954 -0.0500  0.4489 -0.7425
  572MOL0     H77198   2.303   3.671   4.925 -3.0834 -1.4401  3.0738
  572MOL0     H77199   2.246   3.750   5.066 -2.0367 -1.4836 -0.9624
  572MOL0     H77200   2.401   3.954   4.979 -2.0475  0.9709 -3.4187
  572MOL0     H77201   2.437   3.867   4.843  0.9499  0.7858  0.4755
  572MOL0     H77202   1.686   3.103   5.201  2.2250  0.0128  1.5417
  572MOL0     H77203   1.642   2.862   5.145 -0.0902 -1.4267 -0.4223
  572MOL0     H77204   1.718   2.491   4.932 -2.8004  0.7220  1.6471
  572MOL0     H77205   1.647   2.264   4.875 -0.5997 -0.0377  1.6253
  572MOL0     H77206   0.675   2.704   4.360 -1.1106 -1.7297  0.3509
  572MOL0     H77207   0.713   2.868   4.180 -1.4060 -1.0779 -1.3585
  572MOL0     H77208   0.418   3.261   3.941  0.2005 -0.1129  2.6642
  572MOL0     H77209   0.478   3.441   3.787 -2.3668 -0.5255  1.5776
  572MOL0     H77210   0.868   3.632   3.839  0.1831  0.4194  2.1023
  572MOL0     H77211   0.817   3.682   3.682  0.9848  0.1965  0.9954
  572MOL0     H77212   0.684   3.809   3.923  0.3063 -1.7237  1.3643
  572MOL0     H77213   0.722   3.870   3.762  0.5695 -0.1403  0.6949
  572MOL0     H77214   0.957   3.888   3.835  0.1434 -4.2586  0.3373
  572MOL0     H77215   0.943   3.795   3.975  1.7208  0.6653 -0.0982
  572MOL0     H77216   0.968   4.034   4.015  1.3688 -1.2347  0.1736
  572MOL0     H77217   0.831   3.950   4.096  0.2779 -1.7355 -0.4540
  572MOL0     H77218   0.589   4.230   3.888  1.4732  1.4679 -0.9343
  572MOL0     H77219   0.785   3.584   4.032  1.4032 -0.8582  1.2119
  572MOL0     H77220   0.746   3.391   4.190  4.4173 -1.8906 -3.5731
  573MOL0     O77221  10.544   3.995  10.850 -0.6964 -0.3267  0.0702
  573MOL0     C77222  10.463   3.935  10.921  0.1052 -0.2400 -0.3490
  573MOL0     O77223  10.360   3.992  10.993 -0.4857 -0.1268  0.4073
  573MOL0     C77224  10.387   4.117  11.030  0.2907 -0.8184 -0.0492
  573MOL0     C77225  10.448   4.151  11.150  0.7349 -0.6242 -0.5501
  573MOL0     C77226  10.463   4.292  11.184 -0.1440  0.4288 -0.1241
  573MOL0     C77227  10.428   4.385  11.096  0.1854 -0.1147 -0.1669
  573MOL0     O77228  10.461   4.507  11.122 -0.9928 -0.5136  0.7152
  573MOL0     C77229  10.605   4.539  11.098  0.3204  0.1016  0.0290
  573MOL0     C77230  10.654   4.636  11.205  0.1020 -0.5038  0.0665
  573MOL0     C77231  10.653   4.567  11.335  0.0429 -0.3818 -0.5481
  573MOL0     C77232  10.729   4.670  11.422 -0.5218  0.6541 -1.6941
  573MOL0     C77233  10.733   4.630  11.570  0.2966 -0.6338  1.0368
  573MOL0     C77234  10.851   4.708  11.637  0.2243 -0.1577  0.2034
  573MOL0     C77235  10.885   4.647  11.774  0.7015 -0.6728  0.3134
  573MOL0     C77236  10.988   4.743  11.851 -0.1858  0.1960 -0.3600
  573MOL0     N77237  11.005   4.720  12.000  0.2677 -0.3139 -0.4842
  573MOL0     C77238  11.011   4.592  12.054 -0.3560 -0.5306  0.3458
  573MOL0     C77239  11.000   4.604  12.188  0.2512  0.0283  0.0078
  573MOL0     C77240  11.007   4.509  12.307  0.4106  0.4282  0.8629
  573MOL0     C77241  10.876   4.438  12.307  0.0588 -0.3883  0.4504
  573MOL0     C77242  10.742   4.521  12.323 -0.1074  0.2765 -0.5471
  573MOL0     C77243  10.755   4.615  12.448  0.0776 -0.9525  0.3387
  573MOL0     O77244  10.777   4.523  12.552  0.1499 -0.0153  0.0372
  573MOL0     C77245  10.724   4.554  12.678  0.0038  0.5881 -0.6923
  573MOL0     C77246  10.783   4.476  12.786 -0.0263  0.4272 -0.8637
  573MOL0     C77247  10.731   4.499  12.924 -0.7567  0.4656 -0.1940
  573MOL0     C77248  10.793   4.409  13.033  0.1878 -1.3306 -0.0338
  573MOL0     C77249  10.617   4.575  12.952 -0.2154 -0.5091  0.3531
  573MOL0     C77250  10.550   4.571  13.079 -0.1013 -0.1237 -0.7751
  573MOL0     O77251  10.603   4.592  13.197  0.1319 -0.0298 -0.5457
  573MOL0     C77252  10.549   4.529  13.307  0.4521 -0.1430  0.3994
  573MOL0     C77253  10.449   4.591  13.369 -0.1088  0.2212  0.2660
  573MOL0     C77254  10.380   4.544  13.487 -0.1262 -0.4312 -0.1203
  573MOL0     C77255  10.422   4.423  13.546  0.4041 -1.6008  0.0457
  573MOL0     O77256  10.362   4.384  13.662  0.6554  0.2198  0.5025
  573MOL0     C77257  10.314   4.246  13.657 -0.0860 -0.4634 -1.0523
  573MOL0     C77258  10.394   4.163  13.759  0.8696 -0.1171  0.1627
  573MOL0     C77259  10.373   4.014  13.763 -0.4710 -0.4578  0.5127
  573MOL0     C77260  10.433   3.949  13.640 -0.4334  0.6725 -0.6852
  573MOL0     C77261  10.429   3.795  13.635  0.0158 -0.4380 -0.1343
  573MOL0     C77262  10.548   3.739  13.535 -0.1472  0.7042 -0.9323
  573MOL0     C77263  10.547   3.802  13.393 -0.3491 -0.0782 -0.6539
  573MOL0     C77264  10.423   3.761  13.311  0.2730  0.7820  0.3626
  573MOL0    Cl77265  10.448   3.592  13.258 -0.5551  0.5667 -0.3305
  573MOL0     C77266  10.521   4.348  13.475 -1.0012  0.0478  0.2006
  573MOL0     C77267  10.579   4.397  13.354  0.2627 -0.0450  0.1328
  573MOL0     O77268  10.430   4.558  13.062  0.5210  0.0484  0.3584
  573MOL0     C77269  10.558   4.659  12.848 -0.8407 -0.0979  0.0689
  573MOL0     C77270  10.623   4.651  12.716  1.9067  0.6748  0.5364
  573MOL0     N77271  10.998   4.745  12.207 -0.0152  0.7917  0.0134
  573MOL0     N77272  10.993   4.804  12.098  0.2687 -0.0073  0.3335
  573MOL0     C77273  10.383   4.357  10.968  0.1160 -0.3710  0.2076
  573MOL0     C77274  10.356   4.220  10.938 -0.2820  0.8172 -0.1909
  573MOL0     C77275  10.473   3.788  10.934  0.1873 -0.2765  0.4525
  573MOL0     C77276  10.424   3.721  11.055 -0.1694  0.1300 -0.7339
  573MOL0     C77277  10.451   3.583  11.075 -0.1863 -0.5125  0.1778
  573MOL0     C77278  10.535   3.512  10.982 -0.1389 -1.0740  0.1415
  573MOL0     O77279  10.575   3.388  10.999  0.3769  0.0933  0.4906
  573MOL0     C77280  10.525   3.301  11.106 -0.5620  0.3159 -1.9745
  573MOL0     C77281  10.622   3.281  11.226  1.4904 -0.0410  0.2251
  573MOL0     C77282  10.759   3.218  11.178  0.1968 -0.3281 -0.3295
  573MOL0     C77283  10.757   3.077  11.132 -0.1540 -0.0271 -0.2118
  573MOL0     C77284  10.719   2.964  11.239  0.0686 -0.7393 -0.0829
  573MOL0     C77285  10.693   2.871  11.316 -0.9076  0.1206  0.3637
  573MOL0     C77286  10.579   3.579  10.867  0.8517  1.2563 -0.5270
  573MOL0     C77287  10.545   3.713  10.842  0.7396 -0.2450  0.0026
  573MOL0     H77288  10.488   4.081  11.223 -2.9440 -3.8667 -1.3321
  573MOL0     H77289  10.508   4.317  11.279 -2.5125 -1.5374  1.6692
  573MOL0     H77290  10.660   4.445  11.102  0.4261  0.2005  3.1833
  573MOL0     H77291  10.636   4.592  11.007 -0.5059 -0.5735 -0.6675
  573MOL0     H77292  10.753   4.679  11.187 -0.5383 -0.0351 -2.8343
  573MOL0     H77293  10.592   4.726  11.206  3.1760  1.9177 -3.1047
  573MOL0     H77294  10.560   4.532  11.380 -0.1666 -3.9721 -3.3493
  573MOL0     H77295  10.718   4.482  11.313  0.5154 -0.2941  0.4628
  573MOL0     H77296  10.831   4.691  11.387  0.7475  5.0688  3.2812
  573MOL0     H77297  10.679   4.768  11.422  1.7532  1.9357 -3.7776
  573MOL0     H77298  10.639   4.658  11.619  0.5289  3.9213 -0.6932
  573MOL0     H77299  10.765   4.528  11.595  1.2332 -1.0766 -1.6828
  573MOL0     H77300  10.940   4.693  11.575  0.1086 -0.2750  0.0656
  573MOL0     H77301  10.832   4.815  11.654  0.5007 -0.2868  1.4565
  573MOL0     H77302  10.789   4.651  11.826  0.7905 -1.3089  0.5291
  573MOL0     H77303  10.926   4.546  11.777 -0.7080 -1.2530  0.4069
  573MOL0     H77304  10.974   4.852  11.849  1.3408  0.5570  2.4102
  573MOL0     H77305  11.077   4.721  11.791  0.1152 -4.8256  1.5056
  573MOL0     H77306  11.022   4.502  11.996 -1.4709  0.6078 -1.7578
  573MOL0     H77307  11.098   4.450  12.298  1.6130  1.8429  2.7766
  573MOL0     H77308  11.036   4.576  12.389  0.5348  3.9543 -1.8000
  573MOL0     H77309  10.889   4.377  12.397  1.9183 -0.0246  0.4659
  573MOL0     H77310  10.867   4.373  12.219 -0.4836  0.0910  0.1454
  573MOL0     H77311  10.657   4.453  12.335 -1.8438  2.2656 -1.0530
  573MOL0     H77312  10.720   4.577  12.232  2.3976  2.8536  0.2862
  573MOL0     H77313  10.663   4.674  12.456  0.7792 -0.0197  2.0786
  573MOL0     H77314  10.837   4.681  12.420 -0.5785  0.8309  2.3925
  573MOL0     H77315  10.863   4.404  12.774  3.0600  2.8397  2.7677
  573MOL0     H77316  10.724   4.379  13.112 -0.3289 -1.6008 -0.5905
  573MOL0     H77317  10.816   4.309  12.995 -0.3098 -0.4297 -2.9560
  573MOL0     H77318  10.887   4.456  13.065  0.6805 -2.4082  0.1223
  573MOL0     H77319  10.437   4.698  13.351 -0.8360  0.7222  3.2293
  573MOL0     H77320  10.307   4.611  13.531 -2.3548 -3.2881  0.8406
  573MOL0     H77321  10.207   4.245  13.681 -0.6580  2.0046 -2.9725
  573MOL0     H77322  10.317   4.207  13.555 -0.9432  2.4555 -2.3173
  573MOL0     H77323  10.499   4.183  13.736  0.8233  1.5326  1.2209
  573MOL0     H77324  10.384   4.206  13.859 -4.1228 -0.9358  0.2483
  573MOL0     H77325  10.266   3.994  13.769  0.1270 -3.9981  2.0106
  573MOL0     H77326  10.415   3.966  13.852  0.6936  0.7122  0.6299
  573MOL0     H77327  10.380   3.989  13.554  1.0190  3.0196 -0.5889
  573MOL0     H77328  10.536   3.984  13.622 -0.0531 -0.7006 -1.3096
  573MOL0     H77329  10.326   3.775  13.607 -0.3761  0.7950  0.3837
  573MOL0     H77330  10.436   3.749  13.734 -0.7554 -0.3218 -0.0205
  573MOL0     H77331  10.638   3.774  13.587  1.8686 -1.6714 -2.5848
  573MOL0     H77332  10.546   3.630  13.523  1.0391  0.6144 -0.3861
  573MOL0     H77333  10.629   3.780  13.324  1.8406  3.1425  0.6570
  573MOL0     H77334  10.546   3.909  13.413  2.0939 -0.4096  1.7325
  573MOL0     H77335  10.413   3.821  13.219 -3.8703  0.4824  0.4345
  573MOL0     H77336  10.332   3.768  13.370  0.1252  0.9834  0.1101
  573MOL0     H77337  10.546   4.244  13.493  0.0223  0.4566  1.2501
  573MOL0     H77338  10.635   4.324  13.296 -1.5492 -2.0458  0.7648
  573MOL0     H77339  10.477   4.729  12.869 -0.5848  0.7935 -1.7493
  573MOL0     H77340  10.596   4.726  12.643 -0.2906 -0.2704  0.3083
  573MOL0     H77341  10.368   4.433  10.892  0.2713 -0.6566 -0.1176
  573MOL0     H77342  10.317   4.186  10.843 -2.6854  0.3758  0.8795
  573MOL0     H77343  10.359   3.779  11.120 -1.2753 -1.0692 -0.7188
  573MOL0     H77344  10.401   3.548  11.164 -1.6209 -0.0991 -0.4379
  573MOL0     H77345  10.433   3.338  11.151  0.0360 -1.3572  0.8655
  573MOL0     H77346  10.503   3.198  11.075  0.9417  0.5011 -3.8733
  573MOL0     H77347  10.575   3.224  11.307  2.1144 -0.1417  0.5257
  573MOL0     H77348  10.655   3.375  11.272  0.3588 -0.5292  2.1771
  573MOL0     H77349  10.811   3.218  11.274 -1.3639 -2.2767  0.5927
  573MOL0     H77350  10.828   3.274  11.113  1.2275 -0.0664  0.9618
  573MOL0     H77351  10.857   3.061  11.091 -0.6590 -1.1283 -1.0476
  573MOL0     H77352  10.677   3.063  11.058 -1.9010 -0.9438  1.7493
  573MOL0     H77353  10.656   2.782  11.362  0.9869  1.0713  4.1330
  573MOL0     H77354  10.638   3.521  10.797  1.2077 -0.7568  1.3237
  573MOL0     H77355  10.575   3.757  10.748 -2.1082  0.3302 -0.7204
  574MOL0     O77356   0.770   5.425   6.810  0.0392  0.4962  0.2242
  574MOL0     C77357   0.732   5.538   6.820 -0.2021  0.0062  0.2229
  574MOL0     O77358   0.689   5.603   6.939  0.2296  0.2409 -0.0966
  574MOL0     C77359   0.698   5.533   7.061  0.4511 -0.8425  1.6047
  574MOL0     C77360   0.826   5.500   7.112  0.0988  0.3941 -0.4734
  574MOL0     C77361   0.838   5.445   7.237  0.0275  0.6913  0.3059
  574MOL0     C77362   0.728   5.428   7.323 -0.4588 -0.3992 -0.3225
  574MOL0     O77363   0.735   5.398   7.458 -0.6621 -0.3703  0.0478
  574MOL0     C77364   0.662   5.276   7.498 -0.0964  0.4921  0.3065
  574MOL0     C77365   0.752   5.157   7.528  0.1469 -0.5775  0.5427
  574MOL0     C77366   0.790   5.148   7.672  0.7652 -0.6040 -0.6629
  574MOL0     C77367   0.881   5.030   7.701 -0.4833 -0.1452  0.1096
  574MOL0     C77368   1.023   5.055   7.645  0.2668  0.1874  0.4881
  574MOL0     C77369   1.115   5.140   7.723 -0.2340 -0.0599  0.1126
  574MOL0     C77370   1.143   5.073   7.864  0.9372  0.0025  0.0452
  574MOL0     C77371   1.284   5.099   7.919 -0.3504  0.6207 -0.0147
  574MOL0     N77372   1.286   5.227   7.975 -1.2297  0.1925 -0.2733
  574MOL0     C77373   1.260   5.355   7.928  0.3799 -0.0595 -0.4114
  574MOL0     C77374   1.323   5.439   8.004 -0.4836 -0.1985 -0.0463
  574MOL0     C77375   1.318   5.592   7.996 -0.0962  0.6213 -0.8195
  574MOL0     C77376   1.345   5.650   8.143 -0.3119  0.0651 -0.7023
  574MOL0     C77377   1.328   5.801   8.123  0.9931 -0.1346  0.6794
  574MOL0     C77378   1.365   5.864   8.257  0.0615  0.6724  0.3409
  574MOL0     O77379   1.378   6.002   8.235  0.4408  0.4993  0.7363
  574MOL0     C77380   1.315   6.073   8.328 -0.5815 -0.3863  0.6542
  574MOL0     C77381   1.362   6.058   8.458  0.0479  0.0483  0.3671
  574MOL0     C77382   1.295   6.128   8.560 -0.0770 -0.1085 -0.3925
  574MOL0     C77383   1.330   6.100   8.699 -0.5007  0.7203  0.4020
  574MOL0     C77384   1.202   6.220   8.523  0.3197 -0.5535  0.4426
  574MOL0     C77385   1.111   6.293   8.625  0.4090 -0.8368  0.2852
  574MOL0     O77386   1.045   6.418   8.585 -0.3778 -0.0403 -0.4290
  574MOL0     C77387   0.980   6.497   8.670  0.4263 -0.4451 -0.5287
  574MOL0     C77388   1.014   6.525   8.810  0.3434 -0.7675  0.0861
  574MOL0     C77389   0.924   6.603   8.886  0.4575  0.4987 -0.5585
  574MOL0     C77390   0.803   6.652   8.842 -0.8045  0.3294 -0.1303
  574MOL0     O77391   0.721   6.700   8.935  0.6969  0.8634 -0.9507
  574MOL0     C77392   0.649   6.622   9.031 -0.6290  0.1149 -0.2259
  574MOL0     C77393   0.637   6.714   9.164  0.3316 -0.7024 -0.2445
  574MOL0     C77394   0.536   6.683   9.269 -0.5600 -0.3592 -0.2614
  574MOL0     C77395   0.394   6.672   9.218  0.4900 -0.6764  0.0615
  574MOL0     C77396   0.293   6.741   9.315 -1.1813  0.9323  0.0524
  574MOL0     C77397   0.150   6.715   9.300 -0.1524  0.4166 -0.5744
  574MOL0     C77398   0.104   6.589   9.382  0.3810  0.8821  0.1970
  574MOL0     C77399  -0.001   6.507   9.305  0.2251  0.1138  0.3266
  574MOL0    Cl77400  -0.066   6.370   9.410 -0.3547 -0.0291  0.2181
  574MOL0     C77401   0.773   6.625   8.704 -0.6659 -1.4245  1.3832
  574MOL0     C77402   0.855   6.541   8.624 -0.1158  0.6040 -0.3614
  574MOL0     O77403   1.089   6.246   8.732 -0.4123  0.3266 -1.1814
  574MOL0     C77404   1.169   6.241   8.390  0.6198  0.1862 -0.1860
  574MOL0     C77405   1.232   6.170   8.285 -0.1488 -0.2534  0.1629
  574MOL0     N77406   1.410   5.363   8.089  0.5504 -0.6421  0.3414
  574MOL0     N77407   1.382   5.240   8.069  0.2486 -0.5599  0.2208
  574MOL0     C77408   0.605   5.453   7.264  0.2476 -1.1194 -0.0003
  574MOL0     C77409   0.584   5.500   7.131  0.6076  0.1365  0.6829
  574MOL0     C77410   0.728   5.623   6.702 -0.2915 -0.3756 -0.1775
  574MOL0     C77411   0.686   5.760   6.715  0.1227  0.3077  0.4957
  574MOL0     C77412   0.683   5.844   6.600  0.7930 -0.8065  0.0439
  574MOL0     C77413   0.718   5.787   6.477 -0.7317  0.1342  0.5542
  574MOL0     O77414   0.692   5.855   6.364 -0.6350  0.0259  0.4076
  574MOL0     C77415   0.794   5.874   6.268 -0.3708  0.0157  0.2874
  574MOL0     C77416   0.725   5.912   6.143 -0.1771  0.8734 -0.3789
  574MOL0     C77417   0.814   5.955   6.033 -1.2574 -0.2314  0.5992
  574MOL0     C77418   0.924   5.850   6.002 -0.2392  0.2862  0.8062
  574MOL0     C77419   0.971   5.860   5.867 -0.4153  0.4046  0.5854
  574MOL0     C77420   1.009   5.874   5.752 -0.2630  0.1424  0.5583
  574MOL0     C77421   0.779   5.667   6.473  0.5627 -0.2793 -0.4023
  574MOL0     C77422   0.768   5.584   6.586 -0.3037  0.2657 -0.0626
  574MOL0     H77423   0.912   5.509   7.046  0.2282  1.5141 -0.1688
  574MOL0     H77424   0.936   5.415   7.272  1.3901 -0.9723 -4.2864
  574MOL0     H77425   0.603   5.300   7.587 -0.5008 -2.9713  1.1204
  574MOL0     H77426   0.591   5.250   7.419  0.8926  1.7421 -1.0379
  574MOL0     H77427   0.690   5.073   7.494 -2.2965  1.9746 -1.8179
  574MOL0     H77428   0.836   5.167   7.458 -1.6932  1.4121 -1.5545
  574MOL0     H77429   0.835   5.241   7.706  0.9566 -1.7318  2.4553
  574MOL0     H77430   0.697   5.133   7.728  2.6937 -3.0562  2.2487
  574MOL0     H77431   0.886   4.999   7.805 -0.9137  0.1710  0.2280
  574MOL0     H77432   0.855   4.938   7.648 -0.7426  0.7434 -1.3664
  574MOL0     H77433   1.072   4.959   7.661 -1.0338 -0.0151  4.0967
  574MOL0     H77434   1.008   5.075   7.539 -2.2350 -3.1103  0.0727
  574MOL0     H77435   1.207   5.152   7.666  0.0428  2.6350  1.0304
  574MOL0     H77436   1.077   5.241   7.735  2.5438  0.9921  0.7437
  574MOL0     H77437   1.077   5.101   7.946 -0.4533  0.4531 -1.1859
  574MOL0     H77438   1.146   4.964   7.865  1.8621 -0.0053 -1.0877
  574MOL0     H77439   1.360   5.078   7.843 -2.6424 -0.1492 -2.2234
  574MOL0     H77440   1.293   5.020   7.995  0.5053  1.0455  0.3436
  574MOL0     H77441   1.183   5.387   7.859  0.8634  1.2177 -0.3937
  574MOL0     H77442   1.396   5.625   7.927  0.2093  0.5566 -0.5068
  574MOL0     H77443   1.226   5.636   7.956 -0.2956  0.3589 -0.6504
  574MOL0     H77444   1.448   5.623   8.165 -1.6337 -1.3294  6.0988
  574MOL0     H77445   1.273   5.614   8.217  2.3538  2.0325  3.2126
  574MOL0     H77446   1.225   5.831   8.100  1.1979  0.4450  0.4931
  574MOL0     H77447   1.394   5.834   8.043 -0.9602  1.6257 -0.3267
  574MOL0     H77448   1.462   5.832   8.294 -0.2758  0.1484  0.7789
  574MOL0     H77449   1.284   5.832   8.324  2.5002 -4.5715  1.2618
  574MOL0     H77450   1.454   6.007   8.487  0.6223  1.9895  2.1853
  574MOL0     H77451   1.350   6.191   8.755  0.7090 -0.5851  2.2180
  574MOL0     H77452   1.238   6.053   8.734 -0.9758 -0.3432 -2.0045
  574MOL0     H77453   1.418   6.036   8.717 -2.9960 -2.2067  3.6076
  574MOL0     H77454   1.108   6.488   8.848  0.1044  0.8266  2.4288
  574MOL0     H77455   0.956   6.619   8.989 -1.4596 -1.8044  0.4899
  574MOL0     H77456   0.552   6.592   8.990 -0.2166 -0.7009 -0.6232
  574MOL0     H77457   0.692   6.529   9.071 -4.5968 -1.1341  1.7190
  574MOL0     H77458   0.737   6.714   9.209  0.4013  0.0579 -0.3912
  574MOL0     H77459   0.604   6.816   9.145 -0.6707 -0.2472  3.2508
  574MOL0     H77460   0.535   6.757   9.350  1.1270 -0.4565 -0.1223
  574MOL0     H77461   0.573   6.590   9.313 -2.0321 -0.4292  0.9152
  574MOL0     H77462   0.371   6.705   9.117  0.9142 -1.9447 -0.4636
  574MOL0     H77463   0.364   6.567   9.215  0.2354 -0.6511  1.1074
  574MOL0     H77464   0.291   6.848   9.290  2.4043  0.9235 -0.7229
  574MOL0     H77465   0.306   6.723   9.422 -0.4032  3.6980  0.5210
  574MOL0     H77466   0.101   6.800   9.348 -1.6318 -1.2413  1.0026
  574MOL0     H77467   0.116   6.695   9.198  0.8750 -0.2539 -0.8006
  574MOL0     H77468   0.054   6.624   9.473 -3.0944 -0.0160 -1.2419
  574MOL0     H77469   0.186   6.520   9.405  1.7811  1.5873 -2.2975
  574MOL0     H77470   0.053   6.462   9.221  0.7025  4.4013 -2.0042
  574MOL0     H77471  -0.072   6.575   9.257  0.8317  0.0191 -0.7518
  574MOL0     H77472   0.684   6.664   8.655  0.7243 -0.3303 -0.3998
  574MOL0     H77473   0.826   6.503   8.526  0.7344  0.6366 -0.6310
  574MOL0     H77474   1.082   6.302   8.366 -1.1968 -1.1917  2.3394
  574MOL0     H77475   1.211   6.191   8.181  2.0820  0.3080 -0.2189
  574MOL0     H77476   0.517   5.451   7.328 -0.2116  2.0373 -0.3551
  574MOL0     H77477   0.481   5.510   7.097  0.6514 -2.5975 -0.5691
  574MOL0     H77478   0.659   5.808   6.809 -2.1168  1.0204 -0.4477
  574MOL0     H77479   0.626   5.936   6.601  0.4546 -1.0032  1.2194
  574MOL0     H77480   0.853   5.963   6.290  1.6838 -0.7021 -1.9133
  574MOL0     H77481   0.860   5.787   6.271  0.2286  0.3461  5.1136
  574MOL0     H77482   0.648   5.989   6.155 -0.4298  0.3929  1.1909
  574MOL0     H77483   0.669   5.822   6.117  0.9701 -0.1348  0.5570
  574MOL0     H77484   0.861   6.050   6.061 -1.7587 -0.3509  1.9491
  574MOL0     H77485   0.743   5.961   5.950 -0.1266 -2.5595 -0.6468
  574MOL0     H77486   0.883   5.748   6.005  0.9089 -0.1679  1.7011
  574MOL0     H77487   1.004   5.854   6.075 -1.1795  0.1854  1.8654
  574MOL0     H77488   1.050   5.889   5.654  0.5831 -3.5010  0.2349
  574MOL0     H77489   0.814   5.617   6.384  0.8367  0.9259 -1.0018
  574MOL0     H77490   0.794   5.480   6.575 -1.5315 -0.3136  2.0517
  575MOL0     O77491   5.866   1.409   2.713 -0.2555 -0.0404  0.5940
  575MOL0     C77492   5.937   1.331   2.641 -0.2279 -0.3176 -0.4585
  575MOL0     O77493   5.941   1.338   2.503  0.0049 -0.3869  0.4711
  575MOL0     C77494   5.938   1.455   2.431  0.7093 -0.4381 -0.4706
  575MOL0     C77495   5.956   1.438   2.292  0.2251  0.0094  0.7315
  575MOL0     C77496   5.955   1.543   2.192 -0.4648 -0.6227 -0.0351
  575MOL0     C77497   5.922   1.666   2.244  0.5912  0.0603 -0.1773
  575MOL0     O77498   5.902   1.767   2.153 -0.0814 -0.3059  0.9996
  575MOL0     C77499   5.776   1.776   2.095  0.0782 -0.0321 -0.3240
  575MOL0     C77500   5.749   1.928   2.085 -0.7854 -0.6998 -0.5569
  575MOL0     C77501   5.863   2.010   2.014  0.0141  0.0111  0.0693
  575MOL0     C77502   5.815   2.150   1.989  0.4587  0.0543  0.6489
  575MOL0     C77503   5.939   2.241   1.940  0.8547  0.3260 -0.8601
  575MOL0     C77504   5.897   2.386   1.918 -0.0526  0.3491 -0.1466
  575MOL0     C77505   5.863   2.469   2.044 -0.1758 -0.5103  0.6282
  575MOL0     C77506   5.820   2.612   2.006  0.1662  0.1916 -0.2980
  575MOL0     N77507   5.796   2.708   2.123 -1.2493 -0.2961  0.3740
  575MOL0     C77508   5.906   2.751   2.203 -0.1356 -0.0729 -1.0658
  575MOL0     C77509   5.843   2.835   2.284 -0.3416  0.4369 -0.3758
  575MOL0     C77510   5.904   2.929   2.385  0.3946  0.0392 -0.3379
  575MOL0     C77511   5.959   3.058   2.329 -0.5036 -0.7983 -0.1860
  575MOL0     C77512   5.855   3.173   2.327 -0.3979 -0.6624 -0.6998
  575MOL0     C77513   5.890   3.316   2.277 -0.7905  0.3102 -0.8257
  575MOL0     O77514   5.774   3.390   2.242 -0.2482  0.5852 -0.3747
  575MOL0     C77515   5.734   3.493   2.331 -0.1908 -0.4920  0.8169
  575MOL0     C77516   5.777   3.509   2.458  0.5618 -0.1565  0.8748
  575MOL0     C77517   5.722   3.603   2.552  0.1886 -0.9689  0.2040
  575MOL0     C77518   5.763   3.598   2.697 -0.3754 -0.8627 -1.3554
  575MOL0     C77519   5.628   3.703   2.504  0.7283  0.2237  0.4425
  575MOL0     C77520   5.573   3.813   2.588  0.4288 -1.1821  0.8882
  575MOL0     O77521   5.473   3.890   2.523 -0.4783 -0.2757 -0.1365
  575MOL0     C77522   5.411   3.990   2.601  0.0370 -0.2213  0.3397
  575MOL0     C77523   5.424   4.123   2.561  0.5071 -0.0387 -0.3574
  575MOL0     C77524   5.341   4.222   2.613  0.0765  0.1044  0.3666
  575MOL0     C77525   5.246   4.195   2.712 -0.5524 -0.8377  0.5164
  575MOL0     O77526   5.168   4.294   2.765  1.0334 -0.7145  0.4691
  575MOL0     C77527   5.029   4.275   2.782  0.4009 -0.6864 -0.1967
  575MOL0     C77528   4.972   4.256   2.926 -1.3765 -0.8629 -0.3843
  575MOL0     C77529   5.003   4.377   3.016 -0.6474  0.0831 -0.9316
  575MOL0     C77530   4.921   4.364   3.150  1.0404  0.2446 -0.7734
  575MOL0     C77531   4.964   4.469   3.254 -0.1260 -0.3685 -0.6449
  575MOL0     C77532   4.850   4.506   3.351  0.8780 -0.9667 -0.5316
  575MOL0     C77533   4.891   4.622   3.430  0.0558  0.5374 -0.3985
  575MOL0     C77534   4.816   4.659   3.563  0.8963  0.4154 -0.4967
  575MOL0    Cl77535   4.642   4.645   3.545  0.2891  0.2060  0.1617
  575MOL0     C77536   5.243   4.063   2.764 -0.2739 -0.8810  0.3220
  575MOL0     C77537   5.322   3.962   2.703 -0.3051  0.1815 -0.6751
  575MOL0     O77538   5.603   3.839   2.709  0.0906  0.6993 -0.3738
  575MOL0     C77539   5.591   3.695   2.366 -0.2375  0.7732 -0.1449
  575MOL0     C77540   5.627   3.582   2.289 -0.5826  0.6252  0.4298
  575MOL0     N77541   5.706   2.840   2.258  0.4264 -0.5060  0.5427
  575MOL0     N77542   5.677   2.763   2.164  0.3414  0.0632  0.1327
  575MOL0     C77543   5.899   1.693   2.385  0.1177 -0.5531 -0.1783
  575MOL0     C77544   5.910   1.586   2.476 -0.2456  0.9350 -0.3831
  575MOL0     C77545   6.001   1.208   2.708  0.5463 -0.0329 -0.1888
  575MOL0     C77546   5.983   1.188   2.848 -0.6774 -0.0159  0.8084
  575MOL0     C77547   6.039   1.074   2.909 -0.2550 -0.5721 -0.2596
  575MOL0     C77548   6.109   0.982   2.839  0.2278 -0.0646 -0.0060
  575MOL0     O77549   6.153   0.880   2.907 -0.1310 -0.5098  0.8012
  575MOL0     C77550   6.263   0.804   2.862  0.3389  0.0668  0.1917
  575MOL0     C77551   6.300   0.701   2.965 -0.4561  0.9103  0.0386
  575MOL0     C77552   6.173   0.642   3.021 -0.3819  0.8868 -1.3690
  575MOL0     C77553   6.181   0.504   3.105 -0.4038 -0.1501  0.3945
  575MOL0     C77554   6.257   0.410   3.027 -0.2972  0.0047  0.2061
  575MOL0     C77555   6.334   0.338   2.970  0.6219 -0.1339  0.2382
  575MOL0     C77556   6.120   0.997   2.700 -0.3342 -0.0542 -1.4792
  575MOL0     C77557   6.076   1.116   2.637  0.2622  0.4520 -0.7727
  575MOL0     H77558   5.990   1.337   2.272  3.0818 -0.0643  4.6636
  575MOL0     H77559   5.970   1.528   2.085  2.7008 -0.4415  0.3049
  575MOL0     H77560   5.786   1.740   1.992 -0.0161 -1.9320  0.3020
  575MOL0     H77561   5.702   1.719   2.151  0.2742  2.5749  2.8209
  575MOL0     H77562   5.653   1.940   2.033 -1.2263  1.2234  0.5778
  575MOL0     H77563   5.726   1.976   2.181 -3.2518  0.2421 -1.5152
  575MOL0     H77564   5.951   2.012   2.079 -0.7385 -0.8491  1.1568
  575MOL0     H77565   5.879   1.958   1.919 -1.7970 -0.1201 -0.1972
  575MOL0     H77566   5.736   2.152   1.914  0.2042 -0.9246  0.8741
  575MOL0     H77567   5.779   2.189   2.085  0.8477 -2.0716  1.7216
  575MOL0     H77568   6.010   2.239   2.023 -2.6883  0.6020  2.4404
  575MOL0     H77569   5.989   2.202   1.851  1.0839  2.6136 -1.7875
  575MOL0     H77570   5.980   2.426   1.860 -1.0896  0.9549 -1.2569
  575MOL0     H77571   5.816   2.376   1.845  1.6513 -1.3370 -1.9129
  575MOL0     H77572   5.770   2.428   2.087 -0.7873  1.4340  1.2606
  575MOL0     H77573   5.944   2.466   2.117  0.5511  1.6092 -0.0445
  575MOL0     H77574   5.729   2.584   1.953 -1.0305 -1.4457  2.3839
  575MOL0     H77575   5.891   2.654   1.934 -1.4257  2.2202 -0.7733
  575MOL0     H77576   6.013   2.745   2.188  0.6839 -3.5027  3.5786
  575MOL0     H77577   5.829   2.953   2.460 -0.1660  1.3598 -1.2887
  575MOL0     H77578   5.989   2.871   2.422 -0.3824 -0.3131  0.9396
  575MOL0     H77579   6.001   3.032   2.232  3.6956  5.3073 -0.5196
  575MOL0     H77580   6.043   3.096   2.387 -0.3777 -0.4403 -0.6015
  575MOL0     H77581   5.813   3.172   2.428  0.3014 -0.0400 -0.3942
  575MOL0     H77582   5.773   3.133   2.267  0.2451 -3.5587  0.1663
  575MOL0     H77583   5.954   3.302   2.190 -1.3250 -0.5079 -1.0961
  575MOL0     H77584   5.956   3.378   2.339  0.7457 -1.5601 -0.5009
  575MOL0     H77585   5.843   3.438   2.508  2.0408  1.6894  1.6753
  575MOL0     H77586   5.832   3.677   2.726  0.8726 -2.0411 -1.0061
  575MOL0     H77587   5.671   3.596   2.758 -0.2573  1.2750 -1.0502
  575MOL0     H77588   5.821   3.507   2.718  1.7333  0.6717 -0.1773
  575MOL0     H77589   5.496   4.139   2.481  0.6273  1.3681  0.0153
  575MOL0     H77590   5.347   4.321   2.567  4.0735 -1.0891 -2.1981
  575MOL0     H77591   4.982   4.366   2.743  1.5709  0.4276  0.8753
  575MOL0     H77592   4.969   4.195   2.737  0.8458 -2.8448  2.6990
  575MOL0     H77593   4.868   4.226   2.912 -1.6733 -1.1066  1.8546
  575MOL0     H77594   5.021   4.176   2.982  0.1257  1.4476  1.9064
  575MOL0     H77595   4.973   4.472   2.971  1.9272  2.7506  2.4745
  575MOL0     H77596   5.108   4.382   3.046 -1.3295  1.5219  1.4800
  575MOL0     H77597   4.818   4.387   3.122 -0.7925  0.1310  4.7475
  575MOL0     H77598   4.924   4.267   3.200  1.1356 -0.0826 -1.4008
  575MOL0     H77599   5.010   4.552   3.200  2.0902 -0.0186  1.5747
  575MOL0     H77600   5.049   4.445   3.319 -0.0821  1.7428  0.1417
  575MOL0     H77601   4.761   4.532   3.293 -0.1756 -3.5572 -0.1792
  575MOL0     H77602   4.818   4.423   3.414 -1.3776  0.9573  1.0588
  575MOL0     H77603   4.890   4.718   3.378 -1.7642 -0.5919 -2.6624
  575MOL0     H77604   4.996   4.601   3.449 -0.2964 -1.6002 -0.5121
  575MOL0     H77605   4.848   4.752   3.609 -1.4691  1.4583 -0.8347
  575MOL0     H77606   4.844   4.577   3.630 -3.2418 -0.3861  0.5880
  575MOL0     H77607   5.166   4.028   2.833 -2.2314  1.9722 -0.2439
  575MOL0     H77608   5.312   3.858   2.732  1.1817 -0.5174 -2.4437
  575MOL0     H77609   5.534   3.773   2.315 -1.5912 -0.7703 -1.1043
  575MOL0     H77610   5.593   3.565   2.188 -0.0765  0.9025  0.2061
  575MOL0     H77611   5.859   1.788   2.418 -4.3843 -2.1111 -0.3448
  575MOL0     H77612   5.881   1.605   2.579  2.6900  1.4878  0.4509
  575MOL0     H77613   5.932   1.259   2.913  1.3719 -0.2232  2.7822
  575MOL0     H77614   6.018   1.053   3.014 -0.0666  1.2301  0.1673
  575MOL0     H77615   6.227   0.757   2.769 -1.4199 -0.6574  1.1947
  575MOL0     H77616   6.349   0.869   2.845 -0.4086  1.2792  0.9785
  575MOL0     H77617   6.347   0.749   3.052 -4.6425  2.0110  1.9730
  575MOL0     H77618   6.368   0.625   2.928 -0.6889  0.8193 -0.2027
  575MOL0     H77619   6.090   0.630   2.950 -0.5339 -2.6703 -0.7805
  575MOL0     H77620   6.136   0.707   3.101 -0.8205  0.1173 -0.9284
  575MOL0     H77621   6.081   0.462   3.122 -1.8397  1.5471 -2.8554
  575MOL0     H77622   6.219   0.518   3.207 -0.9295  1.8043  0.3597
  575MOL0     H77623   6.386   0.287   2.891 -1.0664 -3.1110  0.9040
  575MOL0     H77624   6.183   0.925   2.650 -0.2695 -2.3035  1.5646
  575MOL0     H77625   6.092   1.122   2.529  0.2294 -1.7127 -0.9534
  576MOL0     O77626   0.235   2.937   8.287  0.1039  1.1209  0.1599
  576MOL0     C77627   0.180   2.834   8.331 -0.4847 -0.4145 -0.4940
  576MOL0     O77628   0.185   2.794   8.465  0.0446  0.4417  0.9773
  576MOL0     C77629   0.261   2.868   8.555 -0.2421 -0.5147 -0.9910
  576MOL0     C77630   0.304   2.783   8.665 -0.2910  0.1187  0.3988
  576MOL0     C77631   0.373   2.843   8.771  0.4307 -0.0315 -0.2807
  576MOL0     C77632   0.378   2.983   8.786  0.5092 -1.4720  0.1133
  576MOL0     O77633   0.448   3.048   8.891  0.3603  0.4417 -0.4282
  576MOL0     C77634   0.363   3.122   8.982 -0.9043  0.1375  0.2912
  576MOL0     C77635   0.356   3.050   9.112  0.9068  0.3645 -0.1385
  576MOL0     C77636   0.492   3.026   9.185  0.3014 -0.3153  0.6026
  576MOL0     C77637   0.482   2.917   9.289  0.1969 -0.6570  0.2378
  576MOL0     C77638   0.618   2.875   9.333  0.1725  0.6468  0.8606
  576MOL0     C77639   0.694   2.976   9.405  0.9890 -0.0009  0.2600
  576MOL0     C77640   0.827   2.944   9.483 -0.0960  0.3290 -0.2341
  576MOL0     C77641   0.798   2.894   9.623  1.0481 -1.5365  0.8430
  576MOL0     N77642   0.893   2.950   9.720 -0.6146 -0.7127  0.3651
  576MOL0     C77643   1.034   2.937   9.720 -0.4093  0.0436  0.0696
  576MOL0     C77644   1.074   3.000   9.834  0.2121  0.1847 -0.8339
  576MOL0     C77645   1.220   3.018   9.895  0.0890 -0.4997  0.5534
  576MOL0     C77646   1.319   3.019   9.771  0.2241  0.2734  0.0136
  576MOL0     C77647   1.468   3.054   9.809 -0.0589  0.1331  0.9027
  576MOL0     C77648   1.552   3.082   9.679  0.3573 -0.2685 -0.0830
  576MOL0     O77649   1.556   2.972   9.588  0.2984 -0.1503 -0.7022
  576MOL0     C77650   1.627   3.003   9.475  0.7894 -0.1680 -0.1949
  576MOL0     C77651   1.565   3.072   9.369  0.1004 -1.0377 -0.9718
  576MOL0     C77652   1.637   3.114   9.252 -0.6736  0.1890 -0.2526
  576MOL0     C77653   1.569   3.198   9.149 -1.3273 -0.5753  0.6459
  576MOL0     C77654   1.775   3.066   9.246  0.1856 -0.9126  0.6378
  576MOL0     C77655   1.867   3.109   9.136  0.3073 -0.0471  0.1853
  576MOL0     O77656   1.997   3.062   9.153  0.5057  0.0239  0.3102
  576MOL0     C77657   2.090   3.081   9.049  0.0518 -0.6515  1.0922
  576MOL0     C77658   2.192   2.985   9.031  1.0736 -0.0894  0.9036
  576MOL0     C77659   2.303   3.012   8.951  0.0962  0.3130  0.2846
  576MOL0     C77660   2.320   3.123   8.871  0.0417  0.0157 -0.4198
  576MOL0     O77661   2.432   3.125   8.796  0.0631  0.1646  0.0674
  576MOL0     C77662   2.451   3.233   8.710 -0.1015 -0.2888 -0.3719
  576MOL0     C77663   2.571   3.221   8.624  0.4667 -0.1496 -0.4419
  576MOL0     C77664   2.693   3.234   8.715 -0.2765 -1.0506  0.8237
  576MOL0     C77665   2.814   3.154   8.659  0.2874 -0.3277 -0.4851
  576MOL0     C77666   2.930   3.174   8.744  0.2787  0.0908  0.4721
  576MOL0     C77667   2.980   3.314   8.740  0.1811 -0.3551  0.7497
  576MOL0     C77668   3.125   3.317   8.781 -0.2209  0.4661  0.8970
  576MOL0     C77669   3.153   3.255   8.915  0.2885  0.3065 -0.7803
  576MOL0    Cl77670   3.331   3.217   8.925  0.3087  0.7030  0.0932
  576MOL0     C77671   2.216   3.223   8.881  0.9233 -1.2384  1.0745
  576MOL0     C77672   2.104   3.199   8.962  1.4488  0.7750 -0.3408
  576MOL0     O77673   1.825   3.158   9.030 -0.7181  0.7228 -0.4599
  576MOL0     C77674   1.827   2.976   9.350  0.2252  0.8419 -0.4344
  576MOL0     C77675   1.751   2.956   9.457 -0.3514  0.5800 -0.3865
  576MOL0     N77676   0.961   3.057   9.894 -0.5610 -0.2352  0.0239
  576MOL0     N77677   0.850   3.027   9.825  0.1290 -0.7082 -0.5964
  576MOL0     C77678   0.337   3.062   8.671 -1.1984  0.5682  0.5895
  576MOL0     C77679   0.283   3.002   8.561  0.5381  0.1464 -0.1189
  576MOL0     C77680   0.097   2.762   8.242  0.9376 -0.0066  1.0303
  576MOL0     C77681  -0.013   2.690   8.294  0.7225 -0.0115 -0.5589
  576MOL0     C77682  -0.096   2.618   8.201 -0.3204 -1.1246 -0.1400
  576MOL0     C77683  -0.083   2.635   8.067  0.2050 -0.6088  0.3253
  576MOL0     O77684  -0.167   2.561   7.994  0.4634 -0.6154  0.5178
  576MOL0     C77685  -0.116   2.493   7.880  0.2283  0.6856  0.3265
  576MOL0     C77686  -0.099   2.568   7.752 -0.0200 -0.7758  0.8259
  576MOL0     C77687  -0.211   2.674   7.739 -0.2349  0.1930 -1.1451
  576MOL0     C77688  -0.191   2.741   7.609 -0.7823 -0.3559  0.4735
  576MOL0     C77689  -0.163   2.671   7.489  0.0211 -0.0126 -0.2833
  576MOL0     C77690  -0.142   2.632   7.372 -0.7183 -0.1231 -0.8425
  576MOL0     C77691   0.015   2.723   8.016  0.1883  0.0199 -0.4320
  576MOL0     C77692   0.103   2.784   8.104  0.8145 -0.6712  0.9883
  576MOL0     H77693   0.302   2.675   8.652 -0.8402  0.4358 -3.0868
  576MOL0     H77694   0.405   2.775   8.850  1.8334 -1.6847 -2.1775
  576MOL0     H77695   0.425   3.210   9.001  0.6382 -1.2202  1.9705
  576MOL0     H77696   0.273   3.153   8.929 -0.5218  2.0564  0.6805
  576MOL0     H77697   0.284   3.093   9.182  2.7158  1.3447  1.2112
  576MOL0     H77698   0.321   2.947   9.097  3.0833 -0.3086 -0.9929
  576MOL0     H77699   0.577   3.001   9.119  0.2863 -0.9275  0.8116
  576MOL0     H77700   0.511   3.126   9.225 -0.0596 -0.4205  1.0385
  576MOL0     H77701   0.410   2.936   9.369 -2.6394  2.1347 -2.6695
  576MOL0     H77702   0.439   2.829   9.240 -0.1618  0.5928 -1.8196
  576MOL0     H77703   0.618   2.782   9.391  0.1876 -1.1763 -1.9237
  576MOL0     H77704   0.677   2.856   9.244  3.7284  0.4156  3.0689
  576MOL0     H77705   0.713   3.050   9.326 -2.1160  0.0764 -0.5281
  576MOL0     H77706   0.617   3.025   9.465 -0.3136 -0.5769 -0.8990
  576MOL0     H77707   0.895   2.873   9.434  0.7048  0.2405  0.9723
  576MOL0     H77708   0.891   3.032   9.474  0.6218 -0.1579  0.0471
  576MOL0     H77709   0.821   2.787   9.630  2.8984 -1.0525  5.3228
  576MOL0     H77710   0.691   2.906   9.643  0.7949 -0.2572 -1.0237
  576MOL0     H77711   1.093   2.885   9.645 -0.1359  1.4152 -0.7053
  576MOL0     H77712   1.216   3.117   9.940  0.5756 -0.6537  0.9471
  576MOL0     H77713   1.237   2.949   9.978 -1.1855 -1.0865  0.3588
  576MOL0     H77714   1.287   3.108   9.715  0.7148  2.9593  3.6775
  576MOL0     H77715   1.308   2.927   9.712 -1.0330  0.0212  0.5986
  576MOL0     H77716   1.511   2.960   9.843 -1.1925 -1.2038 -1.1940
  576MOL0     H77717   1.471   3.130   9.888  3.2302 -0.6433  1.6648
  576MOL0     H77718   1.654   3.108   9.708 -0.1188 -0.9652  2.5601
  576MOL0     H77719   1.503   3.170   9.637 -1.2704 -1.3817 -0.5916
  576MOL0     H77720   1.463   3.106   9.381  0.2130 -0.3124 -1.9649
  576MOL0     H77721   1.625   3.286   9.115  0.7786 -1.1451  2.4066
  576MOL0     H77722   1.527   3.137   9.069  0.0675 -1.4044  0.5325
  576MOL0     H77723   1.477   3.235   9.196 -2.9532 -3.0575 -0.4164
  576MOL0     H77724   2.182   2.898   9.096 -3.4938 -1.1330 -0.8004
  576MOL0     H77725   2.386   2.943   8.939  0.7973  1.1265  0.3536
  576MOL0     H77726   2.370   3.229   8.637 -2.0818 -1.7423  1.7680
  576MOL0     H77727   2.462   3.321   8.774  1.1628  0.4681 -1.5721
  576MOL0     H77728   2.558   3.121   8.580 -6.3300  0.2785 -0.4955
  576MOL0     H77729   2.572   3.293   8.542  3.0799 -1.4403 -1.6595
  576MOL0     H77730   2.665   3.201   8.815 -0.6901 -3.6320 -0.0810
  576MOL0     H77731   2.717   3.341   8.726  4.0622 -1.2510 -3.2677
  576MOL0     H77732   2.788   3.048   8.671 -2.3748  0.4944  2.4201
  576MOL0     H77733   2.834   3.179   8.554 -1.0427  1.6329 -0.3255
  576MOL0     H77734   3.004   3.096   8.723 -2.1080 -2.6013  1.3477
  576MOL0     H77735   2.905   3.163   8.850  0.0468  1.2510  0.5514
  576MOL0     H77736   2.975   3.369   8.645 -1.1996  1.7706  1.9721
  576MOL0     H77737   2.930   3.382   8.810  2.5465  0.8207  1.3964
  576MOL0     H77738   3.141   3.423   8.801  1.0849  0.0529  2.2286
  576MOL0     H77739   3.188   3.274   8.703 -2.6750 -1.8202  0.0192
  576MOL0     H77740   3.106   3.157   8.929  1.3879 -0.2053 -0.5325
  576MOL0     H77741   3.121   3.322   8.995  0.1882 -1.1385  0.4304
  576MOL0     H77742   2.229   3.323   8.841  1.9591 -2.2564 -1.3367
  576MOL0     H77743   2.024   3.272   8.967  0.4301 -0.4001  2.7070
  576MOL0     H77744   1.928   2.938   9.335  0.4679  1.8956 -1.6213
  576MOL0     H77745   1.804   2.905   9.536 -1.5162  1.6780  1.1858
  576MOL0     H77746   0.352   3.168   8.656 -0.2686  0.2779 -0.7082
  576MOL0     H77747   0.241   3.070   8.488 -1.4454  1.3883  2.0413
  576MOL0     H77748  -0.031   2.697   8.401  0.0643 -3.7616 -0.3141
  576MOL0     H77749  -0.179   2.558   8.235 -2.4005  1.8793  0.4870
  576MOL0     H77750  -0.020   2.447   7.903 -2.1642 -2.8584  4.9228
  576MOL0     H77751  -0.175   2.405   7.855  2.5099 -0.1411 -2.8920
  576MOL0     H77752  -0.113   2.489   7.677  0.5812  1.6190 -1.9707
  576MOL0     H77753   0.003   2.602   7.734  0.1463 -2.1175 -1.0430
  576MOL0     H77754  -0.207   2.750   7.818  2.1299  1.3456 -2.2604
  576MOL0     H77755  -0.304   2.616   7.733  1.2043 -2.3438 -0.3424
  576MOL0     H77756  -0.127   2.830   7.612 -2.6523  1.0588  0.0669
  576MOL0     H77757  -0.279   2.803   7.589 -0.3513  0.2481  0.3957
  576MOL0     H77758  -0.140   2.616   7.266  0.0459  0.6816 -0.9609
  576MOL0     H77759   0.031   2.743   7.911  0.0222 -0.0920 -0.4797
  576MOL0     H77760   0.185   2.828   8.046 -1.3426  1.6570 -0.5414
  577MOL0     O77761   4.989   0.705   7.165 -1.0328 -0.5947  0.2938
  577MOL0     C77762   5.068   0.728   7.074 -0.3562 -0.1024 -0.5034
  577MOL0     O77763   5.047   0.801   6.957  0.5773 -0.0137 -0.4154
  577MOL0     C77764   4.953   0.896   6.975 -0.3455  0.0384 -0.1083
  577MOL0     C77765   4.995   1.028   6.984 -0.4211  0.4838  0.2023
  577MOL0     C77766   4.901   1.126   7.014  1.2275 -0.1058 -0.2368
  577MOL0     C77767   4.765   1.102   7.004  0.3815 -1.2062 -0.2881
  577MOL0     O77768   4.670   1.207   6.999 -0.7059  0.0979  0.2813
  577MOL0     C77769   4.599   1.216   7.121  0.0523 -1.1717  0.6099
  577MOL0     C77770   4.600   1.361   7.160 -0.3754 -0.8804  0.3495
  577MOL0     C77771   4.562   1.388   7.305 -0.0690 -0.3793 -0.4956
  577MOL0     C77772   4.678   1.345   7.407 -0.1515  0.1673  0.5134
  577MOL0     C77773   4.677   1.195   7.455  0.7265 -0.3301  0.3247
  577MOL0     C77774   4.814   1.146   7.491 -1.0476 -0.2060  1.0988
  577MOL0     C77775   4.923   1.126   7.384  1.6583 -0.0766  0.4433
  577MOL0     C77776   5.047   1.066   7.453  0.0443 -0.0755  1.0015
  577MOL0     N77777   5.157   1.054   7.348  0.6144 -0.0895  0.0538
  577MOL0     C77778   5.218   1.162   7.305 -0.3479  0.6143  0.0881
  577MOL0     C77779   5.292   1.125   7.193  0.0351 -0.3946  0.6966
  577MOL0     C77780   5.369   1.217   7.100 -0.4868 -0.5147  0.9320
  577MOL0     C77781   5.519   1.216   7.123  0.6206  0.0860 -0.6645
  577MOL0     C77782   5.581   1.097   7.049  0.1683 -1.2451 -0.6200
  577MOL0     C77783   5.610   1.130   6.905  0.0966  0.0118 -0.1651
  577MOL0     O77784   5.546   1.019   6.831  0.8358  0.2384  0.0583
  577MOL0     C77785   5.456   1.052   6.729 -1.1512 -0.0655 -0.3951
  577MOL0     C77786   5.327   0.999   6.717  0.3420 -0.2825  0.1870
  577MOL0     C77787   5.240   1.040   6.622  0.0155 -0.7390  0.2095
  577MOL0     C77788   5.107   0.974   6.629  1.1010 -0.7513  0.7008
  577MOL0     C77789   5.285   1.138   6.522  0.4467  0.3130 -0.2194
  577MOL0     C77790   5.226   1.167   6.393  0.2073  0.1024 -0.0461
  577MOL0     O77791   5.247   1.296   6.352  0.0929  0.6891 -0.0611
  577MOL0     C77792   5.182   1.318   6.237 -1.3169 -0.4659  0.2633
  577MOL0     C77793   5.046   1.339   6.233  0.7234 -0.7201  0.3041
  577MOL0     C77794   4.992   1.395   6.109  0.6085  0.0856  1.1711
  577MOL0     C77795   5.073   1.398   5.992 -0.1203  0.2675  0.5938
  577MOL0     O77796   5.004   1.425   5.877  0.0318 -0.0566  0.4707
  577MOL0     C77797   4.977   1.563   5.840  0.8853 -0.5236  0.1031
  577MOL0     C77798   4.886   1.565   5.720 -0.4329  0.3084  0.4253
  577MOL0     C77799   4.853   1.703   5.655 -0.1154 -0.2043 -0.0554
  577MOL0     C77800   4.762   1.682   5.535 -0.1330 -0.1294 -0.7349
  577MOL0     C77801   4.742   1.811   5.460  1.1702 -0.3211  0.2568
  577MOL0     C77802   4.627   1.804   5.364 -0.1630 -0.0030  0.2451
  577MOL0     C77803   4.659   1.869   5.228 -0.5829 -0.3285  0.0353
  577MOL0     C77804   4.538   1.883   5.146  0.1780 -0.4016 -0.0401
  577MOL0    Cl77805   4.409   1.990   5.239 -0.0487  0.3387  0.3294
  577MOL0     C77806   5.208   1.377   5.995  0.8915  0.0452 -0.3840
  577MOL0     C77807   5.263   1.347   6.117 -0.5302  1.2270  0.4078
  577MOL0     O77808   5.162   1.081   6.337  0.0988  0.0440  0.3157
  577MOL0     C77809   5.416   1.182   6.543 -0.1994 -0.3532  0.1936
  577MOL0     C77810   5.502   1.152   6.644  0.2133  0.2364  0.3226
  577MOL0     N77811   5.267   0.988   7.172 -0.1475 -1.2610 -0.6799
  577MOL0     N77812   5.177   0.952   7.261  0.1117  0.7231  0.3871
  577MOL0     C77813   4.725   0.973   6.975 -0.1279 -0.2309  0.7757
  577MOL0     C77814   4.819   0.871   6.964  0.1987 -0.1569 -0.0344
  577MOL0     C77815   5.204   0.653   7.085  0.4275  0.4645 -0.7212
  577MOL0     C77816   5.247   0.593   7.203  0.1262 -0.0364  0.0145
  577MOL0     C77817   5.365   0.531   7.216 -0.0390  0.9133 -0.6865
  577MOL0     C77818   5.454   0.513   7.117  0.2306  0.2335  0.7723
  577MOL0     O77819   5.588   0.464   7.119  0.7181 -0.2267  0.1155
  577MOL0     C77820   5.636   0.402   7.242  0.0044 -0.5201 -0.4279
  577MOL0     C77821   5.728   0.286   7.201  0.3051  0.0963 -0.4285
  577MOL0     C77822   5.869   0.314   7.157  0.7153 -1.0087  0.7038
  577MOL0     C77823   5.940   0.178   7.162  0.4529 -0.3716  0.6514
  577MOL0     C77824   6.080   0.190   7.130 -0.6226 -0.1314 -0.3185
  577MOL0     C77825   6.200   0.218   7.111  0.0859  0.0966 -0.0269
  577MOL0     C77826   5.425   0.580   6.999  0.0600  0.2349 -0.3767
  577MOL0     C77827   5.300   0.649   6.978  0.2733 -0.7722  0.1518
  577MOL0     H77828   5.100   1.044   6.966  0.0503 -2.0610  0.3882
  577MOL0     H77829   4.933   1.227   7.036  2.8816 -1.1039  2.2711
  577MOL0     H77830   4.507   1.159   7.108  1.7447 -3.6766 -1.7026
  577MOL0     H77831   4.659   1.170   7.200  0.5030 -2.5728 -0.5040
  577MOL0     H77832   4.696   1.412   7.146 -0.7930 -0.2641 -0.3109
  577MOL0     H77833   4.537   1.415   7.089  1.2508  0.4148 -0.1832
  577MOL0     H77834   4.540   1.495   7.312  1.0646 -0.1972  0.5428
  577MOL0     H77835   4.468   1.335   7.322  0.0683 -0.5584 -0.2838
  577MOL0     H77836   4.777   1.376   7.374  0.0311  0.3763  1.2267
  577MOL0     H77837   4.664   1.407   7.496  1.4445  1.2738  0.0472
  577MOL0     H77838   4.612   1.192   7.543 -1.4141  0.8085 -1.1138
  577MOL0     H77839   4.619   1.133   7.386  0.3214  2.6222 -2.2013
  577MOL0     H77840   4.845   1.213   7.572 -2.5203  1.6479  0.2068
  577MOL0     H77841   4.815   1.046   7.535  2.9498 -1.5624 -1.5502
  577MOL0     H77842   4.884   1.047   7.319  3.2145 -1.0844  0.6649
  577MOL0     H77843   4.955   1.218   7.336  0.0242  0.9313  1.1989
  577MOL0     H77844   5.032   0.972   7.508  3.1279 -1.3743 -0.1591
  577MOL0     H77845   5.081   1.144   7.522 -0.8595 -0.5148  1.9801
  577MOL0     H77846   5.212   1.264   7.341  3.8422  1.0386  0.0401
  577MOL0     H77847   5.333   1.188   7.001 -0.1058 -3.4462  1.5778
  577MOL0     H77848   5.339   1.322   7.105 -0.4318 -0.4796  0.5242
  577MOL0     H77849   5.541   1.212   7.231  0.2787  4.1660 -0.2895
  577MOL0     H77850   5.583   1.297   7.087  2.1495 -0.0398  1.5269
  577MOL0     H77851   5.513   1.014   7.072 -3.6209  1.4738 -1.0113
  577MOL0     H77852   5.680   1.080   7.092 -1.0035 -0.8511  2.5011
  577MOL0     H77853   5.716   1.121   6.878  0.1747 -2.8324  0.7965
  577MOL0     H77854   5.563   1.224   6.875  1.7817  0.7961 -0.4938
  577MOL0     H77855   5.279   0.931   6.787 -2.7201  0.8970 -0.6017
  577MOL0     H77856   5.116   0.880   6.573 -0.8914 -1.7252  1.8533
  577MOL0     H77857   5.067   0.947   6.727  1.8258  0.4978  1.3596
  577MOL0     H77858   5.032   1.030   6.573  2.2815  0.0130 -0.1535
  577MOL0     H77859   4.989   1.343   6.325  0.3053 -0.6494  0.0445
  577MOL0     H77860   4.887   1.424   6.107  0.4075 -0.6243 -0.8280
  577MOL0     H77861   4.926   1.615   5.922 -2.3007  0.3538 -2.2427
  577MOL0     H77862   5.073   1.613   5.824  0.2177  0.1789 -1.9492
  577MOL0     H77863   4.952   1.514   5.649  1.4260 -0.4585  2.5767
  577MOL0     H77864   4.798   1.504   5.741  0.2725 -0.7805  0.2574
  577MOL0     H77865   4.941   1.762   5.630  0.1501  0.8298  2.9029
  577MOL0     H77866   4.805   1.764   5.733 -0.4034 -0.6375  0.1060
  577MOL0     H77867   4.803   1.614   5.460 -3.7587  0.2411 -3.3508
  577MOL0     H77868   4.669   1.635   5.570 -0.4734  0.8210 -0.3322
  577MOL0     H77869   4.832   1.818   5.399  1.2463 -0.7383  0.3149
  577MOL0     H77870   4.726   1.901   5.520 -1.5248 -0.8454  0.4203
  577MOL0     H77871   4.598   1.700   5.348  2.4952 -1.0487  1.6970
  577MOL0     H77872   4.550   1.859   5.420  1.7275 -2.3024  5.7689
  577MOL0     H77873   4.733   1.808   5.177 -1.7733 -2.0543  0.2978
  577MOL0     H77874   4.683   1.974   5.246  2.2455 -0.1809 -3.4693
  577MOL0     H77875   4.493   1.784   5.135 -0.1008 -0.0782 -2.0785
  577MOL0     H77876   4.567   1.910   5.045  2.0957 -2.5587 -0.1256
  577MOL0     H77877   5.263   1.386   5.902 -0.0618 -1.4698 -1.1306
  577MOL0     H77878   5.368   1.322   6.126 -1.4288 -3.1622  1.3654
  577MOL0     H77879   5.464   1.246   6.469 -1.1636 -0.2309 -0.3429
  577MOL0     H77880   5.603   1.190   6.648  0.5734 -0.6446 -0.0449
  577MOL0     H77881   4.617   0.963   6.966 -0.0137 -0.9150  0.0774
  577MOL0     H77882   4.770   0.775   6.952 -0.6566  0.2770 -0.1133
  577MOL0     H77883   5.190   0.606   7.295 -0.0645 -1.4608  0.1205
  577MOL0     H77884   5.383   0.497   7.318  1.4916 -0.1350 -1.2673
  577MOL0     H77885   5.689   0.473   7.305 -2.6715 -0.3147  1.7695
  577MOL0     H77886   5.546   0.364   7.290 -2.5712  0.1299 -4.2569
  577MOL0     H77887   5.676   0.224   7.128 -0.1958  0.0289 -0.0196
  577MOL0     H77888   5.734   0.221   7.289 -1.7145  1.0932  0.5068
  577MOL0     H77889   5.919   0.378   7.231 -2.7640  0.5151  1.9465
  577MOL0     H77890   5.883   0.357   7.057 -0.6765 -0.1832  0.8327
  577MOL0     H77891   5.896   0.113   7.085  0.1696  0.9571 -0.3578
  577MOL0     H77892   5.943   0.129   7.259  2.1065  0.2967  0.9612
  577MOL0     H77893   6.304   0.246   7.111  0.0130  0.5348 -2.1378
  577MOL0     H77894   5.491   0.569   6.914 -1.9899 -1.8903 -1.8489
  577MOL0     H77895   5.266   0.683   6.881 -0.7240 -2.7993 -0.2560
  578MOL0     O77896   8.798   9.520   6.957  0.1742  0.1345 -0.1023
  578MOL0     C77897   8.816   9.396   6.973 -0.3137  0.1458 -0.1078
  578MOL0     O77898   8.841   9.305   6.876  0.7241  0.0819  0.1449
  578MOL0     C77899   8.834   9.365   6.748 -0.1062 -0.4492  1.2039
  578MOL0     C77900   8.725   9.352   6.664 -0.3735  1.1840  0.0314
  578MOL0     C77901   8.737   9.410   6.537 -0.5352 -0.8574  0.7321
  578MOL0     C77902   8.846   9.484   6.490 -0.9498  0.0504  0.0197
  578MOL0     O77903   8.839   9.544   6.373 -0.1760  0.0912  0.5213
  578MOL0     C77904   8.920   9.471   6.275  0.3440 -0.0819  1.3085
  578MOL0     C77905   8.894   9.522   6.134  0.3650 -0.2471 -0.1555
  578MOL0     C77906   8.938   9.675   6.112 -0.1831  0.2167  0.1706
  578MOL0     C77907   8.947   9.690   5.954  0.3623  1.0768  0.4322
  578MOL0     C77908   9.009   9.829   5.918  0.1607  1.3903 -0.1385
  578MOL0     C77909   8.905   9.944   5.935  0.7107 -0.1200  0.1874
  578MOL0     C77910   8.938  10.073   5.857  0.7568  0.4755  0.7222
  578MOL0     C77911   8.815  10.159   5.864  0.0321 -0.8445  0.1242
  578MOL0     N77912   8.850  10.293   5.819 -1.0436 -0.1707 -0.3973
  578MOL0     C77913   8.828  10.357   5.694 -0.3650  0.0250 -0.0364
  578MOL0     C77914   8.884  10.483   5.710 -0.0440  0.1043 -0.1307
  578MOL0     C77915   8.905  10.583   5.601  1.2377  0.4532  0.2417
  578MOL0     C77916   9.024  10.575   5.508  0.0240 -0.0430  0.4444
  578MOL0     C77917   9.037  10.435   5.438  0.9818 -0.8625  0.4511
  578MOL0     C77918   9.143  10.439   5.326 -0.2171 -0.0810 -0.6615
  578MOL0     O77919   9.129  10.321   5.250 -0.4454 -0.0971 -0.1522
  578MOL0     C77920   9.051  10.321   5.142  0.0759  0.1752  0.1669
  578MOL0     C77921   9.038  10.196   5.078  0.8054  0.1589  0.8172
  578MOL0     C77922   8.956  10.172   4.965 -1.0743  0.3231  1.2110
  578MOL0     C77923   8.940  10.027   4.919 -0.6260 -0.2766  0.3411
  578MOL0     C77924   8.896  10.282   4.911 -0.2665 -0.5973  0.2611
  578MOL0     C77925   8.814  10.287   4.792  0.5828  0.2009 -0.3210
  578MOL0     O77926   8.822  10.177   4.705  1.0099 -0.3102  0.1584
  578MOL0     C77927   8.741  10.183   4.597  0.2057 -0.6159 -0.0785
  578MOL0     C77928   8.636  10.094   4.590 -1.0992  0.1942  0.4576
  578MOL0     C77929   8.545  10.089   4.480 -0.4777 -0.8519 -0.1251
  578MOL0     C77930   8.565  10.182   4.381  0.3280  0.0029  0.3719
  578MOL0     O77931   8.485  10.181   4.276  0.1573  0.1840  0.0982
  578MOL0     C77932   8.440  10.304   4.220 -0.1569 -0.4320 -0.1839
  578MOL0     C77933   8.288  10.293   4.189 -0.3544 -0.1216  0.2067
  578MOL0     C77934   8.229  10.425   4.137 -0.4035 -0.3547 -0.4345
  578MOL0     C77935   8.233  10.434   3.990 -0.9838  0.9955  0.0262
  578MOL0     C77936   8.103  10.526   3.946 -0.8081  0.5787 -1.3860
  578MOL0     C77937   8.109  10.592   3.808 -0.5841  0.2593 -0.7132
  578MOL0     C77938   8.040  10.504   3.703 -0.7144  0.1656 -0.1500
  578MOL0     C77939   8.035  10.578   3.567  0.8575  0.2063 -0.0862
  578MOL0    Cl77940   8.195  10.588   3.492 -0.2675  0.0993  0.2517
  578MOL0     C77941   8.668  10.270   4.387  0.4585  1.2749  0.8874
  578MOL0     C77942   8.761  10.272   4.492  0.1130 -0.0793  0.6221
  578MOL0     O77943   8.731  10.378   4.779 -0.0714  0.1134 -0.0970
  578MOL0     C77944   8.915  10.405   4.974  0.6395 -0.0716 -0.3954
  578MOL0     C77945   8.975  10.426   5.092 -0.4797  0.0236 -0.5712
  578MOL0     N77946   8.926  10.493   5.836  0.3830 -0.6405 -0.0663
  578MOL0     N77947   8.914  10.383   5.903 -0.5956  0.1718  0.8031
  578MOL0     C77948   8.961   9.493   6.570 -0.9723 -0.6649 -0.6748
  578MOL0     C77949   8.960   9.426   6.698 -0.2925  0.0953 -0.2761
  578MOL0     C77950   8.829   9.343   7.110  0.0222 -0.0052  0.2495
  578MOL0     C77951   8.860   9.210   7.133 -0.3678  0.6311  0.2664
  578MOL0     C77952   8.895   9.158   7.258  1.1164  0.0911  0.7037
  578MOL0     C77953   8.853   9.237   7.365 -0.3133 -1.0799 -0.0258
  578MOL0     O77954   8.817   9.189   7.483  0.5378 -0.5369  0.3772
  578MOL0     C77955   8.934   9.134   7.556  0.1328 -1.0218  0.2874
  578MOL0     C77956   8.944   9.159   7.709  0.1285 -0.4957 -0.2545
  578MOL0     C77957   9.090   9.119   7.767 -0.6394  0.0549 -0.3256
  578MOL0     C77958   9.089   9.012   7.874 -0.6866  0.3209  0.8354
  578MOL0     C77959   9.025   9.047   8.003  1.0465 -0.3941  1.2242
  578MOL0     C77960   8.966   9.102   8.096 -0.3744 -1.0003  1.2126
  578MOL0     C77961   8.819   9.376   7.348 -0.2032  1.1225 -0.1535
  578MOL0     C77962   8.816   9.430   7.220  0.1556  0.4851  0.6992
  578MOL0     H77963   8.632   9.309   6.701  1.3156 -3.6069 -0.5313
  578MOL0     H77964   8.660   9.407   6.460  0.2397 -0.9274 -0.0565
  578MOL0     H77965   9.023   9.500   6.296  0.8021 -0.7092  0.0931
  578MOL0     H77966   8.920   9.365   6.301  1.1388 -0.3494  0.3167
  578MOL0     H77967   8.958   9.459   6.070  0.0188 -1.0339  0.2663
  578MOL0     H77968   8.796   9.487   6.103  1.7965 -2.4172 -2.6427
  578MOL0     H77969   8.868   9.746   6.157 -1.6508 -1.3766  0.5199
  578MOL0     H77970   9.035   9.704   6.152  0.5945  0.6881 -1.9242
  578MOL0     H77971   9.001   9.613   5.898  0.6341  1.0102  0.7845
  578MOL0     H77972   8.843   9.688   5.918 -0.3490 -3.3244  2.0754
  578MOL0     H77973   9.096   9.853   5.979  2.2494 -0.8623 -2.0617
  578MOL0     H77974   9.036   9.821   5.812  0.7153 -2.2096  0.1674
  578MOL0     H77975   8.807   9.911   5.900 -0.2284  1.1655  1.4767
  578MOL0     H77976   8.889   9.963   6.041  3.1900 -3.1226  1.2428
  578MOL0     H77977   9.026  10.126   5.895 -0.3624  2.6992  0.3883
  578MOL0     H77978   8.963  10.065   5.751 -1.7536  3.2740 -0.2351
  578MOL0     H77979   8.789  10.176   5.969 -0.1654 -3.3536  0.5379
  578MOL0     H77980   8.733  10.115   5.808 -3.2593  1.9457  2.3460
  578MOL0     H77981   8.803  10.319   5.596  4.1785 -1.6524 -0.7716
  578MOL0     H77982   8.812  10.583   5.544  0.3797  1.1626  1.5727
  578MOL0     H77983   8.919  10.684   5.643  1.1266  0.9552 -0.8981
  578MOL0     H77984   9.119  10.598   5.559 -0.1287  4.1724 -0.8447
  578MOL0     H77985   9.024  10.648   5.427 -1.6418 -0.3668  0.1203
  578MOL0     H77986   8.943  10.390   5.406  1.5112 -0.3838 -1.9699
  578MOL0     H77987   9.072  10.375   5.523 -0.0198  1.1522  2.4029
  578MOL0     H77988   9.242  10.441   5.373  0.1881 -0.5111 -1.4639
  578MOL0     H77989   9.142  10.535   5.273  0.1953  0.5855  0.5057
  578MOL0     H77990   9.079  10.103   5.115  0.2965  0.2747  1.6805
  578MOL0     H77991   8.996   9.946   4.967  0.7764  0.3497 -0.1605
  578MOL0     H77992   8.835   9.997   4.912 -0.8330  0.7829 -4.4628
  578MOL0     H77993   8.980  10.026   4.817  1.5848 -2.0022  1.1277
  578MOL0     H77994   8.628  10.023   4.672  2.4155 -0.4997  0.3367
  578MOL0     H77995   8.461  10.021   4.474  0.2007 -1.8514  1.2720
  578MOL0     H77996   8.462  10.400   4.268 -1.2432  2.2498 -4.4597
  578MOL0     H77997   8.492  10.311   4.123 -1.1125  2.1942 -0.5963
  578MOL0     H77998   8.266  10.217   4.113  0.2709  1.3323 -1.4983
  578MOL0     H77999   8.236  10.274   4.284  1.2747  1.4105  1.4655
  578MOL0     H78000   8.273  10.515   4.182 -1.8901 -0.7644  2.0123
  578MOL0     H78001   8.125  10.428   4.170 -0.2681  2.4456  0.0238
  578MOL0     H78002   8.327  10.469   3.946 -0.2611  1.0028  1.4837
  578MOL0     H78003   8.230  10.337   3.941  1.6435  1.4851 -1.3095
  578MOL0     H78004   8.108  10.617   4.008  2.7269  0.8705 -1.9039
  578MOL0     H78005   8.008  10.476   3.969 -1.5201  1.5334 -2.1744
  578MOL0     H78006   8.067  10.692   3.802 -0.9002  0.0519 -2.6875
  578MOL0     H78007   8.218  10.597   3.796  0.1172 -5.3817  0.1250
  578MOL0     H78008   7.938  10.487   3.738  0.1952 -5.9024  0.6181
  578MOL0     H78009   8.087  10.406   3.690  0.6626  0.7344  0.3457
  578MOL0     H78010   7.990  10.677   3.572  1.9436  0.8898 -2.5170
  578MOL0     H78011   7.969  10.525   3.498 -0.1333  0.4939  0.6184
  578MOL0     H78012   8.678  10.341   4.306 -1.1605 -0.8144 -1.2816
  578MOL0     H78013   8.851  10.333   4.495 -0.5968  0.9680  2.3867
  578MOL0     H78014   8.854  10.491   4.947 -0.8768 -0.1855  2.3520
  578MOL0     H78015   8.960  10.527   5.129  0.9666  0.3225 -0.7641
  578MOL0     H78016   9.041   9.552   6.525  0.0740 -1.8037 -0.3588
  578MOL0     H78017   9.051   9.424   6.757 -0.1875  1.0611 -0.3952
  578MOL0     H78018   8.881   9.158   7.040 -2.0682  1.8385 -0.8345
  578MOL0     H78019   8.926   9.054   7.270 -0.0209 -0.5640 -1.5528
  578MOL0     H78020   8.952   9.030   7.527  1.0299 -0.1645 -2.6221
  578MOL0     H78021   9.028   9.175   7.519 -0.5438  0.6571  0.3491
  578MOL0     H78022   8.868   9.110   7.769  1.5477 -2.1120  0.2900
  578MOL0     H78023   8.933   9.266   7.733 -5.2884 -0.7805 -0.3043
  578MOL0     H78024   9.131   9.204   7.822  2.4861 -0.1585 -2.1418
  578MOL0     H78025   9.163   9.094   7.690 -3.9680 -1.5915 -3.2829
  578MOL0     H78026   9.192   8.986   7.899 -0.5006  1.3399  1.1911
  578MOL0     H78027   9.032   8.927   7.837 -1.4473 -0.6874  4.0336
  578MOL0     H78028   8.918   9.141   8.184  0.4270 -0.6943  1.5188
  578MOL0     H78029   8.796   9.442   7.430 -2.5127 -0.1404  0.3028
  578MOL0     H78030   8.783   9.533   7.212  0.0005  0.4159  0.4530
  579MOL0     O78031   5.063   3.053   8.391  0.0494 -0.4524  0.6454
  579MOL0     C78032   5.094   2.946   8.353  0.9871 -0.8525  0.2788
  579MOL0     O78033   5.108   2.904   8.224 -0.0254  0.2518 -0.0750
  579MOL0     C78034   5.110   3.000   8.136  1.1075  0.0027 -0.1723
  579MOL0     C78035   5.222   3.062   8.101 -0.5067  0.5567  0.2358
  579MOL0     C78036   5.229   3.160   8.001  0.3219  0.4778 -0.4714
  579MOL0     C78037   5.105   3.200   7.944  0.4021 -0.7342  0.7740
  579MOL0     O78038   5.122   3.274   7.820  0.3478 -0.0527 -0.9472
  579MOL0     C78039   5.012   3.354   7.774 -0.1561 -0.3387 -0.2570
  579MOL0     C78040   4.977   3.467   7.872 -0.3649  0.8797 -0.1029
  579MOL0     C78041   5.095   3.574   7.862 -0.1211 -0.3355  0.8819
  579MOL0     C78042   5.083   3.692   7.957  0.8472 -0.5692  0.3992
  579MOL0     C78043   5.204   3.782   7.949 -0.2487  0.0445  0.5678
  579MOL0     C78044   5.180   3.922   8.015  0.3393  0.1945  0.2025
  579MOL0     C78045   5.092   3.912   8.145  0.2969  0.5988 -0.2846
  579MOL0     C78046   5.092   4.035   8.232  0.2199  0.1993 -0.2329
  579MOL0     N78047   5.010   3.994   8.345 -0.2937 -1.2430  0.2410
  579MOL0     C78048   4.874   4.022   8.357 -0.1707 -0.1283 -0.2007
  579MOL0     C78049   4.844   3.950   8.461  0.3432  0.7140 -0.1024
  579MOL0     C78050   4.717   3.936   8.530  0.7828 -0.4765  0.3384
  579MOL0     C78051   4.622   4.050   8.509  1.0944 -0.0732  0.0634
  579MOL0     C78052   4.492   4.041   8.600 -0.3724  0.5720 -0.4707
  579MOL0     C78053   4.391   4.153   8.553  0.3570  0.3016  0.3191
  579MOL0     O78054   4.286   4.175   8.656  0.1969 -0.4087  0.4454
  579MOL0     C78055   4.205   4.076   8.703 -0.3531  0.7168  0.3464
  579MOL0     C78056   4.176   4.070   8.839 -1.5294 -0.9986  0.0086
  579MOL0     C78057   4.107   3.967   8.895  0.9073  0.7776 -1.3699
  579MOL0     C78058   4.086   3.957   9.051  0.0863 -0.2103  0.4224
  579MOL0     C78059   4.049   3.872   8.808 -0.0880  0.1708  0.3175
  579MOL0     C78060   3.960   3.751   8.845 -0.3292  0.6383 -0.3301
  579MOL0     O78061   3.943   3.723   8.975  0.9447  0.1875 -0.9050
  579MOL0     C78062   3.853   3.628   9.022 -0.9022  0.6573 -0.1020
  579MOL0     C78063   3.869   3.489   8.989 -0.0021 -1.3844  0.5377
  579MOL0     C78064   3.798   3.388   9.046  0.7654 -0.0083  0.4378
  579MOL0     C78065   3.704   3.418   9.159 -0.0436 -0.7258  1.9802
  579MOL0     O78066   3.635   3.317   9.219  0.2832 -0.2499 -0.2003
  579MOL0     C78067   3.508   3.343   9.279  0.2264 -0.3788 -0.5570
  579MOL0     C78068   3.442   3.204   9.315  0.5466  0.2448  1.4411
  579MOL0     C78069   3.308   3.229   9.390  0.7217  0.6222 -0.7217
  579MOL0     C78070   3.202   3.262   9.297  0.7330  0.3950  0.7498
  579MOL0     C78071   3.062   3.282   9.363 -0.1441  0.0706  0.0883
  579MOL0     C78072   2.956   3.303   9.246  0.3298  0.1462  0.3280
  579MOL0     C78073   2.829   3.281   9.316 -0.5174 -0.0887 -0.7831
  579MOL0     C78074   2.710   3.275   9.220  0.3405  1.0978  0.4988
  579MOL0    Cl78075   2.715   3.155   9.089  0.1307  0.5206  0.0353
  579MOL0     C78076   3.693   3.558   9.184 -0.1557  0.3240 -0.0681
  579MOL0     C78077   3.761   3.659   9.118 -0.5336  0.4158 -0.3538
  579MOL0     O78078   3.896   3.688   8.752  0.1854 -0.8657 -0.5303
  579MOL0     C78079   4.064   3.894   8.665  0.0778 -0.0157 -0.8242
  579MOL0     C78080   4.140   3.988   8.618 -0.4510  0.3380  0.7923
  579MOL0     N78081   4.961   3.888   8.513 -0.6261 -0.3902  0.3345
  579MOL0     N78082   5.058   3.927   8.444 -0.2666 -0.2025 -0.4834
  579MOL0     C78083   4.974   3.152   7.996  0.3621 -0.3510 -1.1937
  579MOL0     C78084   4.985   3.050   8.086 -0.3448  0.8208 -0.1539
  579MOL0     C78085   5.121   2.854   8.458  0.1353  1.2276  0.1441
  579MOL0     C78086   5.151   2.897   8.592  0.2002 -0.4726  0.0033
  579MOL0     C78087   5.170   2.800   8.689 -0.2859  0.0003 -0.5009
  579MOL0     C78088   5.178   2.660   8.663  0.9600 -0.2686  0.8299
  579MOL0     O78089   5.189   2.561   8.752 -1.4469 -0.2060  0.1873
  579MOL0     C78090   5.208   2.583   8.897  0.5211 -0.1950 -0.1769
  579MOL0     C78091   5.082   2.647   8.970  0.4969  0.0822 -0.4624
  579MOL0     C78092   4.977   2.541   9.005  0.1540 -0.1986 -0.7331
  579MOL0     C78093   4.869   2.579   9.111 -0.1162  0.6461  0.1884
  579MOL0     C78094   4.941   2.591   9.235  0.6409  0.1069 -0.1227
  579MOL0     C78095   4.999   2.594   9.342 -0.1091 -0.2160 -0.7286
  579MOL0     C78096   5.157   2.624   8.526  0.8898  0.1237 -1.2001
  579MOL0     C78097   5.122   2.714   8.431  0.5710 -0.8279  0.1160
  579MOL0     H78098   5.307   3.011   8.144 -0.3728 -0.4835 -1.1709
  579MOL0     H78099   5.330   3.187   7.973  1.0986 -2.1559 -0.4729
  579MOL0     H78100   5.041   3.392   7.675  0.1742 -1.9539 -0.8116
  579MOL0     H78101   4.923   3.294   7.756 -2.4948  2.4789  1.0953
  579MOL0     H78102   4.880   3.517   7.858 -0.6271  0.6050  0.6607
  579MOL0     H78103   4.969   3.434   7.976  0.4251  0.9622 -0.0102
  579MOL0     H78104   5.187   3.520   7.886  2.1142  2.8162  0.0857
  579MOL0     H78105   5.096   3.609   7.758  0.0497 -0.5006  0.8271
  579MOL0     H78106   5.005   3.759   7.920 -1.5590 -2.6003  1.4889
  579MOL0     H78107   5.064   3.661   8.060 -2.4021 -0.5336 -0.0930
  579MOL0     H78108   5.282   3.726   8.001  1.9759  0.4406 -2.1085
  579MOL0     H78109   5.249   3.799   7.851 -2.9787  0.8424 -0.6506
  579MOL0     H78110   5.274   3.974   8.032  0.9650 -1.3031  1.4740
  579MOL0     H78111   5.120   3.980   7.944  1.8216  0.3194 -1.0024
  579MOL0     H78112   4.987   3.900   8.117  0.7267 -1.5823 -1.2043
  579MOL0     H78113   5.118   3.824   8.204  0.8092 -3.0205 -5.2116
  579MOL0     H78114   5.053   4.118   8.172 -0.2208 -0.3101 -0.6597
  579MOL0     H78115   5.192   4.066   8.262 -0.8365  3.9406  0.0108
  579MOL0     H78116   4.821   4.091   8.292 -2.1808 -1.2227  0.1973
  579MOL0     H78117   4.679   3.835   8.512  1.0801 -0.3086 -1.4816
  579MOL0     H78118   4.745   3.928   8.635  1.7161 -0.9780  0.0702
  579MOL0     H78119   4.589   4.048   8.405 -1.8011  3.4618  0.6912
  579MOL0     H78120   4.677   4.142   8.530 -0.0236  0.5393  0.4240
  579MOL0     H78121   4.522   4.055   8.704  0.9320 -5.4685  0.3138
  579MOL0     H78122   4.447   3.941   8.600  1.4256 -0.2746 -1.2918
  579MOL0     H78123   4.341   4.117   8.463 -0.9209  0.6696  0.8695
  579MOL0     H78124   4.438   4.248   8.526 -0.9659  2.7093  5.3091
  579MOL0     H78125   4.233   4.135   8.905 -2.8967  0.1182  0.1442
  579MOL0     H78126   4.151   4.023   9.109  2.1341 -3.9312  2.7695
  579MOL0     H78127   3.987   3.997   9.073 -0.9527 -2.5020  0.1637
  579MOL0     H78128   4.090   3.857   9.094 -0.2788  0.7122  2.7211
  579MOL0     H78129   3.941   3.463   8.912  0.5237 -2.8129  1.4855
  579MOL0     H78130   3.805   3.283   9.021  0.0222  0.2896 -1.1547
  579MOL0     H78131   3.502   3.409   9.367 -1.8059  0.8140 -1.5159
  579MOL0     H78132   3.442   3.379   9.200  0.6589  0.2702 -0.6339
  579MOL0     H78133   3.434   3.146   9.222 -0.3594 -0.0510  1.6961
  579MOL0     H78134   3.510   3.146   9.378 -1.6484 -1.2644  2.5658
  579MOL0     H78135   3.308   3.289   9.482 -2.1493  0.0781 -0.2835
  579MOL0     H78136   3.285   3.129   9.429  0.2744  0.0839 -2.2896
  579MOL0     H78137   3.229   3.346   9.232  0.4779 -1.0994 -1.4259
  579MOL0     H78138   3.175   3.180   9.229 -4.0399  1.6858  0.6658
  579MOL0     H78139   3.066   3.365   9.434  0.9443 -2.1389  2.7900
  579MOL0     H78140   3.039   3.188   9.414 -1.7409  0.3116 -0.1310
  579MOL0     H78141   2.980   3.393   9.190  0.4297 -0.2958 -0.3480
  579MOL0     H78142   2.965   3.219   9.177 -0.7648  2.3129 -2.6694
  579MOL0     H78143   2.811   3.362   9.388  3.2857  0.2898 -0.0898
  579MOL0     H78144   2.835   3.186   9.370 -0.3208  0.9479  1.0978
  579MOL0     H78145   2.691   3.373   9.176 -0.8591  0.9244  0.5903
  579MOL0     H78146   2.615   3.250   9.268 -2.7315 -2.0015 -5.8973
  579MOL0     H78147   3.617   3.590   9.255 -2.0428  1.2922 -2.3957
  579MOL0     H78148   3.735   3.759   9.150 -0.2288 -0.1087  1.7033
  579MOL0     H78149   4.028   3.823   8.590  1.4735 -1.9417  0.2422
  579MOL0     H78150   4.130   4.005   8.511 -4.6902 -1.5702  0.7161
  579MOL0     H78151   4.882   3.180   7.945 -1.3519 -0.7050  1.4859
  579MOL0     H78152   4.907   2.986   8.125  0.5714  0.2300  0.7715
  579MOL0     H78153   5.135   3.002   8.614 -0.2031 -0.0691 -2.0122
  579MOL0     H78154   5.194   2.833   8.790  0.7705  3.3974 -1.7096
  579MOL0     H78155   5.248   2.499   8.955 -1.3541  0.3242  2.0505
  579MOL0     H78156   5.285   2.660   8.907 -1.2649  1.4159  2.8241
  579MOL0     H78157   5.042   2.734   8.917  2.8984  3.6902  3.0578
  579MOL0     H78158   5.123   2.685   9.064  1.1152  2.1696 -1.5161
  579MOL0     H78159   5.041   2.456   9.030 -1.5612 -0.9412  1.4992
  579MOL0     H78160   4.918   2.517   8.916  0.4830 -3.2221 -0.2420
  579MOL0     H78161   4.794   2.500   9.119  0.3721 -0.2846 -3.1530
  579MOL0     H78162   4.825   2.676   9.089 -0.7531  0.2423 -0.3421
  579MOL0     H78163   5.036   2.592   9.443  0.6990 -1.5192 -1.0326
  579MOL0     H78164   5.195   2.524   8.507  2.8934  0.1295  1.9713
  579MOL0     H78165   5.114   2.675   8.330  2.4079 -0.9876 -0.0070
  580MOL0     O78166   6.292   5.678   8.859 -0.1808  0.1501 -0.2851
  580MOL0     C78167   6.212   5.731   8.781  0.0271 -0.2383 -0.5797
  580MOL0     O78168   6.235   5.804   8.666 -0.3925  0.9516 -0.5176
  580MOL0     C78169   6.353   5.875   8.655  0.0849 -0.1218 -0.0030
  580MOL0     C78170   6.422   5.933   8.764  0.7838  0.5735  0.9457
  580MOL0     C78171   6.527   6.016   8.734 -0.3967 -0.2894 -0.0450
  580MOL0     C78172   6.567   6.047   8.607 -0.6443 -0.5785  0.6216
  580MOL0     O78173   6.657   6.149   8.586 -0.4268 -1.0352 -0.5838
  580MOL0     C78174   6.674   6.254   8.693 -0.4621 -0.5243  1.6011
  580MOL0     C78175   6.759   6.371   8.638  0.7328  0.5567 -0.1595
  580MOL0     C78176   6.758   6.399   8.494 -0.4167 -0.3486  0.1948
  580MOL0     C78177   6.845   6.527   8.484 -0.7123  0.0059 -0.7498
  580MOL0     C78178   6.903   6.555   8.345  0.7387  0.7307  0.9745
  580MOL0     C78179   6.975   6.686   8.338 -0.3000  0.7469  0.6891
  580MOL0     C78180   7.074   6.694   8.219  0.5557 -0.0877 -0.9676
  580MOL0     C78181   7.192   6.796   8.227 -0.4840 -0.5984  0.3538
  580MOL0     N78182   7.149   6.938   8.219 -0.7163  0.0303  0.0307
  580MOL0     C78183   7.122   7.020   8.324  0.2478  1.1312 -0.0443
  580MOL0     C78184   7.135   7.143   8.272 -0.0504 -0.2265 -0.0097
  580MOL0     C78185   7.120   7.273   8.349 -0.1842 -0.3281  0.2509
  580MOL0     C78186   7.243   7.361   8.385 -0.2409  0.9679 -0.4082
  580MOL0     C78187   7.188   7.488   8.439 -0.6977 -0.5744  0.2770
  580MOL0     C78188   7.302   7.580   8.490 -1.1739  0.4302  0.0881
  580MOL0     O78189   7.333   7.516   8.618 -0.0685  1.1226 -0.2154
  580MOL0     C78190   7.402   7.582   8.718  0.7497 -0.3671 -0.3948
  580MOL0     C78191   7.391   7.517   8.844 -0.1549  0.5423 -0.0123
  580MOL0     C78192   7.446   7.580   8.961 -0.2895 -0.5166 -0.3526
  580MOL0     C78193   7.424   7.507   9.092 -0.0909  0.3704 -0.3986
  580MOL0     C78194   7.514   7.706   8.951 -0.7259  0.9094 -0.8977
  580MOL0     C78195   7.579   7.787   9.058 -0.1962  0.1697 -0.4803
  580MOL0     O78196   7.585   7.920   9.028 -0.2033  0.0617  0.4193
  580MOL0     C78197   7.651   7.992   9.125 -0.3682  1.0459 -0.2241
  580MOL0     C78198   7.600   8.026   9.249 -0.1094  0.0361  1.4347
  580MOL0     C78199   7.686   8.068   9.348 -0.9969 -0.4932 -0.3497
  580MOL0     C78200   7.822   8.097   9.323  0.7603 -0.5843 -0.1599
  580MOL0     O78201   7.914   8.128   9.415  0.3495 -0.2798 -0.1133
  580MOL0     C78202   7.861   8.196   9.528 -0.0891 -0.8223 -0.2342
  580MOL0     C78203   7.977   8.247   9.606 -0.6643 -0.1511  0.3037
  580MOL0     C78204   7.939   8.336   9.727 -0.0033  0.5290  0.5686
  580MOL0     C78205   7.909   8.476   9.673  0.5651  0.2021 -0.2017
  580MOL0     C78206   7.776   8.523   9.736  0.2805  0.2109 -0.0348
  580MOL0     C78207   7.645   8.480   9.676 -0.0580  0.3222  0.2140
  580MOL0     C78208   7.521   8.547   9.742  0.3236 -0.5026 -0.7309
  580MOL0     C78209   7.477   8.688   9.698 -0.4518 -1.0039 -0.8010
  580MOL0    Cl78210   7.313   8.720   9.766 -0.3294  0.0584  0.3464
  580MOL0     C78211   7.874   8.073   9.200 -0.0334 -0.0805  0.0141
  580MOL0     C78212   7.785   8.023   9.099 -0.3827  0.5815  0.2104
  580MOL0     O78213   7.636   7.734   9.159 -0.3639 -0.4831  0.2568
  580MOL0     C78214   7.523   7.760   8.820 -0.7159 -0.6629 -0.6270
  580MOL0     C78215   7.474   7.699   8.707 -1.0035  0.4712 -0.0484
  580MOL0     N78216   7.169   7.133   8.133  0.0495 -0.0789  0.2559
  580MOL0     N78217   7.181   7.007   8.111 -0.1825 -0.4282  0.7076
  580MOL0     C78218   6.520   5.976   8.498 -0.2774  0.0293 -0.3457
  580MOL0     C78219   6.406   5.883   8.524  0.6957 -0.1222  0.7441
  580MOL0     C78220   6.068   5.669   8.797 -1.2311  0.2140  0.8728
  580MOL0     C78221   6.039   5.566   8.882 -0.1947  0.9606  0.8350
  580MOL0     C78222   5.915   5.509   8.881  0.5559  0.9263 -0.4678
  580MOL0     C78223   5.811   5.557   8.812 -0.0032 -0.4235  0.5470
  580MOL0     O78224   5.678   5.514   8.823 -0.2584 -0.5511 -1.2662
  580MOL0     C78225   5.650   5.367   8.822  0.1071 -0.0577 -0.7470
  580MOL0     C78226   5.609   5.326   8.970 -0.1294 -0.6959  0.6781
  580MOL0     C78227   5.573   5.184   8.975 -0.1139  0.6536 -0.7084
  580MOL0     C78228   5.451   5.153   9.070  0.1282 -0.9390 -0.1342
  580MOL0     C78229   5.422   5.010   9.069 -0.4751 -0.1469  1.1666
  580MOL0     C78230   5.418   4.893   9.046 -0.1710  0.6583  0.3851
  580MOL0     C78231   5.836   5.662   8.726 -0.5348  0.3155 -1.2035
  580MOL0     C78232   5.963   5.716   8.720 -0.3420  0.4525 -0.2132
  580MOL0     H78233   6.380   5.914   8.862  0.3139  3.4399  1.3964
  580MOL0     H78234   6.578   6.067   8.816  0.3727 -0.2847 -0.5171
  580MOL0     H78235   6.574   6.291   8.716 -0.6361  2.0016 -2.2977
  580MOL0     H78236   6.720   6.228   8.789  0.7048 -0.0363  1.1944
  580MOL0     H78237   6.722   6.459   8.692 -1.7365  0.7052 -1.9176
  580MOL0     H78238   6.856   6.343   8.678  0.8320  1.1549  0.0249
  580MOL0     H78239   6.813   6.317   8.446  3.1643  1.2289  1.2910
  580MOL0     H78240   6.656   6.415   8.458  0.2827 -0.3175 -1.8962
  580MOL0     H78241   6.780   6.610   8.514  0.5563  0.4406  0.9209
  580MOL0     H78242   6.923   6.532   8.560 -0.2678  3.5375 -1.2545
  580MOL0     H78243   6.972   6.472   8.330 -0.0911  0.2323 -0.2393
  580MOL0     H78244   6.828   6.558   8.266  2.0197  0.0098 -0.3158
  580MOL0     H78245   6.910   6.774   8.337  0.9326  1.6790 -0.2917
  580MOL0     H78246   7.041   6.707   8.423  3.7109 -2.9363 -1.0914
  580MOL0     H78247   7.123   6.596   8.206 -0.8318 -0.7065 -1.7829
  580MOL0     H78248   7.024   6.710   8.123 -0.3274 -0.3358 -0.5583
  580MOL0     H78249   7.250   6.774   8.137 -0.5349  1.5327 -0.2559
  580MOL0     H78250   7.257   6.784   8.313  0.5553 -1.5196 -0.5241
  580MOL0     H78251   7.081   6.988   8.419 -2.0612  2.3172 -0.5683
  580MOL0     H78252   7.053   7.327   8.282  1.5591 -1.2840 -2.4324
  580MOL0     H78253   7.062   7.259   8.441  1.3333 -1.5551  1.0726
  580MOL0     H78254   7.320   7.383   8.311 -0.9145  0.1939 -1.3808
  580MOL0     H78255   7.302   7.312   8.463  3.2827 -0.5773 -3.6948
  580MOL0     H78256   7.122   7.468   8.524  0.3248 -0.3227  1.1510
  580MOL0     H78257   7.114   7.524   8.367  0.5359 -1.0683 -1.2897
  580MOL0     H78258   7.262   7.679   8.515 -0.1786  1.0400 -0.6910
  580MOL0     H78259   7.384   7.582   8.418 -0.7914 -2.3620  0.2992
  580MOL0     H78260   7.331   7.427   8.836  2.1874 -1.0479 -0.3782
  580MOL0     H78261   7.448   7.403   9.067 -0.8621  0.2836 -0.8174
  580MOL0     H78262   7.490   7.540   9.173  0.2223  2.9763 -1.6152
  580MOL0     H78263   7.325   7.540   9.126  0.1250  0.2458  0.3639
  580MOL0     H78264   7.496   8.005   9.271 -0.6130  2.4626  1.6984
  580MOL0     H78265   7.651   8.073   9.451  3.6481 -5.6099  2.0086
  580MOL0     H78266   7.784   8.272   9.512 -0.0518 -0.9662 -1.1557
  580MOL0     H78267   7.814   8.120   9.590  0.7851 -0.5568  0.7937
  580MOL0     H78268   8.016   8.151   9.641  0.6460  0.3667  0.3167
  580MOL0     H78269   8.051   8.291   9.538 -2.5886 -0.9745 -2.5290
  580MOL0     H78270   8.030   8.342   9.788 -0.4109  0.4480  1.1868
  580MOL0     H78271   7.851   8.300   9.782 -1.0229 -0.2560 -1.4694
  580MOL0     H78272   7.986   8.546   9.706 -0.4761  1.3247 -0.0634
  580MOL0     H78273   7.900   8.486   9.565 -1.8913 -0.2666 -0.1105
  580MOL0     H78274   7.771   8.632   9.736 -0.4613  0.4783 -5.3556
  580MOL0     H78275   7.773   8.489   9.840  2.4340  0.2887  0.1058
  580MOL0     H78276   7.639   8.521   9.575  0.0892 -0.1871 -0.0028
  580MOL0     H78277   7.649   8.371   9.666 -0.1820  0.1541  1.7173
  580MOL0     H78278   7.536   8.552   9.851 -0.4762  0.8809 -0.6655
  580MOL0     H78279   7.437   8.480   9.724  1.7930 -2.3279 -1.1000
  580MOL0     H78280   7.465   8.679   9.589 -4.5861  0.7687 -0.6722
  580MOL0     H78281   7.543   8.772   9.720 -0.5308 -0.9562 -0.7454
  580MOL0     H78282   7.982   8.077   9.187  0.3566 -3.2881  1.3045
  580MOL0     H78283   7.831   7.996   9.004  0.3618  0.7258  0.5246
  580MOL0     H78284   7.593   7.840   8.798  1.5256 -1.9497  1.3700
  580MOL0     H78285   7.502   7.739   8.610  2.1797  2.3386  1.5135
  580MOL0     H78286   6.560   5.989   8.398  2.4463 -1.3681  0.4700
  580MOL0     H78287   6.353   5.826   8.448  1.1147 -0.1369  0.4592
  580MOL0     H78288   6.119   5.519   8.939  0.7445 -1.0955 -1.9233
  580MOL0     H78289   5.899   5.418   8.938 -0.5972  2.4155  1.7377
  580MOL0     H78290   5.569   5.343   8.752  0.5441  0.2311 -1.3591
  580MOL0     H78291   5.729   5.302   8.784  0.4723 -0.0226 -0.0558
  580MOL0     H78292   5.534   5.401   8.996  0.6654  0.8468 -1.1924
  580MOL0     H78293   5.699   5.349   9.028  0.9543 -1.7514 -0.5153
  580MOL0     H78294   5.654   5.123   9.017  0.9261  1.7906 -0.9885
  580MOL0     H78295   5.544   5.139   8.879  1.3280  2.7855 -2.2465
  580MOL0     H78296   5.366   5.212   9.033  1.3048  0.0343 -1.4207
  580MOL0     H78297   5.478   5.174   9.174  2.3296 -1.0389 -0.6283
  580MOL0     H78298   5.405   4.787   9.033  0.8025  0.4008  1.4084
  580MOL0     H78299   5.764   5.686   8.649  1.9369  3.1791 -2.8418
  580MOL0     H78300   5.980   5.800   8.654 -2.0937 -0.5325 -2.0197
  581MOL0     O78301   2.500   9.000   9.275 -0.2155 -0.3124 -0.4374
  581MOL0     C78302   2.425   9.085   9.236  0.2579 -0.0516 -0.6352
  581MOL0     O78303   2.411   9.128   9.106 -0.2294  0.1876  0.4223
  581MOL0     C78304   2.495   9.054   9.024  0.0244  0.1193  0.0056
  581MOL0     C78305   2.451   8.922   8.975 -0.0155  0.0341  1.3796
  581MOL0     C78306   2.535   8.848   8.898  0.4677 -0.9210 -0.0249
  581MOL0     C78307   2.663   8.893   8.871 -0.3665 -0.3762 -0.0840
  581MOL0     O78308   2.753   8.830   8.788  0.4559 -0.6877  0.0732
  581MOL0     C78309   2.795   8.698   8.826  0.1357 -0.7440 -0.5664
  581MOL0     C78310   2.876   8.641   8.706  0.1065 -0.8291 -1.0296
  581MOL0     C78311   2.916   8.495   8.732  0.0300  0.9636 -0.0819
  581MOL0     C78312   3.039   8.466   8.648  0.3497  0.2590  0.6638
  581MOL0     C78313   3.051   8.315   8.629  0.1560 -0.5971 -0.9559
  581MOL0     C78314   3.155   8.254   8.529  0.3073 -0.5397 -0.6551
  581MOL0     C78315   3.118   8.111   8.485  0.9000 -0.7286  0.2970
  581MOL0     C78316   3.210   8.065   8.374  0.7735 -0.1930 -0.5633
  581MOL0     N78317   3.204   8.159   8.257 -0.4200  0.7657  0.1381
  581MOL0     C78318   3.101   8.163   8.166 -0.1359 -0.0689 -0.0322
  581MOL0     C78319   3.138   8.261   8.081  0.1972 -0.0957 -0.1207
  581MOL0     C78320   3.069   8.291   7.946 -0.2946 -0.2507  0.4841
  581MOL0     C78321   2.918   8.284   7.950  0.9508  0.8508 -0.4249
  581MOL0     C78322   2.857   8.355   7.831 -0.0632 -0.2334 -0.3065
  581MOL0     C78323   2.707   8.333   7.816  1.0491  0.6238 -0.0075
  581MOL0     O78324   2.683   8.192   7.809  0.4622  0.4815  1.1407
  581MOL0     C78325   2.554   8.143   7.822 -0.4065 -0.3439 -1.1372
  581MOL0     C78326   2.457   8.207   7.899  0.3398  1.1570 -0.0336
  581MOL0     C78327   2.328   8.154   7.897  0.3756 -0.2212 -0.7719
  581MOL0     C78328   2.228   8.216   7.993 -0.6283  0.9389 -0.2746
  581MOL0     C78329   2.282   8.044   7.809 -0.3244 -0.7391  1.4488
  581MOL0     C78330   2.135   8.003   7.800  0.3658  0.2067 -0.7027
  581MOL0     O78331   2.038   8.096   7.787  0.2790 -0.3251 -0.2296
  581MOL0     C78332   1.913   8.067   7.834  0.0263  0.5323  0.5364
  581MOL0     C78333   1.880   7.978   7.935 -1.2912  0.6484  0.7769
  581MOL0     C78334   1.748   7.949   7.960 -0.1869 -0.0622 -0.4496
  581MOL0     C78335   1.644   8.022   7.907 -0.7027 -0.7265  0.0785
  581MOL0     O78336   1.512   7.999   7.941 -0.3075 -0.4053 -0.1980
  581MOL0     C78337   1.403   8.030   7.852 -0.5941 -0.6340 -0.5150
  581MOL0     C78338   1.283   7.947   7.895  0.4510  0.1202 -0.3460
  581MOL0     C78339   1.247   7.963   8.047 -0.4624  0.0487  0.0970
  581MOL0     C78340   1.165   7.842   8.104  0.3637  0.6261 -0.2944
  581MOL0     C78341   1.101   7.859   8.239 -1.0872  0.5888 -0.3625
  581MOL0     C78342   0.942   7.819   8.245 -0.8726  0.5882  1.4232
  581MOL0     C78343   0.935   7.674   8.238 -0.4040  1.0285  0.7029
  581MOL0     C78344   0.797   7.622   8.268 -0.4616  0.1771  0.4813
  581MOL0    Cl78345   0.742   7.644   8.444 -0.3405 -0.1934 -0.8553
  581MOL0     C78346   1.681   8.118   7.803  0.5151 -0.0344 -0.5340
  581MOL0     C78347   1.818   8.142   7.770 -1.4626  0.3977 -0.5310
  581MOL0     O78348   2.114   7.877   7.794  0.1521 -0.7723 -0.2624
  581MOL0     C78349   2.383   7.984   7.733 -0.2211 -0.5500  1.3625
  581MOL0     C78350   2.519   8.028   7.747  0.9909 -1.2449 -0.2088
  581MOL0     N78351   3.251   8.323   8.122  0.1111  0.4305  0.7022
  581MOL0     N78352   3.290   8.262   8.235 -0.5520 -0.0843 -0.3773
  581MOL0     C78353   2.712   9.025   8.910 -1.2575 -0.0612 -0.3237
  581MOL0     C78354   2.623   9.094   8.996 -0.2395 -0.2350  0.1469
  581MOL0     C78355   2.325   9.147   9.330  0.2294 -0.3232  0.1517
  581MOL0     C78356   2.237   9.252   9.291  0.0161 -0.3616  0.4790
  581MOL0     C78357   2.144   9.310   9.373 -0.5228 -0.0908  0.6289
  581MOL0     C78358   2.153   9.272   9.514 -0.2735  0.7673  0.1896
  581MOL0     O78359   2.054   9.334   9.592  0.6189 -0.3784  0.0712
  581MOL0     C78360   2.110   9.394   9.713 -0.1826 -0.2013 -0.0402
  581MOL0     C78361   2.224   9.499   9.700 -0.0596 -0.0362  0.2328
  581MOL0     C78362   2.182   9.646   9.652 -0.6760  0.9745 -0.3117
  581MOL0     C78363   2.195   9.657   9.497  0.4033  1.3129  1.0865
  581MOL0     C78364   2.136   9.775   9.435 -0.1463 -0.9290  0.0964
  581MOL0     C78365   2.097   9.868   9.372 -0.2855 -0.8206 -0.4416
  581MOL0     C78366   2.230   9.155   9.560  0.2873 -0.0112  0.7880
  581MOL0     C78367   2.320   9.099   9.464  0.4907 -0.3616  0.8321
  581MOL0     H78368   2.352   8.881   8.992 -0.7143  0.6647 -0.8007
  581MOL0     H78369   2.513   8.750   8.855  1.6142 -0.6765 -1.2482
  581MOL0     H78370   2.868   8.687   8.907  0.0311  1.8957 -0.0181
  581MOL0     H78371   2.706   8.635   8.837 -1.1045  0.7101 -1.9833
  581MOL0     H78372   2.806   8.648   8.622  2.1059 -0.1489 -2.7134
  581MOL0     H78373   2.956   8.713   8.687 -1.8498  2.9321  3.1778
  581MOL0     H78374   2.946   8.481   8.836  0.1559 -1.3548 -0.3719
  581MOL0     H78375   2.834   8.426   8.710  0.8402  0.2025 -0.7932
  581MOL0     H78376   3.022   8.519   8.554  0.1362  0.0381  0.5779
  581MOL0     H78377   3.131   8.500   8.697  0.6149  0.2623  0.1708
  581MOL0     H78378   3.080   8.266   8.722  2.1205 -0.7764 -1.6253
  581MOL0     H78379   2.948   8.284   8.609  0.2824 -0.3710 -2.0190
  581MOL0     H78380   3.154   8.321   8.444 -0.8368 -0.4202 -0.5642
  581MOL0     H78381   3.255   8.267   8.572 -2.0365  1.7863  5.1660
  581MOL0     H78382   3.126   8.046   8.572  0.7152 -0.5157  0.4720
  581MOL0     H78383   3.016   8.107   8.445  1.5231 -3.3564 -1.2694
  581MOL0     H78384   3.186   7.960   8.351  0.8322 -0.4813  0.6270
  581MOL0     H78385   3.313   8.066   8.412  0.6659  1.2691 -0.2643
  581MOL0     H78386   3.013   8.101   8.154 -1.0060  0.9785  0.7345
  581MOL0     H78387   3.099   8.394   7.925  0.1072 -0.8535 -2.3731
  581MOL0     H78388   3.118   8.230   7.869 -1.0674 -2.2607  1.5006
  581MOL0     H78389   2.862   8.304   8.042  1.1197  0.1439 -0.1607
  581MOL0     H78390   2.908   8.176   7.934 -0.4519  0.5928  1.7200
  581MOL0     H78391   2.908   8.312   7.745 -1.9749  0.2938 -1.7545
  581MOL0     H78392   2.890   8.460   7.834  2.6005 -0.8993 -2.3223
  581MOL0     H78393   2.666   8.392   7.733 -1.8016 -2.2604 -0.8549
  581MOL0     H78394   2.661   8.373   7.907 -3.5296 -3.4312 -0.1001
  581MOL0     H78395   2.492   8.281   7.970  0.8460 -0.3983  1.4064
  581MOL0     H78396   2.186   8.296   7.931  1.9443  1.4602 -1.4908
  581MOL0     H78397   2.155   8.142   8.026 -1.2327  2.0721  1.0098
  581MOL0     H78398   2.268   8.257   8.087 -0.9387 -0.6182  0.5679
  581MOL0     H78399   1.964   7.935   7.989  1.0848  1.9326 -1.5929
  581MOL0     H78400   1.728   7.867   8.028 -1.0205  1.8812  1.7807
  581MOL0     H78401   1.370   8.134   7.848 -1.9927 -1.0494 -0.6182
  581MOL0     H78402   1.444   7.995   7.757  3.0659  1.9167 -0.0700
  581MOL0     H78403   1.195   7.963   7.831  2.6670 -0.9039 -3.8844
  581MOL0     H78404   1.309   7.841   7.898  0.3345  0.0980  2.2544
  581MOL0     H78405   1.194   8.055   8.072 -1.4091  0.2748 -2.4210
  581MOL0     H78406   1.339   7.957   8.106 -1.8159 -0.6246  2.2428
  581MOL0     H78407   1.099   7.791   8.034  1.7715 -1.6749 -0.0753
  581MOL0     H78408   1.240   7.762   8.115 -2.3792 -1.8433  2.3221
  581MOL0     H78409   1.092   7.967   8.253  0.5125  0.4246  3.4263
  581MOL0     H78410   1.163   7.818   8.320 -1.9726 -0.3637 -0.1478
  581MOL0     H78411   0.894   7.858   8.335 -3.2603 -0.6045  0.7589
  581MOL0     H78412   0.886   7.858   8.159  0.9655  1.0446  0.3776
  581MOL0     H78413   1.003   7.619   8.304  1.9350 -1.8028 -3.5774
  581MOL0     H78414   0.966   7.652   8.136 -2.4171  2.3832 -0.2600
  581MOL0     H78415   0.791   7.515   8.244  0.5901  0.3579 -0.6887
  581MOL0     H78416   0.737   7.684   8.201  0.5269 -0.9718 -1.5884
  581MOL0     H78417   1.602   8.183   7.768 -1.4767 -1.4627  1.0467
  581MOL0     H78418   1.841   8.223   7.703 -4.1879  1.2923 -0.5310
  581MOL0     H78419   2.361   7.915   7.653 -0.9286  2.4105 -1.2134
  581MOL0     H78420   2.593   7.998   7.673  1.4997  0.4665 -0.4481
  581MOL0     H78421   2.812   9.058   8.881 -1.8092  2.2571  0.2749
  581MOL0     H78422   2.649   9.186   9.047  0.4149 -1.3730  1.9622
  581MOL0     H78423   2.237   9.289   9.189  0.6330  2.1921  1.3331
  581MOL0     H78424   2.065   9.381   9.352 -1.9150 -1.7535 -0.0109
  581MOL0     H78425   2.023   9.442   9.760  0.1413 -2.0858  2.7725
  581MOL0     H78426   2.147   9.317   9.782  3.3755  1.4548  0.1124
  581MOL0     H78427   2.303   9.451   9.640  1.7560  0.8273  1.8247
  581MOL0     H78428   2.271   9.489   9.798  0.1101 -0.1426  0.1412
  581MOL0     H78429   2.244   9.728   9.688 -0.1753  0.1787  0.6808
  581MOL0     H78430   2.079   9.666   9.682 -1.7684 -1.8652 -1.7602
  581MOL0     H78431   2.166   9.567   9.442  0.5338  1.2011  1.2006
  581MOL0     H78432   2.299   9.672   9.466  0.2288  2.9655  1.1970
  581MOL0     H78433   2.058   9.948   9.313  0.9039  1.3324  1.5477
  581MOL0     H78434   2.221   9.107   9.657  0.4402 -1.2578  0.1996
  581MOL0     H78435   2.393   9.023   9.488  2.0308  0.7673 -0.0933
  582MOL0     O78436   4.551   1.023   5.677 -0.0872  0.1248  0.8181
  582MOL0     C78437   4.614   1.101   5.755  0.1052  0.0061  0.8108
  582MOL0     O78438   4.647   1.233   5.724 -0.5362  0.5674  0.1294
  582MOL0     C78439   4.596   1.291   5.614  0.2619 -0.0042 -0.3472
  582MOL0     C78440   4.683   1.325   5.508 -0.7559  0.9297  0.7424
  582MOL0     C78441   4.633   1.382   5.399 -0.8359  0.0698 -0.5941
  582MOL0     C78442   4.498   1.398   5.378  0.2673 -0.3189  0.5458
  582MOL0     O78443   4.475   1.463   5.261 -0.5838  0.0020 -0.6459
  582MOL0     C78444   4.342   1.459   5.208 -0.6917  0.6836 -0.1816
  582MOL0     C78445   4.343   1.552   5.090  0.5479  0.0957  0.2426
  582MOL0     C78446   4.264   1.485   4.971  0.7795  0.0189  0.5663
  582MOL0     C78447   4.281   1.564   4.838  0.0313 -0.3443 -0.3465
  582MOL0     C78448   4.316   1.471   4.728  0.6395 -0.0232  0.4375
  582MOL0     C78449   4.215   1.362   4.704 -0.3274  0.6200  0.4332
  582MOL0     C78450   4.064   1.401   4.704 -0.1838 -0.6908  0.4362
  582MOL0     C78451   3.981   1.293   4.621 -0.0856  0.4352 -0.4951
  582MOL0     N78452   3.975   1.321   4.475  0.2994  0.1465  0.2741
  582MOL0     C78453   3.862   1.307   4.400 -0.3071 -0.1436 -0.1697
  582MOL0     C78454   3.897   1.353   4.271  0.0526  0.1707 -0.3829
  582MOL0     C78455   3.810   1.384   4.149  0.2263  0.3199  0.1888
  582MOL0     C78456   3.798   1.264   4.046  0.7865  0.1849 -0.3730
  582MOL0     C78457   3.674   1.179   4.079  0.7560 -0.7265  0.1362
  582MOL0     C78458   3.682   1.046   4.000 -0.1511  0.4217 -0.1639
  582MOL0     O78459   3.608   0.953   4.081  0.7339 -0.5371  0.4008
  582MOL0     C78460   3.527   0.859   4.025  0.6518 -0.1160 -0.4038
  582MOL0     C78461   3.524   0.818   3.895  0.5721  0.6280  0.0222
  582MOL0     C78462   3.435   0.723   3.839  0.5194  0.0010 -0.1178
  582MOL0     C78463   3.440   0.713   3.689  0.0233  0.9672  0.2277
  582MOL0     C78464   3.344   0.669   3.924  0.5484  0.1790 -0.3094
  582MOL0     C78465   3.244   0.557   3.888 -0.4745 -1.2138  1.3577
  582MOL0     O78466   3.125   0.552   3.951 -0.4576  0.9165  0.0296
  582MOL0     C78467   3.038   0.447   3.915 -0.0287  0.2616  0.3108
  582MOL0     C78468   3.076   0.315   3.870 -0.0089  1.2028 -0.0600
  582MOL0     C78469   2.977   0.223   3.819  0.9947  0.4173  0.7935
  582MOL0     C78470   2.842   0.275   3.808 -0.2320  0.7474  0.0722
  582MOL0     O78471   2.729   0.206   3.762  0.1601 -0.2492 -0.3874
  582MOL0     C78472   2.727   0.065   3.763  0.0876  0.7396  0.4176
  582MOL0     C78473   2.607  -0.013   3.703  0.5645 -0.3563  0.0762
  582MOL0     C78474   2.568   0.020   3.560 -0.6698  0.6721  0.5989
  582MOL0     C78475   2.477  -0.087   3.511 -0.5021 -0.3873  0.4187
  582MOL0     C78476   2.465  -0.071   3.358 -0.0997 -0.2366 -0.7073
  582MOL0     C78477   2.400   0.054   3.310  0.4188  0.2970  0.0414
  582MOL0     C78478   2.406   0.076   3.158  0.0448 -0.1969 -0.6080
  582MOL0     C78479   2.313  -0.012   3.083  0.2257  1.3065 -0.0134
  582MOL0    Cl78480   2.149   0.041   3.122 -0.7275  0.3313 -0.4805
  582MOL0     C78481   2.809   0.405   3.845 -0.6377 -0.3531  0.7418
  582MOL0     C78482   2.905   0.482   3.905  0.4142  0.5874  0.0218
  582MOL0     O78483   3.272   0.482   3.792  0.6252 -0.5822 -0.0676
  582MOL0     C78484   3.348   0.696   4.065  0.0109  0.7456  0.0720
  582MOL0     C78485   3.446   0.787   4.110 -1.3119  0.2464 -0.8521
  582MOL0     N78486   4.033   1.397   4.283  0.0979  0.7675  0.0755
  582MOL0     N78487   4.072   1.386   4.402  0.1674 -1.0365  0.5422
  582MOL0     C78488   4.408   1.364   5.485 -0.3090  0.3342  0.4380
  582MOL0     C78489   4.457   1.314   5.605  0.1432  0.3180  0.2014
  582MOL0     C78490   4.672   1.051   5.873 -0.1245  0.0018 -0.6874
  582MOL0     C78491   4.613   0.945   5.937  0.4732  0.1470 -0.1831
  582MOL0     C78492   4.634   0.922   6.068 -0.7961  0.0913 -0.3573
  582MOL0     C78493   4.717   1.003   6.150 -0.5200 -0.4504 -0.5795
  582MOL0     O78494   4.726   0.988   6.289 -0.1966 -0.0759 -0.2068
  582MOL0     C78495   4.610   0.969   6.369  0.4780  0.5093  0.3105
  582MOL0     C78496   4.597   0.837   6.443  0.4545  0.3676  0.0140
  582MOL0     C78497   4.692   0.837   6.558 -0.7080  0.0104 -0.3219
  582MOL0     C78498   4.713   0.700   6.614 -0.0259  0.8576 -0.4180
  582MOL0     C78499   4.854   0.658   6.635 -0.5005  0.0390  0.2021
  582MOL0     C78500   4.970   0.638   6.657  0.1296  0.3080 -0.2448
  582MOL0     C78501   4.792   1.100   6.080 -0.5306 -0.2462 -1.2142
  582MOL0     C78502   4.770   1.115   5.952  0.8278 -0.5032 -0.5023
  582MOL0     H78503   4.787   1.297   5.519 -0.9647 -1.0002 -1.4886
  582MOL0     H78504   4.708   1.419   5.330 -0.1566  0.6413  0.4191
  582MOL0     H78505   4.305   1.357   5.194  2.0698 -1.0210  3.2179
  582MOL0     H78506   4.264   1.493   5.277 -1.3276  0.6841 -0.8895
  582MOL0     H78507   4.300   1.648   5.121 -2.7972 -1.2819  0.3034
  582MOL0     H78508   4.445   1.569   5.054  0.8444  0.3130  1.1612
  582MOL0     H78509   4.286   1.379   4.962  1.5260  0.2810 -1.0554
  582MOL0     H78510   4.157   1.486   4.994  0.6887 -1.8373  0.3320
  582MOL0     H78511   4.192   1.614   4.799  0.9831 -1.3505 -4.2620
  582MOL0     H78512   4.356   1.642   4.853  2.5322 -2.3679 -1.5071
  582MOL0     H78513   4.334   1.523   4.634 -1.0315 -0.0386  0.0869
  582MOL0     H78514   4.401   1.408   4.758 -1.1544 -1.7421  2.2728
  582MOL0     H78515   4.238   1.310   4.610  0.9442  2.9395 -0.6359
  582MOL0     H78516   4.233   1.285   4.780 -2.8914  2.4333  3.1171
  582MOL0     H78517   4.031   1.401   4.808 -0.8427 -3.7875  0.3326
  582MOL0     H78518   4.049   1.497   4.653 -2.8872 -1.6442 -0.7431
  582MOL0     H78519   3.878   1.294   4.659  1.1389  2.6040  3.3727
  582MOL0     H78520   4.025   1.194   4.638 -1.2840 -0.2590 -1.2780
  582MOL0     H78521   3.759   1.280   4.423 -1.5255  2.1392 -2.4922
  582MOL0     H78522   3.709   1.413   4.181 -1.6370 -2.2739 -2.6958
  582MOL0     H78523   3.849   1.472   4.096 -1.2202  1.5134  1.0403
  582MOL0     H78524   3.885   1.199   4.058  1.8870  1.4564 -1.1636
  582MOL0     H78525   3.784   1.290   3.941 -0.1611 -1.0137 -0.5578
  582MOL0     H78526   3.582   1.232   4.055 -0.1825 -3.2753 -2.4740
  582MOL0     H78527   3.667   1.150   4.184  3.0802  0.1554  0.5974
  582MOL0     H78528   3.783   1.005   3.987 -0.4599 -0.4149  0.0378
  582MOL0     H78529   3.639   1.052   3.899 -1.5241  0.0455  0.3825
  582MOL0     H78530   3.599   0.860   3.828 -0.9139  0.1756 -2.0565
  582MOL0     H78531   3.342   0.728   3.643  1.0602  3.1420 -1.4691
  582MOL0     H78532   3.517   0.774   3.640 -1.4037  0.5885 -2.7339
  582MOL0     H78533   3.484   0.617   3.662  2.3755  1.8514  0.6693
  582MOL0     H78534   3.177   0.277   3.875  0.0967  1.6029  1.8539
  582MOL0     H78535   2.996   0.120   3.794 -0.1563  0.0845  1.2234
  582MOL0     H78536   2.819   0.031   3.713 -1.3328 -0.4952 -1.5069
  582MOL0     H78537   2.718   0.038   3.869 -2.0738 -0.4413 -0.0021
  582MOL0     H78538   2.642  -0.117   3.704  1.8950  0.0021 -1.8498
  582MOL0     H78539   2.522  -0.013   3.771  1.0747 -3.7351  0.9100
  582MOL0     H78540   2.660   0.025   3.500 -2.1546 -0.3781 -1.9244
  582MOL0     H78541   2.521   0.117   3.574  1.3691  1.6948  0.7824
  582MOL0     H78542   2.515  -0.184   3.544  0.2257  0.0542  0.9215
  582MOL0     H78543   2.378  -0.067   3.553 -0.8164 -1.5345  0.2620
  582MOL0     H78544   2.424  -0.165   3.319 -1.6645 -1.3525  3.1692
  582MOL0     H78545   2.569  -0.066   3.325  0.4396 -0.4302  0.8932
  582MOL0     H78546   2.296   0.051   3.344 -0.0751 -0.4708 -1.4006
  582MOL0     H78547   2.447   0.142   3.353 -2.3368  2.3613 -0.8759
  582MOL0     H78548   2.511   0.073   3.125  0.1889  1.3901 -0.3345
  582MOL0     H78549   2.381   0.180   3.137  2.0437  0.7766  1.3325
  582MOL0     H78550   2.333  -0.117   3.108  0.5491  1.7888  1.9925
  582MOL0     H78551   2.332  -0.010   2.976 -3.2359  0.8449 -0.7379
  582MOL0     H78552   2.709   0.432   3.813 -0.0846  1.1763  0.2311
  582MOL0     H78553   2.872   0.579   3.941 -0.7171 -0.1154  0.9315
  582MOL0     H78554   3.273   0.663   4.136 -1.4209  0.8266 -1.3715
  582MOL0     H78555   3.429   0.811   4.215 -6.6299  2.2820 -1.8777
  582MOL0     H78556   4.299   1.368   5.480 -0.2739  1.4289  0.3995
  582MOL0     H78557   4.386   1.280   5.679 -1.0749  2.6714  0.2142
  582MOL0     H78558   4.538   0.884   5.888 -0.5711 -0.1708  1.7352
  582MOL0     H78559   4.575   0.840   6.107  2.0328 -2.2124 -0.5647
  582MOL0     H78560   4.590   1.047   6.443 -0.7882 -1.4664  2.1696
  582MOL0     H78561   4.527   0.969   6.298 -0.9700  2.0119  1.9063
  582MOL0     H78562   4.624   0.754   6.377  0.3989  2.0633 -2.2478
  582MOL0     H78563   4.498   0.825   6.488  0.7239 -0.0747  0.4932
  582MOL0     H78564   4.656   0.901   6.639 -2.9330 -1.2008 -0.2683
  582MOL0     H78565   4.785   0.886   6.528 -0.3785  0.4100  1.2622
  582MOL0     H78566   4.671   0.619   6.554  1.3461  0.6840 -1.1750
  582MOL0     H78567   4.656   0.705   6.707 -0.4909 -0.6631 -0.6115
  582MOL0     H78568   5.069   0.613   6.692 -0.6570  0.4478  2.3321
  582MOL0     H78569   4.873   1.147   6.135  0.7236  3.4743 -5.6158
  582MOL0     H78570   4.815   1.203   5.908 -0.9860  0.6105 -0.2220
  583MOL0     O78571  10.340   2.424   9.981  0.2852  0.4264  0.0068
  583MOL0     C78572  10.218   2.454   9.962  0.5473 -0.9955 -0.3731
  583MOL0     O78573  10.115   2.360   9.947 -1.0829  0.3440 -0.6123
  583MOL0     C78574  10.137   2.228   9.971  0.2488  0.4483 -0.3977
  583MOL0     C78575  10.155   2.175  10.103  0.5525  0.2707  0.4561
  583MOL0     C78576  10.190   2.042  10.120 -0.7230 -0.1571  0.9892
  583MOL0     C78577  10.208   1.961  10.009  0.0678  1.4828  0.5126
  583MOL0     O78578  10.244   1.827  10.019  0.6955  0.8392  0.6450
  583MOL0     C78579  10.300   1.770  10.133  0.0764  0.7990 -0.3936
  583MOL0     C78580  10.215   1.651  10.174  0.0785  0.2481 -0.1514
  583MOL0     C78581  10.081   1.690  10.242 -0.0972 -0.0508 -0.4443
  583MOL0     C78582  10.012   1.577  10.317 -0.5449  0.0366  0.7017
  583MOL0     C78583   9.870   1.610  10.373  0.2102 -0.0653 -0.3223
  583MOL0     C78584   9.816   1.482  10.436  0.6812 -0.1778  1.6269
  583MOL0     C78585   9.699   1.500  10.532 -0.0708  0.0434 -0.4541
  583MOL0     C78586   9.693   1.395  10.642  0.7874  0.5580  0.3107
  583MOL0     N78587   9.588   1.403  10.744  0.6777 -0.5600  1.6059
  583MOL0     C78588   9.535   1.516  10.790  0.8001 -0.6074 -1.6371
  583MOL0     C78589   9.435   1.474  10.865 -0.2397 -0.2524 -0.6208
  583MOL0     C78590   9.347   1.577  10.938  0.4240 -0.2172  0.5153
  583MOL0     C78591   9.283   1.527  11.070  0.7344 -0.0780  0.7278
  583MOL0     C78592   9.375   1.426  11.137 -0.4662  0.5496  0.3900
  583MOL0     C78593   9.354   1.405  11.279  0.4083  0.5023  0.1656
  583MOL0     O78594   9.409   1.508  11.368 -0.0224  0.3258  1.5481
  583MOL0     C78595   9.321   1.589  11.438 -0.7706  0.5211  0.1600
  583MOL0     C78596   9.193   1.552  11.473  1.0848 -0.3775 -1.1862
  583MOL0     C78597   9.113   1.631  11.559  0.0499  0.0780 -0.9572
  583MOL0     C78598   8.970   1.583  11.586  0.0519 -1.2197 -0.6103
  583MOL0     C78599   9.170   1.757  11.601 -0.0750  0.7106  0.0936
  583MOL0     C78600   9.087   1.847  11.684  0.9692  0.3807 -0.3684
  583MOL0     O78601   9.022   1.787  11.791  0.2740 -0.0414 -0.2226
  583MOL0     C78602   8.939   1.878  11.858  0.6966  0.1679  0.4263
  583MOL0     C78603   8.985   1.961  11.963 -0.0660  0.1799  1.1385
  583MOL0     C78604   8.905   2.063  12.017 -0.3679 -0.0594 -1.6796
  583MOL0     C78605   8.775   2.078  11.977  0.7158 -0.0756 -0.4837
  583MOL0     O78606   8.682   2.165  12.034 -0.0452  0.4745  0.2519
  583MOL0     C78607   8.715   2.230  12.163 -0.2799 -0.0820  0.2964
  583MOL0     C78608   8.591   2.320  12.206 -0.0178 -0.0401 -0.1523
  583MOL0     C78609   8.470   2.243  12.247  0.2010 -0.6098  0.8298
  583MOL0     C78610   8.349   2.333  12.257 -0.3036 -0.7205 -0.1975
  583MOL0     C78611   8.239   2.260  12.327 -1.4973  0.0366  0.1888
  583MOL0     C78612   8.099   2.317  12.356 -0.0599 -0.3642 -0.3940
  583MOL0     C78613   8.085   2.428  12.456 -0.2316 -1.0063 -0.4614
  583MOL0     C78614   7.942   2.482  12.449  0.5932  1.6132 -0.7422
  583MOL0    Cl78615   7.915   2.592  12.314 -0.1481 -0.0081  0.1097
  583MOL0     C78616   8.717   1.988  11.886 -0.7886 -0.6036  0.0456
  583MOL0     C78617   8.800   1.891  11.825 -0.8596 -1.0384 -0.3321
  583MOL0     O78618   9.084   1.969  11.653 -0.5397  0.2231 -0.3177
  583MOL0     C78619   9.297   1.805  11.554  0.6438 -0.0284 -0.1162
  583MOL0     C78620   9.369   1.715  11.472 -0.5281 -0.6722  0.8507
  583MOL0     N78621   9.422   1.338  10.842  0.1879  0.2372 -0.9005
  583MOL0     N78622   9.515   1.296  10.766 -0.0650 -0.3205  0.2116
  583MOL0     C78623  10.173   2.018   9.882  0.2622  0.6070  0.6327
  583MOL0     C78624  10.142   2.149   9.856 -0.6236  0.2026 -0.9340
  583MOL0     C78625  10.184   2.594   9.936 -0.0256 -0.1323  0.3515
  583MOL0     C78626  10.293   2.686   9.934 -0.6423  0.1190  0.2950
  583MOL0     C78627  10.271   2.816   9.892  0.5814  0.3790  0.1072
  583MOL0     C78628  10.140   2.866   9.882  0.9677  0.4953 -0.0710
  583MOL0     O78629  10.110   2.996   9.860 -0.4778  0.0391 -0.7242
  583MOL0     C78630  10.186   3.090   9.936 -0.1920  0.0503 -0.2727
  583MOL0     C78631  10.098   3.182  10.019 -0.5859 -0.7430 -0.6514
  583MOL0     C78632  10.114   3.339  10.009  0.4677 -0.0697  0.7937
  583MOL0     C78633  10.009   3.410  10.076  0.2491 -0.7907 -0.1510
  583MOL0     C78634  10.019   3.554  10.051  0.2575  0.3151 -0.4241
  583MOL0     C78635  10.022   3.670  10.054 -0.1307 -0.5028  0.6412
  583MOL0     C78636  10.021   2.772   9.907 -0.2059 -0.3053 -0.5346
  583MOL0     C78637  10.051   2.644   9.931 -0.0573  0.5269 -0.1243
  583MOL0     H78638  10.140   2.243  10.186 -1.3159  2.1269 -1.2916
  583MOL0     H78639  10.205   2.021  10.226  0.8443  0.5182  0.9305
  583MOL0     H78640  10.397   1.728  10.107  0.1802  0.0365  1.1190
  583MOL0     H78641  10.317   1.843  10.212 -0.2703  0.4190  0.0415
  583MOL0     H78642  10.192   1.583  10.092 -0.0443  0.7739 -0.5608
  583MOL0     H78643  10.273   1.610  10.257  0.4951  2.5772  0.7870
  583MOL0     H78644  10.098   1.770  10.315 -2.2222 -1.3839  1.6493
  583MOL0     H78645  10.024   1.743  10.165  1.2309 -1.3236 -2.3965
  583MOL0     H78646  10.006   1.493  10.247 -0.8329 -0.0250  0.7996
  583MOL0     H78647  10.082   1.543  10.393  0.2976 -0.9317 -0.4636
  583MOL0     H78648   9.880   1.689  10.448 -1.7032 -0.3227  0.2554
  583MOL0     H78649   9.804   1.641  10.291 -0.9871 -1.9261 -0.1271
  583MOL0     H78650   9.779   1.418  10.355  0.8775  1.9235 -0.2515
  583MOL0     H78651   9.898   1.421  10.475  1.1538 -1.2588 -0.8170
  583MOL0     H78652   9.700   1.603  10.568  3.8549 -0.8041  2.4901
  583MOL0     H78653   9.604   1.490  10.478  0.6892 -0.7011 -1.7004
  583MOL0     H78654   9.791   1.400  10.691  0.9896  2.1099 -0.1699
  583MOL0     H78655   9.686   1.301  10.586 -1.4255  0.3335  0.8906
  583MOL0     H78656   9.565   1.619  10.799 -2.6168  0.4959 -1.4176
  583MOL0     H78657   9.406   1.668  10.957 -0.5151  0.2958  1.0309
  583MOL0     H78658   9.267   1.608  10.869 -1.6967  0.3144  3.0620
  583MOL0     H78659   9.181   1.488  11.059 -0.1005  0.4502  4.9281
  583MOL0     H78660   9.278   1.615  11.135  0.9330 -1.1301  2.2401
  583MOL0     H78661   9.482   1.446  11.121  0.2739 -4.5497 -4.2388
  583MOL0     H78662   9.362   1.325  11.097  2.6228  0.0893  0.2663
  583MOL0     H78663   9.407   1.320  11.324 -1.9801  0.8364  4.0972
  583MOL0     H78664   9.254   1.372  11.308  0.4250  1.6335  1.6388
  583MOL0     H78665   9.133   1.470  11.435 -1.4281  0.4265  0.7496
  583MOL0     H78666   8.949   1.562  11.692  0.0323  3.0463  0.4044
  583MOL0     H78667   8.906   1.667  11.559 -0.2981 -1.8051 -1.6309
  583MOL0     H78668   8.943   1.502  11.518  0.8324 -0.1305 -2.2916
  583MOL0     H78669   9.088   1.940  11.991  0.0250 -2.3782 -0.7477
  583MOL0     H78670   8.942   2.130  12.094 -1.6150 -1.6081  0.3831
  583MOL0     H78671   8.740   2.160  12.243  0.8263 -0.5989 -0.4843
  583MOL0     H78672   8.790   2.306  12.141  0.0312 -0.4204  0.1881
  583MOL0     H78673   8.626   2.370  12.296 -0.2582 -2.8401  1.6198
  583MOL0     H78674   8.570   2.392  12.127 -1.0637 -0.3136 -0.1425
  583MOL0     H78675   8.496   2.189  12.338 -1.0208  0.9602  2.1618
  583MOL0     H78676   8.442   2.175  12.165 -0.2619 -2.8062  2.7149
  583MOL0     H78677   8.360   2.424  12.317 -1.7630 -1.2318  0.9144
  583MOL0     H78678   8.326   2.374  12.159 -1.4716  1.8863  1.0517
  583MOL0     H78679   8.289   2.236  12.422  0.0039 -1.2586 -0.8784
  583MOL0     H78680   8.223   2.164  12.278  2.3093 -0.8694  0.3385
  583MOL0     H78681   8.074   2.366  12.261 -1.5573 -0.1202  0.1008
  583MOL0     H78682   8.020   2.244  12.378 -3.1189  2.3220 -1.6207
  583MOL0     H78683   8.160   2.505  12.440  0.0402 -0.6152  2.2546
  583MOL0     H78684   8.110   2.386  12.554  3.3558 -1.4144 -1.4333
  583MOL0     H78685   7.906   2.516  12.547  2.0248  2.0813 -0.3516
  583MOL0     H78686   7.869   2.402  12.429  1.0231  1.9211 -4.0082
  583MOL0     H78687   8.609   2.001  11.879 -0.6373  1.5784  1.0039
  583MOL0     H78688   8.776   1.823  11.744  0.3629 -0.4542 -1.1993
  583MOL0     H78689   9.331   1.905  11.579 -1.7790  1.0724 -0.8577
  583MOL0     H78690   9.460   1.746  11.421 -0.4088  0.7910  1.8805
  583MOL0     H78691  10.176   1.952   9.797  1.3348  1.0182  0.3357
  583MOL0     H78692  10.111   2.189   9.760  0.2405 -1.5556 -1.9882
  583MOL0     H78693  10.391   2.667   9.978 -1.8793 -1.7798  2.4703
  583MOL0     H78694  10.354   2.885   9.875  2.8503 -2.7738 -3.1279
  583MOL0     H78695  10.256   3.055  10.012 -1.4836  2.4720  2.2155
  583MOL0     H78696  10.242   3.152   9.866 -1.1729  1.2123 -0.0752
  583MOL0     H78697  10.125   3.161  10.123  1.8913  2.2474 -0.5906
  583MOL0     H78698   9.997   3.153   9.987 -0.6174  0.6080 -1.8671
  583MOL0     H78699  10.105   3.358   9.901  3.4075 -3.2084 -0.1996
  583MOL0     H78700  10.215   3.354  10.047  0.5532 -3.5847  2.2943
  583MOL0     H78701  10.024   3.401  10.184  0.8226 -3.3142 -0.3673
  583MOL0     H78702   9.910   3.370  10.053 -0.3200 -0.1108  1.0116
  583MOL0     H78703  10.016   3.777  10.055 -0.0001 -0.4204  3.9256
  583MOL0     H78704   9.922   2.816   9.914  0.9935  2.3523  1.9829
  583MOL0     H78705   9.970   2.576   9.955 -2.1600  2.7863 -0.4951
  584MOL0     O78706   7.256   6.125   6.490  0.5306  0.2599 -0.1114
  584MOL0     C78707   7.215   6.062   6.395  0.6657  0.2812 -0.8798
  584MOL0     O78708   7.111   6.105   6.310 -0.8339 -0.0404 -0.7707
  584MOL0     C78709   7.039   6.217   6.346 -0.5393  0.1400 -0.7223
  584MOL0     C78710   7.067   6.344   6.292 -0.2967 -0.1852 -0.2028
  584MOL0     C78711   7.002   6.458   6.337 -0.6486  0.3971 -0.2379
  584MOL0     C78712   6.921   6.454   6.445  0.1201  0.5408 -0.3255
  584MOL0     O78713   6.863   6.574   6.498 -0.2430  0.1733 -0.1728
  584MOL0     C78714   6.831   6.592   6.635 -0.3121 -0.0474  0.5477
  584MOL0     C78715   6.933   6.681   6.700 -1.1611 -0.3419 -0.1665
  584MOL0     C78716   7.079   6.651   6.656  0.4958 -0.2849 -1.2492
  584MOL0     C78717   7.117   6.739   6.532  0.3768 -0.1861  0.8724
  584MOL0     C78718   7.228   6.688   6.450  0.6231  0.8774 -0.1615
  584MOL0     C78719   7.246   6.786   6.331 -0.4512  0.2228  0.0875
  584MOL0     C78720   7.349   6.715   6.237  0.0456 -1.0266  0.7934
  584MOL0     C78721   7.297   6.597   6.150 -0.4279  0.1510 -0.7785
  584MOL0     N78722   7.199   6.628   6.049  0.1596 -0.4373  0.4790
  584MOL0     C78723   7.118   6.734   6.039 -0.3436 -0.0488  1.3364
  584MOL0     C78724   7.009   6.690   5.962  0.5188  0.5514  0.0659
  584MOL0     C78725   6.885   6.756   5.910  0.1400 -0.0597 -0.7110
  584MOL0     C78726   6.777   6.778   6.019  0.3745  0.4451  0.1196
  584MOL0     C78727   6.735   6.644   6.090 -0.4774  0.3973  0.2419
  584MOL0     C78728   6.671   6.541   5.992  0.2201  0.4114  0.4076
  584MOL0     O78729   6.579   6.589   5.896  0.3787 -0.5148 -0.5661
  584MOL0     C78730   6.450   6.555   5.926  0.5758  0.3698  0.5028
  584MOL0     C78731   6.394   6.570   6.047  0.3893 -0.4635  0.8491
  584MOL0     C78732   6.258   6.534   6.072 -0.6562 -0.1123  0.8111
  584MOL0     C78733   6.203   6.552   6.211 -1.2028  0.5372  0.1647
  584MOL0     C78734   6.172   6.507   5.960 -0.4914  0.2340  0.4007
  584MOL0     C78735   6.032   6.462   5.979  0.2536  0.2016 -0.8523
  584MOL0     O78736   5.999   6.343   5.927  0.6700 -0.1750 -0.2641
  584MOL0     C78737   6.084   6.243   5.953  0.0035  1.0470  0.1882
  584MOL0     C78738   6.095   6.156   5.838  1.6654 -0.0307  0.1447
  584MOL0     C78739   6.179   6.048   5.852  1.2907 -0.6367 -0.3052
  584MOL0     C78740   6.228   6.013   5.975  0.6916 -0.0216 -0.0419
  584MOL0     O78741   6.303   5.900   5.974 -0.2737 -0.4731 -0.0080
  584MOL0     C78742   6.239   5.772   5.966  0.2483 -0.0798 -0.3175
  584MOL0     C78743   6.320   5.685   5.873  0.4311 -0.0301  0.1646
  584MOL0     C78744   6.470   5.667   5.909  0.5236  0.6832 -0.7315
  584MOL0     C78745   6.521   5.540   5.843 -0.1249 -0.3040  0.1613
  584MOL0     C78746   6.668   5.528   5.880  0.2191  0.4523  0.2623
  584MOL0     C78747   6.735   5.391   5.844 -0.4745 -0.6018 -1.1337
  584MOL0     C78748   6.888   5.411   5.795 -0.4041 -0.4601  0.0563
  584MOL0     C78749   6.926   5.280   5.719  0.1014 -0.6485  0.0004
  584MOL0    Cl78750   6.800   5.238   5.597 -0.3037 -0.0916 -0.4324
  584MOL0     C78751   6.218   6.092   6.088 -0.0841 -0.8806  1.2110
  584MOL0     C78752   6.150   6.215   6.071 -0.2225 -0.5931 -0.2551
  584MOL0     O78753   5.954   6.547   6.021  0.4651 -0.5554 -0.4402
  584MOL0     C78754   6.231   6.503   5.836 -0.7328  0.8227  0.7259
  584MOL0     C78755   6.367   6.530   5.821  0.1557  0.2826  1.5490
  584MOL0     N78756   7.030   6.557   5.930 -0.1526  0.0635  1.1408
  584MOL0     N78757   7.142   6.527   5.980 -0.9759  0.4712  0.2108
  584MOL0     C78758   6.891   6.329   6.497 -0.0481  0.3968 -0.4236
  584MOL0     C78759   6.937   6.207   6.444 -0.3996 -0.0317 -0.2624
  584MOL0     C78760   7.301   5.955   6.352 -0.4984 -0.5018 -0.5042
  584MOL0     C78761   7.256   5.863   6.254  0.2297 -0.0976  0.5291
  584MOL0     C78762   7.327   5.748   6.226  0.0680 -0.8045 -0.6268
  584MOL0     C78763   7.459   5.748   6.272  1.0307 -0.1570  0.9193
  584MOL0     O78764   7.539   5.656   6.204  0.0608  0.0471 -1.1519
  584MOL0     C78765   7.678   5.672   6.190 -0.0950 -0.9607  0.0803
  584MOL0     C78766   7.694   5.786   6.095 -0.8752 -0.1213 -0.0686
  584MOL0     C78767   7.640   5.789   5.958  0.0327  0.7640 -0.5238
  584MOL0     C78768   7.723   5.885   5.870  0.4294  0.2825 -0.3459
  584MOL0     C78769   7.854   5.834   5.834  0.3682  0.0789 -0.3397
  584MOL0     C78770   7.967   5.804   5.821  0.3668  0.6953  0.2378
  584MOL0     C78771   7.502   5.835   6.364  0.2958 -0.2906 -0.7115
  584MOL0     C78772   7.426   5.943   6.405 -0.1207 -0.2521  0.1956
  584MOL0     H78773   7.135   6.344   6.208 -0.1461 -1.9789 -0.1242
  584MOL0     H78774   7.013   6.559   6.298 -0.5972  0.0151 -1.2419
  584MOL0     H78775   6.737   6.646   6.642  0.5450  1.6302 -0.4982
  584MOL0     H78776   6.821   6.499   6.692 -1.2168  1.8230  3.6988
  584MOL0     H78777   6.908   6.784   6.674  0.3934 -0.6457 -3.4083
  584MOL0     H78778   6.934   6.672   6.809  1.4590  2.3761  0.1735
  584MOL0     H78779   7.150   6.676   6.736 -0.4657  1.6640 -0.9375
  584MOL0     H78780   7.102   6.546   6.633  0.5116 -0.4615 -0.4334
  584MOL0     H78781   7.025   6.758   6.475  0.7474 -0.6750  0.0857
  584MOL0     H78782   7.145   6.841   6.559  2.8518  0.0616 -2.1532
  584MOL0     H78783   7.313   6.671   6.517  0.3390  0.0297 -0.0005
  584MOL0     H78784   7.196   6.586   6.426  1.7322  0.4551  0.1165
  584MOL0     H78785   7.154   6.822   6.284 -0.5438  1.4390  1.1474
  584MOL0     H78786   7.291   6.876   6.375  2.1733 -1.0234  0.1620
  584MOL0     H78787   7.374   6.784   6.156 -2.4470 -0.7102  0.2267
  584MOL0     H78788   7.437   6.701   6.301 -0.2452 -3.2896  0.7831
  584MOL0     H78789   7.242   6.529   6.216 -0.9270  2.1469  0.9783
  584MOL0     H78790   7.387   6.553   6.105  0.7773  1.4776  0.2531
  584MOL0     H78791   7.135   6.839   6.064 -0.7590  1.2898 -3.1159
  584MOL0     H78792   6.916   6.852   5.867 -0.9826  1.0778  0.8866
  584MOL0     H78793   6.845   6.686   5.836  2.6249 -3.2152  0.7298
  584MOL0     H78794   6.687   6.813   5.968  1.0524 -0.5388 -1.8664
  584MOL0     H78795   6.820   6.841   6.097  0.4378 -1.8604  2.0562
  584MOL0     H78796   6.652   6.666   6.158  1.2008 -1.3667  3.0411
  584MOL0     H78797   6.811   6.605   6.158  1.1257  2.9208  0.0168
  584MOL0     H78798   6.621   6.455   6.037 -0.6056  1.2766  1.1979
  584MOL0     H78799   6.756   6.495   5.942 -0.6867 -0.7964 -0.0953
  584MOL0     H78800   6.458   6.597   6.130  1.8304 -1.3825  0.0793
  584MOL0     H78801   6.127   6.477   6.237  0.0326  0.0827  2.7450
  584MOL0     H78802   6.278   6.560   6.290  0.2301  1.3801 -1.2144
  584MOL0     H78803   6.156   6.651   6.210  0.4988  1.3735 -0.3261
  584MOL0     H78804   6.044   6.187   5.747  0.8408  0.5561  0.7849
  584MOL0     H78805   6.190   5.988   5.762 -2.9516 -1.5851 -0.4038
  584MOL0     H78806   6.227   5.737   6.069 -1.8177  1.8520  0.1663
  584MOL0     H78807   6.135   5.771   5.933 -0.0427 -0.2685  0.5804
  584MOL0     H78808   6.277   5.585   5.865 -0.3358  0.3332 -0.3460
  584MOL0     H78809   6.295   5.738   5.781 -2.5894  3.2439  2.5942
  584MOL0     H78810   6.494   5.657   6.016  2.1182  0.0309 -1.1254
  584MOL0     H78811   6.525   5.751   5.864 -0.3667  1.2178 -0.8480
  584MOL0     H78812   6.459   5.456   5.876  0.5379 -1.7354 -1.9997
  584MOL0     H78813   6.515   5.557   5.735 -1.7707 -0.6803  0.1658
  584MOL0     H78814   6.686   5.553   5.985 -1.6848  0.6086  0.5898
  584MOL0     H78815   6.728   5.607   5.833 -0.7844 -0.3519 -2.5712
  584MOL0     H78816   6.732   5.325   5.932  1.3487 -1.1141 -1.4150
  584MOL0     H78817   6.669   5.351   5.767 -4.0459  2.9124 -0.2516
  584MOL0     H78818   6.961   5.420   5.876 -1.3280 -1.7981  1.0958
  584MOL0     H78819   6.910   5.487   5.720  0.2612 -2.4067 -1.8423
  584MOL0     H78820   6.936   5.203   5.796  1.6658  1.0678  1.6279
  584MOL0     H78821   7.023   5.291   5.670  0.0729 -0.4585 -0.0139
  584MOL0     H78822   6.264   6.058   6.181  3.3154 -1.0495 -0.3644
  584MOL0     H78823   6.116   6.280   6.151 -0.2595 -1.0136  0.0704
  584MOL0     H78824   6.171   6.467   5.754 -0.7036  2.8678 -0.2548
  584MOL0     H78825   6.411   6.522   5.722 -1.1679  1.6390  0.7995
  584MOL0     H78826   6.841   6.319   6.592 -0.5248 -0.2867 -0.7412
  584MOL0     H78827   6.932   6.114   6.499  2.6604 -1.2469 -1.7791
  584MOL0     H78828   7.161   5.885   6.208 -0.5404 -0.3762  1.9236
  584MOL0     H78829   7.293   5.667   6.161  0.0199 -1.1467 -0.1815
  584MOL0     H78830   7.725   5.687   6.288 -2.7797 -0.6602  1.4318
  584MOL0     H78831   7.718   5.578   6.151 -2.6442 -3.0966  2.2169
  584MOL0     H78832   7.802   5.804   6.096 -1.0696  1.3895  2.1339
  584MOL0     H78833   7.654   5.868   6.156  0.5049 -0.1978  1.0034
  584MOL0     H78834   7.535   5.821   5.961  0.3884  2.1084  3.4359
  584MOL0     H78835   7.650   5.689   5.915  1.9463  0.3182  0.7918
  584MOL0     H78836   7.724   5.984   5.917  2.0865  0.5506 -0.8636
  584MOL0     H78837   7.666   5.893   5.777 -1.5578 -0.4525  0.7562
  584MOL0     H78838   8.070   5.773   5.827 -0.1875 -1.5105 -0.8063
  584MOL0     H78839   7.597   5.813   6.411  0.3117 -2.4650 -1.6511
  584MOL0     H78840   7.451   6.005   6.490  1.5062 -0.4371 -0.1288
  585MOL0     O78841   6.885  10.398  10.923  0.3444  0.8224  0.4176
  585MOL0     C78842   6.930  10.370  10.814  0.1103  0.5897 -0.3588
  585MOL0     O78843   6.917  10.237  10.754 -0.0394 -1.1534  0.1165
  585MOL0     C78844   6.849  10.153  10.837  0.5627 -0.4890 -0.1874
  585MOL0     C78845   6.913  10.073  10.934 -0.1070 -0.9628 -0.2640
  585MOL0     C78846   6.839   9.996  11.024  0.1661  0.6065  0.0138
  585MOL0     C78847   6.694  10.003  11.026  0.1005  0.0350 -0.6436
  585MOL0     O78848   6.615   9.945  11.120 -0.0511 -0.2140  0.3116
  585MOL0     C78849   6.676   9.837  11.191 -0.4707  0.3918 -0.4658
  585MOL0     C78850   6.581   9.787  11.292 -0.2947  0.4517 -0.5818
  585MOL0     C78851   6.565   9.896  11.398 -0.2040  0.2821 -0.4343
  585MOL0     C78852   6.423   9.892  11.467  0.3918  0.7025  0.8762
  585MOL0     C78853   6.404  10.016  11.546 -0.0992 -0.2601  0.1639
  585MOL0     C78854   6.277  10.036  11.620  0.2452  0.5350  0.2021
  585MOL0     C78855   6.279  10.167  11.689  0.0112 -0.2959 -0.2466
  585MOL0     C78856   6.158  10.194  11.778 -0.5851  0.6166 -0.4597
  585MOL0     N78857   6.183  10.114  11.901 -0.4624  0.5482  0.1115
  585MOL0     C78858   6.165   9.982  11.913  0.5268 -0.8726  0.5696
  585MOL0     C78859   6.247   9.953  12.017 -0.8985 -0.6065  0.9534
  585MOL0     C78860   6.256   9.816  12.065 -0.0840 -1.0880 -0.4073
  585MOL0     C78861   6.121   9.770  12.117  0.3574 -0.1839  0.2233
  585MOL0     C78862   6.143   9.646  12.201 -0.0131 -0.6049  0.1890
  585MOL0     C78863   6.211   9.532  12.116  0.1881  0.3281 -0.1829
  585MOL0     O78864   6.137   9.495  11.998  0.1287 -0.1452  0.6545
  585MOL0     C78865   6.212   9.488  11.885  1.0938  0.0986 -0.1499
  585MOL0     C78866   6.149   9.543  11.773  0.1517 -0.8453 -0.3264
  585MOL0     C78867   6.216   9.535  11.645  1.7555  0.4954 -0.0906
  585MOL0     C78868   6.145   9.609  11.534  0.5171 -0.9439  0.2369
  585MOL0     C78869   6.344   9.480  11.634 -0.4872  0.4684  0.6369
  585MOL0     C78870   6.427   9.483  11.499  0.0801  0.5399 -1.0873
  585MOL0     O78871   6.363   9.488  11.384 -0.8992  0.3240 -0.0771
  585MOL0     C78872   6.398   9.400  11.285 -0.6426  0.6995 -0.3281
  585MOL0     C78873   6.476   9.272  11.290 -0.8012 -0.6048 -0.5230
  585MOL0     C78874   6.490   9.195  11.172  0.0143  1.2138 -0.2759
  585MOL0     C78875   6.435   9.241  11.054 -0.4853  0.1014  0.6521
  585MOL0     O78876   6.451   9.175  10.941  0.1296 -1.0245  0.6301
  585MOL0     C78877   6.344   9.103  10.878 -0.4865 -0.1312  0.8985
  585MOL0     C78878   6.412   9.027  10.761 -0.3108  0.3630 -1.4017
  585MOL0     C78879   6.317   8.929  10.698 -0.3644 -0.6698 -0.1199
  585MOL0     C78880   6.390   8.876  10.581  0.0192  0.1901  0.8138
  585MOL0     C78881   6.283   8.787  10.507  1.0309  0.0035  0.8473
  585MOL0     C78882   6.333   8.736  10.365  0.2229 -0.6312  0.2073
  585MOL0     C78883   6.384   8.846  10.260  0.0332 -0.4382 -0.1658
  585MOL0     C78884   6.281   8.975  10.265 -0.4212  0.2019 -0.5095
  585MOL0    Cl78885   6.115   8.903  10.268  0.3000  0.1563 -0.0739
  585MOL0     C78886   6.365   9.361  11.053  0.3540  0.6536  0.2296
  585MOL0     C78887   6.340   9.431  11.162  0.8596 -0.8507  0.7453
  585MOL0     O78888   6.543   9.478  11.516  0.3946 -0.2944 -0.3946
  585MOL0     C78889   6.402   9.430  11.751  0.2011  0.5884  1.0107
  585MOL0     C78890   6.342   9.438  11.879 -0.0919 -0.1534  0.2362
  585MOL0     N78891   6.304  10.065  12.065 -0.5557  0.4921  0.4147
  585MOL0     N78892   6.267  10.161  11.996  0.5081  0.2784 -0.7102
  585MOL0     C78893   6.629  10.081  10.937  0.8975 -0.5016  0.2470
  585MOL0     C78894   6.704  10.155  10.842 -0.4827 -1.5098  0.9681
  585MOL0     C78895   7.022  10.468  10.745 -0.6644 -0.5235  0.0460
  585MOL0     C78896   7.081  10.444  10.619  0.8184  0.7183 -0.1994
  585MOL0     C78897   7.184  10.520  10.563  1.0971  0.1903 -0.1490
  585MOL0     C78898   7.231  10.624  10.638  0.3342  0.0436  0.0042
  585MOL0     O78899   7.341  10.685  10.574  0.1201  0.0402 -0.1122
  585MOL0     C78900   7.430  10.770  10.646  0.2261 -0.0059 -0.3432
  585MOL0     C78901   7.493  10.691  10.766 -0.3183 -0.4567 -0.2388
  585MOL0     C78902   7.604  10.772  10.833  0.4886  0.9303  0.2578
  585MOL0     C78903   7.568  10.917  10.883  0.0691 -0.0538  0.3091
  585MOL0     C78904   7.687  10.988  10.936 -0.3945  0.5354  0.0084
  585MOL0     C78905   7.788  11.033  10.974  0.0483  0.2012  0.4104
  585MOL0     C78906   7.171  10.663  10.759 -0.5493 -0.2577 -0.1784
  585MOL0     C78907   7.068  10.591  10.809  0.2629  1.1342  0.3081
  585MOL0     H78908   7.021  10.081  10.938  0.0436 -1.8594 -1.8518
  585MOL0     H78909   6.894   9.942  11.101 -0.3989 -0.0370 -0.0297
  585MOL0     H78910   6.712   9.763  11.119  2.4899  1.8080 -0.5909
  585MOL0     H78911   6.758   9.869  11.256 -2.0238 -0.8316  2.2786
  585MOL0     H78912   6.496   9.754  11.231 -0.9869  1.5358 -0.2250
  585MOL0     H78913   6.625   9.699  11.341  0.9361  2.6260  2.5493
  585MOL0     H78914   6.642   9.884  11.475  1.9052  0.0791 -2.4764
  585MOL0     H78915   6.576   9.997  11.358 -3.7282  1.3650  0.9086
  585MOL0     H78916   6.351   9.898  11.386  0.4441  2.9742  0.9266
  585MOL0     H78917   6.404   9.803  11.528  2.7950 -1.1776 -0.9071
  585MOL0     H78918   6.493  10.027  11.609  1.8430  0.7042 -2.5378
  585MOL0     H78919   6.412  10.098  11.474  2.4690  0.1614  0.8122
  585MOL0     H78920   6.195  10.029  11.548  0.8846 -1.1882 -0.4297
  585MOL0     H78921   6.262   9.953  11.689  0.9821 -0.8686 -1.2483
  585MOL0     H78922   6.373  10.175  11.745  1.2664 -3.0135 -1.7292
  585MOL0     H78923   6.287  10.247  11.616  1.6858  0.6916  0.9388
  585MOL0     H78924   6.064  10.158  11.737 -1.7303  0.9002  1.7671
  585MOL0     H78925   6.147  10.303  11.783 -1.4271  0.6364 -2.1414
  585MOL0     H78926   6.098   9.917  11.858 -3.1375  1.2310  2.1576
  585MOL0     H78927   6.298   9.750  11.988  2.9450 -0.5434  0.6669
  585MOL0     H78928   6.332   9.814  12.143  0.0479  4.6194  0.0294
  585MOL0     H78929   6.064   9.733  12.031  0.6559  0.4292 -0.2503
  585MOL0     H78930   6.059   9.849  12.161  1.1708  0.6861 -0.1546
  585MOL0     H78931   6.047   9.600  12.229  0.1581 -2.4736 -1.8971
  585MOL0     H78932   6.189   9.667  12.298  2.1115 -2.4927 -0.3245
  585MOL0     H78933   6.213   9.437  12.170  0.0497 -1.7463 -3.5300
  585MOL0     H78934   6.315   9.562  12.097  0.3582  0.0017  0.2018
  585MOL0     H78935   6.061   9.605  11.782  1.4257  0.8724  0.8243
  585MOL0     H78936   6.184   9.712  11.532 -3.8244  0.9150  0.2266
  585MOL0     H78937   6.151   9.572  11.432 -1.0461  2.8796 -1.4344
  585MOL0     H78938   6.040   9.628  11.559 -0.0271 -0.4623 -2.2138
  585MOL0     H78939   6.516   9.229  11.380 -0.6643 -3.3652 -1.8029
  585MOL0     H78940   6.544   9.103  11.189  2.1447  2.7721  2.1855
  585MOL0     H78941   6.302   9.031  10.949 -2.8834 -1.9954 -2.1532
  585MOL0     H78942   6.263   9.168  10.843  1.3886  1.9897  0.2253
  585MOL0     H78943   6.450   9.100  10.689 -0.3972  1.2352 -0.5913
  585MOL0     H78944   6.498   8.976  10.803 -1.6534 -1.8895 -1.2060
  585MOL0     H78945   6.225   8.983  10.673 -0.2198  0.9580  2.4870
  585MOL0     H78946   6.295   8.842  10.760  0.1962 -2.1454 -1.9038
  585MOL0     H78947   6.433   8.946  10.509 -0.0584 -1.4571 -0.9037
  585MOL0     H78948   6.475   8.810  10.594  0.7852 -0.9080 -6.0141
  585MOL0     H78949   6.193   8.846  10.488  2.1381  0.8857 -2.1638
  585MOL0     H78950   6.257   8.701  10.570  3.4471 -1.4198  0.0325
  585MOL0     H78951   6.402   8.653  10.376 -0.7666 -1.3670  1.0645
  585MOL0     H78952   6.241   8.700  10.318 -1.4987  1.0324  2.1189
  585MOL0     H78953   6.379   8.796  10.163  0.0684  0.3532 -0.5813
  585MOL0     H78954   6.489   8.868  10.281  0.2134 -0.2930 -1.2078
  585MOL0     H78955   6.293   9.060  10.196  1.6976  1.1378  0.8817
  585MOL0     H78956   6.297   9.039  10.353  1.3267  1.7811 -1.8887
  585MOL0     H78957   6.325   9.400  10.961 -1.4097  2.5586  1.7058
  585MOL0     H78958   6.279   9.520  11.147  1.0348 -0.1756  3.3674
  585MOL0     H78959   6.502   9.387  11.749  0.0114  0.0852  1.9546
  585MOL0     H78960   6.388   9.392  11.966  0.8350  2.1202  1.0280
  585MOL0     H78961   6.522  10.078  10.919  1.3566 -1.1040 -2.8295
  585MOL0     H78962   6.653  10.229  10.782 -1.6728 -2.2375  1.0649
  585MOL0     H78963   7.049  10.366  10.550 -2.0470  2.0213 -0.5057
  585MOL0     H78964   7.221  10.507  10.462 -0.2863  0.9786 -0.7973
  585MOL0     H78965   7.511  10.791  10.575  1.4983 -3.1067  0.0074
  585MOL0     H78966   7.375  10.857  10.683 -0.9352  0.4664 -2.9368
  585MOL0     H78967   7.537  10.599  10.727  0.7429  0.8033 -2.1040
  585MOL0     H78968   7.424  10.663  10.846  2.3438 -0.4930  2.2000
  585MOL0     H78969   7.693  10.795  10.773  3.3712 -0.4119  3.6692
  585MOL0     H78970   7.641  10.718  10.920 -3.2315 -1.8237  0.3903
  585MOL0     H78971   7.497  10.917  10.966 -1.3588  1.4523 -0.8424
  585MOL0     H78972   7.513  10.964  10.801 -1.1615 -0.9750  0.5728
  585MOL0     H78973   7.877  11.081  11.008 -0.1857  1.2373 -0.3969
  585MOL0     H78974   7.210  10.754  10.804 -2.4756  0.6421 -0.2375
  585MOL0     H78975   7.024  10.623  10.903  2.2612  0.3654  1.5860
  586MOL0     O78976   5.181   8.526   8.131  0.5444 -0.7473 -0.0837
  586MOL0     C78977   5.118   8.420   8.146 -0.8031 -0.0535  0.0857
  586MOL0     O78978   5.116   8.315   8.061  0.6398 -0.3313 -0.6277
  586MOL0     C78979   5.198   8.321   7.957  0.2445  0.4839  0.9798
  586MOL0     C78980   5.341   8.328   7.964 -0.4183 -0.1269  0.0761
  586MOL0     C78981   5.427   8.337   7.855 -0.6459  0.0459 -0.2988
  586MOL0     C78982   5.358   8.339   7.730 -1.2759 -0.7086 -1.0308
  586MOL0     O78983   5.429   8.354   7.605  0.3800  0.0708 -0.2725
  586MOL0     C78984   5.559   8.284   7.571  0.4701 -0.4526  0.2253
  586MOL0     C78985   5.546   8.130   7.569  0.3670  0.4511 -0.3995
  586MOL0     C78986   5.425   8.098   7.477 -1.4986  0.3889 -0.1393
  586MOL0     C78987   5.409   7.948   7.484 -1.1716  1.0557 -0.4684
  586MOL0     C78988   5.276   7.898   7.426 -0.3802 -0.1308 -0.3603
  586MOL0     C78989   5.289   7.867   7.273  0.6683  0.0657 -0.2805
  586MOL0     C78990   5.155   7.833   7.226 -0.2743 -0.5963 -0.7902
  586MOL0     C78991   5.153   7.746   7.102 -0.2583  0.3914 -0.2901
  586MOL0     N78992   5.239   7.804   6.995 -0.0727  0.1656  0.0803
  586MOL0     C78993   5.365   7.753   6.957  0.6768 -0.6248 -0.4879
  586MOL0     C78994   5.410   7.854   6.879 -0.1047  0.2035  0.5921
  586MOL0     C78995   5.540   7.884   6.820 -0.1191 -0.4417 -0.6071
  586MOL0     C78996   5.571   7.796   6.707  0.7030  0.7183  0.2851
  586MOL0     C78997   5.669   7.877   6.615  0.7170 -0.0971  0.3301
  586MOL0     C78998   5.753   7.787   6.524 -0.0661  0.0553 -0.5868
  586MOL0     O78999   5.871   7.852   6.477  0.3402  0.1430  0.2247
  586MOL0     C79000   5.939   7.786   6.386 -0.6236  0.5580 -0.4452
  586MOL0     C79001   5.915   7.650   6.338 -0.0064  0.1721  0.2148
  586MOL0     C79002   5.994   7.581   6.250 -0.5093 -1.2648  0.3157
  586MOL0     C79003   5.936   7.454   6.190  0.7108  0.7691 -1.0593
  586MOL0     C79004   6.107   7.660   6.204  0.2189 -0.5138 -1.0031
  586MOL0     C79005   6.197   7.616   6.096 -0.5532  1.0670 -1.4585
  586MOL0     O79006   6.287   7.704   6.050 -0.3666 -0.3387  1.2004
  586MOL0     C79007   6.368   7.661   5.942  0.1487 -0.6844 -0.0571
  586MOL0     C79008   6.511   7.663   5.960 -0.4078 -0.1250  0.2373
  586MOL0     C79009   6.596   7.614   5.857 -0.2094 -0.4712 -0.3739
  586MOL0     C79010   6.540   7.562   5.733  0.0574  0.4530 -0.9000
  586MOL0     O79011   6.618   7.520   5.628 -0.5199  0.2688  0.5022
  586MOL0     C79012   6.751   7.579   5.608  0.1606  0.2723 -0.3027
  586MOL0     C79013   6.816   7.525   5.483  0.0824  0.9434 -0.2776
  586MOL0     C79014   6.939   7.608   5.436 -0.2261 -0.9474 -0.0602
  586MOL0     C79015   7.073   7.577   5.504 -0.0630 -0.0861 -0.2482
  586MOL0     C79016   7.099   7.424   5.479 -1.2978  0.0050 -0.7244
  586MOL0     C79017   7.250   7.380   5.520 -0.9283  0.0287  0.1385
  586MOL0     C79018   7.264   7.220   5.515 -0.1414  0.0259  1.0398
  586MOL0     C79019   7.412   7.187   5.505 -0.8542 -0.6601 -0.1211
  586MOL0    Cl79020   7.418   7.018   5.488  0.0303 -0.1118  0.0234
  586MOL0     C79021   6.397   7.568   5.721 -0.8954 -0.8039 -0.3713
  586MOL0     C79022   6.310   7.617   5.822 -0.2840  0.2746 -0.5293
  586MOL0     O79023   6.188   7.499   6.059 -0.5209  0.4469 -0.3581
  586MOL0     C79024   6.145   7.789   6.252 -0.0328  0.5096 -0.8028
  586MOL0     C79025   6.053   7.846   6.341 -0.2076  0.1888  0.5350
  586MOL0     N79026   5.301   7.935   6.837 -0.3632 -0.1118 -0.3454
  586MOL0     N79027   5.197   7.902   6.916 -0.7376  0.0436  0.0510
  586MOL0     C79028   5.219   8.341   7.721 -0.1428  0.1546 -0.1135
  586MOL0     C79029   5.143   8.319   7.833 -0.3728  0.4563 -0.5447
  586MOL0     C79030   5.012   8.402   8.257  0.1467 -0.9340 -0.2368
  586MOL0     C79031   5.016   8.469   8.381 -0.3805  0.7792  0.0613
  586MOL0     C79032   4.910   8.461   8.467  0.4099 -0.1695 -0.0473
  586MOL0     C79033   4.803   8.380   8.446 -0.0844 -0.2082  1.1891
  586MOL0     O79034   4.696   8.367   8.540 -1.2067 -0.5269 -0.1668
  586MOL0     C79035   4.630   8.491   8.570 -0.5454  0.9153  0.9865
  586MOL0     C79036   4.481   8.491   8.598 -0.0565  0.0789  0.6759
  586MOL0     C79037   4.462   8.431   8.745  0.8569 -0.5082  0.9492
  586MOL0     C79038   4.312   8.391   8.757 -0.0279 -0.1509  0.8757
  586MOL0     C79039   4.235   8.506   8.801  0.2208  0.2925 -0.9382
  586MOL0     C79040   4.172   8.594   8.859  0.9044  0.9545 -0.1417
  586MOL0     C79041   4.806   8.303   8.328  0.1573 -0.2263 -0.8780
  586MOL0     C79042   4.901   8.323   8.229  0.5494 -0.0470 -0.7857
  586MOL0     H79043   5.378   8.337   8.066 -0.1477  1.6857 -0.1610
  586MOL0     H79044   5.533   8.347   7.879 -1.0271  1.7812  0.8902
  586MOL0     H79045   5.584   8.318   7.470  0.0237 -3.3424 -0.9505
  586MOL0     H79046   5.638   8.312   7.641  0.7851  2.1663 -1.0709
  586MOL0     H79047   5.638   8.085   7.533  0.7701 -1.0053  2.2150
  586MOL0     H79048   5.532   8.092   7.670 -0.5560 -0.0457 -0.7007
  586MOL0     H79049   5.337   8.152   7.512 -0.3798  3.2735 -1.4719
  586MOL0     H79050   5.450   8.126   7.374 -0.1741 -2.8046 -0.8140
  586MOL0     H79051   5.486   7.902   7.422  0.5817 -0.6400  2.7186
  586MOL0     H79052   5.411   7.911   7.587 -1.4409 -2.2261 -1.5374
  586MOL0     H79053   5.247   7.806   7.477  2.3730  0.5740  2.7959
  586MOL0     H79054   5.198   7.974   7.427  0.5466  0.8737 -1.0035
  586MOL0     H79055   5.330   7.954   7.221 -0.1091  1.7631  1.8341
  586MOL0     H79056   5.358   7.783   7.260  0.8412  0.0174  0.8230
  586MOL0     H79057   5.097   7.783   7.303 -0.4731  1.1246  0.2394
  586MOL0     H79058   5.097   7.924   7.204 -0.3898  0.4308  3.1318
  586MOL0     H79059   5.049   7.740   7.067 -0.2635 -1.8759  0.0184
  586MOL0     H79060   5.182   7.644   7.129  1.1330  0.9609  0.4792
  586MOL0     H79061   5.421   7.663   6.983 -0.4824 -0.9771  0.8805
  586MOL0     H79062   5.535   7.991   6.796 -3.6207 -0.2855  0.3207
  586MOL0     H79063   5.616   7.865   6.896  1.1049  1.4103 -1.2798
  586MOL0     H79064   5.484   7.765   6.648 -1.4841  1.0274  3.1414
  586MOL0     H79065   5.617   7.703   6.741 -1.0133 -0.2120  0.1479
  586MOL0     H79066   5.741   7.938   6.671  3.0093 -1.5712 -0.8561
  586MOL0     H79067   5.607   7.936   6.546 -1.5470 -3.2447 -0.5504
  586MOL0     H79068   5.688   7.742   6.447 -1.8002 -1.6119  1.7019
  586MOL0     H79069   5.794   7.701   6.578  0.3029  1.2605  1.1137
  586MOL0     H79070   5.822   7.606   6.373 -1.3039  2.0194 -0.7221
  586MOL0     H79071   5.913   7.467   6.084 -7.5605 -2.6339 -0.4205
  586MOL0     H79072   6.004   7.370   6.202  1.0301  0.6001 -3.5821
  586MOL0     H79073   5.847   7.414   6.240 -0.0018 -0.2503 -3.0507
  586MOL0     H79074   6.554   7.700   6.052 -0.0600 -0.1522  0.0906
  586MOL0     H79075   6.704   7.616   5.868 -0.1669  1.4511 -0.6761
  586MOL0     H79076   6.737   7.687   5.604 -1.8305  0.0248 -2.0764
  586MOL0     H79077   6.813   7.556   5.695  0.4549  0.0363 -0.5736
  586MOL0     H79078   6.841   7.420   5.501 -3.5452  0.4644  3.0498
  586MOL0     H79079   6.746   7.528   5.399  0.0136 -4.3127 -0.6999
  586MOL0     H79080   6.925   7.716   5.438 -0.0607 -0.8957 -1.0860
  586MOL0     H79081   6.952   7.588   5.329  0.8428 -3.5063  0.4695
  586MOL0     H79082   7.148   7.638   5.451  0.5998 -1.8933 -1.4838
  586MOL0     H79083   7.073   7.609   5.608 -3.1390 -0.3898 -0.0701
  586MOL0     H79084   7.079   7.406   5.373  0.8704  0.1983 -1.2279
  586MOL0     H79085   7.028   7.358   5.531 -1.7464 -2.3430 -3.9862
  586MOL0     H79086   7.331   7.430   5.466  0.4398 -2.3272 -0.1260
  586MOL0     H79087   7.273   7.407   5.623 -1.8607  0.6008  0.2121
  586MOL0     H79088   7.208   7.190   5.427  0.8148 -0.4820  0.5853
  586MOL0     H79089   7.217   7.173   5.602 -1.1636 -3.5032 -1.2448
  586MOL0     H79090   7.475   7.223   5.587 -0.1926 -0.5513 -0.6613
  586MOL0     H79091   7.451   7.237   5.416 -1.3855 -1.8926 -1.0929
  586MOL0     H79092   6.340   7.534   5.636 -0.1671 -4.5373  0.4795
  586MOL0     H79093   6.202   7.609   5.813 -0.2585 -1.7663  0.5130
  586MOL0     H79094   6.223   7.854   6.213 -1.1608  1.8461 -0.9256
  586MOL0     H79095   6.079   7.944   6.378 -1.2672 -0.1233  2.2315
  586MOL0     H79096   5.180   8.361   7.621  1.2009  2.9911 -0.1601
  586MOL0     H79097   5.036   8.314   7.818 -1.1010  0.7379  3.3132
  586MOL0     H79098   5.099   8.530   8.417 -1.9782  4.0244 -1.3299
  586MOL0     H79099   4.911   8.514   8.561 -3.7350 -0.4700  0.3628
  586MOL0     H79100   4.682   8.542   8.652 -1.2677  2.0243  0.7685
  586MOL0     H79101   4.652   8.553   8.483  0.2608  3.1511  2.6911
  586MOL0     H79102   4.420   8.447   8.517  0.5050  2.7308 -1.3222
  586MOL0     H79103   4.445   8.594   8.594 -1.5990 -0.4664 -0.8676
  586MOL0     H79104   4.488   8.512   8.814  1.1857  1.5381 -1.4311
  586MOL0     H79105   4.531   8.347   8.742  0.2625 -0.9825 -0.0759
  586MOL0     H79106   4.299   8.321   8.841 -2.8368 -0.3637  0.3891
  586MOL0     H79107   4.275   8.348   8.664  1.7776 -0.9780  0.5061
  586MOL0     H79108   4.139   8.686   8.902  3.5339  1.2085  1.5987
  586MOL0     H79109   4.721   8.242   8.300 -1.1922 -0.1710  2.6026
  586MOL0     H79110   4.886   8.281   8.130  3.0777 -2.0061 -0.4563
  587MOL0     O79111   8.483   6.285   4.701 -0.3209 -0.0652 -0.7062
  587MOL0     C79112   8.391   6.362   4.704  0.6579 -0.0330  0.9867
  587MOL0     O79113   8.257   6.337   4.697 -0.5632 -0.7381  0.0403
  587MOL0     C79114   8.200   6.208   4.688  0.1300  0.1780  0.4294
  587MOL0     C79115   8.081   6.180   4.621 -0.6863 -0.4204  0.0095
  587MOL0     C79116   8.023   6.056   4.621  0.3404 -0.2963 -0.0983
  587MOL0     C79117   8.075   5.948   4.687 -0.3794 -1.1746 -0.0981
  587MOL0     O79118   8.041   5.820   4.673 -0.7518  0.0761 -0.3797
  587MOL0     C79119   7.905   5.784   4.676  0.0340  0.5652  0.3810
  587MOL0     C79120   7.893   5.644   4.616  0.1819  0.0462  0.0763
  587MOL0     C79121   8.000   5.537   4.667 -0.4984  0.2686 -0.1796
  587MOL0     C79122   8.109   5.514   4.562 -0.9586  0.2435  0.0380
  587MOL0     C79123   8.228   5.451   4.625  0.3381  0.7083  0.2372
  587MOL0     C79124   8.217   5.296   4.633  0.7124  0.7225  0.0242
  587MOL0     C79125   8.362   5.239   4.629  0.0578  0.4298 -0.0349
  587MOL0     C79126   8.373   5.089   4.632  0.3272 -0.0293 -1.2145
  587MOL0     N79127   8.351   5.039   4.770  0.4088  0.3446  0.3659
  587MOL0     C79128   8.243   4.966   4.811  0.0139 -0.3040 -0.1692
  587MOL0     C79129   8.281   4.935   4.935  1.0286  0.0893 -0.5957
  587MOL0     C79130   8.187   4.864   5.027 -0.6350 -0.7404  0.0469
  587MOL0     C79131   8.101   4.975   5.081  0.0669 -0.6608  0.3827
  587MOL0     C79132   7.980   4.926   5.151  0.0626 -0.3120  0.2036
  587MOL0     C79133   7.882   4.862   5.053 -0.4255 -0.4202 -0.4012
  587MOL0     O79134   7.747   4.863   5.103  0.6225 -0.2891  0.6734
  587MOL0     C79135   7.653   4.862   5.010 -0.0403 -0.0271  0.8021
  587MOL0     C79136   7.539   4.791   5.033 -0.3759  0.1428  0.5373
  587MOL0     C79137   7.419   4.808   4.958  0.1130 -0.2768  0.5441
  587MOL0     C79138   7.303   4.728   5.003 -0.5007 -0.2358  0.4967
  587MOL0     C79139   7.413   4.907   4.847  0.2811  0.7643 -0.1871
  587MOL0     C79140   7.293   4.951   4.769  0.7587 -0.7069 -0.3406
  587MOL0     O79141   7.318   5.060   4.697  1.0683 -0.0981 -0.1749
  587MOL0     C79142   7.207   5.132   4.657  0.4691 -0.0731 -0.1036
  587MOL0     C79143   7.215   5.194   4.533 -0.6199 -0.7923  0.7700
  587MOL0     C79144   7.124   5.284   4.497  0.3030  0.8790 -0.2679
  587MOL0     C79145   7.006   5.322   4.576 -0.3661 -0.9798 -0.1222
  587MOL0     O79146   6.904   5.408   4.527  0.6012 -0.3039  0.6080
  587MOL0     C79147   6.790   5.435   4.611  0.8327  0.8613  0.4603
  587MOL0     C79148   6.683   5.325   4.598  0.0754 -0.5264 -0.1400
  587MOL0     C79149   6.573   5.346   4.703  0.6812 -0.5128  0.0596
  587MOL0     C79150   6.456   5.244   4.706 -0.0111  0.0547 -0.4517
  587MOL0     C79151   6.391   5.248   4.851 -0.9495  0.0629  0.2212
  587MOL0     C79152   6.258   5.172   4.844  0.5293  0.1719 -0.9492
  587MOL0     C79153   6.202   5.143   4.988  0.1866  0.1131 -0.9413
  587MOL0     C79154   6.078   5.048   4.984 -0.7403 -0.3151  0.8451
  587MOL0    Cl79155   6.050   4.981   5.147  0.1865  0.1304 -0.1770
  587MOL0     C79156   6.993   5.246   4.698  0.2131  0.2338  0.6899
  587MOL0     C79157   7.092   5.170   4.739 -0.6237  0.3112  0.2638
  587MOL0     O79158   7.184   4.895   4.793 -0.1358 -0.6548  0.4561
  587MOL0     C79159   7.539   4.970   4.828  0.1673 -0.1753  0.0185
  587MOL0     C79160   7.647   4.961   4.908 -0.3466 -0.5599  0.3894
  587MOL0     N79161   8.400   4.988   4.977  1.1959  0.0693 -0.3384
  587MOL0     N79162   8.445   5.057   4.871  0.0996 -0.3857  0.2355
  587MOL0     C79163   8.187   5.982   4.763  0.1353  0.0930 -0.1538
  587MOL0     C79164   8.247   6.100   4.769  0.3338 -1.0334  0.0162
  587MOL0     C79165   8.430   6.506   4.695 -0.1899 -0.6574 -0.3352
  587MOL0     C79166   8.563   6.558   4.703 -0.8216  0.1708 -0.1360
  587MOL0     C79167   8.581   6.696   4.724  0.9339  0.0684  0.3787
  587MOL0     C79168   8.473   6.787   4.707 -0.8224  0.8972  0.3773
  587MOL0     O79169   8.488   6.921   4.710  0.3181 -0.0940 -0.7901
  587MOL0     C79170   8.607   6.987   4.664 -0.8923 -0.2602 -0.7238
  587MOL0     C79171   8.600   7.011   4.510  0.2997 -0.9929  1.0501
  587MOL0     C79172   8.730   7.087   4.465  0.4429 -0.2080  0.0185
  587MOL0     C79173   8.774   7.080   4.318  0.7682 -0.0326  1.2795
  587MOL0     C79174   8.816   6.949   4.290 -1.1684 -0.9176 -0.2551
  587MOL0     C79175   8.840   6.833   4.278 -0.2468  0.0434 -0.0285
  587MOL0     C79176   8.349   6.732   4.693 -0.2782 -0.2475 -0.0028
  587MOL0     C79177   8.327   6.599   4.674  0.0977 -0.6717 -0.1203
  587MOL0     H79178   8.028   6.262   4.572 -1.6683  0.0585  1.7717
  587MOL0     H79179   7.925   6.048   4.576 -2.0146  5.2327  2.9645
  587MOL0     H79180   7.861   5.785   4.776  0.9083  4.4328  0.8978
  587MOL0     H79181   7.847   5.850   4.611 -3.0707 -2.4714 -0.1581
  587MOL0     H79182   7.797   5.595   4.633 -0.0932  0.9322  1.3232
  587MOL0     H79183   7.913   5.667   4.511  2.6401  1.6812  0.8018
  587MOL0     H79184   8.032   5.581   4.762 -2.9554  3.3953 -0.6136
  587MOL0     H79185   7.948   5.442   4.681 -1.5406  0.7798 -0.4774
  587MOL0     H79186   8.077   5.450   4.480  1.1726  0.7242 -1.2510
  587MOL0     H79187   8.139   5.607   4.513  2.7912 -1.8570 -2.0718
  587MOL0     H79188   8.318   5.478   4.569 -0.6671  2.5532 -0.5619
  587MOL0     H79189   8.243   5.491   4.726  3.4633 -1.4086  0.7617
  587MOL0     H79190   8.157   5.261   4.717 -3.7375 -0.4989 -3.2756
  587MOL0     H79191   8.162   5.261   4.545  1.4955  2.0519 -1.0408
  587MOL0     H79192   8.406   5.283   4.539 -1.7577 -0.8509 -1.6239
  587MOL0     H79193   8.413   5.278   4.718  2.3057  0.2513 -1.1752
  587MOL0     H79194   8.474   5.054   4.608  0.9081 -1.7836  2.8842
  587MOL0     H79195   8.307   5.054   4.552 -0.9679 -1.5728  0.4378
  587MOL0     H79196   8.155   4.942   4.752 -1.2181 -0.3423  1.6076
  587MOL0     H79197   8.129   4.793   4.967 -1.9318 -0.9406  1.4847
  587MOL0     H79198   8.232   4.816   5.114 -2.5297  2.5489  3.1274
  587MOL0     H79199   8.075   5.043   5.000  0.6358 -2.2258 -1.1687
  587MOL0     H79200   8.165   5.025   5.155 -0.1856 -0.0996  0.2226
  587MOL0     H79201   7.934   5.013   5.199  0.7687 -0.0502  0.4306
  587MOL0     H79202   8.011   4.860   5.232 -0.2105 -2.0005 -1.0164
  587MOL0     H79203   7.909   4.756   5.053 -1.8873 -0.9273  3.2802
  587MOL0     H79204   7.899   4.900   4.952 -0.9124 -0.5481 -0.5371
  587MOL0     H79205   7.529   4.720   5.115 -1.5065 -1.2088 -0.6901
  587MOL0     H79206   7.244   4.773   5.083 -3.0987 -1.5532 -0.5423
  587MOL0     H79207   7.237   4.724   4.915 -2.1774  2.4562  1.4990
  587MOL0     H79208   7.325   4.626   5.036  0.7165 -0.1823 -0.1101
  587MOL0     H79209   7.296   5.158   4.470 -0.3910  2.7761 -1.2118
  587MOL0     H79210   7.137   5.329   4.399  0.0253  1.8346  0.1265
  587MOL0     H79211   6.816   5.452   4.716  2.4477 -1.8015  0.5851
  587MOL0     H79212   6.734   5.520   4.571  4.4902  1.5231 -4.2212
  587MOL0     H79213   6.657   5.322   4.492 -0.0502 -3.0109 -0.0887
  587MOL0     H79214   6.732   5.230   4.618  1.4998 -0.0309 -1.1473
  587MOL0     H79215   6.522   5.443   4.710  1.5639 -0.1528  2.5955
  587MOL0     H79216   6.618   5.336   4.802  0.2087  0.5760  0.4042
  587MOL0     H79217   6.372   5.266   4.640 -2.9566 -3.4657  1.7747
  587MOL0     H79218   6.483   5.143   4.677 -2.4875 -0.2020 -2.1067
  587MOL0     H79219   6.377   5.352   4.879 -0.0511  0.0097  0.8953
  587MOL0     H79220   6.463   5.195   4.913  2.0446  2.0374 -1.3243
  587MOL0     H79221   6.197   5.247   4.792  1.5577  1.7925  0.1002
  587MOL0     H79222   6.269   5.085   4.779  1.7940 -1.6537  1.5668
  587MOL0     H79223   6.176   5.241   5.030 -0.1967  1.9244 -4.9366
  587MOL0     H79224   6.280   5.100   5.051  0.4112  2.8019  0.7591
  587MOL0     H79225   6.091   4.967   4.911  2.7307 -1.4343  2.4944
  587MOL0     H79226   5.988   5.109   4.968  0.9317  1.7077 -1.6851
  587MOL0     H79227   6.904   5.258   4.759 -0.9181  1.7452 -1.1140
  587MOL0     H79228   7.098   5.134   4.841  2.1795 -2.0405 -0.6170
  587MOL0     H79229   7.542   5.057   4.763 -1.3570  4.0588  4.9033
  587MOL0     H79230   7.729   5.032   4.897 -0.9756  0.1079 -0.1233
  587MOL0     H79231   8.223   5.897   4.821  0.6770  0.7127  0.4185
  587MOL0     H79232   8.343   6.105   4.820  0.6727 -1.8553 -0.5149
  587MOL0     H79233   8.646   6.488   4.703 -0.8974 -0.1556  3.9472
  587MOL0     H79234   8.679   6.741   4.735  0.7233  1.0566 -1.4795
  587MOL0     H79235   8.600   7.087   4.707 -2.6274 -1.3287  1.7694
  587MOL0     H79236   8.696   6.933   4.696  1.2693  1.4142 -3.4747
  587MOL0     H79237   8.516   7.079   4.488  0.9247  0.5277  3.0470
  587MOL0     H79238   8.588   6.911   4.467 -0.3558 -1.7088  2.8137
  587MOL0     H79239   8.809   7.056   4.535 -0.9410  0.2963  1.9077
  587MOL0     H79240   8.701   7.191   4.481 -1.6523 -0.7867  0.2916
  587MOL0     H79241   8.861   7.145   4.308 -0.1938  1.1030 -0.2029
  587MOL0     H79242   8.693   7.123   4.257  1.4952 -0.9202 -0.3642
  587MOL0     H79243   8.854   6.727   4.270  1.8669  0.1612  1.3349
  587MOL0     H79244   8.267   6.801   4.679 -0.1140 -0.1990 -0.7880
  587MOL0     H79245   8.224   6.576   4.648 -0.0080  0.3897 -0.6529
  588MOL0     O79246  10.093   6.518   9.809  0.3596  0.5261  0.1099
  588MOL0     C79247  10.152   6.630   9.799 -0.3050 -0.7767 -0.7381
  588MOL0     O79248  10.119   6.718   9.709  0.2618 -0.5749  0.2287
  588MOL0     C79249  10.017   6.682   9.621 -0.0424 -0.1518 -0.3382
  588MOL0     C79250   9.898   6.747   9.617 -0.5798 -0.4049 -0.5734
  588MOL0     C79251   9.800   6.727   9.532 -0.0473 -0.1360  0.7917
  588MOL0     C79252   9.810   6.624   9.435 -0.2705  0.9022 -0.4022
  588MOL0     O79253   9.707   6.606   9.343  0.2516 -0.4164  0.0964
  588MOL0     C79254   9.684   6.474   9.303 -0.0615  0.5599 -0.0520
  588MOL0     C79255   9.528   6.458   9.275 -0.1418  0.2279  0.7421
  588MOL0     C79256   9.479   6.540   9.158 -1.0075  0.6620  0.3710
  588MOL0     C79257   9.514   6.476   9.016 -0.6385 -0.1359  0.2477
  588MOL0     C79258   9.541   6.571   8.905  0.5082 -0.3557  0.6904
  588MOL0     C79259   9.582   6.489   8.783 -0.1274 -0.6517 -0.5789
  588MOL0     C79260   9.557   6.560   8.654  0.2098  0.5736 -0.4706
  588MOL0     C79261   9.599   6.460   8.543 -0.1774  0.0056  0.6295
  588MOL0     N79262   9.503   6.348   8.522 -0.4855  0.2259 -0.5661
  588MOL0     C79263   9.546   6.214   8.512  0.2271  0.3225  0.5768
  588MOL0     C79264   9.447   6.145   8.439 -0.2893 -0.5825 -0.2707
  588MOL0     C79265   9.468   5.998   8.395  1.2975 -0.8678  0.3282
  588MOL0     C79266   9.589   5.978   8.294 -0.3035  0.2260 -0.1707
  588MOL0     C79267   9.546   5.872   8.185 -0.6806  0.0710  0.0850
  588MOL0     C79268   9.503   5.734   8.231 -0.1685  0.0157 -0.2692
  588MOL0     O79269   9.536   5.640   8.133 -0.2621  0.4155 -0.6852
  588MOL0     C79270   9.473   5.517   8.133 -0.7594 -0.2676  0.1764
  588MOL0     C79271   9.389   5.463   8.236  0.1657 -0.5197 -0.3628
  588MOL0     C79272   9.349   5.326   8.238 -0.6243 -0.1278  0.0253
  588MOL0     C79273   9.286   5.277   8.362  0.4947  0.8485 -0.7444
  588MOL0     C79274   9.389   5.238   8.132  1.0486 -0.5551  0.4222
  588MOL0     C79275   9.348   5.092   8.117  0.7627  0.0796  0.1150
  588MOL0     O79276   9.421   5.013   8.046 -0.0571  0.1444  0.1987
  588MOL0     C79277   9.385   4.889   8.022 -0.7612  0.4046 -0.4509
  588MOL0     C79278   9.456   4.784   8.079 -0.8336 -0.7322 -0.2128
  588MOL0     C79279   9.419   4.648   8.053  0.0365  1.0807  0.1488
  588MOL0     C79280   9.317   4.617   7.957  0.0452 -0.3322  0.1766
  588MOL0     O79281   9.277   4.492   7.933  0.2608 -0.1112 -0.3375
  588MOL0     C79282   9.145   4.463   7.888 -0.2401  0.1523 -0.2638
  588MOL0     C79283   9.097   4.317   7.845 -0.2859  0.5486  0.6021
  588MOL0     C79284   9.092   4.217   7.959 -0.3370 -0.4162 -0.3525
  588MOL0     C79285   9.087   4.075   7.891  0.9951 -0.8160  0.4913
  588MOL0     C79286   9.080   3.970   8.003 -0.3937 -0.8293 -0.6097
  588MOL0     C79287   9.079   3.819   7.961  0.1163  0.7633  0.1342
  588MOL0     C79288   8.986   3.781   7.841 -0.5114  0.5513  0.3771
  588MOL0     C79289   8.834   3.746   7.877 -0.2790 -0.3364 -0.0205
  588MOL0    Cl79290   8.729   3.864   7.949  0.6440  0.2700  0.6873
  588MOL0     C79291   9.265   4.721   7.888 -0.5571 -0.2611  0.7956
  588MOL0     C79292   9.289   4.856   7.924 -0.2325  0.0621  0.1120
  588MOL0     O79293   9.243   5.057   8.175  0.3919 -0.4912  0.3356
  588MOL0     C79294   9.451   5.305   8.021  0.4760 -0.7207  0.1511
  588MOL0     C79295   9.506   5.435   8.021 -0.7678  0.2090 -0.7811
  588MOL0     N79296   9.342   6.237   8.420 -0.7047  0.2329 -0.1932
  588MOL0     N79297   9.376   6.353   8.474  0.0987  0.1991 -0.4677
  588MOL0     C79298   9.924   6.553   9.430  0.0230 -0.4319 -0.4853
  588MOL0     C79299  10.029   6.582   9.522  0.5699 -0.2718  0.3892
  588MOL0     C79300  10.242   6.653   9.912  0.1286  0.5486  0.6102
  588MOL0     C79301  10.270   6.558  10.014  0.2333 -0.5216 -0.4443
  588MOL0     C79302  10.348   6.595  10.127  0.0171  0.0966 -0.2701
  588MOL0     C79303  10.414   6.718  10.129 -0.3666  0.1910  0.8872
  588MOL0     O79304  10.494   6.736  10.238 -0.4868  0.7339 -0.3032
  588MOL0     C79305  10.535   6.868  10.269 -0.5120  0.7898  0.4134
  588MOL0     C79306  10.663   6.913  10.192  0.2945  0.2760 -0.6482
  588MOL0     C79307  10.777   6.813  10.186 -0.8044  0.9684 -0.4245
  588MOL0     C79308  10.818   6.778  10.336  0.3036 -0.4179  0.4454
  588MOL0     C79309  10.927   6.686  10.330 -0.3528  0.7520  0.0291
  588MOL0     C79310  11.014   6.600  10.327  0.5498 -1.2993  0.3858
  588MOL0     C79311  10.377   6.810  10.033 -0.7434 -0.4401 -0.2637
  588MOL0     C79312  10.295   6.781   9.926  0.1469 -0.1821  0.6782
  588MOL0     H79313   9.890   6.820   9.697  0.4778  2.7260 -3.1101
  588MOL0     H79314   9.714   6.792   9.544 -0.6516 -0.4386 -1.4783
  588MOL0     H79315   9.745   6.449   9.216  3.8494  1.4887  2.1812
  588MOL0     H79316   9.724   6.406   9.378  0.6307  1.4817  0.4278
  588MOL0     H79317   9.505   6.352   9.255  1.1559 -0.1136  0.9611
  588MOL0     H79318   9.462   6.489   9.356  0.9783  0.3982  1.6138
  588MOL0     H79319   9.375   6.574   9.157 -1.3202 -0.0365 -2.8568
  588MOL0     H79320   9.536   6.632   9.176  3.3347 -1.3732 -1.4783
  588MOL0     H79321   9.607   6.425   9.042 -1.5602 -1.7329  0.5166
  588MOL0     H79322   9.434   6.404   8.997 -1.7452  1.3205 -0.8256
  588MOL0     H79323   9.448   6.627   8.892 -0.9887 -2.1295  2.9350
  588MOL0     H79324   9.620   6.640   8.936  1.3888 -1.5604  1.1804
  588MOL0     H79325   9.689   6.469   8.798 -0.8410 -1.7968  4.5923
  588MOL0     H79326   9.521   6.398   8.781  0.0101 -0.7886  0.9939
  588MOL0     H79327   9.449   6.575   8.639  0.4243  0.5927 -2.3284
  588MOL0     H79328   9.615   6.653   8.649  2.0433 -0.4644  0.9010
  588MOL0     H79329   9.700   6.435   8.576 -0.0716  2.0806  2.0996
  588MOL0     H79330   9.614   6.509   8.447  1.3975 -1.7944 -0.0884
  588MOL0     H79331   9.639   6.171   8.550 -0.3577 -0.6255  0.9522
  588MOL0     H79332   9.477   5.944   8.489  0.0626  0.0393  0.9940
  588MOL0     H79333   9.376   5.967   8.345  1.1990 -1.5576  0.9204
  588MOL0     H79334   9.688   5.954   8.334  0.6886  2.1925 -1.2784
  588MOL0     H79335   9.597   6.068   8.233  1.6033  0.4474  0.3479
  588MOL0     H79336   9.619   5.868   8.105 -1.6860 -0.2898 -0.8363
  588MOL0     H79337   9.451   5.907   8.143 -0.0150 -0.1940 -1.6905
  588MOL0     H79338   9.395   5.739   8.245 -0.6338 -1.5195 -2.7606
  588MOL0     H79339   9.551   5.714   8.327 -1.6321  2.7246  1.1590
  588MOL0     H79340   9.357   5.524   8.320 -1.8422  1.0423 -2.1274
  588MOL0     H79341   9.185   5.281   8.320  1.0378  1.0947 -2.0594
  588MOL0     H79342   9.303   5.177   8.403 -2.8688  0.2867 -0.3785
  588MOL0     H79343   9.295   5.336   8.453 -4.2082 -0.6285  0.9871
  588MOL0     H79344   9.544   4.810   8.137 -1.6012  0.5817  0.4136
  588MOL0     H79345   9.470   4.563   8.097  0.4212  0.9789 -0.4936
  588MOL0     H79346   9.079   4.495   7.969  0.9065 -2.0223  1.6690
  588MOL0     H79347   9.125   4.521   7.798 -0.6698 -2.2490 -1.8231
  588MOL0     H79348   8.999   4.328   7.797 -0.6374 -0.7571  0.9828
  588MOL0     H79349   9.161   4.268   7.772  1.2475 -0.1690  2.3481
  588MOL0     H79350   9.019   4.243   8.036  0.2983  0.4702 -0.0419
  588MOL0     H79351   9.184   4.218   8.018  0.8375  2.4414 -2.0272
  588MOL0     H79352   8.995   4.066   7.831  0.1691  0.1329  1.5649
  588MOL0     H79353   9.173   4.057   7.827  1.7696 -2.6475  1.9698
  588MOL0     H79354   8.986   3.981   8.057 -1.6950  1.3015 -3.0971
  588MOL0     H79355   9.157   3.998   8.075 -0.5384 -0.6465 -0.5275
  588MOL0     H79356   9.182   3.794   7.937 -0.9705 -0.6867 -3.6206
  588MOL0     H79357   9.035   3.749   8.034 -1.3648 -0.4795 -1.8591
  588MOL0     H79358   9.024   3.696   7.784  1.1543 -0.1758  2.4282
  588MOL0     H79359   8.973   3.859   7.765  1.4493 -1.5477 -2.3314
  588MOL0     H79360   8.859   3.662   7.943 -1.2070  0.1393  0.9632
  588MOL0     H79361   8.783   3.710   7.786 -1.7555  0.9064  0.2681
  588MOL0     H79362   9.211   4.711   7.795  2.1967  0.4605 -1.0319
  588MOL0     H79363   9.244   4.938   7.870 -0.8541 -1.7197 -2.2435
  588MOL0     H79364   9.461   5.254   7.926  1.5214 -0.5986  0.1841
  588MOL0     H79365   9.554   5.487   7.939  1.7106  0.0469  0.4814
  588MOL0     H79366   9.938   6.483   9.348  1.7207  0.5778 -1.1249
  588MOL0     H79367  10.117   6.519   9.525  1.4982  0.9772 -0.0701
  588MOL0     H79368  10.223   6.460  10.006 -0.5220 -0.1660 -0.4186
  588MOL0     H79369  10.358   6.521  10.205 -1.4413 -4.0275 -3.5970
  588MOL0     H79370  10.454   6.941  10.260  0.9591  2.6834  1.6812
  588MOL0     H79371  10.558   6.877  10.375 -2.4195  1.2572  0.8246
  588MOL0     H79372  10.694   7.010  10.232 -0.1825  0.5858 -1.0255
  588MOL0     H79373  10.635   6.928  10.088 -0.1945 -3.8912 -1.3003
  588MOL0     H79374  10.858   6.862  10.131 -0.7728  0.7376 -0.5887
  588MOL0     H79375  10.726   6.730  10.135  0.0969  1.3146 -1.9617
  588MOL0     H79376  10.736   6.719  10.378 -0.7046 -1.4419 -2.6933
  588MOL0     H79377  10.843   6.866  10.397  1.6030  1.6874 -2.8435
  588MOL0     H79378  11.073   6.511  10.320 -0.2801 -1.7924 -0.9413
  588MOL0     H79379  10.418   6.911  10.031 -2.5535  0.3661  0.8911
  588MOL0     H79380  10.269   6.853   9.849 -1.8031 -3.0336 -1.5884
  589MOL0     O79381   6.129   9.532   3.087  0.7349  0.5161 -0.0257
  589MOL0     C79382   6.191   9.431   3.116 -0.7373 -0.7145 -0.4052
  589MOL0     O79383   6.263   9.354   3.035 -0.3268  0.6358  0.3557
  589MOL0     C79384   6.308   9.400   2.916  1.0527 -0.6970 -0.1321
  589MOL0     C79385   6.334   9.532   2.882 -0.0860 -0.3976  0.4455
  589MOL0     C79386   6.397   9.567   2.761  0.2663 -0.1042  0.2776
  589MOL0     C79387   6.453   9.478   2.677  0.3387 -0.5444 -0.5805
  589MOL0     O79388   6.522   9.514   2.566 -0.6864 -0.9824  0.0918
  589MOL0     C79389   6.636   9.433   2.519 -0.0704 -0.1145  0.0470
  589MOL0     C79390   6.718   9.493   2.405  1.4129 -0.5585 -0.4710
  589MOL0     C79391   6.848   9.430   2.372 -1.1173  0.1693 -0.6727
  589MOL0     C79392   6.964   9.513   2.340 -0.2846  0.3433  0.3842
  589MOL0     C79393   7.102   9.455   2.337  0.8699  0.9494  0.5548
  589MOL0     C79394   7.159   9.415   2.471  0.1694  0.4889 -0.8183
  589MOL0     C79395   7.206   9.544   2.551 -0.9520  0.9345  0.3498
  589MOL0     C79396   7.320   9.527   2.661  0.5031  0.9317 -0.3209
  589MOL0     N79397   7.320   9.400   2.738  0.2702  1.1724 -1.2500
  589MOL0     C79398   7.244   9.377   2.854  0.2328  0.5931  0.5918
  589MOL0     C79399   7.248   9.241   2.862 -0.0289 -0.1418  0.1818
  589MOL0     C79400   7.199   9.153   2.961  0.1884  0.0832  0.2869
  589MOL0     C79401   7.047   9.153   2.969 -0.5999 -0.4976 -0.1792
  589MOL0     C79402   6.979   9.127   2.840 -0.7000 -0.0671  0.2135
  589MOL0     C79403   6.830   9.164   2.839 -1.2347 -1.1420 -0.1345
  589MOL0     O79404   6.754   9.123   2.946 -0.0533 -0.2022  0.8511
  589MOL0     C79405   6.688   9.004   2.946 -0.8251  1.0323 -0.4669
  589MOL0     C79406   6.583   8.984   3.036 -0.0715 -0.0691 -0.2970
  589MOL0     C79407   6.490   8.885   3.031 -0.6426 -0.7428 -0.0643
  589MOL0     C79408   6.362   8.903   3.105  0.6137  0.2028  0.7666
  589MOL0     C79409   6.509   8.781   2.939 -0.3038 -0.4265 -0.5297
  589MOL0     C79410   6.418   8.675   2.906 -0.4406  0.6217  0.6736
  589MOL0     O79411   6.288   8.697   2.892  0.3317  0.7028  0.0998
  589MOL0     C79412   6.198   8.588   2.899 -0.6874 -0.2294  0.4253
  589MOL0     C79413   6.153   8.538   2.776 -0.8442  0.3947 -0.0761
  589MOL0     C79414   6.054   8.447   2.776 -0.9141  1.0521 -0.1617
  589MOL0     C79415   5.999   8.396   2.902 -0.0883 -0.1191 -0.1725
  589MOL0     O79416   5.904   8.297   2.913 -0.2999  0.0008  0.4021
  589MOL0     C79417   5.830   8.269   2.790  0.0373 -0.3703  0.0195
  589MOL0     C79418   5.722   8.174   2.829 -0.3440 -0.6384  0.0835
  589MOL0     C79419   5.657   8.109   2.712  0.1386 -0.1098  1.0468
  589MOL0     C79420   5.568   7.991   2.758 -0.0178 -0.1624 -0.1955
  589MOL0     C79421   5.443   8.044   2.836  0.0880  0.4396  0.3388
  589MOL0     C79422   5.317   7.947   2.816 -0.9973 -0.2768  0.4535
  589MOL0     C79423   5.207   7.986   2.919  1.1812 -0.2747 -0.0949
  589MOL0     C79424   5.176   8.132   2.943 -0.0327  0.0622 -0.3792
  589MOL0    Cl79425   5.091   8.146   3.110 -0.0908 -0.1006  0.0963
  589MOL0     C79426   6.046   8.444   3.028  0.4139  0.0638  0.8060
  589MOL0     C79427   6.140   8.542   3.022 -0.0077 -0.3075  0.3400
  589MOL0     O79428   6.468   8.558   2.894 -0.8623 -0.1110 -0.1675
  589MOL0     C79429   6.617   8.789   2.852 -0.6054  0.4524 -0.2401
  589MOL0     C79430   6.704   8.900   2.851  0.4613 -0.3479  0.0382
  589MOL0     N79431   7.322   9.188   2.760 -0.3293  0.0620  0.5921
  589MOL0     N79432   7.367   9.280   2.688  0.9786 -0.5471  0.5803
  589MOL0     C79433   6.423   9.347   2.713  0.3693  0.4013  0.2582
  589MOL0     C79434   6.353   9.305   2.829  0.5985  0.4185 -0.6070
  589MOL0     C79435   6.173   9.387   3.254 -0.5478 -0.3617 -0.5865
  589MOL0     C79436   6.231   9.268   3.296  0.1080 -0.7516 -0.0043
  589MOL0     C79437   6.187   9.221   3.420 -0.6560  0.5271  0.4941
  589MOL0     C79438   6.100   9.286   3.514  0.4733  0.1683 -0.5137
  589MOL0     O79439   6.093   9.241   3.644 -0.7953 -0.2840  0.6005
  589MOL0     C79440   6.083   9.322   3.762  0.4278 -0.9539 -0.5288
  589MOL0     C79441   6.185   9.282   3.860 -0.2865  0.3962  0.1218
  589MOL0     C79442   6.328   9.289   3.814  0.4763  0.2916 -0.5560
  589MOL0     C79443   6.373   9.435   3.800  0.5887  0.6684 -0.5027
  589MOL0     C79444   6.513   9.449   3.787 -0.5751 -0.2324  0.3599
  589MOL0     C79445   6.630   9.460   3.770 -1.1712  1.2577  1.1292
  589MOL0     C79446   6.056   9.412   3.469  0.3008  0.1061 -1.4035
  589MOL0     C79447   6.091   9.454   3.346  0.3810 -0.5934  0.2122
  589MOL0     H79448   6.309   9.598   2.965 -2.4367 -1.7947  0.9526
  589MOL0     H79449   6.401   9.673   2.736  0.4279 -0.3581 -0.8381
  589MOL0     H79450   6.713   9.400   2.590  1.8005  0.6910 -1.5142
  589MOL0     H79451   6.596   9.341   2.478  2.1306 -0.2314 -2.0510
  589MOL0     H79452   6.656   9.489   2.315  2.0266  3.2703 -1.2524
  589MOL0     H79453   6.733   9.599   2.426 -0.8860 -0.1639 -0.5413
  589MOL0     H79454   6.868   9.390   2.472 -3.8882  1.0475  0.3211
  589MOL0     H79455   6.826   9.351   2.300 -0.9667 -1.7028  1.2517
  589MOL0     H79456   6.950   9.560   2.243  0.5728  1.8492  0.9573
  589MOL0     H79457   6.957   9.601   2.404 -2.5848 -0.5042  1.4290
  589MOL0     H79458   7.093   9.367   2.273 -5.9714  2.7600 -1.7796
  589MOL0     H79459   7.169   9.530   2.293 -1.8824  2.5439 -1.1788
  589MOL0     H79460   7.076   9.370   2.526  0.7230 -0.6052 -0.8598
  589MOL0     H79461   7.239   9.342   2.462  0.0426  0.1062  0.8402
  589MOL0     H79462   7.248   9.621   2.486  2.0160  0.7578  1.8628
  589MOL0     H79463   7.115   9.577   2.603 -0.0636  1.0996  1.8725
  589MOL0     H79464   7.305   9.604   2.738  1.5392  0.2568  0.5934
  589MOL0     H79465   7.412   9.541   2.603  0.2030 -0.1231 -1.0720
  589MOL0     H79466   7.189   9.451   2.910 -1.6174 -0.4470  0.2074
  589MOL0     H79467   7.230   9.051   2.938 -3.7742 -1.0868 -0.4426
  589MOL0     H79468   7.251   9.189   3.051 -3.6405  2.6917  1.7237
  589MOL0     H79469   7.010   9.244   3.017 -1.7881 -1.6960  1.2826
  589MOL0     H79470   7.015   9.075   3.039 -0.4241 -2.9780 -2.7020
  589MOL0     H79471   6.992   9.023   2.809 -2.6437 -0.1572 -0.4734
  589MOL0     H79472   7.014   9.188   2.757  1.8731 -0.9030  0.5862
  589MOL0     H79473   6.784   9.138   2.742 -3.4157 -0.1800  0.5764
  589MOL0     H79474   6.823   9.272   2.849 -0.6550 -1.2059  1.0620
  589MOL0     H79475   6.560   9.075   3.091  2.0770 -0.6062  1.6549
  589MOL0     H79476   6.293   8.820   3.117 -0.0411  0.3730 -1.2802
  589MOL0     H79477   6.370   8.953   3.202  0.9815  3.9089 -0.9602
  589MOL0     H79478   6.305   8.974   3.043  2.4683  3.4885  2.5326
  589MOL0     H79479   6.182   8.576   2.679 -0.9579  0.5243 -0.0596
  589MOL0     H79480   5.996   8.414   2.690 -0.9058  0.4102  0.0685
  589MOL0     H79481   5.779   8.362   2.764  2.7169  1.5979  1.3612
  589MOL0     H79482   5.894   8.233   2.709  0.0029 -1.3679  0.4186
  589MOL0     H79483   5.763   8.090   2.886 -0.2894 -0.5461  0.1793
  589MOL0     H79484   5.642   8.202   2.898 -0.3765 -0.2795 -0.1009
  589MOL0     H79485   5.730   8.055   2.651  0.1148 -1.4868  2.1757
  589MOL0     H79486   5.599   8.180   2.652  1.5691 -0.9100 -1.4007
  589MOL0     H79487   5.522   7.948   2.669 -5.6434 -1.6019  2.8954
  589MOL0     H79488   5.619   7.912   2.814 -2.1609 -0.9646  0.7509
  589MOL0     H79489   5.420   8.147   2.807 -1.4974  0.2829  0.9201
  589MOL0     H79490   5.469   8.051   2.942  1.9272 -4.7391  0.5135
  589MOL0     H79491   5.273   7.944   2.716  1.5333 -1.7025 -0.7248
  589MOL0     H79492   5.354   7.844   2.820  3.2971  1.0249 -0.1269
  589MOL0     H79493   5.228   7.954   3.022  0.7663  2.8770  1.1081
  589MOL0     H79494   5.116   7.933   2.889  0.4046  1.6384 -1.3038
  589MOL0     H79495   5.122   8.187   2.865  1.0199  0.4162 -0.8706
  589MOL0     H79496   5.274   8.179   2.953  1.0009 -2.0883  0.0587
  589MOL0     H79497   6.004   8.387   3.111 -2.7628 -1.2111 -1.4241
  589MOL0     H79498   6.182   8.585   3.113 -0.0600 -1.1021  0.7443
  589MOL0     H79499   6.643   8.722   2.770 -0.1013  0.0378  0.2520
  589MOL0     H79500   6.783   8.891   2.777  0.8347 -1.1617  0.5204
  589MOL0     H79501   6.459   9.270   2.645  1.3206  2.6355 -1.8847
  589MOL0     H79502   6.352   9.200   2.856 -1.4578  0.9730  1.8621
  589MOL0     H79503   6.293   9.203   3.234 -3.4801 -2.9377 -1.6636
  589MOL0     H79504   6.230   9.131   3.463  0.7944  1.3247  0.8016
  589MOL0     H79505   6.102   9.424   3.726 -2.4470 -0.6018 -1.3781
  589MOL0     H79506   5.979   9.313   3.795 -0.2350  1.6248 -1.6428
  589MOL0     H79507   6.163   9.177   3.878  0.5458 -0.5761 -3.6636
  589MOL0     H79508   6.181   9.347   3.948  1.7237  0.2547  0.3621
  589MOL0     H79509   6.332   9.227   3.724  2.3285  2.4270 -2.0541
  589MOL0     H79510   6.395   9.253   3.893  0.6273  3.3177  0.8413
  589MOL0     H79511   6.327   9.489   3.884  0.0618 -1.4808  0.6604
  589MOL0     H79512   6.333   9.487   3.712  0.6720  1.3022 -0.1692
  589MOL0     H79513   6.730   9.468   3.732 -0.5005 -0.8009  2.3100
  589MOL0     H79514   5.991   9.476   3.528 -1.4671 -2.7849  0.0135
  589MOL0     H79515   6.040   9.539   3.303 -0.9284 -1.6396 -0.3750
  590MOL0     O79516  10.682  10.169  11.189 -0.1999 -1.1064 -0.4535
  590MOL0     C79517  10.629  10.112  11.288  1.8032  0.0509 -0.5245
  590MOL0     O79518  10.530  10.007  11.274 -0.3549 -0.0016 -0.6395
  590MOL0     C79519  10.533   9.944  11.152 -0.0169 -0.8664 -0.6053
  590MOL0     C79520  10.643   9.916  11.075 -0.2479 -0.1111  0.3027
  590MOL0     C79521  10.634   9.847  10.956  0.2969  0.6526  0.4096
  590MOL0     C79522  10.506   9.800  10.914  0.3262  0.6650  0.4571
  590MOL0     O79523  10.506   9.714  10.808 -1.4108  0.0544 -0.0977
  590MOL0     C79524  10.409   9.762  10.706 -0.8342 -0.7468 -0.6431
  590MOL0     C79525  10.431   9.680  10.579 -0.5636  0.3218  0.7644
  590MOL0     C79526  10.576   9.702  10.531 -0.7004  0.1607 -0.1412
  590MOL0     C79527  10.603   9.613  10.407 -0.5331  0.0772 -0.2633
  590MOL0     C79528  10.732   9.647  10.324 -0.6526 -0.1395  0.2230
  590MOL0     C79529  10.727   9.781  10.258 -0.0782  0.0983 -0.2934
  590MOL0     C79530  10.862   9.818  10.188 -0.6018  0.5308 -0.4425
  590MOL0     C79531  10.922   9.701  10.103 -0.0551 -0.1917  0.0470
  590MOL0     N79532  10.823   9.653  10.005 -0.4451 -0.2301 -1.0783
  590MOL0     C79533  10.776   9.724   9.896 -0.6935 -0.0473  0.1492
  590MOL0     C79534  10.719   9.630   9.821 -0.5269 -0.4277  0.3427
  590MOL0     C79535  10.660   9.647   9.679 -0.1980 -0.2611 -0.4650
  590MOL0     C79536  10.778   9.689   9.583 -0.5504 -0.0356 -0.8524
  590MOL0     C79537  10.862   9.576   9.562  0.5397  1.1449  1.0123
  590MOL0     C79538  10.986   9.611   9.476 -0.0843 -0.2137  0.9121
  590MOL0     O79539  11.094   9.522   9.518  0.4626  0.1390 -0.3058
  590MOL0     C79540  11.149   9.524   9.640  0.5164 -0.2427 -0.6611
  590MOL0     C79541  11.211   9.405   9.671 -0.2865 -1.4145 -0.2626
  590MOL0     C79542  11.271   9.397   9.800  0.6000  0.1873 -0.9485
  590MOL0     C79543  11.330   9.270   9.863  0.4621  0.0527  0.3867
  590MOL0     C79544  11.257   9.510   9.892  0.0336  0.3397 -0.3522
  590MOL0     C79545  11.314   9.509  10.035 -1.0989 -0.4648  0.8932
  590MOL0     O79546  11.227   9.543  10.138  0.9546 -0.4820  0.3995
  590MOL0     C79547  11.286   9.558  10.261 -0.7721 -0.2823  1.3790
  590MOL0     C79548  11.300   9.457  10.345  0.2850 -0.3458 -0.9937
  590MOL0     C79549  11.363   9.469  10.469  0.1582  0.5495  0.2328
  590MOL0     C79550  11.444   9.586  10.502  0.9140 -0.0368  0.6402
  590MOL0     O79551  11.523   9.587  10.611  0.8597  0.4213  0.3926
  590MOL0     C79552  11.597   9.711  10.631  0.8750 -0.2056  0.6818
  590MOL0     C79553  11.711   9.695  10.728 -0.2565 -0.0877 -0.6350
  590MOL0     C79554  11.813   9.817  10.738  1.2371 -0.4220  1.8720
  590MOL0     C79555  11.851   9.890  10.592 -0.3638  0.3208  0.0965
  590MOL0     C79556  11.940  10.013  10.621  0.1762  0.9034 -0.4219
  590MOL0     C79557  11.987  10.082  10.499 -0.4785 -0.5346 -0.8420
  590MOL0     C79558  11.878  10.132  10.400 -0.6428  0.0941 -0.2216
  590MOL0     C79559  11.802  10.245  10.454 -0.2284 -0.4589 -0.1135
  590MOL0    Cl79560  11.645  10.240  10.364  0.1574 -0.4588 -0.4881
  590MOL0     C79561  11.407   9.697  10.418  0.0213 -0.2093 -0.3328
  590MOL0     C79562  11.337   9.686  10.299  0.5985  0.5239  0.3502
  590MOL0     O79563  11.433   9.468  10.042  0.1330 -0.2494 -0.2503
  590MOL0     C79564  11.194   9.631   9.854  0.5065  0.0296 -0.1764
  590MOL0     C79565  11.138   9.637   9.723 -0.3273  0.0653  0.0449
  590MOL0     N79566  10.718   9.515   9.886  0.2222  0.2052  0.3265
  590MOL0     N79567  10.779   9.529   9.993 -0.3538 -0.6085 -1.1091
  590MOL0     C79568  10.393   9.836  10.984 -0.1474  0.3871  1.0015
  590MOL0     C79569  10.411   9.896  11.109  0.7581 -0.6189  0.5427
  590MOL0     C79570  10.639  10.181  11.417 -0.1495  0.4338  1.4054
  590MOL0     C79571  10.693  10.307  11.426  0.5959  0.1330  0.1688
  590MOL0     C79572  10.712  10.357  11.547  0.8584  0.2773  0.7312
  590MOL0     C79573  10.661  10.302  11.666 -0.4900 -0.1122  0.1286
  590MOL0     O79574  10.682  10.365  11.789  0.0103 -0.1770  0.7705
  590MOL0     C79575  10.736  10.499  11.791  0.2813 -0.5029  0.4485
  590MOL0     C79576  10.740  10.570  11.927 -0.3036  0.4230 -0.0665
  590MOL0     C79577  10.874  10.643  11.963 -0.2024 -0.2713 -0.1252
  590MOL0     C79578  10.877  10.679  12.104  0.1535 -0.0395  0.3397
  590MOL0     C79579  10.989  10.781  12.118  0.3719 -0.1449 -0.3465
  590MOL0     C79580  11.078  10.863  12.113 -0.0804  0.2357  0.3947
  590MOL0     C79581  10.591  10.179  11.655 -0.3767 -1.5288  0.6672
  590MOL0     C79582  10.578  10.118  11.532  0.0292 -0.6567  0.0846
  590MOL0     H79583  10.741   9.934  11.118  0.5415 -2.4150 -0.3842
  590MOL0     H79584  10.718   9.822  10.892  0.0663  3.0362 -0.9441
  590MOL0     H79585  10.306   9.744  10.738 -0.3353 -0.0126  1.5590
  590MOL0     H79586  10.421   9.870  10.693  1.4249 -0.5827  2.0248
  590MOL0     H79587  10.405   9.574  10.579  2.7234 -0.7808 -3.9729
  590MOL0     H79588  10.359   9.721  10.508  0.4471  3.0769  1.1730
  590MOL0     H79589  10.587   9.809  10.509  1.4998  0.5026  2.1528
  590MOL0     H79590  10.638   9.677  10.618  1.1469  1.6903 -0.9484
  590MOL0     H79591  10.616   9.507  10.434  0.0014 -0.6788 -3.2128
  590MOL0     H79592  10.518   9.620  10.340 -0.9064 -3.7598 -0.3886
  590MOL0     H79593  10.812   9.647  10.398  0.1871 -2.2952 -0.5832
  590MOL0     H79594  10.770   9.561  10.267 -0.2642 -1.3386  2.1867
  590MOL0     H79595  10.642   9.775  10.188 -0.8226 -1.5357  0.6875
  590MOL0     H79596  10.713   9.857  10.336  0.9202 -0.6293  0.6162
  590MOL0     H79597  10.855   9.904  10.121 -1.8729  2.0175  1.4963
  590MOL0     H79598  10.934   9.842  10.267  1.2673 -0.0571 -1.8933
  590MOL0     H79599  10.951   9.616  10.166 -1.0611 -1.6480 -1.3461
  590MOL0     H79600  11.014   9.743  10.063 -0.7762  2.7401  1.2002
  590MOL0     H79601  10.792   9.827   9.867 -1.1881 -0.0830 -0.2649
  590MOL0     H79602  10.610   9.554   9.649  1.1886 -1.4836  0.8290
  590MOL0     H79603  10.597   9.734   9.696  0.9406  1.3115 -3.5177
  590MOL0     H79604  10.835   9.771   9.627  1.0967 -2.5781  2.1638
  590MOL0     H79605  10.738   9.720   9.486 -0.5346 -2.5499 -1.7469
  590MOL0     H79606  10.819   9.499   9.498  3.3662  1.0597 -1.0129
  590MOL0     H79607  10.897   9.528   9.653 -1.8490 -0.2824  1.2417
  590MOL0     H79608  11.016   9.714   9.499 -1.3410 -0.5180  4.5821
  590MOL0     H79609  10.964   9.603   9.369 -1.1053  1.1170  0.9941
  590MOL0     H79610  11.216   9.318   9.607  0.5033 -2.0625  0.6485
  590MOL0     H79611  11.285   9.248   9.960 -2.6971  1.2726 -0.6654
  590MOL0     H79612  11.290   9.187   9.804 -2.8450 -0.0026  2.4512
  590MOL0     H79613  11.438   9.279   9.867  0.4630 -0.2214  1.1228
  590MOL0     H79614  11.259   9.358  10.329  3.0592 -2.1420  1.8279
  590MOL0     H79615  11.374   9.376  10.525  0.5925 -1.6365 -3.1774
  590MOL0     H79616  11.630   9.750  10.534 -4.9957  2.5951 -0.5967
  590MOL0     H79617  11.537   9.786  10.683  1.1321 -1.3829  2.7961
  590MOL0     H79618  11.681   9.662  10.828 -3.3923 -1.9868 -2.0207
  590MOL0     H79619  11.764   9.605  10.695  0.8501  0.6022 -0.7870
  590MOL0     H79620  11.906   9.778  10.780  2.0697  0.0168  0.4761
  590MOL0     H79621  11.758   9.874  10.814 -1.4988  1.3940 -1.1851
  590MOL0     H79622  11.904   9.830  10.517  0.0583  1.2818 -0.4035
  590MOL0     H79623  11.765   9.931  10.539  0.2847  2.7776  0.7981
  590MOL0     H79624  12.028   9.989  10.682  0.1016 -0.9812 -0.9923
  590MOL0     H79625  11.873  10.081  10.673 -2.0650 -1.0575 -0.5974
  590MOL0     H79626  12.049  10.171  10.516  1.9316 -1.5109 -3.7383
  590MOL0     H79627  12.060  10.013  10.457  0.4641  0.7982 -1.5012
  590MOL0     H79628  11.817  10.044  10.375 -1.4143  0.0347  1.7004
  590MOL0     H79629  11.926  10.164  10.308  1.5474 -0.6298  0.6165
  590MOL0     H79630  11.844  10.344  10.434 -2.1999  0.8669  1.8482
  590MOL0     H79631  11.776  10.244  10.561 -5.1500  0.4737 -1.0882
  590MOL0     H79632  11.428   9.800  10.447 -0.3934 -0.1524 -0.2320
  590MOL0     H79633  11.319   9.771  10.234  2.0794  1.7069  1.4263
  590MOL0     H79634  11.192   9.720   9.916 -0.2731 -1.0272  1.3826
  590MOL0     H79635  11.098   9.729   9.682  3.3112  1.6898 -0.2942
  590MOL0     H79636  10.302   9.791  10.945  1.3879 -2.3700  0.4075
  590MOL0     H79637  10.322   9.918  11.167  1.5573 -2.0836  2.4339
  590MOL0     H79638  10.747  10.348  11.341  0.9951 -3.9790 -1.8128
  590MOL0     H79639  10.758  10.455  11.538  0.0276  0.4989 -6.2242
  590MOL0     H79640  10.840  10.493  11.758 -0.1793  1.6791 -1.6402
  590MOL0     H79641  10.688  10.563  11.717  2.8525 -0.1181 -0.9913
  590MOL0     H79642  10.719  10.494  12.002  0.7981 -0.7002 -0.8540
  590MOL0     H79643  10.657  10.642  11.928  0.4176  1.3000  2.2654
  590MOL0     H79644  10.879  10.728  11.893  2.6437  0.3849  0.7643
  590MOL0     H79645  10.948  10.571  11.927  0.0372  0.1835 -0.5685
  590MOL0     H79646  10.913  10.599  12.171  1.3982  0.6281  0.4881
  590MOL0     H79647  10.775  10.709  12.132 -2.0894 -2.7486 -3.8682
  590MOL0     H79648  11.172  10.912  12.101 -0.8937  2.1718  1.4699
  590MOL0     H79649  10.537  10.138  11.739 -2.2630  0.4682  0.5100
  590MOL0     H79650  10.508  10.040  11.505 -3.1926  1.9773  0.1561
  591MOL0     O79651   7.539   6.516   4.285 -0.2897 -0.1857  0.4772
  591MOL0     C79652   7.457   6.486   4.198  1.0197 -1.0871  0.3638
  591MOL0     O79653   7.340   6.421   4.233 -0.4269 -0.5714 -0.0168
  591MOL0     C79654   7.300   6.421   4.363  0.0006  0.1298  0.1988
  591MOL0     C79655   7.279   6.538   4.437  0.1645 -0.7294  0.4158
  591MOL0     C79656   7.240   6.534   4.569  0.8311  0.7781 -0.8422
  591MOL0     C79657   7.226   6.401   4.633  0.0192 -0.0436 -0.1511
  591MOL0     O79658   7.214   6.386   4.769  0.5753  0.4662  0.3292
  591MOL0     C79659   7.270   6.289   4.847 -0.4883  0.6745  0.2562
  591MOL0     C79660   7.234   6.340   4.994 -0.2885  0.5372  0.2862
  591MOL0     C79661   7.088   6.304   5.019 -1.4131 -0.0757  0.2934
  591MOL0     C79662   7.067   6.285   5.169 -0.3828  0.7850 -0.4128
  591MOL0     C79663   6.925   6.280   5.209 -0.0770  0.1665 -0.9985
  591MOL0     C79664   6.851   6.175   5.124 -0.2509  0.2077 -0.0908
  591MOL0     C79665   6.713   6.174   5.177  0.6324  0.5125  0.2043
  591MOL0     C79666   6.601   6.107   5.094  0.6227  0.5449 -0.9413
  591MOL0     N79667   6.528   6.218   5.031  0.8128 -0.1826  0.2338
  591MOL0     C79668   6.567   6.305   4.932  0.8502  0.5517 -0.0331
  591MOL0     C79669   6.478   6.409   4.926  0.6444 -0.4201 -0.2323
  591MOL0     C79670   6.469   6.521   4.832 -0.5034 -0.0801  0.0830
  591MOL0     C79671   6.324   6.582   4.822 -0.4406 -0.0744  0.9871
  591MOL0     C79672   6.309   6.645   4.672 -0.2556 -0.1159  1.0808
  591MOL0     C79673   6.369   6.791   4.682 -0.5700 -0.1449 -0.2113
  591MOL0     O79674   6.385   6.835   4.548  0.4915  0.7437 -0.4231
  591MOL0     C79675   6.433   6.957   4.528 -1.0427 -1.1090  0.4165
  591MOL0     C79676   6.465   7.006   4.400  0.2273 -0.4785 -0.2207
  591MOL0     C79677   6.528   7.126   4.366 -0.1843  0.5778  0.5082
  591MOL0     C79678   6.518   7.174   4.224  0.2422  0.2132  0.5132
  591MOL0     C79679   6.560   7.208   4.466  0.0526  0.8162 -0.8359
  591MOL0     C79680   6.618   7.345   4.454  0.4434 -0.3949  0.2714
  591MOL0     O79681   6.560   7.449   4.515 -0.8488 -0.2862  0.1032
  591MOL0     C79682   6.615   7.575   4.507 -0.6049  0.1315 -0.7481
  591MOL0     C79683   6.687   7.627   4.394 -0.5345 -0.6172 -0.1451
  591MOL0     C79684   6.742   7.761   4.397  0.8119  0.4635 -0.2702
  591MOL0     C79685   6.715   7.839   4.518  0.6316  1.1887  0.6257
  591MOL0     O79686   6.767   7.961   4.543  0.6200 -0.6032  0.5100
  591MOL0     C79687   6.752   8.065   4.444  1.5609  0.5007 -0.1216
  591MOL0     C79688   6.801   8.200   4.501  0.2695 -0.4339 -0.2174
  591MOL0     C79689   6.739   8.240   4.641  0.4774 -0.3089  0.3480
  591MOL0     C79690   6.760   8.383   4.685 -0.1616 -0.1602 -0.0998
  591MOL0     C79691   6.913   8.417   4.693 -0.5443 -0.0861  0.7021
  591MOL0     C79692   6.943   8.560   4.689  0.7305  0.1126 -0.9036
  591MOL0     C79693   6.877   8.622   4.823 -0.1237  0.6095 -0.3203
  591MOL0     C79694   6.933   8.764   4.854  0.2872  0.6570 -0.3985
  591MOL0    Cl79695   6.907   8.876   4.725  0.0172  0.0003  0.1638
  591MOL0     C79696   6.630   7.787   4.613 -0.5562  0.4197 -0.1018
  591MOL0     C79697   6.591   7.657   4.620  0.4441  1.1390  0.5990
  591MOL0     O79698   6.726   7.348   4.394  0.6550  0.9287 -0.6005
  591MOL0     C79699   6.543   7.168   4.601 -0.1477  0.4400 -0.5331
  591MOL0     C79700   6.486   7.040   4.630  0.6583 -0.7409 -0.1081
  591MOL0     N79701   6.379   6.387   5.022 -0.0318 -0.5855  0.1865
  591MOL0     N79702   6.407   6.266   5.068 -0.6855  0.5825  0.3437
  591MOL0     C79703   7.256   6.283   4.563  0.1819 -0.7446  1.1349
  591MOL0     C79704   7.306   6.294   4.429 -1.2269 -0.5524  0.0496
  591MOL0     C79705   7.502   6.490   4.055 -0.1474 -0.7502  0.2494
  591MOL0     C79706   7.423   6.428   3.955  0.2506 -0.4890 -0.6005
  591MOL0     C79707   7.470   6.406   3.830 -0.0404 -0.2897  0.2792
  591MOL0     C79708   7.597   6.448   3.790 -0.4229 -0.3568  0.2418
  591MOL0     O79709   7.640   6.407   3.668 -0.0616 -0.4024  0.6841
  591MOL0     C79710   7.787   6.408   3.645  0.4822 -0.1198 -0.9699
  591MOL0     C79711   7.847   6.286   3.712  0.1530  0.0255  0.7738
  591MOL0     C79712   7.778   6.160   3.645  0.4584  0.0238 -0.3723
  591MOL0     C79713   7.870   6.045   3.632  0.7744 -0.0691 -0.0297
  591MOL0     C79714   7.802   5.936   3.572  0.6283 -1.0928  0.0710
  591MOL0     C79715   7.761   5.831   3.540 -0.4401  0.1099  0.8222
  591MOL0     C79716   7.676   6.503   3.885 -0.4981  0.6389  0.2649
  591MOL0     C79717   7.628   6.529   4.009 -0.8687 -0.5306  0.7587
  591MOL0     H79718   7.296   6.633   4.386  0.3476 -1.6122 -1.2453
  591MOL0     H79719   7.217   6.629   4.616 -1.2676  0.1781 -0.5495
  591MOL0     H79720   7.229   6.187   4.839  1.2193 -0.0383  0.2970
  591MOL0     H79721   7.378   6.284   4.832 -0.4258 -0.7853  0.9727
  591MOL0     H79722   7.295   6.277   5.060  1.3512  3.0347  1.3287
  591MOL0     H79723   7.261   6.444   5.015 -0.9703  0.6701  0.5342
  591MOL0     H79724   7.021   6.382   4.983  1.8288  1.9727 -1.7960
  591MOL0     H79725   7.058   6.209   4.974 -2.0616  0.1228  0.3031
  591MOL0     H79726   7.111   6.192   5.207 -3.1715 -0.2499  0.4662
  591MOL0     H79727   7.112   6.372   5.219 -1.7872  2.1799 -1.4818
  591MOL0     H79728   6.921   6.232   5.307 -0.1978 -0.7386 -1.4291
  591MOL0     H79729   6.868   6.373   5.202 -0.3608 -0.0467 -1.6472
  591MOL0     H79730   6.839   6.200   5.018 -0.9165 -0.1853 -0.1122
  591MOL0     H79731   6.908   6.082   5.132 -0.9061 -0.1464  0.5920
  591MOL0     H79732   6.719   6.108   5.264  2.7026  0.1276 -0.1818
  591MOL0     H79733   6.689   6.274   5.214  2.5614  0.5247  1.6026
  591MOL0     H79734   6.545   6.048   5.166  3.2527  1.2771  1.8953
  591MOL0     H79735   6.651   6.041   5.022  1.9132 -0.4855  0.8414
  591MOL0     H79736   6.647   6.288   4.861 -1.8395 -1.8393 -2.8018
  591MOL0     H79737   6.534   6.603   4.866 -0.9968 -0.4703  2.0912
  591MOL0     H79738   6.517   6.500   4.736 -0.6427  0.8402 -0.1949
  591MOL0     H79739   6.310   6.650   4.907  0.0958  1.1000  0.1616
  591MOL0     H79740   6.242   6.513   4.845  0.5329 -1.1055  1.4647
  591MOL0     H79741   6.204   6.659   4.645  0.7464  3.3785 -1.7570
  591MOL0     H79742   6.355   6.587   4.591 -2.7421 -0.1213 -0.4509
  591MOL0     H79743   6.468   6.790   4.727 -0.0715 -2.4578 -1.2022
  591MOL0     H79744   6.308   6.856   4.746 -0.3897 -2.3298  2.3376
  591MOL0     H79745   6.427   6.949   4.316 -1.5065  0.9376 -0.4615
  591MOL0     H79746   6.484   7.277   4.228 -4.0553 -0.9511 -0.8921
  591MOL0     H79747   6.616   7.164   4.175 -1.8963 -0.3960 -4.2489
  591MOL0     H79748   6.451   7.116   4.159  0.3916 -1.5487  1.8665
  591MOL0     H79749   6.695   7.567   4.304 -0.9332 -2.4544  0.9941
  591MOL0     H79750   6.787   7.782   4.300 -3.1020 -3.1919 -3.2964
  591MOL0     H79751   6.809   8.040   4.354 -1.5976  2.0973 -2.7512
  591MOL0     H79752   6.649   8.075   4.411  2.1144  2.0721 -1.4899
  591MOL0     H79753   6.908   8.199   4.523  0.1232  2.3603  1.1511
  591MOL0     H79754   6.793   8.286   4.434  1.9322 -0.6166 -0.7093
  591MOL0     H79755   6.783   8.167   4.710 -0.5517  0.5650  2.0105
  591MOL0     H79756   6.633   8.214   4.635  0.4170 -0.2754  1.1152
  591MOL0     H79757   6.711   8.447   4.611 -1.4119  1.2963  1.8765
  591MOL0     H79758   6.701   8.405   4.774  1.8993  0.1289  1.2445
  591MOL0     H79759   6.978   8.377   4.615 -0.4027  3.0608 -0.9500
  591MOL0     H79760   6.951   8.373   4.786  2.3439  1.4194  0.3418
  591MOL0     H79761   7.052   8.572   4.696  0.8035 -0.2018 -1.4581
  591MOL0     H79762   6.905   8.610   4.599  0.1494  0.1887 -0.6191
  591MOL0     H79763   6.889   8.563   4.915  1.1875  0.1245 -0.7846
  591MOL0     H79764   6.768   8.626   4.816 -0.4355  3.6441  3.1585
  591MOL0     H79765   7.038   8.773   4.882 -0.2206  1.2988  1.4630
  591MOL0     H79766   6.870   8.801   4.935 -0.2447 -1.5694  0.2616
  591MOL0     H79767   6.608   7.840   4.705  0.8494  0.7145  0.0792
  591MOL0     H79768   6.528   7.616   4.698 -1.4077  2.2125 -0.2617
  591MOL0     H79769   6.576   7.233   4.681  1.1021  2.1615 -2.3359
  591MOL0     H79770   6.487   7.013   4.735  1.3629  1.8273  0.6167
  591MOL0     H79771   7.252   6.189   4.617  1.0056 -1.6772 -0.3583
  591MOL0     H79772   7.352   6.215   4.371  0.9161  1.4849 -1.1963
  591MOL0     H79773   7.325   6.386   3.975  0.9908 -1.2823  1.7005
  591MOL0     H79774   7.404   6.362   3.757  0.3481  1.3861 -1.1366
  591MOL0     H79775   7.803   6.404   3.537 -2.9893 -3.7025 -1.5836
  591MOL0     H79776   7.847   6.492   3.683  0.0243 -1.8614  4.4410
  591MOL0     H79777   7.838   6.277   3.820  1.4070 -2.5329  0.7338
  591MOL0     H79778   7.956   6.282   3.712  0.3017  2.2351  2.7010
  591MOL0     H79779   7.731   6.182   3.549  1.3604  0.0619 -0.8199
  591MOL0     H79780   7.706   6.137   3.724  1.0647 -1.5442 -0.2594
  591MOL0     H79781   7.887   6.017   3.736  1.4025  1.3946  0.2871
  591MOL0     H79782   7.960   6.080   3.581  0.7731 -0.4730 -0.3103
  591MOL0     H79783   7.732   5.734   3.506 -0.1392 -0.5611  2.4188
  591MOL0     H79784   7.779   6.529   3.864  0.2707 -2.9694 -1.0978
  591MOL0     H79785   7.701   6.573   4.077  0.8839 -1.8130 -0.2139
  592MOL0     O79786   5.038   3.295   3.278 -0.3160  0.4131 -1.0028
  592MOL0     C79787   5.127   3.221   3.323 -0.8323  1.0244 -0.1596
  592MOL0     O79788   5.115   3.104   3.391  0.4923  0.5642 -0.4679
  592MOL0     C79789   4.986   3.064   3.399 -1.0730  0.5419 -0.6946
  592MOL0     C79790   4.921   2.997   3.301 -0.4240  0.2197  0.3001
  592MOL0     C79791   4.791   2.937   3.310 -0.3126  0.4439 -0.9663
  592MOL0     C79792   4.732   2.937   3.438 -0.5724  0.4002  0.3776
  592MOL0     O79793   4.603   2.885   3.460 -0.2349 -0.0805  0.0040
  592MOL0     C79794   4.561   2.765   3.391 -0.4953 -0.5690 -0.3425
  592MOL0     C79795   4.423   2.739   3.449 -0.8720  1.0340 -0.5621
  592MOL0     C79796   4.408   2.731   3.607 -0.9355  0.0809  0.2736
  592MOL0     C79797   4.262   2.768   3.650  0.1757  0.3447 -0.0757
  592MOL0     C79798   4.165   2.672   3.597 -0.1163  0.7363 -0.5048
  592MOL0     C79799   4.015   2.687   3.629  0.1940 -0.1223 -0.6540
  592MOL0     C79800   3.936   2.562   3.620  0.1821  0.9418 -0.0243
  592MOL0     C79801   3.793   2.588   3.679  0.0695  0.4577  0.2024
  592MOL0     N79802   3.699   2.472   3.670 -0.1061 -0.5067  0.0811
  592MOL0     C79803   3.735   2.347   3.705  0.3883  0.6751  0.3737
  592MOL0     C79804   3.630   2.265   3.671 -0.3203  0.4019 -0.9738
  592MOL0     C79805   3.635   2.119   3.693 -0.2594 -0.8711 -0.7347
  592MOL0     C79806   3.669   2.070   3.842  0.4605  0.1160  0.4711
  592MOL0     C79807   3.655   1.929   3.849  0.6193  0.4028  0.8742
  592MOL0     C79808   3.690   1.884   4.000  0.8579  0.2755  0.5204
  592MOL0     O79809   3.831   1.886   4.007  0.4259  0.0968  0.1011
  592MOL0     C79810   3.881   1.895   4.131 -0.4719 -0.0176  0.4994
  592MOL0     C79811   3.835   1.820   4.243 -0.8885  0.1307 -0.6196
  592MOL0     C79812   3.897   1.856   4.366 -0.8590  0.3764  0.3758
  592MOL0     C79813   3.825   1.787   4.480 -0.1112 -0.0629 -0.8119
  592MOL0     C79814   4.013   1.929   4.378  1.1626 -0.6633  0.2135
  592MOL0     C79815   4.079   1.950   4.508 -0.6718 -0.7701 -0.3301
  592MOL0     O79816   4.044   1.872   4.611 -0.7605 -0.2294  0.0238
  592MOL0     C79817   4.075   1.913   4.739  0.0152 -0.2811  0.6088
  592MOL0     C79818   4.202   1.900   4.808 -0.5103  0.2726  0.6618
  592MOL0     C79819   4.213   1.929   4.939  0.9012  0.6408 -0.0853
  592MOL0     C79820   4.097   1.966   5.006 -0.0592 -0.4874  0.1551
  592MOL0     O79821   4.118   1.978   5.141 -0.2044  0.1518  0.5329
  592MOL0     C79822   4.008   1.996   5.230  0.0840 -0.3340  0.0821
  592MOL0     C79823   4.055   2.014   5.373  0.3236  0.0018  0.5316
  592MOL0     C79824   3.960   1.971   5.490 -0.3362  0.2430 -0.9624
  592MOL0     C79825   4.009   2.022   5.617 -0.1984  0.8144  0.4455
  592MOL0     C79826   3.900   2.043   5.727 -1.5168  0.3575  0.5685
  592MOL0     C79827   3.827   1.917   5.778  0.0431 -0.4435  0.9008
  592MOL0     C79828   3.713   1.950   5.871  0.6884  0.3775  0.3179
  592MOL0     C79829   3.602   2.039   5.806  0.2473  1.0991  0.0989
  592MOL0    Cl79830   3.468   2.049   5.923 -0.2118 -0.0239  0.3911
  592MOL0     C79831   3.978   1.992   4.940  0.5918 -0.5697 -0.4804
  592MOL0     C79832   3.960   1.952   4.811 -0.5284  0.0917  0.2158
  592MOL0     O79833   4.171   2.033   4.516  0.1596 -0.1809 -0.2969
  592MOL0     C79834   4.059   1.997   4.263 -0.0587  0.4949 -0.2027
  592MOL0     C79835   3.997   1.977   4.140  0.2946 -0.9390  0.4036
  592MOL0     N79836   3.538   2.349   3.622  0.3395 -0.2546  0.1929
  592MOL0     N79837   3.580   2.475   3.617 -0.0439  0.9687 -0.1469
  592MOL0     C79838   4.801   2.992   3.540 -1.2836  0.6750 -0.9533
  592MOL0     C79839   4.923   3.052   3.525  0.0273  0.6487  0.1492
  592MOL0     C79840   5.279   3.258   3.286 -0.2757  0.4749 -0.2614
  592MOL0     C79841   5.307   3.356   3.195  0.1109 -0.7468 -0.4086
  592MOL0     C79842   5.437   3.398   3.167 -1.1325 -1.1065  0.8313
  592MOL0     C79843   5.554   3.343   3.226  0.6112  0.2858  0.2529
  592MOL0     O79844   5.679   3.392   3.189 -0.0243 -0.1205  0.1317
  592MOL0     C79845   5.797   3.336   3.259 -0.9940 -0.4582  0.5260
  592MOL0     C79846   5.932   3.397   3.207  0.1458  0.1235  0.5503
  592MOL0     C79847   5.972   3.343   3.069 -0.0268  0.0926 -0.8439
  592MOL0     C79848   6.095   3.405   3.009  0.0226  0.2576 -0.2840
  592MOL0     C79849   6.058   3.543   2.973 -0.0481 -0.8185 -1.1772
  592MOL0     C79850   6.041   3.650   2.929 -0.2853 -0.1998  0.0216
  592MOL0     C79851   5.526   3.232   3.314 -0.2583 -1.0500  0.6337
  592MOL0     C79852   5.394   3.191   3.341  1.3587 -1.0413  0.1069
  592MOL0     H79853   4.956   2.996   3.198 -0.8436 -3.6612  0.0338
  592MOL0     H79854   4.737   2.892   3.227 -2.1113 -0.7318  0.7488
  592MOL0     H79855   4.554   2.784   3.284 -2.6887 -0.4597 -0.2457
  592MOL0     H79856   4.636   2.687   3.402  3.0127  2.5244 -0.2051
  592MOL0     H79857   4.362   2.822   3.412 -0.0496  1.7061 -0.4513
  592MOL0     H79858   4.392   2.646   3.402  0.7848  0.3442 -0.3515
  592MOL0     H79859   4.435   2.630   3.639  0.2248 -0.4323 -2.0919
  592MOL0     H79860   4.479   2.798   3.657 -1.3681 -0.0983  1.1618
  592MOL0     H79861   4.261   2.770   3.760 -1.5942 -1.2481 -0.0275
  592MOL0     H79862   4.238   2.868   3.614  2.4905  1.3733  1.0112
  592MOL0     H79863   4.177   2.669   3.489 -3.2056 -0.6002 -0.9231
  592MOL0     H79864   4.198   2.570   3.621  1.8759  1.4618  0.0150
  592MOL0     H79865   4.001   2.715   3.734 -2.2075  0.7303 -1.1342
  592MOL0     H79866   3.973   2.775   3.579  1.0257  1.9490  2.0540
  592MOL0     H79867   3.907   2.534   3.518  1.3916 -2.7174  0.4885
  592MOL0     H79868   3.993   2.481   3.665  1.9717  0.9731 -2.0355
  592MOL0     H79869   3.753   2.671   3.619  0.0364  1.5390  1.6814
  592MOL0     H79870   3.805   2.617   3.784  0.0078  0.9613  0.0759
  592MOL0     H79871   3.836   2.324   3.737  0.2579  0.3410  0.5478
  592MOL0     H79872   3.541   2.079   3.653  0.9871 -1.0981 -3.6855
  592MOL0     H79873   3.715   2.078   3.630 -0.1444 -1.3773 -0.2681
  592MOL0     H79874   3.597   2.114   3.911 -0.6384  1.8649 -1.6661
  592MOL0     H79875   3.763   2.109   3.883  0.0717  2.5759 -0.7635
  592MOL0     H79876   3.702   1.873   3.768  0.6210  1.8010 -0.1340
  592MOL0     H79877   3.553   1.892   3.836  0.6304 -0.4804  2.8990
  592MOL0     H79878   3.652   1.783   4.020 -2.7848  0.7810 -2.6555
  592MOL0     H79879   3.645   1.956   4.069 -2.0329 -2.3289  1.5754
  592MOL0     H79880   3.741   1.768   4.252 -0.4404 -0.2884  3.0455
  592MOL0     H79881   3.805   1.855   4.564  0.3556  0.6817 -1.2855
  592MOL0     H79882   3.737   1.729   4.451 -0.6484  0.2970  0.0736
  592MOL0     H79883   3.889   1.706   4.515 -0.4659  0.2059  0.5026
  592MOL0     H79884   4.287   1.869   4.748 -0.7545 -0.6884  0.7850
  592MOL0     H79885   4.297   1.906   5.003 -1.4422 -1.7123  2.4275
  592MOL0     H79886   3.954   2.086   5.200  1.3084 -0.0680 -1.4296
  592MOL0     H79887   3.945   1.909   5.211  1.3169 -1.3854  0.6543
  592MOL0     H79888   4.146   1.955   5.390 -0.3679 -0.3572  3.6094
  592MOL0     H79889   4.070   2.122   5.370 -0.7122  0.1518  0.3570
  592MOL0     H79890   3.951   1.862   5.496  0.9179  0.2204  1.4998
  592MOL0     H79891   3.859   2.009   5.479 -1.7777 -2.5131  1.4174
  592MOL0     H79892   4.095   1.960   5.642 -0.6484  1.2011  3.2541
  592MOL0     H79893   4.061   2.118   5.608  1.8388 -0.3370 -0.8524
  592MOL0     H79894   3.835   2.124   5.693 -0.9234  0.2096 -0.9690
  592MOL0     H79895   3.949   2.086   5.815  1.6371 -1.6809 -0.0113
  592MOL0     H79896   3.776   1.873   5.692 -2.1417 -3.0628  3.3218
  592MOL0     H79897   3.902   1.852   5.824  0.8279  0.6242  1.1592
  592MOL0     H79898   3.757   2.007   5.954  1.0093 -2.5385  2.3016
  592MOL0     H79899   3.666   1.862   5.916 -0.0262  0.6426  0.1051
  592MOL0     H79900   3.579   2.002   5.706 -0.9537 -4.5630  2.1434
  592MOL0     H79901   3.658   2.134   5.803  0.5344  0.9643  0.9242
  592MOL0     H79902   3.887   2.025   4.990 -0.0223  0.6665 -2.2942
  592MOL0     H79903   3.862   1.952   4.764  0.1125  1.2092 -1.1965
  592MOL0     H79904   4.140   2.069   4.264 -0.2383  0.6994  0.2394
  592MOL0     H79905   4.019   2.037   4.052  0.0346 -0.1177  0.8864
  592MOL0     H79906   4.762   2.988   3.641  0.4853  2.8462 -0.1180
  592MOL0     H79907   4.982   3.085   3.610 -3.8469  1.3117  2.8045
  592MOL0     H79908   5.226   3.405   3.141  1.1230 -2.1215 -3.3433
  592MOL0     H79909   5.451   3.483   3.101  5.4373 -0.4761  2.4069
  592MOL0     H79910   5.788   3.369   3.363  1.3453 -1.4594  1.1076
  592MOL0     H79911   5.807   3.228   3.249  0.4951 -0.2735 -0.3733
  592MOL0     H79912   6.013   3.361   3.271  1.1984 -2.6380 -2.0852
  592MOL0     H79913   5.935   3.506   3.202  0.7152  0.0587 -0.9859
  592MOL0     H79914   5.890   3.356   2.998 -0.2108  1.7085 -0.3653
  592MOL0     H79915   5.978   3.234   3.073  0.6143  0.1498  0.0585
  592MOL0     H79916   6.120   3.368   2.909 -0.4646  4.3978 -2.1489
  592MOL0     H79917   6.178   3.384   3.076 -0.3643 -4.4543 -0.9814
  592MOL0     H79918   6.013   3.744   2.885 -1.5937 -0.1429  0.9183
  592MOL0     H79919   5.610   3.190   3.368  0.3658  1.6998  1.9825
  592MOL0     H79920   5.387   3.107   3.409  1.8567  0.6568  2.3833
  593MOL0     O79921   8.587   0.472  10.112  0.2673 -0.2677  0.3473
  593MOL0     C79922   8.588   0.420  10.007 -0.1465 -0.3146 -1.2360
  593MOL0     O79923   8.691   0.357   9.960  0.1328  1.1176 -0.9219
  593MOL0     C79924   8.805   0.333  10.028  0.0293  0.3469 -0.5724
  593MOL0     C79925   8.805   0.275  10.153 -0.4539  0.2186 -0.2486
  593MOL0     C79926   8.916   0.225  10.213 -0.5448  0.2957 -0.1060
  593MOL0     C79927   9.040   0.229  10.151  0.9465  0.2489  0.9198
  593MOL0     O79928   9.162   0.195  10.217  0.3086  0.1082  1.2361
  593MOL0     C79929   9.164   0.083  10.302 -0.0677  0.2957  0.0419
  593MOL0     C79930   9.305   0.044  10.347 -0.0900 -0.3053  0.1350
  593MOL0     C79931   9.310  -0.092  10.414  0.0180  0.6152  0.3976
  593MOL0     C79932   9.336  -0.205  10.320  0.1175  0.2703  0.3006
  593MOL0     C79933   9.356  -0.343  10.391  0.1524 -0.3704  0.3025
  593MOL0     C79934   9.303  -0.464  10.312 -0.1780 -0.2785  0.3918
  593MOL0     C79935   9.152  -0.468  10.297  0.1769 -0.7973  0.9196
  593MOL0     C79936   9.099  -0.609  10.273  0.3072 -0.2838  0.1626
  593MOL0     N79937   9.142  -0.681  10.154  0.5447  0.9576 -0.2014
  593MOL0     C79938   9.211  -0.799  10.150 -0.2408  0.1236 -0.6703
  593MOL0     C79939   9.252  -0.815  10.023  0.3139  0.7328  0.4521
  593MOL0     C79940   9.317  -0.938   9.962  0.1243  0.3715 -0.6974
  593MOL0     C79941   9.235  -1.061   9.954  0.7237  0.4811  0.0885
  593MOL0     C79942   9.312  -1.187   9.878  0.8251  0.5503  0.2110
  593MOL0     C79943   9.261  -1.337   9.906 -0.6330 -0.2340 -0.2744
  593MOL0     O79944   9.214  -1.399   9.787 -0.1018 -0.2648  0.2967
  593MOL0     C79945   9.188  -1.536   9.788 -0.8465  0.5927  0.5523
  593MOL0     C79946   9.284  -1.631   9.835  0.4410 -0.0976 -0.2147
  593MOL0     C79947   9.248  -1.772   9.831 -0.0403  0.4483 -0.9554
  593MOL0     C79948   9.359  -1.862   9.891 -0.5038 -0.0453  0.4868
  593MOL0     C79949   9.134  -1.822   9.775 -0.1283  0.5806  0.1135
  593MOL0     C79950   9.110  -1.965   9.754 -0.2170 -0.6635  0.0862
  593MOL0     O79951   9.197  -2.030   9.664  0.1836 -0.3413 -0.3079
  593MOL0     C79952   9.192  -2.161   9.629 -0.4034  0.5599  0.4915
  593MOL0     C79953   9.090  -2.259   9.643  0.1069  0.3551 -0.4767
  593MOL0     C79954   9.095  -2.399   9.624  0.1454 -0.4697  0.4907
  593MOL0     C79955   9.208  -2.452   9.569 -0.3257  0.0473  0.4617
  593MOL0     O79956   9.224  -2.589   9.535  0.6215 -0.3598 -0.5318
  593MOL0     C79957   9.109  -2.677   9.555 -0.1092 -0.1707  0.5266
  593MOL0     C79958   9.158  -2.811   9.507 -0.0616  0.0936 -0.3917
  593MOL0     C79959   9.038  -2.911   9.510  0.1455  0.8196  0.4645
  593MOL0     C79960   8.960  -2.907   9.378  0.0962 -0.6686  0.1673
  593MOL0     C79961   8.855  -3.011   9.382  0.3236  0.3847 -0.3722
  593MOL0     C79962   8.774  -3.028   9.256 -0.8716 -0.4547 -0.4464
  593MOL0     C79963   8.711  -2.906   9.199  0.4275 -0.4925 -0.5291
  593MOL0     C79964   8.655  -2.933   9.059 -0.8902 -0.8469  0.2160
  593MOL0    Cl79965   8.795  -2.903   8.956 -0.2586  0.3462  0.1129
  593MOL0     C79966   9.319  -2.363   9.549  0.0372 -1.5444  0.5411
  593MOL0     C79967   9.313  -2.221   9.581 -0.3052  0.5776 -0.0816
  593MOL0     O79968   9.016  -2.012   9.820 -0.0751 -0.1460 -0.7537
  593MOL0     C79969   9.041  -1.724   9.732  0.2521 -0.4841  0.2904
  593MOL0     C79970   9.069  -1.585   9.735 -0.7310  0.5167 -0.5636
  593MOL0     N79971   9.229  -0.694   9.957  0.0780 -0.6677 -0.4164
  593MOL0     N79972   9.173  -0.616  10.037 -0.7065  0.2131  0.1703
  593MOL0     C79973   9.043   0.297  10.034 -0.5040  0.6662 -0.9904
  593MOL0     C79974   8.932   0.341   9.961 -0.8074  0.9239  0.5534
  593MOL0     C79975   8.466   0.418   9.913 -0.5265  0.2571  0.4973
  593MOL0     C79976   8.336   0.466   9.961 -0.2018  0.4913 -0.4896
  593MOL0     C79977   8.226   0.456   9.874 -0.1544 -1.9749  0.1975
  593MOL0     C79978   8.252   0.412   9.745 -0.3577  0.1746 -0.1710
  593MOL0     O79979   8.137   0.402   9.679  0.0558  0.2698 -0.0815
  593MOL0     C79980   8.150   0.347   9.544 -0.6318  0.0604 -0.0813
  593MOL0     C79981   8.008   0.332   9.491 -0.1445 -0.6796 -0.3502
  593MOL0     C79982   8.009   0.319   9.344 -0.5868 -0.9016  0.0230
  593MOL0     C79983   7.993   0.176   9.295  1.1733  0.3252  0.2939
  593MOL0     C79984   7.857   0.121   9.306 -0.1456  0.3647  0.0602
  593MOL0     C79985   7.743   0.083   9.324  0.5205  0.7322 -0.8169
  593MOL0     C79986   8.378   0.352   9.705  0.1352  0.3034 -0.7366
  593MOL0     C79987   8.482   0.358   9.789 -0.0463 -0.1983  0.1704
  593MOL0     H79988   8.710   0.259  10.204 -0.0925  0.4762  0.5120
  593MOL0     H79989   8.906   0.196  10.317  1.8489 -0.1591  0.0701
  593MOL0     H79990   9.107   0.107  10.392  1.6038  4.0800  0.3272
  593MOL0     H79991   9.131  -0.009  10.254  1.1568  0.1866 -0.6419
  593MOL0     H79992   9.367   0.049  10.257  1.0167 -4.4723  0.4765
  593MOL0     H79993   9.320   0.127  10.416  1.1427 -0.0330 -0.4294
  593MOL0     H79994   9.391  -0.089  10.487  0.1425  2.4375  0.2395
  593MOL0     H79995   9.223  -0.107  10.478 -0.8393 -1.4831 -1.1524
  593MOL0     H79996   9.249  -0.212  10.254  0.7830  0.7583 -0.6427
  593MOL0     H79997   9.419  -0.185  10.251  0.1616 -0.5324  0.1008
  593MOL0     H79998   9.463  -0.347  10.412  0.4463  1.9704 -0.4565
  593MOL0     H79999   9.293  -0.334  10.481  0.3254  1.1812  0.2976
  593MOL0     H80000   9.352  -0.473  10.215 -1.2944 -2.2467 -0.0642
  593MOL0     H80001   9.318  -0.552  10.376 -3.9042 -3.4572 -2.5370
  593MOL0     H80002   9.100  -0.417  10.378 -1.1891 -1.9331  0.7783
  593MOL0     H80003   9.120  -0.405  10.214  3.6544 -1.5076 -1.2051
  593MOL0     H80004   8.990  -0.614  10.274  0.2981 -1.0085  2.4399
  593MOL0     H80005   9.113  -0.670  10.363  1.5509  1.6217  1.3463
  593MOL0     H80006   9.222  -0.870  10.232 -1.8970 -0.5772 -1.0119
  593MOL0     H80007   9.363  -0.913   9.867  0.8777  0.9674 -0.1857
  593MOL0     H80008   9.395  -0.949  10.038  0.6104  0.5014 -1.1722
  593MOL0     H80009   9.156  -1.030   9.886 -0.1153  0.5330  1.0660
  593MOL0     H80010   9.177  -1.080  10.045 -1.7535  5.0664 -0.2587
  593MOL0     H80011   9.421  -1.176   9.886  0.7746  0.2918  1.3227
  593MOL0     H80012   9.288  -1.161   9.774  3.8039  1.1963 -0.4073
  593MOL0     H80013   9.195  -1.324   9.992  1.2033 -1.2161  1.3652
  593MOL0     H80014   9.337  -1.401   9.951 -0.5734  0.8352  1.2261
  593MOL0     H80015   9.378  -1.602   9.879  1.1545 -0.5974 -1.3391
  593MOL0     H80016   9.318  -1.919   9.974 -3.7913  1.4866  0.0765
  593MOL0     H80017   9.391  -1.930   9.811 -1.2920  1.8705 -1.5848
  593MOL0     H80018   9.452  -1.808   9.906 -0.6454  0.5351 -0.6222
  593MOL0     H80019   9.000  -2.218   9.686  0.4480  2.3542 -1.5452
  593MOL0     H80020   9.016  -2.467   9.656  0.2122  0.7023  3.4573
  593MOL0     H80021   9.081  -2.697   9.659  0.3557  0.5607  0.8004
  593MOL0     H80022   9.026  -2.632   9.500  3.7029  1.9671 -4.1716
  593MOL0     H80023   9.214  -2.824   9.413 -0.3966 -1.1653 -0.4351
  593MOL0     H80024   9.231  -2.856   9.574  0.1215  1.7071  0.5361
  593MOL0     H80025   8.980  -2.899   9.602 -1.3228  0.7345 -0.4235
  593MOL0     H80026   9.088  -3.008   9.507 -1.4100 -0.0471  1.1666
  593MOL0     H80027   8.919  -2.806   9.366  0.8936 -0.3992 -0.4113
  593MOL0     H80028   9.026  -2.940   9.297  1.2937  0.2632  0.7146
  593MOL0     H80029   8.785  -2.993   9.464  0.5059 -2.5424  0.5451
  593MOL0     H80030   8.898  -3.109   9.406 -0.9747  0.5136  3.0590
  593MOL0     H80031   8.852  -3.068   9.191  2.1319  1.2763  1.8044
  593MOL0     H80032   8.695  -3.099   9.282 -3.3167  2.8014  1.7817
  593MOL0     H80033   8.776  -2.818   9.193 -0.9715  0.4969 -2.3444
  593MOL0     H80034   8.629  -2.885   9.268 -0.6875  0.3009 -2.0321
  593MOL0     H80035   8.571  -2.869   9.032 -0.0533  0.2872  0.2198
  593MOL0     H80036   8.626  -3.038   9.058 -0.9252 -0.8745  1.8643
  593MOL0     H80037   9.404  -2.412   9.504 -2.5567 -5.1458 -0.9247
  593MOL0     H80038   9.399  -2.158   9.563 -0.2183  0.6371  0.5199
  593MOL0     H80039   8.947  -1.765   9.697  0.7656 -3.9023  2.3936
  593MOL0     H80040   9.011  -1.498   9.705  0.6195  2.4088  1.9568
  593MOL0     H80041   9.135   0.306   9.977 -0.5154  2.5102 -0.7843
  593MOL0     H80042   8.932   0.386   9.862 -3.3700 -2.5463 -1.2370
  593MOL0     H80043   8.327   0.510  10.059 -0.2927 -0.9866  0.1920
  593MOL0     H80044   8.131   0.503   9.896 -1.4113 -3.1084 -2.3965
  593MOL0     H80045   8.206   0.418   9.482 -1.5322  0.0316 -0.9446
  593MOL0     H80046   8.185   0.244   9.542 -3.3410 -0.9298 -1.6197
  593MOL0     H80047   7.952   0.422   9.520 -0.4646 -1.3224  1.1051
  593MOL0     H80048   7.956   0.242   9.523  0.2520 -1.4847 -1.8699
  593MOL0     H80049   8.109   0.343   9.307 -1.1055 -1.7306 -2.0763
  593MOL0     H80050   7.939   0.393   9.303 -0.0221  0.7322  1.8595
  593MOL0     H80051   8.066   0.112   9.345  1.0657  1.4511  1.9981
  593MOL0     H80052   8.015   0.179   9.188 -0.0068 -0.3863  0.0197
  593MOL0     H80053   7.648   0.038   9.343  0.5626  1.5332  1.7749
  593MOL0     H80054   8.405   0.293   9.618 -0.8321  0.0546 -0.8804
  593MOL0     H80055   8.578   0.318   9.760  0.5246 -1.0018  2.9251
  594MOL0     O80056  11.470  10.458   4.564  0.5956 -0.4728 -0.8454
  594MOL0     C80057  11.388  10.371   4.587  0.5221 -0.1210 -0.2510
  594MOL0     O80058  11.328  10.343   4.711  0.6698 -0.9566  0.6450
  594MOL0     C80059  11.349  10.421   4.825  0.9567 -0.4717 -0.2969
  594MOL0     C80060  11.458  10.501   4.850 -0.7589  0.1739  0.2485
  594MOL0     C80061  11.480  10.558   4.977 -0.0856 -0.0905 -0.6694
  594MOL0     C80062  11.383  10.540   5.077  0.7117  1.3773  0.3641
  594MOL0     O80063  11.411  10.582   5.204 -0.9185  0.1031 -0.1640
  594MOL0     C80064  11.510  10.505   5.279  0.6145  1.1805  0.6258
  594MOL0     C80065  11.657  10.558   5.273  0.4250  0.5019 -0.1207
  594MOL0     C80066  11.752  10.480   5.368 -0.3764 -1.5585 -0.3962
  594MOL0     C80067  11.875  10.575   5.385 -0.8458 -0.1066 -0.0101
  594MOL0     C80068  11.970  10.539   5.269  0.3437  0.5081  0.2364
  594MOL0     C80069  12.098  10.614   5.276  0.0177 -0.7892 -0.1272
  594MOL0     C80070  12.212  10.578   5.188 -0.7102  0.2217  0.5340
  594MOL0     C80071  12.189  10.593   5.041  0.1904  0.2074 -0.4887
  594MOL0     N80072  12.281  10.525   4.950 -0.2009  0.5945 -0.1957
  594MOL0     C80073  12.283  10.540   4.819 -0.4316  0.3142  1.0555
  594MOL0     C80074  12.384  10.458   4.775 -0.1087  0.2206  0.8512
  594MOL0     C80075  12.432  10.467   4.629  0.0133 -0.5321  0.4641
  594MOL0     C80076  12.404  10.337   4.553  0.0346 -0.4046  0.1614
  594MOL0     C80077  12.252  10.312   4.520 -0.2036 -0.4207 -0.1290
  594MOL0     C80078  12.172  10.434   4.472  0.1780  0.0566  0.6905
  594MOL0     O80079  12.048  10.390   4.442  0.1477 -0.3181 -0.2680
  594MOL0     C80080  12.015  10.353   4.315 -0.4671  0.0859  1.0535
  594MOL0     C80081  12.100  10.324   4.205 -1.0664  0.6315  0.1398
  594MOL0     C80082  12.051  10.264   4.085  0.8126  0.0205  0.7043
  594MOL0     C80083  12.143  10.244   3.960 -0.6737  0.7682 -0.3647
  594MOL0     C80084  11.908  10.237   4.084 -0.6790  0.6060  0.0249
  594MOL0     C80085  11.839  10.148   3.982 -0.5663 -0.7174 -0.4273
  594MOL0     O80086  11.698  10.161   3.981  0.3565  0.1060 -0.8273
  594MOL0     C80087  11.622  10.085   3.899  0.5627  0.2850  0.5082
  594MOL0     C80088  11.649   9.972   3.821 -0.1138  0.7547  0.9494
  594MOL0     C80089  11.554   9.906   3.748 -0.6399 -0.0513 -0.4551
  594MOL0     C80090  11.417   9.940   3.762 -0.6167  0.0972  0.5097
  594MOL0     O80091  11.305   9.877   3.717  0.7624 -0.2377  0.5098
  594MOL0     C80092  11.313   9.798   3.591  0.3249  0.2702 -0.1269
  594MOL0     C80093  11.349   9.891   3.469  0.1322 -0.6422  0.0192
  594MOL0     C80094  11.358   9.815   3.329 -0.0749 -0.3700  1.2043
  594MOL0     C80095  11.406   9.903   3.210  0.6418 -0.3959  0.5903
  594MOL0     C80096  11.436   9.813   3.100 -0.7766 -0.1466  1.3568
  594MOL0     C80097  11.310   9.744   3.031  0.6676 -0.7919 -0.5367
  594MOL0     C80098  11.361   9.653   2.932  1.1217  0.3476  0.0407
  594MOL0     C80099  11.255   9.563   2.878  0.4637  0.9548  0.0344
  594MOL0    Cl80100  11.154   9.631   2.751 -0.2664 -0.3500  0.2900
  594MOL0     C80101  11.381  10.046   3.842  0.2363 -0.2269 -0.4609
  594MOL0     C80102  11.486  10.108   3.910 -0.2782 -0.4193 -0.1569
  594MOL0     O80103  11.905  10.087   3.893  0.4216  0.8344 -0.8315
  594MOL0     C80104  11.832  10.296   4.179 -1.0933 -0.3083 -0.0054
  594MOL0     C80105  11.888  10.343   4.286  0.0996 -0.4945 -0.7225
  594MOL0     N80106  12.444  10.394   4.882 -0.3904  0.3079  0.3333
  594MOL0     N80107  12.388  10.446   4.988  0.3600  0.3691  0.3060
  594MOL0     C80108  11.265  10.462   5.050  0.9430  0.7446  0.3512
  594MOL0     C80109  11.251  10.403   4.930 -0.4966 -0.4513  0.7331
  594MOL0     C80110  11.327  10.282   4.480 -0.4959  0.8516  0.8511
  594MOL0     C80111  11.207  10.215   4.498 -0.7119 -0.2986 -0.1401
  594MOL0     C80112  11.152  10.116   4.415 -1.1978  0.4788 -1.0099
  594MOL0     C80113  11.226  10.079   4.303  0.0090 -0.1561 -0.5280
  594MOL0     O80114  11.208   9.976   4.219  0.3930  1.5317 -0.5345
  594MOL0     C80115  11.097   9.893   4.247 -1.3757  0.5968  0.7246
  594MOL0     C80116  11.126   9.764   4.163  0.1525 -0.5088  0.7327
  594MOL0     C80117  11.120   9.779   4.011  0.1509 -1.2449  0.1064
  594MOL0     C80118  11.103   9.646   3.940 -0.6843 -0.0595  0.4095
  594MOL0     C80119  10.969   9.589   3.947 -0.3098  0.8700 -0.8894
  594MOL0     C80120  10.854   9.565   3.976 -0.5270  0.4906 -0.9229
  594MOL0     C80121  11.330  10.159   4.267 -0.1109 -0.6392 -0.3186
  594MOL0     C80122  11.392  10.251   4.356  0.1206 -0.0161 -0.0221
  594MOL0     H80123  11.548  10.490   4.789  1.3879 -3.3578  3.5661
  594MOL0     H80124  11.573  10.605   5.007 -0.2047 -2.2080  3.7665
  594MOL0     H80125  11.485  10.509   5.385 -0.7323  2.2529  0.2928
  594MOL0     H80126  11.509  10.400   5.247  0.3978  0.1710  3.6886
  594MOL0     H80127  11.691  10.536   5.171 -2.2871 -0.0891 -0.9867
  594MOL0     H80128  11.668  10.665   5.292  0.5288  1.0877 -2.9667
  594MOL0     H80129  11.697  10.477   5.462 -0.2646 -1.0169 -0.3126
  594MOL0     H80130  11.787  10.381   5.339  3.7341 -0.4010 -0.0086
  594MOL0     H80131  11.857  10.683   5.374  1.3344  0.7300  3.0600
  594MOL0     H80132  11.921  10.566   5.485  0.9857  1.8903 -0.5965
  594MOL0     H80133  11.997  10.434   5.254 -0.8769  0.2824 -0.4762
  594MOL0     H80134  11.927  10.567   5.173  0.5663  2.4263  0.6698
  594MOL0     H80135  12.087  10.723   5.272 -2.4451 -0.9184  1.1361
  594MOL0     H80136  12.133  10.591   5.377 -1.0159  1.8575  0.9418
  594MOL0     H80137  12.296  10.636   5.227 -1.2401  1.4461 -0.0707
  594MOL0     H80138  12.238  10.473   5.200 -1.3300 -0.1298 -0.9510
  594MOL0     H80139  12.191  10.700   5.019 -0.6016  0.5861  1.0997
  594MOL0     H80140  12.093  10.548   5.017  0.2711  0.2647 -0.9151
  594MOL0     H80141  12.232  10.623   4.772  1.0498  2.6779  3.3680
  594MOL0     H80142  12.384  10.555   4.585 -1.8406 -1.2046  1.0817
  594MOL0     H80143  12.541  10.483   4.631  0.2358 -2.0046  1.4169
  594MOL0     H80144  12.437  10.262   4.625  0.4031  1.4325  2.0147
  594MOL0     H80145  12.471  10.323   4.469  0.7413  3.5926 -0.1548
  594MOL0     H80146  12.202  10.254   4.598  0.4589 -0.5239  0.2321
  594MOL0     H80147  12.249  10.243   4.435 -0.0326  0.8370 -1.1904
  594MOL0     H80148  12.227  10.475   4.388 -0.9193 -2.3714 -1.3428
  594MOL0     H80149  12.150  10.500   4.557  0.3797 -1.9727  2.4216
  594MOL0     H80150  12.208  10.327   4.214 -1.1710  3.2248  1.3486
  594MOL0     H80151  12.102  10.264   3.861  1.6087 -0.6466 -1.6575
  594MOL0     H80152  12.233  10.303   3.980 -1.8344  2.9124 -1.1648
  594MOL0     H80153  12.165  10.138   3.970  2.3033  1.3203 -0.2591
  594MOL0     H80154  11.752   9.949   3.796  0.8770  7.0806 -3.0542
  594MOL0     H80155  11.580   9.831   3.675 -0.3793 -0.4757  0.0688
  594MOL0     H80156  11.382   9.714   3.602 -2.4785 -2.3165 -0.9294
  594MOL0     H80157  11.215   9.754   3.571  1.6015 -2.9610  0.0336
  594MOL0     H80158  11.264   9.960   3.465  0.3547 -0.4240 -1.5520
  594MOL0     H80159  11.440   9.948   3.492  0.6223 -0.6440 -1.7196
  594MOL0     H80160  11.265   9.766   3.299 -0.6235  1.8668 -1.0521
  594MOL0     H80161  11.429   9.735   3.351 -0.0822 -1.6454 -2.6895
  594MOL0     H80162  11.334   9.977   3.176 -0.4868 -1.0694  1.4417
  594MOL0     H80163  11.490   9.970   3.233  0.6880 -1.5690  4.5623
  594MOL0     H80164  11.505   9.739   3.141 -1.9454 -1.7117  0.6267
  594MOL0     H80165  11.489   9.884   3.037  0.0495 -0.2134  1.9694
  594MOL0     H80166  11.240   9.697   3.100  0.7995 -0.9709 -0.5228
  594MOL0     H80167  11.249   9.825   2.990  0.9843  0.6263  1.6661
  594MOL0     H80168  11.428   9.583   2.983 -0.9114 -0.9501  1.0526
  594MOL0     H80169  11.418   9.693   2.847 -0.3823  1.2943 -0.5561
  594MOL0     H80170  11.190   9.529   2.960 -1.3537  2.2724 -0.7707
  594MOL0     H80171  11.305   9.484   2.821  0.9574  1.7504 -0.6516
  594MOL0     H80172  11.276  10.061   3.867  0.6042  0.8249  0.4928
  594MOL0     H80173  11.475  10.199   3.968  0.9834  0.6471 -1.5224
  594MOL0     H80174  11.724  10.305   4.185 -0.8668  3.3082  2.1328
  594MOL0     H80175  11.819  10.356   4.369  0.5479 -3.4386  0.2544
  594MOL0     H80176  11.200  10.411   5.121  1.4370  0.3869  0.5514
  594MOL0     H80177  11.176  10.329   4.903  1.7381 -2.4207 -0.4137
  594MOL0     H80178  11.154  10.246   4.588  2.3038 -0.7428  1.9132
  594MOL0     H80179  11.058  10.068   4.439 -2.0614  2.2606 -0.6076
  594MOL0     H80180  11.092   9.877   4.355 -1.8168  1.5147  0.8451
  594MOL0     H80181  11.004   9.941   4.214  0.1931  1.1952 -3.4154
  594MOL0     H80182  11.051   9.688   4.189  2.1388 -2.8808 -0.0207
  594MOL0     H80183  11.224   9.723   4.191 -1.6458 -2.4573  5.2021
  594MOL0     H80184  11.221   9.808   3.981  0.2065 -3.1834 -1.8045
  594MOL0     H80185  11.042   9.851   3.983 -2.0311 -3.6987 -0.5537
  594MOL0     H80186  11.187   9.580   3.966  0.0211 -0.1936 -1.9431
  594MOL0     H80187  11.126   9.668   3.835  2.6608 -0.2669  0.9779
  594MOL0     H80188  10.755   9.544   4.012  0.5626 -0.0117  2.0486
  594MOL0     H80189  11.378  10.153   4.170  1.2433 -0.9911  0.3554
  594MOL0     H80190  11.488  10.297   4.336 -0.0006  0.9442  1.4890
  595MOL0     O80191   4.940  11.308   2.062  0.0600  0.1354  0.9735
  595MOL0     C80192   4.973  11.387   1.968  0.4212  0.2801  0.3225
  595MOL0     O80193   4.977  11.357   1.837  0.6355 -0.1348 -0.7651
  595MOL0     C80194   4.964  11.223   1.801  0.4513  0.1671 -1.5993
  595MOL0     C80195   4.841  11.168   1.763 -0.8798  0.0584 -0.7434
  595MOL0     C80196   4.838  11.035   1.722 -0.2930  0.0794  0.3351
  595MOL0     C80197   4.952  10.952   1.733  0.0989 -0.0328 -0.6427
  595MOL0     O80198   4.938  10.820   1.707  0.1761  0.8183  0.3044
  595MOL0     C80199   5.052  10.732   1.736 -0.8311 -1.0113  0.3594
  595MOL0     C80200   5.033  10.585   1.697  1.0253  0.2272  0.1353
  595MOL0     C80201   5.014  10.557   1.548 -0.7832 -0.5592 -0.0668
  595MOL0     C80202   5.032  10.406   1.509  0.5901 -0.3324 -0.0681
  595MOL0     C80203   5.019  10.396   1.356 -0.3563 -0.1292 -0.3428
  595MOL0     C80204   5.043  10.261   1.306 -0.1213 -0.5999 -0.7580
  595MOL0     C80205   5.193  10.239   1.274  0.4604 -0.1085  0.1717
  595MOL0     C80206   5.216  10.090   1.238 -0.1665 -0.6909 -0.2923
  595MOL0     N80207   5.348  10.046   1.217 -0.6370 -0.0654  0.6360
  595MOL0     C80208   5.452  10.071   1.300  0.0882 -0.3352 -0.2316
  595MOL0     C80209   5.556  10.010   1.254 -0.3431  1.1914 -0.5130
  595MOL0     C80210   5.682   9.988   1.332 -0.2505  0.0704 -0.3911
  595MOL0     C80211   5.799  10.005   1.237  0.2859 -0.9901 -0.5741
  595MOL0     C80212   5.934   9.951   1.291  0.8228  0.3732 -0.3530
  595MOL0     C80213   5.983  10.008   1.409 -0.6769  0.5049 -1.3715
  595MOL0     O80214   5.923   9.950   1.525  0.2001  0.1129  0.3923
  595MOL0     C80215   5.961   9.982   1.649 -0.6877 -0.2075 -0.4169
  595MOL0     C80216   6.061  10.082   1.675 -0.2617  0.0683 -0.0939
  595MOL0     C80217   6.089  10.117   1.805  0.0867 -0.3950 -0.2429
  595MOL0     C80218   6.203  10.219   1.835  0.2980  0.9116  1.1548
  595MOL0     C80219   6.022  10.059   1.912 -0.0321  0.3237 -0.8651
  595MOL0     C80220   6.041  10.091   2.064 -0.7428 -0.7453  0.6904
  595MOL0     O80221   5.964  10.022   2.143  0.2215  0.4069 -0.7104
  595MOL0     C80222   5.909  10.068   2.257 -0.0578 -0.1782  0.1536
  595MOL0     C80223   5.769  10.056   2.281 -0.7392  0.0935 -0.5640
  595MOL0     C80224   5.715  10.103   2.404  0.3203 -0.2269 -0.2561
  595MOL0     C80225   5.798  10.132   2.511  0.4846  0.2102  0.5687
  595MOL0     O80226   5.753  10.170   2.631  0.4790  0.9612 -0.6774
  595MOL0     C80227   5.661  10.283   2.625 -0.4770  0.9092 -0.7541
  595MOL0     C80228   5.748  10.409   2.637 -0.7362  0.3989  0.1425
  595MOL0     C80229   5.811  10.413   2.780  0.5217 -0.8586 -0.9094
  595MOL0     C80230   5.854  10.561   2.814 -1.3588  0.6719 -0.2153
  595MOL0     C80231   5.947  10.575   2.939 -0.5185  0.1175 -0.3448
  595MOL0     C80232   5.856  10.549   3.062  0.2090 -0.6091 -0.0542
  595MOL0     C80233   5.923  10.616   3.185  0.5975 -0.6571  1.0721
  595MOL0     C80234   6.070  10.571   3.215 -0.4779 -0.1308 -1.0173
  595MOL0    Cl80235   6.061  10.398   3.260  0.3236 -0.1569 -0.2636
  595MOL0     C80236   5.933  10.136   2.492  0.3186  0.7995 -0.5404
  595MOL0     C80237   5.993  10.096   2.370 -0.3305  0.9708 -0.7970
  595MOL0     O80238   6.131  10.172   2.104  0.2081 -0.5319  0.3851
  595MOL0     C80239   5.925   9.969   1.883  0.7321  0.9024 -0.8232
  595MOL0     C80240   5.892   9.923   1.749 -0.1970 -0.0231 -1.2283
  595MOL0     N80241   5.514   9.939   1.145  0.8598 -0.0147  0.6580
  595MOL0     N80242   5.389   9.963   1.115 -0.3995  1.0226 -0.4838
  595MOL0     C80243   5.068  11.010   1.791  0.7822  1.1819  0.3920
  595MOL0     C80244   5.074  11.137   1.824  0.1638 -0.5903  0.7813
  595MOL0     C80245   5.007  11.528   2.001 -0.9024  0.3376 -0.8449
  595MOL0     C80246   5.007  11.614   1.894  1.0555 -0.1641 -0.5559
  595MOL0     C80247   5.032  11.751   1.917 -0.4278 -0.2440  0.8996
  595MOL0     C80248   5.048  11.800   2.051  0.4453  1.1058  0.3084
  595MOL0     O80249   5.066  11.931   2.097 -0.3510  0.0763 -0.5516
  595MOL0     C80250   5.153  12.012   2.017  1.1853  0.5896 -0.6371
  595MOL0     C80251   5.165  12.151   2.089 -0.0373  0.4379 -0.4101
  595MOL0     C80252   5.290  12.227   2.061  0.8583  0.1602 -0.7446
  595MOL0     C80253   5.310  12.352   2.145  0.0914  0.2583 -0.5368
  595MOL0     C80254   5.200  12.453   2.157  0.3263  0.9338  0.0255
  595MOL0     C80255   5.131  12.539   2.201 -0.0324 -0.1257 -1.1020
  595MOL0     C80256   5.045  11.706   2.162  0.3042 -0.4183  1.4283
  595MOL0     C80257   5.032  11.573   2.133  1.0325  0.4662  0.3823
  595MOL0     H80258   4.764  11.237   1.730 -1.5071  0.0259  0.5874
  595MOL0     H80259   4.748  11.005   1.669 -0.4006  2.4417 -0.9530
  595MOL0     H80260   5.150  10.761   1.697 -0.3880 -1.9289  0.7751
  595MOL0     H80261   5.053  10.731   1.845 -0.1972  2.6042  0.5288
  595MOL0     H80262   5.111  10.526   1.746 -0.6436  1.8113  5.2791
  595MOL0     H80263   4.936  10.546   1.727  0.0774  1.9898 -0.5249
  595MOL0     H80264   4.914  10.595   1.524 -0.9431 -2.1837 -2.2950
  595MOL0     H80265   5.089  10.614   1.493 -0.5593 -0.7891  0.0014
  595MOL0     H80266   5.129  10.376   1.551  0.7336  0.5904  0.2798
  595MOL0     H80267   4.954  10.341   1.550  0.9291  0.6174  2.2667
  595MOL0     H80268   4.920  10.440   1.340 -0.1860  0.3689 -0.0699
  595MOL0     H80269   5.085  10.465   1.301  0.6147 -0.3013  0.5797
  595MOL0     H80270   5.002  10.185   1.373 -0.7695 -2.6863 -3.3540
  595MOL0     H80271   4.985  10.237   1.217 -3.0872 -0.1568  0.9080
  595MOL0     H80272   5.227  10.302   1.192  1.4162  0.7458  1.1863
  595MOL0     H80273   5.251  10.255   1.365 -2.3501 -0.7994  2.2353
  595MOL0     H80274   5.153  10.065   1.152 -0.5628 -1.2298  0.1511
  595MOL0     H80275   5.176  10.030   1.320  0.5375  0.0462  0.6147
  595MOL0     H80276   5.443  10.140   1.383 -3.8786  0.3523 -1.0197
  595MOL0     H80277   5.690  10.061   1.413  1.5610 -0.1406 -0.3368
  595MOL0     H80278   5.679   9.891   1.382  0.2676  0.2810  0.0606
  595MOL0     H80279   5.819  10.112   1.229 -0.1808 -0.9986 -2.3300
  595MOL0     H80280   5.771   9.974   1.136 -1.3863  0.3802 -0.5666
  595MOL0     H80281   6.009   9.947   1.211 -1.0849  1.3060 -2.2848
  595MOL0     H80282   5.912   9.846   1.316 -0.6959  0.4393 -1.2840
  595MOL0     H80283   5.987  10.118   1.409  0.0045  0.4888 -0.6023
  595MOL0     H80284   6.087   9.975   1.414 -2.1699 -5.0071 -0.2080
  595MOL0     H80285   6.109  10.127   1.589  0.3824 -2.2287 -1.0065
  595MOL0     H80286   6.241  10.266   1.744 -1.7811 -0.3135 -0.4034
  595MOL0     H80287   6.174  10.303   1.900  0.7904  2.1417 -0.1690
  595MOL0     H80288   6.288  10.172   1.886  2.0219  1.3968 -1.1432
  595MOL0     H80289   5.710  10.022   2.197 -1.8304 -1.1672  0.6684
  595MOL0     H80290   5.608  10.107   2.421  0.5430  1.1340  1.0007
  595MOL0     H80291   5.597  10.279   2.537 -0.3120 -0.7462 -0.8225
  595MOL0     H80292   5.597  10.261   2.711 -3.5605  1.7812 -2.6535
  595MOL0     H80293   5.834  10.409   2.569 -0.5782 -0.5609  0.3221
  595MOL0     H80294   5.682  10.493   2.613 -0.3985  0.8920  0.9009
  595MOL0     H80295   5.902  10.352   2.792  0.4147 -1.4384 -2.8086
  595MOL0     H80296   5.733  10.380   2.849  1.9160 -0.2230  1.0884
  595MOL0     H80297   5.908  10.607   2.731  0.6060  1.0572  1.2037
  595MOL0     H80298   5.767  10.621   2.840 -0.5341  1.3005  1.2550
  595MOL0     H80299   5.984  10.678   2.942  1.5130 -0.5168  4.0785
  595MOL0     H80300   6.035  10.513   2.924 -0.9075 -0.3722 -0.6342
  595MOL0     H80301   5.751  10.579   3.050 -0.1768 -1.9509 -0.1739
  595MOL0     H80302   5.835  10.445   3.089 -1.2511 -0.3671 -0.1779
  595MOL0     H80303   5.862  10.596   3.274  2.1255  0.7319  2.5135
  595MOL0     H80304   5.918  10.724   3.167 -1.6791 -0.4864  2.3505
  595MOL0     H80305   6.097  10.630   3.302  0.8476 -1.3654 -0.5538
  595MOL0     H80306   6.140  10.589   3.133 -0.5684  1.7667 -0.7153
  595MOL0     H80307   6.000  10.170   2.571 -0.0776  0.6150 -0.1183
  595MOL0     H80308   6.101  10.092   2.357 -0.1012 -2.5012  0.9392
  595MOL0     H80309   5.865   9.928   1.964  0.8973  0.5650 -0.8680
  595MOL0     H80310   5.805   9.862   1.725  0.6476 -1.3398 -1.0620
  595MOL0     H80311   5.154  10.950   1.817  0.5240  0.0935 -1.1351
  595MOL0     H80312   5.174  11.160   1.861 -0.3323  1.2316  1.1213
  595MOL0     H80313   4.994  11.577   1.793 -0.2257 -0.2195 -0.3984
  595MOL0     H80314   5.041  11.822   1.836  1.1772 -1.3626  0.0501
  595MOL0     H80315   5.254  11.970   2.019  0.2738 -1.7790 -0.5978
  595MOL0     H80316   5.126  12.006   1.911  2.4022 -1.6446 -0.8906
  595MOL0     H80317   5.154  12.118   2.193  1.0071 -3.6986 -1.4079
  595MOL0     H80318   5.072  12.205   2.072 -1.1566 -1.9457 -2.7122
  595MOL0     H80319   5.297  12.265   1.958 -1.4109 -0.7035 -1.2673
  595MOL0     H80320   5.384  12.173   2.075  1.9470  2.0153 -0.4252
  595MOL0     H80321   5.394  12.402   2.096  0.5828 -0.4679 -0.4564
  595MOL0     H80322   5.353  12.323   2.241  1.4356  3.1970 -0.1679
  595MOL0     H80323   5.073  12.623   2.234 -0.0894 -0.1186 -1.2201
  595MOL0     H80324   5.057  11.738   2.265 -1.8911 -0.4072  1.7174
  595MOL0     H80325   5.035  11.496   2.210  3.7661 -0.1010 -0.1708
  596MOL0     O80326   7.429  11.376   7.995 -0.3675  0.1161 -0.2114
  596MOL0     C80327   7.402  11.398   8.112  0.0516 -0.4725  0.2493
  596MOL0     O80328   7.416  11.307   8.217 -0.1412 -0.2106  0.7823
  596MOL0     C80329   7.432  11.180   8.171  0.3074  0.4542  0.6788
  596MOL0     C80330   7.560  11.140   8.136  0.8284  0.6795  0.5011
  596MOL0     C80331   7.577  11.021   8.071  0.4942 -0.0028 -0.5703
  596MOL0     C80332   7.466  10.945   8.027 -0.2281  0.4186 -0.0204
  596MOL0     O80333   7.496  10.832   7.947 -0.3108 -0.5527 -1.0957
  596MOL0     C80334   7.384  10.763   7.896 -0.4245  0.2494 -0.3909
  596MOL0     C80335   7.422  10.661   7.786 -0.4526 -0.1641 -0.2377
  596MOL0     C80336   7.513  10.724   7.674  0.4715 -0.0267  0.6669
  596MOL0     C80337   7.488  10.666   7.538  1.2541  0.0707  1.3102
  596MOL0     C80338   7.601  10.708   7.452  0.0618  0.0972  0.4291
  596MOL0     C80339   7.576  10.663   7.302  1.0233  0.7147 -0.6689
  596MOL0     C80340   7.633  10.534   7.261  0.7660 -0.2407  0.6658
  596MOL0     C80341   7.635  10.533   7.105  0.6193 -0.1949  0.4964
  596MOL0     N80342   7.717  10.643   7.041 -0.1453 -1.1152 -1.1696
  596MOL0     C80343   7.856  10.645   7.029 -0.0111  0.5723  0.4558
  596MOL0     C80344   7.884  10.755   6.960  0.3070  1.4772 -0.3350
  596MOL0     C80345   8.021  10.809   6.924 -0.9489  0.2761  0.2564
  596MOL0     C80346   8.067  10.900   7.045 -0.4935 -0.1602 -0.0764
  596MOL0     C80347   8.181  10.988   6.993 -0.7103  0.1217 -1.5069
  596MOL0     C80348   8.242  11.097   7.086  0.4321 -0.0914  0.2379
  596MOL0     O80349   8.205  11.065   7.223 -0.5503  0.0535  0.2932
  596MOL0     C80350   8.234  11.149   7.329 -0.9225  0.5262 -0.1368
  596MOL0     C80351   8.210  11.113   7.458 -0.4039  1.5440  0.3870
  596MOL0     C80352   8.247  11.205   7.560  0.4002  0.5149 -0.1877
  596MOL0     C80353   8.222  11.155   7.696 -0.7867 -0.1056 -1.0396
  596MOL0     C80354   8.323  11.330   7.535  0.4954 -0.8654  1.3808
  596MOL0     C80355   8.368  11.430   7.629 -0.4430  0.1573  0.8638
  596MOL0     O80356   8.438  11.543   7.583 -0.7272  1.1834  0.2298
  596MOL0     C80357   8.467  11.641   7.669  1.0867 -0.7872 -0.2025
  596MOL0     C80358   8.434  11.773   7.629 -0.4306 -0.1762  0.0825
  596MOL0     C80359   8.440  11.881   7.722  0.1916  1.1371  0.5380
  596MOL0     C80360   8.496  11.858   7.847  0.6644 -0.2519  0.6993
  596MOL0     O80361   8.498  11.948   7.951 -0.6973 -0.0588 -0.2180
  596MOL0     C80362   8.381  12.032   7.972 -0.4835  0.0598 -0.1464
  596MOL0     C80363   8.423  12.181   7.960  0.3415  0.6015 -0.6178
  596MOL0     C80364   8.485  12.238   8.084  0.1388  0.3584 -0.5359
  596MOL0     C80365   8.391  12.235   8.204  0.8254  0.3657  0.2361
  596MOL0     C80366   8.435  12.310   8.326  0.1096 -0.2518  0.0102
  596MOL0     C80367   8.344  12.291   8.441 -0.9430  0.7275 -0.0133
  596MOL0     C80368   8.370  12.395   8.548  0.4798  0.0027  0.1389
  596MOL0     C80369   8.280  12.359   8.664  0.8661  0.0128  0.0589
  596MOL0    Cl80370   8.343  12.446   8.818  0.1456  0.3646  0.5393
  596MOL0     C80371   8.548  11.732   7.878 -0.5278 -0.2121  0.5676
  596MOL0     C80372   8.533  11.624   7.792 -0.1696 -0.2134 -0.8832
  596MOL0     O80373   8.358  11.408   7.748 -0.4270  0.2902 -0.5169
  596MOL0     C80374   8.346  11.352   7.395 -0.3914 -0.2620 -0.4417
  596MOL0     C80375   8.299  11.270   7.298 -0.0991 -0.1849 -0.6411
  596MOL0     N80376   7.774  10.843   6.949  0.8950  0.5359 -0.4894
  596MOL0     N80377   7.679  10.773   6.995  1.3233  0.1757 -0.5384
  596MOL0     C80378   7.336  10.981   8.067  0.0500  0.1556 -0.1619
  596MOL0     C80379   7.320  11.100   8.147  0.8907  0.5255 -0.3657
  596MOL0     C80380   7.343  11.525   8.141  0.1581 -0.3636 -0.6022
  596MOL0     C80381   7.289  11.616   8.046 -0.0759 -0.4659 -0.7934
  596MOL0     C80382   7.239  11.738   8.101  0.2509  0.8911  0.8245
  596MOL0     C80383   7.238  11.775   8.229 -1.1299 -1.5504 -0.0805
  596MOL0     O80384   7.192  11.906   8.251  0.8882  0.0013  0.0872
  596MOL0     C80385   7.217  11.964   8.380  0.4927 -0.3318 -0.7040
  596MOL0     C80386   7.171  12.113   8.395  0.1116  0.1256 -0.3220
  596MOL0     C80387   7.215  12.166   8.526 -0.3188  0.3197  0.9786
  596MOL0     C80388   7.173  12.311   8.566 -0.0285 -1.1632  0.3347
  596MOL0     C80389   7.237  12.349   8.697  0.3531 -0.3455  0.3755
  596MOL0     C80390   7.316  12.375   8.791  0.5791  0.7873 -0.4614
  596MOL0     C80391   7.284  11.683   8.315  0.3104  0.4553 -0.0402
  596MOL0     C80392   7.341  11.561   8.275  0.0900  0.2633 -0.6961
  596MOL0     H80393   7.642  11.208   8.157  1.4844 -0.4279  1.6011
  596MOL0     H80394   7.676  10.980   8.053  0.3401 -0.9214  0.5377
  596MOL0     H80395   7.345  10.710   7.984  2.9513  0.4864  1.4289
  596MOL0     H80396   7.312  10.830   7.850 -2.3768 -2.6019 -1.7418
  596MOL0     H80397   7.478  10.588   7.844  2.3907 -0.6049 -3.2649
  596MOL0     H80398   7.326  10.630   7.743 -0.7249 -0.5560  0.6173
  596MOL0     H80399   7.511  10.833   7.674 -3.3346  0.0500  1.6645
  596MOL0     H80400   7.618  10.707   7.701 -0.2119 -3.2029  1.8399
  596MOL0     H80401   7.475  10.557   7.535 -0.9834  0.3158  0.3717
  596MOL0     H80402   7.394  10.696   7.491  1.7616  0.8334  0.7554
  596MOL0     H80403   7.610  10.817   7.454  2.5647 -0.0085 -0.7499
  596MOL0     H80404   7.699  10.666   7.478  0.2326 -0.4897 -1.0296
  596MOL0     H80405   7.468  10.661   7.290  0.9945  2.3325 -0.8142
  596MOL0     H80406   7.615  10.742   7.237  0.9421  0.3769 -1.1330
  596MOL0     H80407   7.735  10.517   7.296  1.8784 -2.1569 -3.0804
  596MOL0     H80408   7.568  10.455   7.299 -0.5258  0.2473 -0.4461
  596MOL0     H80409   7.533  10.527   7.066  0.9948 -2.1433 -0.2906
  596MOL0     H80410   7.686  10.439   7.079 -0.8183 -1.3278  1.6244
  596MOL0     H80411   7.924  10.562   7.046 -1.2088 -0.7107 -0.7692
  596MOL0     H80412   8.094  10.727   6.919 -1.5667 -0.4756  2.2256
  596MOL0     H80413   8.011  10.861   6.829 -1.5621  2.4551  1.4440
  596MOL0     H80414   8.091  10.846   7.137 -1.1230 -1.5043 -0.6879
  596MOL0     H80415   7.987  10.968   7.074 -0.5258 -0.7746  1.4126
  596MOL0     H80416   8.131  11.051   6.919 -3.8861  4.3334  3.4093
  596MOL0     H80417   8.256  10.926   6.944  0.0710  2.0981 -2.9074
  596MOL0     H80418   8.189  11.189   7.062 -2.7575 -2.3685 -2.4548
  596MOL0     H80419   8.351  11.102   7.076  0.4711 -2.8602 -2.3305
  596MOL0     H80420   8.169  11.014   7.477 -0.6170  1.4865 -0.3686
  596MOL0     H80421   8.319  11.130   7.740  1.6352  1.1019 -5.1670
  596MOL0     H80422   8.178  11.229   7.764  3.0971  1.0112  0.5586
  596MOL0     H80423   8.162  11.064   7.698 -0.2038 -0.5200  1.8345
  596MOL0     H80424   8.395  11.777   7.527  0.2420 -3.4092 -0.4251
  596MOL0     H80425   8.412  11.977   7.681  2.5047  1.4442 -0.4956
  596MOL0     H80426   8.304  12.010   7.897  0.8128 -0.2034 -1.4370
  596MOL0     H80427   8.343  12.006   8.072  1.7785  3.3393  1.7596
  596MOL0     H80428   8.479  12.185   7.867 -0.1653 -0.5126 -0.9881
  596MOL0     H80429   8.331  12.239   7.953 -0.1999 -0.4479 -3.9193
  596MOL0     H80430   8.525  12.338   8.061 -0.7612  0.8580  0.0320
  596MOL0     H80431   8.572  12.173   8.101 -0.0449  0.1362 -0.4498
  596MOL0     H80432   8.291  12.269   8.179 -0.1444 -1.1244  1.8307
  596MOL0     H80433   8.384  12.128   8.228 -2.7527 -0.7015 -4.2041
  596MOL0     H80434   8.436  12.416   8.300 -0.9187 -0.0089  0.8706
  596MOL0     H80435   8.536  12.286   8.359  1.0809  1.2389 -1.7154
  596MOL0     H80436   8.239  12.292   8.410 -0.8473  0.3208 -0.3520
  596MOL0     H80437   8.369  12.195   8.488  3.3159  2.1868  1.2478
  596MOL0     H80438   8.346  12.497   8.515  1.4309  0.5625  1.1211
  596MOL0     H80439   8.474  12.402   8.579  0.4713 -0.3518  0.2485
  596MOL0     H80440   8.289  12.251   8.684 -0.5005  0.4859  4.1232
  596MOL0     H80441   8.174  12.380   8.647  1.1745 -0.4294 -2.8653
  596MOL0     H80442   8.611  11.723   7.966  0.1724 -2.4021 -0.0872
  596MOL0     H80443   8.568  11.525   7.820 -0.5173 -0.7285 -2.2177
  596MOL0     H80444   8.405  11.439   7.368 -2.0198  0.1013 -3.1776
  596MOL0     H80445   8.311  11.298   7.194  0.4262 -1.7722 -1.0386
  596MOL0     H80446   7.248  10.936   8.023  0.7354 -0.1074 -1.2933
  596MOL0     H80447   7.217  11.126   8.173  0.3671 -2.3530  0.8442
  596MOL0     H80448   7.267  11.585   7.944  0.9561  0.2838 -1.2674
  596MOL0     H80449   7.195  11.798   8.022 -1.6926 -0.8100  0.4986
  596MOL0     H80450   7.150  11.918   8.454 -0.4960  1.6623 -0.2936
  596MOL0     H80451   7.326  11.960   8.388  0.8381  2.5596 -2.4563
  596MOL0     H80452   7.062  12.124   8.390 -0.2705 -3.0338 -0.9312
  596MOL0     H80453   7.221  12.170   8.317 -0.8899  1.0611 -0.3012
  596MOL0     H80454   7.324  12.163   8.520 -0.3849 -3.0579 -3.4901
  596MOL0     H80455   7.176  12.093   8.598 -1.0203 -0.9646 -0.6381
  596MOL0     H80456   7.066  12.317   8.584  0.2110 -2.0554  2.2821
  596MOL0     H80457   7.215  12.382   8.493  1.0525 -3.2271 -1.1811
  596MOL0     H80458   7.375  12.389   8.879 -0.5253  2.6849  0.0414
  596MOL0     H80459   7.295  11.712   8.419  0.4691 -0.5052  0.2203
  596MOL0     H80460   7.373  11.486   8.347 -1.4783  1.0105  0.8117
  597MOL0     O80461   6.860   3.301   4.172  0.2857  0.6786  0.4437
  597MOL0     C80462   6.901   3.307   4.290 -0.1585 -0.5465  0.4365
  597MOL0     O80463   6.897   3.416   4.377 -0.6927  0.5621  0.0101
  597MOL0     C80464   6.847   3.532   4.320  0.0388  0.6600  0.4917
  597MOL0     C80465   6.710   3.569   4.343 -0.4303 -0.4527  0.4621
  597MOL0     C80466   6.668   3.701   4.319 -0.2661  0.0414 -0.3293
  597MOL0     C80467   6.763   3.799   4.277  0.4610  0.4467  0.6328
  597MOL0     O80468   6.735   3.926   4.245  1.1645  0.4710  1.5583
  597MOL0     C80469   6.668   3.996   4.352 -0.0560 -0.3338  0.6366
  597MOL0     C80470   6.624   4.136   4.311 -0.3934 -0.1805 -0.2885
  597MOL0     C80471   6.707   4.193   4.198 -0.9289 -0.3405  0.8950
  597MOL0     C80472   6.667   4.331   4.158  0.3701  0.3859  0.7003
  597MOL0     C80473   6.775   4.381   4.050  0.5826 -0.5140  0.4977
  597MOL0     C80474   6.738   4.534   4.035  1.3692 -0.3894 -0.1883
  597MOL0     C80475   6.857   4.610   3.967 -0.7474 -0.6117 -0.4609
  597MOL0     C80476   6.849   4.586   3.812  0.1468 -0.0599 -0.8490
  597MOL0     N80477   6.841   4.449   3.766  0.1255 -0.7138 -0.0348
  597MOL0     C80478   6.947   4.371   3.742 -0.1659  0.4589  0.6040
  597MOL0     C80479   6.891   4.254   3.678 -1.0937  0.9497  0.7635
  597MOL0     C80480   6.969   4.125   3.631 -0.0586  0.0108  0.3193
  597MOL0     C80481   7.037   4.037   3.746  0.0851 -0.1736  0.7969
  597MOL0     C80482   6.939   4.003   3.856  0.0297 -0.1153 -0.6668
  597MOL0     C80483   6.949   3.866   3.920 -0.8363 -0.6575  0.9491
  597MOL0     O80484   7.076   3.840   3.982 -0.5603 -0.1268 -0.2944
  597MOL0     C80485   7.130   3.716   3.998 -0.0172 -1.1973 -0.0446
  597MOL0     C80486   7.252   3.723   4.065  0.1631  0.4500  0.1947
  597MOL0     C80487   7.329   3.613   4.096  0.0888  0.0683  0.4830
  597MOL0     C80488   7.476   3.638   4.141  0.2815  0.6879 -0.5777
  597MOL0     C80489   7.273   3.479   4.080  0.5163 -0.2199 -0.1045
  597MOL0     C80490   7.339   3.346   4.115 -0.2748  0.7132  0.6608
  597MOL0     O80491   7.286   3.223   4.083  0.0846  0.5094  0.0897
  597MOL0     C80492   7.351   3.108   4.123 -0.1958  0.2927  0.1241
  597MOL0     C80493   7.340   3.068   4.264 -0.0685  0.3169  0.5532
  597MOL0     C80494   7.415   2.954   4.297 -0.0969  0.5389 -0.3234
  597MOL0     C80495   7.458   2.863   4.201  0.1282 -0.5750  0.8764
  597MOL0     O80496   7.518   2.742   4.226  0.3694  0.5679 -0.2954
  597MOL0     C80497   7.655   2.760   4.278  0.2708 -0.4683  0.1609
  597MOL0     C80498   7.661   2.654   4.385 -0.6436  0.0719 -1.0271
  597MOL0     C80499   7.798   2.640   4.439  0.8333 -0.3894  0.1070
  597MOL0     C80500   7.799   2.553   4.568  0.1945  0.1254 -0.4057
  597MOL0     C80501   7.742   2.410   4.553 -0.8154  0.0806  0.4292
  597MOL0     C80502   7.610   2.384   4.636 -0.3409 -0.0612  0.8755
  597MOL0     C80503   7.615   2.374   4.782 -0.3186  0.6352 -0.2852
  597MOL0     C80504   7.496   2.323   4.860  0.4141 -0.0964 -0.1494
  597MOL0    Cl80505   7.352   2.335   4.766  0.4002 -0.1987  0.0017
  597MOL0     C80506   7.459   2.902   4.065  0.3186  0.5862 -0.2780
  597MOL0     C80507   7.417   3.028   4.031  0.2048 -0.4178  0.8152
  597MOL0     O80508   7.438   3.359   4.182  0.1902 -0.4996  0.3955
  597MOL0     C80509   7.145   3.468   4.010  0.0057  0.2321 -0.4612
  597MOL0     C80510   7.076   3.592   3.980 -1.2050 -0.1281 -0.5757
  597MOL0     N80511   6.756   4.273   3.663  0.1692  0.1258 -0.5642
  597MOL0     N80512   6.729   4.391   3.719  0.8466 -0.2648 -0.1103
  597MOL0     C80513   6.896   3.759   4.248  0.4513  0.5420  0.2382
  597MOL0     C80514   6.940   3.621   4.271  0.7790 -0.4293  0.0760
  597MOL0     C80515   6.960   3.187   4.337  0.0485  0.1919 -0.5510
  597MOL0     C80516   6.973   3.064   4.265  0.4212  0.1498 -0.1702
  597MOL0     C80517   7.007   2.937   4.321  0.3124 -0.2298 -0.1107
  597MOL0     C80518   7.045   2.938   4.458  1.5786  0.7159 -0.0919
  597MOL0     O80519   7.087   2.820   4.526 -0.0762 -0.2699 -0.2335
  597MOL0     C80520   7.144   2.708   4.455  0.5009 -0.3460 -0.6766
  597MOL0     C80521   7.197   2.596   4.551  0.0171  0.4761  0.0607
  597MOL0     C80522   7.198   2.466   4.477  0.0626 -0.5501 -0.1468
  597MOL0     C80523   7.297   2.444   4.352 -0.2152  0.4815  0.7705
  597MOL0     C80524   7.339   2.304   4.354 -0.2096  0.3239 -0.0740
  597MOL0     C80525   7.358   2.185   4.359 -0.1591  0.5021 -1.0131
  597MOL0     C80526   7.041   3.054   4.533 -0.1371 -0.5817  0.1588
  597MOL0     C80527   7.006   3.179   4.474 -0.0010  0.3621 -0.4676
  597MOL0     H80528   6.642   3.493   4.380 -0.9357  0.1175  0.7156
  597MOL0     H80529   6.560   3.707   4.328 -0.6917 -4.6984 -0.0166
  597MOL0     H80530   6.580   3.933   4.368 -2.3282  1.8704 -2.0875
  597MOL0     H80531   6.727   3.993   4.444  1.0641 -0.7622 -0.0779
  597MOL0     H80532   6.518   4.139   4.284  0.4652  0.5135 -4.3651
  597MOL0     H80533   6.646   4.202   4.396  0.7990 -1.0745  0.1170
  597MOL0     H80534   6.812   4.186   4.228 -0.9536 -2.4098  0.6334
  597MOL0     H80535   6.693   4.128   4.111  3.4610  0.1869 -0.4545
  597MOL0     H80536   6.566   4.337   4.116 -1.0176  0.7807  3.8276
  597MOL0     H80537   6.646   4.408   4.233 -2.3668 -0.3631  0.8066
  597MOL0     H80538   6.879   4.376   4.086  0.8889 -2.6571 -0.5004
  597MOL0     H80539   6.778   4.330   3.953 -0.0259  5.4399 -3.1373
  597MOL0     H80540   6.649   4.557   3.976 -1.1354 -2.1556  2.6196
  597MOL0     H80541   6.723   4.578   4.134 -0.5122  0.1951 -0.6808
  597MOL0     H80542   6.849   4.717   3.989 -0.7315 -0.3583 -1.6493
  597MOL0     H80543   6.947   4.579   4.021 -0.7724 -0.0933 -0.1119
  597MOL0     H80544   6.942   4.631   3.775 -0.7877  2.5545 -0.2376
  597MOL0     H80545   6.776   4.657   3.772 -2.6351 -0.3645  3.2033
  597MOL0     H80546   7.052   4.396   3.747 -0.0637  0.7512 -1.6958
  597MOL0     H80547   6.901   4.052   3.587  0.6232 -1.3632  1.4722
  597MOL0     H80548   7.048   4.152   3.560  1.1279 -0.4965  1.3993
  597MOL0     H80549   7.119   4.096   3.790 -0.3737  2.4105 -1.5493
  597MOL0     H80550   7.087   3.951   3.702  0.7680 -0.1182  1.4399
  597MOL0     H80551   6.836   4.031   3.833 -0.0096  0.1301 -0.2003
  597MOL0     H80552   6.952   4.062   3.947 -2.1717  1.4563 -1.2917
  597MOL0     H80553   6.938   3.792   3.840  3.6717 -0.0231 -0.5194
  597MOL0     H80554   6.863   3.859   3.987 -2.5475  1.6368 -0.8306
  597MOL0     H80555   7.292   3.822   4.085  1.4730  0.2406 -1.1961
  597MOL0     H80556   7.490   3.746   4.142 -2.1061  1.1045 -2.3691
  597MOL0     H80557   7.497   3.590   4.237 -0.4880  1.1760 -0.1539
  597MOL0     H80558   7.547   3.601   4.067  0.9839 -2.5439  1.4784
  597MOL0     H80559   7.280   3.118   4.339  0.0215  2.7905 -0.9177
  597MOL0     H80560   7.436   2.912   4.395 -0.9990 -2.8028 -1.4346
  597MOL0     H80561   7.732   2.750   4.200  1.1013  0.0031  0.9017
  597MOL0     H80562   7.668   2.854   4.332 -0.7134 -1.0048  1.3776
  597MOL0     H80563   7.601   2.688   4.470  3.0922 -0.6812  2.1727
  597MOL0     H80564   7.616   2.560   4.352  1.1113 -0.5843 -1.6783
  597MOL0     H80565   7.850   2.734   4.460 -2.2374  1.4017  0.2466
  597MOL0     H80566   7.852   2.590   4.359  1.0187 -1.4417  0.8623
  597MOL0     H80567   7.905   2.547   4.593 -0.1119 -3.1597  0.5068
  597MOL0     H80568   7.739   2.602   4.645 -3.0202  1.8314 -3.6914
  597MOL0     H80569   7.819   2.338   4.584 -2.4508 -2.2435 -0.6317
  597MOL0     H80570   7.714   2.393   4.449 -0.3166 -2.4184  0.6413
  597MOL0     H80571   7.541   2.464   4.606 -2.9666 -1.7181  2.0708
  597MOL0     H80572   7.556   2.295   4.601  1.1274 -1.4607  2.0485
  597MOL0     H80573   7.638   2.474   4.822 -2.0879  0.5447  1.0707
  597MOL0     H80574   7.705   2.324   4.818 -0.7424  0.3411  0.3803
  597MOL0     H80575   7.477   2.383   4.950  1.7634  1.6922 -0.9856
  597MOL0     H80576   7.506   2.218   4.890  1.7134 -0.1626 -0.7485
  597MOL0     H80577   7.490   2.834   3.986  1.3793  1.6452 -0.8086
  597MOL0     H80578   7.415   3.059   3.927 -4.6675 -0.8275  0.5401
  597MOL0     H80579   7.082   3.380   4.010 -5.0386  3.4274  0.7979
  597MOL0     H80580   6.979   3.576   3.933 -0.2788  0.2752 -2.7314
  597MOL0     H80581   6.946   3.842   4.200 -1.5818  0.4450 -2.2646
  597MOL0     H80582   7.047   3.604   4.260  0.3428 -2.2725 -2.0241
  597MOL0     H80583   6.935   3.060   4.164 -0.3353 -2.6717  0.1369
  597MOL0     H80584   7.008   2.851   4.255  0.1671  1.7181 -2.7789
  597MOL0     H80585   7.072   2.656   4.391  0.9136 -1.6659 -0.0932
  597MOL0     H80586   7.224   2.753   4.394  0.4481 -2.6842 -2.6131
  597MOL0     H80587   7.115   2.584   4.622 -1.0130 -1.3389 -1.3543
  597MOL0     H80588   7.290   2.622   4.603 -0.2507 -0.6613  1.1501
  597MOL0     H80589   7.100   2.439   4.435 -0.6092  2.8935 -1.1256
  597MOL0     H80590   7.217   2.395   4.558 -1.6387 -0.5608  0.2810
  597MOL0     H80591   7.381   2.514   4.352  1.4251 -1.2787 -2.4589
  597MOL0     H80592   7.244   2.468   4.259  1.7834 -1.2436 -0.9209
  597MOL0     H80593   7.378   2.080   4.350 -2.8400 -0.6654  3.3572
  597MOL0     H80594   7.089   3.043   4.630  0.6982  1.3635  0.0165
  597MOL0     H80595   7.007   3.273   4.528 -2.3914  0.3365 -0.2783
  598MOL0     O80596   3.264   2.553  11.038 -0.2042  0.3857 -0.3313
  598MOL0     C80597   3.266   2.428  11.059  0.2649  0.5650  0.2140
  598MOL0     O80598   3.153   2.351  11.107  0.0919  0.3740 -0.0380
  598MOL0     C80599   3.040   2.415  11.134 -0.6467 -0.9950  0.8771
  598MOL0     C80600   3.033   2.541  11.200 -1.4385  0.4397 -0.0129
  598MOL0     C80601   2.913   2.590  11.255  0.5849  0.7677  0.5971
  598MOL0     C80602   2.790   2.510  11.245 -1.0068 -0.2296  0.0778
  598MOL0     O80603   2.666   2.558  11.287 -0.5148 -0.2140 -0.7852
  598MOL0     C80604   2.653   2.705  11.308  0.1905  1.0290 -1.1413
  598MOL0     C80605   2.515   2.721  11.358  0.0278 -0.7410 -1.0075
  598MOL0     C80606   2.411   2.711  11.247 -0.3058  0.5289  0.4262
  598MOL0     C80607   2.442   2.809  11.122 -0.3532  0.4575  0.3198
  598MOL0     C80608   2.328   2.839  11.025  0.1902 -0.4752  0.3923
  598MOL0     C80609   2.206   2.908  11.084  0.2560 -0.2919 -0.2787
  598MOL0     C80610   2.073   2.851  11.056 -0.6442 -0.0690  0.6067
  598MOL0     C80611   2.036   2.865  10.906 -0.1997  0.3387 -0.7867
  598MOL0     N80612   1.926   2.785  10.848  0.8410  0.1602 -0.4763
  598MOL0     C80613   1.934   2.674  10.764  0.2540  0.2895  0.0759
  598MOL0     C80614   1.807   2.641  10.730 -0.1442 -0.7398 -0.0454
  598MOL0     C80615   1.772   2.534  10.634 -0.0795 -0.0688  0.0065
  598MOL0     C80616   1.834   2.567  10.496 -0.3955  0.4056 -0.2589
  598MOL0     C80617   1.792   2.494  10.371  0.2065  0.4448  1.4264
  598MOL0     C80618   1.669   2.557  10.304 -0.5834  0.3443 -0.3293
  598MOL0     O80619   1.654   2.528  10.169 -0.0025 -0.3033 -0.8310
  598MOL0     C80620   1.740   2.582  10.074  0.5509  0.8448 -0.6184
  598MOL0     C80621   1.827   2.690  10.098  0.2418 -0.9180 -0.5769
  598MOL0     C80622   1.914   2.741  10.003  0.0304  0.9867  0.7990
  598MOL0     C80623   2.025   2.832  10.045 -0.6326  0.3127 -0.1149
  598MOL0     C80624   1.913   2.684   9.869  0.3420  0.7410  0.1426
  598MOL0     C80625   2.002   2.724   9.769 -0.0562 -0.3718 -0.6160
  598MOL0     O80626   2.061   2.634   9.694 -0.7821 -0.4735 -0.0483
  598MOL0     C80627   2.143   2.684   9.586  0.3313  0.4291 -0.6420
  598MOL0     C80628   2.282   2.687   9.602 -0.6305  0.5084  1.4059
  598MOL0     C80629   2.364   2.722   9.496 -0.2270  1.0101 -0.5053
  598MOL0     C80630   2.307   2.746   9.371  0.4814 -0.7858 -0.1495
  598MOL0     O80631   2.375   2.775   9.264  0.1968  0.3109  0.0242
  598MOL0     C80632   2.382   2.664   9.172  0.7285 -0.4709 -0.3064
  598MOL0     C80633   2.519   2.614   9.167  0.1201  0.7089  1.4608
  598MOL0     C80634   2.526   2.508   9.051 -0.1073 -0.2112 -0.1830
  598MOL0     C80635   2.670   2.474   9.015  0.3676  0.1520 -0.2352
  598MOL0     C80636   2.677   2.403   8.889 -0.1603  0.4906 -0.3108
  598MOL0     C80637   2.796   2.315   8.869  0.2494 -0.0333 -0.1182
  598MOL0     C80638   2.842   2.219   8.980 -0.3800  0.6385  0.3207
  598MOL0     C80639   2.946   2.113   8.938  0.7127  0.0642 -1.2243
  598MOL0    Cl80640   3.096   2.191   8.879 -0.1333 -0.2358 -0.2372
  598MOL0     C80641   2.163   2.742   9.353 -0.1765  0.0123  0.0300
  598MOL0     C80642   2.082   2.721   9.469  0.5840  0.3634  0.4593
  598MOL0     O80643   2.015   2.848   9.753 -0.0370  0.5614 -0.0250
  598MOL0     C80644   1.825   2.576   9.847 -0.1299  0.3837  0.6845
  598MOL0     C80645   1.741   2.529   9.946  0.6428  1.3948  0.5677
  598MOL0     N80646   1.725   2.716  10.807  0.4965  0.0943 -0.9173
  598MOL0     N80647   1.791   2.806  10.872  0.1036  0.3046  0.5051
  598MOL0     C80648   2.808   2.387  11.185 -0.1118 -0.2961 -0.6919
  598MOL0     C80649   2.921   2.347  11.122  1.0380  0.1083 -0.9391
  598MOL0     C80650   3.398   2.351  11.044  0.4591 -0.2308  0.2595
  598MOL0     C80651   3.404   2.224  11.094  0.5077  0.1529  1.2094
  598MOL0     C80652   3.515   2.139  11.095  0.4492 -0.3482  0.3886
  598MOL0     C80653   3.630   2.186  11.030  0.8382 -0.2432  0.5826
  598MOL0     O80654   3.729   2.092  11.036  0.5269  0.2232  0.2520
  598MOL0     C80655   3.849   2.134  10.962  0.7464  0.3558  0.4291
  598MOL0     C80656   3.845   2.131  10.802 -0.0146  0.5786  0.1518
  598MOL0     C80657   3.891   1.988  10.752  0.1464  0.1397  1.3159
  598MOL0     C80658   3.841   1.952  10.610 -0.4084 -0.5082  0.4503
  598MOL0     C80659   3.690   1.949  10.604  0.0851  0.0576  0.3893
  598MOL0     C80660   3.570   1.926  10.611  0.2081  0.1993  0.5501
  598MOL0     C80661   3.635   2.320  10.978  0.4850 -0.4412 -0.2953
  598MOL0     C80662   3.515   2.400  10.994 -0.3689  0.9765  0.4562
  598MOL0     H80663   3.125   2.598  11.211 -1.3099  0.4352 -0.9577
  598MOL0     H80664   2.907   2.689  11.299 -2.5163  1.0688 -0.2473
  598MOL0     H80665   2.719   2.720  11.394 -2.2594 -0.1089  1.0590
  598MOL0     H80666   2.676   2.778  11.229  1.3089  3.8467  1.5755
  598MOL0     H80667   2.501   2.647  11.438  4.2882 -1.2858 -0.5268
  598MOL0     H80668   2.522   2.821  11.403  1.2250 -0.5277 -1.6253
  598MOL0     H80669   2.406   2.607  11.212 -0.3893  0.3788  0.8846
  598MOL0     H80670   2.315   2.738  11.293 -1.3376 -0.3485 -1.1135
  598MOL0     H80671   2.497   2.893  11.164  1.3148 -1.1909  1.6041
  598MOL0     H80672   2.516   2.766  11.053 -0.6152 -0.9456  0.8758
  598MOL0     H80673   2.363   2.889  10.935 -0.2226 -0.3113  0.3179
  598MOL0     H80674   2.293   2.739  10.998  1.0390 -0.2000 -1.9129
  598MOL0     H80675   2.216   2.941  11.188  1.9436  2.8050 -1.3005
  598MOL0     H80676   2.199   3.005  11.034  0.6118  0.7988  1.6835
  598MOL0     H80677   2.076   2.744  11.079 -0.5715 -0.0308  0.7751
  598MOL0     H80678   2.001   2.897  11.125  0.1707  1.9615  0.1889
  598MOL0     H80679   2.128   2.848  10.850  0.5788 -1.9769  1.0142
  598MOL0     H80680   2.009   2.969  10.885 -2.4962  0.2785  1.4793
  598MOL0     H80681   2.023   2.631  10.718  1.9133  2.3372  1.1977
  598MOL0     H80682   1.802   2.430  10.648 -1.0474 -0.2732  0.6839
  598MOL0     H80683   1.664   2.522  10.622 -0.0410 -2.9797  1.5446
  598MOL0     H80684   1.937   2.529  10.500 -0.5431 -0.4156 -2.8588
  598MOL0     H80685   1.830   2.675  10.484 -1.3371  0.2606 -1.3799
  598MOL0     H80686   1.757   2.392  10.392 -0.9915  0.4322 -0.3670
  598MOL0     H80687   1.875   2.486  10.300 -3.8676 -0.7849 -3.8660
  598MOL0     H80688   1.668   2.666  10.317 -0.9652  0.1259  1.9556
  598MOL0     H80689   1.578   2.521  10.352 -1.3592 -0.0114 -2.0278
  598MOL0     H80690   1.834   2.751  10.187  3.3632  0.1289 -1.4309
  598MOL0     H80691   1.990   2.934  10.026 -0.0045  0.9196  1.7161
  598MOL0     H80692   2.062   2.826  10.148 -2.6336 -0.5178  0.6008
  598MOL0     H80693   2.112   2.814   9.981 -0.6755  0.9707 -0.3687
  598MOL0     H80694   2.334   2.661   9.693 -0.3037 -0.0250  1.0709
  598MOL0     H80695   2.471   2.706   9.497 -0.6360 -2.9936  2.0743
  598MOL0     H80696   2.318   2.578   9.197 -0.0071  0.2735  0.4214
  598MOL0     H80697   2.338   2.687   9.074 -0.1800  1.0028  0.4140
  598MOL0     H80698   2.585   2.700   9.154  3.8955 -2.0887  0.1807
  598MOL0     H80699   2.536   2.560   9.261  0.2074 -2.3928 -0.2258
  598MOL0     H80700   2.463   2.547   8.970 -2.5741 -3.2220  0.0946
  598MOL0     H80701   2.476   2.417   9.086 -2.1252  1.5853  1.9712
  598MOL0     H80702   2.736   2.561   9.016  1.3215 -0.4210 -3.6163
  598MOL0     H80703   2.719   2.415   9.093  2.3853  1.9216 -0.0779
  598MOL0     H80704   2.679   2.479   8.809  1.5930 -0.3857 -1.1543
  598MOL0     H80705   2.590   2.339   8.877  1.7210 -2.2203 -0.4477
  598MOL0     H80706   2.766   2.257   8.781  1.8325 -2.5627  0.8820
  598MOL0     H80707   2.885   2.372   8.842  0.0554 -0.1338 -0.9960
  598MOL0     H80708   2.765   2.165   9.037  0.7759 -0.6343  0.7380
  598MOL0     H80709   2.885   2.287   9.053  0.9742  0.5408 -0.3401
  598MOL0     H80710   2.905   2.049   8.860 -1.0495  0.2063 -0.4522
  598MOL0     H80711   2.970   2.043   9.019  1.1466  0.3243 -1.1206
  598MOL0     H80712   2.108   2.754   9.260 -1.2034 -1.8049  0.3585
  598MOL0     H80713   1.976   2.743   9.460 -0.4293 -3.1225  1.8304
  598MOL0     H80714   1.829   2.529   9.749 -0.6118  1.3513  0.1933
  598MOL0     H80715   1.681   2.441   9.930 -3.4520  3.9331  0.4943
  598MOL0     H80716   2.724   2.319  11.173  2.0778 -3.6930  1.5348
  598MOL0     H80717   2.923   2.247  11.079 -0.7423 -0.0397 -0.7690
  598MOL0     H80718   3.317   2.177  11.139 -0.4201  2.1257  1.5376
  598MOL0     H80719   3.507   2.042  11.142 -0.5034 -0.1374  0.6693
  598MOL0     H80720   3.879   2.232  10.999  0.3943  0.2584  0.9932
  598MOL0     H80721   3.928   2.068  11.001  1.2728  1.2305  0.8654
  598MOL0     H80722   3.921   2.208  10.784  2.1051 -0.8201  2.4511
  598MOL0     H80723   3.747   2.161  10.765  0.8660  5.1117  0.8086
  598MOL0     H80724   3.850   1.907  10.814 -0.8872 -0.4980 -0.1337
  598MOL0     H80725   3.999   1.985  10.769 -0.1968  3.5073  5.8784
  598MOL0     H80726   3.872   1.851  10.580 -0.6801 -0.4686  0.0147
  598MOL0     H80727   3.890   2.027  10.547 -2.6519  1.1273  0.5033
  598MOL0     H80728   3.467   1.896  10.612  0.6981 -1.6116  0.0816
  598MOL0     H80729   3.721   2.366  10.932  0.5145  1.0216  1.1246
  598MOL0     H80730   3.507   2.504  10.965 -3.1873  0.5052 -0.7616
  599MOL0     O80731   4.293   4.016   5.565  0.8315 -0.1337 -0.0579
  599MOL0     C80732   4.232   4.099   5.502 -0.6547 -1.1090  0.6733
  599MOL0     O80733   4.301   4.195   5.429 -0.6511  0.6149 -0.9623
  599MOL0     C80734   4.431   4.208   5.480  0.0507 -0.0588  0.2808
  599MOL0     C80735   4.530   4.131   5.419  0.1536 -0.6276 -0.0176
  599MOL0     C80736   4.663   4.160   5.433  0.2347  1.0613 -0.0340
  599MOL0     C80737   4.696   4.267   5.513  0.3160  0.0193 -0.0031
  599MOL0     O80738   4.832   4.286   5.510  0.1534  1.4480  0.5550
  599MOL0     C80739   4.890   4.399   5.578  0.9905  0.1389 -0.2229
  599MOL0     C80740   5.046   4.385   5.573  0.0130 -0.1701 -0.5589
  599MOL0     C80741   5.116   4.386   5.435 -0.5712 -1.2396  0.1208
  599MOL0     C80742   5.258   4.344   5.444 -1.5242 -0.7940  0.9265
  599MOL0     C80743   5.320   4.390   5.304 -0.8796  0.8279 -0.6642
  599MOL0     C80744   5.474   4.368   5.298 -0.8020 -1.0062  0.2350
  599MOL0     C80745   5.525   4.414   5.163 -0.4984 -0.2549  0.5674
  599MOL0     C80746   5.683   4.377   5.147 -0.3231  0.1277  0.0578
  599MOL0     N80747   5.763   4.463   5.244 -0.0323  0.7295  0.7355
  599MOL0     C80748   5.838   4.578   5.218 -1.2555 -0.6799 -1.1898
  599MOL0     C80749   5.913   4.597   5.326 -0.6047  0.9316 -1.0001
  599MOL0     C80750   6.009   4.707   5.356  0.0619  0.0839  1.0767
  599MOL0     C80751   5.940   4.822   5.431  0.5240 -0.4847  1.3182
  599MOL0     C80752   6.057   4.899   5.496 -0.3435 -0.2324 -0.2394
  599MOL0     C80753   6.108   4.841   5.622 -0.2511 -0.1750 -0.5128
  599MOL0     O80754   6.005   4.847   5.720 -0.6375 -0.6831 -0.9339
  599MOL0     C80755   5.959   4.727   5.776 -0.9637  0.1559 -0.6204
  599MOL0     C80756   5.984   4.601   5.723  0.0370 -0.0394  0.3281
  599MOL0     C80757   5.934   4.486   5.787 -0.8673  0.3185 -0.3145
  599MOL0     C80758   5.961   4.351   5.722 -0.0589 -0.3547 -0.3011
  599MOL0     C80759   5.843   4.502   5.898 -0.6215  0.6160 -0.5172
  599MOL0     C80760   5.769   4.387   5.970 -0.2440 -0.6471  0.2609
  599MOL0     O80761   5.724   4.415   6.100  0.7241  0.3398 -0.2086
  599MOL0     C80762   5.616   4.339   6.148  0.2096 -1.4047  0.0752
  599MOL0     C80763   5.638   4.205   6.176 -0.9836 -0.1965  1.1015
  599MOL0     C80764   5.544   4.122   6.214 -0.1742  0.4800  0.2173
  599MOL0     C80765   5.409   4.171   6.249  0.2229  0.2809 -0.9569
  599MOL0     O80766   5.310   4.080   6.284  0.3377  0.5345  0.0258
  599MOL0     C80767   5.173   4.125   6.309  0.5975  0.2310 -0.3913
  599MOL0     C80768   5.069   4.009   6.346 -0.5474 -0.3352 -0.2003
  599MOL0     C80769   5.130   3.920   6.453 -0.0454 -0.8383 -0.1532
  599MOL0     C80770   5.033   3.817   6.503  0.1182  0.4964 -0.3715
  599MOL0     C80771   5.083   3.720   6.616 -0.1246  0.7288  0.6451
  599MOL0     C80772   4.971   3.629   6.670 -0.1578 -0.1037  0.6843
  599MOL0     C80773   5.005   3.577   6.812  0.7221 -0.3656 -0.0839
  599MOL0     C80774   4.975   3.691   6.916 -0.2507 -0.4587 -0.1853
  599MOL0    Cl80775   5.060   3.649   7.071 -0.2541  0.9410 -0.1037
  599MOL0     C80776   5.384   4.314   6.242  0.0011  0.4002  0.3159
  599MOL0     C80777   5.488   4.390   6.181  0.7772  0.4888 -0.1880
  599MOL0     O80778   5.762   4.279   5.916  0.3040 -0.1793  0.5795
  599MOL0     C80779   5.820   4.627   5.955  0.0727 -0.6890  0.6349
  599MOL0     C80780   5.884   4.736   5.898 -0.2692  0.7633 -0.1415
  599MOL0     N80781   5.876   4.506   5.423  0.9954  0.0526  0.9610
  599MOL0     N80782   5.787   4.425   5.380  0.8957 -0.0656  0.2953
  599MOL0     C80783   4.599   4.349   5.588  0.7253 -1.2869  0.1057
  599MOL0     C80784   4.461   4.319   5.566 -1.2096 -0.7643 -0.8382
  599MOL0     C80785   4.095   4.082   5.476  0.6259 -0.2594  0.2050
  599MOL0     C80786   4.024   4.002   5.565 -0.3615  0.4705  0.1760
  599MOL0     C80787   3.890   3.975   5.542 -0.0561  0.2996  0.2216
  599MOL0     C80788   3.832   4.015   5.424 -0.7701  0.3001  0.5993
  599MOL0     O80789   3.703   3.974   5.406  0.9536 -0.1713 -0.3969
  599MOL0     C80790   3.615   4.034   5.308  0.4478  0.4702  0.3993
  599MOL0     C80791   3.634   3.942   5.178 -0.5454  0.6493  0.0432
  599MOL0     C80792   3.593   3.797   5.192 -0.0875 -0.7552  0.6779
  599MOL0     C80793   3.571   3.701   5.068 -1.3589 -0.0003  0.6991
  599MOL0     C80794   3.490   3.760   4.966  0.6851  0.1804 -0.1955
  599MOL0     C80795   3.418   3.786   4.873 -0.4599 -0.0948 -0.3164
  599MOL0     C80796   3.905   4.086   5.331 -0.0833 -0.0346 -0.2208
  599MOL0     C80797   4.030   4.130   5.362  0.6720  0.9755 -0.4818
  599MOL0     H80798   4.496   4.046   5.362  0.1106  1.7274 -3.8729
  599MOL0     H80799   4.724   4.082   5.389 -1.8154 -1.3766  1.1957
  599MOL0     H80800   4.863   4.486   5.518  0.0359 -1.1963 -1.8176
  599MOL0     H80801   4.856   4.392   5.681  0.6770  1.8446 -0.1890
  599MOL0     H80802   5.080   4.466   5.637 -0.7290 -1.2379  1.2483
  599MOL0     H80803   5.059   4.289   5.624  1.2900 -1.2300 -2.7106
  599MOL0     H80804   5.061   4.332   5.357  0.2231  0.4723 -1.7374
  599MOL0     H80805   5.114   4.489   5.397  1.4725 -1.6390 -1.2305
  599MOL0     H80806   5.314   4.381   5.531  0.5540  0.0837 -0.6820
  599MOL0     H80807   5.250   4.235   5.439 -2.1433 -0.6892 -1.4061
  599MOL0     H80808   5.270   4.322   5.235  1.5599 -1.0151 -0.7308
  599MOL0     H80809   5.302   4.494   5.274 -2.9911  1.1938  1.5583
  599MOL0     H80810   5.526   4.439   5.363  1.6979 -1.7282 -0.8790
  599MOL0     H80811   5.514   4.272   5.330 -0.5010 -0.5243  1.3493
  599MOL0     H80812   5.465   4.366   5.085  2.3024 -1.2332 -1.1334
  599MOL0     H80813   5.512   4.523   5.157  0.4480 -0.2174 -1.6013
  599MOL0     H80814   5.720   4.390   5.046  1.1101  2.1198  0.7750
  599MOL0     H80815   5.695   4.270   5.167 -2.1470 -0.4365 -1.4956
  599MOL0     H80816   5.841   4.641   5.130 -1.7108  1.4739  0.2597
  599MOL0     H80817   6.092   4.668   5.415  1.8378 -0.7883 -1.7726
  599MOL0     H80818   6.057   4.732   5.261  2.0506 -2.3458  1.3284
  599MOL0     H80819   5.873   4.773   5.502 -0.7349 -0.7597 -0.0195
  599MOL0     H80820   5.866   4.873   5.367  0.0115 -1.2065  1.3203
  599MOL0     H80821   6.014   4.997   5.519 -0.0606 -0.3453  0.8139
  599MOL0     H80822   6.138   4.919   5.426  0.6023 -2.2929  0.1933
  599MOL0     H80823   6.181   4.916   5.654  0.5534 -1.7695  1.6104
  599MOL0     H80824   6.170   4.753   5.599 -1.0993 -0.4026 -2.0799
  599MOL0     H80825   6.043   4.597   5.632 -0.3618 -0.1683  0.0703
  599MOL0     H80826   6.047   4.359   5.656 -1.7693  3.8469 -2.3834
  599MOL0     H80827   5.994   4.287   5.804 -1.6946 -0.4149  0.3517
  599MOL0     H80828   5.870   4.318   5.670  1.4920 -3.9937 -1.0305
  599MOL0     H80829   5.737   4.163   6.164 -1.4965 -1.0405 -0.4933
  599MOL0     H80830   5.549   4.014   6.213  1.9372  0.5283 -1.4167
  599MOL0     H80831   5.173   4.198   6.391 -3.4112 -1.5864  1.5315
  599MOL0     H80832   5.134   4.182   6.225  0.2252  1.4134  0.5553
  599MOL0     H80833   4.980   4.060   6.386  2.3288  2.5977  3.2230
  599MOL0     H80834   5.048   3.942   6.262 -1.0098 -0.7891  0.2709
  599MOL0     H80835   5.155   3.985   6.538 -2.5085  1.0594 -0.7678
  599MOL0     H80836   5.216   3.870   6.406 -1.3405 -0.4496 -3.1463
  599MOL0     H80837   4.949   3.876   6.542  0.0091 -1.2095  2.2289
  599MOL0     H80838   5.001   3.750   6.422 -0.8068  0.5770 -0.0812
  599MOL0     H80839   5.132   3.772   6.698  1.5769 -1.4331  1.0897
  599MOL0     H80840   5.164   3.662   6.570  0.2723  3.6606 -2.7154
  599MOL0     H80841   4.885   3.694   6.686  0.5177  0.9932  0.0514
  599MOL0     H80842   4.946   3.553   6.597 -1.4548 -2.3460  3.2724
  599MOL0     H80843   5.109   3.553   6.832 -0.0510 -2.5382  1.7338
  599MOL0     H80844   4.933   3.495   6.827 -3.2183  2.9462  0.9507
  599MOL0     H80845   4.868   3.705   6.935 -0.3070  1.1769 -1.4949
  599MOL0     H80846   5.014   3.788   6.883  0.2208 -0.5279  0.1546
  599MOL0     H80847   5.282   4.349   6.247  0.5750  2.5934 -1.5306
  599MOL0     H80848   5.463   4.490   6.149  5.0723  1.4217 -1.2623
  599MOL0     H80849   5.756   4.638   6.042 -1.2222 -2.3789 -0.0481
  599MOL0     H80850   5.870   4.836   5.937 -1.5669  1.5890 -2.5391
  599MOL0     H80851   4.615   4.448   5.629  4.2202 -0.7769 -2.0659
  599MOL0     H80852   4.383   4.378   5.614 -0.9716  0.2096 -1.6058
  599MOL0     H80853   4.080   3.966   5.651  1.0810  3.0763  0.4211
  599MOL0     H80854   3.846   3.922   5.626  1.8902 -1.5956  0.1492
  599MOL0     H80855   3.509   4.045   5.333  0.3915  0.0378  0.3730
  599MOL0     H80856   3.643   4.136   5.285 -0.7711  1.5861  3.3309
  599MOL0     H80857   3.739   3.938   5.147  0.3595 -1.7093  2.9227
  599MOL0     H80858   3.576   3.979   5.094  0.9722  2.6353 -0.2094
  599MOL0     H80859   3.497   3.782   5.242 -0.5607  0.2085  0.0880
  599MOL0     H80860   3.673   3.757   5.255  0.0350  1.8170  2.3127
  599MOL0     H80861   3.523   3.611   5.107 -1.0990 -0.5504 -0.2173
  599MOL0     H80862   3.673   3.676   5.038 -0.9590 -0.5804  2.4006
  599MOL0     H80863   3.368   3.792   4.778 -0.6115 -1.7928 -0.3668
  599MOL0     H80864   3.869   4.127   5.237  1.1224 -0.5914 -0.9528
  599MOL0     H80865   4.088   4.182   5.286  1.1475  0.0307 -0.7801
  600MOL0     O80866   0.139   2.576   0.598  0.1386  0.5272  0.2315
  600MOL0     C80867   0.030   2.636   0.593 -0.3988 -0.7608  0.1698
  600MOL0     O80868   0.005   2.763   0.636 -0.5143 -0.1449 -0.7147
  600MOL0     C80869   0.102   2.828   0.714 -0.1898  0.0045 -0.4763
  600MOL0     C80870   0.221   2.860   0.665 -0.0716  1.3908  0.5673
  600MOL0     C80871   0.318   2.922   0.747  0.2990 -0.1552 -0.2579
  600MOL0     C80872   0.288   2.952   0.880  0.8844 -0.0927  0.9955
  600MOL0     O80873   0.388   3.010   0.957  0.0459 -0.7902  0.7851
  600MOL0     C80874   0.409   2.957   1.089  0.4473 -0.0988 -0.9446
  600MOL0     C80875   0.523   3.037   1.159 -0.0735  0.0950 -0.5778
  600MOL0     C80876   0.513   3.025   1.318  0.9555  0.5768 -0.3837
  600MOL0     C80877   0.635   2.958   1.374 -0.8554 -0.3984  0.3796
  600MOL0     C80878   0.636   2.948   1.527  0.3022 -0.1301 -0.7952
  600MOL0     C80879   0.742   2.850   1.564 -0.0583 -0.4709 -0.3698
  600MOL0     C80880   0.764   2.847   1.719 -0.2937 -0.8279 -0.7065
  600MOL0     C80881   0.644   2.781   1.780  0.4885  0.2557 -0.1516
  600MOL0     N80882   0.610   2.650   1.731 -0.6771  0.5076  0.5660
  600MOL0     C80883   0.506   2.631   1.639 -0.0851 -0.7638  1.1019
  600MOL0     C80884   0.500   2.493   1.629 -0.0721 -0.2076  1.0687
  600MOL0     C80885   0.419   2.421   1.538 -0.1923  0.9226 -0.8343
  600MOL0     C80886   0.484   2.353   1.418  0.5924 -0.4160  0.9848
  600MOL0     C80887   0.556   2.226   1.459 -0.2718 -0.4640  0.4621
  600MOL0     C80888   0.692   2.208   1.388  0.2077  0.6328 -0.0015
  600MOL0     O80889   0.787   2.139   1.465 -0.6257  0.7194  0.2208
  600MOL0     C80890   0.837   2.204   1.575  0.0844  0.2774  0.7200
  600MOL0     C80891   0.803   2.146   1.698  0.5146 -0.7501 -0.3699
  600MOL0     C80892   0.847   2.205   1.814  0.0823 -0.0978  0.4140
  600MOL0     C80893   0.784   2.158   1.946  0.4557  0.3541  0.1192
  600MOL0     C80894   0.932   2.324   1.815 -0.6903 -0.4790 -0.6420
  600MOL0     C80895   0.992   2.392   1.930  0.2851  1.0542 -0.1453
  600MOL0     O80896   0.994   2.528   1.930  0.2655 -0.2254  0.0024
  600MOL0     C80897   1.078   2.611   2.002  0.6188 -1.2603 -1.4843
  600MOL0     C80898   1.148   2.582   2.119 -0.6111  0.0858  0.2128
  600MOL0     C80899   1.242   2.667   2.177 -0.1739  0.2808 -0.6601
  600MOL0     C80900   1.260   2.799   2.121 -0.3570 -0.7525 -0.3812
  600MOL0     O80901   1.341   2.892   2.188  0.0388 -0.1764  0.5277
  600MOL0     C80902   1.382   2.865   2.327  1.4493  0.6901 -0.0593
  600MOL0     C80903   1.462   2.985   2.372  0.0851  0.2700  0.4726
  600MOL0     C80904   1.384   3.115   2.386 -1.0438 -0.0095  0.1824
  600MOL0     C80905   1.274   3.104   2.494  1.0942  0.1209  0.6346
  600MOL0     C80906   1.211   3.237   2.512  0.4214  0.3692 -0.0406
  600MOL0     C80907   1.095   3.233   2.625 -0.9740  0.0681 -1.1200
  600MOL0     C80908   0.951   3.184   2.586  0.5495 -0.0584  0.6545
  600MOL0     C80909   0.870   3.291   2.507 -0.1067  0.6080  0.3580
  600MOL0    Cl80910   0.701   3.267   2.554  0.4313 -0.2420  0.1041
  600MOL0     C80911   1.180   2.835   2.006 -0.0338  0.9902  0.0593
  600MOL0     C80912   1.084   2.741   1.954  0.6699 -0.0981  0.2592
  600MOL0     O80913   1.038   2.322   2.023 -0.5312  0.3425  0.2269
  600MOL0     C80914   0.961   2.372   1.691 -0.5342 -0.1098 -0.3260
  600MOL0     C80915   0.919   2.320   1.574 -1.2301  0.5994  0.7113
  600MOL0     N80916   0.601   2.433   1.711  0.8817 -0.3624  0.4571
  600MOL0     N80917   0.663   2.525   1.772 -1.0624 -0.5797  0.5402
  600MOL0     C80918   0.159   2.920   0.921  0.2998 -0.0771 -0.7537
  600MOL0     C80919   0.065   2.864   0.835  0.4311  0.4863 -0.0920
  600MOL0     C80920  -0.086   2.569   0.531  0.2566  0.2724  0.5212
  600MOL0     C80921  -0.082   2.430   0.489 -0.4158  0.5683 -0.3399
  600MOL0     C80922  -0.204   2.366   0.442  0.2919  0.7713  0.2678
  600MOL0     C80923  -0.320   2.436   0.437  0.4825 -0.5978  0.2856
  600MOL0     O80924  -0.436   2.368   0.400 -0.9998  0.4193 -0.1153
  600MOL0     C80925  -0.560   2.401   0.467  0.9177  0.1833  0.2064
  600MOL0     C80926  -0.654   2.283   0.445  0.1822 -0.7557  0.2642
  600MOL0     C80927  -0.664   2.240   0.290  0.3657  0.4739 -0.3692
  600MOL0     C80928  -0.805   2.176   0.261 -0.5879  0.3885  0.1470
  600MOL0     C80929  -0.825   2.129   0.119 -0.0881  1.0636 -0.5268
  600MOL0     C80930  -0.834   2.101   0.002  0.2100 -0.1525  1.2557
  600MOL0     C80931  -0.314   2.576   0.449  0.8487 -0.2189 -0.2278
  600MOL0     C80932  -0.204   2.640   0.504 -0.1730 -0.7040  0.1902
  600MOL0     H80933   0.235   2.841   0.559 -1.2722  1.1461  0.4353
  600MOL0     H80934   0.416   2.936   0.703  0.5057 -1.5307 -0.2684
  600MOL0     H80935   0.320   2.969   1.150  1.9750  1.3015  1.1709
  600MOL0     H80936   0.441   2.852   1.086  1.1223  0.1211 -3.4382
  600MOL0     H80937   0.625   3.013   1.127  1.4536 -0.4096  3.9841
  600MOL0     H80938   0.512   3.142   1.131 -2.3218  0.0935  0.0880
  600MOL0     H80939   0.494   3.122   1.365  0.2546 -0.0247  0.6384
  600MOL0     H80940   0.428   2.965   1.354  1.9101  0.0553  1.1016
  600MOL0     H80941   0.636   2.859   1.327  0.3804 -0.1384 -0.1905
  600MOL0     H80942   0.729   3.007   1.346  1.2563 -3.0500  2.2775
  600MOL0     H80943   0.657   3.049   1.563  0.6214  0.0394 -1.4287
  600MOL0     H80944   0.538   2.913   1.559  0.4759 -0.2845 -0.4231
  600MOL0     H80945   0.718   2.751   1.524 -2.9150 -0.6883  1.5664
  600MOL0     H80946   0.834   2.892   1.523  0.5736 -0.3696  1.1014
  600MOL0     H80947   0.857   2.797   1.748 -0.5084  1.3476  4.8236
  600MOL0     H80948   0.765   2.948   1.759 -0.8460 -0.3793 -1.8000
  600MOL0     H80949   0.553   2.842   1.780  1.7003  2.3407  2.8306
  600MOL0     H80950   0.662   2.785   1.888 -2.3737 -0.7158  0.4430
  600MOL0     H80951   0.447   2.706   1.588  3.0840  0.3477 -1.2841
  600MOL0     H80952   0.353   2.347   1.584 -0.5415  0.0304 -2.6646
  600MOL0     H80953   0.347   2.495   1.502  0.1223  2.1848  1.0464
  600MOL0     H80954   0.541   2.431   1.368  1.3410  0.5191  3.1553
  600MOL0     H80955   0.404   2.324   1.348  0.1786  2.5672  0.1043
  600MOL0     H80956   0.492   2.146   1.420 -1.2507  0.4944  0.0658
  600MOL0     H80957   0.571   2.216   1.567 -0.0317  2.4437  0.7840
  600MOL0     H80958   0.730   2.300   1.342 -0.2457  1.0863  0.5160
  600MOL0     H80959   0.675   2.127   1.317 -3.6580 -0.3037  1.7166
  600MOL0     H80960   0.726   2.070   1.709  0.3301 -0.3086  1.9311
  600MOL0     H80961   0.714   2.073   1.945 -3.1928  2.9804  2.7118
  600MOL0     H80962   0.862   2.136   2.019 -1.6572 -2.7416  1.7039
  600MOL0     H80963   0.716   2.236   1.982  0.6546  1.2227 -1.3303
  600MOL0     H80964   1.122   2.491   2.172  0.0161  0.2691  0.8582
  600MOL0     H80965   1.296   2.632   2.264  0.0289 -0.2074 -0.9814
  600MOL0     H80966   1.293   2.856   2.389  0.2409 -2.6921 -2.0397
  600MOL0     H80967   1.439   2.772   2.330  0.7324  0.2039 -0.9846
  600MOL0     H80968   1.488   2.970   2.477  1.2417 -0.4408  0.0982
  600MOL0     H80969   1.553   3.004   2.315  0.0554  0.5345  0.5124
  600MOL0     H80970   1.333   3.149   2.296 -0.0254 -0.0297 -0.4132
  600MOL0     H80971   1.457   3.191   2.415 -0.9687  0.2073 -0.5772
  600MOL0     H80972   1.193   3.033   2.475  1.5088  0.4111 -2.7229
  600MOL0     H80973   1.325   3.075   2.586 -0.0046  1.3915  1.6898
  600MOL0     H80974   1.167   3.265   2.416  0.3068 -1.4929 -0.5561
  600MOL0     H80975   1.285   3.311   2.546  0.4868  0.0799  0.4565
  600MOL0     H80976   1.124   3.167   2.707  0.4545  0.4233 -1.3102
  600MOL0     H80977   1.095   3.335   2.665 -1.2365  0.0668 -1.1141
  600MOL0     H80978   0.897   3.150   2.674 -2.1947 -2.7088 -1.8061
  600MOL0     H80979   0.964   3.095   2.523 -2.5390 -0.2970  0.1952
  600MOL0     H80980   0.886   3.288   2.399 -2.9390  2.8217 -0.2340
  600MOL0     H80981   0.893   3.394   2.533 -3.1375  0.5941  3.9977
  600MOL0     H80982   1.207   2.925   1.950 -1.1656  0.7090 -0.9953
  600MOL0     H80983   1.030   2.750   1.860 -1.3047 -1.5599  1.1762
  600MOL0     H80984   1.029   2.456   1.677 -0.7559  0.1763  0.2761
  600MOL0     H80985   0.961   2.362   1.483  1.3730 -0.4498  1.3383
  600MOL0     H80986   0.117   2.955   1.015  3.1520 -0.7167  0.8934
  600MOL0     H80987  -0.032   2.833   0.873  1.2530 -1.8237  0.3315
  600MOL0     H80988   0.016   2.383   0.484 -0.8582 -0.2434 -2.6897
  600MOL0     H80989  -0.204   2.266   0.401 -0.9777 -0.2592  2.5441
  600MOL0     H80990  -0.544   2.420   0.573 -1.1636  0.5985  0.4860
  600MOL0     H80991  -0.605   2.487   0.418  0.5963 -1.5397 -2.7810
  600MOL0     H80992  -0.753   2.303   0.487 -0.6898  1.3296 -2.4224
  600MOL0     H80993  -0.610   2.198   0.497  1.7935  0.0784  0.3243
  600MOL0     H80994  -0.593   2.160   0.271 -1.3547 -1.2453  0.1703
  600MOL0     H80995  -0.644   2.314   0.212  2.2756 -0.8075 -1.1657
  600MOL0     H80996  -0.892   2.235   0.290 -1.6634 -0.3575 -1.3913
  600MOL0     H80997  -0.809   2.085   0.322 -1.8021  0.3663  0.0669
  600MOL0     H80998  -0.847   2.089  -0.103 -0.9028 -0.2002  1.3852
  600MOL0     H80999  -0.397   2.645   0.442 -0.5166 -1.3317  2.9076
  600MOL0     H81000  -0.212   2.745   0.530 -0.1170 -0.3187 -1.2865
  601MOL0     O81001   5.143   9.042   5.270  0.4158  0.0826 -0.0105
  601MOL0     C81002   5.140   9.119   5.365  0.2614 -1.0741  0.2710
  601MOL0     O81003   5.145   9.260   5.355 -0.1401  0.3852 -0.2293
  601MOL0     C81004   5.147   9.298   5.223  0.6425  0.2189  0.1275
  601MOL0     C81005   5.031   9.311   5.154  0.3964  0.0175 -0.7959
  601MOL0     C81006   5.033   9.341   5.018  0.0458 -0.1957  0.2907
  601MOL0     C81007   5.158   9.361   4.955  0.0503  0.8363  0.6197
  601MOL0     O81008   5.167   9.401   4.827 -0.3152 -0.1488  0.2872
  601MOL0     C81009   5.128   9.289   4.742  1.0416 -0.1206 -0.8142
  601MOL0     C81010   5.059   9.335   4.611  0.4336  0.4252 -0.4971
  601MOL0     C81011   4.931   9.405   4.648  0.1238  0.0662 -0.0423
  601MOL0     C81012   4.858   9.476   4.533 -0.0230 -0.5102  0.1255
  601MOL0     C81013   4.752   9.577   4.590  0.3370  0.2719  0.6664
  601MOL0     C81014   4.703   9.675   4.480  0.7062 -0.5189 -0.6308
  601MOL0     C81015   4.809   9.777   4.430  0.1421  0.3746  0.1539
  601MOL0     C81016   4.739   9.878   4.332 -0.2675  0.0198 -0.1971
  601MOL0     N81017   4.826   9.986   4.289 -0.4628  0.3092 -0.3192
  601MOL0     C81018   4.867  10.078   4.382 -0.3915 -0.7161 -0.3232
  601MOL0     C81019   4.944  10.161   4.309  0.0997 -0.2855  0.0753
  601MOL0     C81020   5.013  10.286   4.350 -0.2446  0.1505  0.3495
  601MOL0     C81021   4.964  10.374   4.464 -0.4381 -0.0336 -0.3365
  601MOL0     C81022   4.976  10.317   4.601  0.2920  0.4339  0.9448
  601MOL0     C81023   4.954  10.424   4.708 -0.0240  1.0174  0.3733
  601MOL0     O81024   4.809  10.462   4.738 -0.1056 -0.0582 -0.3329
  601MOL0     C81025   4.734  10.391   4.821 -0.1653  0.0565  0.4117
  601MOL0     C81026   4.767  10.278   4.898 -0.2655 -0.3944 -0.3892
  601MOL0     C81027   4.672  10.212   4.974 -1.0340  0.0862 -0.3641
  601MOL0     C81028   4.743  10.110   5.059 -0.7464  0.3979 -1.0257
  601MOL0     C81029   4.536  10.258   4.978 -1.1338 -0.9511 -0.1817
  601MOL0     C81030   4.430  10.180   5.047 -1.2162  0.0636  0.1493
  601MOL0     O81031   4.311  10.240   5.059  0.1581 -0.1880 -0.4704
  601MOL0     C81032   4.212  10.165   5.114 -0.5888  0.2488 -0.6423
  601MOL0     C81033   4.192  10.178   5.249 -0.3454  0.2477  0.3767
  601MOL0     C81034   4.089  10.105   5.303  0.2433  0.1628  0.9810
  601MOL0     C81035   4.002  10.026   5.238  0.4991  0.0208  0.6928
  601MOL0     O81036   3.912   9.953   5.310 -0.0820  0.2211  0.1642
  601MOL0     C81037   3.779   9.947   5.260  1.2473 -0.0055 -0.2299
  601MOL0     C81038   3.685   9.921   5.378  0.0335  0.0459 -0.6230
  601MOL0     C81039   3.548   9.959   5.341  0.0621  0.4360 -0.0260
  601MOL0     C81040   3.454   9.929   5.457  0.5348 -0.7572 -0.1325
  601MOL0     C81041   3.404   9.776   5.458  0.4100 -0.0845  0.4617
  601MOL0     C81042   3.298   9.755   5.571 -0.5889 -0.5026  0.3338
  601MOL0     C81043   3.276   9.607   5.598  0.1683 -1.0449 -0.4926
  601MOL0     C81044   3.162   9.588   5.703  0.0224 -0.5278  0.0294
  601MOL0    Cl81045   3.214   9.632   5.871  0.8188 -0.4002 -0.1815
  601MOL0     C81046   4.035  10.002   5.094  0.6187 -0.4133  0.3821
  601MOL0     C81047   4.132  10.077   5.035  0.3056  0.0655 -0.0835
  601MOL0     O81048   4.454  10.070   5.100 -1.0244  0.0464  0.1526
  601MOL0     C81049   4.513  10.380   4.917  0.4311 -0.2670  0.6166
  601MOL0     C81050   4.604  10.443   4.832  0.6152  0.0792 -0.6464
  601MOL0     N81051   4.953  10.117   4.180  0.4790  0.4234  0.2435
  601MOL0     N81052   4.878  10.011   4.162 -0.3742  0.3759  0.0370
  601MOL0     C81053   5.274   9.340   5.021  0.1875  1.4972  0.0167
  601MOL0     C81054   5.272   9.315   5.157  1.0777  0.3285  0.7047
  601MOL0     C81055   5.131   9.067   5.502  0.1450 -0.8832 -0.2737
  601MOL0     C81056   5.068   8.939   5.524  0.7610 -0.5273 -0.0340
  601MOL0     C81057   5.055   8.893   5.653  1.0485 -0.0131 -0.0203
  601MOL0     C81058   5.078   8.968   5.764  0.0449  0.2069  0.6696
  601MOL0     O81059   5.059   8.931   5.897  0.2249  0.3243  0.5155
  601MOL0     C81060   4.929   8.891   5.943  0.0315  1.5034 -0.5511
  601MOL0     C81061   4.938   8.837   6.086  0.5461  0.0132  0.2967
  601MOL0     C81062   4.793   8.835   6.154 -0.4123  0.6333 -0.2095
  601MOL0     C81063   4.796   8.818   6.312 -0.0779  0.5578 -0.2101
  601MOL0     C81064   4.851   8.931   6.386 -0.2241  1.2038  0.5326
  601MOL0     C81065   4.869   9.035   6.444 -0.3572  0.4675 -0.9166
  601MOL0     C81066   5.145   9.101   5.749 -0.1448 -0.4678  0.4320
  601MOL0     C81067   5.181   9.145   5.616  0.5221 -1.2686  0.1284
  601MOL0     H81068   4.934   9.303   5.202 -0.1779  1.0628 -1.7296
  601MOL0     H81069   4.946   9.332   4.954 -0.6516 -0.9167  1.2925
  601MOL0     H81070   5.219   9.232   4.722  0.4213 -1.0833 -0.9835
  601MOL0     H81071   5.067   9.212   4.790  0.6682  1.4497  1.4018
  601MOL0     H81072   5.123   9.412   4.566 -0.8200  1.9561  0.2262
  601MOL0     H81073   5.042   9.249   4.547  1.0526 -0.7970  0.9303
  601MOL0     H81074   4.860   9.337   4.696  0.1590 -0.1263 -0.2629
  601MOL0     H81075   4.960   9.478   4.724  0.2132  0.7011 -0.6824
  601MOL0     H81076   4.928   9.526   4.465  0.0943  1.1559  1.4099
  601MOL0     H81077   4.808   9.395   4.478  0.0358  0.1061 -0.8726
  601MOL0     H81078   4.669   9.519   4.630  1.4926 -1.7673  0.2741
  601MOL0     H81079   4.802   9.644   4.660 -0.6494  1.2694  0.4405
  601MOL0     H81080   4.673   9.633   4.384  0.0661 -1.4403 -0.0409
  601MOL0     H81081   4.614   9.731   4.509 -0.0422 -2.3986  0.9388
  601MOL0     H81082   4.847   9.829   4.518 -2.8096  0.7548  1.3320
  601MOL0     H81083   4.885   9.724   4.371 -0.3898  0.6224 -0.7691
  601MOL0     H81084   4.649   9.920   4.377  1.2277  5.5458 -1.5588
  601MOL0     H81085   4.720   9.813   4.246  1.5044  0.0731 -0.6791
  601MOL0     H81086   4.829  10.092   4.483 -2.8060 -1.2133 -1.1027
  601MOL0     H81087   5.118  10.267   4.376 -0.3464 -0.8474  0.0707
  601MOL0     H81088   5.007  10.338   4.254 -3.1456 -0.4500  0.1187
  601MOL0     H81089   4.858  10.399   4.458 -0.5052  0.9125  2.9652
  601MOL0     H81090   5.022  10.467   4.470  4.9958 -3.0381 -0.0058
  601MOL0     H81091   5.070  10.264   4.618  0.6567  0.2218 -1.4103
  601MOL0     H81092   4.899  10.239   4.610 -0.1644  0.8374  0.6213
  601MOL0     H81093   4.990  10.527   4.694  0.6706  1.1941  2.9955
  601MOL0     H81094   5.015  10.389   4.791  0.6719 -0.7020 -0.8230
  601MOL0     H81095   4.868  10.241   4.887  0.7296  2.0308 -0.2005
  601MOL0     H81096   4.722  10.136   5.163 -1.5451  1.4304 -1.4246
  601MOL0     H81097   4.712  10.007   5.036  1.9190 -0.3775 -1.5337
  601MOL0     H81098   4.852  10.100   5.056 -0.5681  1.5504  0.5048
  601MOL0     H81099   4.263  10.230   5.313  2.1025 -0.6757 -1.4271
  601MOL0     H81100   4.080  10.116   5.410 -3.1217  3.8967  0.5618
  601MOL0     H81101   3.757  10.046   5.221  0.6163 -0.1720 -0.2970
  601MOL0     H81102   3.773   9.875   5.178 -0.6094 -1.4369  1.0691
  601MOL0     H81103   3.697   9.816   5.405 -0.6518 -0.3138 -1.6874
  601MOL0     H81104   3.716   9.987   5.460  0.2821  0.4447 -1.0392
  601MOL0     H81105   3.526   9.901   5.251  0.4778 -0.6031  0.5259
  601MOL0     H81106   3.547  10.065   5.313  1.8833  0.3015 -0.7831
  601MOL0     H81107   3.497   9.953   5.555  1.5812 -1.4078 -0.4092
  601MOL0     H81108   3.368   9.993   5.438  2.2803  1.5377 -0.6865
  601MOL0     H81109   3.493   9.713   5.465 -0.1736 -0.8116  1.8882
  601MOL0     H81110   3.358   9.758   5.361  1.0648  1.9022 -0.2601
  601MOL0     H81111   3.329   9.802   5.665 -5.9225  1.9298  1.2421
  601MOL0     H81112   3.216   9.824   5.551 -0.2669  0.0816  0.9556
  601MOL0     H81113   3.370   9.567   5.638  1.3320  0.5827 -1.4604
  601MOL0     H81114   3.244   9.561   5.504 -1.3669  0.4518 -0.7437
  601MOL0     H81115   3.144   9.480   5.702  2.5137 -1.0033 -0.8670
  601MOL0     H81116   3.072   9.646   5.682 -0.0054 -0.6281 -0.1291
  601MOL0     H81117   3.977   9.926   5.041  0.0594  0.4357 -0.2480
  601MOL0     H81118   4.138  10.080   4.927  0.1995 -0.4410 -0.1081
  601MOL0     H81119   4.413  10.421   4.907  0.9238  1.0393  0.9397
  601MOL0     H81120   4.580  10.537   4.784 -0.3595  1.0007  1.4917
  601MOL0     H81121   5.373   9.356   4.979  0.0672  0.7403 -0.5787
  601MOL0     H81122   5.368   9.307   5.207  1.1428 -1.5558  0.3515
  601MOL0     H81123   5.021   8.902   5.434  0.1830 -0.6816  0.3234
  601MOL0     H81124   5.009   8.797   5.675  0.2849  0.8182  2.3360
  601MOL0     H81125   4.853   8.969   5.943 -1.6780  0.2023  3.9412
  601MOL0     H81126   4.890   8.816   5.874  0.6948  0.8899 -0.2791
  601MOL0     H81127   5.007   8.912   6.125 -0.0254  1.1844 -0.8580
  601MOL0     H81128   4.990   8.741   6.075 -0.3135 -0.2411 -2.1364
  601MOL0     H81129   4.731   8.755   6.114  0.7093  0.3308 -1.4307
  601MOL0     H81130   4.740   8.928   6.133 -0.8335  0.5224  0.3473
  601MOL0     H81131   4.843   8.724   6.343 -0.8031  0.7492  1.6299
  601MOL0     H81132   4.689   8.805   6.331 -0.1958  2.2331  0.4663
  601MOL0     H81133   4.878   9.132   6.490 -0.6907  0.5171 -0.9571
  601MOL0     H81134   5.157   9.161   5.839  0.9450 -0.5706  0.3748
  601MOL0     H81135   5.235   9.232   5.579 -2.9541 -0.1683 -3.0085
  602MOL0     O81136   6.757   8.717   7.966  0.2390  0.2924 -0.2946
  602MOL0     C81137   6.854   8.793   7.945  0.5751  0.9665  0.5390
  602MOL0     O81138   6.864   8.916   7.998 -0.1317  0.3325  0.6152
  602MOL0     C81139   6.787   8.951   8.104 -0.1875 -0.0875  0.4397
  602MOL0     C81140   6.852   8.996   8.218 -0.2237 -0.6182 -0.7614
  602MOL0     C81141   6.766   9.065   8.317 -0.1140  0.3672 -0.8853
  602MOL0     C81142   6.629   9.084   8.304 -0.2333  0.9106  0.4830
  602MOL0     O81143   6.558   9.159   8.393  0.3527 -0.1632 -0.7852
  602MOL0     C81144   6.426   9.113   8.419 -0.5124  0.1606 -0.9451
  602MOL0     C81145   6.352   9.199   8.525 -0.0714  0.6926 -0.1235
  602MOL0     C81146   6.202   9.177   8.522  0.0554  0.1431 -0.2979
  602MOL0     C81147   6.154   9.046   8.601 -0.3968  0.2007 -0.3134
  602MOL0     C81148   6.002   9.028   8.618 -0.1254 -0.7987 -0.0015
  602MOL0     C81149   5.948   8.906   8.682 -0.4912 -0.8649  0.1104
  602MOL0     C81150   6.032   8.838   8.795  1.0832  0.6532  0.5085
  602MOL0     C81151   5.946   8.738   8.888  0.5592  0.0695  0.1498
  602MOL0     N81152   6.021   8.683   8.998  0.9019 -0.2254  0.2892
  602MOL0     C81153   6.127   8.600   8.998  0.2344  0.7185  0.4489
  602MOL0     C81154   6.146   8.573   9.133 -0.7314 -0.0075  0.1917
  602MOL0     C81155   6.242   8.471   9.195  0.9186  0.3264 -0.1660
  602MOL0     C81156   6.390   8.506   9.159  0.5658  0.1188 -0.6232
  602MOL0     C81157   6.450   8.392   9.086  0.2992 -1.1979  0.5914
  602MOL0     C81158   6.571   8.429   9.009  0.2457 -0.6612 -0.1290
  602MOL0     O81159   6.681   8.472   9.095 -0.1999 -0.2075 -0.1996
  602MOL0     C81160   6.807   8.475   9.031  0.6766 -0.5499 -0.1532
  602MOL0     C81161   6.911   8.512   9.115  0.1299 -0.7507  0.8518
  602MOL0     C81162   7.050   8.526   9.058  0.6784  0.9366  0.2544
  602MOL0     C81163   7.148   8.556   9.167 -0.4281  0.3118  0.4037
  602MOL0     C81164   7.076   8.497   8.924 -0.9274 -0.3161 -0.5435
  602MOL0     C81165   7.208   8.488   8.862 -0.1994 -0.5468  0.1899
  602MOL0     O81166   7.227   8.472   8.723 -0.3685 -0.0497 -0.1225
  602MOL0     C81167   7.358   8.483   8.667  1.1350  0.2333 -0.2423
  602MOL0     C81168   7.371   8.413   8.543  0.1372 -0.5136  0.3259
  602MOL0     C81169   7.489   8.425   8.471 -0.6204  0.7353 -0.0290
  602MOL0     C81170   7.595   8.508   8.514  0.4656  0.7303 -0.2108
  602MOL0     O81171   7.699   8.515   8.426 -0.3908 -0.4099 -0.1372
  602MOL0     C81172   7.829   8.564   8.469 -0.6343 -0.2630  0.2419
  602MOL0     C81173   7.932   8.537   8.365 -0.1974  0.0457 -0.6308
  602MOL0     C81174   7.934   8.613   8.233  0.2305  1.1174 -0.6324
  602MOL0     C81175   8.008   8.737   8.254  1.1321 -0.4892  0.7537
  602MOL0     C81176   7.996   8.833   8.131 -0.7475 -0.2258 -0.8069
  602MOL0     C81177   8.078   8.962   8.179 -0.9502  0.0347 -0.1681
  602MOL0     C81178   8.048   9.074   8.095  0.6783 -0.4031 -0.4988
  602MOL0     C81179   8.181   9.151   8.073  0.4670  0.2416 -0.0980
  602MOL0    Cl81180   8.304   9.067   7.976  0.2588  0.1692  0.3738
  602MOL0     C81181   7.576   8.581   8.633  0.2544  0.5810 -0.0497
  602MOL0     C81182   7.454   8.569   8.702 -0.0506 -0.2892 -0.4829
  602MOL0     O81183   7.301   8.477   8.945 -0.2656  0.3443  0.2207
  602MOL0     C81184   6.971   8.473   8.845  0.0474 -0.5721 -0.4754
  602MOL0     C81185   6.836   8.462   8.895  0.1012  0.2723  0.5163
  602MOL0     N81186   6.071   8.651   9.208  0.5637  0.3716 -0.4442
  602MOL0     N81187   5.990   8.712   9.126  0.4008  0.3886 -0.6008
  602MOL0     C81188   6.576   9.020   8.189  0.5525 -0.5501  0.3359
  602MOL0     C81189   6.648   8.956   8.090  0.1977 -0.2781  0.3852
  602MOL0     C81190   6.958   8.749   7.854 -0.2985  0.0865  0.9832
  602MOL0     C81191   7.085   8.806   7.864  0.0325  0.1672 -0.2219
  602MOL0     C81192   7.182   8.770   7.777 -0.1919  0.3467 -0.4872
  602MOL0     C81193   7.165   8.669   7.683  0.2875  0.2077  0.9182
  602MOL0     O81194   7.271   8.654   7.596  0.1713 -0.2817 -0.9506
  602MOL0     C81195   7.274   8.576   7.472 -0.4155 -0.5911  0.1014
  602MOL0     C81196   7.395   8.592   7.382  0.3446 -0.9425  0.7569
  602MOL0     C81197   7.519   8.531   7.437  0.3361 -0.4043 -0.8208
  602MOL0     C81198   7.546   8.394   7.370  0.9374  0.8774 -0.3654
  602MOL0     C81199   7.659   8.323   7.434  0.3501 -0.0448  0.0513
  602MOL0     C81200   7.741   8.254   7.498  0.5453  0.2791  0.5619
  602MOL0     C81201   7.039   8.609   7.661 -0.2311  0.4383  0.2447
  602MOL0     C81202   6.933   8.658   7.752 -0.1902  0.3399  1.4994
  602MOL0     H81203   6.959   9.000   8.229 -0.1978  1.8154 -1.1635
  602MOL0     H81204   6.796   9.107   8.413 -0.6612 -2.8302  0.8258
  602MOL0     H81205   6.364   9.105   8.329 -0.8422 -1.2452 -0.6050
  602MOL0     H81206   6.416   9.014   8.463 -0.5659  0.2442 -0.7696
  602MOL0     H81207   6.397   9.170   8.620 -0.8239 -3.5076 -0.8327
  602MOL0     H81208   6.366   9.307   8.518 -0.7031  0.8863  1.2815
  602MOL0     H81209   6.143   9.261   8.562 -2.4770 -1.7457  0.1502
  602MOL0     H81210   6.189   9.173   8.414  2.1831  0.9835 -0.6328
  602MOL0     H81211   6.185   8.948   8.566  3.3312 -0.9356  4.9859
  602MOL0     H81212   6.196   9.055   8.701  1.3192  1.1684 -1.0774
  602MOL0     H81213   5.969   9.112   8.680  1.7231 -0.4946  0.6344
  602MOL0     H81214   5.946   9.039   8.524 -1.3356  3.0721  0.9803
  602MOL0     H81215   5.847   8.928   8.718  0.7866 -0.3125  3.7249
  602MOL0     H81216   5.929   8.824   8.612  3.4357 -2.0738  0.2244
  602MOL0     H81217   6.117   8.784   8.751  0.6974  0.3602  0.1064
  602MOL0     H81218   6.064   8.921   8.858 -2.4790  1.1029  1.9927
  602MOL0     H81219   5.910   8.656   8.825  0.6790 -0.7775  1.1442
  602MOL0     H81220   5.859   8.792   8.926  1.0517 -0.8165  2.8101
  602MOL0     H81221   6.166   8.558   8.905 -1.1914  1.1230 -0.3658
  602MOL0     H81222   6.228   8.468   9.303  2.6721 -1.6437  0.0785
  602MOL0     H81223   6.207   8.379   9.147  1.5337 -0.2206  0.4135
  602MOL0     H81224   6.436   8.507   9.258 -2.4172  0.4069  0.8748
  602MOL0     H81225   6.402   8.606   9.115  1.8984  2.4850  4.3540
  602MOL0     H81226   6.377   8.353   9.014  1.1080 -2.5460  0.4650
  602MOL0     H81227   6.476   8.311   9.156  4.2953 -0.9005 -0.2989
  602MOL0     H81228   6.559   8.510   8.937 -1.4141  1.1608  2.0671
  602MOL0     H81229   6.599   8.340   8.951 -0.6588  0.2041 -1.9784
  602MOL0     H81230   6.896   8.519   9.222 -1.2640 -3.0438  0.8807
  602MOL0     H81231   7.221   8.611   9.107 -1.4458 -0.4413 -1.6458
  602MOL0     H81232   7.115   8.616   9.251  4.8743  0.0559  3.1067
  602MOL0     H81233   7.188   8.470   9.222  0.4864  1.7083  1.9983
  602MOL0     H81234   7.295   8.342   8.510  0.1560  0.0806 -1.0857
  602MOL0     H81235   7.504   8.368   8.379 -1.4787  0.8802 -0.2696
  602MOL0     H81236   7.813   8.671   8.486 -3.7856 -0.6817  0.4364
  602MOL0     H81237   7.860   8.503   8.555 -0.6283  1.2858  1.3849
  602MOL0     H81238   8.019   8.571   8.422 -2.0019  0.3558  2.1137
  602MOL0     H81239   7.933   8.429   8.344 -1.7840 -0.9172  3.2632
  602MOL0     H81240   7.833   8.623   8.193  0.0091 -3.6735 -1.8707
  602MOL0     H81241   7.985   8.559   8.153 -0.4228 -1.7070  0.7319
  602MOL0     H81242   7.945   8.783   8.330  2.0664  1.3869  0.4452
  602MOL0     H81243   8.111   8.728   8.291  0.6250  1.3044  2.7868
  602MOL0     H81244   7.895   8.869   8.111 -0.2985  0.9037 -1.1445
  602MOL0     H81245   8.039   8.790   8.040  0.8219  0.1211 -0.2589
  602MOL0     H81246   8.052   8.994   8.280  0.9691 -2.6654  1.3187
  602MOL0     H81247   8.186   8.944   8.181 -1.1234 -1.4839 -1.8929
  602MOL0     H81248   7.967   9.142   8.121 -0.1608 -0.1546 -3.4026
  602MOL0     H81249   8.001   9.034   8.004 -0.0361  0.2968 -0.4431
  602MOL0     H81250   8.228   9.191   8.163 -3.0783 -0.1496  2.0992
  602MOL0     H81251   8.151   9.242   8.019 -0.0470 -0.9174 -1.8853
  602MOL0     H81252   7.656   8.643   8.670 -0.0458  3.9391 -4.2298
  602MOL0     H81253   7.463   8.634   8.788  4.3445  0.1272 -1.0224
  602MOL0     H81254   6.991   8.465   8.739 -1.1092 -1.7970 -0.6340
  602MOL0     H81255   6.758   8.434   8.825  0.8559 -1.2096  0.2414
  602MOL0     H81256   6.468   9.031   8.179  0.7805  1.6366 -0.4447
  602MOL0     H81257   6.612   8.902   8.003 -1.8700 -2.2243  2.3469
  602MOL0     H81258   7.087   8.878   7.945  0.4147 -1.5343  1.3447
  602MOL0     H81259   7.286   8.801   7.772 -0.2031  0.3584 -0.6419
  602MOL0     H81260   7.252   8.469   7.484 -0.1425 -1.0103 -2.4960
  602MOL0     H81261   7.189   8.610   7.413  2.2096  6.0518 -0.6891
  602MOL0     H81262   7.404   8.700   7.368  0.2133 -1.1302 -0.9265
  602MOL0     H81263   7.375   8.548   7.284 -0.4289  0.4126  0.2788
  602MOL0     H81264   7.525   8.520   7.546  0.2155  1.6189 -0.5734
  602MOL0     H81265   7.605   8.598   7.442 -0.6432  0.8719 -0.7631
  602MOL0     H81266   7.572   8.417   7.266  0.3603 -2.0470 -1.2415
  602MOL0     H81267   7.465   8.321   7.369  0.4832  1.3343  0.6287
  602MOL0     H81268   7.808   8.202   7.563  0.9335 -0.7221 -0.6097
  602MOL0     H81269   7.031   8.543   7.576  2.5939  3.2666 -2.5319
  602MOL0     H81270   6.831   8.623   7.738 -0.7695  2.6649 -0.8169
  603MOL0     O81271   2.250   5.434   3.095  0.5868  0.0349 -0.4333
  603MOL0     C81272   2.316   5.514   3.162 -0.8042  0.8280  0.7505
  603MOL0     O81273   2.446   5.533   3.158 -0.4766  0.4305  0.3838
  603MOL0     C81274   2.516   5.477   3.053 -0.3637  0.1828  1.0885
  603MOL0     C81275   2.539   5.336   3.038  0.6372 -0.0481 -0.2068
  603MOL0     C81276   2.612   5.278   2.936  1.6599 -0.6595  0.7483
  603MOL0     C81277   2.665   5.362   2.840  0.6063  0.1083 -0.5654
  603MOL0     O81278   2.758   5.323   2.750 -0.4012 -0.2926  0.2073
  603MOL0     C81279   2.763   5.183   2.713 -0.4462  0.8274  0.2097
  603MOL0     C81280   2.858   5.153   2.598 -0.0222  0.3555  0.1300
  603MOL0     C81281   2.994   5.116   2.670  0.0506 -0.6122  0.0671
  603MOL0     C81282   3.110   5.093   2.574 -1.2107  0.5868  0.6826
  603MOL0     C81283   3.243   5.106   2.651  0.1788  0.7542 -0.8960
  603MOL0     C81284   3.369   5.058   2.573  0.4024 -0.2551 -0.3266
  603MOL0     C81285   3.495   5.080   2.653  0.9203  0.0659 -0.3481
  603MOL0     C81286   3.635   5.034   2.589  0.4634 -0.2457 -0.3745
  603MOL0     N81287   3.624   4.899   2.524  0.5357 -1.0616 -0.1867
  603MOL0     C81288   3.640   4.781   2.582  0.5190  0.5259 -0.1958
  603MOL0     C81289   3.624   4.688   2.483  0.2799  0.4757  0.3534
  603MOL0     C81290   3.645   4.536   2.509 -0.1368  0.0399 -0.8224
  603MOL0     C81291   3.723   4.473   2.388  0.4468 -0.1020 -0.3453
  603MOL0     C81292   3.638   4.437   2.270  0.1361  0.1651  0.4083
  603MOL0     C81293   3.720   4.392   2.146 -0.3221 -0.1022 -0.2724
  603MOL0     O81294   3.835   4.296   2.150 -0.6127 -0.4848  0.3514
  603MOL0     C81295   3.814   4.162   2.120 -0.8314 -0.1880 -0.5380
  603MOL0     C81296   3.932   4.083   2.132 -0.5886 -0.7448 -0.0036
  603MOL0     C81297   3.935   3.946   2.107 -0.0065 -0.0069 -0.3533
  603MOL0     C81298   4.066   3.873   2.108  0.7671 -0.1949  0.1543
  603MOL0     C81299   3.812   3.886   2.082  0.0574  0.1694  0.2249
  603MOL0     C81300   3.812   3.742   2.053  0.2752  0.0032  0.7774
  603MOL0     O81301   3.865   3.664   2.154 -0.3068  0.3067 -0.0339
  603MOL0     C81302   3.824   3.674   2.282  0.1087 -0.4533 -0.2256
  603MOL0     C81303   3.911   3.624   2.377  0.0979  0.7654  0.6575
  603MOL0     C81304   3.879   3.620   2.512  0.2085 -0.3321 -0.0565
  603MOL0     C81305   3.756   3.678   2.556  0.7495  0.3221 -0.4378
  603MOL0     O81306   3.733   3.674   2.698  0.7535 -0.2935  0.2447
  603MOL0     C81307   3.599   3.693   2.743 -0.3347  0.3292 -0.5368
  603MOL0     C81308   3.592   3.686   2.894 -0.1313 -0.9882  1.1847
  603MOL0     C81309   3.640   3.830   2.946 -0.4693 -0.0638 -0.1977
  603MOL0     C81310   3.600   3.825   3.100 -0.9599 -0.4731  0.7773
  603MOL0     C81311   3.668   3.946   3.180  0.8242 -1.1494 -0.8431
  603MOL0     C81312   3.572   4.031   3.270  0.7529 -0.0628 -0.3727
  603MOL0     C81313   3.534   3.954   3.393 -0.2020  0.3653 -0.5919
  603MOL0     C81314   3.503   4.056   3.502  0.8938 -0.9519 -0.0573
  603MOL0    Cl81315   3.656   4.155   3.544  0.1429  0.1441  0.5541
  603MOL0     C81316   3.672   3.726   2.457  0.8178  0.7394  0.8383
  603MOL0     C81317   3.698   3.721   2.312 -0.1118 -0.2298 -0.3437
  603MOL0     O81318   3.785   3.699   1.940 -0.6207 -1.2780 -0.3467
  603MOL0     C81319   3.697   3.964   2.073  0.6925 -0.3068  0.2309
  603MOL0     C81320   3.694   4.099   2.088  0.2758 -0.1513  0.4010
  603MOL0     N81321   3.584   4.753   2.369  0.3521  0.0805 -0.3772
  603MOL0     N81322   3.582   4.880   2.398  0.8501 -0.4715  0.0757
  603MOL0     C81323   2.632   5.495   2.839  1.0309 -0.9958 -0.2852
  603MOL0     C81324   2.550   5.553   2.939 -0.6126  0.1663 -0.1928
  603MOL0     C81325   2.249   5.566   3.283 -0.6629 -1.3335 -0.0029
  603MOL0     C81326   2.297   5.560   3.418 -0.9816  0.0511 -0.3674
  603MOL0     C81327   2.230   5.627   3.517 -0.0769  0.0435  0.1695
  603MOL0     C81328   2.117   5.712   3.485  0.2130  0.1899 -0.8198
  603MOL0     O81329   2.047   5.780   3.575 -0.7792  0.5016 -0.2138
  603MOL0     C81330   2.127   5.874   3.663  0.1925  0.5723  0.2585
  603MOL0     C81331   2.108   6.026   3.632  0.5306  0.3080 -0.3660
  603MOL0     C81332   2.186   6.059   3.506  1.2202 -0.0927  1.4117
  603MOL0     C81333   2.151   6.204   3.490  0.0023 -0.3837  0.0221
  603MOL0     C81334   2.213   6.257   3.366  0.1666  0.1738 -0.1119
  603MOL0     C81335   2.291   6.302   3.273  0.6956  0.7336  0.1969
  603MOL0     C81336   2.070   5.715   3.349  0.0110  0.3147 -0.0400
  603MOL0     C81337   2.138   5.644   3.248  0.2685  0.1116 -0.9876
  603MOL0     H81338   2.505   5.280   3.125  3.9419 -2.5539 -0.3232
  603MOL0     H81339   2.642   5.174   2.942  4.6299  0.1502  1.2332
  603MOL0     H81340   2.800   5.119   2.794  6.5704  1.3678 -1.9065
  603MOL0     H81341   2.667   5.145   2.675  0.9344 -1.4889 -1.2122
  603MOL0     H81342   2.827   5.063   2.543 -1.9036 -1.6104  4.0284
  603MOL0     H81343   2.867   5.239   2.531 -1.3803  1.9892  1.9282
  603MOL0     H81344   3.008   5.194   2.746  0.9923  0.5734 -1.2588
  603MOL0     H81345   2.982   5.020   2.722  1.2933 -1.8438 -1.7866
  603MOL0     H81346   3.103   4.993   2.531  0.8850  1.0223 -0.8220
  603MOL0     H81347   3.108   5.158   2.487  1.5454  0.7521  0.6713
  603MOL0     H81348   3.261   5.213   2.663  0.5540  0.4818  1.6858
  603MOL0     H81349   3.244   5.055   2.748 -0.9334  1.1626 -0.6616
  603MOL0     H81350   3.352   4.953   2.551 -0.2736 -0.7274  2.1519
  603MOL0     H81351   3.377   5.129   2.490 -3.1390  1.9744  0.9793
  603MOL0     H81352   3.504   5.187   2.676  1.0352 -0.4530  2.4339
  603MOL0     H81353   3.488   5.031   2.751 -3.8377 -0.4192 -0.6863
  603MOL0     H81354   3.705   5.035   2.673 -0.4641  0.5799  0.4165
  603MOL0     H81355   3.659   5.104   2.508 -0.3553  3.1688  2.0978
  603MOL0     H81356   3.675   4.751   2.681  1.2447 -0.1178 -0.6361
  603MOL0     H81357   3.689   4.524   2.609  0.7692 -0.3654 -1.2556
  603MOL0     H81358   3.550   4.483   2.517  0.9613 -2.4596 -2.9007
  603MOL0     H81359   3.785   4.392   2.427 -0.1917 -0.5969 -0.3540
  603MOL0     H81360   3.793   4.551   2.355 -2.1387  2.2486 -0.6046
  603MOL0     H81361   3.578   4.523   2.239  2.7158  0.8786 -3.3127
  603MOL0     H81362   3.565   4.361   2.299 -1.9623  2.2694  0.9159
  603MOL0     H81363   3.763   4.486   2.109  1.5937  0.4234  2.9137
  603MOL0     H81364   3.649   4.350   2.075 -1.2991  0.8963  0.0658
  603MOL0     H81365   4.023   4.128   2.171 -0.9749 -0.2246  0.3262
  603MOL0     H81366   4.061   3.810   2.197 -2.8426  1.5326  1.4047
  603MOL0     H81367   4.074   3.809   2.020  2.7357 -1.2194  1.0060
  603MOL0     H81368   4.153   3.939   2.098  0.1968  0.3778 -1.3991
  603MOL0     H81369   4.010   3.592   2.346 -0.3252 -1.0913  1.1273
  603MOL0     H81370   3.943   3.578   2.588 -0.8709 -0.4176  0.8345
  603MOL0     H81371   3.546   3.782   2.707 -0.2959  0.0965 -1.1884
  603MOL0     H81372   3.535   3.614   2.703 -1.6217  1.6310 -1.1322
  603MOL0     H81373   3.486   3.670   2.915 -0.7968  2.5135  1.0426
  603MOL0     H81374   3.655   3.604   2.932 -2.0362 -2.2513  1.7897
  603MOL0     H81375   3.573   3.906   2.906 -1.7634  1.7044  4.5781
  603MOL0     H81376   3.742   3.855   2.917 -0.5107 -0.0078 -0.2954
  603MOL0     H81377   3.494   3.826   3.126 -0.8682 -1.9248  1.3238
  603MOL0     H81378   3.658   3.741   3.138 -0.6152 -1.4097 -1.6885
  603MOL0     H81379   3.721   4.022   3.122  0.2633  2.5934  3.0560
  603MOL0     H81380   3.742   3.901   3.247 -1.4072 -0.6641  2.1822
  603MOL0     H81381   3.621   4.121   3.308  0.5022 -0.9764  2.2817
  603MOL0     H81382   3.486   4.060   3.210 -0.4101 -1.5162  0.5205
  603MOL0     H81383   3.610   3.881   3.423 -1.3416 -0.7668 -0.3827
  603MOL0     H81384   3.436   3.907   3.384 -0.2366  0.4556 -0.6794
  603MOL0     H81385   3.459   4.015   3.593  3.1693 -1.3233  0.9356
  603MOL0     H81386   3.431   4.127   3.461  1.9545 -0.2928 -0.8570
  603MOL0     H81387   3.573   3.761   2.484 -0.7278 -1.5247 -1.3364
  603MOL0     H81388   3.623   3.752   2.240  0.6132  0.9921 -0.6025
  603MOL0     H81389   3.610   3.923   2.023  0.5306 -1.4447  1.3777
  603MOL0     H81390   3.602   4.157   2.085  0.7354  0.5317 -1.3155
  603MOL0     H81391   2.666   5.553   2.753  0.2217 -1.7568 -1.1285
  603MOL0     H81392   2.524   5.658   2.929 -1.7127 -0.0002  0.7185
  603MOL0     H81393   2.388   5.515   3.455 -0.1935  3.3139  2.1885
  603MOL0     H81394   2.269   5.620   3.618  1.6818 -0.9562 -0.5398
  603MOL0     H81395   2.112   5.865   3.771  0.2917 -0.6969  0.1705
  603MOL0     H81396   2.232   5.847   3.648  0.6697  2.7179 -0.6656
  603MOL0     H81397   2.143   6.086   3.716  1.9324 -1.6085  0.4949
  603MOL0     H81398   2.000   6.037   3.618  0.8211  2.3396 -1.4333
  603MOL0     H81399   2.156   5.995   3.423  0.5073  1.0461  0.7637
  603MOL0     H81400   2.292   6.040   3.528  1.2239 -2.8024 -0.5316
  603MOL0     H81401   2.189   6.265   3.573 -2.1884  2.3192 -0.8241
  603MOL0     H81402   2.042   6.206   3.480 -0.0696 -2.3917 -0.1169
  603MOL0     H81403   2.357   6.339   3.197 -0.1972  0.3338 -0.8004
  603MOL0     H81404   1.974   5.763   3.334  0.3596  1.3737  1.0310
  603MOL0     H81405   2.096   5.649   3.148 -0.1357  2.3505 -0.7661
  604MOL0     O81406   7.129   9.971   3.889  0.7674 -0.8769  0.2130
  604MOL0     C81407   7.201  10.071   3.900  0.0487  0.1526 -0.0532
  604MOL0     O81408   7.338  10.064   3.896 -0.1514 -0.1122 -0.7199
  604MOL0     C81409   7.418   9.959   3.842  0.5638  0.4256  0.3215
  604MOL0     C81410   7.378   9.851   3.769 -0.7462 -0.0826  0.1110
  604MOL0     C81411   7.470   9.767   3.710  0.2590 -0.3269  0.0331
  604MOL0     C81412   7.606   9.793   3.733 -0.3069  0.3416  0.4208
  604MOL0     O81413   7.697   9.697   3.695 -0.2120  0.2810  0.1819
  604MOL0     C81414   7.844   9.712   3.706 -1.0628 -0.0120  0.2218
  604MOL0     C81415   7.901   9.588   3.649 -0.6634  0.5148  0.3419
  604MOL0     C81416   7.934   9.585   3.498 -0.3304  0.3423  0.3404
  604MOL0     C81417   8.055   9.675   3.476  0.5972 -0.2548  0.0354
  604MOL0     C81418   8.173   9.631   3.388  0.8165 -0.2752  0.5614
  604MOL0     C81419   8.236   9.508   3.435  0.4295  0.1224  1.0367
  604MOL0     C81420   8.325   9.527   3.561  1.1719 -0.7125  0.4072
  604MOL0     C81421   8.351   9.387   3.625  0.0795  0.2755 -0.8660
  604MOL0     N81422   8.265   9.372   3.736 -0.7475  0.3372 -0.4738
  604MOL0     C81423   8.302   9.365   3.866  0.1375  0.6147 -0.8618
  604MOL0     C81424   8.186   9.359   3.938  0.0012 -0.2158 -0.8121
  604MOL0     C81425   8.167   9.332   4.085  0.0189  0.4586  0.0177
  604MOL0     C81426   8.273   9.405   4.160  0.4930  0.0992  0.5700
  604MOL0     C81427   8.257   9.385   4.313  0.0933 -0.4801 -0.1939
  604MOL0     C81428   8.312   9.496   4.398  0.1911 -0.0726  0.2001
  604MOL0     O81429   8.238   9.498   4.524 -0.8905  0.3041 -0.3495
  604MOL0     C81430   8.282   9.421   4.622 -0.1172  0.6456 -0.1752
  604MOL0     C81431   8.184   9.402   4.721  0.7712 -0.1909 -0.1102
  604MOL0     C81432   8.212   9.319   4.839  0.3988 -0.7428  0.0569
  604MOL0     C81433   8.109   9.311   4.950  1.0217  0.5725 -0.1381
  604MOL0     C81434   8.337   9.242   4.840  0.2114 -0.0711  0.7457
  604MOL0     C81435   8.377   9.146   4.943 -0.3099 -0.9350  0.2329
  604MOL0     O81436   8.492   9.079   4.917 -0.1505 -0.9146 -0.4162
  604MOL0     C81437   8.608   9.092   4.998  0.3699 -0.5785  0.1504
  604MOL0     C81438   8.630   9.197   5.080 -0.5413  0.4289 -0.2885
  604MOL0     C81439   8.758   9.200   5.152  0.0385  0.5900 -0.4481
  604MOL0     C81440   8.851   9.092   5.147  0.0462  0.1461  0.0175
  604MOL0     O81441   8.974   9.098   5.208  0.1000 -0.5007  0.9424
  604MOL0     C81442   8.980   9.120   5.348  0.2548 -0.5679  0.0897
  604MOL0     C81443   9.115   9.096   5.411 -0.1108  0.2887 -0.8221
  604MOL0     C81444   9.163   8.953   5.405 -0.4653 -1.0989 -0.9087
  604MOL0     C81445   9.220   8.910   5.269  0.7226 -0.1953  0.1553
  604MOL0     C81446   9.283   8.769   5.284 -0.0470 -0.1901 -0.1034
  604MOL0     C81447   9.182   8.655   5.313 -0.4115 -0.3084 -0.1366
  604MOL0     C81448   9.059   8.679   5.224 -1.1089 -1.6439  0.4122
  604MOL0     C81449   8.957   8.568   5.217  0.2164 -0.5531  0.1795
  604MOL0    Cl81450   9.030   8.441   5.130  0.0908 -0.2098  0.1431
  604MOL0     C81451   8.822   8.985   5.057 -0.1554  0.3389  0.2966
  604MOL0     C81452   8.704   8.990   4.989 -0.0943 -0.0590 -0.5832
  604MOL0     O81453   8.324   9.153   5.051 -0.6449  0.4122  0.6447
  604MOL0     C81454   8.423   9.247   4.728 -1.1629  0.5001 -0.1583
  604MOL0     C81455   8.395   9.337   4.628 -0.1804 -0.5722 -1.2924
  604MOL0     N81456   8.084   9.338   3.844  0.3744  0.1317  0.0992
  604MOL0     N81457   8.139   9.338   3.727  0.0667 -0.2468 -0.2147
  604MOL0     C81458   7.651   9.901   3.805 -0.6943  0.9132 -0.5870
  604MOL0     C81459   7.552   9.987   3.864 -0.3803 -0.4988 -0.5056
  604MOL0     C81460   7.135  10.204   3.900 -0.5523 -0.6509  0.0042
  604MOL0     C81461   6.995  10.205   3.937 -0.5216 -0.0735  0.1353
  604MOL0     C81462   6.925  10.322   3.943 -0.3198 -0.3607  0.9676
  604MOL0     C81463   6.988  10.438   3.899  0.1667 -0.0375 -0.1404
  604MOL0     O81464   6.897  10.544   3.890 -0.2723 -0.4997 -0.6218
  604MOL0     C81465   6.938  10.673   3.903 -0.4218 -0.6482 -0.8712
  604MOL0     C81466   7.010  10.710   4.039  0.4988  0.0278  0.7956
  604MOL0     C81467   6.912  10.679   4.149  0.7800  0.2387 -0.4399
  604MOL0     C81468   6.991  10.640   4.278 -0.5814 -0.1812 -0.4647
  604MOL0     C81469   7.011  10.492   4.289 -0.5967  0.5423  0.8465
  604MOL0     C81470   7.019  10.366   4.262  0.3012 -0.0209 -0.5401
  604MOL0     C81471   7.121  10.444   3.869  0.3794 -0.6701 -0.0209
  604MOL0     C81472   7.199  10.325   3.870  0.4769  0.0510  1.0603
  604MOL0     H81473   7.274   9.826   3.752 -1.5164  2.5287  0.5305
  604MOL0     H81474   7.437   9.679   3.655 -0.4387 -0.0209 -0.0472
  604MOL0     H81475   7.891   9.793   3.650  0.3292 -0.1056  1.1858
  604MOL0     H81476   7.880   9.730   3.808 -2.0123  0.2126  0.5228
  604MOL0     H81477   7.989   9.549   3.701 -1.0158 -2.0438 -0.7682
  604MOL0     H81478   7.823   9.512   3.665 -0.6465  0.4736  0.2326
  604MOL0     H81479   7.943   9.483   3.460 -3.1053  0.4592 -0.8754
  604MOL0     H81480   7.848   9.635   3.452  0.3264  0.0960 -1.2229
  604MOL0     H81481   8.012   9.767   3.435  2.4058  1.1262  1.0958
  604MOL0     H81482   8.093   9.704   3.575 -0.7817 -0.4955  0.6611
  604MOL0     H81483   8.128   9.612   3.290  3.1076  0.7258 -0.7692
  604MOL0     H81484   8.242   9.715   3.376 -0.7900  0.8072 -1.6667
  604MOL0     H81485   8.159   9.432   3.447 -0.5015  0.6284 -1.2111
  604MOL0     H81486   8.295   9.470   3.351 -1.7118  0.1258 -0.5765
  604MOL0     H81487   8.410   9.583   3.522 -0.9238  0.7965 -2.3702
  604MOL0     H81488   8.269   9.584   3.636  3.3614  2.7843 -0.3788
  604MOL0     H81489   8.450   9.387   3.673 -0.6373  1.8114  0.6918
  604MOL0     H81490   8.322   9.302   3.563  1.3061 -0.4538 -0.4705
  604MOL0     H81491   8.399   9.374   3.914 -0.2756 -0.1585  0.1182
  604MOL0     H81492   8.070   9.367   4.120  0.5506  2.7333 -0.6104
  604MOL0     H81493   8.172   9.225   4.109  0.3542  0.3539 -0.5007
  604MOL0     H81494   8.273   9.513   4.143  1.3920 -0.4067 -3.5863
  604MOL0     H81495   8.370   9.363   4.133  0.1344 -0.1952 -0.3050
  604MOL0     H81496   8.308   9.295   4.350  1.4902  1.5113  3.3211
  604MOL0     H81497   8.151   9.376   4.338  0.2537 -0.3077  0.5912
  604MOL0     H81498   8.305   9.588   4.339  1.0766 -1.5120 -2.3060
  604MOL0     H81499   8.420   9.491   4.410  0.1845  1.3612  1.1496
  604MOL0     H81500   8.091   9.458   4.714 -0.6580 -2.4445 -0.2602
  604MOL0     H81501   8.079   9.210   4.978 -0.5685  0.6943 -1.2646
  604MOL0     H81502   8.165   9.359   5.031  0.0562 -2.7661  2.7375
  604MOL0     H81503   8.022   9.373   4.926  0.0158 -0.9867 -0.6602
  604MOL0     H81504   8.562   9.280   5.096  1.8367  2.3397  0.7570
  604MOL0     H81505   8.787   9.295   5.194  0.7622  1.3723 -2.5676
  604MOL0     H81506   8.949   9.225   5.350  1.3871 -0.0235 -3.3856
  604MOL0     H81507   8.902   9.063   5.400  0.6185  1.5267  3.1415
  604MOL0     H81508   9.194   9.161   5.370 -0.1390  0.8169 -0.0626
  604MOL0     H81509   9.118   9.118   5.518 -1.4116  2.1707 -1.1335
  604MOL0     H81510   9.086   8.891   5.451 -0.0704 -0.2372  1.0022
  604MOL0     H81511   9.242   8.942   5.480 -1.4749 -1.1410  0.1770
  604MOL0     H81512   9.149   8.908   5.186  0.8046 -0.9558  0.0957
  604MOL0     H81513   9.307   8.972   5.245 -0.9714  2.5641  0.6244
  604MOL0     H81514   9.355   8.759   5.366 -0.3010  1.8055  0.4184
  604MOL0     H81515   9.337   8.743   5.192  0.6802 -0.9201  0.5125
  604MOL0     H81516   9.221   8.554   5.298 -2.5199 -1.2409  0.1741
  604MOL0     H81517   9.159   8.668   5.420  0.9372 -2.1772  0.4256
  604MOL0     H81518   9.091   8.707   5.123  1.2770  1.2380  1.8054
  604MOL0     H81519   9.013   8.769   5.266  2.9537  0.2450  1.2692
  604MOL0     H81520   8.870   8.591   5.154 -1.6861 -2.7088  1.8498
  604MOL0     H81521   8.926   8.528   5.314  3.1621 -1.8554  0.7053
  604MOL0     H81522   8.890   8.902   5.042 -1.1022 -0.2350 -1.0043
  604MOL0     H81523   8.673   8.905   4.929  1.7470  0.2303 -2.0384
  604MOL0     H81524   8.515   9.193   4.712 -0.8119  0.8613  0.5836
  604MOL0     H81525   8.454   9.332   4.537  0.3723 -0.4415 -0.9446
  604MOL0     H81526   7.756   9.918   3.823  0.3083 -1.0982 -3.7191
  604MOL0     H81527   7.573  10.076   3.923 -0.9918 -1.1849  0.8076
  604MOL0     H81528   6.949  10.112   3.967  0.4268  0.0604  2.1939
  604MOL0     H81529   6.817  10.319   3.951 -0.6030  0.7485 -1.5148
  604MOL0     H81530   6.994  10.686   3.810  2.0311 -0.8006  0.5017
  604MOL0     H81531   6.848  10.733   3.885  1.1737  1.1291 -3.8243
  604MOL0     H81532   7.025  10.818   4.037  3.5903 -0.2487  2.2224
  604MOL0     H81533   7.101  10.653   4.062  0.0324 -0.2931  1.9081
  604MOL0     H81534   6.842  10.596   4.138  2.1219 -0.9629 -0.2368
  604MOL0     H81535   6.861  10.774   4.164 -0.4081 -0.2499 -1.2359
  604MOL0     H81536   6.925  10.660   4.362 -1.3935 -1.1108 -0.8673
  604MOL0     H81537   7.086  10.693   4.296 -1.1121  0.3297  0.9846
  604MOL0     H81538   7.034  10.260   4.261  2.9193  0.2304  1.4005
  604MOL0     H81539   7.150  10.542   3.833 -1.4393  0.2379  0.8217
  604MOL0     H81540   7.302  10.315   3.838 -0.5739 -1.8563 -2.2325
  605MOL0     O81541  10.653   7.447   0.398  0.1311  0.1753 -0.1307
  605MOL0     C81542  10.661   7.414   0.280 -0.0709 -0.3506  0.2353
  605MOL0     O81543  10.641   7.289   0.228 -0.4518 -0.1047 -0.1213
  605MOL0     C81544  10.584   7.195   0.306 -0.4141  0.0985  0.2660
  605MOL0     C81545  10.631   7.064   0.306 -0.5301 -1.8015  0.8083
  605MOL0     C81546  10.597   6.978   0.403  0.6464  1.0387 -0.2205
  605MOL0     C81547  10.483   7.008   0.483 -1.0105  0.1113  0.6091
  605MOL0     O81548  10.452   6.913   0.569  0.4260  0.5180 -0.1699
  605MOL0     C81549  10.425   6.955   0.702 -0.7774 -0.4610 -0.1131
  605MOL0     C81550  10.518   6.871   0.788  0.3757  0.8565 -0.1308
  605MOL0     C81551  10.497   6.717   0.772  0.0858  0.1852 -0.9349
  605MOL0     C81552  10.589   6.643   0.869 -0.2140 -0.4471 -0.4079
  605MOL0     C81553  10.569   6.495   0.883  0.9930  0.0908 -0.4065
  605MOL0     C81554  10.571   6.419   0.753 -0.3233  0.4282 -0.1374
  605MOL0     C81555  10.720   6.382   0.713  1.1297 -0.3198 -1.4994
  605MOL0     C81556  10.709   6.296   0.588  1.1713 -0.5325 -1.2312
  605MOL0     N81557  10.668   6.163   0.629  0.0867  0.7418  0.0352
  605MOL0     C81558  10.540   6.114   0.653  0.7668  0.5206 -0.4057
  605MOL0     C81559  10.562   5.980   0.674  0.0840  0.8588  1.0175
  605MOL0     C81560  10.448   5.883   0.672  0.0171 -0.6139 -0.8833
  605MOL0     C81561  10.408   5.833   0.534  0.2779 -0.3799  0.5092
  605MOL0     C81562  10.272   5.765   0.537  0.8429 -0.5007 -0.5244
  605MOL0     C81563  10.278   5.622   0.580  0.3565  0.5606  0.1978
  605MOL0     O81564  10.149   5.566   0.588  1.1377 -0.6776 -0.2725
  605MOL0     C81565  10.092   5.512   0.473  0.8996 -0.1764 -0.2748
  605MOL0     C81566  10.137   5.507   0.336 -0.2281 -0.9454 -0.0798
  605MOL0     C81567  10.067   5.437   0.238 -0.1725 -1.3939  0.3307
  605MOL0     C81568  10.132   5.431   0.103  0.0889 -0.5533 -0.0647
  605MOL0     C81569   9.948   5.368   0.274  0.1439  0.0425  0.6552
  605MOL0     C81570   9.868   5.284   0.182 -0.0531 -0.6829  0.6977
  605MOL0     O81571   9.793   5.182   0.243 -0.0624  0.5362 -0.6094
  605MOL0     C81572   9.729   5.098   0.168  0.7029  0.6249  0.9268
  605MOL0     C81573   9.760   4.967   0.139  0.0982 -0.5384  0.4058
  605MOL0     C81574   9.682   4.880   0.055  0.0169 -0.4128 -0.2073
  605MOL0     C81575   9.564   4.926  -0.004 -0.4572 -0.1704 -0.0760
  605MOL0     O81576   9.503   4.834  -0.084  0.0604  0.3835 -0.6024
  605MOL0     C81577   9.357   4.829  -0.071 -0.2396 -1.2994  0.0221
  605MOL0     C81578   9.284   4.807  -0.209 -1.3145 -0.2425 -0.7506
  605MOL0     C81579   9.133   4.834  -0.179 -0.4137  0.0630  0.2273
  605MOL0     C81580   9.062   4.872  -0.308  0.5059  0.0928  0.3335
  605MOL0     C81581   8.925   4.790  -0.329 -0.6016 -0.0295  0.8192
  605MOL0     C81582   8.973   4.651  -0.377  0.7650 -0.2034  0.5479
  605MOL0     C81583   8.853   4.558  -0.384  0.4792 -0.2355 -0.2983
  605MOL0     C81584   8.887   4.415  -0.398 -0.9410 -0.7542  0.0890
  605MOL0    Cl81585   8.921   4.344  -0.237 -0.2953  0.0375 -0.0130
  605MOL0     C81586   9.524   5.058   0.034 -0.5153  0.0418  0.8593
  605MOL0     C81587   9.607   5.145   0.111 -0.0918  0.5277 -0.7341
  605MOL0     O81588   9.865   5.314   0.059 -0.0048  0.3659  0.4262
  605MOL0     C81589   9.906   5.371   0.401  0.0452  0.2245 -0.4152
  605MOL0     C81590   9.978   5.436   0.505 -0.0778 -0.0656  0.7383
  605MOL0     N81591  10.696   5.956   0.678 -0.7284 -0.0882 -0.9006
  605MOL0     N81592  10.757   6.065   0.658 -0.2266  0.7759  0.6705
  605MOL0     C81593  10.416   7.129   0.463 -0.6688 -0.5113 -0.0455
  605MOL0     C81594  10.469   7.222   0.379  0.0575 -0.9708  1.2846
  605MOL0     C81595  10.696   7.520   0.182  0.7569 -1.2456 -0.6321
  605MOL0     C81596  10.676   7.507   0.048  0.0602 -0.8445 -0.5730
  605MOL0     C81597  10.683   7.615  -0.047 -0.0904  0.0492  0.6785
  605MOL0     C81598  10.707   7.744  -0.000 -0.2764 -0.5595  0.3987
  605MOL0     O81599  10.718   7.855  -0.084 -0.0440  0.2757  0.0361
  605MOL0     C81600  10.722   7.823  -0.219 -0.1484  0.7628 -0.7534
  605MOL0     C81601  10.762   7.947  -0.293  0.1202  0.6529 -0.1221
  605MOL0     C81602  10.803   7.906  -0.437 -0.2611 -0.2405 -0.0170
  605MOL0     C81603  10.875   8.020  -0.502 -0.4978  0.3900  0.5715
  605MOL0     C81604  10.811   8.052  -0.630 -0.3825 -0.6852  0.7604
  605MOL0     C81605  10.769   8.077  -0.735  0.7342  0.4866  0.0260
  605MOL0     C81606  10.743   7.763   0.134  0.7024 -0.2514  0.0776
  605MOL0     C81607  10.741   7.656   0.220  0.4941  0.9587 -0.5490
  605MOL0     H81608  10.711   7.051   0.233  0.1194  2.9993  0.3047
  605MOL0     H81609  10.641   6.881   0.424 -0.1735  0.8392  0.6377
  605MOL0     H81610  10.456   7.059   0.718  1.0199 -1.2084  1.6543
  605MOL0     H81611  10.318   6.937   0.720 -1.3197  1.1061 -1.4291
  605MOL0     H81612  10.623   6.900   0.774  0.7940 -0.1165  0.7852
  605MOL0     H81613  10.499   6.890   0.894  1.4807 -2.8525  0.8776
  605MOL0     H81614  10.393   6.685   0.778 -0.8138  1.8101 -4.6934
  605MOL0     H81615  10.524   6.690   0.670 -0.1460 -0.9693 -0.7048
  605MOL0     H81616  10.692   6.677   0.860  0.7614 -0.2838  6.0446
  605MOL0     H81617  10.549   6.682   0.963  1.2815 -1.8175  0.8584
  605MOL0     H81618  10.631   6.452   0.962 -0.8735 -0.3024  0.8961
  605MOL0     H81619  10.466   6.489   0.917  0.7033  1.8462 -0.9011
  605MOL0     H81620  10.523   6.325   0.784  2.4430 -1.6361 -1.6582
  605MOL0     H81621  10.520   6.469   0.670  1.6537 -0.5573 -2.0635
  605MOL0     H81622  10.762   6.482   0.695  2.1734 -0.4231  0.1461
  605MOL0     H81623  10.773   6.328   0.792  0.8563 -2.0390 -2.4429
  605MOL0     H81624  10.812   6.304   0.552  2.0434  1.6433  1.3779
  605MOL0     H81625  10.641   6.346   0.518  1.4910  3.9693  1.2571
  605MOL0     H81626  10.443   6.160   0.640 -0.4329 -2.2628 -2.2980
  605MOL0     H81627  10.484   5.803   0.737  1.9790  0.7730 -0.1621
  605MOL0     H81628  10.363   5.933   0.720  1.4628  2.7671 -1.6117
  605MOL0     H81629  10.477   5.752   0.509 -0.7263 -0.9923 -0.3612
  605MOL0     H81630  10.407   5.917   0.464  2.0733  2.0617  3.1597
  605MOL0     H81631  10.231   5.776   0.436  0.5168  3.4868 -0.1105
  605MOL0     H81632  10.204   5.820   0.602  0.0866 -5.0412  3.0544
  605MOL0     H81633  10.329   5.622   0.676  0.9298  1.8228 -0.0782
  605MOL0     H81634  10.338   5.572   0.503  1.4711  3.1472 -0.7519
  605MOL0     H81635  10.233   5.553   0.313 -0.9203  0.0507 -1.0708
  605MOL0     H81636  10.075   5.475   0.021  1.4052  0.5425 -0.4353
  605MOL0     H81637  10.232   5.476   0.099 -0.5920  1.1130  0.7136
  605MOL0     H81638  10.147   5.326   0.074  0.6492 -0.6884  0.6670
  605MOL0     H81639   9.842   4.917   0.189  1.8865 -0.0910 -1.8829
  605MOL0     H81640   9.718   4.778   0.046  2.2884  0.4767 -1.9967
  605MOL0     H81641   9.340   4.736  -0.016  0.5395 -1.5159 -0.0876
  605MOL0     H81642   9.317   4.912  -0.012  1.2818 -1.7918  1.8589
  605MOL0     H81643   9.325   4.870  -0.289 -1.6524  0.1862 -0.5875
  605MOL0     H81644   9.296   4.706  -0.249 -0.0561  0.4536 -2.2795
  605MOL0     H81645   9.125   4.907  -0.098 -0.1801 -0.2200  0.5065
  605MOL0     H81646   9.092   4.736  -0.152  1.8687 -1.2173 -0.6659
  605MOL0     H81647   9.047   4.980  -0.318  0.1268  0.0919  0.8515
  605MOL0     H81648   9.119   4.841  -0.396  0.3170  3.2531 -1.0334
  605MOL0     H81649   8.861   4.838  -0.403 -2.1267 -0.9727  1.4633
  605MOL0     H81650   8.863   4.785  -0.239 -1.1080 -0.4612  0.4535
  605MOL0     H81651   9.026   4.650  -0.473  0.6339  2.4763  0.3703
  605MOL0     H81652   9.036   4.605  -0.299  1.9475  0.8076  0.2157
  605MOL0     H81653   8.795   4.585  -0.473  2.3197 -1.0828 -1.8243
  605MOL0     H81654   8.790   4.576  -0.297  0.4574  0.1434 -0.3877
  605MOL0     H81655   8.964   4.390  -0.472  0.5856  1.6816  0.7531
  605MOL0     H81656   8.796   4.376  -0.444 -0.9746 -0.0434 -0.4664
  605MOL0     H81657   9.439   5.103  -0.016  1.9733  0.3114 -3.6782
  605MOL0     H81658   9.569   5.241   0.142  1.1303  1.0889 -0.9022
  605MOL0     H81659   9.819   5.314   0.434  2.0693 -2.3085  0.9859
  605MOL0     H81660   9.937   5.438   0.605  0.9268 -2.4307  1.2702
  605MOL0     H81661  10.314   7.142   0.497 -0.9002  1.3117 -1.2759
  605MOL0     H81662  10.418   7.317   0.394 -0.0946 -1.3695  3.8579
  605MOL0     H81663  10.647   7.414   0.000  0.2190  0.2929 -3.0427
  605MOL0     H81664  10.644   7.601  -0.147  0.3209 -2.2998  0.7890
  605MOL0     H81665  10.789   7.738  -0.239 -1.9490 -0.5917 -1.2812
  605MOL0     H81666  10.620   7.805  -0.252 -0.2984  3.8114 -2.3454
  605MOL0     H81667  10.851   7.988  -0.245  1.2077 -3.4878  1.8408
  605MOL0     H81668  10.681   8.020  -0.304 -0.0612  0.9764  2.6286
  605MOL0     H81669  10.707   7.886  -0.485  0.3854 -2.4989 -0.4859
  605MOL0     H81670  10.862   7.815  -0.445  2.7164  1.5470  0.1967
  605MOL0     H81671  10.975   7.978  -0.519 -0.9190  0.6058 -3.1350
  605MOL0     H81672  10.880   8.113  -0.445  1.7505  0.4823  0.3156
  605MOL0     H81673  10.715   8.097  -0.826 -0.8797  0.2949  0.8908
  605MOL0     H81674  10.767   7.860   0.176 -1.1521  1.7832 -3.0654
  605MOL0     H81675  10.754   7.678   0.325 -0.9201 -0.6566  0.0170
  606MOL0     O81676  10.268   0.975   7.007  0.4893 -0.3701 -0.7670
  606MOL0     C81677  10.205   1.023   7.105  0.9932  0.1902  1.0325
  606MOL0     O81678  10.190   0.961   7.224 -0.6205 -0.0074 -0.0977
  606MOL0     C81679  10.301   0.907   7.284 -0.0836  0.5196 -0.7677
  606MOL0     C81680  10.371   0.796   7.230 -0.4653 -0.6405 -0.2630
  606MOL0     C81681  10.488   0.750   7.292  0.1318 -0.4544 -0.6160
  606MOL0     C81682  10.552   0.825   7.389 -0.5873  0.1789 -0.9567
  606MOL0     O81683  10.669   0.793   7.452  0.0707 -0.4664  0.3172
  606MOL0     C81684  10.766   0.724   7.369  0.0485  0.2240 -0.0425
  606MOL0     C81685  10.857   0.650   7.470 -0.4294 -0.4633  0.6112
  606MOL0     C81686  10.781   0.545   7.553  0.1687  0.6534 -0.2053
  606MOL0     C81687  10.865   0.475   7.660 -0.3288 -0.5215  0.1178
  606MOL0     C81688  10.781   0.379   7.735 -1.1962  0.3984  0.1202
  606MOL0     C81689  10.818   0.232   7.703  0.0975  0.0545 -0.4132
  606MOL0     C81690  10.952   0.182   7.759 -0.2482 -0.0304  0.7770
  606MOL0     C81691  10.975   0.184   7.911 -0.8452  0.5108  0.2769
  606MOL0     N81692  11.107   0.126   7.933 -1.0730  0.7567 -0.0365
  606MOL0     C81693  11.225   0.193   7.924  0.2241  0.1627 -0.5428
  606MOL0     C81694  11.313   0.092   7.905  0.7331 -0.9855 -0.0089
  606MOL0     C81695  11.462   0.102   7.915  0.2027 -0.5990  0.6523
  606MOL0     C81696  11.554  -0.015   7.918  0.0044 -0.1405 -0.1458
  606MOL0     C81697  11.565  -0.091   7.778  0.1179  0.1293 -0.4955
  606MOL0     C81698  11.672  -0.193   7.775 -0.2544 -1.0357 -1.0574
  606MOL0     O81699  11.672  -0.299   7.676  0.0776 -0.3397 -0.5944
  606MOL0     C81700  11.767  -0.397   7.693 -0.4900 -0.4761 -0.4485
  606MOL0     C81701  11.723  -0.525   7.673 -0.1450 -0.0312  0.3648
  606MOL0     C81702  11.808  -0.629   7.680 -0.1430 -0.0751 -0.5717
  606MOL0     C81703  11.743  -0.759   7.644 -0.5616 -0.2944  0.4427
  606MOL0     C81704  11.946  -0.616   7.720 -0.1421  0.0661  0.9072
  606MOL0     C81705  12.031  -0.733   7.740  1.1851  0.3175  0.4606
  606MOL0     O81706  12.035  -0.835   7.651  0.2318  0.0475 -0.1629
  606MOL0     C81707  12.115  -0.948   7.671  0.3021  0.2245 -0.6311
  606MOL0     C81708  12.036  -1.063   7.668 -0.3619  1.0283  0.3106
  606MOL0     C81709  12.105  -1.184   7.696 -0.1359  0.8218  0.5298
  606MOL0     C81710  12.253  -1.185   7.715  0.7405  0.7688  0.0399
  606MOL0     O81711  12.312  -1.313   7.735  0.0929 -0.8691  1.1954
  606MOL0     C81712  12.451  -1.321   7.744 -0.2300 -0.2297  0.3272
  606MOL0     C81713  12.500  -1.464   7.744 -0.6618 -0.8419 -0.0986
  606MOL0     C81714  12.648  -1.479   7.801 -0.0915  0.1633  0.3104
  606MOL0     C81715  12.680  -1.622   7.787  0.3449  0.2838  0.3164
  606MOL0     C81716  12.819  -1.660   7.835 -0.4052 -0.3303  0.5382
  606MOL0     C81717  12.860  -1.796   7.832  0.1480  0.3116 -0.4827
  606MOL0     C81718  12.875  -1.857   7.695 -0.4744 -0.3851 -0.9152
  606MOL0     C81719  12.950  -1.994   7.691 -0.5915  0.2613  0.3267
  606MOL0    Cl81720  12.860  -2.134   7.738 -0.5526  0.3794 -0.0766
  606MOL0     C81721  12.323  -1.068   7.723  0.7286  0.9383 -0.6106
  606MOL0     C81722  12.252  -0.949   7.689  0.2296 -0.2153 -0.5717
  606MOL0     O81723  12.098  -0.727   7.841 -0.2546 -0.1014  0.2531
  606MOL0     C81724  11.986  -0.482   7.742  0.1741 -0.7372 -0.7336
  606MOL0     C81725  11.899  -0.373   7.723  0.4660 -0.3871 -0.0400
  606MOL0     N81726  11.247  -0.032   7.911  0.0463  0.5453 -0.6449
  606MOL0     N81727  11.128  -0.010   7.925  0.6219  0.1085  0.5303
  606MOL0     C81728  10.486   0.931   7.453  0.2660  0.3435  0.4459
  606MOL0     C81729  10.364   0.975   7.394 -0.1184  0.5157 -0.2587
  606MOL0     C81730  10.125   1.135   7.073  0.3094  1.0285 -0.2121
  606MOL0     C81731  10.123   1.195   6.952  0.0827 -0.0606 -0.7727
  606MOL0     C81732  10.041   1.311   6.927  0.1345  0.4499 -0.8740
  606MOL0     C81733   9.959   1.362   7.025  0.4106  0.1121  0.4617
  606MOL0     O81734   9.888   1.481   6.982  0.2560 -0.5215 -0.4328
  606MOL0     C81735   9.853   1.577   7.083 -0.7438  0.3957 -0.0936
  606MOL0     C81736   9.827   1.712   7.006  0.2590 -0.1756  0.3945
  606MOL0     C81737   9.955   1.755   6.939 -0.1340 -0.4123  0.1142
  606MOL0     C81738   9.930   1.877   6.853  0.3935  0.5021  0.9945
  606MOL0     C81739   9.873   1.994   6.925  0.7471  0.3529 -1.1415
  606MOL0     C81740   9.843   2.082   7.004 -0.1452 -0.1397  0.9094
  606MOL0     C81741   9.956   1.301   7.152 -0.2466 -0.6753  0.3687
  606MOL0     C81742  10.035   1.188   7.170 -0.3737  1.4283  0.7595
  606MOL0     H81743  10.335   0.761   7.133 -2.1985  0.3720 -0.0372
  606MOL0     H81744  10.538   0.663   7.250 -0.9031 -0.6188 -1.5574
  606MOL0     H81745  10.725   0.646   7.304 -1.4978 -1.1307  2.3928
  606MOL0     H81746  10.814   0.807   7.317 -0.0367 -0.0324 -0.5316
  606MOL0     H81747  10.953   0.618   7.429  0.5769  1.0552  1.6598
  606MOL0     H81748  10.893   0.727   7.539 -0.0799  0.5276 -0.6337
  606MOL0     H81749  10.698   0.593   7.605  2.6418  2.0966  2.7087
  606MOL0     H81750  10.750   0.467   7.482  1.3548 -0.3180  0.3052
  606MOL0     H81751  10.959   0.437   7.619  0.8375  1.6359  0.5896
  606MOL0     H81752  10.900   0.552   7.730 -0.3240 -0.7039  0.3206
  606MOL0     H81753  10.780   0.395   7.843 -1.2416  2.0949 -0.1047
  606MOL0     H81754  10.680   0.381   7.693 -0.5830 -0.1545 -1.4490
  606MOL0     H81755  10.736   0.174   7.745  1.6356 -0.0035  2.8013
  606MOL0     H81756  10.800   0.215   7.597 -3.2931  1.5985 -0.2277
  606MOL0     H81757  10.949   0.076   7.736 -1.2412  0.2764 -0.6728
  606MOL0     H81758  11.037   0.233   7.712 -1.5153  0.1524 -1.4470
  606MOL0     H81759  10.899   0.118   7.954 -0.8995 -0.7817 -1.6745
  606MOL0     H81760  10.976   0.288   7.945 -0.4271  0.5927  0.0201
  606MOL0     H81761  11.241   0.301   7.928  2.0334  0.2849 -4.9339
  606MOL0     H81762  11.503   0.173   7.843  1.7081 -0.8807  1.1979
  606MOL0     H81763  11.479   0.148   8.013 -0.4524 -1.7388  1.3213
  606MOL0     H81764  11.521  -0.078   8.001 -1.0181  1.3587  0.6220
  606MOL0     H81765  11.648   0.028   7.950 -0.1299  1.2665 -1.5325
  606MOL0     H81766  11.586  -0.022   7.695  1.5750 -1.6337 -1.6732
  606MOL0     H81767  11.470  -0.144   7.763  1.2216 -1.4170 -2.5014
  606MOL0     H81768  11.664  -0.241   7.873 -0.2560  1.9470  0.5272
  606MOL0     H81769  11.763  -0.132   7.781 -1.1991  0.2829  4.0100
  606MOL0     H81770  11.617  -0.543   7.657 -0.5669  1.1081  1.6686
  606MOL0     H81771  11.800  -0.808   7.564 -0.6058  2.4436 -1.4099
  606MOL0     H81772  11.738  -0.828   7.729 -3.8031  2.0302  2.3719
  606MOL0     H81773  11.640  -0.752   7.605  0.1196  1.4222 -1.1926
  606MOL0     H81774  11.929  -1.071   7.650 -0.3442 -1.8187  0.9816
  606MOL0     H81775  12.033  -1.265   7.701 -1.1124  1.3579 -2.7118
  606MOL0     H81776  12.491  -1.259   7.663 -1.2285  0.8019  0.6044
  606MOL0     H81777  12.489  -1.284   7.840  1.4731 -3.7633  1.2104
  606MOL0     H81778  12.440  -1.529   7.809  0.5466 -0.0686  1.8751
  606MOL0     H81779  12.509  -1.500   7.641  1.3500  2.4157 -1.2165
  606MOL0     H81780  12.666  -1.446   7.903 -0.7451  0.7019  0.2517
  606MOL0     H81781  12.714  -1.432   7.728 -1.0251  0.6205 -0.2514
  606MOL0     H81782  12.613  -1.689   7.842  0.9035 -1.3069 -0.8628
  606MOL0     H81783  12.655  -1.637   7.682 -0.4132  2.1260  0.1882
  606MOL0     H81784  12.821  -1.634   7.941 -1.5948  0.4352  0.3873
  606MOL0     H81785  12.896  -1.603   7.782 -0.1017 -0.6636  0.6114
  606MOL0     H81786  12.959  -1.807   7.876  0.4779 -0.4939 -1.3802
  606MOL0     H81787  12.781  -1.853   7.883  0.7154  0.8346  1.0316
  606MOL0     H81788  12.938  -1.796   7.629 -1.3260  2.7892  0.9619
  606MOL0     H81789  12.777  -1.882   7.655 -0.9128  2.3534 -1.7787
  606MOL0     H81790  13.035  -1.969   7.755  0.1573  0.3543 -0.6749
  606MOL0     H81791  12.991  -1.996   7.589 -2.3773  0.9525 -0.4599
  606MOL0     H81792  12.430  -1.072   7.741  0.6744  2.0392  0.0525
  606MOL0     H81793  12.299  -0.852   7.700 -4.1556  2.0923  0.1772
  606MOL0     H81794  12.091  -0.471   7.767 -0.0565  1.2253 -0.4246
  606MOL0     H81795  11.942  -0.275   7.738 -2.4478  0.7778  1.7272
  606MOL0     H81796  10.517   0.985   7.541  1.0787  0.0872  0.3198
  606MOL0     H81797  10.322   1.068   7.430  2.9438  1.1286  2.1584
  606MOL0     H81798  10.187   1.158   6.872 -0.5568 -1.0122 -0.8585
  606MOL0     H81799  10.028   1.368   6.835 -3.4997  1.3800  0.0411
  606MOL0     H81800   9.766   1.544   7.140  0.4597  0.3042  1.7742
  606MOL0     H81801   9.934   1.586   7.156 -1.3932  0.2757  0.6518
  606MOL0     H81802   9.781   1.786   7.072  1.1381 -0.8485  1.8319
  606MOL0     H81803   9.747   1.685   6.937  0.9193 -3.1966  0.6417
  606MOL0     H81804  10.001   1.690   6.864  0.3802  2.3122 -2.1042
  606MOL0     H81805  10.027   1.772   7.020 -0.8435  0.2068  0.6273
  606MOL0     H81806   9.872   1.860   6.762 -2.1536  3.2597  1.9537
  606MOL0     H81807  10.035   1.891   6.825  0.7050 -0.5555  1.6045
  606MOL0     H81808   9.808   2.152   7.077  0.9298  0.4170  0.9054
  606MOL0     H81809   9.894   1.347   7.229 -0.4137 -1.4215  0.6937
  606MOL0     H81810  10.009   1.139   7.263 -0.0835 -1.9441 -0.7826
  607MOL0     O81811   0.423   1.378   0.743 -0.0979  0.9437  0.0256
  607MOL0     C81812   0.476   1.430   0.841  0.5295  1.0265  0.0465
  607MOL0     O81813   0.446   1.391   0.971  0.1039  0.2576  0.1762
  607MOL0     C81814   0.357   1.291   0.997  0.1809  0.5439 -0.3215
  607MOL0     C81815   0.376   1.167   0.944  0.5010  0.0231  0.7288
  607MOL0     C81816   0.272   1.072   0.965  0.0128  0.8299 -0.2053
  607MOL0     C81817   0.153   1.106   1.037  0.1517 -0.1831 -0.4244
  607MOL0     O81818   0.066   1.009   1.058 -0.0378 -1.4902  0.2635
  607MOL0     C81819  -0.036   1.021   1.158  0.3951 -0.3078  0.2864
  607MOL0     C81820  -0.120   0.896   1.177  0.0304 -0.1770 -0.0314
  607MOL0     C81821  -0.210   0.859   1.062 -0.6245 -0.1082  0.2191
  607MOL0     C81822  -0.315   0.757   1.105  0.0647 -0.2573 -0.2050
  607MOL0     C81823  -0.261   0.618   1.105 -0.6392 -0.1623 -0.0554
  607MOL0     C81824  -0.368   0.520   1.158  0.9862  0.0048  0.5757
  607MOL0     C81825  -0.304   0.385   1.169 -0.0029 -0.6295  0.4286
  607MOL0     C81826  -0.399   0.268   1.208  0.0678 -1.1368  0.5547
  607MOL0     N81827  -0.330   0.145   1.212  0.7486 -0.4618 -0.1285
  607MOL0     C81828  -0.288   0.075   1.099 -0.3590 -0.0828  0.5517
  607MOL0     C81829  -0.218  -0.031   1.152  0.1391  1.2681 -0.5682
  607MOL0     C81830  -0.140  -0.135   1.065  0.2156 -1.7700 -0.9249
  607MOL0     C81831  -0.054  -0.234   1.150 -0.7617  0.7202  0.0793
  607MOL0     C81832  -0.126  -0.359   1.202 -1.0343 -0.4971  0.5970
  607MOL0     C81833  -0.237  -0.334   1.315 -0.0298 -0.1097  0.1985
  607MOL0     O81834  -0.277  -0.464   1.360 -0.5120 -0.5950  0.3216
  607MOL0     C81835  -0.342  -0.457   1.488 -0.8079  0.3549  1.0167
  607MOL0     C81836  -0.369  -0.579   1.549 -1.1351 -0.3302  0.0790
  607MOL0     C81837  -0.442  -0.590   1.669  0.4602 -1.0405 -0.0294
  607MOL0     C81838  -0.455  -0.731   1.732 -0.3662  0.0472 -0.3793
  607MOL0     C81839  -0.490  -0.475   1.735  0.0544 -0.4373  0.4912
  607MOL0     C81840  -0.575  -0.459   1.857 -0.4772 -0.0357 -0.9196
  607MOL0     O81841  -0.573  -0.343   1.922  0.4702 -0.6118 -0.1963
  607MOL0     C81842  -0.637  -0.345   2.042  0.5984  0.2146 -0.1531
  607MOL0     C81843  -0.563  -0.405   2.150 -0.0215 -0.1484  1.0476
  607MOL0     C81844  -0.613  -0.412   2.280 -0.6812 -0.0723 -0.0200
  607MOL0     C81845  -0.741  -0.371   2.306 -0.4257  0.1543 -0.0250
  607MOL0     O81846  -0.806  -0.380   2.421 -0.6298  0.3325 -0.4175
  607MOL0     C81847  -0.741  -0.382   2.548 -0.3663 -0.4835  0.9481
  607MOL0     C81848  -0.835  -0.380   2.668  0.4823  0.4154 -0.0079
  607MOL0     C81849  -0.917  -0.513   2.653  1.1520 -0.3191  0.5929
  607MOL0     C81850  -0.994  -0.532   2.782  0.3551  0.7612 -0.1951
  607MOL0     C81851  -1.038  -0.675   2.800  0.1241  0.1797 -1.0054
  607MOL0     C81852  -1.098  -0.708   2.936 -0.7031 -0.3983 -0.7009
  607MOL0     C81853  -1.206  -0.817   2.953 -0.2179  0.1506  0.9210
  607MOL0     C81854  -1.271  -0.844   3.086  0.1912  0.7117 -0.1628
  607MOL0    Cl81855  -1.330  -0.694   3.162  0.0657 -0.3748  0.1143
  607MOL0     C81856  -0.821  -0.331   2.199  0.0689 -0.0567  0.6557
  607MOL0     C81857  -0.772  -0.304   2.065  0.0119  0.7896 -0.1647
  607MOL0     O81858  -0.629  -0.564   1.894 -0.5472  0.3020 -0.5710
  607MOL0     C81859  -0.463  -0.353   1.669 -0.0428 -0.1010 -1.0262
  607MOL0     C81860  -0.388  -0.347   1.552  0.3113 -0.7125 -0.4426
  607MOL0     N81861  -0.243  -0.038   1.291  0.2927 -0.4018  0.1358
  607MOL0     N81862  -0.304   0.072   1.319  0.4817  0.5668 -0.2060
  607MOL0     C81863   0.136   1.240   1.081 -0.5484  0.7011 -0.3141
  607MOL0     C81864   0.240   1.327   1.061 -0.1364 -0.4086 -0.1025
  607MOL0     C81865   0.550   1.552   0.832 -1.3101  0.0323  0.3334
  607MOL0     C81866   0.616   1.607   0.952 -0.0729  0.3134  1.1247
  607MOL0     C81867   0.660   1.739   0.949  0.1907 -0.8391  0.2153
  607MOL0     C81868   0.660   1.813   0.827 -0.3983 -0.4789 -0.3658
  607MOL0     O81869   0.739   1.930   0.809  0.2523  0.3023 -0.6263
  607MOL0     C81870   0.844   1.969   0.898 -0.1595 -0.0848 -0.1191
  607MOL0     C81871   0.785   2.046   1.023 -0.2247 -0.6380  0.9498
  607MOL0     C81872   0.765   2.187   0.980 -0.3150 -1.0212 -0.0154
  607MOL0     C81873   0.879   2.278   0.940  0.1968 -0.3682  0.3238
  607MOL0     C81874   0.956   2.309   1.056 -1.0832  0.2776  0.9962
  607MOL0     C81875   1.039   2.342   1.143  0.3924  0.0791 -0.8370
  607MOL0     C81876   0.603   1.763   0.709 -0.7874  0.4950  0.5300
  607MOL0     C81877   0.537   1.637   0.721  0.4166 -0.3108  0.4871
  607MOL0     H81878   0.464   1.144   0.885  1.1507 -1.0297  2.0465
  607MOL0     H81879   0.278   0.973   0.921  0.3803  1.4372 -1.5676
  607MOL0     H81880   0.012   1.046   1.253  0.2444 -0.9593  0.5401
  607MOL0     H81881  -0.108   1.099   1.134  2.4628  2.0168  1.1824
  607MOL0     H81882  -0.055   0.807   1.178  0.1258 -0.1107 -0.2819
  607MOL0     H81883  -0.176   0.890   1.271  0.3304  0.3271  0.1838
  607MOL0     H81884  -0.271   0.945   1.034 -0.2872 -0.4813 -1.7929
  607MOL0     H81885  -0.142   0.849   0.977 -0.3817  4.8398 -0.4902
  607MOL0     H81886  -0.358   0.779   1.203  2.6166 -3.0073  1.7114
  607MOL0     H81887  -0.396   0.766   1.032 -1.5485 -1.7761  1.2996
  607MOL0     H81888  -0.234   0.578   1.007  1.0265 -0.9198  0.6691
  607MOL0     H81889  -0.172   0.612   1.168 -0.6644  2.7954  0.3838
  607MOL0     H81890  -0.394   0.541   1.262 -0.9265 -1.6681  0.4977
  607MOL0     H81891  -0.466   0.513   1.110 -0.8992 -3.3297  4.3619
  607MOL0     H81892  -0.267   0.352   1.071 -2.6227  1.2756 -1.3332
  607MOL0     H81893  -0.222   0.387   1.242  0.7451 -1.2989 -0.3746
  607MOL0     H81894  -0.481   0.253   1.137 -0.6261 -0.0370  1.1021
  607MOL0     H81895  -0.440   0.274   1.309 -0.7230 -1.0331  0.2371
  607MOL0     H81896  -0.295   0.094   0.993 -0.3705  0.5251  0.6585
  607MOL0     H81897  -0.204  -0.185   0.992  1.3640 -2.1019 -1.7343
  607MOL0     H81898  -0.066  -0.072   1.014  0.7605 -1.0254  0.7098
  607MOL0     H81899  -0.003  -0.199   1.240  0.5984  0.8392 -0.7154
  607MOL0     H81900   0.011  -0.267   1.069 -0.4324 -4.1179  1.9615
  607MOL0     H81901  -0.048  -0.416   1.253  0.9827  2.1696  0.7548
  607MOL0     H81902  -0.164  -0.422   1.122  0.5705  0.3184 -0.8841
  607MOL0     H81903  -0.329  -0.291   1.275 -0.6075  0.8741  2.4237
  607MOL0     H81904  -0.188  -0.278   1.396  3.1711 -1.7458 -0.4167
  607MOL0     H81905  -0.328  -0.667   1.502  0.6576  0.8210 -0.6385
  607MOL0     H81906  -0.556  -0.768   1.752 -0.0807 -0.2810  0.4747
  607MOL0     H81907  -0.417  -0.804   1.660  2.1591 -1.2792  2.1157
  607MOL0     H81908  -0.386  -0.739   1.816 -0.7329  3.4342  0.4044
  607MOL0     H81909  -0.467  -0.451   2.130 -0.9902 -0.9380 -2.4803
  607MOL0     H81910  -0.555  -0.452   2.363  1.6366  3.6163  0.3627
  607MOL0     H81911  -0.674  -0.467   2.535  1.1098  0.8535 -0.7341
  607MOL0     H81912  -0.669  -0.301   2.562 -1.2978  0.0374  3.0561
  607MOL0     H81913  -0.777  -0.370   2.760  1.7084  0.2356 -0.7280
  607MOL0     H81914  -0.895  -0.291   2.649  3.7118  2.3356 -2.2899
  607MOL0     H81915  -0.843  -0.593   2.643  1.0596 -0.4805  1.1896
  607MOL0     H81916  -0.982  -0.508   2.566  1.4556  6.5983  0.2272
  607MOL0     H81917  -0.921  -0.505   2.859  1.0028  1.4173 -1.0142
  607MOL0     H81918  -1.071  -0.455   2.777  0.7567  1.3517  1.8226
  607MOL0     H81919  -0.957  -0.748   2.790 -1.4557 -1.8702  0.2969
  607MOL0     H81920  -1.109  -0.703   2.722  1.5685 -1.0604 -1.9223
  607MOL0     H81921  -1.026  -0.742   3.010 -0.7035 -0.1797 -0.5990
  607MOL0     H81922  -1.140  -0.614   2.972  0.9672 -0.7292  2.4502
  607MOL0     H81923  -1.182  -0.910   2.901 -3.3071  0.5174 -1.4454
  607MOL0     H81924  -1.289  -0.769   2.901  0.4753  2.0106  1.4357
  607MOL0     H81925  -1.194  -0.894   3.146 -0.8679 -3.4236 -1.8569
  607MOL0     H81926  -1.351  -0.919   3.076  1.3051 -0.6218  0.5499
  607MOL0     H81927  -0.917  -0.284   2.221 -0.5975 -0.9553 -0.2150
  607MOL0     H81928  -0.828  -0.252   1.989  0.6060 -0.4878 -1.5164
  607MOL0     H81929  -0.495  -0.259   1.714 -0.9502 -1.3512  1.1082
  607MOL0     H81930  -0.374  -0.247   1.513  0.0086 -0.5793 -0.2181
  607MOL0     H81931   0.040   1.280   1.109 -0.9275  1.8595 -2.9942
  607MOL0     H81932   0.239   1.429   1.099  0.5449 -1.0587  1.8082
  607MOL0     H81933   0.628   1.554   1.046  0.6425 -0.7637  0.4523
  607MOL0     H81934   0.689   1.787   1.042 -2.9095 -0.3986  1.0653
  607MOL0     H81935   0.880   1.873   0.938  2.0979  1.0561  0.7439
  607MOL0     H81936   0.927   2.014   0.842  2.6155 -1.0499  2.9583
  607MOL0     H81937   0.852   2.036   1.109  0.3160 -3.8328  0.2490
  607MOL0     H81938   0.693   2.007   1.068 -1.5216  0.3088 -0.7331
  607MOL0     H81939   0.715   2.245   1.058  2.9090 -0.5991  1.9154
  607MOL0     H81940   0.695   2.192   0.896 -0.9268  0.2677  0.5358
  607MOL0     H81941   0.849   2.372   0.894 -0.9091  0.9192  3.3812
  607MOL0     H81942   0.943   2.224   0.871  0.4991 -0.6095  0.7846
  607MOL0     H81943   1.117   2.368   1.212  0.8432 -2.0949 -0.4522
  607MOL0     H81944   0.621   1.817   0.617  4.7398 -2.9741 -0.9205
  607MOL0     H81945   0.493   1.597   0.630 -0.6656 -1.1987  1.3867
  608MOL0     O81946   8.944  11.547   8.184 -0.4461  0.0192  0.2018
  608MOL0     C81947   8.855  11.602   8.235  1.0179  0.1932 -1.0368
  608MOL0     O81948   8.733  11.552   8.286 -0.1035  0.6252 -0.6638
  608MOL0     C81949   8.713  11.416   8.291 -0.0551 -0.2844  0.0832
  608MOL0     C81950   8.741  11.358   8.412 -1.1028  0.0927 -0.3929
  608MOL0     C81951   8.738  11.215   8.426  0.0331 -0.3737 -0.9223
  608MOL0     C81952   8.709  11.131   8.318 -0.0612  0.0860 -0.1259
  608MOL0     O81953   8.701  10.992   8.329 -0.5289 -0.4806  0.0653
  608MOL0     C81954   8.606  10.945   8.425 -0.1351 -1.0317  0.1528
  608MOL0     C81955   8.670  10.920   8.561  0.4206  0.4601 -0.3453
  608MOL0     C81956   8.571  10.861   8.666 -0.7061  0.5595  0.1086
  608MOL0     C81957   8.621  10.876   8.804  0.2855  0.3927  0.5798
  608MOL0     C81958   8.532  10.802   8.902  0.7484  0.1491  0.0039
  608MOL0     C81959   8.577  10.835   9.035  0.6364 -0.2204  0.0178
  608MOL0     C81960   8.509  10.750   9.148 -0.6384  0.0735 -1.2280
  608MOL0     C81961   8.362  10.726   9.160  0.6824  0.5006 -0.2282
  608MOL0     N81962   8.273  10.842   9.136 -0.3822  1.2251  0.6028
  608MOL0     C81963   8.182  10.854   9.034  0.7625 -0.3296  0.1521
  608MOL0     C81964   8.091  10.948   9.068  0.5647 -0.3657 -0.0619
  608MOL0     C81965   7.966  10.977   8.985 -0.9662 -0.6953 -0.7937
  608MOL0     C81966   7.958  11.126   8.947  0.1241  1.1732  0.0955
  608MOL0     C81967   7.856  11.193   9.040 -0.6809 -0.8635  0.5266
  608MOL0     C81968   7.834  11.345   9.011 -0.3616  0.6400  1.2179
  608MOL0     O81969   7.769  11.354   8.887 -0.6683 -0.3258  0.4034
  608MOL0     C81970   7.713  11.468   8.841 -0.3243 -0.2137 -0.4025
  608MOL0     C81971   7.730  11.589   8.905 -0.2962  0.0670 -0.2695
  608MOL0     C81972   7.680  11.707   8.855  1.2104 -1.2203 -0.0627
  608MOL0     C81973   7.691  11.840   8.920  0.4016 -0.3632  1.2003
  608MOL0     C81974   7.606  11.702   8.729 -0.1182  0.0452 -0.1874
  608MOL0     C81975   7.562  11.819   8.648  0.5650  0.4483 -0.2662
  608MOL0     O81976   7.639  11.924   8.629 -0.8072 -0.1020  0.0384
  608MOL0     C81977   7.617  12.021   8.528 -0.4189 -0.2006 -0.9047
  608MOL0     C81978   7.584  11.990   8.396 -0.4601  0.3482 -0.4370
  608MOL0     C81979   7.555  12.084   8.309 -0.2957 -0.5841  0.6501
  608MOL0     C81980   7.559  12.217   8.347  0.2227 -0.1617  0.1999
  608MOL0     O81981   7.541  12.300   8.242 -0.4867 -0.6653  0.3286
  608MOL0     C81982   7.554  12.443   8.263 -0.7933 -0.0892  0.6773
  608MOL0     C81983   7.694  12.481   8.212  0.5617  0.1740  0.3279
  608MOL0     C81984   7.704  12.471   8.049 -0.0656 -0.0324 -0.8038
  608MOL0     C81985   7.649  12.585   7.967  0.1281 -0.5398  0.6803
  608MOL0     C81986   7.704  12.726   8.002  0.6255  1.0835 -0.8796
  608MOL0     C81987   7.675  12.807   7.877 -0.1373 -0.3202  0.4375
  608MOL0     C81988   7.700  12.958   7.891  0.4276  0.5352 -0.6519
  608MOL0     C81989   7.638  13.012   7.764  0.0620 -0.5951  0.8517
  608MOL0    Cl81990   7.675  13.177   7.796 -0.2308 -0.4773 -0.0262
  608MOL0     C81991   7.598  12.251   8.484 -0.1149 -0.3668  0.2150
  608MOL0     C81992   7.638  12.152   8.570 -0.2822 -0.2897 -0.4510
  608MOL0     O81993   7.452  11.806   8.600  0.0863  0.4807  0.5139
  608MOL0     C81994   7.592  11.570   8.668 -0.2608  0.1205  0.5146
  608MOL0     C81995   7.643  11.452   8.725 -0.3132  0.0551  0.5755
  608MOL0     N81996   8.135  11.005   9.187 -0.4637 -0.4546 -0.4786
  608MOL0     N81997   8.237  10.935   9.230 -0.1791  0.2956  0.0432
  608MOL0     C81998   8.683  11.194   8.202 -0.6682 -0.2916 -0.1116
  608MOL0     C81999   8.683  11.334   8.181  0.2155  0.4614 -0.2180
  608MOL0     C82000   8.868  11.751   8.253  0.8411  0.8779 -0.6147
  608MOL0     C82001   8.946  11.824   8.165 -0.4509  0.4410 -0.2003
  608MOL0     C82002   8.948  11.963   8.169 -0.7203  0.7298 -0.0429
  608MOL0     C82003   8.875  12.040   8.262 -0.3505 -0.6901 -0.1962
  608MOL0     O82004   8.885  12.175   8.287 -0.7961  0.3243  0.1579
  608MOL0     C82005   8.945  12.252   8.183 -0.0305  0.8257  0.6643
  608MOL0     C82006   9.094  12.245   8.195  0.0902 -0.0989 -0.2012
  608MOL0     C82007   9.169  12.323   8.073 -0.0477  0.4205  0.8054
  608MOL0     C82008   9.317  12.314   8.051  0.2014 -0.5653  0.3925
  608MOL0     C82009   9.393  12.398   8.160  0.9860  0.2191  0.2729
  608MOL0     C82010   9.448  12.476   8.237  0.1508 -0.1223  0.5183
  608MOL0     C82011   8.806  11.971   8.351  0.8400 -0.9430  0.8838
  608MOL0     C82012   8.798  11.830   8.343 -0.5812 -0.2917  0.6429
  608MOL0     H82013   8.785  11.422   8.487  1.3728 -1.3106 -0.5508
  608MOL0     H82014   8.781  11.173   8.516 -2.4888  1.6413  1.3640
  608MOL0     H82015   8.526  11.019   8.436  1.5956  0.6340  2.2644
  608MOL0     H82016   8.573  10.850   8.380  2.6679 -1.0038 -2.2208
  608MOL0     H82017   8.758  10.856   8.554 -0.3624 -1.3685  3.6619
  608MOL0     H82018   8.702  11.018   8.598 -0.2024  0.9306 -1.0239
  608MOL0     H82019   8.477  10.913   8.646  0.6414  2.9981 -0.2409
  608MOL0     H82020   8.556  10.754   8.649  3.3930 -0.1746  0.0510
  608MOL0     H82021   8.722  10.838   8.819  1.4667  2.4171 -1.5000
  608MOL0     H82022   8.627  10.984   8.822 -1.2240  0.0438  3.8149
  608MOL0     H82023   8.427  10.831   8.894  0.0721 -2.4412 -1.3888
  608MOL0     H82024   8.529  10.694   8.885  0.1644 -0.0884  1.4479
  608MOL0     H82025   8.683  10.811   9.047  0.6811  0.9569  2.5413
  608MOL0     H82026   8.569  10.942   9.055 -2.2396 -0.6985  1.9218
  608MOL0     H82027   8.550  10.649   9.143  1.7818  0.5070  3.9053
  608MOL0     H82028   8.541  10.794   9.243  1.1411  1.3538 -2.3461
  608MOL0     H82029   8.336  10.685   9.259 -1.1595  0.1203 -0.8362
  608MOL0     H82030   8.353  10.645   9.087  1.0043 -1.2963  1.6233
  608MOL0     H82031   8.181  10.786   8.950 -0.4015 -0.4797  0.2707
  608MOL0     H82032   7.986  10.924   8.891 -0.4375 -2.8275  0.4330
  608MOL0     H82033   7.872  10.950   9.034 -0.3515 -0.7411  0.4094
  608MOL0     H82034   7.928  11.147   8.843 -1.8039  0.1037  0.3831
  608MOL0     H82035   8.057  11.166   8.970  1.4408 -1.2877 -0.9337
  608MOL0     H82036   7.890  11.189   9.144 -1.4655  3.5755  1.1591
  608MOL0     H82037   7.757  11.146   9.033 -0.2338 -1.5779 -1.5178
  608MOL0     H82038   7.930  11.397   9.007  0.7831 -1.4224  0.4065
  608MOL0     H82039   7.769  11.396   9.083  1.4680  2.8163  1.4415
  608MOL0     H82040   7.783  11.597   8.999 -2.8726 -0.9729  1.3607
  608MOL0     H82041   7.655  11.847   9.023  1.5708 -1.4385  1.6938
  608MOL0     H82042   7.793  11.876   8.908  0.0573  0.4939  0.7559
  608MOL0     H82043   7.624  11.921   8.887 -0.2927 -2.1202 -2.2459
  608MOL0     H82044   7.593  11.886   8.368 -0.2410 -0.5588  2.6642
  608MOL0     H82045   7.528  12.051   8.209 -2.5878 -2.0071  1.6477
  608MOL0     H82046   7.485  12.507   8.207 -1.7849 -1.1789  0.6240
  608MOL0     H82047   7.561  12.461   8.370 -0.2843 -2.2691  1.0610
  608MOL0     H82048   7.721  12.585   8.235  0.3964  0.2160  0.3326
  608MOL0     H82049   7.769  12.412   8.252  0.7132 -0.0049 -0.2434
  608MOL0     H82050   7.661  12.377   8.014  1.1078 -0.9367  0.1031
  608MOL0     H82051   7.812  12.462   8.036  0.3016  0.2889  1.5602
  608MOL0     H82052   7.689  12.551   7.872  1.4313  1.1403  0.5744
  608MOL0     H82053   7.540  12.581   7.962  0.0256  2.1164 -2.0668
  608MOL0     H82054   7.811  12.706   8.019  0.2913 -2.4474 -2.0991
  608MOL0     H82055   7.655  12.771   8.089  0.9712 -0.4260  0.1407
  608MOL0     H82056   7.739  12.768   7.798 -0.4387 -0.0125  0.0408
  608MOL0     H82057   7.573  12.778   7.851  0.2567 -2.7483  1.3201
  608MOL0     H82058   7.805  12.986   7.904  0.5051 -0.2955  0.7067
  608MOL0     H82059   7.650  12.975   7.986  3.1981 -2.9726  1.7178
  608MOL0     H82060   7.530  12.991   7.760  0.1451 -0.8693 -0.2313
  608MOL0     H82061   7.682  12.982   7.669 -0.9108 -1.8251  0.7561
  608MOL0     H82062   7.603  12.352   8.524 -0.1980  0.1393 -1.0218
  608MOL0     H82063   7.672  12.189   8.666  0.2965  0.7623 -1.0350
  608MOL0     H82064   7.544  11.555   8.572 -2.1055  0.3782  1.3441
  608MOL0     H82065   7.634  11.351   8.685 -1.8868  0.8543 -1.1915
  608MOL0     H82066   8.654  11.132   8.119 -3.5840 -1.4136  1.5909
  608MOL0     H82067   8.675  11.385   8.085 -0.2604  0.9085  0.0544
  608MOL0     H82068   9.000  11.774   8.085 -0.8112  0.8268 -0.6933
  608MOL0     H82069   9.007  12.007   8.090 -0.4819 -1.9952 -1.5348
  608MOL0     H82070   8.903  12.222   8.086  0.4018 -0.8377  0.9491
  608MOL0     H82071   8.899  12.350   8.194 -0.1994  0.6290  1.9076
  608MOL0     H82072   9.139  12.146   8.201  0.2950  0.0635  3.0227
  608MOL0     H82073   9.118  12.286   8.294 -1.8773 -0.9623  0.7019
  608MOL0     H82074   9.141  12.428   8.079  1.5539  0.8140  2.5446
  608MOL0     H82075   9.126  12.279   7.983 -0.8964  1.5796  0.6312
  608MOL0     H82076   9.358  12.352   7.957  3.3320  0.3869  1.9652
  608MOL0     H82077   9.343  12.208   8.056  1.1297 -0.3399  0.6146
  608MOL0     H82078   9.494  12.555   8.293 -1.3243  1.1208  0.0538
  608MOL0     H82079   8.744  12.026   8.422 -0.8360 -1.8303  0.1590
  608MOL0     H82080   8.732  11.780   8.413 -0.2571 -0.8497  0.5498
  609MOL0     O82081   6.126   0.424   5.249 -0.2145 -0.4972 -0.4479
  609MOL0     C82082   6.178   0.480   5.351  0.0962 -0.0710 -0.4078
  609MOL0     O82083   6.119   0.495   5.471  0.8354  0.2089  0.1153
  609MOL0     C82084   5.992   0.451   5.484 -0.0691 -0.4334  0.0696
  609MOL0     C82085   5.976   0.319   5.515 -0.4642 -0.0640 -0.9552
  609MOL0     C82086   5.847   0.256   5.515  0.3910  0.2087 -0.2720
  609MOL0     C82087   5.735   0.326   5.479  0.9906 -0.8158 -0.6736
  609MOL0     O82088   5.608   0.258   5.478 -0.0697 -0.4817  0.1460
  609MOL0     C82089   5.483   0.321   5.481 -0.2056 -0.4347 -1.2573
  609MOL0     C82090   5.374   0.221   5.450 -0.3136  0.0041 -1.0975
  609MOL0     C82091   5.243   0.260   5.511 -0.8488  0.1436 -0.9187
  609MOL0     C82092   5.123   0.182   5.465  0.6195  0.2806  0.5076
  609MOL0     C82093   4.998   0.267   5.481  0.1104  0.2325  0.2901
  609MOL0     C82094   4.869   0.195   5.451  0.0275 -0.3212 -0.0626
  609MOL0     C82095   4.867   0.057   5.396 -0.1251  0.1012 -0.6270
  609MOL0     C82096   4.724   0.029   5.342 -0.1335 -0.6267  0.0736
  609MOL0     N82097   4.715  -0.103   5.294  0.3764  0.0935 -0.4412
  609MOL0     C82098   4.666  -0.139   5.166  0.0820  0.4079 -0.7678
  609MOL0     C82099   4.666  -0.269   5.166 -0.4296 -0.0635 -0.5057
  609MOL0     C82100   4.608  -0.336   5.044 -0.6316 -0.1135 -0.2008
  609MOL0     C82101   4.715  -0.394   4.952 -0.0369  0.5893  0.8407
  609MOL0     C82102   4.818  -0.296   4.879 -0.3616 -0.0729 -0.7542
  609MOL0     C82103   4.747  -0.192   4.789  0.3070 -0.9392  0.2434
  609MOL0     O82104   4.673  -0.260   4.690 -0.0823  1.0560 -0.1418
  609MOL0     C82105   4.594  -0.190   4.599 -0.7882 -0.0330 -0.1628
  609MOL0     C82106   4.639  -0.065   4.559  0.5450 -0.8987  0.0449
  609MOL0     C82107   4.548   0.013   4.481  0.7182  0.1649  0.5257
  609MOL0     C82108   4.600   0.157   4.450  0.3412  0.2657  0.3683
  609MOL0     C82109   4.424  -0.042   4.432 -0.7785 -0.6733 -0.6132
  609MOL0     C82110   4.328   0.021   4.337 -1.1555  0.3408  0.4319
  609MOL0     O82111   4.196  -0.025   4.334 -0.9034  0.2556  0.1712
  609MOL0     C82112   4.104   0.044   4.262  0.3433 -0.0350  0.1951
  609MOL0     C82113   4.099   0.037   4.121  0.6575  0.1585  0.1795
  609MOL0     C82114   3.992   0.102   4.047  0.3575 -0.1603 -0.2946
  609MOL0     C82115   3.897   0.180   4.112 -1.2264  0.4119 -0.2120
  609MOL0     O82116   3.803   0.259   4.047  0.2015 -0.9850  1.0040
  609MOL0     C82117   3.743   0.216   3.923  0.4674 -0.1672 -0.3559
  609MOL0     C82118   3.608   0.292   3.917  0.0014 -0.0644 -0.6593
  609MOL0     C82119   3.501   0.237   4.022 -0.2745  0.9966  0.1577
  609MOL0     C82120   3.478   0.303   4.154 -0.0029  0.5646  0.2726
  609MOL0     C82121   3.385   0.225   4.252 -0.6254  0.7823 -0.7035
  609MOL0     C82122   3.249   0.207   4.206  0.6244  0.0234  1.0836
  609MOL0     C82123   3.159   0.197   4.318  0.3185  0.5611 -0.5593
  609MOL0     C82124   3.016   0.216   4.285  0.3264  0.0402 -0.0392
  609MOL0    Cl82125   2.968   0.089   4.170  0.1594  0.1670  0.2050
  609MOL0     C82126   3.902   0.192   4.246 -0.1275  0.0092 -0.4158
  609MOL0     C82127   4.007   0.133   4.321  1.0327  0.2850  0.1391
  609MOL0     O82128   4.379   0.086   4.249 -0.4522  0.2309 -1.5623
  609MOL0     C82129   4.389  -0.171   4.483 -0.0190 -0.3947  0.3216
  609MOL0     C82130   4.465  -0.235   4.574 -0.5401 -0.2308 -0.0296
  609MOL0     N82131   4.696  -0.315   5.294  0.9778  0.4983 -0.3775
  609MOL0     N82132   4.739  -0.218   5.362 -0.0444  1.0733 -0.1290
  609MOL0     C82133   5.747   0.464   5.461 -0.1852  0.3091 -0.8441
  609MOL0     C82134   5.876   0.524   5.457  1.0128 -0.9947 -0.1504
  609MOL0     C82135   6.312   0.543   5.337 -0.3810 -0.5989  0.8698
  609MOL0     C82136   6.341   0.581   5.205 -1.3803 -0.5906  0.0804
  609MOL0     C82137   6.469   0.641   5.193  1.0798 -1.5182  0.4610
  609MOL0     C82138   6.558   0.663   5.295 -0.3941  0.7695 -0.1695
  609MOL0     O82139   6.678   0.720   5.284 -0.7059  0.3618  0.2480
  609MOL0     C82140   6.681   0.856   5.324 -0.1646  0.3409 -0.1302
  609MOL0     C82141   6.717   0.938   5.206 -0.1114  0.8539  1.2898
  609MOL0     C82142   6.596   1.009   5.149 -0.1575  0.4421 -0.4562
  609MOL0     C82143   6.619   1.113   5.037 -0.3735  0.0632  0.3688
  609MOL0     C82144   6.696   1.224   5.082 -1.3700 -0.6817 -0.1478
  609MOL0     C82145   6.755   1.320   5.129 -0.8901  0.2387 -0.0881
  609MOL0     C82146   6.520   0.620   5.421  0.2979 -1.5942 -0.7284
  609MOL0     C82147   6.399   0.560   5.443  0.1352 -0.0491 -0.5846
  609MOL0     H82148   6.062   0.262   5.551 -0.7332 -0.0028 -0.1935
  609MOL0     H82149   5.827   0.155   5.549  0.3026  0.9368  2.0714
  609MOL0     H82150   5.464   0.362   5.581 -2.2305 -1.7515 -1.0408
  609MOL0     H82151   5.467   0.407   5.416 -0.3839  2.3287  2.1431
  609MOL0     H82152   5.348   0.212   5.344 -0.0229 -1.0462 -1.0915
  609MOL0     H82153   5.406   0.119   5.473  0.4417  0.4543 -0.0861
  609MOL0     H82154   5.258   0.248   5.618  0.6799 -0.0959 -1.1460
  609MOL0     H82155   5.218   0.365   5.489  0.6889  0.9335  0.8274
  609MOL0     H82156   5.144   0.173   5.358  0.1561 -1.0362  0.5143
  609MOL0     H82157   5.106   0.092   5.523  0.8872  1.3482  2.3042
  609MOL0     H82158   4.999   0.299   5.586 -4.5360  0.8513  0.3430
  609MOL0     H82159   4.996   0.358   5.420  0.6525  1.0165  1.3887
  609MOL0     H82160   4.814   0.181   5.545 -1.3450 -1.7947 -1.0384
  609MOL0     H82161   4.800   0.263   5.399  0.2002  0.6282  0.9129
  609MOL0     H82162   4.939   0.062   5.314 -0.6646 -1.2422 -1.2220
  609MOL0     H82163   4.883  -0.017   5.475 -1.0301  1.6475  1.0959
  609MOL0     H82164   4.692   0.098   5.264 -3.1802 -3.5891 -1.5884
  609MOL0     H82165   4.646   0.048   5.417  0.3097  1.1434  0.1258
  609MOL0     H82166   4.638  -0.079   5.081 -3.8695 -3.0483 -2.2598
  609MOL0     H82167   4.536  -0.415   5.068 -2.6269  1.0149 -2.1625
  609MOL0     H82168   4.549  -0.260   4.993  1.2366  1.0338 -0.7632
  609MOL0     H82169   4.652  -0.439   4.875  2.6962 -0.6869 -0.8068
  609MOL0     H82170   4.772  -0.472   5.003  0.5079 -2.0485 -3.3220
  609MOL0     H82171   4.891  -0.356   4.823 -1.3466 -0.2739 -1.8851
  609MOL0     H82172   4.870  -0.237   4.954 -2.5175  2.5493 -1.1388
  609MOL0     H82173   4.820  -0.135   4.731 -2.5901  3.9687  0.9220
  609MOL0     H82174   4.686  -0.116   4.839  1.1064 -0.2979  0.2543
  609MOL0     H82175   4.733  -0.017   4.587  0.4096 -0.9564  0.6259
  609MOL0     H82176   4.578   0.228   4.530  0.9273  5.0878 -3.3070
  609MOL0     H82177   4.709   0.147   4.452  0.1778 -2.3624  2.2519
  609MOL0     H82178   4.571   0.193   4.351  2.0800 -3.9562 -1.9578
  609MOL0     H82179   4.153  -0.026   4.050 -1.4489 -1.6115  0.0478
  609MOL0     H82180   3.978   0.095   3.940 -2.4235  0.4588 -0.0339
  609MOL0     H82181   3.804   0.242   3.835 -1.6136  1.3101 -1.4524
  609MOL0     H82182   3.722   0.109   3.932  1.0579 -0.1052  2.7508
  609MOL0     H82183   3.620   0.391   3.962 -0.7926 -0.9478  1.6258
  609MOL0     H82184   3.579   0.293   3.811  2.8718 -2.9838 -1.6164
  609MOL0     H82185   3.538   0.136   4.042  1.3045  1.3226 -0.9324
  609MOL0     H82186   3.408   0.241   3.965  1.3607 -0.0692 -2.8424
  609MOL0     H82187   3.573   0.304   4.207  0.0547 -0.3145  0.2019
  609MOL0     H82188   3.440   0.405   4.142 -0.7829  0.3287  0.6369
  609MOL0     H82189   3.395   0.278   4.346 -0.3058  0.2526 -0.4336
  609MOL0     H82190   3.423   0.122   4.257 -0.3477  0.8243 -1.6933
  609MOL0     H82191   3.242   0.299   4.148  1.4175  0.1848  1.2283
  609MOL0     H82192   3.224   0.129   4.133 -1.5573  0.6863  1.0503
  609MOL0     H82193   3.181   0.277   4.388 -3.6797  1.0792  0.3385
  609MOL0     H82194   3.181   0.110   4.380  0.3928  0.5925 -0.5420
  609MOL0     H82195   2.999   0.312   4.236 -0.6873 -0.3333 -0.4470
  609MOL0     H82196   2.963   0.227   4.380  2.6423  1.5825  1.1773
  609MOL0     H82197   3.839   0.261   4.302  0.6797 -0.4669  1.1429
  609MOL0     H82198   3.990   0.129   4.428  1.9497 -4.3196  0.3172
  609MOL0     H82199   4.299  -0.227   4.456  0.8363 -1.2478 -0.8493
  609MOL0     H82200   4.430  -0.329   4.617 -1.8537  1.9039  4.1023
  609MOL0     H82201   5.661   0.524   5.434 -1.2419  1.3476  3.8342
  609MOL0     H82202   5.881   0.628   5.426 -5.4265 -0.4986 -0.9270
  609MOL0     H82203   6.282   0.549   5.119  0.7262 -1.1702 -1.2338
  609MOL0     H82204   6.520   0.655   5.098  0.8722 -2.7856  0.1531
  609MOL0     H82205   6.584   0.892   5.360 -0.6736 -0.1102 -1.0016
  609MOL0     H82206   6.744   0.884   5.408 -1.9722  2.9709  0.4610
  609MOL0     H82207   6.773   0.886   5.128 -1.6091 -0.7019  1.2045
  609MOL0     H82208   6.784   1.019   5.237 -2.1604  3.0378  0.3145
  609MOL0     H82209   6.555   1.075   5.226  0.0102 -0.8185  0.7382
  609MOL0     H82210   6.522   0.936   5.116  0.3415 -0.2166 -0.1230
  609MOL0     H82211   6.521   1.147   5.004 -1.3984 -0.8846  2.2680
  609MOL0     H82212   6.660   1.062   4.949  1.2938  1.2507  0.4056
  609MOL0     H82213   6.814   1.402   5.164 -1.5800  0.5728  0.3073
  609MOL0     H82214   6.583   0.660   5.500 -2.5136  4.1493 -0.8472
  609MOL0     H82215   6.372   0.543   5.547  1.4940  0.3907 -0.1387
  610MOL0     O82216  10.664   0.190   2.722  0.3597 -0.3441  0.5267
  610MOL0     C82217  10.670   0.084   2.783  0.6637  0.5099  0.1907
  610MOL0     O82218  10.607  -0.035   2.740  0.2393 -0.1251  0.2399
  610MOL0     C82219  10.549  -0.037   2.614 -0.4350  0.5846  0.3812
  610MOL0     C82220  10.618   0.004   2.501  0.5466 -0.1922 -0.2462
  610MOL0     C82221  10.573  -0.036   2.377  0.2096 -0.4159 -1.2785
  610MOL0     C82222  10.445  -0.102   2.366  0.0775  0.3568 -0.4486
  610MOL0     O82223  10.388  -0.140   2.246  0.6707  0.0835  0.2994
  610MOL0     C82224  10.434  -0.062   2.139 -0.6457 -0.2941 -0.3650
  610MOL0     C82225  10.316  -0.071   2.033 -0.2558  0.0557  0.1455
  610MOL0     C82226  10.348   0.021   1.920  0.2780 -0.4802 -0.4388
  610MOL0     C82227  10.239   0.017   1.814 -0.1481  0.6319  0.3535
  610MOL0     C82228  10.293   0.074   1.692  0.8938  0.0729 -0.1492
  610MOL0     C82229  10.199   0.058   1.577  0.5403 -0.7827  0.1465
  610MOL0     C82230  10.261   0.088   1.443  0.7268  0.7408  0.1749
  610MOL0     C82231  10.311   0.228   1.437  0.0500 -0.1328  0.5731
  610MOL0     N82232  10.349   0.274   1.302  0.2317  0.4415 -0.4480
  610MOL0     C82233  10.468   0.239   1.248 -0.9858 -0.8388 -0.8405
  610MOL0     C82234  10.490   0.334   1.149  0.4718  0.6493  1.0536
  610MOL0     C82235  10.615   0.339   1.061 -0.3166  0.8311  0.5194
  610MOL0     C82236  10.735   0.378   1.145 -0.4901 -0.2988 -0.4910
  610MOL0     C82237  10.714   0.512   1.220 -0.3490  0.3482  0.1560
  610MOL0     C82238  10.842   0.559   1.288 -0.0923  0.7382 -0.1845
  610MOL0     O82239  10.825   0.695   1.348 -0.0614  0.3360 -0.0999
  610MOL0     C82240  10.853   0.816   1.287  0.3644  0.0657 -0.3881
  610MOL0     C82241  10.895   0.928   1.362  0.0026  0.3271 -0.4530
  610MOL0     C82242  10.936   1.049   1.300 -0.1962 -0.1761  0.3981
  610MOL0     C82243  10.984   1.161   1.396  0.1546 -0.8661  0.1473
  610MOL0     C82244  10.930   1.052   1.153 -0.4868  0.1051  0.5942
  610MOL0     C82245  10.985   1.171   1.088  0.2519  0.1940  0.6755
  610MOL0     O82246  10.891   1.238   1.016 -0.1518  0.3593  0.3982
  610MOL0     C82247  10.929   1.342   0.939  0.3564  0.2288 -0.0652
  610MOL0     C82248  10.946   1.467   0.982 -0.5555  0.0441  0.2714
  610MOL0     C82249  11.006   1.563   0.892 -0.3647  0.4096 -0.0063
  610MOL0     C82250  11.031   1.529   0.756  0.1619 -0.5087 -0.7961
  610MOL0     O82251  11.069   1.634   0.681  0.7264  0.1138 -0.2940
  610MOL0     C82252  11.137   1.617   0.563  0.0487 -0.2506  0.6754
  610MOL0     C82253  11.284   1.620   0.605  0.4197  0.5156  0.3938
  610MOL0     C82254  11.379   1.582   0.499  0.1163 -0.2563 -0.5431
  610MOL0     C82255  11.519   1.562   0.543 -0.7630 -0.0290 -0.9384
  610MOL0     C82256  11.603   1.487   0.437 -0.2782 -0.7775  0.6523
  610MOL0     C82257  11.754   1.470   0.478  0.1704 -0.3785 -0.3039
  610MOL0     C82258  11.833   1.399   0.366  0.2702 -0.4977 -0.4193
  610MOL0     C82259  11.981   1.407   0.367 -0.0515 -0.4843 -0.4821
  610MOL0    Cl82260  12.036   1.565   0.310  0.7469 -0.4138  0.0303
  610MOL0     C82261  11.001   1.403   0.710 -0.9641 -0.4839 -0.9412
  610MOL0     C82262  10.966   1.305   0.806  0.2293 -0.3853 -0.1048
  610MOL0     O82263  11.104   1.202   1.094 -0.7236 -0.2823 -0.3453
  610MOL0     C82264  10.880   0.948   1.074  0.0727 -0.2311  0.1356
  610MOL0     C82265  10.839   0.832   1.145 -0.8325  0.1988 -0.8308
  610MOL0     N82266  10.387   0.422   1.143 -0.9084 -1.0426 -0.6740
  610MOL0     N82267  10.301   0.385   1.235  0.3982  0.1995 -0.1918
  610MOL0     C82268  10.380  -0.146   2.484  0.2593  0.9382  0.3105
  610MOL0     C82269  10.427  -0.112   2.599 -1.6917  0.3746  0.4514
  610MOL0     C82270  10.749   0.069   2.915 -0.3622 -0.3756 -0.2951
  610MOL0     C82271  10.792   0.183   2.978  0.0829  0.6825 -1.0503
  610MOL0     C82272  10.887   0.165   3.083 -1.1316 -0.7466 -0.0372
  610MOL0     C82273  10.912   0.040   3.139 -0.4423 -0.1294 -0.2523
  610MOL0     O82274  10.992   0.024   3.245  0.6222  0.0051 -0.8407
  610MOL0     C82275  11.026   0.139   3.329  0.9951  0.2791 -0.2306
  610MOL0     C82276  11.095   0.093   3.459 -0.3159 -0.8702  0.5007
  610MOL0     C82277  11.217   0.023   3.413  0.0790  0.1642 -0.6479
  610MOL0     C82278  11.277  -0.046   3.535  0.5012  0.7004  1.1713
  610MOL0     C82279  11.414  -0.098   3.506  1.0591 -0.3423  0.1257
  610MOL0     C82280  11.523  -0.135   3.480  0.8349 -0.0010  0.0531
  610MOL0     C82281  10.859  -0.075   3.080  0.4208  0.0868 -0.0683
  610MOL0     C82282  10.781  -0.055   2.966 -0.3567  0.6234 -0.1647
  610MOL0     H82283  10.711   0.057   2.517  1.7187 -1.3126 -2.8234
  610MOL0     H82284  10.619  -0.003   2.284  2.2093 -1.1172 -0.5975
  610MOL0     H82285  10.443   0.046   2.157 -2.7766  0.3032 -2.3557
  610MOL0     H82286  10.528  -0.101   2.100 -0.1262 -1.0815  1.5894
  610MOL0     H82287  10.314  -0.172   1.992  0.2858  0.5207 -1.0770
  610MOL0     H82288  10.226  -0.050   2.091  0.0008 -2.2657  1.5207
  610MOL0     H82289  10.364   0.122   1.959 -0.2769 -0.8575  0.7904
  610MOL0     H82290  10.439  -0.010   1.868 -1.3794 -0.0475 -3.9147
  610MOL0     H82291  10.202  -0.080   1.780  0.1387  0.7791 -0.3796
  610MOL0     H82292  10.160   0.069   1.871  0.3897  0.4262  1.3146
  610MOL0     H82293  10.298   0.182   1.712 -1.7503 -0.0340  1.5001
  610MOL0     H82294  10.391   0.031   1.666  1.6177  0.6842  1.4488
  610MOL0     H82295  10.133  -0.029   1.569 -0.0792 -0.2577 -0.5700
  610MOL0     H82296  10.121   0.131   1.600  0.2565 -0.9398 -0.3051
  610MOL0     H82297  10.353   0.030   1.431  0.5560  0.6142 -0.5870
  610MOL0     H82298  10.189   0.071   1.362  0.9863 -2.1413  0.4544
  610MOL0     H82299  10.400   0.227   1.500  0.3464  1.7957  0.2461
  610MOL0     H82300  10.234   0.291   1.484  1.1718 -0.2876  2.7263
  610MOL0     H82301  10.530   0.161   1.289  0.3986  0.5079 -0.2547
  610MOL0     H82302  10.630   0.237   1.025 -0.8795 -0.5675  3.8649
  610MOL0     H82303  10.607   0.407   0.975  0.3211  0.2942  0.0261
  610MOL0     H82304  10.823   0.387   1.080  1.8576 -0.2107  2.4609
  610MOL0     H82305  10.758   0.297   1.215 -2.8361 -1.0086 -0.4704
  610MOL0     H82306  10.633   0.490   1.290  0.5946 -0.9093  0.9050
  610MOL0     H82307  10.664   0.586   1.157 -2.4360 -0.1250  1.1464
  610MOL0     H82308  10.930   0.563   1.223  2.3898  2.4135  2.9698
  610MOL0     H82309  10.876   0.483   1.360  3.3874 -0.2907 -2.6247
  610MOL0     H82310  10.909   0.925   1.469 -1.0149 -0.5961 -0.3378
  610MOL0     H82311  11.017   1.249   1.339 -2.0116  0.8064  1.3455
  610MOL0     H82312  10.903   1.198   1.459 -1.3958 -2.7703 -0.6101
  610MOL0     H82313  11.076   1.121   1.441  0.7773 -1.2224 -1.3736
  610MOL0     H82314  10.914   1.510   1.077  2.1479  0.9686  0.8545
  610MOL0     H82315  11.032   1.664   0.919  2.4390  0.9505 -3.8819
  610MOL0     H82316  11.123   1.525   0.505  1.3404 -0.2543  0.3335
  610MOL0     H82317  11.109   1.701   0.498 -0.1368 -1.1038 -0.3761
  610MOL0     H82318  11.306   1.720   0.642  1.3648  0.4164  0.1274
  610MOL0     H82319  11.298   1.545   0.684  1.3484 -2.2113 -2.1570
  610MOL0     H82320  11.376   1.657   0.419  1.2561  0.8667  0.4344
  610MOL0     H82321  11.340   1.486   0.464  0.3980 -0.1066 -1.2946
  610MOL0     H82322  11.553   1.664   0.562  1.4527 -0.7418 -0.7658
  610MOL0     H82323  11.535   1.519   0.643 -0.3576  0.4905 -0.7788
  610MOL0     H82324  11.595   1.546   0.345  2.8586 -0.5091  0.4335
  610MOL0     H82325  11.554   1.390   0.424 -0.5332 -0.3832 -1.7756
  610MOL0     H82326  11.803   1.564   0.504  0.6655 -0.4821 -0.8359
  610MOL0     H82327  11.752   1.402   0.563  0.3246  0.8706  0.7308
  610MOL0     H82328  11.794   1.450   0.278 -1.1541  0.4495  0.7288
  610MOL0     H82329  11.809   1.292   0.368  0.4769 -0.5681 -1.1409
  610MOL0     H82330  12.015   1.329   0.297  0.0270 -0.4535 -0.4792
  610MOL0     H82331  12.020   1.372   0.463  1.3903  0.8791 -0.5260
  610MOL0     H82332  11.010   1.371   0.606 -1.2723  3.5803 -2.4011
  610MOL0     H82333  10.961   1.201   0.779  0.8651 -0.1487 -1.1946
  610MOL0     H82334  10.903   0.942   0.968  0.2539  2.7704 -0.0569
  610MOL0     H82335  10.806   0.749   1.084 -1.8023 -1.3982  1.6936
  610MOL0     H82336  10.296  -0.210   2.458 -0.1724  1.3624  0.6466
  610MOL0     H82337  10.384  -0.147   2.692 -2.5723 -1.1199 -0.4724
  610MOL0     H82338  10.770   0.282   2.941  2.8669  0.6269 -3.1483
  610MOL0     H82339  10.928   0.253   3.132  1.7271 -2.8283  1.6777
  610MOL0     H82340  11.098   0.205   3.279  1.3866 -0.4601 -0.6761
  610MOL0     H82341  10.935   0.192   3.358  0.7138 -0.7949  0.8989
  610MOL0     H82342  11.023   0.031   3.514  1.1315 -2.3012  0.8752
  610MOL0     H82343  11.119   0.182   3.517  4.0766  1.6285 -4.3240
  610MOL0     H82344  11.288   0.092   3.367 -1.0901  2.0869  0.3023
  610MOL0     H82345  11.186  -0.061   3.350 -1.1185 -0.0231  0.1579
  610MOL0     H82346  11.223  -0.134   3.570  1.5483 -1.1162 -1.4626
  610MOL0     H82347  11.296   0.026   3.615 -0.0201  3.2548 -0.8748
  610MOL0     H82348  11.626  -0.154   3.461  0.8095  0.9706 -1.2126
  610MOL0     H82349  10.871  -0.178   3.112  0.4768  0.3009  0.6242
  610MOL0     H82350  10.743  -0.148   2.924  1.5798  0.1230 -0.9121
  611MOL0     O82351   0.668   9.623   6.748 -0.5361 -0.1110 -0.1555
  611MOL0     C82352   0.720   9.721   6.799  0.7914  0.5356  0.4281
  611MOL0     O82353   0.774   9.829   6.732 -0.1432  0.2544  0.5184
  611MOL0     C82354   0.794   9.814   6.600 -0.8153 -0.0291 -0.2268
  611MOL0     C82355   0.927   9.794   6.557 -0.1707  0.7227 -0.1250
  611MOL0     C82356   0.956   9.802   6.418 -0.7684  0.0355 -0.0187
  611MOL0     C82357   0.852   9.845   6.324 -1.0551  0.2520 -0.0367
  611MOL0     O82358   0.894   9.831   6.194  0.2308  0.5773  0.4574
  611MOL0     C82359   0.811   9.905   6.100  0.2331  0.2241  0.2424
  611MOL0     C82360   0.874   9.913   5.962 -0.5231 -0.6558  0.5227
  611MOL0     C82361   0.789   9.986   5.866 -0.9875 -0.4394 -0.7513
  611MOL0     C82362   0.867  10.027   5.747  0.0020 -0.3767 -0.1279
  611MOL0     C82363   0.803  10.141   5.660  0.1909  0.1813  0.4216
  611MOL0     C82364   0.790  10.273   5.736 -0.3656  0.5056  0.0164
  611MOL0     C82365   0.745  10.385   5.640 -0.0207  0.3477  0.0237
  611MOL0     C82366   0.712  10.508   5.730 -0.2211 -0.5149 -0.3112
  611MOL0     N82367   0.581  10.491   5.786 -0.7276  0.3331  0.1934
  611MOL0     C82368   0.557  10.466   5.919 -0.9817 -0.0023  0.8065
  611MOL0     C82369   0.433  10.512   5.939  0.4671 -0.0940 -1.1881
  611MOL0     C82370   0.383  10.518   6.075  0.7491  0.4086 -1.0444
  611MOL0     C82371   0.382  10.655   6.150 -0.8149 -0.1605  0.9016
  611MOL0     C82372   0.323  10.681   6.290 -0.1959 -0.2580  0.7665
  611MOL0     C82373   0.188  10.612   6.296 -0.7938  0.4453 -0.3931
  611MOL0     O82374   0.080  10.683   6.239  0.7876  0.5370  0.0600
  611MOL0     C82375   0.064  10.813   6.294 -0.6171  0.8377  0.5629
  611MOL0     C82376   0.102  10.928   6.224  0.4648  0.9110 -0.3009
  611MOL0     C82377   0.077  11.059   6.273 -0.6458  0.1398 -1.0376
  611MOL0     C82378   0.102  11.188   6.188 -0.0996  1.0238  1.1708
  611MOL0     C82379   0.009  11.077   6.400 -0.4238  0.1100 -0.2210
  611MOL0     C82380  -0.037  11.200   6.460 -0.5582 -0.6442 -0.0042
  611MOL0     O82381   0.042  11.315   6.434  0.3769  0.3165  0.2155
  611MOL0     C82382  -0.028  11.430   6.424  0.5087 -1.0574 -0.1614
  611MOL0     C82383  -0.151  11.459   6.361 -0.0896  0.4894  0.4577
  611MOL0     C82384  -0.212  11.587   6.383 -0.6260  0.9458  0.7821
  611MOL0     C82385  -0.144  11.681   6.460 -0.8032 -0.3972  1.2817
  611MOL0     O82386  -0.204  11.812   6.468  0.2075  0.3833  0.8567
  611MOL0     C82387  -0.111  11.910   6.437  0.4655  0.5565 -0.1618
  611MOL0     C82388  -0.188  12.021   6.379  0.5010 -0.0237 -0.0279
  611MOL0     C82389  -0.118  12.151   6.379  0.6548  0.5592  0.6324
  611MOL0     C82390   0.020  12.149   6.315  0.1700  0.0714  0.1024
  611MOL0     C82391   0.070  12.300   6.320  0.7427  0.1551  0.4131
  611MOL0     C82392   0.123  12.330   6.184 -1.1137  0.1219  1.5681
  611MOL0     C82393   0.026  12.386   6.087  0.4761 -0.0683  0.0352
  611MOL0     C82394   0.092  12.417   5.953 -0.3531  0.2568  0.3371
  611MOL0    Cl82395   0.053  12.590   5.901  0.0113  0.6636  0.0825
  611MOL0     C82396  -0.029  11.649   6.531  0.2424 -1.0659  1.0563
  611MOL0     C82397   0.028  11.527   6.508  0.5814 -0.7343  0.0980
  611MOL0     O82398  -0.138  11.202   6.533  1.0994 -0.2002  1.0846
  611MOL0     C82399  -0.026  10.956   6.467  0.1152 -1.0039 -0.7027
  611MOL0     C82400   0.002  10.830   6.418 -0.3049 -0.6826 -0.3375
  611MOL0     N82401   0.375  10.566   5.827 -0.8233  0.1089 -0.0568
  611MOL0     N82402   0.474  10.555   5.733 -0.1333 -0.0753 -0.2395
  611MOL0     C82403   0.724   9.879   6.382 -0.0345 -0.2594  1.0696
  611MOL0     C82404   0.694   9.861   6.516 -0.6525  0.7356  0.2453
  611MOL0     C82405   0.714   9.739   6.941 -0.1182  0.2382  0.0993
  611MOL0     C82406   0.669   9.854   7.009  0.4462 -0.5014  0.0240
  611MOL0     C82407   0.669   9.860   7.142 -0.1764  0.3266 -0.4323
  611MOL0     C82408   0.714   9.748   7.216 -0.3280 -0.1156  1.0456
  611MOL0     O82409   0.711   9.745   7.356  0.0422  0.0993 -0.2627
  611MOL0     C82410   0.788   9.643   7.424 -0.1387 -0.4514 -0.5501
  611MOL0     C82411   0.755   9.648   7.569 -0.7555 -0.1283  0.6935
  611MOL0     C82412   0.847   9.537   7.636  0.6240 -0.6041  0.3237
  611MOL0     C82413   0.854   9.536   7.790  0.5800 -0.6525  0.7942
  611MOL0     C82414   0.933   9.425   7.841 -0.8499  0.1799  0.9279
  611MOL0     C82415   0.995   9.322   7.863  0.1078 -0.8602 -1.7818
  611MOL0     C82416   0.773   9.644   7.147  0.1495 -0.2011 -0.6149
  611MOL0     C82417   0.763   9.630   7.008 -0.5444 -0.2533  0.1820
  611MOL0     H82418   1.008   9.761   6.621  1.6538 -3.0127 -3.8699
  611MOL0     H82419   1.057   9.778   6.387 -1.1292 -3.4718  1.0944
  611MOL0     H82420   0.709   9.869   6.087 -1.1439  3.5034  0.9616
  611MOL0     H82421   0.798  10.006   6.141 -1.6226  0.5800 -1.1222
  611MOL0     H82422   0.974   9.956   5.961 -0.1923 -1.2283  2.9869
  611MOL0     H82423   0.865   9.809   5.930  0.6587 -0.2103 -1.4616
  611MOL0     H82424   0.706   9.919   5.843  0.1142 -1.5391 -1.6129
  611MOL0     H82425   0.746  10.076   5.912  0.4596  0.6738 -1.4758
  611MOL0     H82426   0.960  10.072   5.783  0.1757 -2.2824  2.0030
  611MOL0     H82427   0.882   9.938   5.686 -0.2317 -0.2542 -0.3649
  611MOL0     H82428   0.854  10.150   5.564 -0.4796  2.8385  0.2385
  611MOL0     H82429   0.699  10.118   5.632  0.3325  0.7143 -0.5675
  611MOL0     H82430   0.731  10.271   5.828 -1.0490 -0.0059 -0.4254
  611MOL0     H82431   0.892  10.307   5.758 -0.8257  1.1431  1.3138
  611MOL0     H82432   0.814  10.406   5.558 -0.3562 -0.5464 -0.5005
  611MOL0     H82433   0.662  10.342   5.584 -0.5473  2.0791 -0.5980
  611MOL0     H82434   0.717  10.600   5.671 -2.0626 -1.6103 -2.3287
  611MOL0     H82435   0.788  10.512   5.809 -0.4248 -1.9004 -0.0096
  611MOL0     H82436   0.626  10.435   5.996 -0.2490  1.1121  0.6142
  611MOL0     H82437   0.283  10.484   6.049  0.7244 -0.1478 -0.2374
  611MOL0     H82438   0.434  10.442   6.136  2.1441 -0.1409 -2.8105
  611MOL0     H82439   0.328  10.718   6.079  0.9189 -2.1951 -2.5397
  611MOL0     H82440   0.487  10.683   6.158  0.0531 -2.5639 -0.6844
  611MOL0     H82441   0.319  10.784   6.325  1.6301  0.4948 -1.0338
  611MOL0     H82442   0.393  10.631   6.359  0.0680  1.3229  1.6857
  611MOL0     H82443   0.150  10.585   6.395 -0.1242 -0.4211 -0.3611
  611MOL0     H82444   0.210  10.518   6.246  1.3874  2.0395 -2.7112
  611MOL0     H82445   0.144  10.927   6.124  2.2741 -2.9039  0.3461
  611MOL0     H82446   0.130  11.153   6.089 -3.5323 -0.7106  0.6295
  611MOL0     H82447   0.004  11.234   6.169  1.1974  2.5757 -2.6535
  611MOL0     H82448   0.175  11.255   6.234  1.7110  1.1372 -1.6446
  611MOL0     H82449  -0.198  11.383   6.299  1.3684  1.8848 -2.5650
  611MOL0     H82450  -0.309  11.622   6.350 -0.3129  1.7328  0.6593
  611MOL0     H82451  -0.063  11.948   6.528 -1.8438 -0.3918  1.5638
  611MOL0     H82452  -0.035  11.883   6.363  0.2700 -0.2998 -0.0634
  611MOL0     H82453  -0.227  11.991   6.282  0.6306 -0.1009 -0.0558
  611MOL0     H82454  -0.272  12.038   6.448  0.7763 -0.7817  0.4978
  611MOL0     H82455  -0.103  12.177   6.484  2.8098  1.5037  0.1463
  611MOL0     H82456  -0.190  12.230   6.355  2.4850  1.8972 -0.7605
  611MOL0     H82457   0.092  12.082   6.363  0.9812  1.0892  0.3476
  611MOL0     H82458   0.005  12.114   6.213  2.8694 -1.0721  0.0284
  611MOL0     H82459   0.142  12.312   6.401 -1.1305 -1.1817  2.3717
  611MOL0     H82460  -0.014  12.366   6.342 -0.8974 -1.4099 -0.7825
  611MOL0     H82461   0.201  12.406   6.191  1.4056 -1.7397 -2.2577
  611MOL0     H82462   0.169  12.237   6.147 -2.2439 -0.2289  0.9947
  611MOL0     H82463  -0.020  12.470   6.140  0.0572  0.2841 -0.8614
  611MOL0     H82464  -0.059  12.319   6.071  0.3582  0.0446  0.1821
  611MOL0     H82465   0.049  12.349   5.879 -0.3046  0.7553 -0.1490
  611MOL0     H82466   0.201  12.414   5.959 -0.3200 -1.9452 -0.2813
  611MOL0     H82467   0.018  11.728   6.589  1.3849 -1.4803  0.7256
  611MOL0     H82468   0.130  11.508   6.538 -0.0093 -1.1129  2.0259
  611MOL0     H82469  -0.062  10.969   6.569  3.3391  2.1060  0.2154
  611MOL0     H82470  -0.024  10.750   6.486 -3.3592 -0.4784 -1.0988
  611MOL0     H82471   0.657   9.919   6.306  0.2729 -3.4858 -1.1036
  611MOL0     H82472   0.597   9.872   6.563 -0.5499 -1.3211  1.0272
  611MOL0     H82473   0.639   9.932   6.940  2.3659 -1.5700 -2.1502
  611MOL0     H82474   0.608   9.932   7.196  2.6410 -0.8901  5.0553
  611MOL0     H82475   0.751   9.551   7.378  0.2902 -0.0516 -1.7306
  611MOL0     H82476   0.889   9.661   7.388 -0.1551  0.9349  0.0172
  611MOL0     H82477   0.649   9.629   7.584 -0.0265 -3.9763  2.0484
  611MOL0     H82478   0.784   9.743   7.615 -1.6982 -0.1944  1.4481
  611MOL0     H82479   0.944   9.559   7.590  0.1537  1.9146  0.4372
  611MOL0     H82480   0.809   9.443   7.594  4.8316 -4.3802  3.8872
  611MOL0     H82481   0.755   9.539   7.836  2.1066 -1.3186  4.4391
  611MOL0     H82482   0.908   9.627   7.817  2.8393 -2.0899  1.4771
  611MOL0     H82483   1.073   9.253   7.887  1.4888  1.5207  1.4273
  611MOL0     H82484   0.831   9.564   7.193  0.3248  0.1313 -0.2530
  611MOL0     H82485   0.809   9.545   6.960 -2.2130 -0.2617 -1.4960
  612MOL0     O82486   1.321   5.298   2.547 -0.8579 -0.6022  0.3115
  612MOL0     C82487   1.430   5.281   2.493  0.0621 -0.0051 -0.5740
  612MOL0     O82488   1.478   5.160   2.458  0.2636  1.2768 -0.5304
  612MOL0     C82489   1.397   5.049   2.460  0.4843  0.9857 -0.5420
  612MOL0     C82490   1.279   5.050   2.385 -0.0341  0.4471  0.5368
  612MOL0     C82491   1.185   4.932   2.388 -0.5543 -0.6969 -0.0585
  612MOL0     C82492   1.217   4.828   2.477  0.1941  0.8644  0.0753
  612MOL0     O82493   1.142   4.723   2.505  0.5338 -0.5337 -0.8666
  612MOL0     C82494   1.002   4.728   2.490 -0.2498  0.2734 -0.5140
  612MOL0     C82495   0.958   4.617   2.587 -0.2415 -0.1165  0.0334
  612MOL0     C82496   0.958   4.666   2.729  0.8271 -0.5524 -1.4258
  612MOL0     C82497   0.894   4.570   2.818  0.1960  0.5303  0.3385
  612MOL0     C82498   0.863   4.634   2.950 -0.3918 -0.4156 -0.0544
  612MOL0     C82499   0.982   4.649   3.039  0.3623 -0.0413 -0.6931
  612MOL0     C82500   0.958   4.725   3.166 -0.9431  0.1381 -0.6903
  612MOL0     C82501   0.905   4.870   3.139 -0.2850 -0.3368  0.4214
  612MOL0     N82502   0.752   4.872   3.153  0.2364 -0.3809  0.5250
  612MOL0     C82503   0.665   4.932   3.063 -0.5163 -0.0246  0.4281
  612MOL0     C82504   0.547   4.936   3.120 -0.0032 -0.1831  0.0711
  612MOL0     C82505   0.412   4.984   3.070  0.8395  0.6560 -0.1635
  612MOL0     C82506   0.360   5.115   3.121 -0.1674 -1.2397  0.1626
  612MOL0     C82507   0.208   5.126   3.136  0.2152 -0.0483  0.2464
  612MOL0     C82508   0.149   5.169   3.004  0.6672  0.4741 -0.2081
  612MOL0     O82509   0.215   5.285   2.959 -0.0240  0.5005  0.8971
  612MOL0     C82510   0.154   5.335   2.848 -0.9660  0.1004  0.1722
  612MOL0     C82511   0.192   5.468   2.817 -0.1896 -0.8532 -0.1862
  612MOL0     C82512   0.123   5.540   2.711 -1.2772  0.0464  0.1421
  612MOL0     C82513   0.155   5.683   2.707 -1.0255  0.5550 -0.2442
  612MOL0     C82514   0.024   5.484   2.637  0.6324 -1.0287 -1.0909
  612MOL0     C82515  -0.042   5.555   2.530  0.1851  0.8875 -0.0621
  612MOL0     O82516  -0.184   5.550   2.517  0.4866 -0.1859 -0.0107
  612MOL0     C82517  -0.232   5.620   2.408 -0.2668  0.2967 -0.0950
  612MOL0     C82518  -0.212   5.565   2.281 -0.6015 -1.3055 -0.0634
  612MOL0     C82519  -0.274   5.621   2.175  0.5530  0.2524  0.3543
  612MOL0     C82520  -0.340   5.741   2.181 -0.1751 -0.2474 -0.2649
  612MOL0     O82521  -0.396   5.799   2.064 -0.3008 -0.2537 -0.6784
  612MOL0     C82522  -0.352   5.937   2.032  0.8182  0.4472 -0.2264
  612MOL0     C82523  -0.323   5.952   1.884  0.2909 -0.3695  0.0260
  612MOL0     C82524  -0.464   5.966   1.813 -0.1319  0.9727  0.1090
  612MOL0     C82525  -0.455   5.873   1.683 -0.1689 -0.3164  0.1146
  612MOL0     C82526  -0.561   5.929   1.580  1.6537  0.0102  0.0307
  612MOL0     C82527  -0.708   5.896   1.628  0.0881 -0.1567  0.6372
  612MOL0     C82528  -0.805   5.932   1.504  0.2746  0.3474  0.9609
  612MOL0     C82529  -0.939   5.862   1.492 -0.6119  0.5015  0.9972
  612MOL0    Cl82530  -0.905   5.689   1.452 -0.1402  0.1769 -0.2163
  612MOL0     C82531  -0.343   5.811   2.306  0.2054 -0.4400  0.9110
  612MOL0     C82532  -0.297   5.736   2.416 -0.2450 -0.9639  0.9650
  612MOL0     O82533   0.033   5.615   2.456 -0.9689 -0.2601 -1.1295
  612MOL0     C82534  -0.010   5.355   2.672  0.4088  0.4999  0.4583
  612MOL0     C82535   0.054   5.278   2.770 -0.9522  0.4959 -0.6678
  612MOL0     N82536   0.558   4.867   3.241 -0.5805 -0.2295 -0.4025
  612MOL0     N82537   0.683   4.838   3.260  0.7700 -0.5338  0.2214
  612MOL0     C82538   1.345   4.828   2.542  0.4230 -0.0285 -0.6388
  612MOL0     C82539   1.431   4.933   2.531 -0.5179  0.0327 -0.0243
  612MOL0     C82540   1.500   5.410   2.470 -0.6751  0.4868  0.0811
  612MOL0     C82541   1.642   5.405   2.431 -0.2227  0.3055  1.1630
  612MOL0     C82542   1.715   5.528   2.410 -0.3638  0.0770  0.9032
  612MOL0     C82543   1.665   5.645   2.438  0.0943  0.0324 -0.0461
  612MOL0     O82544   1.723   5.763   2.443 -0.1999  0.0940 -0.1887
  612MOL0     C82545   1.863   5.773   2.462  0.2247  0.2625  0.2003
  612MOL0     C82546   1.908   5.919   2.491 -0.0485  0.5816 -0.5794
  612MOL0     C82547   2.052   5.943   2.489 -0.8973  0.4740  0.1323
  612MOL0     C82548   2.125   5.923   2.359  2.0395  0.7659  0.2516
  612MOL0     C82549   2.264   5.951   2.372  0.7425 -0.2705 -0.6279
  612MOL0     C82550   2.375   5.991   2.393 -0.7702 -0.5001 -0.0536
  612MOL0     C82551   1.524   5.645   2.469  0.1910 -0.3876 -0.1889
  612MOL0     C82552   1.441   5.540   2.487 -0.2008 -0.1283  0.9549
  612MOL0     H82553   1.256   5.140   2.329 -0.6479 -0.4004 -0.6246
  612MOL0     H82554   1.090   4.923   2.337 -0.4141 -2.1369 -0.0896
  612MOL0     H82555   0.978   4.831   2.518 -1.8015 -0.0882 -0.4028
  612MOL0     H82556   0.955   4.710   2.393  0.4846  4.4313 -1.8570
  612MOL0     H82557   0.854   4.592   2.564 -0.2803  2.0503 -2.7408
  612MOL0     H82558   1.023   4.529   2.588  1.9088  1.3869  1.7977
  612MOL0     H82559   1.052   4.700   2.775  0.9247 -1.2688 -1.0816
  612MOL0     H82560   0.908   4.763   2.732  2.0290  0.0777  0.4922
  612MOL0     H82561   0.805   4.525   2.773  1.7153 -1.6735 -0.6318
  612MOL0     H82562   0.954   4.479   2.830 -0.3624  0.2582  1.2076
  612MOL0     H82563   0.822   4.733   2.926  0.9235  0.6785  1.9216
  612MOL0     H82564   0.771   4.599   2.997 -0.0065  0.2647  1.2587
  612MOL0     H82565   1.013   4.546   3.058  2.0963  0.5746  0.0563
  612MOL0     H82566   1.065   4.701   2.991  0.1337  0.2135 -0.8184
  612MOL0     H82567   0.914   4.661   3.243  1.4810  0.8582  1.4607
  612MOL0     H82568   1.057   4.728   3.213 -0.1475 -1.0280 -2.1891
  612MOL0     H82569   0.948   4.910   3.047 -1.8106 -2.3687 -1.2661
  612MOL0     H82570   0.936   4.932   3.224  0.1375 -0.0470  0.0638
  612MOL0     H82571   0.686   4.963   2.961  4.0035 -0.2338  1.1085
  612MOL0     H82572   0.409   4.989   2.961  1.7075  1.0454 -0.1749
  612MOL0     H82573   0.335   4.906   3.081 -0.8350  1.8283 -2.7676
  612MOL0     H82574   0.406   5.194   3.062  0.3354 -1.0542  0.7973
  612MOL0     H82575   0.397   5.126   3.223  1.9299  2.3763 -0.8181
  612MOL0     H82576   0.194   5.196   3.219 -2.1233 -1.3304  1.0020
  612MOL0     H82577   0.163   5.028   3.150  1.7766 -0.7798  0.3656
  612MOL0     H82578   0.041   5.181   3.013  0.5614  0.2292 -1.0633
  612MOL0     H82579   0.176   5.084   2.940  0.3736  0.1748  0.0569
  612MOL0     H82580   0.258   5.522   2.883  0.4469  0.2873 -1.6972
  612MOL0     H82581   0.062   5.735   2.734 -1.3879  0.6281 -1.5645
  612MOL0     H82582   0.239   5.709   2.772  1.6377  0.5889 -3.4581
  612MOL0     H82583   0.180   5.731   2.612  2.6886  0.5027  0.5666
  612MOL0     H82584  -0.171   5.466   2.263  0.6443 -1.1824  1.8261
  612MOL0     H82585  -0.274   5.555   2.089  0.8982 -1.5821  1.6852
  612MOL0     H82586  -0.437   6.000   2.059 -0.8738 -1.6247 -0.4283
  612MOL0     H82587  -0.263   5.972   2.086  1.1282 -0.8390  0.1331
  612MOL0     H82588  -0.268   6.044   1.866  1.2231 -0.8495  0.3493
  612MOL0     H82589  -0.276   5.859   1.849 -1.2010 -1.6719  1.2800
  612MOL0     H82590  -0.511   6.063   1.795 -1.7525 -0.1683 -2.4754
  612MOL0     H82591  -0.534   5.922   1.884  1.0529 -1.2629 -0.0275
  612MOL0     H82592  -0.358   5.893   1.636  0.5003 -1.6860  0.8394
  612MOL0     H82593  -0.457   5.767   1.708  2.6464 -0.7649 -1.1881
  612MOL0     H82594  -0.549   5.876   1.485 -1.0881  2.2500 -1.7426
  612MOL0     H82595  -0.551   6.034   1.549  0.2137 -0.2141 -1.2943
  612MOL0     H82596  -0.717   5.794   1.668 -1.0733 -0.2095  0.2787
  612MOL0     H82597  -0.729   5.961   1.714  2.0510  0.8295  0.4049
  612MOL0     H82598  -0.747   5.925   1.412 -1.0090  1.2451  0.0545
  612MOL0     H82599  -0.824   6.039   1.519  1.5912  0.7566 -0.1671
  612MOL0     H82600  -0.986   5.919   1.411  6.1306  2.7326 -2.0644
  612MOL0     H82601  -1.002   5.866   1.581  0.6778  2.0759  1.8977
  612MOL0     H82602  -0.398   5.904   2.314 -1.3398 -1.0828 -1.3430
  612MOL0     H82603  -0.331   5.781   2.509 -0.6505  1.0312 -0.0912
  612MOL0     H82604  -0.095   5.308   2.623 -0.4767  2.0798  0.4243
  612MOL0     H82605   0.027   5.174   2.785 -1.3160  0.9984  3.1710
  612MOL0     H82606   1.371   4.753   2.616  2.2837  1.0042 -0.1624
  612MOL0     H82607   1.512   4.943   2.603 -0.2786  0.0082 -0.2905
  612MOL0     H82608   1.689   5.307   2.435 -0.8256  0.0598  3.3245
  612MOL0     H82609   1.816   5.530   2.372 -0.2711  1.7448  1.1559
  612MOL0     H82610   1.891   5.714   2.549  0.0466  2.1027  1.5644
  612MOL0     H82611   1.910   5.716   2.381 -1.2236 -2.7378  1.3148
  612MOL0     H82612   1.866   5.952   2.587 -1.7987 -1.8341 -0.4064
  612MOL0     H82613   1.864   5.987   2.417  0.0346  0.2729 -0.9156
  612MOL0     H82614   2.101   5.884   2.567 -0.3293  0.3888 -0.2812
  612MOL0     H82615   2.062   6.046   2.522 -3.7594  0.4228  1.4369
  612MOL0     H82616   2.081   5.991   2.285  0.6767  1.4870  1.6685
  612MOL0     H82617   2.114   5.825   2.311 -0.0006  0.9335  0.3040
  612MOL0     H82618   2.472   6.032   2.414 -0.2376 -1.3799 -0.7486
  612MOL0     H82619   1.476   5.741   2.489 -1.0126 -1.0464  0.1824
  612MOL0     H82620   1.334   5.558   2.482 -0.3359  0.0269  3.3505
  613MOL0     O82621   3.089   7.882   0.322  0.2624  0.4224 -0.7606
  613MOL0     C82622   3.199   7.833   0.316 -0.6610 -0.2225 -0.5569
  613MOL0     O82623   3.295   7.856   0.225 -0.1747 -0.4845  0.3631
  613MOL0     C82624   3.297   7.978   0.160  0.3882  0.0577  0.3464
  613MOL0     C82625   3.375   7.992   0.043  0.0104  0.3573 -0.3246
  613MOL0     C82626   3.386   8.111  -0.024  0.1533 -0.4832 -0.1334
  613MOL0     C82627   3.309   8.218   0.009  0.8077  0.5237  0.9544
  613MOL0     O82628   3.333   8.330  -0.068  0.3742 -0.3326  0.3615
  613MOL0     C82629   3.340   8.446   0.009 -0.3956 -0.4112  0.2361
  613MOL0     C82630   3.309   8.558  -0.095 -0.9449 -0.9196 -0.0846
  613MOL0     C82631   3.351   8.701  -0.046  0.8205  0.4848 -0.0042
  613MOL0     C82632   3.333   8.814  -0.142 -0.2124 -0.1617  0.1101
  613MOL0     C82633   3.358   8.954  -0.086 -1.0162  0.7013  0.3024
  613MOL0     C82634   3.504   8.994  -0.089  0.2404  0.7977  0.0731
  613MOL0     C82635   3.568   9.005  -0.238 -0.5479  0.0365  0.2168
  613MOL0     C82636   3.714   9.028  -0.235 -0.7021 -0.5389 -0.0113
  613MOL0     N82637   3.789   8.917  -0.173  0.3818  0.1129 -0.0962
  613MOL0     C82638   3.786   8.783  -0.213 -0.4059  0.8324  0.4439
  613MOL0     C82639   3.865   8.721  -0.117  0.2155  0.9378 -0.0803
  613MOL0     C82640   3.898   8.575  -0.121  0.4421 -0.3520  0.2196
  613MOL0     C82641   3.900   8.497   0.007  0.5504 -0.0476 -0.5059
  613MOL0     C82642   3.755   8.463   0.064 -0.5291  0.6312 -0.1175
  613MOL0     C82643   3.753   8.452   0.220  0.3311  0.8089 -0.3974
  613MOL0     O82644   3.617   8.487   0.266 -0.7470  0.2427 -0.3861
  613MOL0     C82645   3.571   8.400   0.361  0.4797 -0.0223  0.1940
  613MOL0     C82646   3.468   8.449   0.444  0.4878  0.6065 -0.1909
  613MOL0     C82647   3.383   8.361   0.515 -0.1662 -0.8390 -0.2110
  613MOL0     C82648   3.280   8.428   0.603 -0.9531 -0.1383  0.9330
  613MOL0     C82649   3.416   8.226   0.523 -0.1724 -0.2762  0.0456
  613MOL0     C82650   3.324   8.122   0.587 -0.4698  0.0291 -0.0466
  613MOL0     O82651   3.390   8.017   0.650 -1.0195  0.4170 -0.2296
  613MOL0     C82652   3.328   7.914   0.726 -0.7528 -0.5192  0.7367
  613MOL0     C82653   3.211   7.928   0.796 -0.0853 -0.1011  0.3636
  613MOL0     C82654   3.162   7.815   0.866  0.0389  0.4538 -0.5485
  613MOL0     C82655   3.236   7.688   0.870  0.6705 -0.0346  0.3009
  613MOL0     O82656   3.202   7.573   0.939 -0.3236  0.8926  0.0137
  613MOL0     C82657   3.091   7.577   1.028 -0.0062  0.7365 -0.7600
  613MOL0     C82658   3.140   7.630   1.169 -0.3764 -0.1209 -0.1109
  613MOL0     C82659   3.240   7.529   1.225 -0.7864 -0.8643  0.0640
  613MOL0     C82660   3.322   7.579   1.340  0.5550  0.3928 -0.0884
  613MOL0     C82661   3.398   7.448   1.387 -0.2064 -0.9935  1.2117
  613MOL0     C82662   3.553   7.487   1.355  0.0914  0.4376  0.1673
  613MOL0     C82663   3.638   7.375   1.427 -0.2662  0.5364  0.7665
  613MOL0     C82664   3.781   7.433   1.447  0.5214 -0.1170 -0.1799
  613MOL0    Cl82665   3.856   7.453   1.289  0.0766  0.3239  0.2907
  613MOL0     C82666   3.353   7.679   0.789 -0.2755 -0.3390 -0.0088
  613MOL0     C82667   3.394   7.794   0.716 -0.1013  0.7701 -0.0661
  613MOL0     O82668   3.201   8.131   0.581  0.0105 -0.2328 -0.6566
  613MOL0     C82669   3.526   8.183   0.448  0.5358 -0.2526  0.4356
  613MOL0     C82670   3.595   8.261   0.356  0.2137 -0.1267 -0.1239
  613MOL0     N82671   3.891   8.807  -0.017  0.2337  0.9267 -0.1657
  613MOL0     N82672   3.864   8.929  -0.059  1.1458  0.5138 -1.1973
  613MOL0     C82673   3.230   8.217   0.125  0.4966  0.1815  0.2467
  613MOL0     C82674   3.235   8.096   0.203 -0.9489  0.9351  0.5473
  613MOL0     C82675   3.223   7.714   0.406  0.6037  1.2798  0.2070
  613MOL0     C82676   3.331   7.624   0.393  0.3613 -1.3697 -0.2110
  613MOL0     C82677   3.319   7.502   0.451  1.0923 -1.3052 -0.2592
  613MOL0     C82678   3.211   7.467   0.533  0.2958 -0.4260  0.6990
  613MOL0     O82679   3.226   7.337   0.578  0.0871  0.5103 -0.7138
  613MOL0     C82680   3.133   7.283   0.676 -0.0754 -0.4814 -0.4212
  613MOL0     C82681   3.159   7.133   0.682  1.4395 -1.4262 -0.5933
  613MOL0     C82682   3.061   7.058   0.775  0.5039  0.3590 -0.9944
  613MOL0     C82683   3.122   6.931   0.806 -1.1029  0.4834  0.3435
  613MOL0     C82684   3.132   6.854   0.681  0.4640 -0.1171  0.4954
  613MOL0     C82685   3.159   6.786   0.579  1.2621 -0.6625  0.5089
  613MOL0     C82686   3.120   7.557   0.567  0.6122 -0.4716  0.4961
  613MOL0     C82687   3.125   7.682   0.506  0.2734 -0.9277  0.4993
  613MOL0     H82688   3.426   7.905   0.004 -0.3440  0.1990 -0.4369
  613MOL0     H82689   3.458   8.129  -0.104 -0.3903 -0.3980 -0.6044
  613MOL0     H82690   3.259   8.470   0.079  0.5977  1.9439  0.6990
  613MOL0     H82691   3.436   8.465   0.059  0.4169  1.5443 -1.8976
  613MOL0     H82692   3.361   8.539  -0.190 -1.1754 -0.2000 -0.3626
  613MOL0     H82693   3.202   8.547  -0.115 -0.8720  0.5890 -1.5144
  613MOL0     H82694   3.272   8.707   0.029  0.9011  1.3565  0.0260
  613MOL0     H82695   3.438   8.722   0.017  0.7112 -2.0548  1.0960
  613MOL0     H82696   3.402   8.805  -0.227  1.3712  1.1080  1.1973
  613MOL0     H82697   3.232   8.802  -0.182  0.3626 -2.1461 -0.8656
  613MOL0     H82698   3.322   9.012  -0.171 -0.7449 -1.9295 -1.7259
  613MOL0     H82699   3.308   8.987   0.006 -2.6770  0.6444 -0.5489
  613MOL0     H82700   3.496   9.093  -0.044 -1.3145 -0.2003  2.1238
  613MOL0     H82701   3.552   8.919  -0.025  0.8453 -1.1108 -2.4322
  613MOL0     H82702   3.549   8.914  -0.295  0.4382  0.0836 -0.2151
  613MOL0     H82703   3.518   9.085  -0.293  0.7008  1.6357  1.3316
  613MOL0     H82704   3.745   9.121  -0.188  3.5602  0.2049 -3.5830
  613MOL0     H82705   3.766   9.040  -0.331  1.5530 -1.9414  0.9659
  613MOL0     H82706   3.733   8.739  -0.297  1.7402 -1.4232  0.1595
  613MOL0     H82707   3.838   8.515  -0.191  2.2019 -2.3192  0.2995
  613MOL0     H82708   4.000   8.565  -0.159  0.0053  0.9200 -1.4065
  613MOL0     H82709   3.953   8.557   0.082  0.9287 -1.9297  0.8201
  613MOL0     H82710   3.954   8.402  -0.001  0.2658 -0.2562  0.0176
  613MOL0     H82711   3.717   8.375   0.012  3.3860 -1.5400  0.3033
  613MOL0     H82712   3.699   8.553   0.036 -0.9565 -0.1217 -1.7699
  613MOL0     H82713   3.821   8.513   0.280  0.8415 -2.2966  2.4829
  613MOL0     H82714   3.792   8.351   0.236 -0.4158  0.8798  2.5476
  613MOL0     H82715   3.465   8.557   0.439  2.8161  0.8338  1.4171
  613MOL0     H82716   3.189   8.445   0.544  0.5440 -1.5243 -1.9880
  613MOL0     H82717   3.255   8.352   0.677  0.8193  1.3000  3.1469
  613MOL0     H82718   3.314   8.512   0.664 -2.1788  1.1946 -0.1311
  613MOL0     H82719   3.154   8.014   0.829 -0.3694 -0.6065  1.2080
  613MOL0     H82720   3.080   7.813   0.937  0.7679 -1.0442  0.3059
  613MOL0     H82721   3.009   7.642   0.994  0.3351  0.7524 -1.5672
  613MOL0     H82722   3.059   7.473   1.043  1.1383  0.0642 -2.5617
  613MOL0     H82723   3.182   7.731   1.163  1.5169 -0.7244  1.7649
  613MOL0     H82724   3.060   7.634   1.244  1.4409 -0.3489  1.9487
  613MOL0     H82725   3.316   7.506   1.150  0.4150 -0.5981  1.1582
  613MOL0     H82726   3.199   7.432   1.255  2.0332 -1.8569  1.0542
  613MOL0     H82727   3.384   7.666   1.316  1.7778 -0.8276 -1.4868
  613MOL0     H82728   3.253   7.610   1.420 -2.3229  0.2983 -2.3898
  613MOL0     H82729   3.381   7.353   1.336 -1.2683  0.6674 -1.7510
  613MOL0     H82730   3.387   7.437   1.495  0.3079  4.1058  2.0489
  613MOL0     H82731   3.580   7.496   1.250  0.8546  0.9520  0.4006
  613MOL0     H82732   3.574   7.583   1.404  0.7096  2.6453 -4.0012
  613MOL0     H82733   3.642   7.284   1.367  1.5992  0.9816  0.1465
  613MOL0     H82734   3.590   7.344   1.520 -0.0159 -1.4983  0.2700
  613MOL0     H82735   3.832   7.349   1.496  1.1757 -0.3532 -1.2180
  613MOL0     H82736   3.778   7.523   1.509 -1.7645 -0.5486  0.4227
  613MOL0     H82737   3.415   7.590   0.800 -1.8690 -1.1669  4.1310
  613MOL0     H82738   3.486   7.796   0.658  0.6404 -0.7187  1.0140
  613MOL0     H82739   3.539   8.076   0.447 -0.6522 -0.4148  0.5273
  613MOL0     H82740   3.656   8.212   0.282 -0.2099 -2.0050  0.7176
  613MOL0     H82741   3.166   8.298   0.159 -0.5799 -1.0949  1.3666
  613MOL0     H82742   3.174   8.096   0.293 -1.0543 -1.1629  0.5187
  613MOL0     H82743   3.400   7.641   0.311  1.5064 -0.5001  0.8930
  613MOL0     H82744   3.396   7.425   0.443  2.6059 -0.3870  3.2777
  613MOL0     H82745   3.139   7.332   0.774 -1.4967 -1.5005  0.2072
  613MOL0     H82746   3.027   7.297   0.653 -0.0558 -0.1301 -0.3174
  613MOL0     H82747   3.262   7.128   0.722  2.4588  5.3215 -1.3027
  613MOL0     H82748   3.145   7.083   0.586 -0.6655 -2.4805  0.1980
  613MOL0     H82749   2.958   7.059   0.737  0.5114  1.2319 -1.0115
  613MOL0     H82750   3.066   7.098   0.876  1.2828 -0.5680 -0.6572
  613MOL0     H82751   3.063   6.866   0.872 -2.4137 -0.5507 -1.7195
  613MOL0     H82752   3.224   6.940   0.843 -0.0050  1.7029 -2.7107
  613MOL0     H82753   3.189   6.722   0.498 -0.0618 -1.9713  0.9981
  613MOL0     H82754   3.048   7.527   0.643  2.2360 -5.4172  0.4294
  613MOL0     H82755   3.053   7.756   0.540 -0.5216 -2.1257  1.5310
  614MOL0     O82756   1.909   1.757   6.232 -0.0437 -0.0791  0.2320
  614MOL0     C82757   1.840   1.847   6.285  0.0253 -0.0483 -0.2171
  614MOL0     O82758   1.803   1.848   6.417  0.6618 -0.4933 -0.7606
  614MOL0     C82759   1.856   1.766   6.503 -0.6866 -0.1912  0.6855
  614MOL0     C82760   1.934   1.814   6.600  0.0309 -0.1712  0.2599
  614MOL0     C82761   1.996   1.717   6.691  0.6112 -0.1300 -0.2769
  614MOL0     C82762   1.999   1.582   6.673 -0.6949  0.5038  0.4775
  614MOL0     O82763   2.070   1.505   6.757  0.1843  0.1866  0.9740
  614MOL0     C82764   2.033   1.364   6.769 -0.0072 -0.5207  0.5068
  614MOL0     C82765   1.896   1.340   6.834  0.3480  0.0303 -0.2200
  614MOL0     C82766   1.872   1.404   6.972  0.1992 -0.0621 -0.5422
  614MOL0     C82767   1.731   1.392   7.024  0.0177  0.0087 -0.2373
  614MOL0     C82768   1.719   1.472   7.151  0.3725  0.3819 -0.1971
  614MOL0     C82769   1.590   1.460   7.229 -0.4019  0.6731  0.6252
  614MOL0     C82770   1.557   1.572   7.328  0.3247  0.3164  0.2641
  614MOL0     C82771   1.640   1.560   7.450 -0.7705  0.4519 -0.2364
  614MOL0     N82772   1.691   1.699   7.482 -0.6523 -0.3897 -0.5364
  614MOL0     C82773   1.775   1.771   7.396  0.3225 -0.8434  0.3529
  614MOL0     C82774   1.781   1.892   7.460  0.4530  0.5822 -0.5249
  614MOL0     C82775   1.865   2.006   7.432 -0.6333 -0.3588  0.8379
  614MOL0     C82776   1.937   2.051   7.559 -0.0018  0.8354  0.1062
  614MOL0     C82777   2.084   2.079   7.547 -1.1243  0.9523  0.0555
  614MOL0     C82778   2.153   2.070   7.686 -0.1725 -0.1904  0.6660
  614MOL0     O82779   2.146   1.936   7.732  0.0749  0.6578  0.6331
  614MOL0     C82780   2.199   1.908   7.852 -0.6169 -0.6566 -0.1847
  614MOL0     C82781   2.182   1.779   7.901 -0.0473  0.2655  0.1269
  614MOL0     C82782   2.251   1.728   8.012 -0.7867 -0.0773 -0.2200
  614MOL0     C82783   2.226   1.588   8.052 -0.2143 -0.2883  0.1059
  614MOL0     C82784   2.326   1.811   8.096 -0.3293 -0.2065 -0.0870
  614MOL0     C82785   2.383   1.776   8.218 -0.7535  0.0849 -0.0577
  614MOL0     O82786   2.302   1.714   8.313 -0.3875 -0.4179 -0.2544
  614MOL0     C82787   2.367   1.684   8.423  1.2480  0.0260 -0.2567
  614MOL0     C82788   2.329   1.754   8.545  0.5182  1.0545  0.7277
  614MOL0     C82789   2.397   1.723   8.662 -0.2470  0.3032  0.1257
  614MOL0     C82790   2.481   1.611   8.670 -0.8517 -0.3635  0.3987
  614MOL0     O82791   2.552   1.581   8.773 -0.4045 -0.0191 -0.3063
  614MOL0     C82792   2.472   1.511   8.868 -0.2093  0.3689 -0.2503
  614MOL0     C82793   2.570   1.436   8.976 -0.4047  0.6991 -0.9933
  614MOL0     C82794   2.698   1.364   8.924 -0.2757 -0.0380 -1.3406
  614MOL0     C82795   2.797   1.334   9.041 -0.2770 -0.9466 -0.1053
  614MOL0     C82796   2.920   1.250   8.996 -0.1169  0.3079 -0.1017
  614MOL0     C82797   3.012   1.324   8.893  0.3812 -1.0226  0.5521
  614MOL0     C82798   3.115   1.228   8.840 -0.8355  0.2969 -0.8177
  614MOL0     C82799   3.227   1.308   8.763  0.6464  0.8140 -0.4758
  614MOL0    Cl82800   3.298   1.429   8.879  0.2913  0.1685  0.0691
  614MOL0     C82801   2.515   1.560   8.551 -0.6152  0.3625 -1.1258
  614MOL0     C82802   2.461   1.589   8.424 -0.3674 -0.9168 -0.3358
  614MOL0     O82803   2.498   1.830   8.241 -0.5692  0.4440  0.3327
  614MOL0     C82804   2.321   1.946   8.056 -0.4364 -0.0708  0.3327
  614MOL0     C82805   2.270   1.993   7.931 -0.1884 -0.7697 -0.2868
  614MOL0     N82806   1.690   1.896   7.566 -0.0115 -0.6207  0.2106
  614MOL0     N82807   1.638   1.774   7.576 -0.7627 -0.9963  0.4421
  614MOL0     C82808   1.929   1.541   6.558  0.4601 -0.4876  0.6692
  614MOL0     C82809   1.855   1.626   6.476 -1.0326 -0.2030  0.2223
  614MOL0     C82810   1.759   1.943   6.207 -0.4380  0.6147  0.8437
  614MOL0     C82811   1.716   2.068   6.254 -0.0002 -0.4804  0.6123
  614MOL0     C82812   1.648   2.163   6.169  0.2550 -0.2047 -0.0688
  614MOL0     C82813   1.627   2.126   6.033 -0.0296 -0.2623  0.7441
  614MOL0     O82814   1.549   2.191   5.937 -0.5666 -0.6321  0.3622
  614MOL0     C82815   1.454   2.288   5.980  0.6439  0.2381  0.6162
  614MOL0     C82816   1.401   2.388   5.876 -0.7888 -0.1214  0.7434
  614MOL0     C82817   1.518   2.464   5.823 -1.0229 -0.0614 -0.4138
  614MOL0     C82818   1.590   2.399   5.698 -0.4868 -0.4936 -0.4977
  614MOL0     C82819   1.698   2.490   5.659 -0.7590  0.1372 -0.4590
  614MOL0     C82820   1.797   2.555   5.627 -0.3152 -0.2616 -0.0034
  614MOL0     C82821   1.693   2.011   5.984  0.6914  0.0187 -0.7639
  614MOL0     C82822   1.752   1.916   6.073 -0.2507 -0.3459  0.7236
  614MOL0     H82823   1.947   1.918   6.628  1.5692 -0.4756  0.7720
  614MOL0     H82824   2.062   1.764   6.763  3.1361  0.0012 -2.4894
  614MOL0     H82825   2.048   1.315   6.672  0.6649  1.8850 -0.6765
  614MOL0     H82826   2.109   1.318   6.833  2.2056 -0.0647 -1.6694
  614MOL0     H82827   1.813   1.380   6.775 -4.1334 -3.3636  2.9372
  614MOL0     H82828   1.871   1.233   6.835  1.7606 -0.3759  2.5434
  614MOL0     H82829   1.951   1.357   7.030  1.7446  2.0186 -0.8424
  614MOL0     H82830   1.890   1.512   6.967 -1.1154  0.1609 -1.0477
  614MOL0     H82831   1.654   1.443   6.964 -4.3050 -4.5918  0.7474
  614MOL0     H82832   1.703   1.288   7.039  1.2968 -0.6981 -2.3096
  614MOL0     H82833   1.782   1.428   7.229 -0.3665  2.0443  1.4072
  614MOL0     H82834   1.754   1.575   7.142  0.9227  0.2259  0.0672
  614MOL0     H82835   1.503   1.449   7.163  1.0591  0.4784 -1.3980
  614MOL0     H82836   1.587   1.371   7.292 -3.1184  1.0764  1.1671
  614MOL0     H82837   1.569   1.662   7.267 -1.2137 -1.1960 -2.4877
  614MOL0     H82838   1.450   1.574   7.349  0.1288  0.6997 -0.7013
  614MOL0     H82839   1.712   1.478   7.444 -0.2543  0.9284 -0.7324
  614MOL0     H82840   1.572   1.531   7.530 -0.9364  0.8158 -0.2430
  614MOL0     H82841   1.836   1.740   7.312 -2.1232 -0.1126 -1.8041
  614MOL0     H82842   1.931   1.987   7.347 -0.8384 -0.9070  0.8002
  614MOL0     H82843   1.790   2.080   7.403 -0.3432 -0.0659  0.8273
  614MOL0     H82844   1.926   1.973   7.635 -1.2600 -0.4468 -1.3020
  614MOL0     H82845   1.890   2.144   7.592  0.4994  2.1115 -2.4758
  614MOL0     H82846   2.099   2.176   7.499 -0.7033  1.6415  1.5127
  614MOL0     H82847   2.138   2.004   7.488 -1.2413 -1.1044  2.4031
  614MOL0     H82848   2.107   2.140   7.756  2.4761  1.0696  1.2714
  614MOL0     H82849   2.259   2.093   7.679 -0.3315  2.0900  3.7640
  614MOL0     H82850   2.112   1.715   7.847  2.0877 -3.5820  1.4994
  614MOL0     H82851   2.211   1.536   7.957  1.6995  3.1011 -2.2610
  614MOL0     H82852   2.314   1.541   8.098 -0.2823  0.4065  0.9659
  614MOL0     H82853   2.142   1.586   8.121 -0.3109  3.9582  0.3489
  614MOL0     H82854   2.242   1.820   8.543 -0.8580 -0.6250  1.8956
  614MOL0     H82855   2.378   1.781   8.752  1.3471 -2.7042  2.6144
  614MOL0     H82856   2.400   1.577   8.917 -1.6307 -1.2076 -0.0901
  614MOL0     H82857   2.425   1.428   8.814 -0.9804  3.4515 -4.9030
  614MOL0     H82858   2.617   1.503   9.049 -0.0139 -2.6550  2.1023
  614MOL0     H82859   2.518   1.368   9.043 -0.2003 -1.9820 -3.3724
  614MOL0     H82860   2.744   1.431   8.851  2.4746  2.1873  2.1016
  614MOL0     H82861   2.689   1.268   8.874 -0.7315 -2.3221  2.7312
  614MOL0     H82862   2.835   1.420   9.096  1.6297 -1.1416 -1.0513
  614MOL0     H82863   2.735   1.279   9.113 -3.1253  0.9062 -0.9653
  614MOL0     H82864   2.880   1.157   8.953  0.0051  1.1775 -2.2382
  614MOL0     H82865   2.983   1.230   9.083 -3.3889 -2.3988  1.9215
  614MOL0     H82866   2.953   1.367   8.811  0.4969  0.2703  1.1147
  614MOL0     H82867   3.049   1.416   8.939 -0.6890  0.5579 -1.5490
  614MOL0     H82868   3.063   1.155   8.777 -3.2177  2.3579 -1.4166
  614MOL0     H82869   3.164   1.172   8.921 -0.6240 -0.6587 -1.5946
  614MOL0     H82870   3.187   1.359   8.675  2.6199  1.8691 -0.8287
  614MOL0     H82871   3.301   1.242   8.717 -0.7369 -0.5906 -0.7713
  614MOL0     H82872   2.584   1.478   8.567 -3.2596 -1.2468  4.7681
  614MOL0     H82873   2.488   1.522   8.343 -0.0443 -1.0285 -0.1352
  614MOL0     H82874   2.373   2.023   8.112 -0.0875 -0.3690  0.4221
  614MOL0     H82875   2.277   2.095   7.894 -0.6183 -0.9497 -0.8706
  614MOL0     H82876   1.928   1.434   6.541 -2.8842 -0.7232  1.5503
  614MOL0     H82877   1.788   1.597   6.396 -1.6786 -1.1802  1.0956
  614MOL0     H82878   1.730   2.096   6.358 -1.1339 -0.7934  0.8586
  614MOL0     H82879   1.609   2.253   6.215  0.5349 -0.3237  0.4166
  614MOL0     H82880   1.372   2.224   6.014  0.8560 -0.8865 -0.8696
  614MOL0     H82881   1.485   2.350   6.064  2.3940 -0.0198  0.2117
  614MOL0     H82882   1.336   2.455   5.933  2.5311  1.5427  2.8443
  614MOL0     H82883   1.340   2.339   5.799 -0.2387 -0.9731  0.8410
  614MOL0     H82884   1.592   2.475   5.902 -2.3194 -4.3921  1.7014
  614MOL0     H82885   1.493   2.566   5.791  2.8441  0.4746 -2.2219
  614MOL0     H82886   1.515   2.380   5.620 -1.2398 -3.5080  0.8125
  614MOL0     H82887   1.616   2.296   5.723 -3.9688 -1.4239 -0.1173
  614MOL0     H82888   1.883   2.609   5.593  0.4979  1.6186  4.3185
  614MOL0     H82889   1.708   1.986   5.879  2.2510  3.0925 -1.4034
  614MOL0     H82890   1.788   1.825   6.026  0.2414 -0.2222  0.8546
  615MOL0     O82891   5.629   0.770   3.238  0.7409 -0.0251 -0.4681
  615MOL0     C82892   5.731   0.757   3.176 -0.4159  0.9664  0.5057
  615MOL0     O82893   5.859   0.756   3.234  0.4375 -2.3131  0.3382
  615MOL0     C82894   5.868   0.776   3.367  0.0071 -0.7742  0.6563
  615MOL0     C82895   5.822   0.688   3.459 -0.3044  0.7378 -0.5862
  615MOL0     C82896   5.823   0.724   3.600 -0.1558  1.1409  0.0441
  615MOL0     C82897   5.853   0.851   3.639 -0.7104  0.6694  0.7448
  615MOL0     O82898   5.853   0.905   3.765 -0.1634  0.0599  0.1119
  615MOL0     C82899   5.833   0.834   3.890  0.1634 -0.1264 -0.6813
  615MOL0     C82900   5.968   0.816   3.960 -0.0942 -0.1814  0.2620
  615MOL0     C82901   5.949   0.779   4.104 -0.4724 -0.2315  0.7247
  615MOL0     C82902   6.084   0.735   4.168  0.6770 -0.7423  0.0853
  615MOL0     C82903   6.076   0.748   4.320 -0.3337  0.2334 -0.3584
  615MOL0     C82904   6.213   0.716   4.388 -0.0669  0.7695 -0.4238
  615MOL0     C82905   6.202   0.784   4.525 -0.5247 -0.3118 -1.4816
  615MOL0     C82906   6.287   0.713   4.631  0.1998 -0.9424 -1.0390
  615MOL0     N82907   6.288   0.781   4.760 -0.1062  0.0092 -0.5325
  615MOL0     C82908   6.168   0.794   4.838 -1.0823 -0.4496 -0.1030
  615MOL0     C82909   6.204   0.886   4.937  0.2017 -0.2236  0.3048
  615MOL0     C82910   6.128   0.912   5.067 -0.1099  0.5560  0.5888
  615MOL0     C82911   6.152   1.053   5.121 -0.1039  0.1981 -0.0420
  615MOL0     C82912   6.079   1.164   5.027  0.2215 -0.0971 -0.4615
  615MOL0     C82913   6.100   1.303   5.104  0.1031  0.2816 -0.0643
  615MOL0     O82914   6.240   1.329   5.114 -1.3066  0.7126 -0.2733
  615MOL0     C82915   6.294   1.434   5.184 -0.4153  0.0964  0.2121
  615MOL0     C82916   6.206   1.517   5.265 -0.7317  0.7150  0.0580
  615MOL0     C82917   6.264   1.627   5.327  1.1760  0.7638  0.1523
  615MOL0     C82918   6.151   1.715   5.386  0.7337 -0.4197 -0.2088
  615MOL0     C82919   6.396   1.659   5.308 -0.7794  0.0710 -0.8149
  615MOL0     C82920   6.448   1.776   5.371  0.4620  0.4717 -0.3678
  615MOL0     O82921   6.580   1.768   5.418  0.3302  0.5452 -0.0999
  615MOL0     C82922   6.630   1.883   5.468 -1.0343 -0.2497 -0.3757
  615MOL0     C82923   6.743   1.931   5.406  0.3230  0.2171 -0.0653
  615MOL0     C82924   6.804   2.053   5.445  0.4410  0.6221  0.5582
  615MOL0     C82925   6.749   2.137   5.547 -0.0533 -0.4013  0.9021
  615MOL0     O82926   6.825   2.244   5.587 -0.3640 -0.5979 -0.0752
  615MOL0     C82927   6.787   2.319   5.701 -0.1254  0.0962  0.3979
  615MOL0     C82928   6.886   2.430   5.703 -0.8341 -0.3079  0.0985
  615MOL0     C82929   6.844   2.540   5.802  0.1442  0.1700  0.0826
  615MOL0     C82930   6.860   2.512   5.956 -0.5369 -0.3165  0.1863
  615MOL0     C82931   7.007   2.478   6.007  0.6491  1.1736  0.6167
  615MOL0     C82932   7.002   2.466   6.158  0.4597  0.0973 -0.3935
  615MOL0     C82933   6.979   2.606   6.238 -0.4234  0.3026  0.7008
  615MOL0     C82934   7.007   2.586   6.387  0.1774  0.5104 -0.2543
  615MOL0    Cl82935   6.896   2.457   6.446  0.3961 -0.0846 -0.0002
  615MOL0     C82936   6.633   2.087   5.604 -0.0282 -0.6920 -0.7731
  615MOL0     C82937   6.574   1.960   5.574 -0.2639  0.1778  1.0253
  615MOL0     O82938   6.377   1.874   5.383 -0.3814 -0.4786 -0.2909
  615MOL0     C82939   6.480   1.574   5.227  0.5814  0.8998  0.6991
  615MOL0     C82940   6.432   1.461   5.164 -0.2329 -1.0172 -0.7668
  615MOL0     N82941   6.340   0.913   4.912  0.0648 -0.5083 -0.1522
  615MOL0     N82942   6.384   0.866   4.801  0.8589 -0.0402 -0.3078
  615MOL0     C82943   5.895   0.937   3.537  0.1832 -0.4097  0.0587
  615MOL0     C82944   5.904   0.906   3.406  0.1625  0.5433 -0.5923
  615MOL0     C82945   5.721   0.773   3.032  0.0205 -0.0374  0.9714
  615MOL0     C82946   5.832   0.796   2.950  0.7241 -0.5227 -0.2241
  615MOL0     C82947   5.814   0.791   2.811  0.6582  0.4568  0.3748
  615MOL0     C82948   5.685   0.767   2.748  0.7146  0.5198  0.2561
  615MOL0     O82949   5.672   0.769   2.612 -0.2694  0.2606  0.6567
  615MOL0     C82950   5.559   0.792   2.538  0.4156 -0.7521  0.3817
  615MOL0     C82951   5.472   0.919   2.570 -0.2892  0.4013  0.0520
  615MOL0     C82952   5.562   1.044   2.561  0.3371 -0.7519 -1.0702
  615MOL0     C82953   5.589   1.089   2.422 -0.2274  0.3961  0.0230
  615MOL0     C82954   5.469   1.158   2.373  0.0338  0.2861  0.0446
  615MOL0     C82955   5.362   1.197   2.328  0.4503  0.5180  1.4499
  615MOL0     C82956   5.579   0.768   2.833 -0.1590  0.0066 -0.2590
  615MOL0     C82957   5.593   0.769   2.970 -0.5164  0.7306 -0.9228
  615MOL0     H82958   5.794   0.592   3.417 -0.0470  1.3950 -2.3288
  615MOL0     H82959   5.775   0.652   3.666  2.7372 -4.7316 -3.4153
  615MOL0     H82960   5.771   0.896   3.956  1.7225  0.9835 -0.2151
  615MOL0     H82961   5.783   0.737   3.880  2.6684 -1.9615  2.5028
  615MOL0     H82962   6.033   0.742   3.913  0.7482 -0.1099  1.2631
  615MOL0     H82963   6.023   0.910   3.954  0.1216 -0.3784 -1.0563
  615MOL0     H82964   5.915   0.875   4.144  0.3286  1.8981 -3.2334
  615MOL0     H82965   5.877   0.696   4.102  0.7792 -1.3570 -1.6371
  615MOL0     H82966   6.111   0.637   4.127 -1.3125 -1.2168 -0.1768
  615MOL0     H82967   6.166   0.802   4.140  0.2252  0.5593  1.7109
  615MOL0     H82968   6.057   0.852   4.347  0.1269 -0.1487  1.5420
  615MOL0     H82969   5.990   0.689   4.354 -0.3878 -0.0490 -0.9684
  615MOL0     H82970   6.229   0.610   4.410 -1.2316  0.4259 -1.1406
  615MOL0     H82971   6.297   0.761   4.335  1.1090 -0.3045  0.4430
  615MOL0     H82972   6.241   0.886   4.516  0.0410 -0.2693  0.7631
  615MOL0     H82973   6.100   0.778   4.565  0.6509 -3.4061  1.5500
  615MOL0     H82974   6.389   0.701   4.592 -0.1892  1.5520 -3.0911
  615MOL0     H82975   6.244   0.618   4.666  0.5090  0.6772  4.7907
  615MOL0     H82976   6.071   0.744   4.836 -0.8382 -1.0081  1.4257
  615MOL0     H82977   6.024   0.890   5.044 -0.2368 -0.5088  2.0039
  615MOL0     H82978   6.170   0.832   5.129 -4.7430 -3.4791 -0.8181
  615MOL0     H82979   6.258   1.074   5.134  0.4835 -1.2491 -2.0330
  615MOL0     H82980   6.103   1.045   5.219 -1.1556  0.1072 -0.5573
  615MOL0     H82981   5.975   1.138   5.005 -0.0067  0.2786  0.1500
  615MOL0     H82982   6.121   1.172   4.926 -2.5163  2.1421 -1.5785
  615MOL0     H82983   6.044   1.307   5.198  0.6390  1.1447  0.2292
  615MOL0     H82984   6.059   1.376   5.034  2.4669  1.7157 -0.0800
  615MOL0     H82985   6.104   1.482   5.271 -0.2393 -0.6292  1.0612
  615MOL0     H82986   6.133   1.788   5.307 -2.1351  0.3292  1.0039
  615MOL0     H82987   6.059   1.662   5.414 -0.0184 -0.0894 -1.8870
  615MOL0     H82988   6.181   1.753   5.484  1.0977  1.5383 -1.0294
  615MOL0     H82989   6.794   1.885   5.322 -0.0824 -0.6387  0.1409
  615MOL0     H82990   6.892   2.091   5.393 -1.6967  1.7564 -2.4831
  615MOL0     H82991   6.686   2.356   5.683 -1.1310 -1.5138  2.3798
  615MOL0     H82992   6.774   2.258   5.790 -0.3408 -0.4407  0.0011
  615MOL0     H82993   6.986   2.395   5.733 -0.2881  1.1892  0.1074
  615MOL0     H82994   6.898   2.479   5.606 -2.0581  0.7824  0.4704
  615MOL0     H82995   6.737   2.555   5.785 -0.1752 -1.3296  0.6612
  615MOL0     H82996   6.891   2.634   5.771 -0.0130 -0.0382 -0.8045
  615MOL0     H82997   6.833   2.604   6.009  0.9863 -1.6275  3.5511
  615MOL0     H82998   6.777   2.444   5.978 -0.7336 -0.9730 -2.2824
  615MOL0     H82999   7.070   2.562   5.977  3.5713 -1.8792 -2.8225
  615MOL0     H83000   7.038   2.389   5.952  2.8139  2.6062 -0.6226
  615MOL0     H83001   6.922   2.399   6.190 -2.6863  4.8169  3.1116
  615MOL0     H83002   7.098   2.420   6.185  0.4089  1.0313  1.5465
  615MOL0     H83003   6.876   2.640   6.224  0.2946  2.7958  1.0416
  615MOL0     H83004   7.043   2.680   6.190 -0.5025 -0.3025 -0.3831
  615MOL0     H83005   6.973   2.672   6.445 -0.4601 -0.6051  1.0919
  615MOL0     H83006   7.111   2.557   6.398 -0.1782 -0.8497 -0.2415
  615MOL0     H83007   6.585   2.145   5.682 -0.0700 -0.3484 -1.0480
  615MOL0     H83008   6.487   1.936   5.633 -1.3514  0.2285 -0.5197
  615MOL0     H83009   6.585   1.598   5.212  0.1462  1.4561 -1.8110
  615MOL0     H83010   6.483   1.415   5.080  4.1443  1.3967  0.2604
  615MOL0     H83011   5.905   1.042   3.564  2.6680 -0.5398 -0.1215
  615MOL0     H83012   5.935   0.987   3.340  1.6918  0.9256  0.5315
  615MOL0     H83013   5.932   0.810   2.991  0.8878 -1.8696 -0.1161
  615MOL0     H83014   5.894   0.813   2.741  0.7169  0.7890  0.5487
  615MOL0     H83015   5.594   0.795   2.434 -1.0004 -4.3256 -0.3403
  615MOL0     H83016   5.503   0.698   2.547  2.7688 -2.2347  0.3169
  615MOL0     H83017   5.415   0.906   2.662 -0.8304 -1.1007 -0.4506
  615MOL0     H83018   5.398   0.925   2.489  2.7213 -1.8582 -3.2061
  615MOL0     H83019   5.660   1.018   2.602 -0.4645 -3.2296 -0.5024
  615MOL0     H83020   5.507   1.126   2.608 -0.3381 -0.0985 -2.9113
  615MOL0     H83021   5.634   1.015   2.355 -1.1949  3.2087 -4.1382
  615MOL0     H83022   5.669   1.158   2.447  0.8088 -0.6388 -0.3539
  615MOL0     H83023   5.271   1.234   2.285  0.9199 -1.8264 -2.0288
  615MOL0     H83024   5.479   0.750   2.797  0.0979 -0.2379 -0.8518
  615MOL0     H83025   5.502   0.766   3.030  0.3584 -1.4034  0.4029
  616MOL0     O83026   4.321   5.882  10.525  0.0760 -0.0912 -0.3548
  616MOL0     C83027   4.440   5.874  10.510 -0.3377  1.2851  0.0971
  616MOL0     O83028   4.508   5.864  10.394  0.4156  0.3061  0.1213
  616MOL0     C83029   4.448   5.871  10.279  0.7584 -0.2663  0.1799
  616MOL0     C83030   4.448   5.762  10.196  0.1822 -0.0945 -0.0285
  616MOL0     C83031   4.387   5.765  10.070  0.0531 -0.4374 -0.2118
  616MOL0     C83032   4.310   5.883  10.040 -0.6143 -0.8454  0.0581
  616MOL0     O83033   4.239   5.901   9.923  0.8563  1.1358  0.3567
  616MOL0     C83034   4.111   5.829   9.943  0.4070  0.2389 -0.2890
  616MOL0     C83035   4.027   5.862   9.822 -0.1070 -0.1527 -0.9251
  616MOL0     C83036   4.056   5.768   9.695 -0.0021 -0.0722 -0.0229
  616MOL0     C83037   4.129   5.640   9.718  0.4020 -0.3355  0.2245
  616MOL0     C83038   4.125   5.553   9.595  0.1114 -0.6939  0.1432
  616MOL0     C83039   4.197   5.606   9.466 -1.3282  1.1029 -0.0530
  616MOL0     C83040   4.217   5.502   9.343 -0.9468 -0.5574  0.8143
  616MOL0     C83041   4.110   5.389   9.350 -0.2319 -0.2803 -0.0082
  616MOL0     N83042   4.124   5.323   9.224  0.7053  0.2606 -0.5139
  616MOL0     C83043   4.208   5.212   9.199  0.4559 -1.1320  0.0169
  616MOL0     C83044   4.202   5.203   9.061  0.8553  0.4800 -0.5979
  616MOL0     C83045   4.297   5.114   8.976  0.0621  0.4617  0.2699
  616MOL0     C83046   4.371   5.209   8.877  0.4188 -0.5745  0.1989
  616MOL0     C83047   4.481   5.131   8.816 -0.7603  0.5517  1.4229
  616MOL0     C83048   4.559   5.202   8.714 -0.2346 -0.6522 -1.0060
  616MOL0     O83049   4.684   5.135   8.676  0.6479 -0.6674  0.5107
  616MOL0     C83050   4.740   5.207   8.572  1.4158 -0.8601 -0.5293
  616MOL0     C83051   4.802   5.332   8.603  0.0327 -0.4892  0.9955
  616MOL0     C83052   4.862   5.401   8.498 -0.4492 -0.1207 -0.0704
  616MOL0     C83053   4.924   5.526   8.547  0.8057  0.3801 -0.9543
  616MOL0     C83054   4.849   5.361   8.357 -0.9281  0.6154 -0.3062
  616MOL0     C83055   4.908   5.422   8.244  0.7252 -0.5345 -0.3638
  616MOL0     O83056   4.864   5.387   8.122  0.3524  0.4810  0.5092
  616MOL0     C83057   4.865   5.471   8.012  0.0453  0.8657  0.0778
  616MOL0     C83058   4.938   5.583   7.984  0.0492  0.3131  0.2519
  616MOL0     C83059   4.915   5.661   7.877  0.3661 -1.3506  0.0570
  616MOL0     C83060   4.810   5.636   7.790  0.2091  0.0665 -1.4919
  616MOL0     O83061   4.774   5.714   7.684 -0.2493  0.8530 -0.1266
  616MOL0     C83062   4.859   5.813   7.624 -0.1583  0.8352  0.1048
  616MOL0     C83063   4.774   5.887   7.523  0.0440  1.0427 -0.7193
  616MOL0     C83064   4.669   5.973   7.580  0.4043  0.0014 -1.7601
  616MOL0     C83065   4.605   6.083   7.495  0.1942 -0.9013 -1.2221
  616MOL0     C83066   4.514   6.176   7.574  0.8497  0.2866  0.2310
  616MOL0     C83067   4.443   6.260   7.469 -0.5776 -0.5526  1.1589
  616MOL0     C83068   4.334   6.348   7.533 -0.4679 -0.1197  0.8734
  616MOL0     C83069   4.232   6.409   7.432  0.2996 -0.3103  0.9260
  616MOL0    Cl83070   4.138   6.276   7.356  0.2150 -0.3894 -0.2068
  616MOL0     C83071   4.741   5.521   7.799  0.9221 -0.4007 -0.2997
  616MOL0     C83072   4.772   5.442   7.913  0.4752  0.0645 -0.0113
  616MOL0     O83073   4.976   5.526   8.262  0.6289  0.4818 -0.3915
  616MOL0     C83074   4.766   5.248   8.330 -0.6529 -0.0443 -0.4352
  616MOL0     C83075   4.717   5.174   8.444 -0.0841  0.2229 -0.0100
  616MOL0     N83076   4.101   5.285   9.013 -0.8448  0.1783  0.4426
  616MOL0     N83077   4.062   5.365   9.109  0.2065  0.0475 -0.0841
  616MOL0     C83078   4.316   5.995  10.127  0.6890 -1.0065 -0.8472
  616MOL0     C83079   4.388   5.990  10.251  0.0556 -0.0562 -0.6642
  616MOL0     C83080   4.523   5.895  10.633  0.0009  1.0923  1.5681
  616MOL0     C83081   4.661   5.885  10.617 -0.0767 -0.3920  1.0323
  616MOL0     C83082   4.754   5.926  10.714  0.0348  0.0023  0.2171
  616MOL0     C83083   4.716   5.967  10.839  0.2508 -0.0517  0.2665
  616MOL0     O83084   4.813   6.004  10.931  0.0158  0.2960 -0.6565
  616MOL0     C83085   4.777   6.035  11.067  0.8843 -0.0161  0.2439
  616MOL0     C83086   4.805   5.906  11.144 -0.5073  0.5163  0.6495
  616MOL0     C83087   4.780   5.912  11.299  0.5474 -0.4093 -0.2015
  616MOL0     C83088   4.764   5.768  11.360 -0.8058 -0.3620 -0.3722
  616MOL0     C83089   4.772   5.780  11.504 -0.1580  0.3970 -0.7924
  616MOL0     C83090   4.764   5.818  11.622 -0.5913 -0.2124 -1.0186
  616MOL0     C83091   4.572   5.983  10.853  0.1181  0.0837  0.8307
  616MOL0     C83092   4.481   5.945  10.752 -0.4942 -0.1706  0.6891
  616MOL0     H83093   4.511   5.678  10.224 -0.1961 -1.3078 -2.5577
  616MOL0     H83094   4.404   5.687   9.996  2.3548  0.3813 -0.6382
  616MOL0     H83095   4.130   5.723   9.957 -1.7061  0.0115  1.5267
  616MOL0     H83096   4.062   5.861  10.036  2.1352 -3.9934  2.3918
  616MOL0     H83097   3.923   5.867   9.855  0.5444  2.6290  1.1127
  616MOL0     H83098   4.044   5.966   9.793  3.9374 -0.1024  0.8518
  616MOL0     H83099   3.957   5.742   9.656 -0.8125  1.8719  0.6328
  616MOL0     H83100   4.111   5.821   9.616  1.4649 -2.2210 -0.5389
  616MOL0     H83101   4.230   5.649   9.760  0.9789 -1.6235 -0.8134
  616MOL0     H83102   4.068   5.600   9.799 -0.7550 -0.5036 -0.6930
  616MOL0     H83103   4.158   5.451   9.616 -1.1059 -1.2744 -0.6863
  616MOL0     H83104   4.021   5.549   9.563 -0.3585 -2.7873  1.7267
  616MOL0     H83105   4.146   5.695   9.427  2.1554  3.5957  0.5643
  616MOL0     H83106   4.302   5.632   9.486 -0.1798 -1.8474 -1.6418
  616MOL0     H83107   4.211   5.565   9.254 -2.2743  0.9488  1.9045
  616MOL0     H83108   4.315   5.455   9.354 -1.3336 -1.0323  2.5419
  616MOL0     H83109   4.006   5.420   9.364 -1.0719 -3.1259  0.7747
  616MOL0     H83110   4.127   5.316   9.430 -0.6489  0.7543  1.0639
  616MOL0     H83111   4.277   5.170   9.271  0.6488 -2.5907 -0.9737
  616MOL0     H83112   4.371   5.063   9.038 -0.8401 -0.7904  0.3606
  616MOL0     H83113   4.243   5.048   8.908  1.9309  1.2303 -2.0915
  616MOL0     H83114   4.408   5.300   8.925 -0.1066 -0.6601  0.7759
  616MOL0     H83115   4.301   5.239   8.798 -0.3172  0.2379  1.1193
  616MOL0     H83116   4.445   5.041   8.764 -1.3185  1.6692 -0.2238
  616MOL0     H83117   4.552   5.103   8.893 -1.0110  0.8530  1.7683
  616MOL0     H83118   4.591   5.291   8.769 -0.5633 -1.1798  0.0810
  616MOL0     H83119   4.509   5.240   8.625  0.4784 -0.6013 -1.3959
  616MOL0     H83120   4.816   5.360   8.707  3.5273  0.4115  0.3867
  616MOL0     H83121   4.907   5.608   8.476 -2.6242 -0.2331 -1.0168
  616MOL0     H83122   4.879   5.558   8.641 -2.4482 -1.8939 -1.5326
  616MOL0     H83123   5.032   5.509   8.548  0.7353 -0.4003 -2.6369
  616MOL0     H83124   5.006   5.624   8.058  0.3110  0.6663 -0.1789
  616MOL0     H83125   4.966   5.756   7.890 -1.6123 -0.3217  0.7996
  616MOL0     H83126   4.899   5.878   7.702  2.7096 -1.5645  0.8363
  616MOL0     H83127   4.947   5.775   7.570  0.4420  1.6592  0.4777
  616MOL0     H83128   4.843   5.960   7.480  0.8502  1.6240  1.4449
  616MOL0     H83129   4.723   5.817   7.457 -2.4137  2.7149 -0.7076
  616MOL0     H83130   4.704   6.026   7.669 -0.6850 -0.1784 -1.2023
  616MOL0     H83131   4.590   5.900   7.599  2.7556 -2.2699  0.0028
  616MOL0     H83132   4.688   6.143   7.458  1.0749 -2.7657 -2.4558
  616MOL0     H83133   4.551   6.041   7.409  0.1937 -1.8351 -0.7819
  616MOL0     H83134   4.575   6.238   7.640  3.2696 -3.4076  1.8194
  616MOL0     H83135   4.453   6.125   7.649  0.5192 -3.4015 -2.2819
  616MOL0     H83136   4.513   6.318   7.408  2.0407  2.2439  6.1835
  616MOL0     H83137   4.381   6.187   7.415  0.3050 -2.5141  2.6551
  616MOL0     H83138   4.380   6.430   7.588  3.3377  0.0018 -2.0475
  616MOL0     H83139   4.280   6.291   7.609 -0.3357  2.2894  2.8877
  616MOL0     H83140   4.279   6.461   7.348 -3.1662  0.1018 -0.9327
  616MOL0     H83141   4.166   6.478   7.484 -0.1951  0.8766 -1.1742
  616MOL0     H83142   4.661   5.498   7.729 -2.6155 -0.9924  3.5407
  616MOL0     H83143   4.707   5.356   7.927 -0.6794  1.1081  1.3874
  616MOL0     H83144   4.750   5.205   8.232  0.3017 -0.0964 -0.5743
  616MOL0     H83145   4.668   5.079   8.423  1.6815  0.2593 -6.3563
  616MOL0     H83146   4.253   6.079  10.097 -1.7409 -1.8957  1.4243
  616MOL0     H83147   4.391   6.066  10.329 -0.0323  0.7758 -1.4512
  616MOL0     H83148   4.708   5.859  10.522 -0.3907  2.9855 -0.1611
  616MOL0     H83149   4.860   5.929  10.691  0.0477  0.1021  0.2865
  616MOL0     H83150   4.842   6.112  11.111  0.1919 -0.1250  1.5113
  616MOL0     H83151   4.673   6.067  11.074  0.8934 -0.0033  0.3227
  616MOL0     H83152   4.910   5.878  11.133 -0.5886  0.7316 -0.8203
  616MOL0     H83153   4.745   5.825  11.101  1.5938 -1.5933  1.4839
  616MOL0     H83154   4.685   5.963  11.317  1.1968  0.0428  2.3372
  616MOL0     H83155   4.860   5.959  11.356  0.9758 -1.0612 -0.2493
  616MOL0     H83156   4.845   5.702  11.329  0.7485  0.3059  1.9701
  616MOL0     H83157   4.674   5.718  11.322 -0.1556 -2.4044  0.6235
  616MOL0     H83158   4.763   5.856  11.721 -0.5371  1.0649 -1.4944
  616MOL0     H83159   4.521   6.030  10.936 -0.7084  1.0088 -0.1613
  616MOL0     H83160   4.379   5.979  10.760 -0.2258  0.7936  0.1577
  617MOL0     O83161   8.874  10.151  10.304  1.0009  0.5724 -0.4877
  617MOL0     C83162   8.809  10.046  10.318  0.5337 -0.0748 -0.8136
  617MOL0     O83163   8.858   9.932  10.373 -0.1040 -0.6575 -0.0431
  617MOL0     C83164   8.986   9.923  10.401  0.5729 -0.2807  0.0096
  617MOL0     C83165   9.051   9.798  10.364  1.2141  0.1782 -0.3701
  617MOL0     C83166   9.171   9.761  10.427 -0.4706  0.4863 -0.0453
  617MOL0     C83167   9.237   9.852  10.514 -0.0735 -0.4953 -0.8237
  617MOL0     O83168   9.359   9.819  10.555  0.1287 -0.4116 -0.5261
  617MOL0     C83169   9.450   9.751  10.467  0.2773  0.6169  0.2123
  617MOL0     C83170   9.475   9.596  10.489 -0.1622  0.4967  0.1875
  617MOL0     C83171   9.574   9.536  10.385 -0.2323 -0.6720 -0.2495
  617MOL0     C83172   9.501   9.471  10.271  0.4629 -0.6575 -0.4655
  617MOL0     C83173   9.591   9.382  10.183  0.2098  0.0740  1.1727
  617MOL0     C83174   9.546   9.311  10.049 -0.1189  0.0257 -0.3195
  617MOL0     C83175   9.663   9.240   9.967  0.5965 -0.5720  0.5434
  617MOL0     C83176   9.772   9.348   9.914  0.8585 -0.4219  0.1239
  617MOL0     N83177   9.831   9.306   9.782 -0.0844 -0.0388 -0.6137
  617MOL0     C83178   9.930   9.214   9.755  0.0504  1.3665  0.3987
  617MOL0     C83179   9.921   9.196   9.617 -0.4358 -0.3765 -0.8464
  617MOL0     C83180   9.987   9.082   9.530  0.1674  0.1674 -0.4315
  617MOL0     C83181   9.898   8.963   9.505  0.3637  0.0094 -0.5974
  617MOL0     C83182   9.867   8.904   9.643  0.7783  0.3149 -0.3135
  617MOL0     C83183   9.728   8.934   9.710  0.6510  0.8440  0.1346
  617MOL0     O83184   9.625   8.909   9.616  0.0208  0.1044 -0.4940
  617MOL0     C83185   9.544   8.803   9.644  0.5770 -1.1966 -0.2302
  617MOL0     C83186   9.443   8.808   9.740 -0.5682  0.4888  0.4152
  617MOL0     C83187   9.381   8.689   9.786  1.0897 -0.8943 -0.3566
  617MOL0     C83188   9.304   8.698   9.914  0.0864  0.9003 -0.3240
  617MOL0     C83189   9.416   8.565   9.732 -0.6303 -0.0778 -0.3350
  617MOL0     C83190   9.375   8.428   9.781  0.2154  0.4019  0.4696
  617MOL0     O83191   9.340   8.409   9.908  0.2787 -0.1794 -0.2082
  617MOL0     C83192   9.331   8.289   9.980  0.1951  0.8212  0.1459
  617MOL0     C83193   9.398   8.173   9.943 -0.1081 -0.4343 -0.2745
  617MOL0     C83194   9.386   8.052  10.024 -0.0089 -1.2601 -0.9401
  617MOL0     C83195   9.309   8.043  10.130  1.6086  0.7666 -1.1447
  617MOL0     O83196   9.314   7.937  10.227  0.9777 -0.4240 -0.2476
  617MOL0     C83197   9.437   7.864  10.224 -0.2050 -0.4648  0.4125
  617MOL0     C83198   9.443   7.776  10.343  0.0659  0.7698 -0.1713
  617MOL0     C83199   9.576   7.687  10.354  0.4774  1.1054  0.0851
  617MOL0     C83200   9.561   7.578  10.458 -0.1574  0.4679  0.6267
  617MOL0     C83201   9.678   7.486  10.443 -0.4804  1.4619 -0.1545
  617MOL0     C83202   9.653   7.363  10.528 -0.0745  0.5197 -0.3566
  617MOL0     C83203   9.761   7.260  10.504  0.5133  0.3810  0.2497
  617MOL0     C83204   9.752   7.132  10.585 -0.2660 -0.6589  0.4191
  617MOL0    Cl83205   9.879   7.031  10.531 -0.2951 -0.3423 -0.4213
  617MOL0     C83206   9.257   8.175  10.177  0.4428  0.6083  0.1862
  617MOL0     C83207   9.264   8.289  10.100  0.0647 -0.7137  0.3622
  617MOL0     O83208   9.373   8.340   9.695 -0.0133  0.2989 -0.5365
  617MOL0     C83209   9.517   8.557   9.633  0.4441  0.1512 -0.1245
  617MOL0     C83210   9.578   8.673   9.591  0.1031  0.1873  0.4410
  617MOL0     N83211   9.833   9.286   9.565 -1.1955 -0.6013  0.3422
  617MOL0     N83212   9.783   9.351   9.662  0.0336 -0.0403  0.3906
  617MOL0     C83213   9.175   9.967  10.547 -0.8291  0.2677  0.0092
  617MOL0     C83214   9.048   9.996  10.507 -0.7721 -0.9412  0.5497
  617MOL0     C83215   8.660  10.046  10.315 -1.1713 -0.5593  0.3960
  617MOL0     C83216   8.582   9.931  10.326  0.0312 -0.1566  0.6567
  617MOL0     C83217   8.447   9.932  10.326  0.5762  0.2906 -0.0465
  617MOL0     C83218   8.376  10.052  10.312 -0.1422 -0.1899 -0.0476
  617MOL0     O83219   8.243  10.052  10.301  1.0353 -0.1217 -0.4460
  617MOL0     C83220   8.168  10.118  10.403 -0.4166  0.1194 -0.7507
  617MOL0     C83221   8.122  10.029  10.513 -0.3485  0.3035 -0.0102
  617MOL0     C83222   8.238   9.975  10.599 -0.9377  0.0421 -0.2315
  617MOL0     C83223   8.335  10.086  10.644  0.7111  0.2819  0.2681
  617MOL0     C83224   8.265  10.213  10.696  0.3043  0.2526  0.3048
  617MOL0     C83225   8.210  10.320  10.723  0.6140 -0.2579  0.7894
  617MOL0     C83226   8.454  10.178  10.311  1.2164  0.1316 -0.0342
  617MOL0     C83227   8.593  10.170  10.304 -0.1548 -0.2176 -0.3386
  617MOL0     H83228   8.996   9.734  10.296 -0.3884 -0.4697  1.4534
  617MOL0     H83229   9.224   9.671  10.398  0.8380  0.3851  2.4367
  617MOL0     H83230   9.425   9.756  10.361  3.8875 -1.3935 -0.9220
  617MOL0     H83231   9.545   9.805  10.479  1.4596 -1.1333 -0.7427
  617MOL0     H83232   9.516   9.583  10.590  1.2268  2.2157 -0.1055
  617MOL0     H83233   9.378   9.547  10.478  0.6657 -0.5403 -4.2290
  617MOL0     H83234   9.641   9.619  10.363 -0.3033 -0.6373 -0.3302
  617MOL0     H83235   9.642   9.464  10.434 -0.7847  1.4804  4.2043
  617MOL0     H83236   9.413   9.419  10.310 -0.9023  1.5156 -0.5042
  617MOL0     H83237   9.453   9.552  10.215  0.1267  2.3096  3.6969
  617MOL0     H83238   9.671   9.453  10.158 -1.2677  2.8247  3.6657
  617MOL0     H83239   9.634   9.308  10.250  1.2704  0.1421  0.5932
  617MOL0     H83240   9.472   9.237  10.081 -0.7395  0.5681 -0.4691
  617MOL0     H83241   9.505   9.389   9.984 -1.5221 -0.9735 -0.6732
  617MOL0     H83242   9.713   9.156  10.016  0.4889 -0.3521  1.0283
  617MOL0     H83243   9.626   9.196   9.874 -1.7152  1.6763  0.2802
  617MOL0     H83244   9.843   9.337   9.996 -1.1065 -5.1354  1.5276
  617MOL0     H83245   9.710   9.438   9.908 -3.3619 -3.0992 -1.5579
  617MOL0     H83246   9.972   9.141   9.824  3.5750  1.1335 -1.7986
  617MOL0     H83247  10.014   9.126   9.433 -1.7617  0.1137 -1.0535
  617MOL0     H83248  10.074   9.047   9.586 -0.0858  1.4233  0.8006
  617MOL0     H83249   9.943   8.889   9.439 -1.1638 -0.7935 -0.8009
  617MOL0     H83250   9.808   9.004   9.458  0.3487  2.7037  1.5116
  617MOL0     H83251   9.942   8.933   9.717  0.2023  0.4296  0.2348
  617MOL0     H83252   9.872   8.795   9.632  2.7937  0.2200  1.0163
  617MOL0     H83253   9.721   9.037   9.745  2.3755 -0.2864  4.4831
  617MOL0     H83254   9.712   8.878   9.803  0.9833 -2.6326 -1.7435
  617MOL0     H83255   9.411   8.901   9.785 -3.4946 -1.2289  2.2034
  617MOL0     H83256   9.212   8.639   9.917  0.7193 -0.2501 -2.0081
  617MOL0     H83257   9.369   8.671   9.997  0.4267 -0.6213 -1.0551
  617MOL0     H83258   9.272   8.800   9.935  0.7628  0.4194  3.9070
  617MOL0     H83259   9.467   8.159   9.860  0.3206  1.6399 -0.3170
  617MOL0     H83260   9.431   7.960   9.988  0.1229 -0.4831 -2.9162
  617MOL0     H83261   9.438   7.803  10.133  1.7686  0.7640 -0.4575
  617MOL0     H83262   9.525   7.928  10.233 -0.0933 -0.6762  0.8757
  617MOL0     H83263   9.455   7.843  10.429 -1.1651  0.6945  0.0718
  617MOL0     H83264   9.351   7.719  10.356  0.3552  0.6330  1.6306
  617MOL0     H83265   9.658   7.755  10.379  2.3328 -1.9351  3.1688
  617MOL0     H83266   9.593   7.633  10.260 -2.3585 -2.2909  1.3119
  617MOL0     H83267   9.557   7.618  10.559  0.0186 -3.7989  2.5435
  617MOL0     H83268   9.471   7.522  10.434  0.7982 -1.0293  0.3889
  617MOL0     H83269   9.777   7.529  10.462  1.1166 -1.9348 -0.0327
  617MOL0     H83270   9.670   7.459  10.338 -2.0044  1.5447 -0.0791
  617MOL0     H83271   9.633   7.382  10.634  0.5792 -1.2734  0.1112
  617MOL0     H83272   9.565   7.309  10.491 -0.4392  0.3564  0.7283
  617MOL0     H83273   9.860   7.299  10.529  0.0848  1.2392  0.6578
  617MOL0     H83274   9.749   7.228  10.400  0.8404 -0.8658  0.5781
  617MOL0     H83275   9.651   7.102  10.556 -0.7725  0.8552  0.5211
  617MOL0     H83276   9.752   7.162  10.690 -2.7615  1.3302 -0.0378
  617MOL0     H83277   9.207   8.170  10.273  0.1143 -3.7388 -0.0001
  617MOL0     H83278   9.215   8.381  10.131 -0.3442 -1.5467  2.3192
  617MOL0     H83279   9.555   8.468   9.585  1.9913  0.4977  0.3956
  617MOL0     H83280   9.667   8.667   9.530  0.6456 -1.8089  1.3378
  617MOL0     H83281   9.232  10.029  10.617  0.2168 -0.9866  0.3041
  617MOL0     H83282   9.007  10.091  10.541  1.3121  0.6248 -1.0321
  617MOL0     H83283   8.632   9.837  10.304  1.2273  0.6626 -0.2180
  617MOL0     H83284   8.390   9.841  10.307  1.1136 -0.2891  1.0407
  617MOL0     H83285   8.226  10.202  10.442 -0.1284 -1.2331  1.9520
  617MOL0     H83286   8.083  10.173  10.361 -0.5036  0.1865 -0.4880
  617MOL0     H83287   8.068   9.952  10.457  1.5192 -2.3637  1.6005
  617MOL0     H83288   8.054  10.078  10.584  1.8584  0.5959  2.0133
  617MOL0     H83289   8.302   9.905  10.544 -0.4219  0.0456  0.3579
  617MOL0     H83290   8.197   9.914  10.680  1.8179 -1.9227 -0.2015
  617MOL0     H83291   8.401  10.120  10.564  1.9067  0.5862  1.3478
  617MOL0     H83292   8.412  10.051  10.714 -0.5869 -2.5967  0.3764
  617MOL0     H83293   8.158  10.410  10.747 -0.3182 -0.3509 -0.7432
  617MOL0     H83294   8.413  10.278  10.306  1.7686  0.3753  0.2135
  617MOL0     H83295   8.641  10.266  10.317  0.1525 -0.3894 -0.1915
  618MOL0     O83296   3.449   4.061   7.462 -0.4469  0.4982  0.2330
  618MOL0     C83297   3.357   3.978   7.485 -0.0200 -1.1697 -0.5639
  618MOL0     O83298   3.238   3.984   7.418  0.7463 -0.5089 -0.0012
  618MOL0     C83299   3.208   4.075   7.314 -0.3931  0.8284 -0.2732
  618MOL0     C83300   3.265   4.199   7.297  1.2001  0.4567  0.1355
  618MOL0     C83301   3.211   4.276   7.186  0.0019  0.2392  0.7038
  618MOL0     C83302   3.106   4.232   7.095  0.4235 -0.3957  0.6787
  618MOL0     O83303   3.044   4.308   6.999  0.2085  0.1925  0.7521
  618MOL0     C83304   3.116   4.408   6.934  0.6795  0.1630  0.8497
  618MOL0     C83305   3.205   4.339   6.844  0.2367 -0.0728 -0.5872
  618MOL0     C83306   3.258   4.428   6.732  0.0411  0.0496 -0.2737
  618MOL0     C83307   3.340   4.551   6.776 -1.3936 -0.1183  0.3586
  618MOL0     C83308   3.423   4.628   6.659  1.5110 -1.4867  0.5753
  618MOL0     C83309   3.420   4.780   6.677  0.4552  0.3958 -0.1871
  618MOL0     C83310   3.509   4.848   6.564  0.4156 -0.8442 -0.4896
  618MOL0     C83311   3.553   4.986   6.614  0.1179  0.2301 -0.1161
  618MOL0     N83312   3.440   5.084   6.621  0.2222  0.5839 -0.3107
  618MOL0     C83313   3.347   5.129   6.526 -0.1278  0.9508  0.5345
  618MOL0     C83314   3.240   5.180   6.589 -0.2033  0.4725 -0.0969
  618MOL0     C83315   3.117   5.231   6.518  0.1197  0.0895 -0.1966
  618MOL0     C83316   3.141   5.378   6.488 -0.0184  0.3751 -0.6754
  618MOL0     C83317   3.045   5.444   6.396 -0.2994  0.0115 -0.0609
  618MOL0     C83318   3.074   5.587   6.369  0.5796 -0.5222  0.5841
  618MOL0     O83319   2.965   5.651   6.300 -0.3491  0.1720 -0.0400
  618MOL0     C83320   2.979   5.776   6.249  0.2621 -1.1407 -1.1129
  618MOL0     C83321   3.091   5.861   6.266  0.1262  1.2950  0.2708
  618MOL0     C83322   3.105   5.977   6.196 -0.2235  0.2811  0.1454
  618MOL0     C83323   3.230   6.050   6.219 -0.2540  0.0098  0.4495
  618MOL0     C83324   2.996   6.020   6.121  0.0590 -0.8927  0.6386
  618MOL0     C83325   3.014   6.132   6.028 -1.4467 -0.0227 -0.4189
  618MOL0     O83326   2.909   6.224   6.022 -0.5119  0.5513  0.1659
  618MOL0     C83327   2.896   6.300   5.912 -0.7089  0.3124  0.3209
  618MOL0     C83328   2.934   6.268   5.774 -1.1123 -0.1628 -0.4297
  618MOL0     C83329   2.925   6.357   5.671 -0.7434 -0.5485  0.8300
  618MOL0     C83330   2.867   6.485   5.703  0.2918  0.0982 -0.0041
  618MOL0     O83331   2.863   6.592   5.607 -0.2613  0.1888 -0.9736
  618MOL0     C83332   2.986   6.614   5.528  1.2525  0.5550 -0.5839
  618MOL0     C83333   2.975   6.763   5.472  0.8411  0.2677  0.5016
  618MOL0     C83334   3.100   6.801   5.393 -0.3054 -0.0854  0.7911
  618MOL0     C83335   3.221   6.811   5.498  0.4739  0.7673 -0.2286
  618MOL0     C83336   3.349   6.861   5.431 -0.4835  0.2737 -0.0987
  618MOL0     C83337   3.400   6.748   5.342  1.3771  0.5245  1.0654
  618MOL0     C83338   3.537   6.783   5.282  1.2381 -0.3985 -0.6797
  618MOL0     C83339   3.528   6.897   5.165  1.0159  0.4333 -0.1109
  618MOL0    Cl83340   3.692   6.911   5.083 -0.2319  0.5242  0.4893
  618MOL0     C83341   2.815   6.515   5.828  0.7233 -0.0072  1.2474
  618MOL0     C83342   2.838   6.422   5.929 -0.1874  0.8691 -0.2880
  618MOL0     O83343   3.116   6.135   5.960  1.0095 -0.2513  0.1544
  618MOL0     C83344   2.880   5.948   6.115 -0.8582  0.3280 -0.4906
  618MOL0     C83345   2.876   5.823   6.174 -0.4205 -0.2979 -0.4464
  618MOL0     N83346   3.270   5.161   6.724  0.3249 -0.0466  0.2818
  618MOL0     N83347   3.388   5.114   6.746  0.7688  0.1758  0.8395
  618MOL0     C83348   3.057   4.109   7.123 -0.2976  1.1298 -0.3420
  618MOL0     C83349   3.106   4.031   7.233  0.0608 -0.9753  0.5430
  618MOL0     C83350   3.382   3.865   7.581  1.4292  1.3594  0.2726
  618MOL0     C83351   3.491   3.845   7.671  0.3357 -0.1666 -0.3407
  618MOL0     C83352   3.510   3.729   7.749 -0.0193  1.1359 -0.2918
  618MOL0     C83353   3.417   3.630   7.751  0.0387  0.4112  0.2013
  618MOL0     O83354   3.430   3.532   7.852 -0.6727  0.3686  0.4212
  618MOL0     C83355   3.329   3.433   7.881  0.3565 -0.3626  0.2870
  618MOL0     C83356   3.399   3.298   7.911 -0.2989  0.2217 -0.6539
  618MOL0     C83357   3.457   3.227   7.789  0.4450 -0.3649 -0.1098
  618MOL0     C83358   3.542   3.103   7.808  0.1370  1.0307  0.1917
  618MOL0     C83359   3.451   2.999   7.831  0.7254  0.4255 -0.6340
  618MOL0     C83360   3.371   2.901   7.832 -0.3773  1.2702  0.1413
  618MOL0     C83361   3.305   3.645   7.671  0.5431  0.1665 -0.3613
  618MOL0     C83362   3.279   3.758   7.580  0.4244 -0.0501  0.0080
  618MOL0     H83363   3.326   4.248   7.372  0.1404  2.8071 -0.4357
  618MOL0     H83364   3.245   4.377   7.168  0.5325 -0.1364 -0.5048
  618MOL0     H83365   3.042   4.462   6.875  0.2210 -1.8602 -0.5398
  618MOL0     H83366   3.174   4.479   6.994  2.6667  1.5983 -2.5157
  618MOL0     H83367   3.287   4.300   6.905 -1.6290 -1.4319  1.2040
  618MOL0     H83368   3.145   4.257   6.804  0.2749 -0.7474  0.6825
  618MOL0     H83369   3.325   4.361   6.677 -1.4636 -0.7722 -1.1716
  618MOL0     H83370   3.175   4.455   6.666 -1.0198 -1.4902  0.3810
  618MOL0     H83371   3.264   4.613   6.824 -1.3440 -1.4100  2.1712
  618MOL0     H83372   3.406   4.520   6.857 -1.8958  1.1743  1.2940
  618MOL0     H83373   3.523   4.587   6.647  1.9083 -0.2681 -0.4494
  618MOL0     H83374   3.369   4.595   6.569  1.3258  0.1440  0.0656
  618MOL0     H83375   3.319   4.822   6.676  1.9255  4.6406  2.2663
  618MOL0     H83376   3.463   4.809   6.774 -2.0452 -0.1865  1.1735
  618MOL0     H83377   3.594   4.781   6.546  1.7694  0.2400  1.4994
  618MOL0     H83378   3.442   4.850   6.478 -1.6950 -1.1230  1.0698
  618MOL0     H83379   3.618   5.032   6.540 -0.8700  2.8779  0.5397
  618MOL0     H83380   3.604   4.980   6.711  0.3629  2.4202 -0.0446
  618MOL0     H83381   3.360   5.111   6.419  1.5062 -0.8009  0.9770
  618MOL0     H83382   3.096   5.176   6.426 -1.0407 -1.1859  0.7978
  618MOL0     H83383   3.037   5.216   6.590  2.5047 -0.6070  2.5015
  618MOL0     H83384   3.246   5.384   6.456  0.2584  1.3232  0.3478
  618MOL0     H83385   3.143   5.437   6.580  0.7643  0.2007 -0.5662
  618MOL0     H83386   2.944   5.424   6.432 -0.7577  2.5370  0.2460
  618MOL0     H83387   3.043   5.393   6.299  0.7460 -0.0219 -0.0731
  618MOL0     H83388   3.172   5.602   6.321  0.4293 -1.0012  0.1258
  618MOL0     H83389   3.078   5.630   6.469 -1.1712 -1.3912  1.0460
  618MOL0     H83390   3.173   5.832   6.331  0.5506  2.4510  0.2808
  618MOL0     H83391   3.298   6.032   6.136  1.2354  1.2922  1.3070
  618MOL0     H83392   3.225   6.159   6.234  1.8255 -0.2544  4.3680
  618MOL0     H83393   3.283   6.017   6.309  1.1124 -3.4245 -1.4741
  618MOL0     H83394   2.969   6.166   5.767  1.8753  0.8562 -2.5058
  618MOL0     H83395   2.956   6.334   5.570 -0.6330 -2.8160  1.3280
  618MOL0     H83396   3.075   6.603   5.592  0.1212  2.3651  1.4536
  618MOL0     H83397   2.998   6.553   5.438 -3.5709 -2.0807  0.2422
  618MOL0     H83398   2.883   6.765   5.414 -0.7527  0.4583  2.9058
  618MOL0     H83399   2.964   6.831   5.557  1.8674 -1.4893  2.1300
  618MOL0     H83400   3.081   6.896   5.342 -2.3339 -0.3590  0.9504
  618MOL0     H83401   3.119   6.727   5.315 -0.0285  2.5779 -1.8830
  618MOL0     H83402   3.208   6.889   5.574 -2.1548  1.4276 -1.2272
  618MOL0     H83403   3.246   6.718   5.548  0.1797 -0.6271 -2.4950
  618MOL0     H83404   3.425   6.883   5.506 -1.4700  2.8759  0.2411
  618MOL0     H83405   3.336   6.950   5.369 -1.5659  0.0657 -0.2072
  618MOL0     H83406   3.396   6.645   5.379  1.6986 -0.1469 -0.6786
  618MOL0     H83407   3.337   6.743   5.252  3.5471 -0.6334 -0.4842
  618MOL0     H83408   3.595   6.692   5.264  0.1444 -1.4472  0.8137
  618MOL0     H83409   3.604   6.827   5.356 -0.4899  0.9458  0.1335
  618MOL0     H83410   3.501   6.996   5.204 -3.4206 -0.3982 -0.5659
  618MOL0     H83411   3.450   6.883   5.090 -0.7820 -0.2437  1.7669
  618MOL0     H83412   2.785   6.618   5.841 -1.1389  0.2928 -3.5555
  618MOL0     H83413   2.825   6.435   6.036  1.8256 -1.3972  0.3253
  618MOL0     H83414   2.800   5.985   6.052 -1.2156  3.2327  1.4430
  618MOL0     H83415   2.789   5.760   6.164  0.0175 -0.5806 -3.5204
  618MOL0     H83416   2.986   4.065   7.053 -0.2962  3.0667 -1.6572
  618MOL0     H83417   3.074   3.928   7.246 -1.2066 -1.0162 -2.2489
  618MOL0     H83418   3.563   3.926   7.670  1.6648 -1.2702  0.8828
  618MOL0     H83419   3.588   3.718   7.823 -1.0066 -0.1594  0.6134
  618MOL0     H83420   3.273   3.464   7.969  1.4351 -0.2560  0.9517
  618MOL0     H83421   3.271   3.422   7.789 -0.3183  1.0124  0.5333
  618MOL0     H83422   3.321   3.244   7.965 -0.5160  0.2921 -0.8917
  618MOL0     H83423   3.479   3.319   7.982  2.7243  1.4252 -4.0896
  618MOL0     H83424   3.529   3.296   7.743  0.0249 -0.8638 -1.5772
  618MOL0     H83425   3.376   3.206   7.719  0.5883 -0.8966 -0.1246
  618MOL0     H83426   3.611   3.122   7.890 -0.2365  4.0769 -0.0951
  618MOL0     H83427   3.595   3.085   7.714 -1.0349  1.6963 -0.6319
  618MOL0     H83428   3.307   2.815   7.824  1.9746 -0.6286  0.4056
  618MOL0     H83429   3.228   3.569   7.671  2.1764 -1.5698  0.5468
  618MOL0     H83430   3.192   3.771   7.517 -0.6951 -2.0372  1.0398
  619MOL0     O83431   2.254   9.677   8.760 -0.0385 -0.1140  0.4194
  619MOL0     C83432   2.265   9.552   8.776  0.4018  0.9997  0.2887
  619MOL0     O83433   2.159   9.480   8.834  0.3063 -0.9232 -0.2913
  619MOL0     C83434   2.043   9.543   8.877 -0.0381 -1.0764 -0.0607
  619MOL0     C83435   2.023   9.615   8.994 -0.5706  1.0310 -0.3675
  619MOL0     C83436   1.905   9.662   9.038 -0.3355 -0.5501  1.1020
  619MOL0     C83437   1.793   9.642   8.952 -0.3147 -0.0800  0.0607
  619MOL0     O83438   1.661   9.673   8.982  0.7189  0.4411 -0.1188
  619MOL0     C83439   1.643   9.739   9.108  0.9885 -0.1832 -0.4922
  619MOL0     C83440   1.663   9.888   9.095 -0.1386 -1.2293  0.0042
  619MOL0     C83441   1.648   9.958   9.236 -0.0954 -0.7196  0.0220
  619MOL0     C83442   1.507   9.946   9.293  0.6948  0.1012 -0.9631
  619MOL0     C83443   1.473  10.059   9.392 -0.7527  0.3079  1.0343
  619MOL0     C83444   1.556  10.067   9.518  0.7998 -0.1958  0.4454
  619MOL0     C83445   1.590   9.929   9.582  0.2897  1.3118 -0.5237
  619MOL0     C83446   1.658   9.939   9.722 -0.7120 -0.0280 -0.0342
  619MOL0     N83447   1.775  10.029   9.712 -0.0477  0.3013 -1.1144
  619MOL0     C83448   1.903   9.981   9.697  0.1861 -0.1366  0.0844
  619MOL0     C83449   1.971  10.096   9.686 -0.3017 -0.5645  0.0148
  619MOL0     C83450   2.121  10.099   9.680  0.3495 -0.5144  0.0403
  619MOL0     C83451   2.197  10.121   9.814  0.3099  0.2311  0.6838
  619MOL0     C83452   2.340  10.185   9.785  0.7211  1.4753 -0.8103
  619MOL0     C83453   2.424  10.194   9.910 -0.1652 -0.4552 -0.1702
  619MOL0     O83454   2.353  10.218  10.029  0.2759 -0.0142  0.6507
  619MOL0     C83455   2.339  10.349  10.075  0.4472 -1.0420  0.7038
  619MOL0     C83456   2.259  10.361  10.186  0.0534  0.6284  0.2551
  619MOL0     C83457   2.225  10.484  10.245 -0.4324  0.2985  0.5057
  619MOL0     C83458   2.138  10.476  10.368  0.1572  1.3663 -0.1223
  619MOL0     C83459   2.267  10.601  10.186 -0.4668  0.3693 -1.4912
  619MOL0     C83460   2.238  10.729  10.244  0.9263 -0.4409  0.3135
  619MOL0     O83461   2.239  10.739  10.387  0.3036  0.5597  0.4987
  619MOL0     C83462   2.221  10.853  10.454  0.1621  0.0576 -0.0225
  619MOL0     C83463   2.261  10.982  10.416 -0.8831 -0.3363  1.4318
  619MOL0     C83464   2.244  11.089  10.512 -0.2558  0.0721  0.7810
  619MOL0     C83465   2.207  11.056  10.652  0.8108  0.1122  0.1566
  619MOL0     O83466   2.193  11.143  10.759  0.0267  0.1411 -0.7856
  619MOL0     C83467   2.150  11.273  10.719  0.6840 -0.0310 -0.2012
  619MOL0     C83468   2.141  11.353  10.859  0.2749 -0.7827 -0.1599
  619MOL0     C83469   2.074  11.488  10.826  0.0340 -0.1693  0.7247
  619MOL0     C83470   1.937  11.476  10.754  0.4312 -0.1369 -0.0960
  619MOL0     C83471   1.840  11.595  10.778  0.5432  2.2853 -0.8493
  619MOL0     C83472   1.784  11.616  10.922 -0.4616  0.8166  0.5669
  619MOL0     C83473   1.638  11.640  10.928 -0.1142  0.3488  0.8326
  619MOL0     C83474   1.611  11.670  11.074  0.4503 -0.1889  0.0050
  619MOL0    Cl83475   1.677  11.555  11.191 -0.1879 -0.2352 -0.2969
  619MOL0     C83476   2.190  10.927  10.682 -0.6077  0.3871  0.1643
  619MOL0     C83477   2.188  10.819  10.588 -0.7883 -0.6870 -0.4034
  619MOL0     O83478   2.212  10.820  10.170  0.3919 -0.1084  0.1951
  619MOL0     C83479   2.345  10.596  10.071 -1.5320  0.1507 -0.1873
  619MOL0     C83480   2.378  10.468  10.016  0.2114  0.0290  0.0904
  619MOL0     N83481   1.893  10.205   9.703  0.2590 -0.4223  0.6692
  619MOL0     N83482   1.778  10.159   9.731 -0.8474  0.3164 -0.2289
  619MOL0     C83483   1.804   9.565   8.836  0.4023 -0.5795  0.1698
  619MOL0     C83484   1.929   9.512   8.809  0.1476  0.2657  0.2133
  619MOL0     C83485   2.385   9.469   8.734  0.2979 -0.0690 -0.5475
  619MOL0     C83486   2.402   9.334   8.770 -0.3378 -0.5486 -0.1419
  619MOL0     C83487   2.513   9.262   8.719 -0.0498  0.0949 -0.5189
  619MOL0     C83488   2.616   9.317   8.642 -0.6931  0.0494  0.6006
  619MOL0     O83489   2.720   9.237   8.604 -0.3891 -0.3332  0.4109
  619MOL0     C83490   2.806   9.295   8.496  0.3360  0.1133  0.0333
  619MOL0     C83491   2.864   9.166   8.416 -0.4129 -0.0465  0.7321
  619MOL0     C83492   2.939   9.052   8.497  0.1853  0.4686  0.4780
  619MOL0     C83493   2.905   8.909   8.454 -0.1478 -0.1186  0.4353
  619MOL0     C83494   2.766   8.875   8.471 -0.1308 -0.3836  0.4466
  619MOL0     C83495   2.656   8.832   8.473  0.9608  1.0259  0.7604
  619MOL0     C83496   2.609   9.456   8.616  0.2335 -0.9236  0.2017
  619MOL0     C83497   2.493   9.530   8.662  0.3983  0.8040  0.3285
  619MOL0     H83498   2.102   9.623   9.068 -1.4723  1.2581  0.6010
  619MOL0     H83499   1.896   9.711   9.134  2.3311  2.0585  0.1800
  619MOL0     H83500   1.538   9.719   9.130  0.8326  0.2503 -0.8270
  619MOL0     H83501   1.706   9.711   9.193  3.3044  2.3652 -1.2264
  619MOL0     H83502   1.765   9.906   9.059  0.0588 -2.2067  0.0382
  619MOL0     H83503   1.592   9.934   9.027  0.8754  3.8881  2.0011
  619MOL0     H83504   1.729   9.939   9.307 -0.9132  2.5276  2.0226
  619MOL0     H83505   1.674  10.062   9.214  0.9691 -1.6331 -3.7487
  619MOL0     H83506   1.443   9.943   9.204 -1.6724 -0.5764  0.6589
  619MOL0     H83507   1.495   9.847   9.339  1.5563 -0.8004 -2.5773
  619MOL0     H83508   1.468  10.140   9.318 -2.0142 -0.4250  0.2857
  619MOL0     H83509   1.366  10.049   9.412 -0.5452 -2.3917  1.1274
  619MOL0     H83510   1.650  10.121   9.505  0.7693  0.2258  1.7702
  619MOL0     H83511   1.505  10.127   9.595  3.2184  0.7033  1.4442
  619MOL0     H83512   1.507   9.858   9.580  1.8601 -0.6987 -4.1216
  619MOL0     H83513   1.659   9.885   9.509 -0.1626 -2.8627  1.2958
  619MOL0     H83514   1.692   9.838   9.748  1.5855  1.1807  2.0641
  619MOL0     H83515   1.581   9.956   9.797 -1.8397 -0.3895 -1.0768
  619MOL0     H83516   1.941   9.880   9.680  1.2785  0.4913 -1.4581
  619MOL0     H83517   2.163  10.014   9.624  0.4982 -0.9884  0.8494
  619MOL0     H83518   2.152  10.176   9.609  0.6239 -0.7196 -0.0645
  619MOL0     H83519   2.184  10.027   9.868 -1.3923  0.2342  0.3328
  619MOL0     H83520   2.138  10.189   9.877 -1.2162 -3.3221  3.4650
  619MOL0     H83521   2.326  10.279   9.731  2.6548  2.3036  0.0249
  619MOL0     H83522   2.395  10.128   9.709  1.1195  2.0810 -0.9828
  619MOL0     H83523   2.502  10.268   9.890  0.4093 -0.9163  0.3166
  619MOL0     H83524   2.478  10.101   9.929 -3.0285 -2.1397  0.3710
  619MOL0     H83525   2.217  10.280  10.246 -0.9896  1.3661  0.5436
  619MOL0     H83526   2.074  10.388  10.360  2.3472 -0.3130 -0.0622
  619MOL0     H83527   2.203  10.478  10.456 -0.0173  1.2248  0.0098
  619MOL0     H83528   2.071  10.562  10.366 -0.1742  1.1092 -0.0434
  619MOL0     H83529   2.310  10.996  10.321 -0.5140 -0.7370  1.5591
  619MOL0     H83530   2.255  11.194  10.488  2.0336 -0.8372 -3.0045
  619MOL0     H83531   2.221  11.319  10.650 -0.4937 -0.1202 -1.5319
  619MOL0     H83532   2.053  11.252  10.671  1.9253 -1.5065 -2.2739
  619MOL0     H83533   2.089  11.292  10.933 -3.6525  2.6887  0.3393
  619MOL0     H83534   2.240  11.377  10.898  0.8621 -2.4864 -0.5161
  619MOL0     H83535   2.146  11.555  10.777  1.3116 -1.4332  0.8205
  619MOL0     H83536   2.064  11.550  10.916  1.1033  0.1160  0.6667
  619MOL0     H83537   1.955  11.468  10.646  1.4133 -0.8201  0.1081
  619MOL0     H83538   1.891  11.382  10.786  1.9805 -0.7234  0.5028
  619MOL0     H83539   1.762  11.585  10.702 -0.7858  1.6371  0.5525
  619MOL0     H83540   1.891  11.686  10.743  1.9624  1.8796  0.0634
  619MOL0     H83541   1.809  11.532  10.986 -1.2791  1.8830  2.3597
  619MOL0     H83542   1.849  11.688  10.973  4.5534 -3.7821  1.5720
  619MOL0     H83543   1.578  11.553  10.902 -1.9561  1.4581  1.1880
  619MOL0     H83544   1.594  11.717  10.863 -0.9542 -3.5354 -3.7611
  619MOL0     H83545   1.505  11.693  11.089  0.8313  1.8237 -0.0646
  619MOL0     H83546   1.657  11.766  11.099 -3.0357  2.6508 -3.2192
  619MOL0     H83547   2.172  10.890  10.783  0.3326  1.7782  0.8651
  619MOL0     H83548   2.180  10.714  10.614 -1.3059  0.4302  5.2851
  619MOL0     H83549   2.378  10.693  10.034  2.9348 -0.5892  1.1546
  619MOL0     H83550   2.434  10.465   9.923 -1.0080 -0.2956 -0.6589
  619MOL0     H83551   1.717   9.542   8.775 -2.2092  2.5603  2.3608
  619MOL0     H83552   1.952   9.454   8.720  0.3458 -1.0515  1.1125
  619MOL0     H83553   2.322   9.287   8.827 -1.3738  0.1988 -0.9215
  619MOL0     H83554   2.510   9.155   8.737  0.7666  0.1076 -0.2619
  619MOL0     H83555   2.743   9.343   8.421 -0.9061  1.0992  1.6355
  619MOL0     H83556   2.865   9.374   8.543  0.3637  0.6352 -0.8582
  619MOL0     H83557   2.939   9.207   8.348  2.1217 -0.0014  3.3238
  619MOL0     H83558   2.802   9.122   8.338  2.2017  1.1145 -2.2508
  619MOL0     H83559   2.932   9.058   8.606  0.8704  2.4654  0.4411
  619MOL0     H83560   3.043   9.064   8.465  0.4175 -0.3224  0.8816
  619MOL0     H83561   2.965   8.847   8.521 -4.4020 -1.3732  3.4968
  619MOL0     H83562   2.931   8.899   8.348 -2.4769 -0.1071 -0.1886
  619MOL0     H83563   2.555   8.796   8.479 -0.2218  3.8472 -0.4152
  619MOL0     H83564   2.683   9.511   8.558 -1.4876  0.2473 -0.9991
  619MOL0     H83565   2.486   9.636   8.639 -3.7101  0.7340  0.4251
  620MOL0     O83566   5.309   7.941  10.957 -0.2997 -0.1779 -0.2739
  620MOL0     C83567   5.280   8.018  11.046 -0.5035 -0.5977 -0.6994
  620MOL0     O83568   5.328   8.145  11.068  0.1928  0.6371  0.4943
  620MOL0     C83569   5.432   8.192  10.994  0.3456 -0.1415  0.5598
  620MOL0     C83570   5.419   8.308  10.936  0.0636 -0.8765 -0.0292
  620MOL0     C83571   5.516   8.365  10.859 -1.1553  0.1915  0.3105
  620MOL0     C83572   5.646   8.306  10.848 -0.2847  1.2562 -0.1228
  620MOL0     O83573   5.762   8.357  10.792 -1.0138 -0.4573  0.1000
  620MOL0     C83574   5.738   8.478  10.709  0.4095 -0.4770  0.6191
  620MOL0     C83575   5.878   8.538  10.696 -0.7034 -0.0142 -0.0077
  620MOL0     C83576   6.004   8.450  10.662 -0.2511  0.0373  0.0273
  620MOL0     C83577   5.992   8.395  10.520  0.8008 -0.2161  0.8165
  620MOL0     C83578   6.110   8.304  10.463 -0.3359 -1.3783  0.3434
  620MOL0     C83579   6.157   8.173  10.536  0.3838 -0.3179  0.5102
  620MOL0     C83580   6.042   8.094  10.596  0.3304  0.4313  0.6097
  620MOL0     C83581   5.954   8.031  10.495  0.3203 -0.1678 -0.4540
  620MOL0     N83582   5.835   7.980  10.564  1.2321 -0.2710 -0.0125
  620MOL0     C83583   5.721   8.053  10.585  0.3222 -0.2843  1.0393
  620MOL0     C83584   5.621   7.971  10.638 -0.0085  0.1206 -0.4986
  620MOL0     C83585   5.480   8.004  10.643  0.5182  0.6205  0.2487
  620MOL0     C83586   5.416   7.951  10.505 -0.0671 -0.5663  0.4727
  620MOL0     C83587   5.265   7.951  10.512  0.3991 -0.1731  0.7029
  620MOL0     C83588   5.198   7.934  10.377  0.8913 -0.5528  0.1154
  620MOL0     O83589   5.237   7.815  10.308  0.5609 -0.3216  0.0422
  620MOL0     C83590   5.159   7.701  10.306 -1.0269 -1.3537 -0.5402
  620MOL0     C83591   5.120   7.641  10.196  0.7698 -1.0878  0.5005
  620MOL0     C83592   5.038   7.530  10.188  0.1719  0.4793  0.6640
  620MOL0     C83593   5.012   7.479  10.046 -0.8605  0.1470 -0.1140
  620MOL0     C83594   4.982   7.469  10.304  0.1487 -0.8273 -0.0973
  620MOL0     C83595   4.910   7.341  10.312 -0.4498  0.4802 -0.3307
  620MOL0     O83596   4.873   7.299  10.434  0.6170  0.3713 -1.1994
  620MOL0     C83597   4.789   7.184  10.446  0.7898 -0.2476  1.5662
  620MOL0     C83598   4.837   7.059  10.389  1.2730 -0.4378  1.0392
  620MOL0     C83599   4.777   6.935  10.423  0.2839  0.0410 -0.2956
  620MOL0     C83600   4.666   6.940  10.507  0.4126  0.5023 -0.0871
  620MOL0     O83601   4.616   6.816  10.558  0.3290 -1.1098  0.0143
  620MOL0     C83602   4.533   6.749  10.461 -0.1287  0.1087  0.0745
  620MOL0     C83603   4.386   6.803  10.450 -0.3937 -0.4380 -0.0585
  620MOL0     C83604   4.314   6.755  10.322  0.3264 -0.5253 -0.4910
  620MOL0     C83605   4.286   6.605  10.330 -0.1604  0.0219 -0.5842
  620MOL0     C83606   4.227   6.548  10.194  0.0619 -0.1302  0.3625
  620MOL0     C83607   4.307   6.579  10.067 -0.4370 -0.2427  0.5448
  620MOL0     C83608   4.246   6.525   9.941  0.9696  0.3478 -0.4053
  620MOL0     C83609   4.286   6.620   9.825 -0.5022 -0.2403 -0.6640
  620MOL0    Cl83610   4.260   6.536   9.675 -0.1375 -0.1884  0.0459
  620MOL0     C83611   4.617   7.066  10.558  0.0209  0.6259  0.4685
  620MOL0     C83612   4.679   7.185  10.541 -0.9439 -0.2766  0.5341
  620MOL0     O83613   4.883   7.291  10.206  0.2578  0.0379 -0.4149
  620MOL0     C83614   5.006   7.544  10.422  1.3500 -0.2817  0.4483
  620MOL0     C83615   5.089   7.651  10.420 -0.6833  0.1184 -0.8412
  620MOL0     N83616   5.678   7.840  10.634  0.3623 -0.3287  1.4006
  620MOL0     N83617   5.800   7.852  10.586  0.4726  0.8585  0.1254
  620MOL0     C83618   5.658   8.178  10.919 -0.4543 -0.0883  0.5792
  620MOL0     C83619   5.551   8.120  10.978  0.5811  0.0896 -0.0609
  620MOL0     C83620   5.152   7.984  11.116  0.6670  0.2814  0.6834
  620MOL0     C83621   5.131   8.019  11.251 -0.4562 -0.1526  0.0644
  620MOL0     C83622   5.012   7.982  11.318 -0.2433 -0.5947 -0.7977
  620MOL0     C83623   4.912   7.906  11.259 -0.4702  0.6218  0.4253
  620MOL0     O83624   4.799   7.868  11.333  0.4995  0.0266  0.3075
  620MOL0     C83625   4.714   7.980  11.359  0.2287  0.3606  0.1594
  620MOL0     C83626   4.619   8.014  11.248  0.0263 -0.4623  0.4864
  620MOL0     C83627   4.524   7.887  11.217  0.1659 -0.8249  1.1410
  620MOL0     C83628   4.412   7.920  11.122  1.1487 -0.4178 -0.7793
  620MOL0     C83629   4.457   7.922  10.984  0.1050 -0.6342 -0.5167
  620MOL0     C83630   4.500   7.924  10.868  0.3452 -1.4676 -0.2400
  620MOL0     C83631   4.923   7.882  11.121  0.0084 -0.0735  0.5492
  620MOL0     C83632   5.040   7.917  11.053 -0.1010 -1.5193  0.0004
  620MOL0     H83633   5.324   8.361  10.937 -0.6995 -2.2119 -0.1200
  620MOL0     H83634   5.490   8.458  10.811  0.8603  0.3202 -0.6060
  620MOL0     H83635   5.709   8.446  10.609 -0.9104 -3.7058  1.9105
  620MOL0     H83636   5.667   8.554  10.743 -2.1274 -1.9629 -1.0336
  620MOL0     H83637   5.874   8.615  10.618  3.7621 -0.2725 -0.7855
  620MOL0     H83638   5.902   8.580  10.794 -1.7181 -0.1304  0.2996
  620MOL0     H83639   6.099   8.503  10.672  1.1931 -1.8403 -2.5832
  620MOL0     H83640   5.996   8.364  10.730 -3.0489  0.6914  0.6676
  620MOL0     H83641   5.896   8.341  10.518  0.8401 -0.3058  1.2144
  620MOL0     H83642   5.969   8.478  10.453  2.0270  1.0856  1.9690
  620MOL0     H83643   6.080   8.265  10.365 -0.1603 -0.0263 -0.2673
  620MOL0     H83644   6.199   8.362  10.438 -1.5040  1.2802  1.9738
  620MOL0     H83645   6.212   8.111  10.464  0.0019 -1.0647  0.8543
  620MOL0     H83646   6.222   8.200  10.620 -0.5199 -0.2805  1.2029
  620MOL0     H83647   6.081   8.012  10.656 -1.5349 -1.7341 -0.9595
  620MOL0     H83648   5.983   8.158  10.662  0.3294  2.2836 -1.0866
  620MOL0     H83649   6.002   7.945  10.447 -0.5532 -1.5117  1.0131
  620MOL0     H83650   5.925   8.103  10.418 -0.7262 -0.5032 -0.3826
  620MOL0     H83651   5.689   8.155  10.568 -0.9565 -1.2026 -3.2630
  620MOL0     H83652   5.429   7.952  10.724  0.1787 -5.9013 -3.4974
  620MOL0     H83653   5.456   8.111  10.642 -0.7425  0.3463 -0.9797
  620MOL0     H83654   5.438   7.846  10.483  1.1698 -0.1943 -0.1922
  620MOL0     H83655   5.438   8.022  10.424 -0.6869 -1.2482 -0.3217
  620MOL0     H83656   5.225   8.044  10.555  2.0967  1.4220 -0.9608
  620MOL0     H83657   5.245   7.871  10.584 -1.7039 -0.0461  0.3365
  620MOL0     H83658   5.225   8.023  10.321  2.8025  1.9388  4.4518
  620MOL0     H83659   5.091   7.939  10.401  0.7472 -1.1635 -0.3893
  620MOL0     H83660   5.157   7.676  10.100  0.6876 -4.6090 -0.9696
  620MOL0     H83661   5.045   7.559   9.978 -2.9328 -0.0171 -1.3969
  620MOL0     H83662   5.068   7.385  10.041 -2.1171 -0.6250 -0.1279
  620MOL0     H83663   4.913   7.439  10.020 -0.2679 -2.8066  1.6775
  620MOL0     H83664   4.926   7.057  10.326  0.0305 -1.8959 -0.7928
  620MOL0     H83665   4.817   6.840  10.389 -1.3462 -0.5598 -0.6640
  620MOL0     H83666   4.576   6.741  10.361  0.6148 -2.7736  0.5502
  620MOL0     H83667   4.514   6.649  10.500  0.1500 -1.3270 -3.1883
  620MOL0     H83668   4.322   6.769  10.532  0.2470  1.6495  1.3748
  620MOL0     H83669   4.392   6.912  10.451 -1.7651 -0.3390  1.1292
  620MOL0     H83670   4.376   6.775  10.234  2.1681  2.2246  1.2581
  620MOL0     H83671   4.224   6.815  10.308  0.4356  0.3168  1.9258
  620MOL0     H83672   4.369   6.541  10.359 -1.9608 -2.0032  0.3873
  620MOL0     H83673   4.214   6.598  10.412 -4.0823  2.6829 -3.3753
  620MOL0     H83674   4.129   6.587  10.165  0.5795 -1.1420 -3.2624
  620MOL0     H83675   4.224   6.438  10.197  0.8207 -0.1877 -0.5920
  620MOL0     H83676   4.306   6.688  10.056 -2.7273 -0.2501  0.3074
  620MOL0     H83677   4.412   6.552  10.084 -0.1897  0.7936  0.7376
  620MOL0     H83678   4.138   6.515   9.948  0.4523  2.9655 -2.9539
  620MOL0     H83679   4.283   6.426   9.914  0.1757  0.1467 -0.7687
  620MOL0     H83680   4.394   6.639   9.833 -0.2589 -1.8428  0.2860
  620MOL0     H83681   4.229   6.713   9.819 -0.6360 -0.1662  1.1596
  620MOL0     H83682   4.534   7.061  10.627  0.3567  1.2685  0.9265
  620MOL0     H83683   4.642   7.273  10.593 -1.6732 -1.4648  2.1171
  620MOL0     H83684   4.951   7.511  10.510  3.5815 -1.5378  1.4531
  620MOL0     H83685   5.103   7.711  10.509  0.2179  1.1014 -1.6134
  620MOL0     H83686   5.750   8.122  10.907  0.3435  1.3673 -0.3629
  620MOL0     H83687   5.563   8.023  11.027  0.5710  0.0284 -0.1773
  620MOL0     H83688   5.210   8.070  11.305 -0.3129 -0.6302  0.3145
  620MOL0     H83689   5.011   7.990  11.426 -1.2560  1.2776 -0.8996
  620MOL0     H83690   4.657   7.955  11.449  0.0210  0.2258 -0.0099
  620MOL0     H83691   4.779   8.068  11.367  2.7037 -1.4118  0.7663
  620MOL0     H83692   4.680   8.041  11.161  1.1409  0.5730  1.5531
  620MOL0     H83693   4.565   8.103  11.282  0.6405 -0.6000  1.8617
  620MOL0     H83694   4.480   7.842  11.306 -1.7489 -0.8034  0.2531
  620MOL0     H83695   4.582   7.812  11.163  0.2136  0.2316 -0.3435
  620MOL0     H83696   4.361   8.009  11.158  3.2921  0.1220  1.1841
  620MOL0     H83697   4.338   7.840  11.120 -0.5746  1.1226 -0.7188
  620MOL0     H83698   4.543   7.925  10.770 -2.0915  1.0676 -1.4014
  620MOL0     H83699   4.838   7.834  11.073  0.2932  0.3046 -0.3523
  620MOL0     H83700   5.052   7.888  10.949  1.5212 -2.2048  0.3512
  621MOL0     O83701   6.739   4.987   3.094 -0.3880 -0.6941 -0.9643
  621MOL0     C83702   6.736   4.892   3.017 -0.6759  0.5759 -0.0335
  621MOL0     O83703   6.651   4.776   3.030  0.2441  0.4036 -0.0161
  621MOL0     C83704   6.584   4.750   3.144  0.0241 -0.3483 -0.4114
  621MOL0     C83705   6.479   4.833   3.181 -0.2167 -0.0407  0.2630
  621MOL0     C83706   6.405   4.815   3.301 -1.0196  0.4937  0.1587
  621MOL0     C83707   6.441   4.707   3.389 -0.3033  1.0687 -0.2126
  621MOL0     O83708   6.373   4.673   3.503  0.3795  0.5197  0.0307
  621MOL0     C83709   6.395   4.549   3.566  0.5094 -0.5135  0.0515
  621MOL0     C83710   6.275   4.508   3.648  0.3942  0.4798  0.6945
  621MOL0     C83711   6.244   4.592   3.770 -0.3812 -0.2230 -0.2053
  621MOL0     C83712   6.357   4.590   3.871 -0.3170 -0.4213  0.2984
  621MOL0     C83713   6.338   4.712   3.950 -0.0891 -1.2136  0.2155
  621MOL0     C83714   6.440   4.716   4.078  0.0113 -0.0748 -0.3585
  621MOL0     C83715   6.400   4.816   4.174  0.0924 -0.0142 -0.5319
  621MOL0     C83716   6.367   4.952   4.111 -0.1195 -0.0407  0.4731
  621MOL0     N83717   6.371   5.051   4.220  1.3678 -0.1588 -0.7799
  621MOL0     C83718   6.397   5.176   4.211  1.1719  0.1599  0.3745
  621MOL0     C83719   6.372   5.235   4.330 -0.2544  0.7183  0.2925
  621MOL0     C83720   6.386   5.382   4.365  0.3912 -0.2693  0.0491
  621MOL0     C83721   6.401   5.483   4.252 -0.6335 -0.2434  0.0198
  621MOL0     C83722   6.394   5.624   4.313  0.3677  0.6606 -0.0871
  621MOL0     C83723   6.513   5.664   4.404  0.4921  0.3964  1.2059
  621MOL0     O83724   6.493   5.802   4.432 -0.1113  0.7389 -0.1835
  621MOL0     C83725   6.584   5.890   4.391  0.8545  0.2414  0.1091
  621MOL0     C83726   6.720   5.857   4.395 -0.2920  0.5587  0.0069
  621MOL0     C83727   6.815   5.940   4.347 -1.1158 -0.1931  0.2598
  621MOL0     C83728   6.957   5.892   4.365  0.4845  0.7574  1.2561
  621MOL0     C83729   6.784   6.065   4.297 -0.2409 -0.5472  0.0811
  621MOL0     C83730   6.881   6.167   4.241 -0.2050  1.0883  0.0109
  621MOL0     O83731   6.821   6.278   4.188 -0.2734 -0.0901  0.0447
  621MOL0     C83732   6.910   6.369   4.129 -0.4430 -0.3583 -0.1901
  621MOL0     C83733   6.928   6.354   3.992 -0.5512  0.1450  0.1576
  621MOL0     C83734   7.011   6.436   3.917  1.5516  1.1490 -0.1828
  621MOL0     C83735   7.070   6.545   3.983 -0.2232 -0.3822  0.2881
  621MOL0     O83736   7.152   6.631   3.903 -0.5254  0.5095 -1.0155
  621MOL0     C83737   7.212   6.738   3.970  0.1664 -0.1362  0.7038
  621MOL0     C83738   7.327   6.795   3.888 -0.0791  0.3090  1.5547
  621MOL0     C83739   7.307   6.865   3.750 -0.3749  0.4802  0.4596
  621MOL0     C83740   7.215   6.990   3.750 -0.1642 -0.4404  0.4429
  621MOL0     C83741   7.159   7.028   3.614  0.3113  0.6563  0.6654
  621MOL0     C83742   7.252   7.114   3.525 -0.4821 -0.5379  0.7600
  621MOL0     C83743   7.187   7.128   3.390  0.2617 -0.0201 -0.0152
  621MOL0     C83744   7.278   7.213   3.312  0.1759 -0.2218 -0.1507
  621MOL0    Cl83745   7.236   7.233   3.128  0.1460 -0.1182 -0.2298
  621MOL0     C83746   7.051   6.553   4.120 -0.4168 -0.1687 -1.1389
  621MOL0     C83747   6.970   6.469   4.193  0.1607  0.3721 -0.9468
  621MOL0     O83748   7.001   6.146   4.245 -0.5580  0.4286  0.3141
  621MOL0     C83749   6.652   6.099   4.292  1.0027 -0.6944 -0.6471
  621MOL0     C83750   6.548   6.016   4.338 -0.6099 -1.2014  0.3222
  621MOL0     N83751   6.342   5.135   4.421 -0.3475  0.1138 -0.1277
  621MOL0     N83752   6.334   5.025   4.357 -0.1278  0.0444  0.8045
  621MOL0     C83753   6.548   4.624   3.349  0.1099 -0.0195  0.5691
  621MOL0     C83754   6.621   4.645   3.233  1.0554 -0.0981  0.2583
  621MOL0     C83755   6.824   4.892   2.898 -1.1599 -0.1266 -0.4503
  621MOL0     C83756   6.897   4.790   2.842 -0.0072 -0.5443 -0.1543
  621MOL0     C83757   6.954   4.800   2.714 -0.2877  0.5146 -0.1213
  621MOL0     C83758   6.938   4.918   2.640  0.1861 -0.2890  0.8436
  621MOL0     O83759   7.000   4.938   2.518 -0.3608  1.2747 -0.3458
  621MOL0     C83760   7.118   4.854   2.490  0.3805 -0.6469  0.5893
  621MOL0     C83761   7.234   4.938   2.439 -0.0340 -0.3974 -0.2096
  621MOL0     C83762   7.357   4.839   2.407 -0.2171 -1.5141  1.0778
  621MOL0     C83763   7.484   4.916   2.342  0.6059 -0.0289 -0.6265
  621MOL0     C83764   7.561   4.838   2.247 -0.4757  0.4792  0.0212
  621MOL0     C83765   7.623   4.760   2.177 -0.6699 -0.1022  0.0883
  621MOL0     C83766   6.874   5.029   2.689  1.4936  0.7983 -0.1733
  621MOL0     C83767   6.827   5.020   2.821 -1.6556 -0.1219 -0.0283
  621MOL0     H83768   6.461   4.916   3.114  1.1654 -0.6437 -0.8929
  621MOL0     H83769   6.327   4.886   3.325 -0.4702  0.2032  3.2097
  621MOL0     H83770   6.407   4.467   3.495  5.7643  0.1481 -0.2034
  621MOL0     H83771   6.490   4.548   3.620  1.8277 -1.5471 -2.1317
  621MOL0     H83772   6.185   4.505   3.585  1.8569  0.3726 -1.4975
  621MOL0     H83773   6.284   4.404   3.682  1.0265 -0.8891 -3.1286
  621MOL0     H83774   6.233   4.692   3.728  0.4729  0.1630  0.4696
  621MOL0     H83775   6.152   4.556   3.816 -1.0471  2.7578  0.9961
  621MOL0     H83776   6.347   4.500   3.932 -0.2165 -0.5173  0.1741
  621MOL0     H83777   6.456   4.584   3.824 -0.6750 -2.5094 -0.2937
  621MOL0     H83778   6.343   4.804   3.891 -1.7251 -1.6695 -0.6881
  621MOL0     H83779   6.233   4.691   3.974 -0.6212 -3.9031 -3.5763
  621MOL0     H83780   6.448   4.620   4.130  1.5700 -1.6627 -3.2945
  621MOL0     H83781   6.539   4.745   4.042 -0.1088  1.9298  0.7964
  621MOL0     H83782   6.316   4.776   4.231  1.0785  1.1838  1.8756
  621MOL0     H83783   6.483   4.826   4.244 -1.8818 -4.1525  2.8616
  621MOL0     H83784   6.275   4.961   4.053  0.6371  1.3711 -0.5737
  621MOL0     H83785   6.454   4.971   4.048  0.4687 -0.0259  1.2681
  621MOL0     H83786   6.427   5.225   4.118  2.1934  1.3376  1.2911
  621MOL0     H83787   6.300   5.413   4.426 -0.5183 -1.3430 -0.6290
  621MOL0     H83788   6.463   5.399   4.440 -0.0391 -0.8339  0.6305
  621MOL0     H83789   6.317   5.463   4.185 -1.5345 -1.3775  1.4294
  621MOL0     H83790   6.497   5.467   4.203  0.0801 -2.0626  1.8590
  621MOL0     H83791   6.298   5.640   4.362  0.2682  3.0765 -0.9100
  621MOL0     H83792   6.381   5.692   4.228 -1.1169  1.5852  0.8365
  621MOL0     H83793   6.605   5.654   4.345  2.1839  0.3227  3.6951
  621MOL0     H83794   6.523   5.612   4.499  1.3177  2.2961  2.2101
  621MOL0     H83795   6.754   5.764   4.440 -0.7368  0.5674  0.3750
  621MOL0     H83796   6.957   5.784   4.380  1.9207  0.6086  0.4052
  621MOL0     H83797   7.022   5.921   4.281  2.1458  0.2751  2.3154
  621MOL0     H83798   7.004   5.941   4.451  2.0506  4.1886 -1.2826
  621MOL0     H83799   6.869   6.277   3.943  0.1034 -1.4136  1.6854
  621MOL0     H83800   7.019   6.427   3.809  0.4829  1.0040 -0.2617
  621MOL0     H83801   7.137   6.812   3.997 -1.0778 -1.6239  1.4868
  621MOL0     H83802   7.265   6.703   4.059  0.1494 -3.0891 -0.3194
  621MOL0     H83803   7.393   6.860   3.948 -0.4226  1.6199  0.5509
  621MOL0     H83804   7.388   6.706   3.868  0.0161  1.1237 -2.6365
  621MOL0     H83805   7.254   6.781   3.704  0.6087  0.5569 -0.8704
  621MOL0     H83806   7.396   6.875   3.687  0.0225 -1.8819  0.5291
  621MOL0     H83807   7.127   6.978   3.814 -2.5431  1.5023 -2.1835
  621MOL0     H83808   7.271   7.077   3.787 -0.3286 -0.9522  1.9737
  621MOL0     H83809   7.070   7.088   3.634  0.2744  1.7620 -2.2712
  621MOL0     H83810   7.121   6.937   3.567 -0.5657  0.7739  1.1416
  621MOL0     H83811   7.282   7.200   3.585  3.1299  0.0776 -1.6632
  621MOL0     H83812   7.346   7.060   3.511 -1.4834 -2.0160 -0.5912
  621MOL0     H83813   7.093   7.183   3.391  1.2078  1.6636  1.5399
  621MOL0     H83814   7.157   7.032   3.347  0.0545 -0.9960  2.2007
  621MOL0     H83815   7.383   7.180   3.309  0.6783  1.3720 -1.3539
  621MOL0     H83816   7.288   7.312   3.357  0.9979 -0.5046  0.3107
  621MOL0     H83817   7.085   6.636   4.181 -1.0319 -0.0185 -0.9936
  621MOL0     H83818   6.942   6.496   4.295 -0.9628 -0.9646 -0.8777
  621MOL0     H83819   6.610   6.191   4.253 -0.3383 -1.6152 -1.4351
  621MOL0     H83820   6.441   6.037   4.338 -0.4142 -0.0747  1.3745
  621MOL0     H83821   6.586   4.534   3.397 -3.2843 -2.2129 -0.5288
  621MOL0     H83822   6.692   4.570   3.199  0.7423 -1.1672  1.8510
  621MOL0     H83823   6.877   4.688   2.874 -3.0314 -0.2765 -0.8571
  621MOL0     H83824   7.009   4.714   2.676 -0.6561  0.3063 -0.1929
  621MOL0     H83825   7.147   4.802   2.581  0.1735 -1.3183  0.2734
  621MOL0     H83826   7.095   4.789   2.405  0.1734  0.0685  0.0805
  621MOL0     H83827   7.266   5.013   2.512 -3.1509  2.0099 -1.0472
  621MOL0     H83828   7.211   4.986   2.344  0.9865 -0.5099 -0.5212
  621MOL0     H83829   7.317   4.770   2.333 -2.1293  1.7528 -1.2296
  621MOL0     H83830   7.395   4.784   2.493  1.6089 -0.2359  1.1523
  621MOL0     H83831   7.547   4.938   2.428  0.1115 -0.3080 -0.1870
  621MOL0     H83832   7.462   5.017   2.308 -4.3717 -0.2763  1.1280
  621MOL0     H83833   7.696   4.706   2.120 -0.2806  1.6230 -1.1253
  621MOL0     H83834   6.868   5.121   2.632  1.8401 -0.6928 -2.7901
  621MOL0     H83835   6.778   5.107   2.864  0.6784  3.0453 -3.2221
  622MOL0     O83836   6.750  11.140   4.878  0.7427 -0.8086 -0.1997
  622MOL0     C83837   6.869  11.168   4.897 -0.4188 -0.4888  0.3099
  622MOL0     O83838   6.922  11.187   5.027 -0.1001 -0.2650  0.2526
  622MOL0     C83839   6.840  11.159   5.131 -0.3419  0.0943  0.2394
  622MOL0     C83840   6.785  11.266   5.189 -0.0303 -0.0656  0.6420
  622MOL0     C83841   6.679  11.238   5.285 -0.7210  0.1985  0.1267
  622MOL0     C83842   6.649  11.110   5.329 -0.6815  0.1563 -0.1014
  622MOL0     O83843   6.560  11.069   5.421  0.1341  0.3022  0.0259
  622MOL0     C83844   6.502  11.178   5.496 -0.5256 -0.0446 -0.3429
  622MOL0     C83845   6.408  11.126   5.606  0.4403  0.4656 -0.2839
  622MOL0     C83846   6.464  11.034   5.712 -0.2138  1.9680  0.0005
  622MOL0     C83847   6.357  11.001   5.822 -0.3172  0.1939 -0.1539
  622MOL0     C83848   6.340  11.118   5.924 -0.7134  0.6990 -0.9290
  622MOL0     C83849   6.464  11.144   6.008  0.1274 -0.0715 -0.2659
  622MOL0     C83850   6.528  11.021   6.071 -0.3389 -0.1696  0.0972
  622MOL0     C83851   6.445  10.971   6.192  0.4975  1.4395 -0.3600
  622MOL0     N83852   6.504  10.847   6.244  0.8924  1.1860 -0.2428
  622MOL0     C83853   6.521  10.817   6.382 -0.8815 -0.5533  0.1979
  622MOL0     C83854   6.577  10.695   6.383 -0.4569 -0.3996 -0.2172
  622MOL0     C83855   6.619  10.629   6.511  0.8400 -0.7737  0.0615
  622MOL0     C83856   6.504  10.622   6.611 -0.7575  0.0593  0.0153
  622MOL0     C83857   6.558  10.567   6.751  0.7873  0.2391  0.7242
  622MOL0     C83858   6.446  10.581   6.847 -0.2739 -0.1691  0.5487
  622MOL0     O83859   6.414  10.726   6.864 -0.8198 -0.0242  0.6469
  622MOL0     C83860   6.320  10.759   6.956 -0.0464 -0.0160  0.3271
  622MOL0     C83861   6.304  10.895   6.992 -0.5652  0.7087  0.1243
  622MOL0     C83862   6.210  10.941   7.083  0.0801  0.6709 -0.4193
  622MOL0     C83863   6.215  11.091   7.119 -0.4378  0.8385 -0.0881
  622MOL0     C83864   6.137  10.845   7.158 -0.5552  0.9926 -0.4177
  622MOL0     C83865   6.038  10.884   7.259  0.5665 -0.2585  0.4894
  622MOL0     O83866   6.002  10.782   7.343  0.2052 -0.3242 -0.2890
  622MOL0     C83867   5.907  10.802   7.449 -0.3922  0.3328  0.1520
  622MOL0     C83868   5.779  10.740   7.464  0.1953  0.2240 -1.0632
  622MOL0     C83869   5.695  10.772   7.573  0.3765 -0.2806  0.3555
  622MOL0     C83870   5.732  10.868   7.674  0.2369 -0.3513 -0.9639
  622MOL0     O83871   5.647  10.911   7.769 -0.7330  0.1956 -0.1753
  622MOL0     C83872   5.545  11.008   7.724  0.4708 -0.9377 -0.7215
  622MOL0     C83873   5.455  11.039   7.839 -0.1521  0.4038 -0.3006
  622MOL0     C83874   5.372  10.911   7.865  0.4379 -0.4277 -0.2354
  622MOL0     C83875   5.235  10.962   7.940 -0.9116 -0.2121  0.3332
  622MOL0     C83876   5.167  10.849   8.008 -0.2817 -0.5734  0.0605
  622MOL0     C83877   5.047  10.903   8.091  0.2389 -0.9008 -0.4772
  622MOL0     C83878   4.966  10.800   8.166  0.0754  0.2863  0.3820
  622MOL0     C83879   5.035  10.745   8.287  0.0214 -0.4933  0.0006
  622MOL0    Cl83880   5.029  10.857   8.438 -0.3080 -0.4469  0.5582
  622MOL0     C83881   5.854  10.925   7.654 -0.7190 -0.2370 -0.5425
  622MOL0     C83882   5.946  10.890   7.547 -0.0653 -0.3850 -0.5710
  622MOL0     O83883   5.977  10.989   7.251  0.1881  0.5456 -0.5593
  622MOL0     C83884   6.157  10.706   7.131 -0.2396  0.1470  0.6541
  622MOL0     C83885   6.238  10.669   7.023  0.5534  1.2356 -0.7295
  622MOL0     N83886   6.578  10.638   6.253  0.2160 -0.6615 -0.1014
  622MOL0     N83887   6.547  10.735   6.177  0.2153  0.6152 -0.6841
  622MOL0     C83888   6.701  11.003   5.253 -0.7389 -0.3017  0.8373
  622MOL0     C83889   6.789  11.026   5.136 -0.2140 -0.0367 -0.6784
  622MOL0     C83890   6.948  11.141   4.769  0.5484  0.2544 -1.0764
  622MOL0     C83891   7.072  11.083   4.774 -0.7929 -0.0728  0.5747
  622MOL0     C83892   7.150  11.058   4.655 -0.5138 -0.8649  0.1898
  622MOL0     C83893   7.099  11.095   4.532 -0.5346 -0.2781  0.0609
  622MOL0     O83894   7.183  11.059   4.427  0.0186  0.2000 -0.2255
  622MOL0     C83895   7.141  11.087   4.294  0.0459  0.1413  0.1158
  622MOL0     C83896   7.187  11.228   4.256  0.6070 -0.2651 -0.0972
  622MOL0     C83897   7.158  11.248   4.108 -0.5739  0.5010 -0.2864
  622MOL0     C83898   7.016  11.222   4.061 -0.7836 -0.8328  0.0600
  622MOL0     C83899   6.918  11.292   4.141  0.7271  0.1152 -0.0651
  622MOL0     C83900   6.840  11.358   4.205  0.6831 -0.2467 -0.8673
  622MOL0     C83901   6.974  11.157   4.517 -0.1300 -0.8085 -1.1127
  622MOL0     C83902   6.904  11.166   4.636 -0.4531 -0.5246  0.3880
  622MOL0     H83903   6.820  11.367   5.174  0.7570 -0.1928  1.5376
  622MOL0     H83904   6.614  11.317   5.322 -2.5668 -2.2474  2.5249
  622MOL0     H83905   6.589  11.232   5.533  0.5438 -1.8218 -0.1881
  622MOL0     H83906   6.445  11.236   5.422  0.8876 -2.2510 -3.3961
  622MOL0     H83907   6.364  11.207   5.665 -0.6266 -0.7150  0.6199
  622MOL0     H83908   6.324  11.079   5.555  0.3755 -1.5162  1.5202
  622MOL0     H83909   6.510  10.941   5.677  0.3936  0.1967  4.7545
  622MOL0     H83910   6.546  11.079   5.769  2.2079 -0.9642 -0.9241
  622MOL0     H83911   6.257  10.983   5.782  0.3135 -0.6619 -1.4135
  622MOL0     H83912   6.366  10.908   5.879 -1.7716 -1.8159 -2.9919
  622MOL0     H83913   6.319  11.207   5.864 -2.0911 -1.7686 -4.4361
  622MOL0     H83914   6.253  11.086   5.982  1.0715  0.2834  1.7007
  622MOL0     H83915   6.538  11.192   5.943 -0.3082  2.4854  0.9725
  622MOL0     H83916   6.437  11.210   6.091 -2.7838  0.2049 -1.2961
  622MOL0     H83917   6.544  10.933   6.009  0.0976 -0.4365  0.5753
  622MOL0     H83918   6.625  11.058   6.105 -1.6960  3.2627  0.6641
  622MOL0     H83919   6.344  10.950   6.155  0.5192  3.3239 -1.6169
  622MOL0     H83920   6.428  11.048   6.268 -3.4490  0.1762  0.2675
  622MOL0     H83921   6.508  10.885   6.466 -1.2368  3.4421 -2.7722
  622MOL0     H83922   6.642  10.525   6.487  0.8734 -0.2407 -2.5236
  622MOL0     H83923   6.701  10.682   6.559  1.0364 -1.0487  0.0309
  622MOL0     H83924   6.419  10.564   6.575 -1.0003  0.7951 -0.6354
  622MOL0     H83925   6.467  10.724   6.627  0.9690  0.9599 -1.3076
  622MOL0     H83926   6.639  10.623   6.797  0.9674 -0.1159  0.8441
  622MOL0     H83927   6.575  10.461   6.727 -1.7959  0.5263 -3.3396
  622MOL0     H83928   6.482  10.536   6.940 -3.1702  1.1375  2.4597
  622MOL0     H83929   6.364  10.519   6.810 -0.8424  2.0044 -2.2084
  622MOL0     H83930   6.383  10.964   6.966 -0.5841  0.1479 -1.5535
  622MOL0     H83931   6.309  11.138   7.089  1.7123 -3.3857 -0.7057
  622MOL0     H83932   6.134  11.134   7.059 -2.5701 -2.4597  0.1818
  622MOL0     H83933   6.191  11.114   7.223 -0.7187  2.5331 -0.4917
  622MOL0     H83934   5.745  10.664   7.395 -3.1368 -0.8973  1.5622
  622MOL0     H83935   5.603  10.714   7.575 -0.4206  0.9503  0.4904
  622MOL0     H83936   5.579  11.099   7.674  1.3958  0.1959  1.7906
  622MOL0     H83937   5.483  10.950   7.655 -2.8992 -1.2176  2.2522
  622MOL0     H83938   5.509  11.079   7.925  0.4806  0.2135 -0.6081
  622MOL0     H83939   5.384  11.118   7.813  1.5951  1.9200 -0.6309
  622MOL0     H83940   5.430  10.839   7.924  3.2859 -0.1074 -2.4464
  622MOL0     H83941   5.350  10.852   7.776 -0.5340  0.8852 -0.8955
  622MOL0     H83942   5.274  11.040   8.006  3.2163 -1.2281 -0.5621
  622MOL0     H83943   5.159  11.001   7.871 -1.6195 -2.3058 -0.1335
  622MOL0     H83944   5.229  10.798   8.082 -0.0220 -0.1330  0.1523
  622MOL0     H83945   5.135  10.777   7.932  0.3794  1.2843 -2.0964
  622MOL0     H83946   5.096  10.963   8.168  3.5273 -0.3766 -2.7320
  622MOL0     H83947   4.979  10.962   8.028  0.0172 -1.1280 -0.4485
  622MOL0     H83948   4.952  10.724   8.089  1.9987  2.6056 -2.4862
  622MOL0     H83949   4.868  10.839   8.196  0.2560 -0.4904  2.0457
  622MOL0     H83950   5.135  10.711   8.260 -0.4604 -1.9242 -0.1036
  622MOL0     H83951   4.975  10.654   8.298  0.1943 -0.6693 -0.5117
  622MOL0     H83952   5.867  11.008   7.724 -1.8972  0.3772 -1.0203
  622MOL0     H83953   6.048  10.924   7.534  0.5665 -1.0219  2.1704
  622MOL0     H83954   6.093  10.633   7.179 -5.4607  1.3359 -3.5946
  622MOL0     H83955   6.240  10.561   7.007  0.0942  0.9134  1.0656
  622MOL0     H83956   6.671  10.902   5.278  0.5622 -0.5802  1.3468
  622MOL0     H83957   6.827  10.945   5.076 -1.4002 -2.5213  1.6982
  622MOL0     H83958   7.117  11.038   4.862  0.1193 -2.7032 -1.1045
  622MOL0     H83959   7.241  10.999   4.662 -1.7688 -2.8647  0.3675
  622MOL0     H83960   7.197  11.023   4.225  0.8714 -0.9307  1.7023
  622MOL0     H83961   7.036  11.063   4.276 -0.0304 -0.1026  0.8550
  622MOL0     H83962   7.296  11.229   4.269  0.6419 -1.1649 -0.2941
  622MOL0     H83963   7.142  11.308   4.316  2.9317  0.3355  0.9870
  622MOL0     H83964   7.221  11.171   4.062 -1.8632 -1.7082  1.4637
  622MOL0     H83965   7.198  11.343   4.072  2.7017 -0.4533  0.5100
  622MOL0     H83966   6.991  11.116   4.072 -1.9276 -0.8013 -1.8161
  622MOL0     H83967   6.995  11.258   3.960 -2.3267  0.1452  0.6855
  622MOL0     H83968   6.774  11.417   4.266  1.5491  0.1421 -0.2781
  622MOL0     H83969   6.926  11.182   4.423 -2.0365  1.0805  0.2814
  622MOL0     H83970   6.810  11.220   4.635 -0.3727 -0.3696  0.7504
  623MOL0     O83971   4.261   1.101   2.091  0.2963 -0.1761  0.0498
  623MOL0     C83972   4.142   1.070   2.054 -0.2682 -0.2157  0.0111
  623MOL0     O83973   4.041   1.160   2.012 -0.0295  0.5944 -0.4564
  623MOL0     C83974   4.061   1.291   2.031  0.5082 -0.8641  0.7797
  623MOL0     C83975   4.054   1.366   1.916  1.0900 -0.7360 -0.4589
  623MOL0     C83976   4.071   1.508   1.915  0.0253 -0.2669 -0.2563
  623MOL0     C83977   4.087   1.574   2.038 -0.2319 -0.8811 -0.0581
  623MOL0     O83978   4.073   1.709   2.046 -0.3021  0.3538 -0.5013
  623MOL0     C83979   4.137   1.793   1.949  0.5189 -0.0850  0.3285
  623MOL0     C83980   4.113   1.935   1.989 -0.2246 -0.1598  1.3205
  623MOL0     C83981   4.208   2.033   1.924 -0.2230 -0.0663  0.6355
  623MOL0     C83982   4.359   2.015   1.952  0.9683  0.3426 -0.4777
  623MOL0     C83983   4.429   2.144   1.908  0.2462 -0.2490 -1.6309
  623MOL0     C83984   4.407   2.192   1.764 -0.6301  0.3438 -0.7854
  623MOL0     C83985   4.438   2.080   1.654 -0.0641  0.5090 -0.0823
  623MOL0     C83986   4.586   2.036   1.656 -0.3309  0.0113  0.2116
  623MOL0     N83987   4.686   2.131   1.619 -0.7908  0.3584  0.6504
  623MOL0     C83988   4.751   2.131   1.499 -1.7612 -1.1448 -0.7077
  623MOL0     C83989   4.805   2.257   1.509 -0.5297  0.5231  0.3861
  623MOL0     C83990   4.879   2.305   1.384 -0.4894 -0.1946  0.0918
  623MOL0     C83991   5.019   2.255   1.402 -0.5762  0.2058 -0.0276
  623MOL0     C83992   5.109   2.344   1.317 -0.5338 -0.0181 -0.0407
  623MOL0     C83993   5.248   2.289   1.296  0.0068 -0.2923  0.7910
  623MOL0     O83994   5.283   2.316   1.165 -0.3772  0.6223 -0.1548
  623MOL0     C83995   5.218   2.260   1.064 -0.1458 -0.4527  0.3610
  623MOL0     C83996   5.231   2.337   0.950  0.0399 -0.1781 -1.1689
  623MOL0     C83997   5.169   2.313   0.824  1.0540  0.8845  0.1226
  623MOL0     C83998   5.185   2.414   0.716  0.0162  0.8165  0.1046
  623MOL0     C83999   5.083   2.199   0.819  0.4894  0.0763  0.3655
  623MOL0     C84000   5.007   2.164   0.702  0.1259 -0.0087 -0.5764
  623MOL0     O84001   4.894   2.082   0.722 -0.1008  0.4317  0.0827
  623MOL0     C84002   4.798   2.062   0.620  0.8840 -0.7997 -0.0519
  623MOL0     C84003   4.821   2.042   0.485  0.6686  0.0501 -0.2088
  623MOL0     C84004   4.714   2.039   0.395 -0.3800 -0.1596 -0.2177
  623MOL0     C84005   4.582   2.063   0.436 -0.4652  0.3607  0.4280
  623MOL0     O84006   4.494   2.053   0.331 -0.4426  0.3578  0.1044
  623MOL0     C84007   4.361   2.117   0.337 -0.5042 -0.8411  1.0712
  623MOL0     C84008   4.266   2.011   0.394  0.5715  0.1371 -0.2766
  623MOL0     C84009   4.238   1.901   0.291 -1.0539 -0.0270  0.3380
  623MOL0     C84010   4.150   1.792   0.350  0.1936 -0.2878 -0.3650
  623MOL0     C84011   4.148   1.679   0.240 -0.3462  0.6064 -0.6345
  623MOL0     C84012   4.062   1.698   0.118  0.1138  0.0186 -0.8923
  623MOL0     C84013   3.914   1.686   0.163  0.9929 -0.5335  0.1812
  623MOL0     C84014   3.877   1.550   0.224 -0.3390 -0.5192 -0.2543
  623MOL0    Cl84015   3.910   1.532   0.396 -0.3899 -0.1211 -0.2723
  623MOL0     C84016   4.554   2.094   0.566 -0.3631  0.7653  0.1865
  623MOL0     C84017   4.657   2.078   0.666  0.4888 -0.2548 -0.6959
  623MOL0     O84018   5.040   2.195   0.588  0.0373 -0.3857 -0.1308
  623MOL0     C84019   5.061   2.136   0.940  0.1160  0.3912 -0.4980
  623MOL0     C84020   5.126   2.155   1.060 -1.0514  0.3419  0.3893
  623MOL0     N84021   4.797   2.308   1.632 -0.1534  0.5882  0.2056
  623MOL0     N84022   4.725   2.229   1.705 -0.3131  0.2555  0.1511
  623MOL0     C84023   4.095   1.500   2.160 -0.3178  1.0127 -0.5103
  623MOL0     C84024   4.082   1.358   2.147  0.1357  0.4881 -0.8399
  623MOL0     C84025   4.110   0.928   2.056  0.1720 -0.2668 -0.5870
  623MOL0     C84026   4.204   0.824   2.112  0.5081  0.2285 -0.4849
  623MOL0     C84027   4.169   0.690   2.107  1.2598  0.1119 -0.2099
  623MOL0     C84028   4.037   0.650   2.075 -0.4307 -0.1119 -0.1461
  623MOL0     O84029   4.008   0.515   2.075 -1.3926  0.0689 -0.6328
  623MOL0     C84030   3.961   0.462   2.197 -0.1646 -0.4500  0.3820
  623MOL0     C84031   3.811   0.467   2.215  0.8368 -0.1666 -0.2011
  623MOL0     C84032   3.771   0.452   2.362  0.5222 -0.0110  0.2585
  623MOL0     C84033   3.619   0.479   2.390 -0.8335  0.2087  0.4617
  623MOL0     C84034   3.598   0.444   2.528 -0.5119  0.1971 -1.0016
  623MOL0     C84035   3.560   0.409   2.639 -0.4983  0.3564  0.6437
  623MOL0     C84036   3.945   0.748   2.034  0.4767 -0.4094  0.6255
  623MOL0     C84037   3.987   0.884   2.019  0.1946 -0.0763  0.4058
  623MOL0     H84038   4.039   1.310   1.824 -0.7074 -0.1666 -0.5462
  623MOL0     H84039   4.065   1.569   1.826 -0.2648  1.6006  0.9831
  623MOL0     H84040   4.246   1.785   1.943  0.5423  0.9994 -1.4700
  623MOL0     H84041   4.088   1.772   1.853  0.4243  0.4041  0.2687
  623MOL0     H84042   4.015   1.965   1.951  1.1877 -0.1689 -2.8022
  623MOL0     H84043   4.109   1.948   2.098 -0.6461  1.0447  1.1809
  623MOL0     H84044   4.187   2.047   1.818  0.2763 -2.9769  0.0770
  623MOL0     H84045   4.179   2.128   1.970 -1.2771  1.5889 -3.0320
  623MOL0     H84046   4.364   2.000   2.060  0.8642 -1.8624 -0.7384
  623MOL0     H84047   4.410   1.934   1.900 -0.0560  0.3972 -1.6217
  623MOL0     H84048   4.399   2.225   1.976  2.0340  0.1071 -1.2107
  623MOL0     H84049   4.533   2.118   1.929  0.1100  0.1278 -0.3412
  623MOL0     H84050   4.312   2.245   1.750  0.5858  2.1875 -2.7351
  623MOL0     H84051   4.482   2.265   1.732  0.5679 -1.3355 -1.9577
  623MOL0     H84052   4.370   1.997   1.675  0.3161  0.4917  1.1802
  623MOL0     H84053   4.411   2.120   1.556  0.0228 -0.7972 -0.6594
  623MOL0     H84054   4.583   1.948   1.590 -1.4565 -0.3000  0.6409
  623MOL0     H84055   4.608   1.992   1.754 -0.7681  4.4491  2.5679
  623MOL0     H84056   4.758   2.079   1.404 -1.1708 -3.1252  0.3803
  623MOL0     H84057   4.843   2.265   1.289  0.8825 -0.8143 -0.1787
  623MOL0     H84058   4.870   2.414   1.386 -0.8290 -0.1954 -0.8817
  623MOL0     H84059   5.034   2.153   1.366 -2.3012 -0.4681  1.0639
  623MOL0     H84060   5.046   2.251   1.508 -0.9086  2.5686  0.2126
  623MOL0     H84061   5.125   2.440   1.367  0.7251 -1.0242  1.5963
  623MOL0     H84062   5.065   2.373   1.221  2.0913  3.0519 -0.4522
  623MOL0     H84063   5.259   2.180   1.303 -1.3303 -0.9221 -3.7339
  623MOL0     H84064   5.320   2.332   1.367 -0.0191  2.7859 -0.8699
  623MOL0     H84065   5.296   2.422   0.966  0.3176 -0.5261 -0.4008
  623MOL0     H84066   5.279   2.390   0.666  1.2739  1.0169  2.2264
  623MOL0     H84067   5.092   2.411   0.659 -0.1680 -3.3143  0.2889
  623MOL0     H84068   5.190   2.511   0.766 -1.4608  3.1046 -3.7967
  623MOL0     H84069   4.926   2.044   0.457  1.0918  1.7529  1.3025
  623MOL0     H84070   4.747   2.049   0.292  1.5435  1.5839  0.4969
  623MOL0     H84071   4.364   2.206   0.401 -2.3878  1.0116 -1.2128
  623MOL0     H84072   4.325   2.150   0.238 -0.9173  1.1543  1.8350
  623MOL0     H84073   4.316   1.970   0.482  0.8766  0.9097 -0.0837
  623MOL0     H84074   4.169   2.055   0.419  0.5368 -0.6165  0.9942
  623MOL0     H84075   4.336   1.866   0.260 -1.9820  0.4547 -3.7345
  623MOL0     H84076   4.188   1.947   0.205 -1.3483 -0.8449  0.0646
  623MOL0     H84077   4.193   1.765   0.447  0.9260  1.4506 -0.1698
  623MOL0     H84078   4.057   1.830   0.395  2.3684  1.5620  3.0049
  623MOL0     H84079   4.133   1.581   0.285  0.3425  0.9059  0.2633
  623MOL0     H84080   4.251   1.663   0.207  0.3948  0.1484  1.7047
  623MOL0     H84081   4.093   1.788   0.065  0.2676  0.6519  0.2501
  623MOL0     H84082   4.083   1.618   0.047 -0.5410 -0.4292 -0.5990
  623MOL0     H84083   3.854   1.682   0.071 -1.5041 -0.8922  1.7196
  623MOL0     H84084   3.876   1.773   0.217  2.2833  0.1406  0.0110
  623MOL0     H84085   3.926   1.467   0.172  0.0141 -1.1298  1.0082
  623MOL0     H84086   3.772   1.529   0.201 -0.0875 -0.3521 -1.6729
  623MOL0     H84087   4.457   2.112   0.612 -1.8540 -1.9869 -1.6632
  623MOL0     H84088   4.630   2.096   0.770  1.1862  0.7822 -0.6853
  623MOL0     H84089   4.995   2.050   0.949  2.0167 -0.9993  1.0474
  623MOL0     H84090   5.106   2.110   1.157 -0.8428  3.8371  2.2152
  623MOL0     H84091   4.113   1.530   2.262 -0.4129 -3.7426  1.1526
  623MOL0     H84092   4.088   1.302   2.240 -1.9349  1.7641  0.1065
  623MOL0     H84093   4.301   0.850   2.155  1.0847  0.6339 -1.9712
  623MOL0     H84094   4.250   0.625   2.136 -1.2175 -1.5150  3.7510
  623MOL0     H84095   4.003   0.361   2.192  0.2911 -0.2806  0.7171
  623MOL0     H84096   4.003   0.523   2.278 -2.0238 -0.5578  1.4883
  623MOL0     H84097   3.768   0.396   2.144  0.8773  0.2894 -0.6891
  623MOL0     H84098   3.794   0.573   2.195  4.4161  0.6570  0.3858
  623MOL0     H84099   3.836   0.516   2.423  0.4325 -0.0128  0.3564
  623MOL0     H84100   3.792   0.352   2.402 -0.0422  0.0782  0.7810
  623MOL0     H84101   3.551   0.421   2.327 -0.2933 -0.1677  0.2248
  623MOL0     H84102   3.589   0.584   2.381  0.8991  0.6558 -0.3951
  623MOL0     H84103   3.539   0.381   2.740 -2.7329 -0.0096  0.1268
  623MOL0     H84104   3.851   0.721   1.986  1.1759  0.8074 -1.5489
  623MOL0     H84105   3.918   0.948   1.965 -1.1311  0.1469  2.2640
  624MOL0     O84106   6.279   1.039   1.585 -1.1265 -1.0355  0.2529
  624MOL0     C84107   6.238   1.068   1.695  0.7191  0.1635  0.0213
  624MOL0     O84108   6.116   1.040   1.754  0.7562  0.3811  0.5616
  624MOL0     C84109   6.033   0.961   1.690 -0.8918 -0.0291 -0.4370
  624MOL0     C84110   5.912   1.003   1.642 -0.2738 -0.8704 -0.4379
  624MOL0     C84111   5.841   0.925   1.557 -1.2810 -0.3608  0.9207
  624MOL0     C84112   5.886   0.802   1.519  0.4855 -0.0040 -0.2692
  624MOL0     O84113   5.831   0.724   1.429  0.3487  0.8511  0.1235
  624MOL0     C84114   5.888   0.718   1.301  0.9365  0.3302  0.4727
  624MOL0     C84115   5.914   0.568   1.244 -1.0347 -0.6807  0.2870
  624MOL0     C84116   5.798   0.467   1.272  0.3828 -0.0029 -0.7845
  624MOL0     C84117   5.839   0.318   1.281 -0.2546  0.5703  0.5035
  624MOL0     C84118   5.711   0.233   1.288  0.2779  1.1503  0.3719
  624MOL0     C84119   5.756   0.084   1.321 -0.7449  0.4086  0.2290
  624MOL0     C84120   5.646   0.011   1.397 -0.2339  1.0938  0.3784
  624MOL0     C84121   5.668  -0.139   1.390 -0.2673  0.4691 -1.2594
  624MOL0     N84122   5.579  -0.197   1.489  0.0480 -0.4201  1.4808
  624MOL0     C84123   5.578  -0.169   1.620 -0.2077  0.8561 -0.1469
  624MOL0     C84124   5.448  -0.207   1.667 -0.8363 -1.2091 -0.3657
  624MOL0     C84125   5.399  -0.205   1.808 -0.4634  0.2167 -0.2939
  624MOL0     C84126   5.467  -0.105   1.906 -0.4514  0.1817 -0.3814
  624MOL0     C84127   5.420   0.043   1.905  0.6967 -0.6550  0.4800
  624MOL0     C84128   5.502   0.136   2.012 -0.1966 -0.1061 -0.2824
  624MOL0     O84129   5.486   0.073   2.144  0.6387 -0.1364  0.4050
  624MOL0     C84130   5.480   0.151   2.255  0.3859  0.2448  0.8750
  624MOL0     C84131   5.580   0.248   2.275 -0.3133  0.2427 -0.4378
  624MOL0     C84132   5.576   0.339   2.389 -1.2661 -0.0342  0.8725
  624MOL0     C84133   5.679   0.445   2.388 -0.9787  0.2054 -1.5232
  624MOL0     C84134   5.469   0.322   2.483 -0.4717 -0.4404 -0.3935
  624MOL0     C84135   5.457   0.397   2.616  0.2127 -0.2201 -1.5945
  624MOL0     O84136   5.326   0.421   2.660  0.1671  0.6024  0.3285
  624MOL0     C84137   5.303   0.489   2.784 -0.4033 -0.7045  0.5583
  624MOL0     C84138   5.255   0.617   2.784  0.4147 -1.0043 -0.8031
  624MOL0     C84139   5.219   0.682   2.909  0.8088  0.2297  0.2146
  624MOL0     C84140   5.259   0.615   3.026  0.1679 -0.0331 -0.3372
  624MOL0     O84141   5.238   0.665   3.155 -1.1895 -0.3365 -0.4490
  624MOL0     C84142   5.214   0.809   3.159  0.3367 -0.4217  0.6722
  624MOL0     C84143   5.204   0.866   3.302  0.0286 -0.2101 -0.4457
  624MOL0     C84144   5.082   0.945   3.326  0.2647  1.0446 -0.2051
  624MOL0     C84145   5.092   1.073   3.255  0.5060  0.9223 -0.2358
  624MOL0     C84146   4.959   1.143   3.252 -0.7637 -0.8442  0.8370
  624MOL0     C84147   4.983   1.293   3.217  0.8271  0.0075 -0.3916
  624MOL0     C84148   4.850   1.373   3.241 -0.4561 -0.1475 -0.1783
  624MOL0     C84149   4.873   1.517   3.200  0.1337 -0.3976 -0.4968
  624MOL0    Cl84150   5.003   1.585   3.294  0.3441 -0.3734 -0.2588
  624MOL0     C84151   5.309   0.489   3.024  1.4827 -0.2675 -0.0794
  624MOL0     C84152   5.341   0.432   2.908 -0.2814  0.2811 -0.5741
  624MOL0     O84153   5.561   0.440   2.660 -0.7126  0.2239  0.3541
  624MOL0     C84154   5.374   0.221   2.455  0.0079  0.8929  0.4089
  624MOL0     C84155   5.379   0.130   2.349  0.8885 -0.1863  0.6265
  624MOL0     N84156   5.380  -0.251   1.555 -0.0748  0.2044 -0.4378
  624MOL0     N84157   5.460  -0.257   1.453 -0.2806 -0.7755 -0.3766
  624MOL0     C84158   6.002   0.746   1.579 -0.7237  0.0956 -0.1371
  624MOL0     C84159   6.077   0.828   1.667 -0.2669  0.3502  0.3445
  624MOL0     C84160   6.332   1.137   1.786  0.2132  0.8571 -0.5620
  624MOL0     C84161   6.459   1.174   1.747  1.4967  0.1265 -0.4048
  624MOL0     C84162   6.551   1.231   1.831  0.4690 -0.0639  0.4006
  624MOL0     C84163   6.521   1.271   1.959 -0.6822  0.4770 -1.0439
  624MOL0     O84164   6.605   1.326   2.056 -1.1123 -0.6790 -0.8510
  624MOL0     C84165   6.712   1.239   2.096 -1.5916  0.1166  0.3414
  624MOL0     C84166   6.807   1.327   2.172 -0.4305 -0.3097 -0.1402
  624MOL0     C84167   6.758   1.368   2.317 -0.8895 -0.1173  0.4565
  624MOL0     C84168   6.784   1.248   2.409  0.2695 -0.6841 -0.0004
  624MOL0     C84169   6.716   1.281   2.544 -0.4506  0.2711  0.1792
  624MOL0     C84170   6.627   1.296   2.627  0.0426  0.1399  0.2831
  624MOL0     C84171   6.395   1.226   2.007 -0.1205 -0.5238  0.2101
  624MOL0     C84172   6.306   1.158   1.927  0.8541 -0.2517 -0.3233
  624MOL0     H84173   5.880   1.102   1.671 -0.1008 -0.8611 -0.2762
  624MOL0     H84174   5.750   0.959   1.510 -0.4241  1.4814  0.4916
  624MOL0     H84175   5.811   0.773   1.246 -0.9013 -0.9859  1.6029
  624MOL0     H84176   5.985   0.762   1.276  1.6689 -0.9615  0.9637
  624MOL0     H84177   5.935   0.570   1.137 -1.7283 -1.1253  0.1332
  624MOL0     H84178   6.002   0.529   1.295 -0.4294 -2.7601 -2.1218
  624MOL0     H84179   5.764   0.504   1.369 -1.9749  0.3052 -1.6662
  624MOL0     H84180   5.715   0.484   1.203 -0.4898  2.6466  0.7620
  624MOL0     H84181   5.884   0.292   1.185  2.3526  2.4877  1.1078
  624MOL0     H84182   5.912   0.293   1.358 -1.0321 -0.3369  0.9737
  624MOL0     H84183   5.644   0.287   1.356 -0.5960  2.1427 -1.2324
  624MOL0     H84184   5.666   0.235   1.189  2.1884  1.7336 -0.5281
  624MOL0     H84185   5.794   0.027   1.236  3.0644  1.9679  0.6602
  624MOL0     H84186   5.839   0.084   1.393 -0.4968  1.3584 -0.0318
  624MOL0     H84187   5.655   0.062   1.493 -0.3946  2.3491 -0.2407
  624MOL0     H84188   5.548   0.032   1.353  0.1638  0.9827 -0.6032
  624MOL0     H84189   5.771  -0.152   1.423  0.6373  1.3060 -3.6142
  624MOL0     H84190   5.649  -0.176   1.289 -1.4103  0.8544 -1.1993
  624MOL0     H84191   5.655  -0.110   1.669  0.9397  0.7156 -1.7199
  624MOL0     H84192   5.295  -0.172   1.797 -0.2047  2.1806  2.1756
  624MOL0     H84193   5.423  -0.306   1.844 -0.7328  0.6484  1.1974
  624MOL0     H84194   5.575  -0.104   1.886 -0.8897  1.0803 -3.1642
  624MOL0     H84195   5.455  -0.140   2.009 -1.4933 -0.3193 -0.6545
  624MOL0     H84196   5.312   0.046   1.923  0.7374  0.4226  0.6149
  624MOL0     H84197   5.425   0.088   1.806 -0.9547 -2.7321 -0.6248
  624MOL0     H84198   5.471   0.241   2.004  3.0549  0.9174 -0.7510
  624MOL0     H84199   5.605   0.139   1.975  0.4138  1.2178  1.3812
  624MOL0     H84200   5.643   0.269   2.189 -1.9486  1.9312 -1.3129
  624MOL0     H84201   5.756   0.426   2.312 -0.4709 -3.0246 -0.4001
  624MOL0     H84202   5.631   0.543   2.389 -0.1555  0.6632  0.8658
  624MOL0     H84203   5.724   0.440   2.488 -2.3635 -2.2736 -0.9324
  624MOL0     H84204   5.259   0.651   2.681  0.9194  2.0078  0.1185
  624MOL0     H84205   5.172   0.780   2.901 -1.1625 -0.7706 -1.0002
  624MOL0     H84206   5.274   0.877   3.098 -2.7726  2.8488  0.9728
  624MOL0     H84207   5.115   0.823   3.116 -0.6193 -0.2083  2.8006
  624MOL0     H84208   5.205   0.787   3.378 -0.1762 -1.6515 -1.8866
  624MOL0     H84209   5.295   0.926   3.309  1.5225 -2.2031 -1.5121
  624MOL0     H84210   5.071   0.976   3.431 -3.0363  2.3507 -0.8134
  624MOL0     H84211   4.996   0.881   3.305  1.5648 -0.6600 -0.5429
  624MOL0     H84212   5.177   1.134   3.286  1.5383  0.8109 -2.6147
  624MOL0     H84213   5.117   1.067   3.149 -2.5361  2.2623 -1.1307
  624MOL0     H84214   4.925   1.140   3.356  0.1653 -2.1599  1.1236
  624MOL0     H84215   4.883   1.110   3.180 -0.7596 -0.5913  0.7142
  624MOL0     H84216   5.055   1.333   3.288 -0.4951  0.8390  0.5327
  624MOL0     H84217   5.014   1.301   3.112 -0.4842  0.5491 -0.7697
  624MOL0     H84218   4.829   1.364   3.348 -1.3566 -0.8416 -0.4071
  624MOL0     H84219   4.774   1.315   3.188 -1.7918 -0.2862  1.7613
  624MOL0     H84220   4.786   1.584   3.204 -0.2927 -0.9838  0.6642
  624MOL0     H84221   4.894   1.515   3.093 -5.1030  0.7362 -1.8394
  624MOL0     H84222   5.345   0.451   3.119  0.9441 -1.9282 -0.5136
  624MOL0     H84223   5.396   0.338   2.915 -3.3973 -1.4995  3.5881
  624MOL0     H84224   5.287   0.203   2.517 -0.3422  0.7499 -0.1178
  624MOL0     H84225   5.302   0.053   2.340  0.5076  0.3499 -1.0565
  624MOL0     H84226   6.043   0.646   1.573 -1.5157 -0.3409  1.2482
  624MOL0     H84227   6.171   0.798   1.711  0.7545  3.7711  0.7461
  624MOL0     H84228   6.495   1.139   1.651 -2.9776 -0.9293 -1.9479
  624MOL0     H84229   6.647   1.245   1.784  0.7947 -1.4969  0.6063
  624MOL0     H84230   6.675   1.153   2.152 -3.1468 -0.4589 -1.4761
  624MOL0     H84231   6.762   1.186   2.014 -0.7875  2.4278 -0.7497
  624MOL0     H84232   6.808   1.428   2.128  0.5330  0.7011  2.0688
  624MOL0     H84233   6.905   1.278   2.175  1.5026  3.2699  1.8372
  624MOL0     H84234   6.651   1.376   2.334 -0.5661  2.0414  1.8579
  624MOL0     H84235   6.792   1.464   2.356 -2.3074  0.5301  0.1640
  624MOL0     H84236   6.886   1.218   2.434  0.4716  0.7492  0.9872
  624MOL0     H84237   6.747   1.158   2.360 -2.6706  0.6936 -0.5187
  624MOL0     H84238   6.552   1.302   2.703 -1.8043 -0.6867 -1.3779
  624MOL0     H84239   6.360   1.244   2.108 -1.3598  0.0573 -0.2997
  624MOL0     H84240   6.207   1.146   1.970  0.9483 -1.3003 -0.3922
  625MOL0     O84241   5.981   0.134  10.135 -0.8771 -0.0999 -0.2843
  625MOL0     C84242   5.940   0.014  10.129  1.5490  0.0879  0.7167
  625MOL0     O84243   5.816  -0.016  10.073 -1.0476 -0.6319 -0.6504
  625MOL0     C84244   5.737   0.094  10.044  0.2914  0.7061  0.3314
  625MOL0     C84245   5.755   0.157   9.916  0.5342 -0.1061 -0.1919
  625MOL0     C84246   5.684   0.271   9.883 -0.1605 -1.1835  0.3564
  625MOL0     C84247   5.581   0.323   9.966 -0.3875 -0.5507  0.1038
  625MOL0     O84248   5.516   0.448   9.940  0.2405  0.3612  0.2683
  625MOL0     C84249   5.383   0.485   9.988  0.2351 -0.0091  0.8134
  625MOL0     C84250   5.298   0.554   9.879  0.2386 -1.1517 -0.5196
  625MOL0     C84251   5.267   0.480   9.748  0.2259 -0.3344 -1.3682
  625MOL0     C84252   5.205   0.344   9.770 -0.1991 -0.1446  0.5150
  625MOL0     C84253   5.166   0.288   9.623  0.2030  0.0665 -0.4900
  625MOL0     C84254   5.053   0.188   9.627 -0.2492 -0.3778  0.6539
  625MOL0     C84255   5.044   0.095   9.503 -0.5520  0.6407  0.8164
  625MOL0     C84256   4.902   0.035   9.496  0.0582  0.0932  0.6350
  625MOL0     N84257   4.871  -0.045   9.621  0.2518 -0.2519  0.4858
  625MOL0     C84258   4.959  -0.126   9.696  0.2956 -0.4455 -0.4274
  625MOL0     C84259   4.891  -0.169   9.809  0.1442 -0.3785  0.0124
  625MOL0     C84260   4.933  -0.263   9.918  0.1494  0.1929 -0.1264
  625MOL0     C84261   5.050  -0.201   9.998 -0.0932 -0.6887  0.4003
  625MOL0     C84262   5.009  -0.095  10.108  0.3654 -0.2138 -0.8117
  625MOL0     C84263   4.974   0.042  10.058 -1.1512  0.9736 -0.0138
  625MOL0     O84264   4.921   0.124  10.151  0.1809 -0.0992  0.9382
  625MOL0     C84265   4.999   0.228  10.189 -0.8117 -0.0424  0.8453
  625MOL0     C84266   4.924   0.335  10.242 -0.2834  0.8123 -0.4520
  625MOL0     C84267   4.997   0.438  10.311  0.3550 -0.3359  0.4584
  625MOL0     C84268   4.903   0.551  10.362  0.7936  0.3732 -0.5886
  625MOL0     C84269   5.140   0.434  10.326  0.2328  0.2110 -0.3290
  625MOL0     C84270   5.212   0.542  10.410 -0.0146  0.0672 -1.0661
  625MOL0     O84271   5.336   0.584  10.359 -0.2868  0.2707 -0.4317
  625MOL0     C84272   5.383   0.703  10.410  0.4984  0.6541  0.1110
  625MOL0     C84273   5.498   0.682  10.502  0.3765 -0.3939  0.2383
  625MOL0     C84274   5.552   0.805  10.548  0.7235 -0.2785 -0.2151
  625MOL0     C84275   5.510   0.932  10.508 -0.3364 -0.2131  0.7260
  625MOL0     O84276   5.587   1.035  10.542  0.0066 -0.1196 -0.9563
  625MOL0     C84277   5.574   1.172  10.483 -0.5789 -0.3360 -0.7634
  625MOL0     C84278   5.642   1.275  10.577  0.3122  1.4431  0.1626
  625MOL0     C84279   5.555   1.296  10.709 -0.0977  0.5676  0.6119
  625MOL0     C84280   5.569   1.439  10.780 -0.2358  0.2453  0.4159
  625MOL0     C84281   5.497   1.449  10.917  0.7141 -0.1454 -0.6519
  625MOL0     C84282   5.550   1.547  11.018  0.0591  0.2525 -0.2048
  625MOL0     C84283   5.484   1.689  10.987 -0.3457 -0.5055  0.0367
  625MOL0     C84284   5.555   1.806  11.056 -0.6362 -0.0401 -0.5497
  625MOL0    Cl84285   5.441   1.936  11.045  0.1544 -0.0328 -0.2397
  625MOL0     C84286   5.402   0.939  10.418 -0.2035 -0.7632 -0.0690
  625MOL0     C84287   5.333   0.830  10.373  0.2466  0.0824 -0.1134
  625MOL0     O84288   5.153   0.608  10.499 -0.4415  0.9192 -0.2277
  625MOL0     C84289   5.213   0.343  10.261 -0.9555  0.2582  0.0543
  625MOL0     C84290   5.146   0.234  10.197  0.3095  0.0727  0.4998
  625MOL0     N84291   4.767  -0.105   9.796 -0.0981  0.6556 -0.9141
  625MOL0     N84292   4.753  -0.042   9.685 -0.2713 -0.2435  0.1238
  625MOL0     C84293   5.563   0.261  10.097 -0.4575 -0.8493  0.4111
  625MOL0     C84294   5.641   0.149  10.134  0.5109  0.1101 -0.4940
  625MOL0     C84295   6.022  -0.096  10.152  0.2247  0.3750 -0.1648
  625MOL0     C84296   6.161  -0.079  10.151  1.1584 -0.6396  0.1694
  625MOL0     C84297   6.248  -0.193  10.175 -0.5302 -1.1212  0.2385
  625MOL0     C84298   6.192  -0.322  10.201  0.2216 -0.4484 -0.3471
  625MOL0     O84299   6.254  -0.438  10.241 -0.5348 -0.4097 -0.3736
  625MOL0     C84300   6.400  -0.450  10.233 -0.9706 -0.0501  0.0706
  625MOL0     C84301   6.485  -0.394  10.354 -0.2464 -0.8219 -0.4743
  625MOL0     C84302   6.421  -0.444  10.481  0.6705 -0.6111  0.3030
  625MOL0     C84303   6.483  -0.371  10.608 -0.5544 -0.2923  0.5270
  625MOL0     C84304   6.469  -0.454  10.725  0.0686  0.6604  0.4525
  625MOL0     C84305   6.435  -0.520  10.822 -0.0437 -0.4981 -0.0821
  625MOL0     C84306   6.058  -0.332  10.192  0.8543  0.0252  0.1822
  625MOL0     C84307   5.977  -0.224  10.169  0.2286  0.2477 -0.2718
  625MOL0     H84308   5.836   0.135   9.847  0.3881  0.7764 -0.6558
  625MOL0     H84309   5.694   0.310   9.782 -2.0285  0.8223  0.8604
  625MOL0     H84310   5.329   0.398  10.026  1.1682 -1.0580 -0.2022
  625MOL0     H84311   5.399   0.561  10.066  0.9061 -0.7600  1.4224
  625MOL0     H84312   5.202   0.578   9.925  0.3628 -3.2314  0.9461
  625MOL0     H84313   5.348   0.648   9.853 -2.2035  0.2433 -0.4507
  625MOL0     H84314   5.196   0.538   9.689  0.6727  1.0622 -0.5917
  625MOL0     H84315   5.361   0.470   9.693  1.4341 -1.0908  0.7291
  625MOL0     H84316   5.257   0.272   9.834 -3.6488  0.1352  4.0050
  625MOL0     H84317   5.114   0.364   9.828 -1.5730  2.6083 -2.2509
  625MOL0     H84318   5.150   0.374   9.558  1.9205  0.1328 -0.8680
  625MOL0     H84319   5.248   0.234   9.576  0.6185 -2.3021  2.6445
  625MOL0     H84320   5.058   0.125   9.716 -2.4746 -1.7936 -0.1340
  625MOL0     H84321   4.961   0.248   9.635  0.3467  0.6649 -0.0167
  625MOL0     H84322   5.062   0.156   9.414  1.2866  3.4681  2.9559
  625MOL0     H84323   5.114   0.012   9.510 -0.7145  0.5135  0.9466
  625MOL0     H84324   4.898  -0.039   9.415 -0.8759 -0.0678  0.8190
  625MOL0     H84325   4.826   0.112   9.481 -0.9534 -0.6264  1.8718
  625MOL0     H84326   5.061  -0.148   9.664  0.7038  1.1893 -0.3206
  625MOL0     H84327   4.853  -0.292   9.986 -0.5266 -2.5942 -1.9266
  625MOL0     H84328   4.970  -0.356   9.875  1.4594 -0.0766  1.4938
  625MOL0     H84329   5.114  -0.148   9.928 -1.0217 -2.2679 -1.7627
  625MOL0     H84330   5.108  -0.277  10.052 -1.5434 -1.5884  0.7565
  625MOL0     H84331   5.089  -0.083  10.182  1.8487  0.5308 -2.4631
  625MOL0     H84332   4.925  -0.142  10.159  0.8098  0.7082  0.8542
  625MOL0     H84333   4.902   0.030   9.977 -2.2288 -0.9693  1.1564
  625MOL0     H84334   5.067   0.076  10.010 -0.3886 -3.3317 -2.0384
  625MOL0     H84335   4.816   0.336  10.245 -0.4515  4.4544 -2.1672
  625MOL0     H84336   4.875   0.529  10.466 -0.6282  3.9168 -0.1046
  625MOL0     H84337   4.938   0.653  10.345  0.5087  0.0256 -3.9356
  625MOL0     H84338   4.805   0.547  10.314  0.0845 -0.7917  0.8651
  625MOL0     H84339   5.558   0.593  10.518  0.5747 -0.1666  0.7608
  625MOL0     H84340   5.643   0.786  10.604 -0.0176 -0.3143  1.0199
  625MOL0     H84341   5.631   1.182  10.390  1.9009 -1.4084  0.5347
  625MOL0     H84342   5.472   1.206  10.462 -0.8159 -0.8990 -0.5650
  625MOL0     H84343   5.743   1.245  10.610 -0.0392  0.4063  0.3505
  625MOL0     H84344   5.654   1.371  10.528 -1.2269  1.2191 -0.7134
  625MOL0     H84345   5.579   1.220  10.783 -0.6877 -1.4156 -1.1260
  625MOL0     H84346   5.448   1.281  10.689 -0.1140  1.0046  0.3614
  625MOL0     H84347   5.676   1.452  10.800  0.6574 -0.9444 -3.0234
  625MOL0     H84348   5.536   1.514  10.707 -1.4430  0.7798  1.4684
  625MOL0     H84349   5.517   1.356  10.970 -0.0298 -0.1665 -0.3973
  625MOL0     H84350   5.389   1.465  10.910  0.9832  2.4016 -0.0176
  625MOL0     H84351   5.520   1.511  11.117 -0.0555 -0.9639 -0.6660
  625MOL0     H84352   5.660   1.550  11.011 -0.0419  0.6129 -2.3011
  625MOL0     H84353   5.383   1.680  11.027  0.4709  0.2050  2.4376
  625MOL0     H84354   5.475   1.713  10.881  0.4345  2.4733  0.5628
  625MOL0     H84355   5.650   1.824  11.004 -0.0759  2.1629  1.0864
  625MOL0     H84356   5.578   1.779  11.160 -3.3756 -1.6786 -0.2676
  625MOL0     H84357   5.379   1.032  10.367 -2.7541 -0.8941  0.7048
  625MOL0     H84358   5.248   0.849  10.308  0.7915  0.3694 -0.7516
  625MOL0     H84359   5.321   0.342  10.274 -0.5794  0.1426 -2.5361
  625MOL0     H84360   5.203   0.161  10.140 -0.1925 -0.2852  0.4545
  625MOL0     H84361   5.496   0.309  10.167 -1.7906  0.4744 -1.6791
  625MOL0     H84362   5.629   0.095  10.227  0.7221  0.2800 -0.3662
  625MOL0     H84363   6.204   0.020  10.135  1.7978 -0.8967  0.2345
  625MOL0     H84364   6.356  -0.190  10.169 -0.3483 -2.3741  2.0409
  625MOL0     H84365   6.440  -0.552  10.228  3.5307  1.3366  2.0370
  625MOL0     H84366   6.434  -0.411  10.137 -0.0177 -2.7885 -0.8116
  625MOL0     H84367   6.483  -0.285  10.361 -0.7234 -0.9295  1.7364
  625MOL0     H84368   6.589  -0.427  10.349 -0.0158 -0.0739 -0.6105
  625MOL0     H84369   6.438  -0.552  10.488 -0.4034 -0.9893 -2.0879
  625MOL0     H84370   6.314  -0.425  10.485  1.2783  3.5606  2.4085
  625MOL0     H84371   6.446  -0.272  10.634 -1.7663 -0.9102  1.2121
  625MOL0     H84372   6.587  -0.355  10.577 -1.1147  2.3955 -0.1991
  625MOL0     H84373   6.402  -0.570  10.912 -3.0660 -0.4946 -1.0628
  625MOL0     H84374   5.999  -0.422  10.208 -1.9649  1.5988 -0.7113
  625MOL0     H84375   5.873  -0.255  10.164  0.1344  0.7081 -2.3063
  626MOL0     O84376   0.644   4.886   0.620 -0.1707 -0.6150  0.1108
  626MOL0     C84377   0.551   4.849   0.546  0.5861 -0.0417  0.1839
  626MOL0     O84378   0.493   4.723   0.542  0.0769 -0.2982 -0.5801
  626MOL0     C84379   0.530   4.623   0.625 -0.3278 -0.8355  0.5285
  626MOL0     C84380   0.576   4.637   0.759 -0.1460  0.7034 -0.5212
  626MOL0     C84381   0.597   4.518   0.833 -1.0846 -1.0907 -0.9611
  626MOL0     C84382   0.577   4.387   0.782  0.9461  0.4653 -1.6637
  626MOL0     O84383   0.590   4.271   0.852  0.3013 -0.3526  0.2387
  626MOL0     C84384   0.631   4.268   0.985  0.3647 -0.4118  0.2031
  626MOL0     C84385   0.591   4.143   1.053 -0.3204 -0.9011 -0.4798
  626MOL0     C84386   0.585   4.145   1.214  0.1507 -0.9109  1.1692
  626MOL0     C84387   0.726   4.138   1.265 -1.2924  0.1458 -0.3503
  626MOL0     C84388   0.727   4.129   1.415 -0.6361  0.0116 -1.0185
  626MOL0     C84389   0.849   4.045   1.456 -0.5689 -0.2330 -0.1743
  626MOL0     C84390   0.877   4.018   1.608 -0.0367  0.7627  0.7673
  626MOL0     C84391   0.870   4.142   1.694 -0.1219 -0.1984 -0.0444
  626MOL0     N84392   0.918   4.110   1.832 -0.0959 -0.0592  0.8204
  626MOL0     C84393   1.057   4.127   1.874 -0.0568 -0.1046  0.4430
  626MOL0     C84394   1.053   4.059   1.978 -0.6112  0.2030  0.6894
  626MOL0     C84395   1.181   4.002   2.029  0.4576  0.2458  0.2316
  626MOL0     C84396   1.251   4.092   2.127  0.0712 -0.2449  0.4579
  626MOL0     C84397   1.325   4.221   2.080  0.5269 -0.4139  0.5917
  626MOL0     C84398   1.378   4.309   2.188 -0.6338  1.1289 -0.0470
  626MOL0     O84399   1.497   4.245   2.247 -0.1961 -0.0818  0.1122
  626MOL0     C84400   1.582   4.314   2.323  0.0229 -0.2151 -0.0165
  626MOL0     C84401   1.711   4.269   2.338  0.3628  0.3465  0.7258
  626MOL0     C84402   1.807   4.324   2.428 -0.3254 -0.4969  0.4443
  626MOL0     C84403   1.934   4.252   2.451 -0.6482  0.1610 -0.2123
  626MOL0     C84404   1.780   4.458   2.473  0.6709 -0.1052  0.0890
  626MOL0     C84405   1.876   4.557   2.545 -1.0608  0.1616  0.1241
  626MOL0     O84406   1.823   4.677   2.591  1.0098  0.6245 -0.6435
  626MOL0     C84407   1.913   4.764   2.643  0.5366 -0.8401 -1.5451
  626MOL0     C84408   1.990   4.850   2.563 -0.0567 -1.0842 -0.0001
  626MOL0     C84409   2.081   4.935   2.622  0.5790  0.4588  0.2998
  626MOL0     C84410   2.108   4.932   2.765  0.1580 -0.2418  1.2827
  626MOL0     O84411   2.208   5.012   2.806 -0.6546  0.5219  0.4003
  626MOL0     C84412   2.210   5.070   2.937  0.5725 -0.0315  0.5167
  626MOL0     C84413   2.296   4.984   3.038  0.2292  0.3921  0.0966
  626MOL0     C84414   2.229   4.974   3.177  0.1341  0.3969 -0.0003
  626MOL0     C84415   2.219   5.109   3.247  0.0735  0.2339 -0.5171
  626MOL0     C84416   2.159   5.117   3.386  1.0676 -0.7550  0.2636
  626MOL0     C84417   2.156   5.260   3.442  0.2643  0.2470 -0.2012
  626MOL0     C84418   2.070   5.256   3.562  0.8414 -0.2231 -1.1257
  626MOL0     C84419   2.096   5.351   3.682  0.2107 -0.6701 -0.4439
  626MOL0    Cl84420   1.945   5.427   3.741 -0.0393  0.1234  0.2627
  626MOL0     C84421   2.021   4.854   2.849  0.1417 -0.4205  0.6997
  626MOL0     C84422   1.929   4.764   2.787  0.0387 -0.0709 -0.0911
  626MOL0     O84423   1.988   4.517   2.574 -0.0226 -0.6299  0.5784
  626MOL0     C84424   1.652   4.513   2.447 -0.7317 -0.1058 -0.3046
  626MOL0     C84425   1.553   4.439   2.378  0.2011  0.8155 -1.0129
  626MOL0     N84426   0.935   4.000   2.014  0.3218  0.5006 -0.6917
  626MOL0     N84427   0.860   4.035   1.925  1.2033  0.1733 -0.9508
  626MOL0     C84428   0.539   4.375   0.655  0.5835 -0.6832 -0.1080
  626MOL0     C84429   0.515   4.496   0.578 -0.7503  0.5474  0.5967
  626MOL0     C84430   0.486   4.962   0.461  0.3561  0.3772 -0.1971
  626MOL0     C84431   0.355   4.942   0.426 -0.1859  1.1055  0.6968
  626MOL0     C84432   0.280   5.037   0.356  0.0755  0.0245  0.9921
  626MOL0     C84433   0.341   5.159   0.319  1.0884  0.4607  0.6005
  626MOL0     O84434   0.263   5.269   0.267 -0.2221  0.3550 -0.0324
  626MOL0     C84435   0.319   5.402   0.237  0.2492  1.1923  0.0706
  626MOL0     C84436   0.209   5.502   0.211 -0.9874  0.0675  0.1918
  626MOL0     C84437   0.275   5.634   0.148 -0.2815 -0.2860 -0.1871
  626MOL0     C84438   0.165   5.745   0.120 -0.3045  1.0135  1.2800
  626MOL0     C84439   0.082   5.687   0.016  0.5515 -1.1201  0.9575
  626MOL0     C84440   0.000   5.635  -0.065  0.1555  0.0299 -0.3303
  626MOL0     C84441   0.478   5.180   0.352 -0.9104 -0.9251 -0.5414
  626MOL0     C84442   0.548   5.083   0.433  0.9225  0.1674 -0.2851
  626MOL0     H84443   0.585   4.731   0.812  1.2094  0.8795 -1.0120
  626MOL0     H84444   0.626   4.539   0.935 -0.1777 -2.9368 -0.7882
  626MOL0     H84445   0.739   4.285   0.995  0.6535 -1.8582 -0.2646
  626MOL0     H84446   0.572   4.344   1.037 -0.0796  0.0587 -0.9629
  626MOL0     H84447   0.488   4.127   1.020 -0.8748 -1.1805  1.2854
  626MOL0     H84448   0.663   4.067   1.022  2.1290  0.7870  0.7250
  626MOL0     H84449   0.533   4.239   1.233 -1.2611 -0.7679 -2.4737
  626MOL0     H84450   0.516   4.066   1.244 -0.1465 -0.0876  2.7828
  626MOL0     H84451   0.782   4.052   1.228  1.1981  1.9317 -1.0159
  626MOL0     H84452   0.779   4.228   1.233 -1.9490  0.7669  0.2520
  626MOL0     H84453   0.733   4.232   1.452  3.0952  0.0932 -1.4433
  626MOL0     H84454   0.634   4.079   1.443 -1.4386  1.1385 -1.5811
  626MOL0     H84455   0.846   3.945   1.412 -2.0584  0.6118 -2.1521
  626MOL0     H84456   0.943   4.087   1.420  0.3265 -1.7828  0.2352
  626MOL0     H84457   0.806   3.939   1.635 -0.2314  0.1690 -1.2970
  626MOL0     H84458   0.977   3.974   1.621  0.3425  1.8357  1.6358
  626MOL0     H84459   0.770   4.186   1.701 -0.1700 -0.4574  1.0987
  626MOL0     H84460   0.929   4.223   1.649  2.0651 -0.2519  2.4968
  626MOL0     H84461   1.146   4.167   1.826  0.2506  2.2033  2.7485
  626MOL0     H84462   1.173   3.902   2.071  0.5328  0.9676  2.0602
  626MOL0     H84463   1.244   3.981   1.942 -0.2460  2.6753 -0.9639
  626MOL0     H84464   1.325   4.029   2.178 -1.8999 -2.5562  0.6379
  626MOL0     H84465   1.184   4.116   2.210  1.1849 -0.7247  1.5246
  626MOL0     H84466   1.247   4.283   2.034 -0.6733 -2.1466  0.1955
  626MOL0     H84467   1.396   4.190   2.003 -1.1139 -1.0309 -0.7360
  626MOL0     H84468   1.308   4.319   2.271  1.1206 -0.6363  1.7572
  626MOL0     H84469   1.413   4.407   2.151  0.9586  1.3859  1.9511
  626MOL0     H84470   1.740   4.180   2.283  3.0598  1.2643  0.5200
  626MOL0     H84471   2.018   4.303   2.404 -0.0242 -0.5475  0.1195
  626MOL0     H84472   1.936   4.236   2.559 -0.0049  1.6492  0.0143
  626MOL0     H84473   1.960   4.154   2.408  2.1335  0.7034  0.0831
  626MOL0     H84474   1.963   4.849   2.458 -3.4835 -0.3106  0.7534
  626MOL0     H84475   2.146   4.994   2.557  2.3466 -0.5402  1.0790
  626MOL0     H84476   2.231   5.177   2.936  0.5975 -0.0302 -1.0737
  626MOL0     H84477   2.107   5.060   2.972 -0.1462 -2.1039 -1.8685
  626MOL0     H84478   2.293   4.883   2.995  0.4881 -1.2875  3.6988
  626MOL0     H84479   2.394   5.031   3.051  0.8672 -1.2436  1.4874
  626MOL0     H84480   2.282   4.906   3.245 -0.2818 -1.4815 -1.4567
  626MOL0     H84481   2.138   4.916   3.156  1.9494 -2.0571 -1.7554
  626MOL0     H84482   2.319   5.154   3.248  0.8004 -0.5721 -5.7583
  626MOL0     H84483   2.150   5.175   3.194 -3.1478 -2.2185  0.2669
  626MOL0     H84484   2.225   5.058   3.451  1.2811 -0.8927 -0.0681
  626MOL0     H84485   2.057   5.079   3.390  1.3197 -1.6249 -0.9964
  626MOL0     H84486   2.256   5.296   3.471  0.0149 -0.1118  1.1890
  626MOL0     H84487   2.124   5.335   3.369  2.3750 -0.3068 -1.7809
  626MOL0     H84488   2.068   5.151   3.593 -1.9854  0.0397 -0.1698
  626MOL0     H84489   1.972   5.279   3.522  2.4739  0.7977 -4.9511
  626MOL0     H84490   2.157   5.435   3.647 -0.7888 -0.1351 -0.9868
  626MOL0     H84491   2.153   5.295   3.756 -3.7158 -2.4368  1.5266
  626MOL0     H84492   2.015   4.847   2.957  1.6979 -5.1578  0.6921
  626MOL0     H84493   1.872   4.707   2.860  0.6804  1.7224  1.9250
  626MOL0     H84494   1.633   4.612   2.488  2.5711  1.1523 -1.4753
  626MOL0     H84495   1.452   4.476   2.364 -1.0891 -2.1398 -0.4858
  626MOL0     H84496   0.501   4.280   0.620  0.2623 -0.4569 -0.3832
  626MOL0     H84497   0.479   4.501   0.476 -1.4477  0.3333  0.8257
  626MOL0     H84498   0.297   4.852   0.447 -1.4326  0.5464 -4.0149
  626MOL0     H84499   0.175   5.010   0.352 -0.1296  0.8833  0.5234
  626MOL0     H84500   0.380   5.433   0.323  1.8230  1.2841 -1.0245
  626MOL0     H84501   0.388   5.390   0.153 -1.1609 -4.2095 -0.6779
  626MOL0     H84502   0.175   5.528   0.312 -1.7919 -0.6030  0.1007
  626MOL0     H84503   0.132   5.462   0.145 -0.8864 -0.6018  0.4780
  626MOL0     H84504   0.332   5.590   0.066  2.6099 -1.7119  2.3848
  626MOL0     H84505   0.351   5.677   0.214 -0.2080 -3.0686  1.7242
  626MOL0     H84506   0.201   5.840   0.080  0.1167 -0.2387 -1.5385
  626MOL0     H84507   0.115   5.755   0.217  2.9469 -0.9124  3.3624
  626MOL0     H84508  -0.065   5.585  -0.134  0.9636 -0.1643 -0.9724
  626MOL0     H84509   0.539   5.262   0.317  1.8882 -3.1487 -1.1977
  626MOL0     H84510   0.649   5.109   0.463  0.1926  1.1485  1.5130
  627MOL0     O84511   4.663   2.509   3.668  0.0679  0.0667 -0.5549
  627MOL0     C84512   4.757   2.533   3.594 -0.9411 -0.6869  1.2414
  627MOL0     O84513   4.800   2.444   3.501 -0.2871  0.2070 -0.5522
  627MOL0     C84514   4.712   2.351   3.443  0.2336 -0.0347  0.1996
  627MOL0     C84515   4.762   2.224   3.443  0.6270 -0.7157  0.9467
  627MOL0     C84516   4.679   2.114   3.406 -1.1446  0.2772 -0.6894
  627MOL0     C84517   4.557   2.132   3.360 -0.1984 -0.6016  1.1832
  627MOL0     O84518   4.493   2.019   3.319 -0.1477 -0.7475 -0.1861
  627MOL0     C84519   4.373   1.990   3.390  0.1003  0.4119  0.9078
  627MOL0     C84520   4.388   1.941   3.532  0.3220  0.1351 -0.0698
  627MOL0     C84521   4.472   1.807   3.528  0.8635  0.3080  0.7831
  627MOL0     C84522   4.388   1.686   3.483 -0.6676  1.0653  0.8994
  627MOL0     C84523   4.460   1.546   3.506  0.6272 -0.1382  1.9185
  627MOL0     C84524   4.403   1.432   3.427  1.4841 -0.5846  0.5201
  627MOL0     C84525   4.507   1.328   3.383 -0.6095 -0.2599  0.0281
  627MOL0     C84526   4.601   1.251   3.475 -0.0463 -0.2239  0.5489
  627MOL0     N84527   4.532   1.139   3.543  0.8544 -0.4755 -0.1996
  627MOL0     C84528   4.400   1.136   3.591 -0.1226 -0.2389  0.2517
  627MOL0     C84529   4.373   1.001   3.586  0.9680 -0.1265 -0.3795
  627MOL0     C84530   4.241   0.925   3.615  0.8194 -0.7848  0.9192
  627MOL0     C84531   4.184   0.968   3.750 -0.1187  0.2275  0.3204
  627MOL0     C84532   4.263   0.887   3.861 -0.4867  0.0188  0.0431
  627MOL0     C84533   4.210   0.916   4.000 -0.2913  1.1038 -0.4697
  627MOL0     O84534   4.096   0.832   4.004 -0.4544  0.4696 -0.2887
  627MOL0     C84535   4.014   0.840   4.110 -0.9272 -0.0728  0.1965
  627MOL0     C84536   3.918   0.747   4.119  0.1560  0.3419 -0.1833
  627MOL0     C84537   3.836   0.740   4.234 -0.4457 -0.0092  0.1296
  627MOL0     C84538   3.742   0.615   4.250 -0.1481  0.3204 -0.3472
  627MOL0     C84539   3.835   0.839   4.332 -0.4701 -0.0470  1.4798
  627MOL0     C84540   3.760   0.845   4.466  0.3405  0.2080  0.8392
  627MOL0     O84541   3.688   0.749   4.504 -0.6658 -0.2943 -0.3737
  627MOL0     C84542   3.594   0.760   4.608 -0.0529 -0.3006  0.2750
  627MOL0     C84543   3.485   0.845   4.606 -0.3275 -0.3607  1.3288
  627MOL0     C84544   3.392   0.850   4.713 -0.6724  0.2334 -0.4895
  627MOL0     C84545   3.425   0.777   4.833  0.3961  1.1800 -1.6868
  627MOL0     O84546   3.334   0.788   4.935 -0.2626  0.8613 -0.6641
  627MOL0     C84547   3.377   0.759   5.066 -0.7642  1.1439 -0.1240
  627MOL0     C84548   3.275   0.784   5.163  0.6979 -0.5677  0.1716
  627MOL0     C84549   3.311   0.777   5.311 -0.7929  0.6012 -0.2540
  627MOL0     C84550   3.226   0.859   5.402 -0.8098  0.1947  0.5240
  627MOL0     C84551   3.254   0.837   5.553 -0.7899  0.3440 -0.6667
  627MOL0     C84552   3.399   0.866   5.595 -0.6403  0.3412 -0.1248
  627MOL0     C84553   3.433   0.840   5.743  0.9079  0.6790  0.6553
  627MOL0     C84554   3.578   0.835   5.769 -0.4964  0.1357  0.7132
  627MOL0    Cl84555   3.650   0.685   5.701 -0.1266  0.6135  0.3505
  627MOL0     C84556   3.537   0.700   4.845 -0.2549 -0.4226 -0.3173
  627MOL0     C84557   3.620   0.690   4.731  0.2045  0.9474  0.1954
  627MOL0     O84558   3.759   0.953   4.517 -0.2032 -0.4234 -0.5943
  627MOL0     C84559   3.931   0.940   4.311  1.3988 -0.2674  0.3011
  627MOL0     C84560   4.015   0.946   4.200  0.0639 -0.3175 -0.3435
  627MOL0     N84561   4.488   0.933   3.545  0.4586 -0.1984 -0.1332
  627MOL0     N84562   4.570   1.016   3.507  0.4735  0.8800 -0.4546
  627MOL0     C84563   4.502   2.261   3.361  0.0638 -0.0354  0.1301
  627MOL0     C84564   4.581   2.372   3.404  0.1884 -0.1829  0.3888
  627MOL0     C84565   4.851   2.641   3.644 -0.7940  0.1968 -0.1283
  627MOL0     C84566   4.985   2.641   3.607  0.2101 -1.0076  0.0230
  627MOL0     C84567   5.079   2.726   3.662  0.8068 -1.1882 -0.0095
  627MOL0     C84568   5.046   2.817   3.762 -0.6510  0.3749 -0.4244
  627MOL0     O84569   5.135   2.907   3.810 -0.1305  0.5872 -0.2871
  627MOL0     C84570   5.273   2.881   3.815 -0.7930 -0.1720 -0.1112
  627MOL0     C84571   5.352   3.009   3.834 -0.2163  0.3809  0.5008
  627MOL0     C84572   5.350   3.099   3.707  0.4321 -0.1557  0.3898
  627MOL0     C84573   5.345   3.250   3.747 -0.1026 -0.2224 -0.7239
  627MOL0     C84574   5.405   3.329   3.644  0.1064  0.2632  0.0978
  627MOL0     C84575   5.440   3.418   3.577 -0.3771 -0.2243 -0.1059
  627MOL0     C84576   4.910   2.822   3.808  0.5333 -0.6007  0.3481
  627MOL0     C84577   4.825   2.730   3.751  1.0155  0.5151  0.1012
  627MOL0     H84578   4.855   2.209   3.497 -1.3565 -3.0152  4.0824
  627MOL0     H84579   4.729   2.018   3.415  0.0320  0.8436  8.3782
  627MOL0     H84580   4.301   2.072   3.401 -0.8806 -0.5763  2.0900
  627MOL0     H84581   4.331   1.910   3.328  5.0119  0.7128 -3.5112
  627MOL0     H84582   4.429   2.020   3.596 -1.9413  1.5136 -0.2184
  627MOL0     H84583   4.287   1.922   3.569 -0.7398  1.8745 -1.8837
  627MOL0     H84584   4.560   1.826   3.466  1.2155 -0.4350  1.0474
  627MOL0     H84585   4.512   1.795   3.629 -3.9213  0.2487  2.9364
  627MOL0     H84586   4.307   1.683   3.556 -0.7412 -1.5441  0.8108
  627MOL0     H84587   4.361   1.690   3.377 -1.4331 -1.5485  0.9356
  627MOL0     H84588   4.568   1.558   3.490  0.5522  0.9797  2.1955
  627MOL0     H84589   4.453   1.521   3.612 -0.0201 -0.1993  1.8634
  627MOL0     H84590   4.325   1.379   3.482  2.5510 -1.8580  0.8422
  627MOL0     H84591   4.371   1.472   3.330  2.8658  3.4959  1.5307
  627MOL0     H84592   4.447   1.262   3.320 -2.4118  0.7224  0.6450
  627MOL0     H84593   4.575   1.373   3.310  0.7007 -0.7626  0.9020
  627MOL0     H84594   4.639   1.317   3.553 -0.3598  1.0081 -0.3012
  627MOL0     H84595   4.684   1.220   3.411 -1.4949 -2.1473 -0.5366
  627MOL0     H84596   4.353   1.223   3.636  0.5646  1.0390 -1.4003
  627MOL0     H84597   4.184   0.956   3.527  2.6369  1.7531  0.5008
  627MOL0     H84598   4.258   0.817   3.617 -1.0935 -1.1657 -0.5960
  627MOL0     H84599   4.080   0.936   3.764 -0.1636  0.0197 -0.4236
  627MOL0     H84600   4.202   1.072   3.778  0.6038 -0.2292  1.6043
  627MOL0     H84601   4.361   0.935   3.853  0.3277 -1.8021 -2.5325
  627MOL0     H84602   4.281   0.782   3.835  2.6126  0.0992  1.4444
  627MOL0     H84603   4.183   1.021   4.006  1.9200  1.6202  1.9823
  627MOL0     H84604   4.279   0.885   4.079  0.4076  2.8080 -0.3706
  627MOL0     H84605   3.909   0.674   4.039  1.9155 -0.5702  0.4258
  627MOL0     H84606   3.753   0.557   4.342 -2.1313 -3.1147 -2.0805
  627MOL0     H84607   3.649   0.673   4.253  0.5775  1.7436 -2.5424
  627MOL0     H84608   3.738   0.554   4.159 -3.5550 -1.4190  0.8051
  627MOL0     H84609   3.456   0.899   4.516 -0.9397 -0.5420  1.4132
  627MOL0     H84610   3.293   0.895   4.713  0.5481  3.1420  0.4289
  627MOL0     H84611   3.411   0.657   5.083  0.7526  1.6541  0.0644
  627MOL0     H84612   3.463   0.824   5.086 -1.5654  1.8001  1.4067
  627MOL0     H84613   3.219   0.878   5.151 -1.9472 -2.2138 -1.3840
  627MOL0     H84614   3.193   0.714   5.145 -1.1616  0.7092  2.9213
  627MOL0     H84615   3.418   0.796   5.321 -0.8402 -0.2374  2.8075
  627MOL0     H84616   3.297   0.673   5.341  0.9857  0.3446 -0.2509
  627MOL0     H84617   3.258   0.962   5.380  3.7480 -1.4275 -1.8813
  627MOL0     H84618   3.120   0.852   5.379 -0.2908 -1.2087 -1.8644
  627MOL0     H84619   3.231   0.733   5.577 -1.0244  0.8264  1.3819
  627MOL0     H84620   3.187   0.895   5.616 -0.8680 -0.7169  0.2655
  627MOL0     H84621   3.460   0.805   5.528 -1.5586 -0.2848 -0.4213
  627MOL0     H84622   3.409   0.973   5.578 -0.7633  0.6565  1.5575
  627MOL0     H84623   3.383   0.743   5.751 -2.3581  1.8264 -2.8401
  627MOL0     H84624   3.383   0.914   5.805  1.9187  1.4970  0.5353
  627MOL0     H84625   3.584   0.816   5.877  2.7186  0.0894  0.6099
  627MOL0     H84626   3.622   0.930   5.738  0.5887 -1.2183 -2.2470
  627MOL0     H84627   3.572   0.647   4.933  0.4387 -1.1935 -1.0337
  627MOL0     H84628   3.712   0.633   4.738 -0.2031  0.2438  0.0212
  627MOL0     H84629   3.953   1.016   4.386  0.9679  2.8463 -2.5061
  627MOL0     H84630   4.083   1.029   4.188  1.8145 -1.4255  1.3467
  627MOL0     H84631   4.401   2.277   3.326  0.3181  0.3435 -0.4602
  627MOL0     H84632   4.528   2.466   3.388 -0.7819 -0.1291  3.3525
  627MOL0     H84633   5.007   2.576   3.523 -0.7788  0.6883 -1.6540
  627MOL0     H84634   5.182   2.727   3.626  1.3319  2.5893  1.1988
  627MOL0     H84635   5.290   2.812   3.898 -2.6426 -0.8036 -0.2142
  627MOL0     H84636   5.309   2.827   3.726 -0.9468  0.8469 -0.8057
  627MOL0     H84637   5.458   2.982   3.837 -0.3428 -0.0139  1.5966
  627MOL0     H84638   5.318   3.054   3.928  2.8366  2.2470  0.8207
  627MOL0     H84639   5.264   3.079   3.643  1.6471 -0.5806 -1.1606
  627MOL0     H84640   5.439   3.080   3.646  0.7952  0.1892  0.8043
  627MOL0     H84641   5.391   3.269   3.844 -2.7076  1.2970  0.2779
  627MOL0     H84642   5.242   3.286   3.755  1.3101  4.0611  1.2342
  627MOL0     H84643   5.475   3.487   3.503 -0.0688 -0.4979 -0.2176
  627MOL0     H84644   4.869   2.894   3.878  1.5072  2.9490 -2.4618
  627MOL0     H84645   4.720   2.739   3.780  0.6199  0.2942 -1.1720
  628MOL0     O84646   9.220   7.713   1.909  0.0587 -0.3837 -0.2536
  628MOL0     C84647   9.104   7.680   1.935  1.3073 -0.6589 -0.1533
  628MOL0     O84648   9.035   7.714   2.055  0.3236  0.1459 -0.2908
  628MOL0     C84649   9.082   7.822   2.124 -0.5494 -0.1095 -0.2773
  628MOL0     C84650   9.067   7.948   2.072  0.0278  0.8634 -0.2731
  628MOL0     C84651   9.112   8.059   2.153  0.2723 -0.1391 -0.6484
  628MOL0     C84652   9.149   8.037   2.290 -0.0994  0.1783  0.0575
  628MOL0     O84653   9.177   8.133   2.376  0.0110  0.3357 -0.9256
  628MOL0     C84654   9.228   8.263   2.339  1.0302 -0.2387  1.4305
  628MOL0     C84655   9.317   8.322   2.450 -0.4597 -0.2389  0.5798
  628MOL0     C84656   9.345   8.474   2.429 -0.4186  0.6082 -0.1936
  628MOL0     C84657   9.426   8.496   2.297  0.2246  0.1656  0.1406
  628MOL0     C84658   9.454   8.648   2.283  0.2160 -0.0526 -0.4192
  628MOL0     C84659   9.558   8.653   2.171  0.0103  0.0615  0.1436
  628MOL0     C84660   9.640   8.786   2.159 -0.6072 -0.0976  0.0687
  628MOL0     C84661   9.699   8.823   2.299  0.3560  0.2996 -0.0735
  628MOL0     N84662   9.807   8.915   2.283 -0.7999 -0.1022 -0.8279
  628MOL0     C84663   9.783   9.043   2.242 -0.2156  0.0880 -0.5478
  628MOL0     C84664   9.912   9.086   2.257 -0.3423 -0.7349  0.1174
  628MOL0     C84665   9.938   9.235   2.229 -0.4905  0.1742 -0.5635
  628MOL0     C84666   9.912   9.274   2.079 -0.2091 -0.9207 -0.3312
  628MOL0     C84667   9.984   9.414   2.047 -0.2418  0.5520  0.7814
  628MOL0     C84668   9.923   9.488   1.923  0.6370  0.1900  0.0483
  628MOL0     O84669   9.815   9.582   1.960  0.7551 -0.4688  0.1699
  628MOL0     C84670   9.793   9.698   1.886 -0.2818  0.0124 -0.1878
  628MOL0     C84671   9.833   9.712   1.754  0.6127  0.3897  0.4740
  628MOL0     C84672   9.812   9.827   1.678 -0.0140 -0.1581 -1.2023
  628MOL0     C84673   9.879   9.819   1.535 -0.0305  0.2675  0.5099
  628MOL0     C84674   9.739   9.937   1.744  0.0272  0.0367  0.2758
  628MOL0     C84675   9.696  10.056   1.657 -0.0295 -0.9518  0.3983
  628MOL0     O84676   9.682  10.034   1.526 -0.5522  0.0544 -0.2225
  628MOL0     C84677   9.674  10.143   1.440  0.1965  0.1213  0.3899
  628MOL0     C84678   9.753  10.256   1.452 -0.1116 -1.2228  0.6701
  628MOL0     C84679   9.762  10.343   1.342 -0.0948  0.7542  0.8290
  628MOL0     C84680   9.672  10.330   1.236  0.2501  1.0763 -0.3123
  628MOL0     O84681   9.685  10.413   1.132  0.3400 -0.2413  1.1080
  628MOL0     C84682   9.814  10.456   1.086  0.2694  0.8383  0.7200
  628MOL0     C84683   9.920  10.345   1.056 -0.3108 -0.1541  0.4899
  628MOL0     C84684  10.037  10.418   0.980  0.3450  1.1202 -0.2193
  628MOL0     C84685  10.151  10.338   0.920  0.2147  0.1289 -0.0393
  628MOL0     C84686  10.271  10.421   0.887 -0.1687 -0.0057  0.5286
  628MOL0     C84687  10.270  10.494   0.750  0.3016 -0.1015 -0.0128
  628MOL0     C84688  10.400  10.573   0.720 -0.6624 -0.4528  0.4761
  628MOL0     C84689  10.386  10.630   0.572 -0.0071 -0.0527  0.4550
  628MOL0    Cl84690  10.447  10.500   0.462 -0.1656 -0.1932  0.2522
  628MOL0     C84691   9.589  10.211   1.229 -0.7285 -0.3530 -0.1829
  628MOL0     C84692   9.590  10.123   1.332 -0.4786  0.2470 -0.3740
  628MOL0     O84693   9.665  10.164   1.717  0.6954  0.6374 -0.5039
  628MOL0     C84694   9.702   9.932   1.881  0.5349  0.3470 -0.2160
  628MOL0     C84695   9.727   9.815   1.947  0.0259  0.3629  0.2580
  628MOL0     N84696  10.004   8.990   2.289  2.0295 -0.3954 -0.8410
  628MOL0     N84697   9.935   8.886   2.312  1.3011 -0.3206 -0.0917
  628MOL0     C84698   9.149   7.911   2.348  0.2197 -0.2307  0.7574
  628MOL0     C84699   9.115   7.803   2.258 -0.3258 -0.3286  0.0208
  628MOL0     C84700   9.029   7.591   1.852  0.5768  0.1462 -0.3885
  628MOL0     C84701   8.912   7.530   1.901  0.1975  0.2411 -0.5308
  628MOL0     C84702   8.835   7.439   1.834  0.0773 -0.2577 -0.7472
  628MOL0     C84703   8.856   7.432   1.702  0.6057 -0.0989  0.2044
  628MOL0     O84704   8.781   7.342   1.634  0.1091 -0.1414  0.3331
  628MOL0     C84705   8.755   7.361   1.493  0.1539 -1.2641 -0.0821
  628MOL0     C84706   8.643   7.265   1.449  0.1795  0.4974 -0.3669
  628MOL0     C84707   8.516   7.326   1.479  0.2558 -0.0944 -0.2137
  628MOL0     C84708   8.403   7.227   1.479  0.3817 -0.2677  0.5374
  628MOL0     C84709   8.266   7.283   1.459  0.3494  0.4563 -0.4053
  628MOL0     C84710   8.152   7.330   1.449 -0.4016  0.2690 -0.3367
  628MOL0     C84711   8.963   7.493   1.640  1.0796  0.0199 -0.4740
  628MOL0     C84712   9.055   7.568   1.716 -0.2619 -0.5683 -0.5634
  628MOL0     H84713   9.024   7.958   1.973 -1.2222  0.8351  0.2512
  628MOL0     H84714   9.098   8.160   2.115 -2.9328 -0.2974 -0.1892
  628MOL0     H84715   9.290   8.252   2.250 -2.9126 -1.9190 -1.3714
  628MOL0     H84716   9.152   8.338   2.315  0.1598 -1.0976  1.4479
  628MOL0     H84717   9.254   8.306   2.538 -2.0599  0.2869 -0.4195
  628MOL0     H84718   9.411   8.266   2.454  0.5656  1.2720 -0.9041
  628MOL0     H84719   9.253   8.532   2.424 -0.3303  0.6755 -1.8303
  628MOL0     H84720   9.405   8.504   2.515 -1.8229  0.1545  0.9866
  628MOL0     H84721   9.517   8.436   2.294  1.5611  2.0718  0.6950
  628MOL0     H84722   9.373   8.474   2.204 -3.2893 -0.2301  2.0860
  628MOL0     H84723   9.369   8.713   2.261  0.0352  1.1214  3.0384
  628MOL0     H84724   9.497   8.680   2.378  0.3961  0.4858 -0.6793
  628MOL0     H84725   9.628   8.569   2.184 -0.1985 -0.6200 -2.4982
  628MOL0     H84726   9.513   8.631   2.074  0.8357 -0.0542 -0.2209
  628MOL0     H84727   9.722   8.761   2.091 -0.9047 -4.2071  0.9357
  628MOL0     H84728   9.585   8.872   2.122 -0.5219  0.2816  0.8023
  628MOL0     H84729   9.750   8.739   2.347  2.0296  3.3711  4.0961
  628MOL0     H84730   9.627   8.857   2.374 -0.0208 -1.0192  0.1821
  628MOL0     H84731   9.685   9.085   2.220 -0.2890 -0.1203 -0.6188
  628MOL0     H84732   9.877   9.293   2.299  2.9880  2.1167  1.1454
  628MOL0     H84733  10.045   9.240   2.252  0.3455 -5.8020 -1.4618
  628MOL0     H84734   9.803   9.275   2.075 -0.2598 -2.8274 -0.1014
  628MOL0     H84735   9.947   9.192   2.016 -1.7786 -1.1600 -0.9365
  628MOL0     H84736  10.089   9.391   2.029 -0.5930 -1.0243  0.5128
  628MOL0     H84737   9.985   9.486   2.130  3.9149  1.0346  0.5204
  628MOL0     H84738   9.877   9.421   1.849 -3.8922  2.2351  0.6837
  628MOL0     H84739  10.014   9.529   1.878  2.0577 -1.0860  1.6245
  628MOL0     H84740   9.881   9.626   1.711  0.6122  0.0153  1.2026
  628MOL0     H84741   9.913   9.918   1.502  2.5939  0.1207  2.5527
  628MOL0     H84742   9.966   9.754   1.530 -0.5555 -0.3892 -2.2642
  628MOL0     H84743   9.807   9.778   1.463  0.3841 -1.3763  0.9982
  628MOL0     H84744   9.822  10.261   1.536  3.0191 -1.2291 -1.6933
  628MOL0     H84745   9.841  10.418   1.349  0.9280 -0.2636  0.5555
  628MOL0     H84746   9.816  10.516   0.994  2.8977  0.0755  0.1811
  628MOL0     H84747   9.846  10.527   1.163  1.3566  1.0911  0.0631
  628MOL0     H84748   9.956  10.292   1.145  0.2012 -1.7043 -0.6137
  628MOL0     H84749   9.875  10.272   0.988  0.7979  0.5594 -1.0418
  628MOL0     H84750  10.069  10.492   1.053 -0.3113  0.6342  0.5738
  628MOL0     H84751   9.998  10.481   0.899 -1.6694  1.9305  1.3150
  628MOL0     H84752  10.194  10.272   0.995  3.2077 -0.7054 -2.2841
  628MOL0     H84753  10.115  10.287   0.830  2.7001 -0.9060 -0.5124
  628MOL0     H84754  10.351  10.348   0.872 -1.4444 -0.8465 -3.5695
  628MOL0     H84755  10.298  10.482   0.974 -1.9692 -1.2387  2.0420
  628MOL0     H84756  10.251  10.417   0.674 -3.6695 -1.0179  1.6471
  628MOL0     H84757  10.187  10.565   0.752  1.4140  1.4222 -2.5371
  628MOL0     H84758  10.494  10.517   0.727 -0.1862  0.4970  2.1173
  628MOL0     H84759  10.399  10.654   0.793 -2.5996  2.5665 -2.6023
  628MOL0     H84760  10.448  10.720   0.569  2.1517 -1.3409  2.6074
  628MOL0     H84761  10.285  10.645   0.533 -0.0123  0.1538  0.5479
  628MOL0     H84762   9.509  10.196   1.157  0.9473 -0.2782 -2.1405
  628MOL0     H84763   9.514  10.046   1.348 -2.8158  2.4544 -0.2463
  628MOL0     H84764   9.648  10.009   1.936 -2.5282 -1.1852 -0.8739
  628MOL0     H84765   9.694   9.806   2.050 -1.2639 -0.1548 -0.1864
  628MOL0     H84766   9.177   7.911   2.452  2.8241  0.1787  0.1227
  628MOL0     H84767   9.115   7.703   2.300  0.4665 -0.6392 -0.6748
  628MOL0     H84768   8.883   7.544   2.004  0.6168  3.1834 -0.7301
  628MOL0     H84769   8.749   7.379   1.862 -1.6364  1.6664 -1.6315
  628MOL0     H84770   8.716   7.463   1.498  0.1081 -1.3366  1.1745
  628MOL0     H84771   8.847   7.362   1.433  0.5577 -0.3086  0.5269
  628MOL0     H84772   8.658   7.179   1.513 -1.9173 -1.2015 -2.0002
  628MOL0     H84773   8.647   7.257   1.340 -0.8895  3.5379 -0.7371
  628MOL0     H84774   8.489   7.391   1.395 -0.1600 -0.2137 -0.1758
  628MOL0     H84775   8.521   7.382   1.573  1.1240 -0.1304 -0.2355
  628MOL0     H84776   8.403   7.174   1.574 -3.7976  0.7998  1.3626
  628MOL0     H84777   8.413   7.156   1.397  0.0509  1.5130 -1.1195
  628MOL0     H84778   8.058   7.379   1.443 -0.1025  1.6504  3.5939
  628MOL0     H84779   8.983   7.466   1.536  0.7080 -2.6000  0.0632
  628MOL0     H84780   9.136   7.615   1.660 -1.5997  3.2658  0.4700
  629MOL0     O84781   1.163   5.539   7.189  0.1287  0.3686  0.3245
  629MOL0     C84782   1.137   5.653   7.218  0.2674  0.0188 -0.3202
  629MOL0     O84783   1.121   5.760   7.126  0.2247  0.1588  0.1359
  629MOL0     C84784   1.144   5.735   6.991  0.2594 -0.3387  0.2426
  629MOL0     C84785   1.251   5.656   6.936 -0.1338 -1.0558 -0.5710
  629MOL0     C84786   1.280   5.651   6.797 -0.2311  0.1299  0.3126
  629MOL0     C84787   1.193   5.711   6.713  0.3816 -0.0613  0.5043
  629MOL0     O84788   1.218   5.680   6.583 -0.3189  0.9219 -0.3027
  629MOL0     C84789   1.128   5.707   6.484 -1.1599  0.0568  0.2373
  629MOL0     C84790   1.196   5.681   6.348  0.1574  0.5503 -0.1107
  629MOL0     C84791   1.312   5.776   6.325  1.0056  0.3820  0.0148
  629MOL0     C84792   1.414   5.709   6.233 -0.8618  0.8283 -0.5765
  629MOL0     C84793   1.382   5.719   6.083  0.2205  0.1404  0.7751
  629MOL0     C84794   1.402   5.861   6.039 -0.2121 -0.1648  0.2773
  629MOL0     C84795   1.372   5.856   5.887  0.5842 -0.2532 -0.0983
  629MOL0     C84796   1.382   5.992   5.824  0.8432 -0.2072 -0.1723
  629MOL0     N84797   1.351   5.993   5.683 -0.0125  0.9609  0.1314
  629MOL0     C84798   1.446   5.961   5.591  0.1177 -0.2122  0.7750
  629MOL0     C84799   1.397   6.014   5.475 -0.2402 -0.4977  0.2004
  629MOL0     C84800   1.458   6.014   5.339  0.5269 -0.3819  0.3706
  629MOL0     C84801   1.601   6.083   5.342 -0.4482  1.0134  0.0825
  629MOL0     C84802   1.685   6.080   5.218  0.9333  0.5035  1.0706
  629MOL0     C84803   1.817   6.156   5.234 -0.7129  0.0537  0.5026
  629MOL0     O84804   1.902   6.136   5.115  0.0039  0.2246 -0.3627
  629MOL0     C84805   1.885   6.219   5.007 -0.1641 -1.1243 -0.0148
  629MOL0     C84806   1.788   6.319   4.996 -0.2316  0.5800  0.5506
  629MOL0     C84807   1.781   6.397   4.875  0.8041 -0.4354 -0.2273
  629MOL0     C84808   1.664   6.480   4.864  0.2166 -0.2605  0.5056
  629MOL0     C84809   1.882   6.393   4.772 -0.4349 -0.3497 -0.3818
  629MOL0     C84810   1.901   6.470   4.648 -0.3802 -0.0885 -1.0370
  629MOL0     O84811   1.962   6.414   4.553 -0.1388  0.1867 -0.0497
  629MOL0     C84812   1.890   6.422   4.438 -0.0300 -0.2484  0.9874
  629MOL0     C84813   1.949   6.473   4.327 -0.7254 -0.3295  0.0680
  629MOL0     C84814   1.876   6.488   4.210 -0.3095  0.5402 -0.4525
  629MOL0     C84815   1.744   6.440   4.205  0.9137 -0.0032  0.7865
  629MOL0     O84816   1.653   6.470   4.101  1.0065  0.3787 -0.6122
  629MOL0     C84817   1.712   6.513   3.973 -0.5027  0.3611 -0.1027
  629MOL0     C84818   1.601   6.538   3.870  0.9584 -0.4270 -0.4026
  629MOL0     C84819   1.640   6.528   3.721 -0.5019  0.8392  0.4859
  629MOL0     C84820   1.720   6.652   3.676 -0.5159 -0.3806 -0.1199
  629MOL0     C84821   1.738   6.664   3.524  0.8194 -0.1267  0.1902
  629MOL0     C84822   1.870   6.599   3.480  0.1773 -0.3858 -0.8340
  629MOL0     C84823   1.879   6.553   3.337 -0.3580 -0.8045  0.3256
  629MOL0     C84824   1.864   6.397   3.312  0.3017 -0.3614  0.6870
  629MOL0    Cl84825   1.710   6.330   3.388  0.2630 -0.2324  0.2245
  629MOL0     C84826   1.684   6.376   4.314  0.2749  0.0009 -0.3394
  629MOL0     C84827   1.756   6.369   4.432  0.4180  0.2931 -0.2614
  629MOL0     O84828   1.848   6.577   4.648  0.4346  0.0265 -0.6246
  629MOL0     C84829   1.982   6.295   4.791 -0.5766  0.0841  1.0144
  629MOL0     C84830   1.983   6.211   4.901 -0.2231  0.1545 -0.0620
  629MOL0     N84831   1.277   6.067   5.505 -0.7332  0.5346  0.2595
  629MOL0     N84832   1.245   6.055   5.625 -0.6969  0.3101 -0.1609
  629MOL0     C84833   1.073   5.772   6.759 -0.7188 -0.0853 -0.0441
  629MOL0     C84834   1.058   5.789   6.901  0.1172  0.7298 -0.1988
  629MOL0     C84835   1.130   5.683   7.361  0.0156 -0.5505  0.3320
  629MOL0     C84836   1.158   5.816   7.405  0.6496 -0.7826 -0.3602
  629MOL0     C84837   1.165   5.855   7.542  0.3925 -0.4038 -0.8934
  629MOL0     C84838   1.153   5.755   7.640  0.2466 -0.5148  0.5033
  629MOL0     O84839   1.172   5.788   7.768  1.1633  0.0909  0.2304
  629MOL0     C84840   1.049   5.830   7.842 -0.2444  0.9959 -0.3592
  629MOL0     C84841   1.000   5.965   7.813 -0.0523 -0.7217 -0.2743
  629MOL0     C84842   0.892   6.032   7.903  0.0758 -0.7012 -0.1427
  629MOL0     C84843   0.955   6.094   8.031  0.8186  0.4207 -0.8697
  629MOL0     C84844   0.862   6.159   8.121 -0.6245  1.2011  0.0620
  629MOL0     C84845   0.788   6.190   8.206  0.4615  0.0999 -0.2568
  629MOL0     C84846   1.132   5.621   7.602 -0.3628  0.7112 -0.7745
  629MOL0     C84847   1.119   5.582   7.467 -0.7837  0.9714  0.0731
  629MOL0     H84848   1.316   5.617   7.014 -0.3594 -0.9327 -0.3190
  629MOL0     H84849   1.363   5.595   6.757 -1.7417 -2.5913  0.7142
  629MOL0     H84850   1.042   5.642   6.501 -0.3594 -1.9990 -2.7620
  629MOL0     H84851   1.093   5.811   6.490  2.2591  1.5073 -1.9383
  629MOL0     H84852   1.235   5.578   6.355  0.5250  0.7047  0.1700
  629MOL0     H84853   1.123   5.684   6.267 -1.5992 -2.0803  1.2192
  629MOL0     H84854   1.259   5.865   6.290  0.2932  0.6125  1.5812
  629MOL0     H84855   1.363   5.795   6.420 -1.7336  0.4320  1.5729
  629MOL0     H84856   1.510   5.757   6.252 -1.4300  0.9968  2.3458
  629MOL0     H84857   1.439   5.607   6.262  2.9916 -0.1889 -5.8586
  629MOL0     H84858   1.447   5.656   6.023 -2.1650  0.7507 -2.7591
  629MOL0     H84859   1.280   5.688   6.057 -0.8997  2.9652  1.4594
  629MOL0     H84860   1.341   5.939   6.086  0.3891  0.5461 -0.1021
  629MOL0     H84861   1.502   5.900   6.059 -0.5825  2.0192 -1.6714
  629MOL0     H84862   1.446   5.792   5.838  0.9028  0.2907 -0.3339
  629MOL0     H84863   1.266   5.828   5.886 -0.0038  1.8204 -1.1317
  629MOL0     H84864   1.481   6.034   5.843  0.8716 -0.3917  0.1031
  629MOL0     H84865   1.300   6.053   5.864  1.7058  0.0583  1.2576
  629MOL0     H84866   1.540   5.911   5.612  0.8552  0.6307 -0.3904
  629MOL0     H84867   1.469   5.911   5.302  0.2690  0.1244 -1.1669
  629MOL0     H84868   1.397   6.054   5.258 -0.9170  0.7500  1.9599
  629MOL0     H84869   1.664   6.033   5.416  1.4023  3.7058  0.4805
  629MOL0     H84870   1.584   6.187   5.370  2.8083  2.1892 -1.8275
  629MOL0     H84871   1.613   6.099   5.137 -1.1642 -2.8824  1.9416
  629MOL0     H84872   1.703   5.973   5.203 -0.0688  0.4384  0.2594
  629MOL0     H84873   1.872   6.125   5.323  0.0384  5.2539  2.1590
  629MOL0     H84874   1.806   6.263   5.252  1.8394  0.5716 -0.5746
  629MOL0     H84875   1.723   6.347   5.079 -0.1577  1.7833  0.2288
  629MOL0     H84876   1.671   6.575   4.918 -3.0437 -0.2777  1.1594
  629MOL0     H84877   1.651   6.508   4.759  1.2287  1.8397  0.8687
  629MOL0     H84878   1.578   6.427   4.906 -0.7929  1.1573  0.2925
  629MOL0     H84879   2.050   6.513   4.331 -0.0138 -2.0578  0.5569
  629MOL0     H84880   1.922   6.539   4.127  2.3150  0.3563  0.7866
  629MOL0     H84881   1.770   6.603   3.993 -0.6634  0.3037  0.6535
  629MOL0     H84882   1.784   6.440   3.934  0.5225  0.7390  1.0131
  629MOL0     H84883   1.522   6.467   3.894  1.0091  0.3805  2.5228
  629MOL0     H84884   1.572   6.642   3.887  2.8184 -0.3120  2.9651
  629MOL0     H84885   1.545   6.535   3.666  0.8334 -0.6117 -2.1665
  629MOL0     H84886   1.693   6.434   3.709  1.7718  1.6870  2.9285
  629MOL0     H84887   1.652   6.737   3.690  1.0245  1.3927 -2.5935
  629MOL0     H84888   1.812   6.673   3.731  0.4482  2.8289 -2.6404
  629MOL0     H84889   1.752   6.770   3.504  1.5331 -0.5558 -1.8095
  629MOL0     H84890   1.646   6.630   3.475  0.3473  1.1769  0.1273
  629MOL0     H84891   1.950   6.665   3.513 -1.4328  0.8737  0.7459
  629MOL0     H84892   1.877   6.507   3.540 -0.9293 -1.7473 -2.6708
  629MOL0     H84893   1.977   6.584   3.300  1.4116 -2.6898  3.1632
  629MOL0     H84894   1.815   6.606   3.265  0.4512 -0.5340 -0.2115
  629MOL0     H84895   1.954   6.351   3.353  0.5955  0.6210  1.1697
  629MOL0     H84896   1.871   6.377   3.205 -4.6023 -1.5708  0.3276
  629MOL0     H84897   1.587   6.327   4.314 -0.0597  0.6526 -0.2313
  629MOL0     H84898   1.707   6.318   4.514  0.9071 -3.2026 -1.9722
  629MOL0     H84899   2.067   6.273   4.727  0.3992 -0.5184  2.4641
  629MOL0     H84900   2.047   6.123   4.902 -0.3042  0.0954 -0.0536
  629MOL0     H84901   0.999   5.825   6.699  0.7087  2.7019  0.4860
  629MOL0     H84902   0.966   5.834   6.937 -0.9956 -2.5850  1.5593
  629MOL0     H84903   1.153   5.897   7.333 -1.8748 -1.0880 -0.6097
  629MOL0     H84904   1.190   5.954   7.577  2.8655 -0.3789 -2.5431
  629MOL0     H84905   0.972   5.758   7.814 -0.8917  1.7639 -0.5988
  629MOL0     H84906   1.069   5.825   7.950  1.6321  1.5213 -0.6426
  629MOL0     H84907   0.959   5.961   7.711 -0.6377 -0.7452 -0.0422
  629MOL0     H84908   1.083   6.036   7.803  0.6748 -1.8673 -4.1978
  629MOL0     H84909   0.819   5.954   7.926 -1.1816 -0.1694 -2.0691
  629MOL0     H84910   0.835   6.111   7.855 -2.1981 -1.0694  1.7835
  629MOL0     H84911   1.031   6.169   8.006  0.7088  0.9106  0.2497
  629MOL0     H84912   0.984   6.005   8.089 -2.4068  0.9802  1.8404
  629MOL0     H84913   0.717   6.193   8.286  2.6388  0.7191  1.7824
  629MOL0     H84914   1.136   5.547   7.682  2.6931  1.6068  0.0541
  629MOL0     H84915   1.093   5.482   7.436 -1.9056  1.9829 -2.5315
  630MOL0     O84916   2.491   2.818   6.830 -0.0455 -0.3879 -0.0898
  630MOL0     C84917   2.479   2.775   6.712 -0.0421  0.2218 -0.6302
  630MOL0     O84918   2.458   2.640   6.670 -1.4471  0.3335 -0.3608
  630MOL0     C84919   2.461   2.554   6.777  0.1832  0.0414  0.2661
  630MOL0     C84920   2.583   2.505   6.825  1.4279 -0.1007  0.3837
  630MOL0     C84921   2.580   2.411   6.932 -0.1612  0.3008  0.0439
  630MOL0     C84922   2.460   2.391   7.005 -0.3225  0.1534  1.7716
  630MOL0     O84923   2.449   2.306   7.107  0.2459 -0.1735  0.0405
  630MOL0     C84924   2.485   2.172   7.087  0.3426  0.3242 -0.1926
  630MOL0     C84925   2.467   2.091   7.217  0.1836  0.2377 -0.0740
  630MOL0     C84926   2.558   2.146   7.324 -0.9309 -0.2750 -0.0828
  630MOL0     C84927   2.572   2.040   7.439  0.0753 -0.2247  0.1808
  630MOL0     C84928   2.637   2.100   7.552 -0.5460  0.3077 -0.0194
  630MOL0     C84929   2.635   1.991   7.654  0.4675  0.6651  0.5495
  630MOL0     C84930   2.719   2.035   7.775  0.4733  0.4980  0.1844
  630MOL0     C84931   2.759   1.924   7.871 -0.3259 -0.3516 -0.3981
  630MOL0     N84932   2.799   1.982   7.999  0.0158 -0.4100  0.4410
  630MOL0     C84933   2.817   1.902   8.102  0.2232  0.2454 -0.7485
  630MOL0     C84934   2.862   1.981   8.197 -0.4633 -0.3662 -0.2201
  630MOL0     C84935   2.914   1.933   8.325  0.1378 -0.5208 -0.3622
  630MOL0     C84936   2.846   1.993   8.447  0.1386  0.2127 -0.4002
  630MOL0     C84937   2.692   1.991   8.448 -0.1283 -0.3936  0.4203
  630MOL0     C84938   2.635   2.058   8.568 -0.1569 -0.8190 -0.2547
  630MOL0     O84939   2.651   1.974   8.683 -0.7550  0.7277  0.8063
  630MOL0     C84940   2.579   1.995   8.791 -0.1891  0.5466 -0.1751
  630MOL0     C84941   2.608   1.907   8.900  0.0362 -0.8781  0.3821
  630MOL0     C84942   2.545   1.930   9.023  0.3251 -0.0183  0.5137
  630MOL0     C84943   2.580   1.837   9.128 -0.0946  1.2765  0.7265
  630MOL0     C84944   2.464   2.036   9.040 -0.1457 -0.8028 -0.2220
  630MOL0     C84945   2.393   2.065   9.164  0.7479 -0.5971  1.0479
  630MOL0     O84946   2.449   2.159   9.243  0.0695 -0.1153 -0.3695
  630MOL0     C84947   2.374   2.176   9.358  0.0712  0.8201  0.6544
  630MOL0     C84948   2.362   2.079   9.459  0.5308 -0.0187 -0.2335
  630MOL0     C84949   2.283   2.095   9.569  0.3819 -0.6157  0.6613
  630MOL0     C84950   2.215   2.222   9.586 -1.0584  0.5041 -0.1719
  630MOL0     O84951   2.134   2.229   9.697 -0.5172  0.3978  0.7263
  630MOL0     C84952   2.153   2.338   9.783  0.1297 -0.5776 -0.6514
  630MOL0     C84953   2.172   2.307   9.934  0.2175  0.4261  0.8839
  630MOL0     C84954   2.119   2.417  10.028  0.5417 -1.2879 -0.5108
  630MOL0     C84955   2.184   2.397  10.169 -0.3539 -0.4727  0.6209
  630MOL0     C84956   2.175   2.531  10.255 -0.6157 -0.1234  0.6768
  630MOL0     C84957   2.236   2.522  10.392  0.8975 -0.2700  0.0462
  630MOL0     C84958   2.234   2.655  10.465 -1.1080  0.2166  0.5574
  630MOL0     C84959   2.337   2.639  10.575 -0.3978 -0.3368 -0.0051
  630MOL0    Cl84960   2.317   2.764  10.696 -0.0542  0.4675 -0.2864
  630MOL0     C84961   2.232   2.325   9.487  0.6462  0.6283 -0.4295
  630MOL0     C84962   2.301   2.297   9.370 -0.6975  1.0416  0.3698
  630MOL0     O84963   2.274   2.022   9.174 -0.3050  0.0883  0.8848
  630MOL0     C84964   2.435   2.121   8.935  0.1710  0.5557  0.4115
  630MOL0     C84965   2.491   2.101   8.810 -0.1757 -0.3290  1.0260
  630MOL0     N84966   2.866   2.111   8.148  0.1002  0.5639 -0.8390
  630MOL0     N84967   2.837   2.110   8.019 -0.7764  0.0294 -0.5195
  630MOL0     C84968   2.344   2.456   6.977 -0.6744 -0.4107 -0.4971
  630MOL0     C84969   2.347   2.534   6.859 -0.1303 -0.2473 -0.0026
  630MOL0     C84970   2.481   2.874   6.606 -0.6988  0.0194 -1.1916
  630MOL0     C84971   2.466   2.839   6.478 -0.4199 -0.9054  0.5003
  630MOL0     C84972   2.460   2.937   6.370  0.1763  0.5922  0.2892
  630MOL0     C84973   2.488   3.078   6.392 -0.2702  0.3866  0.3503
  630MOL0     O84974   2.511   3.149   6.282 -0.1354 -0.9621  0.8275
  630MOL0     C84975   2.574   3.283   6.293 -0.0991 -0.0281  0.8544
  630MOL0     C84976   2.722   3.267   6.330  0.4049 -0.4494  0.3281
  630MOL0     C84977   2.811   3.388   6.297  0.8134  0.1095 -0.4025
  630MOL0     C84978   2.953   3.332   6.324  0.5740 -0.4345  0.3483
  630MOL0     C84979   3.052   3.432   6.301  0.1737 -0.1394 -1.1399
  630MOL0     C84980   3.127   3.523   6.284 -0.0304  0.5510  0.6772
  630MOL0     C84981   2.508   3.112   6.518  0.3286  0.6303 -0.8351
  630MOL0     C84982   2.502   3.019   6.627  0.6326 -0.2839  0.5124
  630MOL0     H84983   2.678   2.533   6.780  1.7812  1.3604  1.9216
  630MOL0     H84984   2.680   2.382   6.965  0.0426  0.6655 -0.2448
  630MOL0     H84985   2.426   2.120   7.011  0.0758  1.5802 -0.8702
  630MOL0     H84986   2.588   2.174   7.048  1.1732  1.4078  1.8827
  630MOL0     H84987   2.362   2.081   7.246 -0.7170  2.6394 -2.1525
  630MOL0     H84988   2.495   1.987   7.195  0.1427 -0.3802  2.4799
  630MOL0     H84989   2.657   2.182   7.297 -0.1858  1.1155  3.8508
  630MOL0     H84990   2.495   2.231   7.353  0.3684 -0.0930  2.5776
  630MOL0     H84991   2.475   1.993   7.457 -0.2456 -0.9524 -2.9056
  630MOL0     H84992   2.641   1.967   7.396  3.1616  2.5990 -0.0629
  630MOL0     H84993   2.742   2.123   7.533  0.6367 -4.1342  0.0539
  630MOL0     H84994   2.588   2.194   7.577  2.3952  2.1294 -0.5973
  630MOL0     H84995   2.534   1.971   7.692  0.0478  2.3884  0.4518
  630MOL0     H84996   2.673   1.900   7.606 -0.5437 -0.6004  2.0541
  630MOL0     H84997   2.808   2.079   7.729  0.2213  0.5700 -0.2376
  630MOL0     H84998   2.671   2.116   7.831  2.6382 -0.2158  3.3894
  630MOL0     H84999   2.849   1.869   7.846 -0.6083 -0.7198 -0.6109
  630MOL0     H85000   2.678   1.851   7.879  0.4409 -1.3227 -1.3621
  630MOL0     H85001   2.813   1.796   8.124  2.0978  0.1603 -0.7341
  630MOL0     H85002   2.900   1.824   8.334 -1.2330 -0.3288  0.0602
  630MOL0     H85003   3.019   1.958   8.344 -0.4942  1.6238  0.5315
  630MOL0     H85004   2.881   2.096   8.459  1.3838 -0.2321 -0.1187
  630MOL0     H85005   2.881   1.941   8.537  0.4225 -0.5740 -0.9607
  630MOL0     H85006   2.658   1.888   8.432  1.5904 -0.6723 -2.0366
  630MOL0     H85007   2.667   2.044   8.355  3.0003 -2.1636 -1.5862
  630MOL0     H85008   2.532   2.081   8.542 -1.2355 -2.9190  1.7818
  630MOL0     H85009   2.693   2.148   8.590 -2.9385  1.5121 -1.9068
  630MOL0     H85010   2.682   1.828   8.894  0.6478 -0.1760 -2.7935
  630MOL0     H85011   2.687   1.823   9.144 -0.3681 -0.4416  1.3512
  630MOL0     H85012   2.544   1.869   9.226  0.6222  2.5680  0.5912
  630MOL0     H85013   2.536   1.737   9.119  4.5510 -1.1090  1.2498
  630MOL0     H85014   2.414   1.985   9.441  0.2212 -0.8190  2.5735
  630MOL0     H85015   2.269   2.004   9.627 -0.0275 -2.0059 -1.5167
  630MOL0     H85016   2.249   2.386   9.760  1.1534 -1.2889  1.8411
  630MOL0     H85017   2.075   2.413   9.765 -0.1847 -1.6479 -4.9057
  630MOL0     H85018   2.109   2.225   9.968  1.1639 -0.1149  1.3655
  630MOL0     H85019   2.277   2.281   9.947  0.6935  1.4939 -0.4768
  630MOL0     H85020   2.012   2.423  10.046  0.3249  2.0328 -2.1672
  630MOL0     H85021   2.151   2.509   9.978  2.5258 -2.2858 -1.1915
  630MOL0     H85022   2.141   2.312  10.222 -1.6434  0.4828  1.1513
  630MOL0     H85023   2.288   2.374  10.142 -0.2232  0.5710  0.2062
  630MOL0     H85024   2.070   2.562  10.266 -1.1620 -0.6271 -2.3735
  630MOL0     H85025   2.226   2.608  10.198  1.2952  0.3702  2.9134
  630MOL0     H85026   2.170   2.452  10.444 -0.0677 -0.0931 -0.9150
  630MOL0     H85027   2.332   2.469  10.393 -0.6418 -3.3049  2.4378
  630MOL0     H85028   2.141   2.687  10.512 -0.2053  0.2353  2.4246
  630MOL0     H85029   2.265   2.727  10.388  0.8164 -0.8995  0.2126
  630MOL0     H85030   2.438   2.638  10.532 -0.8726  1.4169 -1.2822
  630MOL0     H85031   2.320   2.542  10.623 -0.3623  0.5830  1.9761
  630MOL0     H85032   2.207   2.429   9.505 -0.2892  0.6081 -1.4733
  630MOL0     H85033   2.327   2.360   9.285  1.6663  0.2586  0.4316
  630MOL0     H85034   2.369   2.204   8.958 -0.1442  0.2559  0.5974
  630MOL0     H85035   2.456   2.176   8.739 -3.7272 -1.7363  1.0895
  630MOL0     H85036   2.249   2.441   7.028  0.7619  3.8410  4.3536
  630MOL0     H85037   2.255   2.570   6.814 -0.4091 -1.9571 -0.9155
  630MOL0     H85038   2.446   2.738   6.445 -0.9786 -0.6252 -0.0395
  630MOL0     H85039   2.442   2.904   6.268 -1.6350 -3.5552  1.7585
  630MOL0     H85040   2.569   3.326   6.193 -1.1792 -1.0396  0.4493
  630MOL0     H85041   2.527   3.350   6.365  1.4048  3.1355 -0.8955
  630MOL0     H85042   2.755   3.173   6.286  0.0909 -0.7564  0.7349
  630MOL0     H85043   2.725   3.255   6.439 -2.5101  1.3922  0.7296
  630MOL0     H85044   2.786   3.482   6.348 -3.1850  0.4772 -2.6090
  630MOL0     H85045   2.798   3.408   6.190 -2.9299 -1.1895 -0.3595
  630MOL0     H85046   2.955   3.237   6.270 -3.1077  0.1406 -1.1109
  630MOL0     H85047   2.949   3.318   6.432 -0.5074 -1.3698  0.2043
  630MOL0     H85048   3.190   3.607   6.263  0.3787  0.0458 -0.1484
  630MOL0     H85049   2.524   3.216   6.545 -1.3328  0.5647  0.5669
  630MOL0     H85050   2.519   3.055   6.728  2.3567 -2.0861  0.9206
  631MOL0     O85051   7.773   5.469   7.568 -1.0004  0.4929  0.2503
  631MOL0     C85052   7.767   5.405   7.671  0.1703  0.2359  0.2752
  631MOL0     O85053   7.808   5.276   7.683 -0.1585  0.4715  0.0723
  631MOL0     C85054   7.896   5.207   7.599  0.3592 -0.3188 -0.1015
  631MOL0     C85055   7.870   5.071   7.591  0.3514  0.7241 -0.3519
  631MOL0     C85056   7.952   4.986   7.520  0.1418 -0.0064 -0.0815
  631MOL0     C85057   8.065   5.036   7.438  1.0593  0.6257 -0.5320
  631MOL0     O85058   8.130   4.946   7.364  0.0671 -0.7333  0.1418
  631MOL0     C85059   8.257   4.967   7.299 -0.3958  0.7283  0.4464
  631MOL0     C85060   8.362   4.972   7.415  1.3641 -0.7095  0.4735
  631MOL0     C85061   8.497   4.968   7.356 -0.0054 -0.2604 -0.8159
  631MOL0     C85062   8.609   5.015   7.458 -1.6217  0.9204 -0.0516
  631MOL0     C85063   8.658   4.908   7.555  0.0455 -0.1472 -0.7027
  631MOL0     C85064   8.772   4.828   7.499 -0.6065 -0.0215  0.2606
  631MOL0     C85065   8.829   4.722   7.601  0.2199  0.1578 -0.5268
  631MOL0     C85066   8.917   4.622   7.533  0.1187 -0.3319  0.4868
  631MOL0     N85067   9.032   4.681   7.470 -1.3585 -0.5907  0.3920
  631MOL0     C85068   9.088   4.620   7.356  0.5973 -0.6782  0.1636
  631MOL0     C85069   9.208   4.673   7.348 -1.0709  0.1579 -0.4344
  631MOL0     C85070   9.307   4.657   7.235  0.3802  0.7134  0.3596
  631MOL0     C85071   9.247   4.691   7.089  0.1066  0.0902  0.3276
  631MOL0     C85072   9.246   4.844   7.068  0.2720  0.0893 -0.9258
  631MOL0     C85073   9.155   4.927   7.169 -0.1198 -0.3992  1.1439
  631MOL0     O85074   9.153   5.067   7.127 -0.0512  0.1628 -0.2992
  631MOL0     C85075   9.093   5.163   7.201 -0.8066 -0.2102 -0.0855
  631MOL0     C85076   9.059   5.285   7.141 -0.3272 -0.1477  0.1098
  631MOL0     C85077   8.988   5.377   7.219 -0.1416  0.6084  0.3185
  631MOL0     C85078   8.955   5.507   7.148 -1.1144  0.5340  0.2527
  631MOL0     C85079   8.957   5.355   7.357  0.0454 -0.4371  0.1219
  631MOL0     C85080   8.886   5.448   7.442  0.1134  0.4701  0.3267
  631MOL0     O85081   8.816   5.539   7.379  0.4232  1.3966 -0.3289
  631MOL0     C85082   8.736   5.625   7.447  0.5208 -0.2948 -0.0674
  631MOL0     C85083   8.764   5.761   7.458 -0.4769  0.5850  0.1547
  631MOL0     C85084   8.686   5.846   7.533 -0.0283 -0.1280 -0.4954
  631MOL0     C85085   8.576   5.792   7.610 -0.0015 -0.3256 -0.8964
  631MOL0     O85086   8.504   5.878   7.692  0.1681 -0.4047  0.6770
  631MOL0     C85087   8.360   5.859   7.700 -0.1075 -0.6905  0.1426
  631MOL0     C85088   8.294   5.986   7.753 -0.4737 -0.2719  0.2503
  631MOL0     C85089   8.314   5.993   7.897  0.6518  0.7991 -0.3699
  631MOL0     C85090   8.277   6.122   7.974 -0.0996  0.4015  0.8678
  631MOL0     C85091   8.293   6.099   8.127 -0.2037  0.0212  0.5231
  631MOL0     C85092   8.223   6.194   8.217  0.4967 -0.0397  0.7997
  631MOL0     C85093   8.267   6.345   8.172 -0.7075 -0.0220 -0.8891
  631MOL0     C85094   8.256   6.434   8.301 -0.0118 -0.1487  0.1046
  631MOL0    Cl85095   8.336   6.365   8.454  0.0799 -0.5124  0.4024
  631MOL0     C85096   8.555   5.652   7.618  0.4741  0.2289 -0.2660
  631MOL0     C85097   8.631   5.575   7.530 -0.1344  0.3330  0.6065
  631MOL0     O85098   8.890   5.428   7.566  0.6077 -0.1837  0.1852
  631MOL0     C85099   8.998   5.234   7.412  0.0900  1.7588 -0.0576
  631MOL0     C85100   9.060   5.142   7.338 -0.3903 -0.3265 -0.0234
  631MOL0     N85101   9.245   4.754   7.448  0.5089 -0.1581 -0.1846
  631MOL0     N85102   9.136   4.758   7.525  0.9386  0.6527  0.5333
  631MOL0     C85103   8.081   5.173   7.437  0.5437 -0.7102  0.3633
  631MOL0     C85104   8.006   5.261   7.522  0.2643 -0.6982 -0.1063
  631MOL0     C85105   7.699   5.466   7.792 -0.0083  0.6845  0.0491
  631MOL0     C85106   7.682   5.418   7.922  0.4906 -0.9355  0.4808
  631MOL0     C85107   7.618   5.493   8.021  1.2521 -0.4781 -0.3622
  631MOL0     C85108   7.554   5.619   7.988  0.1904 -0.3434 -0.1339
  631MOL0     O85109   7.495   5.703   8.072 -0.2405  0.4762  0.1706
  631MOL0     C85110   7.481   5.664   8.215  0.0194  0.6780  0.4843
  631MOL0     C85111   7.607   5.700   8.295  0.0635 -0.0361 -0.0831
  631MOL0     C85112   7.616   5.641   8.431  0.9942  0.2054 -0.4840
  631MOL0     C85113   7.770   5.636   8.478  0.3252 -0.3003  0.0311
  631MOL0     C85114   7.788   5.584   8.617 -0.7754 -0.4741  0.7215
  631MOL0     C85115   7.829   5.558   8.725  0.6381  0.1725 -0.3406
  631MOL0     C85116   7.544   5.648   7.849  0.1694  0.7267 -0.8767
  631MOL0     C85117   7.626   5.579   7.763 -0.0883 -0.4768  0.2340
  631MOL0     H85118   7.783   5.047   7.652  1.1980  3.8876  2.4031
  631MOL0     H85119   7.927   4.881   7.512  2.2977 -0.8347  2.4301
  631MOL0     H85120   8.281   4.885   7.230 -2.5414  0.6202 -0.2416
  631MOL0     H85121   8.253   5.061   7.244  1.1580  1.5843  1.7371
  631MOL0     H85122   8.344   5.052   7.487  2.0088 -0.1627  0.0393
  631MOL0     H85123   8.356   4.880   7.473 -2.3778 -0.2452  1.0928
  631MOL0     H85124   8.513   4.868   7.316 -1.3573 -1.3282  1.1636
  631MOL0     H85125   8.496   5.038   7.272 -0.6884 -1.9216 -2.2578
  631MOL0     H85126   8.697   5.042   7.399 -1.6073  0.3017 -0.3317
  631MOL0     H85127   8.572   5.099   7.517 -3.2270  0.4441 -0.3223
  631MOL0     H85128   8.690   4.954   7.649  0.7798 -0.3335 -0.8568
  631MOL0     H85129   8.569   4.848   7.578  0.0956 -0.3001 -0.9025
  631MOL0     H85130   8.742   4.777   7.406 -1.1048  2.6250 -1.1174
  631MOL0     H85131   8.854   4.895   7.473 -1.3112  1.3487  1.4861
  631MOL0     H85132   8.880   4.780   7.679 -1.0848  0.7722 -0.1096
  631MOL0     H85133   8.746   4.667   7.647  0.0857 -1.0836 -2.1666
  631MOL0     H85134   8.850   4.568   7.465 -1.3933  1.9224  0.0692
  631MOL0     H85135   8.961   4.552   7.604 -2.3246 -1.9527  0.5229
  631MOL0     H85136   9.038   4.557   7.283 -2.1139  1.3152  0.1259
  631MOL0     H85137   9.393   4.721   7.255 -0.4155  2.1017 -0.5097
  631MOL0     H85138   9.346   4.555   7.239  1.7931  1.2709  1.4876
  631MOL0     H85139   9.144   4.652   7.088 -0.2179  0.7098  2.8176
  631MOL0     H85140   9.299   4.636   7.010 -0.5508  2.6749 -2.0520
  631MOL0     H85141   9.217   4.851   6.962 -1.5826 -0.7312 -0.5236
  631MOL0     H85142   9.348   4.882   7.076 -0.3334  1.8768 -1.2167
  631MOL0     H85143   9.196   4.923   7.271 -1.7131 -1.5285  1.7802
  631MOL0     H85144   9.054   4.888   7.185 -0.9996  1.8041  1.3626
  631MOL0     H85145   9.083   5.301   7.036  0.2806 -1.5100  0.0139
  631MOL0     H85146   9.038   5.527   7.080 -0.0765  0.4830  1.4807
  631MOL0     H85147   8.862   5.493   7.092 -0.8778  0.4371 -0.1218
  631MOL0     H85148   8.940   5.601   7.201 -4.5143 -0.1024  0.6712
  631MOL0     H85149   8.850   5.806   7.409 -1.5917  1.5729 -0.9681
  631MOL0     H85150   8.699   5.951   7.553 -0.6001 -0.4002  1.4964
  631MOL0     H85151   8.322   5.845   7.599 -0.3418  1.3703 -0.0955
  631MOL0     H85152   8.330   5.766   7.750 -1.0907 -0.3461  0.2132
  631MOL0     H85153   8.346   6.073   7.713  0.0508 -1.2808 -1.3780
  631MOL0     H85154   8.188   5.990   7.726  0.6360  2.3329 -4.9220
  631MOL0     H85155   8.413   5.976   7.940  0.0456 -1.3412  0.2741
  631MOL0     H85156   8.244   5.918   7.934  1.0481  1.7464  2.5072
  631MOL0     H85157   8.339   6.196   7.923  2.9630 -2.6798 -0.2315
  631MOL0     H85158   8.171   6.141   7.957 -0.2260  0.1168  1.3400
  631MOL0     H85159   8.397   6.113   8.158 -0.5931 -1.4988  2.7173
  631MOL0     H85160   8.255   5.998   8.146 -4.0182  1.2298  0.1021
  631MOL0     H85161   8.116   6.174   8.216  0.3335  0.6117 -1.5152
  631MOL0     H85162   8.246   6.167   8.320  1.0506 -1.6607  0.2985
  631MOL0     H85163   8.201   6.378   8.091 -0.2816 -1.7139 -1.9783
  631MOL0     H85164   8.368   6.359   8.132 -0.6991  1.6316 -0.3908
  631MOL0     H85165   8.151   6.457   8.322  0.0495  0.6812 -0.4446
  631MOL0     H85166   8.312   6.524   8.275  1.4764 -1.5312 -1.8217
  631MOL0     H85167   8.473   5.605   7.672  1.4088 -0.5146  0.5345
  631MOL0     H85168   8.623   5.467   7.532 -1.0452  0.2517 -2.4310
  631MOL0     H85169   8.992   5.221   7.520 -0.7616  1.1237 -0.1731
  631MOL0     H85170   9.086   5.051   7.392  0.0490 -0.6428 -0.7512
  631MOL0     H85171   8.151   5.210   7.362 -2.8233  0.9314 -2.2801
  631MOL0     H85172   8.002   5.369   7.510 -0.3392 -0.9544 -2.5804
  631MOL0     H85173   7.730   5.324   7.948  0.5998 -1.9274 -2.8121
  631MOL0     H85174   7.615   5.442   8.117  1.8536  3.3356  1.8625
  631MOL0     H85175   7.390   5.704   8.260 -0.1255  0.6475  0.2226
  631MOL0     H85176   7.473   5.555   8.210  2.6880  0.4691 -1.7613
  631MOL0     H85177   7.618   5.809   8.299  5.1399 -0.1885 -1.8094
  631MOL0     H85178   7.688   5.659   8.234 -2.0962 -1.6243 -2.0527
  631MOL0     H85179   7.564   5.546   8.450  1.1997  0.0402 -0.7391
  631MOL0     H85180   7.578   5.721   8.495  1.0301  1.2867 -1.7837
  631MOL0     H85181   7.802   5.740   8.483 -1.1954  0.1613  0.7298
  631MOL0     H85182   7.835   5.587   8.406  1.3833  2.5599 -1.1041
  631MOL0     H85183   7.833   5.552   8.831 -2.2745  0.6954 -0.1207
  631MOL0     H85184   7.503   5.738   7.804  3.2140  1.3910 -2.6129
  631MOL0     H85185   7.618   5.604   7.657  5.7907  0.6291 -0.2653
  632MOL0     O85186   0.974   7.635   4.732 -0.2506 -1.1130  0.1863
  632MOL0     C85187   0.946   7.655   4.612 -0.0525  0.1855 -0.7218
  632MOL0     O85188   0.956   7.559   4.515 -0.0671  0.7395 -0.7035
  632MOL0     C85189   0.958   7.429   4.557  0.2326  0.5534  0.1798
  632MOL0     C85190   1.082   7.359   4.599 -0.1675  0.3958 -1.0072
  632MOL0     C85191   1.080   7.226   4.638  1.0011  0.2450  0.0968
  632MOL0     C85192   0.964   7.154   4.632  0.7002 -0.0842  0.7556
  632MOL0     O85193   0.960   7.017   4.664 -0.2179  0.1615  0.5737
  632MOL0     C85194   0.878   6.985   4.769 -0.3211  0.4559 -0.6433
  632MOL0     C85195   0.765   6.906   4.713  0.8994  0.5777 -0.3703
  632MOL0     C85196   0.800   6.769   4.661 -0.6815  0.0755  0.3284
  632MOL0     C85197   0.673   6.692   4.637 -0.4067  1.0588  0.2918
  632MOL0     C85198   0.720   6.554   4.591  0.2525 -0.4363 -0.5724
  632MOL0     C85199   0.753   6.470   4.716  0.8440 -0.6364  0.9155
  632MOL0     C85200   0.733   6.323   4.698 -0.2628 -0.7637 -0.8251
  632MOL0     C85201   0.822   6.270   4.591  0.4757 -0.1841 -0.8773
  632MOL0     N85202   0.968   6.272   4.620  0.2866 -0.4232 -0.0220
  632MOL0     C85203   1.060   6.357   4.570 -0.0251  0.5604  0.1450
  632MOL0     C85204   1.173   6.333   4.640  0.2722  0.1392 -0.3147
  632MOL0     C85205   1.302   6.402   4.614  0.9234 -0.3919 -0.3343
  632MOL0     C85206   1.282   6.534   4.540 -0.5830  0.1657 -0.2923
  632MOL0     C85207   1.416   6.609   4.521  0.2736  1.1105 -0.2822
  632MOL0     C85208   1.376   6.754   4.482 -0.8532  0.7046  0.2712
  632MOL0     O85209   1.412   6.793   4.346 -0.9892 -0.1369 -0.1314
  632MOL0     C85210   1.542   6.805   4.305 -0.0386 -0.9157 -0.6281
  632MOL0     C85211   1.548   6.868   4.189 -1.1425  0.4267  0.1008
  632MOL0     C85212   1.679   6.893   4.127  0.3174 -0.2332 -0.2764
  632MOL0     C85213   1.675   6.982   3.998 -0.7374 -0.0738  0.5544
  632MOL0     C85214   1.795   6.855   4.199 -0.1305 -0.3898  0.1856
  632MOL0     C85215   1.935   6.864   4.139  0.4166 -0.0391 -0.7559
  632MOL0     O85216   2.033   6.823   4.224  0.2945  0.2629 -0.6597
  632MOL0     C85217   2.167   6.843   4.180 -0.6582 -0.4373  0.5044
  632MOL0     C85218   2.268   6.921   4.249  0.3162 -0.2700  0.1917
  632MOL0     C85219   2.403   6.932   4.203  0.7135 -0.1544 -0.5613
  632MOL0     C85220   2.429   6.854   4.080  0.5946  1.6082 -0.3875
  632MOL0     O85221   2.552   6.866   4.013  0.8728  0.5530 -0.3580
  632MOL0     C85222   2.679   6.851   4.088 -0.5821  0.3056 -0.3152
  632MOL0     C85223   2.710   6.705   4.111 -0.1773 -0.1739 -0.8584
  632MOL0     C85224   2.721   6.634   3.981 -0.4242  0.8868 -0.1004
  632MOL0     C85225   2.793   6.498   4.011  0.5439  0.1241  0.0694
  632MOL0     C85226   2.851   6.421   3.897 -1.6275  1.0329  0.1446
  632MOL0     C85227   2.998   6.472   3.853  0.0481 -0.0200 -0.0290
  632MOL0     C85228   3.061   6.385   3.748 -0.6269  0.1424  0.5397
  632MOL0     C85229   3.204   6.426   3.716  0.7509 -0.7440 -0.3766
  632MOL0    Cl85230   3.316   6.391   3.844 -0.0509 -0.4454  0.1161
  632MOL0     C85231   2.326   6.786   4.016 -0.9636 -0.1728  0.7195
  632MOL0     C85232   2.204   6.770   4.064  0.6592 -0.5602 -0.1689
  632MOL0     O85233   1.955   6.902   4.025  0.0199  0.7837 -0.0332
  632MOL0     C85234   1.779   6.799   4.326 -0.9017  0.7582  0.3677
  632MOL0     C85235   1.654   6.777   4.381 -0.7646  0.6039  0.2585
  632MOL0     N85236   1.159   6.230   4.728 -0.0711  0.6066  0.9394
  632MOL0     N85237   1.035   6.192   4.718  0.4571  0.1291  0.3103
  632MOL0     C85238   0.838   7.220   4.602 -0.2404 -0.1017 -0.4060
  632MOL0     C85239   0.836   7.355   4.569 -0.2511 -0.2531  0.5847
  632MOL0     C85240   0.931   7.790   4.572  0.2925  0.1883  0.0973
  632MOL0     C85241   0.938   7.823   4.441 -0.3212 -0.5108  0.2864
  632MOL0     C85242   0.900   7.945   4.405 -0.8296 -0.1802  0.1504
  632MOL0     C85243   0.861   8.050   4.492  0.0261 -0.0930  0.4438
  632MOL0     O85244   0.833   8.172   4.436  0.2196  0.0027 -0.9668
  632MOL0     C85245   0.896   8.291   4.473  0.1701  1.0025 -0.4082
  632MOL0     C85246   0.992   8.334   4.353  0.3316 -0.0514 -0.2378
  632MOL0     C85247   1.121   8.268   4.367  0.1104  0.2279  0.9377
  632MOL0     C85248   1.232   8.317   4.278 -0.3934  0.4939  0.7336
  632MOL0     C85249   1.371   8.264   4.296  0.5339 -0.6126  0.0467
  632MOL0     C85250   1.493   8.239   4.298 -0.0022 -0.3256  0.0315
  632MOL0     C85251   0.869   8.022   4.632  0.2901 -0.5900  0.3657
  632MOL0     C85252   0.901   7.892   4.677 -0.1608 -0.6484  1.1274
  632MOL0     H85253   1.182   7.403   4.604  0.6692 -1.4511 -0.7948
  632MOL0     H85254   1.166   7.168   4.670 -0.2386 -3.2382 -2.3854
  632MOL0     H85255   0.939   6.923   4.835 -0.2128 -1.0090 -2.0662
  632MOL0     H85256   0.847   7.079   4.816  0.3827  0.5555 -0.3625
  632MOL0     H85257   0.694   6.903   4.796 -3.5162 -0.3905 -3.7351
  632MOL0     H85258   0.713   6.966   4.638 -0.2787 -1.7063 -1.5063
  632MOL0     H85259   0.857   6.772   4.568  0.7711 -3.1825  0.9888
  632MOL0     H85260   0.871   6.723   4.730 -1.7396 -1.5319  0.4067
  632MOL0     H85261   0.607   6.674   4.723  3.0073 -2.3312  2.5010
  632MOL0     H85262   0.616   6.745   4.559 -0.2589 -0.0039 -0.5487
  632MOL0     H85263   0.626   6.510   4.556 -0.7724 -1.5814  3.1515
  632MOL0     H85264   0.797   6.552   4.513 -1.9239  1.6541 -2.9651
  632MOL0     H85265   0.860   6.480   4.741  0.7777 -0.0297  0.9805
  632MOL0     H85266   0.691   6.496   4.803  2.4701 -1.1164  2.2724
  632MOL0     H85267   0.752   6.278   4.796  0.5620 -0.3031 -0.7700
  632MOL0     H85268   0.626   6.302   4.688 -0.6775 -0.7458  2.4994
  632MOL0     H85269   0.801   6.319   4.496  0.8309 -0.1106 -0.9208
  632MOL0     H85270   0.791   6.166   4.574  0.8834 -0.5534  0.5336
  632MOL0     H85271   1.039   6.416   4.482 -1.0260 -0.0288 -0.0204
  632MOL0     H85272   1.355   6.407   4.709 -1.0944 -0.6239  0.8578
  632MOL0     H85273   1.354   6.342   4.539  0.0709 -3.1568  1.1655
  632MOL0     H85274   1.217   6.592   4.606  0.6352 -0.2663  1.3463
  632MOL0     H85275   1.234   6.521   4.443 -0.4990 -0.3888 -0.2650
  632MOL0     H85276   1.471   6.566   4.437 -1.8052 -3.4569  0.3761
  632MOL0     H85277   1.482   6.622   4.608  2.1569  2.2010 -1.7985
  632MOL0     H85278   1.426   6.836   4.535  0.0088  0.9663 -0.9061
  632MOL0     H85279   1.269   6.767   4.497 -0.4201  3.0523  1.7947
  632MOL0     H85280   1.460   6.893   4.130 -0.6167 -1.5148 -1.6014
  632MOL0     H85281   1.740   7.064   4.030 -1.5746  0.1870  1.7065
  632MOL0     H85282   1.723   6.934   3.913 -1.6722  1.5921 -0.9842
  632MOL0     H85283   1.577   7.023   3.970 -0.2332  0.6521 -0.1670
  632MOL0     H85284   2.242   6.961   4.347 -0.8521  0.3772 -0.3572
  632MOL0     H85285   2.467   7.001   4.258 -0.9275 -0.2382  1.5909
  632MOL0     H85286   2.760   6.910   4.043  1.0636 -0.9355  0.8817
  632MOL0     H85287   2.664   6.903   4.183  1.4475 -0.9332  0.7483
  632MOL0     H85288   2.807   6.698   4.162 -0.9549  1.9651  1.1416
  632MOL0     H85289   2.632   6.655   4.170  0.2320 -1.2342 -1.2003
  632MOL0     H85290   2.777   6.698   3.912  1.1922 -1.1776 -0.8246
  632MOL0     H85291   2.628   6.619   3.926 -1.7593  1.7009  1.8493
  632MOL0     H85292   2.875   6.500   4.084  2.5699 -1.3592 -1.9917
  632MOL0     H85293   2.709   6.447   4.058 -3.9612  7.9014  2.2801
  632MOL0     H85294   2.775   6.428   3.819  1.0340  2.9376 -2.5194
  632MOL0     H85295   2.870   6.318   3.929 -1.5651  1.9697  3.4977
  632MOL0     H85296   3.000   6.577   3.823  0.4538  0.7645  2.4587
  632MOL0     H85297   3.053   6.477   3.948 -0.9037  0.3839  0.5172
  632MOL0     H85298   3.008   6.394   3.653  0.6470 -1.7966 -0.4178
  632MOL0     H85299   3.064   6.280   3.780 -3.2554  0.0621  0.7280
  632MOL0     H85300   3.210   6.531   3.685  4.8187 -1.8161 -4.2311
  632MOL0     H85301   3.238   6.376   3.625  1.6676  0.8498 -0.9496
  632MOL0     H85302   2.349   6.744   3.919  2.8282  0.9405  0.9811
  632MOL0     H85303   2.138   6.699   4.015 -0.3332 -0.3823  0.8639
  632MOL0     H85304   1.870   6.775   4.381  1.0730  1.1211 -2.4897
  632MOL0     H85305   1.649   6.725   4.476 -0.8109 -0.5014 -0.3265
  632MOL0     H85306   0.740   7.174   4.608 -0.0495 -0.6480 -1.2284
  632MOL0     H85307   0.742   7.406   4.549  0.3187 -0.1657 -2.3050
  632MOL0     H85308   0.968   7.757   4.360  1.7136  0.3997  0.2144
  632MOL0     H85309   0.898   7.969   4.299  0.9183  2.2416  0.5832
  632MOL0     H85310   0.817   8.365   4.487 -1.0275 -0.5596  1.7170
  632MOL0     H85311   0.948   8.284   4.569 -2.1116  2.4952  1.0387
  632MOL0     H85312   1.001   8.443   4.358 -3.7821  0.6977 -3.4520
  632MOL0     H85313   0.949   8.319   4.254 -3.5437  2.3101  0.8916
  632MOL0     H85314   1.125   8.161   4.345  0.2623  0.1966  1.1066
  632MOL0     H85315   1.164   8.281   4.467  3.0771 -0.3646 -0.1341
  632MOL0     H85316   1.229   8.426   4.276  0.2180  0.5286 -1.5462
  632MOL0     H85317   1.203   8.278   4.180  2.1600  1.1801 -0.3825
  632MOL0     H85318   1.597   8.214   4.295  0.0213 -0.1964 -2.7871
  632MOL0     H85319   0.840   8.102   4.699  3.6091  1.7194 -0.6904
  632MOL0     H85320   0.898   7.874   4.784 -2.1178 -1.0925  1.0253
  633MOL0     O85321   8.722   9.101   0.629 -0.0038 -0.1647  0.0325
  633MOL0     C85322   8.630   9.174   0.592 -1.5353  1.4765  0.1710
  633MOL0     O85323   8.623   9.305   0.619 -1.3752  0.7043  0.8734
  633MOL0     C85324   8.732   9.353   0.690 -0.2505  0.1021  0.2067
  633MOL0     C85325   8.777   9.301   0.808 -0.3408 -0.2923 -0.1676
  633MOL0     C85326   8.876   9.372   0.883 -0.0602  0.4765 -0.0643
  633MOL0     C85327   8.953   9.474   0.821 -1.1230 -0.2196 -0.9892
  633MOL0     O85328   9.062   9.521   0.893 -0.5890  0.4611 -0.4277
  633MOL0     C85329   9.166   9.592   0.822  0.4450 -0.9641  0.4818
  633MOL0     C85330   9.274   9.595   0.934  1.0091 -0.2813  0.1867
  633MOL0     C85331   9.392   9.687   0.891  0.6559  0.1073 -0.1727
  633MOL0     C85332   9.358   9.834   0.915 -0.2566 -0.7028  0.9862
  633MOL0     C85333   9.473   9.915   0.856  0.3223 -0.6222 -0.3942
  633MOL0     C85334   9.443  10.066   0.841 -0.1547  0.4933  0.1177
  633MOL0     C85335   9.581  10.130   0.814 -0.1140 -0.0943 -0.0915
  633MOL0     C85336   9.567  10.280   0.828  0.5740 -0.2180 -0.0594
  633MOL0     N85337   9.679  10.355   0.770  0.0085  0.0299  0.8239
  633MOL0     C85338   9.796  10.300   0.723  0.5935 -0.4529  0.9492
  633MOL0     C85339   9.849  10.391   0.642 -0.2104  1.1293  0.5149
  633MOL0     C85340   9.955  10.360   0.544 -0.8023 -0.3860 -0.1932
  633MOL0     C85341   9.965  10.455   0.426 -0.3223  0.5393 -0.4603
  633MOL0     C85342  10.063  10.398   0.318 -0.0304  0.0898 -0.0483
  633MOL0     C85343  10.107  10.498   0.215  0.2914 -0.0850  0.3591
  633MOL0     O85344  10.169  10.423   0.109 -0.4799 -0.3563  0.9170
  633MOL0     C85345  10.242  10.476   0.009 -0.2580  0.0783 -0.3470
  633MOL0     C85346  10.247  10.615  -0.021  0.0150 -0.2924 -0.4325
  633MOL0     C85347  10.304  10.658  -0.140  0.0963 -0.3226  0.1551
  633MOL0     C85348  10.301  10.802  -0.165 -0.7421  0.8766 -0.5440
  633MOL0     C85349  10.371  10.564  -0.221  0.0142  0.9946 -0.8252
  633MOL0     C85350  10.445  10.610  -0.341  0.2907  0.3195  0.1987
  633MOL0     O85351  10.570  10.561  -0.351 -0.2149 -0.3165 -0.0296
  633MOL0     C85352  10.638  10.572  -0.466 -0.2424 -0.5213 -0.4418
  633MOL0     C85353  10.754  10.649  -0.456  0.8134  0.2649  0.1422
  633MOL0     C85354  10.836  10.655  -0.578 -0.5812 -0.4398  0.1891
  633MOL0     C85355  10.811  10.573  -0.690 -0.3699  1.1201  0.1917
  633MOL0     O85356  10.904  10.563  -0.805 -0.0370  0.4948 -0.4367
  633MOL0     C85357  10.940  10.688  -0.857  0.6296 -0.6986 -1.3316
  633MOL0     C85358  11.023  10.688  -0.986  0.3976  0.1457  0.3185
  633MOL0     C85359  11.065  10.563  -1.055  0.9711 -0.4191 -0.3112
  633MOL0     C85360  11.175  10.596  -1.154  0.0608 -0.0103  0.3428
  633MOL0     C85361  11.203  10.493  -1.256  0.2497  0.4722 -0.1960
  633MOL0     C85362  11.239  10.345  -1.196 -0.3859  0.3448  0.6661
  633MOL0     C85363  11.242  10.234  -1.296  0.9843 -0.7498  0.1745
  633MOL0     C85364  11.238  10.095  -1.231  0.0903 -0.0284 -0.1344
  633MOL0    Cl85365  11.379  10.057  -1.128  0.3321 -0.3565 -0.2171
  633MOL0     C85366  10.703  10.476  -0.682  0.6004  0.3531  0.3900
  633MOL0     C85367  10.605  10.481  -0.579 -1.6794 -1.1315 -0.6377
  633MOL0     O85368  10.381  10.673  -0.425 -0.4626 -0.1200  0.2247
  633MOL0     C85369  10.395  10.439  -0.172 -0.2493  0.0353 -0.0726
  633MOL0     C85370  10.328  10.401  -0.064  0.8506 -0.2232  0.0206
  633MOL0     N85371   9.782  10.509   0.653  0.9350  0.0200 -0.4751
  633MOL0     N85372   9.677  10.491   0.724  0.5837 -0.5564 -0.1333
  633MOL0     C85373   8.916   9.516   0.694  0.2449 -1.2152 -0.0544
  633MOL0     C85374   8.806   9.460   0.637  0.1593 -0.3369  1.2237
  633MOL0     C85375   8.507   9.103   0.544 -0.8261  0.4777 -0.3367
  633MOL0     C85376   8.421   9.166   0.459  0.6773 -0.2562  0.0342
  633MOL0     C85377   8.307   9.100   0.417  0.4338  0.5652 -0.2659
  633MOL0     C85378   8.267   8.969   0.470  1.1267 -0.3830 -0.6871
  633MOL0     O85379   8.158   8.900   0.421 -0.6633 -0.2499  1.2914
  633MOL0     C85380   8.086   8.791   0.482  0.0724  0.2906  0.8147
  633MOL0     C85381   7.933   8.780   0.444 -0.4123 -0.4431  0.5711
  633MOL0     C85382   7.881   8.640   0.466 -1.2415  0.5200  0.5975
  633MOL0     C85383   7.723   8.625   0.448  0.3748 -0.3079  0.6161
  633MOL0     C85384   7.654   8.699   0.555 -0.3104 -0.0233  0.5073
  633MOL0     C85385   7.575   8.763   0.617  0.4221  0.5298 -0.2497
  633MOL0     C85386   8.358   8.905   0.559 -0.1603 -0.2808  0.4758
  633MOL0     C85387   8.471   8.976   0.589 -0.7745 -0.5917  0.0674
  633MOL0     H85388   8.720   9.217   0.845 -2.7823  1.1246 -0.4693
  633MOL0     H85389   8.891   9.327   0.980 -1.8410  0.4193  0.2019
  633MOL0     H85390   9.197   9.537   0.732 -2.3545 -3.9240  1.1307
  633MOL0     H85391   9.147   9.696   0.796  1.6342 -0.3939  1.7896
  633MOL0     H85392   9.234   9.640   1.026  1.9822 -1.0069  0.9821
  633MOL0     H85393   9.300   9.493   0.964  1.2039 -0.2916 -0.0115
  633MOL0     H85394   9.469   9.645   0.956  1.4334  0.3834 -0.8934
  633MOL0     H85395   9.424   9.661   0.790  1.8266  0.4844  0.0785
  633MOL0     H85396   9.264   9.853   0.863  1.2487  0.8296 -1.4054
  633MOL0     H85397   9.346   9.860   1.020  1.4142  2.9258  0.4261
  633MOL0     H85398   9.555   9.901   0.927 -0.9883  1.2365  1.6131
  633MOL0     H85399   9.493   9.877   0.755  1.2833 -1.0654 -0.0520
  633MOL0     H85400   9.376  10.083   0.756  0.6309 -1.9804 -1.0963
  633MOL0     H85401   9.390  10.096   0.932 -2.7352 -1.2441 -0.7018
  633MOL0     H85402   9.668  10.094   0.870  2.0724 -0.5385 -3.4948
  633MOL0     H85403   9.610  10.110   0.710 -1.4098 -0.9913 -0.3052
  633MOL0     H85404   9.545  10.305   0.932  2.7782 -5.8263  2.1167
  633MOL0     H85405   9.479  10.317   0.775  1.0957 -0.1129 -0.8781
  633MOL0     H85406   9.816  10.193   0.733 -0.6967 -0.7040  0.9793
  633MOL0     H85407  10.057  10.358   0.583 -0.7634 -2.5450 -0.2988
  633MOL0     H85408   9.943  10.257   0.510 -3.2266  0.0132 -0.7562
  633MOL0     H85409   9.993  10.555   0.460  1.1538  0.2110 -0.6568
  633MOL0     H85410   9.862  10.460   0.389 -1.1819 -0.6877  1.6042
  633MOL0     H85411   9.994  10.329   0.269 -1.8992  1.1679  0.9360
  633MOL0     H85412  10.140  10.335   0.362 -0.4464  0.5697  1.4211
  633MOL0     H85413  10.173  10.577   0.253  3.0906 -1.6859 -0.8552
  633MOL0     H85414  10.018  10.539   0.167  0.4435 -3.3937 -3.1779
  633MOL0     H85415  10.202  10.678   0.056 -1.3506  0.2246 -1.6175
  633MOL0     H85416  10.397  10.854  -0.165 -0.3311  0.1286 -0.5111
  633MOL0     H85417  10.248  10.818  -0.259 -4.6383 -1.0099  1.1054
  633MOL0     H85418  10.241  10.844  -0.083  0.5129 -0.4178  1.1107
  633MOL0     H85419  10.800  10.697  -0.370  1.2509 -0.1863  0.1618
  633MOL0     H85420  10.918  10.726  -0.567 -1.2663  0.2378  1.0098
  633MOL0     H85421  10.850  10.748  -0.867 -0.5122 -2.0371  0.3187
  633MOL0     H85422  10.999  10.726  -0.772  1.4534 -4.5815  0.0694
  633MOL0     H85423  10.964  10.742  -1.061 -0.6143  0.1347  1.0745
  633MOL0     H85424  11.110  10.752  -0.967  0.0122  2.5042 -4.3843
  633MOL0     H85425  10.980  10.517  -1.108  0.6550 -0.7031  0.4360
  633MOL0     H85426  11.092  10.487  -0.981 -1.6558 -0.4342  0.7168
  633MOL0     H85427  11.162  10.691  -1.207 -1.9656 -0.4080  0.0254
  633MOL0     H85428  11.263  10.629  -1.098 -0.3456  0.6182  0.6232
  633MOL0     H85429  11.288  10.533  -1.313 -0.6964  1.3662 -1.0210
  633MOL0     H85430  11.117  10.489  -1.324 -0.1134  0.0519  0.2809
  633MOL0     H85431  11.336  10.358  -1.147 -0.1153 -2.1110  0.8738
  633MOL0     H85432  11.166  10.330  -1.116 -1.2879  0.4403 -0.1212
  633MOL0     H85433  11.329  10.249  -1.361  1.0854 -2.7089 -0.1797
  633MOL0     H85434  11.155  10.243  -1.361  1.2665 -1.1752 -0.2684
  633MOL0     H85435  11.243  10.028  -1.318  1.8357  1.1878 -1.0406
  633MOL0     H85436  11.149  10.074  -1.172  1.2475 -1.2246  1.2675
  633MOL0     H85437  10.705  10.407  -0.766  0.7084 -1.4611  1.8234
  633MOL0     H85438  10.513  10.422  -0.575 -3.6744  1.7375 -1.1756
  633MOL0     H85439  10.451  10.366  -0.228  1.2667 -2.2365  4.0227
  633MOL0     H85440  10.316  10.297  -0.034  1.0020  0.0201  0.9485
  633MOL0     H85441   8.971   9.585   0.632 -0.2925 -0.3348  0.4368
  633MOL0     H85442   8.770   9.496   0.540  1.3252  0.8402  1.2049
  633MOL0     H85443   8.432   9.263   0.413 -0.3646 -0.6650 -1.1349
  633MOL0     H85444   8.238   9.151   0.351 -1.0849  0.4107  1.1482
  633MOL0     H85445   8.151   8.707   0.454  1.7809  1.8972 -0.2597
  633MOL0     H85446   8.104   8.790   0.590  3.0826 -1.4164  0.4235
  633MOL0     H85447   7.915   8.807   0.340  0.1612 -1.8764  0.0773
  633MOL0     H85448   7.882   8.852   0.509  0.3753  2.0980 -1.4601
  633MOL0     H85449   7.919   8.616   0.566  0.9389  2.1629  0.2384
  633MOL0     H85450   7.938   8.571   0.403  0.0787  1.0838  1.1374
  633MOL0     H85451   7.708   8.517   0.460 -0.7398 -0.4610 -1.6672
  633MOL0     H85452   7.703   8.659   0.346  2.4988  0.1180  0.2969
  633MOL0     H85453   7.498   8.817   0.668  2.2719  3.8189 -0.6604
  633MOL0     H85454   8.327   8.809   0.600 -0.3919 -0.4918 -0.1809
  633MOL0     H85455   8.536   8.920   0.656 -1.6284  2.5964  3.9423
  634MOL0     O85456  11.239   7.273   9.643 -0.0143 -0.6281  0.0310
  634MOL0     C85457  11.119   7.249   9.662  0.4505  0.2196  0.7637
  634MOL0     O85458  11.016   7.268   9.569 -0.3982 -0.0526 -0.6789
  634MOL0     C85459  11.059   7.311   9.445 -0.9379 -0.4208  0.7433
  634MOL0     C85460  11.122   7.241   9.342 -0.5159 -0.2522 -0.2114
  634MOL0     C85461  11.148   7.303   9.216 -1.1497 -0.3273  0.1082
  634MOL0     C85462  11.116   7.432   9.191  1.1152 -0.1561 -0.6009
  634MOL0     O85463  11.124   7.483   9.063  0.5894 -0.8519 -0.2536
  634MOL0     C85464  11.215   7.418   8.967  0.1045  0.2662  0.7928
  634MOL0     C85465  11.365   7.414   9.003 -0.0649 -0.5333  0.8831
  634MOL0     C85466  11.420   7.509   9.111  0.6310  0.6413 -0.6709
  634MOL0     C85467  11.398   7.662   9.085 -0.4118  0.5789  0.5884
  634MOL0     C85468  11.401   7.750   9.209 -0.7579 -0.1468 -1.1410
  634MOL0     C85469  11.276   7.746   9.297  0.0807 -0.5451 -0.6863
  634MOL0     C85470  11.298   7.844   9.412  0.9390  0.4327 -0.3206
  634MOL0     C85471  11.204   7.815   9.532 -0.0209 -1.1035  0.1439
  634MOL0     N85472  11.266   7.758   9.653 -1.1849  0.2334  0.0896
  634MOL0     C85473  11.312   7.628   9.662  0.5088 -1.0148 -0.5110
  634MOL0     C85474  11.391   7.613   9.764  0.4921 -0.0805 -0.6014
  634MOL0     C85475  11.462   7.488   9.801 -0.0865 -0.1412  0.2538
  634MOL0     C85476  11.615   7.526   9.827  0.4102 -0.4448  0.6752
  634MOL0     C85477  11.666   7.398   9.908  0.4692 -0.0653  0.5780
  634MOL0     C85478  11.770   7.324   9.834 -0.0596  0.1768 -0.4177
  634MOL0     O85479  11.745   7.296   9.699  0.0163 -0.1098 -0.5293
  634MOL0     C85480  11.645   7.208   9.657  0.4386  0.9212 -0.2373
  634MOL0     C85481  11.612   7.224   9.521  0.5704  0.3112  1.1136
  634MOL0     C85482  11.511   7.144   9.470  0.9890 -1.9943 -0.0324
  634MOL0     C85483  11.467   7.173   9.329  1.4689 -0.0629  0.4525
  634MOL0     C85484  11.463   7.022   9.539 -0.3061 -0.7447 -0.4457
  634MOL0     C85485  11.369   6.921   9.486 -0.4945 -0.3078  0.1674
  634MOL0     O85486  11.255   6.893   9.568 -0.6561 -0.4292 -0.0577
  634MOL0     C85487  11.175   6.787   9.527  0.2842 -0.8819  0.3388
  634MOL0     C85488  11.045   6.775   9.563  0.9434 -0.0830  0.3337
  634MOL0     C85489  10.966   6.656   9.534  0.5556 -0.1540 -0.0860
  634MOL0     C85490  11.012   6.542   9.474  0.4378 -1.0048 -0.2650
  634MOL0     O85491  10.946   6.428   9.436 -0.0651  0.8838 -0.0163
  634MOL0     C85492  10.811   6.442   9.390  0.8875 -0.2390 -0.2862
  634MOL0     C85493  10.769   6.327   9.295  0.2627  0.7487 -0.4439
  634MOL0     C85494  10.813   6.349   9.145  0.1010  0.1945  1.2873
  634MOL0     C85495  10.964   6.343   9.105  0.1456 -0.1780 -0.6550
  634MOL0     C85496  10.989   6.367   8.955  1.3823  0.2496 -0.3217
  634MOL0     C85497  11.132   6.337   8.899  0.8996 -0.3697  0.2380
  634MOL0     C85498  11.235   6.436   8.952 -0.1344 -0.0482  0.1654
  634MOL0     C85499  11.359   6.372   9.017  0.2829 -0.1483 -0.9802
  634MOL0    Cl85500  11.324   6.282   9.159 -0.1624  0.8106  0.0132
  634MOL0     C85501  11.143   6.559   9.433 -0.2080 -0.1803  0.4263
  634MOL0     C85502  11.226   6.671   9.459  0.4270  1.0874  0.5695
  634MOL0     O85503  11.388   6.888   9.368 -1.0415 -0.4738  0.7663
  634MOL0     C85504  11.494   7.003   9.671  0.7649 -1.1071 -0.2613
  634MOL0     C85505  11.586   7.093   9.727  0.5791 -0.6915  0.8220
  634MOL0     N85506  11.390   7.740   9.830 -0.2024  1.1841 -0.1858
  634MOL0     N85507  11.313   7.816   9.761 -0.8136 -0.8288 -0.5530
  634MOL0     C85508  11.064   7.506   9.305 -0.3241  0.0963  0.0862
  634MOL0     C85509  11.034   7.441   9.423  0.7342 -0.6239  0.9717
  634MOL0     C85510  11.070   7.205   9.796 -0.1760  0.3459 -0.0922
  634MOL0     C85511  10.955   7.125   9.806  0.0465  0.1399 -0.0041
  634MOL0     C85512  10.909   7.118   9.941  0.9773  0.5085  0.2018
  634MOL0     C85513  10.961   7.178  10.057  0.7453 -0.1270 -1.3284
  634MOL0     O85514  10.889   7.177  10.171 -0.1397  1.4686  0.2218
  634MOL0     C85515  10.955   7.223  10.285  0.0219 -0.7203 -0.0977
  634MOL0     C85516  10.867   7.215  10.414  0.4219  0.6518 -0.1348
  634MOL0     C85517  10.960   7.181  10.531 -0.4949  0.7258  0.0761
  634MOL0     C85518  10.877   7.194  10.652  0.7228 -0.3810 -0.6725
  634MOL0     C85519  10.970   7.195  10.763  0.2808  0.7677  0.7188
  634MOL0     C85520  11.065   7.210  10.833 -0.1588 -0.1668 -0.3685
  634MOL0     C85521  11.088   7.238  10.037  0.3453  0.1347  0.1460
  634MOL0     C85522  11.147   7.244   9.912 -0.0746  0.3331  0.0905
  634MOL0     H85523  11.169   7.148   9.371  1.7666  0.4416 -1.4498
  634MOL0     H85524  11.192   7.244   9.136  0.5699 -0.9411  1.4469
  634MOL0     H85525  11.170   7.321   8.942 -0.6796  0.8132  0.0462
  634MOL0     H85526  11.200   7.469   8.872  0.2554 -2.9107 -1.1085
  634MOL0     H85527  11.384   7.312   9.035 -2.6123 -1.4267 -0.2039
  634MOL0     H85528  11.415   7.407   8.905  0.4668 -0.0293  1.1094
  634MOL0     H85529  11.373   7.476   9.204  4.0900  1.6009  1.6117
  634MOL0     H85530  11.527   7.511   9.132  0.0031  1.1034  3.0642
  634MOL0     H85531  11.480   7.690   9.019 -0.9221  0.4929 -0.0856
  634MOL0     H85532  11.305   7.685   9.032  0.8130 -0.0120 -1.9300
  634MOL0     H85533  11.483   7.719   9.274 -1.0007  1.3847 -0.0418
  634MOL0     H85534  11.406   7.855   9.179  2.3491  0.3807  0.8211
  634MOL0     H85535  11.183   7.770   9.244  0.8134 -1.1448 -2.3348
  634MOL0     H85536  11.275   7.649   9.347  1.8340  0.0417  0.5738
  634MOL0     H85537  11.403   7.853   9.439  1.3021  0.3033 -1.6105
  634MOL0     H85538  11.265   7.936   9.363  1.3370  1.3527  1.1187
  634MOL0     H85539  11.122   7.748   9.502  2.0554 -2.7306 -2.3079
  634MOL0     H85540  11.157   7.908   9.565 -0.9044 -1.0563 -1.1518
  634MOL0     H85541  11.287   7.564   9.578 -0.0000 -1.6967  0.1484
  634MOL0     H85542  11.414   7.455   9.893  0.8400  3.1725  2.0572
  634MOL0     H85543  11.457   7.416   9.718  1.3572  1.2992 -1.1791
  634MOL0     H85544  11.614   7.605   9.903 -1.0793 -0.1844  0.4295
  634MOL0     H85545  11.659   7.548   9.729  0.5669 -1.3487  0.5324
  634MOL0     H85546  11.585   7.327   9.927 -1.5667  1.9693  0.0392
  634MOL0     H85547  11.704   7.429  10.006  0.6448 -0.0553  0.5054
  634MOL0     H85548  11.798   7.230   9.883 -0.5067 -4.1839 -7.1509
  634MOL0     H85549  11.861   7.384   9.836  1.3839 -1.7538 -2.8972
  634MOL0     H85550  11.648   7.311   9.466 -0.8735  0.4951  0.3972
  634MOL0     H85551  11.376   7.117   9.308  1.5703  0.6502 -2.3140
  634MOL0     H85552  11.458   7.280   9.305 -0.1228 -0.9581 -3.9754
  634MOL0     H85553  11.542   7.124   9.266  0.8824 -3.1492  1.9842
  634MOL0     H85554  10.998   6.856   9.618  0.4832  0.2581 -0.5370
  634MOL0     H85555  10.866   6.649   9.577  0.6909 -0.9022  0.1187
  634MOL0     H85556  10.746   6.438   9.478 -0.2669 -0.2189 -1.1172
  634MOL0     H85557  10.785   6.537   9.344  0.1640  0.3730  1.3100
  634MOL0     H85558  10.814   6.240   9.345  0.2689 -0.4612 -2.4605
  634MOL0     H85559  10.661   6.311   9.295  0.2752  0.6672 -0.6782
  634MOL0     H85560  10.772   6.443   9.105 -0.5380 -0.1568  1.1009
  634MOL0     H85561  10.769   6.257   9.107 -2.0456  1.0118  1.6207
  634MOL0     H85562  11.011   6.421   9.165  0.3082 -1.8433  1.5635
  634MOL0     H85563  11.025   6.258   9.141  1.0032 -0.3942 -2.4963
  634MOL0     H85564  10.934   6.458   8.932 -1.4927 -1.0696  0.8976
  634MOL0     H85565  10.925   6.293   8.905  1.0681 -0.5317  1.1867
  634MOL0     H85566  11.166   6.233   8.904 -0.6286 -0.9115 -0.2143
  634MOL0     H85567  11.121   6.366   8.794 -0.4484 -1.0168  0.1910
  634MOL0     H85568  11.178   6.496   9.023 -2.9592 -1.4978 -0.7348
  634MOL0     H85569  11.283   6.502   8.880 -0.5884  3.0479  2.5046
  634MOL0     H85570  11.426   6.456   9.039  1.3770 -0.9897 -1.0169
  634MOL0     H85571  11.413   6.304   8.950  0.2206  0.6956 -1.8981
  634MOL0     H85572  11.198   6.478   9.387  1.6244  1.3055 -0.1448
  634MOL0     H85573  11.326   6.654   9.421 -0.0196 -0.7055  0.1403
  634MOL0     H85574  11.450   6.925   9.732 -0.4615  0.6174  1.1691
  634MOL0     H85575  11.618   7.072   9.829  1.3497  0.7901  0.9196
  634MOL0     H85576  11.048   7.613   9.297  3.8338  0.8665 -0.1362
  634MOL0     H85577  11.004   7.499   9.509  4.0132  2.7994  0.1188
  634MOL0     H85578  10.912   7.084   9.716 -0.7418  1.5051 -0.2740
  634MOL0     H85579  10.808   7.080   9.947  1.6668 -1.1245  3.2605
  634MOL0     H85580  11.045   7.163  10.298  0.5988 -0.6675 -3.2428
  634MOL0     H85581  10.985   7.328  10.273 -3.2293  0.1575 -1.8324
  634MOL0     H85582  10.802   7.127  10.416  0.7125  0.4307  1.4470
  634MOL0     H85583  10.814   7.310  10.424 -0.0187  0.3369  0.5923
  634MOL0     H85584  11.053   7.238  10.544  0.0155 -0.5324  2.4676
  634MOL0     H85585  10.994   7.078  10.536  0.5868  1.1060  4.6860
  634MOL0     H85586  10.810   7.110  10.672 -1.6851  1.2423 -1.4422
  634MOL0     H85587  10.810   7.281  10.652  0.0479 -0.7385  2.7330
  634MOL0     H85588  11.153   7.229  10.892  0.8184  2.7484 -2.5335
  634MOL0     H85589  11.141   7.298  10.111  1.1477  1.4117 -1.3980
  634MOL0     H85590  11.244   7.290   9.896 -0.3870  0.6779 -0.9288
  635MOL0     O85591   5.328   7.304   7.101  0.3429  0.3753  0.7794
  635MOL0     C85592   5.290   7.380   7.013 -0.4124  0.0272 -0.2033
  635MOL0     O85593   5.354   7.407   6.901 -0.0590 -0.5336  0.2410
  635MOL0     C85594   5.475   7.371   6.858 -0.5376  0.3068 -0.0171
  635MOL0     C85595   5.568   7.281   6.926  0.5687  0.4945  0.1413
  635MOL0     C85596   5.701   7.267   6.876  1.1442 -0.6853 -1.3694
  635MOL0     C85597   5.732   7.343   6.757  0.0164  0.2703 -0.2383
  635MOL0     O85598   5.855   7.336   6.701  0.0152  0.3438  0.2865
  635MOL0     C85599   5.937   7.219   6.711  0.4017  0.6473 -0.0757
  635MOL0     C85600   6.039   7.199   6.601  0.6109 -0.5458 -0.0103
  635MOL0     C85601   5.978   7.169   6.457 -0.1718  0.0625 -0.2582
  635MOL0     C85602   5.962   7.019   6.405 -0.5405  0.2099 -0.3706
  635MOL0     C85603   5.820   6.976   6.340 -0.3816  0.0365 -0.2666
  635MOL0     C85604   5.789   7.041   6.206 -0.4434  0.1986  0.7232
  635MOL0     C85605   5.862   6.995   6.084 -0.3564  0.5042 -0.5919
  635MOL0     C85606   5.816   6.859   6.023  0.4362  0.1250 -0.5457
  635MOL0     N85607   5.668   6.842   6.004  0.0740  0.0265  0.0945
  635MOL0     C85608   5.610   6.712   5.974 -0.0468 -0.5100 -0.2071
  635MOL0     C85609   5.476   6.745   5.948 -0.7565  0.7419  0.8547
  635MOL0     C85610   5.367   6.650   5.906  0.4999  0.8915 -0.7608
  635MOL0     C85611   5.421   6.545   5.806  0.7383  0.6247 -0.2988
  635MOL0     C85612   5.306   6.471   5.723  0.7210 -1.1153 -0.3924
  635MOL0     C85613   5.351   6.329   5.690 -0.5955  0.3511  0.5044
  635MOL0     O85614   5.484   6.339   5.631  0.1236 -0.5056  0.1720
  635MOL0     C85615   5.498   6.278   5.506 -1.1326 -0.1740  0.6207
  635MOL0     C85616   5.576   6.344   5.402 -0.3320  0.2992  0.1194
  635MOL0     C85617   5.614   6.276   5.282  0.6075 -0.2879 -0.3064
  635MOL0     C85618   5.703   6.352   5.188 -0.5141  0.4011 -1.1061
  635MOL0     C85619   5.565   6.149   5.261  0.2262 -0.0993 -0.4616
  635MOL0     C85620   5.581   6.081   5.120  0.6038 -0.5840 -0.1156
  635MOL0     O85621   5.572   5.948   5.119  0.1391 -0.2704 -0.7628
  635MOL0     C85622   5.579   5.882   5.001  0.4018 -0.3698 -0.5577
  635MOL0     C85623   5.451   5.854   4.949 -0.3768 -0.2474  0.5885
  635MOL0     C85624   5.441   5.794   4.823 -0.2085 -0.1352 -1.3126
  635MOL0     C85625   5.552   5.770   4.749 -0.1181  0.8267 -0.5762
  635MOL0     O85626   5.527   5.726   4.626 -0.1529 -0.0094  0.5069
  635MOL0     C85627   5.620   5.756   4.519 -0.0341  0.1533  0.7410
  635MOL0     C85628   5.732   5.654   4.503  0.8373 -0.0707  0.2859
  635MOL0     C85629   5.779   5.656   4.359 -0.3518  1.3940 -0.6562
  635MOL0     C85630   5.813   5.791   4.296  0.2191 -0.1462 -0.0787
  635MOL0     C85631   5.953   5.841   4.320 -0.1931  0.0598 -0.3364
  635MOL0     C85632   5.987   5.920   4.452  1.1122  0.0459  0.4690
  635MOL0     C85633   6.131   5.923   4.492 -0.6515 -0.8704  0.3555
  635MOL0     C85634   6.163   5.793   4.555  0.9353  0.1603 -1.8013
  635MOL0    Cl85635   6.084   5.819   4.718  0.4114  0.4508  0.1870
  635MOL0     C85636   5.680   5.798   4.796 -0.0345 -0.1907  0.0358
  635MOL0     C85637   5.691   5.860   4.917  0.4329  0.4070 -0.1479
  635MOL0     O85638   5.573   6.148   5.021  0.6498 -0.3491 -0.1439
  635MOL0     C85639   5.491   6.081   5.358  0.2510  0.4961  0.2322
  635MOL0     C85640   5.457   6.145   5.479 -0.8556  0.7821  0.5624
  635MOL0     N85641   5.472   6.884   5.943  0.2085 -0.3674  0.3752
  635MOL0     N85642   5.579   6.947   5.976  0.1533  0.6028 -0.1323
  635MOL0     C85643   5.635   7.423   6.692  0.4157 -0.2541 -0.0534
  635MOL0     C85644   5.514   7.435   6.747 -0.0912  0.1078 -0.1675
  635MOL0     C85645   5.149   7.411   7.026 -0.6903  0.4732  0.9239
  635MOL0     C85646   5.081   7.396   7.146  0.3048  0.6123  0.1989
  635MOL0     C85647   4.951   7.445   7.159  0.1158  1.2119  0.5540
  635MOL0     C85648   4.886   7.499   7.046 -0.2029 -0.7673 -0.6951
  635MOL0     O85649   4.759   7.546   7.067 -0.6046  0.2835  0.0400
  635MOL0     C85650   4.665   7.552   6.961  0.8383  1.1444  0.4744
  635MOL0     C85651   4.633   7.420   6.887  0.0159  0.5673  0.1765
  635MOL0     C85652   4.491   7.436   6.833  0.0907  0.7870  0.3333
  635MOL0     C85653   4.466   7.567   6.761  0.4656  0.5939  0.2443
  635MOL0     C85654   4.329   7.573   6.703 -0.5498 -0.3625 -0.2786
  635MOL0     C85655   4.206   7.600   6.686 -0.3800  1.8795 -0.0657
  635MOL0     C85656   4.955   7.517   6.923  0.5388  0.1664 -0.4092
  635MOL0     C85657   5.090   7.475   6.917 -0.2323 -0.3549  0.1118
  635MOL0     H85658   5.543   7.225   7.016 -0.8456 -0.6430 -0.9045
  635MOL0     H85659   5.785   7.213   6.918  1.0901 -0.3340 -0.7961
  635MOL0     H85660   6.000   7.233   6.799  0.4831 -1.1569  0.2027
  635MOL0     H85661   5.868   7.137   6.731  0.3816  1.5858  4.8154
  635MOL0     H85662   6.101   7.288   6.584 -0.0540 -0.3116 -1.3241
  635MOL0     H85663   6.108   7.118   6.627 -0.7540 -1.3650  1.2092
  635MOL0     H85664   5.882   7.219   6.443 -0.2330 -0.6922 -3.5002
  635MOL0     H85665   6.036   7.224   6.381 -0.4211 -2.0338 -2.0781
  635MOL0     H85666   6.053   6.992   6.350  1.0636 -2.6099  3.2739
  635MOL0     H85667   5.972   6.956   6.493  1.1089 -0.8942 -1.2980
  635MOL0     H85668   5.823   6.867   6.331  3.2929 -0.1073  1.2359
  635MOL0     H85669   5.737   7.000   6.407  0.6302  2.7934  0.1268
  635MOL0     H85670   5.688   6.999   6.192  0.4918 -3.5189  3.5054
  635MOL0     H85671   5.777   7.150   6.211  2.6574  0.7867 -1.7809
  635MOL0     H85672   5.844   7.063   6.001  0.4659 -0.6976 -1.8019
  635MOL0     H85673   5.970   6.999   6.101 -0.3247 -0.6224 -0.4281
  635MOL0     H85674   5.853   6.788   6.097  2.0039  0.5709 -0.8635
  635MOL0     H85675   5.865   6.840   5.926  0.6268 -4.6959  0.2770
  635MOL0     H85676   5.648   6.611   5.988 -0.6879 -0.6206  0.8823
  635MOL0     H85677   5.342   6.597   5.999  1.4934  2.2283  0.3220
  635MOL0     H85678   5.278   6.697   5.863 -0.6466  0.1180  0.6345
  635MOL0     H85679   5.465   6.480   5.882  1.4398  2.3160  0.7901
  635MOL0     H85680   5.493   6.588   5.736  1.3344  1.4090  0.7714
  635MOL0     H85681   5.282   6.536   5.639  2.1895  0.0859  0.0811
  635MOL0     H85682   5.221   6.481   5.792 -0.3973 -0.2337 -1.8467
  635MOL0     H85683   5.276   6.271   5.635 -1.4965  1.5374  0.4405
  635MOL0     H85684   5.354   6.272   5.784  1.2948 -2.6431 -1.2146
  635MOL0     H85685   5.617   6.443   5.421  1.1856 -0.8480  3.3658
  635MOL0     H85686   5.795   6.293   5.176  0.3244  1.7926 -1.7803
  635MOL0     H85687   5.663   6.367   5.088  0.5273 -0.1684 -1.6240
  635MOL0     H85688   5.735   6.445   5.237  2.6310 -0.8895 -0.4652
  635MOL0     H85689   5.358   5.875   5.002 -0.0786  0.4091  0.8601
  635MOL0     H85690   5.341   5.760   4.798 -0.7667  0.0288  0.5514
  635MOL0     H85691   5.558   5.758   4.429 -0.5314  0.3079  1.0795
  635MOL0     H85692   5.657   5.859   4.516  1.0892 -0.2616 -0.0674
  635MOL0     H85693   5.815   5.685   4.567 -1.2546  2.0395  2.1891
  635MOL0     H85694   5.688   5.556   4.520  2.6518 -1.4452 -2.4057
  635MOL0     H85695   5.702   5.632   4.285 -0.7998  1.0883 -0.1029
  635MOL0     H85696   5.858   5.584   4.338 -0.8662  1.2762 -2.3208
  635MOL0     H85697   5.808   5.778   4.188 -3.4392 -1.3397  0.1052
  635MOL0     H85698   5.737   5.867   4.314  1.6517  1.2825  0.2051
  635MOL0     H85699   5.991   5.906   4.239 -0.0837  2.3568  1.4501
  635MOL0     H85700   6.021   5.755   4.323 -0.8750 -0.4715 -0.0838
  635MOL0     H85701   5.949   6.023   4.452  3.0578  0.8307  1.2361
  635MOL0     H85702   5.936   5.862   4.529  2.5500 -1.2225  0.4986
  635MOL0     H85703   6.140   6.006   4.562  2.9331 -1.0034  0.2342
  635MOL0     H85704   6.198   5.951   4.410 -2.2180  2.7408  0.1583
  635MOL0     H85705   6.271   5.783   4.561  0.8218 -1.5399 -2.1875
  635MOL0     H85706   6.128   5.700   4.510  0.7481 -0.7471  0.1016
  635MOL0     H85707   5.775   5.784   4.746  0.8936  2.6681  0.8273
  635MOL0     H85708   5.790   5.887   4.954  0.2939  1.0108 -0.1951
  635MOL0     H85709   5.455   5.981   5.335  1.1606  0.6057 -1.9002
  635MOL0     H85710   5.402   6.079   5.544 -1.0525  0.5880  0.1978
  635MOL0     H85711   5.656   7.490   6.609 -1.3320  1.8141  1.0789
  635MOL0     H85712   5.440   7.505   6.711 -2.3647 -2.6929 -1.2877
  635MOL0     H85713   5.142   7.374   7.233  1.9546  0.4578 -0.9510
  635MOL0     H85714   4.891   7.426   7.248  2.2176  1.7077  2.1743
  635MOL0     H85715   4.571   7.593   6.999 -1.5056 -3.1278 -0.1437
  635MOL0     H85716   4.709   7.608   6.877  3.5438 -3.0803 -1.2435
  635MOL0     H85717   4.636   7.329   6.949  3.4724 -1.1555 -2.2025
  635MOL0     H85718   4.708   7.404   6.809  1.3187 -2.8271  1.9055
  635MOL0     H85719   4.429   7.430   6.922  1.7649 -1.3595  1.4409
  635MOL0     H85720   4.463   7.359   6.760  0.7143 -0.5229  1.4363
  635MOL0     H85721   4.544   7.571   6.684  1.4392 -2.2258  0.9636
  635MOL0     H85722   4.478   7.651   6.830  0.0574 -0.8236  2.1351
  635MOL0     H85723   4.104   7.622   6.665  0.1496  3.2254 -1.4445
  635MOL0     H85724   4.914   7.563   6.833  2.2987  2.6450 -0.0713
  635MOL0     H85725   5.141   7.489   6.822 -2.2252  1.4338 -0.7804
  636MOL0     O85726   8.584   2.826   3.434 -0.3423  0.6759 -0.2705
  636MOL0     C85727   8.647   2.721   3.404  0.0537  0.4259 -0.2187
  636MOL0     O85728   8.646   2.610   3.482  0.1973 -0.4781  0.4765
  636MOL0     C85729   8.593   2.619   3.609  0.9337 -0.7303  0.2186
  636MOL0     C85730   8.497   2.528   3.643 -0.3561 -0.0366 -0.6379
  636MOL0     C85731   8.445   2.533   3.776 -0.4297  0.7585  0.3226
  636MOL0     C85732   8.485   2.629   3.863 -0.7607 -0.5716 -1.1267
  636MOL0     O85733   8.410   2.619   3.982 -0.1520 -0.1392  0.4597
  636MOL0     C85734   8.422   2.719   4.080 -0.8895 -0.4454  1.0104
  636MOL0     C85735   8.343   2.681   4.195  1.3909  0.3458  0.4851
  636MOL0     C85736   8.364   2.531   4.229  0.0735 -1.0075  0.5772
  636MOL0     C85737   8.298   2.505   4.365 -0.3783 -0.0272  0.6293
  636MOL0     C85738   8.324   2.360   4.405  0.1101 -0.1890  0.1875
  636MOL0     C85739   8.237   2.333   4.526 -0.5015 -0.3752 -0.5591
  636MOL0     C85740   8.314   2.244   4.628  0.7986 -0.3095  0.7731
  636MOL0     C85741   8.346   2.105   4.545 -0.9811 -0.0371 -0.8249
  636MOL0     N85742   8.380   1.990   4.635 -0.6882  0.0918 -0.4791
  636MOL0     C85743   8.364   1.970   4.765  0.4185 -0.7253 -0.7324
  636MOL0     C85744   8.397   1.843   4.791  0.2228 -0.1666  0.8734
  636MOL0     C85745   8.398   1.781   4.936  1.0512  0.3915  0.6580
  636MOL0     C85746   8.502   1.831   5.031  0.1175  0.8526  1.3235
  636MOL0     C85747   8.540   1.733   5.159 -0.7691 -0.2510 -0.4807
  636MOL0     C85748   8.664   1.786   5.213  0.7486 -0.2034 -0.0659
  636MOL0     O85749   8.674   1.732   5.342 -0.1775  0.4243  0.0865
  636MOL0     C85750   8.799   1.697   5.390  0.3823  0.2302  0.0810
  636MOL0     C85751   8.916   1.751   5.346  0.1884 -0.1944 -1.0773
  636MOL0     C85752   9.040   1.721   5.397  0.9438 -0.2276  0.3140
  636MOL0     C85753   9.164   1.788   5.334 -1.4306  0.1352 -0.5523
  636MOL0     C85754   9.040   1.626   5.506  0.0557  0.5087  0.7294
  636MOL0     C85755   9.166   1.585   5.569  0.5598  0.4265  0.1384
  636MOL0     O85756   9.171   1.454   5.623 -0.2269  0.0492 -0.0953
  636MOL0     C85757   9.292   1.404   5.674 -0.2595 -0.2122 -1.2853
  636MOL0     C85758   9.414   1.416   5.601 -0.0488  0.0468  0.2788
  636MOL0     C85759   9.528   1.355   5.652 -0.5862 -0.0659 -0.1133
  636MOL0     C85760   9.525   1.299   5.784 -1.6162 -0.4851 -0.4815
  636MOL0     O85761   9.639   1.258   5.843 -1.1711  0.8177  0.7368
  636MOL0     C85762   9.752   1.197   5.770  0.5369  0.1287 -0.8141
  636MOL0     C85763   9.867   1.158   5.869  1.1110  0.1575 -1.0813
  636MOL0     C85764   9.999   1.132   5.798 -0.4903  0.5039  0.3983
  636MOL0     C85765  10.093   1.037   5.877 -0.5390 -0.4210  0.3021
  636MOL0     C85766  10.231   1.039   5.818 -0.3505  0.2163  0.8694
  636MOL0     C85767  10.233   0.975   5.678 -0.6329  0.3130  0.1572
  636MOL0     C85768  10.167   0.834   5.659 -0.2467  0.7384  0.6470
  636MOL0     C85769  10.257   0.724   5.593 -0.2202  0.4103  0.2901
  636MOL0    Cl85770  10.153   0.607   5.512 -0.1657 -0.4624  0.4719
  636MOL0     C85771   9.416   1.292   5.863  0.6393 -0.1680  0.5748
  636MOL0     C85772   9.295   1.347   5.808  0.4412  1.0412  0.6741
  636MOL0     O85773   9.262   1.655   5.573  0.6066 -0.5206 -0.2716
  636MOL0     C85774   8.920   1.580   5.559  0.1348  0.7828 -0.1139
  636MOL0     C85775   8.803   1.615   5.496  0.1215  0.1081  0.6946
  636MOL0     N85776   8.420   1.787   4.671 -0.6524 -0.0502 -0.0271
  636MOL0     N85777   8.417   1.875   4.578 -0.6993 -0.0805 -0.1310
  636MOL0     C85778   8.584   2.722   3.830  0.1562  0.8124 -0.1109
  636MOL0     C85779   8.648   2.719   3.697  0.1812  0.2240 -0.9133
  636MOL0     C85780   8.717   2.710   3.280 -1.2743  0.2904 -0.1024
  636MOL0     C85781   8.813   2.611   3.262  0.7078 -0.5726  0.3328
  636MOL0     C85782   8.879   2.609   3.139 -0.4040 -0.0942  0.0762
  636MOL0     C85783   8.856   2.691   3.032 -0.0407 -0.8453  0.3271
  636MOL0     O85784   8.937   2.706   2.921 -0.6503 -0.6278  0.4405
  636MOL0     C85785   8.917   2.632   2.802  0.2333  0.2722 -1.3850
  636MOL0     C85786   8.989   2.713   2.683 -0.7808  0.2361  0.5417
  636MOL0     C85787   9.133   2.665   2.646  0.5759  0.0262  0.6591
  636MOL0     C85788   9.226   2.691   2.761  0.1909 -0.2817 -0.1363
  636MOL0     C85789   9.361   2.648   2.734  0.0511 -0.3297  0.3115
  636MOL0     C85790   9.473   2.599   2.737  0.0809  1.1537 -0.9008
  636MOL0     C85791   8.752   2.782   3.042 -0.0161 -0.0496  0.6207
  636MOL0     C85792   8.691   2.793   3.169  0.3183  0.4484 -0.0969
  636MOL0     H85793   8.481   2.437   3.586  1.7510 -1.7479  1.2893
  636MOL0     H85794   8.371   2.458   3.803  0.3436 -1.2528 -2.6917
  636MOL0     H85795   8.527   2.699   4.106 -0.6524 -1.9056 -0.8465
  636MOL0     H85796   8.411   2.825   4.058  0.2846 -0.0093  2.3540
  636MOL0     H85797   8.379   2.741   4.279  3.7587  2.0534 -1.5705
  636MOL0     H85798   8.240   2.714   4.178  0.7069 -1.8705  0.0228
  636MOL0     H85799   8.321   2.469   4.150  0.1622 -0.6173  0.2127
  636MOL0     H85800   8.467   2.494   4.221  0.2752 -0.1098 -3.6172
  636MOL0     H85801   8.345   2.561   4.447 -2.6740 -2.3719  3.8034
  636MOL0     H85802   8.192   2.530   4.359 -0.5872  0.0104  3.1425
  636MOL0     H85803   8.302   2.287   4.327 -3.0055  1.3353 -0.5548
  636MOL0     H85804   8.425   2.337   4.439 -1.0735 -2.6978  2.3928
  636MOL0     H85805   8.222   2.426   4.582  0.2064 -1.4062  1.4571
  636MOL0     H85806   8.138   2.294   4.500 -0.9192 -0.5853  1.2035
  636MOL0     H85807   8.399   2.305   4.662 -2.5565  3.7360  2.8410
  636MOL0     H85808   8.255   2.224   4.718  1.0998 -0.0278  1.0351
  636MOL0     H85809   8.436   2.133   4.488  0.4829  2.1519  2.2611
  636MOL0     H85810   8.257   2.084   4.486 -1.6553  1.5250 -0.4167
  636MOL0     H85811   8.327   2.039   4.840 -0.8614  0.7227 -2.5968
  636MOL0     H85812   8.304   1.809   4.984 -0.2557  0.4981 -1.7774
  636MOL0     H85813   8.401   1.673   4.923 -1.0013  0.3037  0.6573
  636MOL0     H85814   8.476   1.932   5.065  0.6509  1.1336  0.9113
  636MOL0     H85815   8.590   1.839   4.967 -1.2817 -3.5428 -1.5850
  636MOL0     H85816   8.572   1.632   5.135  2.4769  0.3904  0.5999
  636MOL0     H85817   8.456   1.731   5.230 -1.9194 -0.3099 -1.8100
  636MOL0     H85818   8.674   1.894   5.220  0.0693  0.1989 -3.4655
  636MOL0     H85819   8.744   1.754   5.145  0.6219  0.3555 -0.4858
  636MOL0     H85820   8.914   1.816   5.258 -1.3073 -0.0279 -0.9573
  636MOL0     H85821   9.153   1.831   5.234 -0.3822  3.5614  0.6447
  636MOL0     H85822   9.189   1.876   5.394  3.1333 -1.0083 -0.4268
  636MOL0     H85823   9.249   1.719   5.332 -1.6329 -0.1207 -0.3798
  636MOL0     H85824   9.411   1.443   5.496  2.7524 -0.8814 -0.1054
  636MOL0     H85825   9.618   1.347   5.591 -1.3853 -1.4948 -1.1751
  636MOL0     H85826   9.722   1.101   5.727 -2.2947  0.2924  0.5453
  636MOL0     H85827   9.781   1.261   5.687  0.6896  1.9634  0.6044
  636MOL0     H85828   9.885   1.250   5.926 -2.8741  0.3460  0.1357
  636MOL0     H85829   9.826   1.072   5.922  1.8617  1.4555  1.8044
  636MOL0     H85830  10.055   1.220   5.765 -0.1391  0.0518 -0.2578
  636MOL0     H85831   9.988   1.080   5.702  0.7718  4.7949 -2.3584
  636MOL0     H85832  10.097   1.056   5.984 -2.5087 -0.2406  0.3836
  636MOL0     H85833  10.064   0.932   5.871  1.3307 -0.9153 -1.2197
  636MOL0     H85834  10.289   0.978   5.888  1.9524  1.2186 -0.0492
  636MOL0     H85835  10.276   1.138   5.807  2.4625 -0.9209  1.3404
  636MOL0     H85836  10.188   1.037   5.600  4.2265  4.3074  0.0372
  636MOL0     H85837  10.338   0.963   5.651  0.0820 -0.0369  2.8653
  636MOL0     H85838  10.094   0.847   5.579  1.0954  2.1206 -0.4226
  636MOL0     H85839  10.109   0.803   5.746  1.0276  1.6709  1.8791
  636MOL0     H85840  10.299   0.666   5.676 -1.1262  0.1375  0.5773
  636MOL0     H85841  10.342   0.753   5.531 -2.0471  0.9691 -2.0798
  636MOL0     H85842   9.419   1.232   5.953 -2.4033 -2.4715 -0.6679
  636MOL0     H85843   9.197   1.343   5.853 -1.2433  2.6886 -2.4568
  636MOL0     H85844   8.914   1.504   5.636 -2.5873  2.1778  1.1930
  636MOL0     H85845   8.706   1.571   5.517 -0.2086  0.6765  0.3897
  636MOL0     H85846   8.611   2.800   3.900 -4.7666  1.9781  0.8871
  636MOL0     H85847   8.712   2.802   3.669  1.9956 -1.0525 -0.7519
  636MOL0     H85848   8.840   2.542   3.341  0.3420 -4.2170 -2.4761
  636MOL0     H85849   8.962   2.541   3.124 -0.1338 -0.0305  1.1881
  636MOL0     H85850   8.966   2.543   2.843  1.6574  2.5597  2.3957
  636MOL0     H85851   8.811   2.612   2.784 -0.1413  2.1570 -1.4385
  636MOL0     H85852   8.992   2.812   2.729 -3.5728 -0.7564  3.1987
  636MOL0     H85853   8.929   2.723   2.592 -3.7817  2.4807  2.5868
  636MOL0     H85854   9.170   2.728   2.565 -2.1108  0.5827 -0.2391
  636MOL0     H85855   9.119   2.562   2.612 -0.7719  1.2293 -2.8614
  636MOL0     H85856   9.192   2.635   2.849  0.0516 -0.3319 -0.2223
  636MOL0     H85857   9.247   2.795   2.787  2.4079 -0.4156 -1.1634
  636MOL0     H85858   9.571   2.554   2.740 -0.5937 -0.3752 -0.8145
  636MOL0     H85859   8.740   2.835   2.948  2.3143 -0.9539 -0.2816
  636MOL0     H85860   8.605   2.859   3.180  0.7546  1.8352 -3.6610
  637MOL0     O85861   2.211   8.694   4.588  1.2837 -0.2331 -0.6293
  637MOL0     C85862   2.160   8.620   4.675 -0.1659  0.2029 -0.3480
  637MOL0     O85863   2.220   8.592   4.797 -0.8190  0.8213 -0.0008
  637MOL0     C85864   2.328   8.659   4.848  0.8837  0.1798  0.7847
  637MOL0     C85865   2.330   8.797   4.878 -0.3879 -0.0395  0.9001
  637MOL0     C85866   2.438   8.856   4.931  0.0015  0.2587 -0.8087
  637MOL0     C85867   2.549   8.783   4.968 -0.4887  0.8217  1.2238
  637MOL0     O85868   2.661   8.823   5.040 -0.4343  0.4090  0.0176
  637MOL0     C85869   2.750   8.922   4.974  0.4623 -0.9771  0.1372
  637MOL0     C85870   2.842   8.963   5.085  0.1474  0.2887 -0.8756
  637MOL0     C85871   2.944   9.062   5.025 -0.1453 -0.1850  0.9073
  637MOL0     C85872   2.900   9.213   5.028  0.0870  1.6655  0.3425
  637MOL0     C85873   2.996   9.307   4.955 -0.0400  0.6736  1.0195
  637MOL0     C85874   2.974   9.305   4.802 -0.1747  0.7149 -0.4307
  637MOL0     C85875   3.009   9.441   4.738  0.3722 -0.7456  0.6778
  637MOL0     C85876   2.976   9.447   4.587 -0.5223  0.7822  0.5242
  637MOL0     N85877   3.064   9.554   4.527  0.7330 -0.4588 -1.2856
  637MOL0     C85878   3.199   9.567   4.539  0.2651 -0.5353  0.3049
  637MOL0     C85879   3.229   9.682   4.472  0.0301 -1.1419 -0.5937
  637MOL0     C85880   3.363   9.750   4.468 -0.1076  0.4306 -0.3556
  637MOL0     C85881   3.349   9.905   4.479  0.5529 -0.1289 -0.0845
  637MOL0     C85882   3.333   9.949   4.336  1.1066  0.1167 -0.0001
  637MOL0     C85883   3.257  10.084   4.323  0.5607  0.8198  0.4434
  637MOL0     O85884   3.330  10.184   4.246 -0.2753  0.4493 -0.9934
  637MOL0     C85885   3.421  10.264   4.308  0.0892 -0.9763  0.3240
  637MOL0     C85886   3.498  10.358   4.232 -0.3817  0.2731  1.0744
  637MOL0     C85887   3.612  10.423   4.285  0.2955 -0.7150  0.3190
  637MOL0     C85888   3.675  10.519   4.188 -0.2179 -0.2005  0.7614
  637MOL0     C85889   3.647  10.407   4.421  0.3031 -0.2926  1.0464
  637MOL0     C85890   3.755  10.476   4.492  0.7122  0.2215 -1.3751
  637MOL0     O85891   3.772  10.449   4.630  0.1097 -0.1713 -0.1403
  637MOL0     C85892   3.885  10.505   4.695 -0.5053  0.1374  0.0816
  637MOL0     C85893   3.979  10.412   4.750 -0.0635  0.9000  0.3626
  637MOL0     C85894   4.086  10.452   4.837 -0.3256 -0.6984  0.4345
  637MOL0     C85895   4.121  10.587   4.852 -0.6141  0.6192 -0.1392
  637MOL0     O85896   4.236  10.619   4.931  0.3938  0.2141  0.8277
  637MOL0     C85897   4.200  10.716   5.020  0.2449  0.4211 -0.5673
  637MOL0     C85898   4.295  10.726   5.145 -0.4185 -0.2315  0.5349
  637MOL0     C85899   4.440  10.747   5.095 -0.0792 -0.4773  0.3771
  637MOL0     C85900   4.546  10.764   5.199  1.2443 -0.4482  0.7063
  637MOL0     C85901   4.687  10.772   5.129  0.9989 -0.5816 -0.0979
  637MOL0     C85902   4.789  10.770   5.244  0.4935 -0.6492  0.1316
  637MOL0     C85903   4.778  10.896   5.343  0.7812  0.5777  0.8297
  637MOL0     C85904   4.759  10.835   5.478  0.0911 -0.2885  0.5747
  637MOL0    Cl85905   4.906  10.746   5.541  0.1138  0.2367 -0.0366
  637MOL0     C85906   4.038  10.681   4.776  0.5059  0.4647 -0.4182
  637MOL0     C85907   3.921  10.643   4.711  0.3228 -0.9625  0.5323
  637MOL0     O85908   3.805  10.568   4.430  0.1612  0.6175  0.3695
  637MOL0     C85909   3.563  10.327   4.498 -0.7718  0.4086 -0.2572
  637MOL0     C85910   3.465  10.250   4.439  0.5436 -0.0808 -1.3473
  637MOL0     N85911   3.117   9.735   4.418  0.2071  0.3934  0.2097
  637MOL0     N85912   3.021   9.659   4.450 -0.4431  0.8167  0.4348
  637MOL0     C85913   2.543   8.652   4.935 -0.1566  0.0015 -0.5789
  637MOL0     C85914   2.436   8.585   4.881 -0.9829  0.3122 -0.0107
  637MOL0     C85915   2.023   8.563   4.651 -0.6146 -1.0021  0.1450
  637MOL0     C85916   1.926   8.623   4.561  0.2179 -0.0743  0.2218
  637MOL0     C85917   1.803   8.570   4.548 -0.3798  0.1634 -0.3565
  637MOL0     C85918   1.760   8.461   4.610  0.1396  0.5360 -1.0337
  637MOL0     O85919   1.641   8.407   4.592 -0.1894 -0.5954 -0.6837
  637MOL0     C85920   1.544   8.481   4.668 -0.4156 -0.1266 -0.3849
  637MOL0     C85921   1.413   8.424   4.632  0.4157  0.7032  0.0276
  637MOL0     C85922   1.287   8.505   4.675  0.6828  0.7843 -1.3875
  637MOL0     C85923   1.281   8.628   4.579  0.4618  0.7494 -0.2070
  637MOL0     C85924   1.288   8.756   4.653  0.4025 -0.0843  0.6332
  637MOL0     C85925   1.286   8.859   4.715 -0.0644  1.2187 -0.4969
  637MOL0     C85926   1.853   8.406   4.705  0.4258  0.4094  0.5469
  637MOL0     C85927   1.984   8.454   4.725  0.5462 -0.6156 -0.0357
  637MOL0     H85928   2.246   8.861   4.853  0.5970  0.4641 -1.3503
  637MOL0     H85929   2.437   8.965   4.936  1.0272  0.2831 -0.8949
  637MOL0     H85930   2.809   8.881   4.891  0.8999  0.9038 -0.5305
  637MOL0     H85931   2.687   9.002   4.935 -0.8390 -3.3368 -3.0352
  637MOL0     H85932   2.783   9.003   5.169 -0.8746 -4.2695  0.8964
  637MOL0     H85933   2.897   8.873   5.114 -0.5491 -0.3128 -1.3726
  637MOL0     H85934   3.043   9.047   5.070  0.5381 -0.1011 -0.5248
  637MOL0     H85935   2.964   9.024   4.925 -3.5425  3.9943 -1.7052
  637MOL0     H85936   2.798   9.228   4.993  0.3853 -0.1129 -1.4926
  637MOL0     H85937   2.904   9.238   5.135 -1.3534 -2.0793  1.4466
  637MOL0     H85938   2.979   9.404   5.002  0.3106  0.3422  1.8576
  637MOL0     H85939   3.099   9.280   4.980  0.5759  0.4155 -1.5027
  637MOL0     H85940   3.033   9.226   4.754 -1.7917 -1.6071  1.2042
  637MOL0     H85941   2.871   9.282   4.775  0.0977 -1.2750  0.0917
  637MOL0     H85942   2.939   9.505   4.791 -0.3341 -2.4525  1.8820
  637MOL0     H85943   3.115   9.467   4.752  0.5003 -0.2491 -0.9841
  637MOL0     H85944   2.870   9.459   4.565 -0.4911  1.8676  0.8821
  637MOL0     H85945   3.011   9.350   4.551 -2.2590 -0.5832  2.2978
  637MOL0     H85946   3.260   9.494   4.591 -0.1256  0.0784  1.6481
  637MOL0     H85947   3.420   9.715   4.555  0.3551  0.4703 -0.6406
  637MOL0     H85948   3.418   9.714   4.381 -1.5169 -0.3388 -0.9573
  637MOL0     H85949   3.446   9.945   4.510  0.3815  2.3812 -2.3887
  637MOL0     H85950   3.268   9.918   4.550 -0.9149 -2.1871 -1.2750
  637MOL0     H85951   3.275   9.875   4.281 -1.3402  0.8906  1.3787
  637MOL0     H85952   3.429   9.958   4.283  2.2264 -3.0376  1.2460
  637MOL0     H85953   3.225  10.128   4.418 -2.8922  0.9511 -0.6358
  637MOL0     H85954   3.167  10.076   4.262  1.6062 -0.1116 -1.0638
  637MOL0     H85955   3.458  10.371   4.132  2.0232  0.9169  0.1078
  637MOL0     H85956   3.662  10.618   4.232 -0.8811 -0.0759  0.3040
  637MOL0     H85957   3.782  10.505   4.166 -0.5078  0.7526 -1.6377
  637MOL0     H85958   3.630  10.517   4.088  0.9026 -0.3887  0.2433
  637MOL0     H85959   3.961  10.310   4.717 -1.3505  0.6605  1.6825
  637MOL0     H85960   4.161  10.382   4.872  2.7532  3.0244  1.8667
  637MOL0     H85961   4.215  10.814   4.973  2.4072  0.1032 -0.6607
  637MOL0     H85962   4.099  10.707   5.059  0.4212 -0.7099 -0.3215
  637MOL0     H85963   4.267  10.818   5.197  1.4603  1.0926 -0.6719
  637MOL0     H85964   4.280  10.635   5.204  1.2018  0.5864  2.3274
  637MOL0     H85965   4.448  10.828   5.022  3.4680 -1.3845 -0.4240
  637MOL0     H85966   4.444  10.655   5.037 -0.3276 -0.6708  0.6644
  637MOL0     H85967   4.518  10.854   5.254  0.2023  0.3316 -1.0165
  637MOL0     H85968   4.535  10.683   5.272 -3.5420  0.0518  0.8914
  637MOL0     H85969   4.695  10.863   5.070  1.5894 -3.3272 -4.7802
  637MOL0     H85970   4.715  10.699   5.053  1.1675 -1.2009  0.5466
  637MOL0     H85971   4.777  10.677   5.300  0.5692 -1.0248 -0.4635
  637MOL0     H85972   4.888  10.773   5.198 -0.3998 -0.1843 -1.8858
  637MOL0     H85973   4.705  10.971   5.312 -1.2958 -1.1309  1.3697
  637MOL0     H85974   4.877  10.944   5.350  2.3256 -2.0714 -0.9165
  637MOL0     H85975   4.674  10.766   5.486  0.8942 -1.8838 -2.7541
  637MOL0     H85976   4.742  10.921   5.543 -0.6597  0.1116 -0.1308
  637MOL0     H85977   4.074  10.781   4.797  4.5046 -1.5708  4.8605
  637MOL0     H85978   3.846  10.717   4.685  1.6701  0.1267 -0.4503
  637MOL0     H85979   3.584  10.302   4.601  0.0508  2.3957  0.1166
  637MOL0     H85980   3.404  10.184   4.499 -0.7792  1.3983 -0.9986
  637MOL0     H85981   2.634   8.595   4.953  0.1169  1.5379  4.3530
  637MOL0     H85982   2.450   8.478   4.871  3.3489  0.7833 -0.8456
  637MOL0     H85983   1.955   8.715   4.509 -0.2692  0.6949  1.2849
  637MOL0     H85984   1.738   8.631   4.486 -1.2448  1.1717  1.4692
  637MOL0     H85985   1.575   8.480   4.773  1.2298 -2.1124 -0.8316
  637MOL0     H85986   1.550   8.585   4.636 -0.2195  0.1039  0.3852
  637MOL0     H85987   1.422   8.327   4.682  4.1163  2.0078  2.2728
  637MOL0     H85988   1.418   8.398   4.526 -0.1475  0.0910  0.1415
  637MOL0     H85989   1.295   8.537   4.779 -0.1591 -2.2936 -0.2721
  637MOL0     H85990   1.199   8.441   4.683  1.7513 -0.7363  6.4902
  637MOL0     H85991   1.185   8.618   4.528  1.3744 -1.2844 -1.6615
  637MOL0     H85992   1.362   8.624   4.505 -1.2428 -2.1373 -2.1098
  637MOL0     H85993   1.296   8.956   4.760 -1.3972  1.4732 -0.6874
  637MOL0     H85994   1.809   8.320   4.755  0.1233 -0.6012 -1.3481
  637MOL0     H85995   2.043   8.412   4.805 -2.6511 -3.5213  1.0619
  638MOL0     O85996   2.844   5.346  11.543  0.2790 -0.6130 -0.5740
  638MOL0     C85997   2.876   5.405  11.440  0.0128 -0.5980  0.9912
  638MOL0     O85998   2.916   5.538  11.435  0.8143  0.9375  0.0804
  638MOL0     C85999   2.896   5.632  11.529  0.0856  0.1316 -0.5591
  638MOL0     C86000   2.892   5.607  11.668  0.4270 -0.0605 -1.2970
  638MOL0     C86001   2.860   5.705  11.757 -0.5271 -0.2618 -0.2241
  638MOL0     C86002   2.842   5.834  11.720 -0.5356 -0.0809  0.2307
  638MOL0     O86003   2.796   5.921  11.820  0.0325 -0.1267  0.1481
  638MOL0     C86004   2.836   6.055  11.824  0.5580 -0.3641  0.2501
  638MOL0     C86005   2.823   6.116  11.966 -0.0713  1.2772 -0.8720
  638MOL0     C86006   2.869   6.255  11.961  0.6135  0.0417 -0.4255
  638MOL0     C86007   3.010   6.271  12.029  0.1153 -0.2583  0.3318
  638MOL0     C86008   3.081   6.402  12.010 -0.1803 -0.6767 -0.1649
  638MOL0     C86009   3.117   6.426  11.867  0.0851 -0.4250 -0.4443
  638MOL0     C86010   3.186   6.566  11.851  0.0802  0.2071 -1.0072
  638MOL0     C86011   3.231   6.585  11.706  0.6186  0.0999 -0.6193
  638MOL0     N86012   3.269   6.721  11.687  0.2269 -0.8222 -0.5746
  638MOL0     C86013   3.202   6.839  11.729  0.5258 -0.1042  0.2350
  638MOL0     C86014   3.272   6.941  11.678  0.0154  0.3358  0.1042
  638MOL0     C86015   3.248   7.089  11.684  0.5608 -1.1673 -0.6729
  638MOL0     C86016   3.175   7.148  11.561 -0.8691  0.3702 -0.0583
  638MOL0     C86017   3.129   7.294  11.596 -0.4395  0.3341  0.8527
  638MOL0     C86018   3.240   7.400  11.580 -0.8114 -0.0411 -0.7755
  638MOL0     O86019   3.294   7.406  11.447  0.2480  0.6700 -0.0217
  638MOL0     C86020   3.396   7.498  11.428 -0.3540 -0.8097  0.0441
  638MOL0     C86021   3.426   7.524  11.296  0.4353 -1.0183  0.2440
  638MOL0     C86022   3.502   7.636  11.251 -0.4318  0.3791  0.2909
  638MOL0     C86023   3.523   7.648  11.104  0.0360 -0.0896  0.3693
  638MOL0     C86024   3.570   7.709  11.355  0.5539 -0.0521 -0.4833
  638MOL0     C86025   3.644   7.837  11.330  0.6145 -0.6988  0.3167
  638MOL0     O86026   3.709   7.860  11.202 -0.2812 -0.3003 -0.2517
  638MOL0     C86027   3.810   7.952  11.200  0.5464  0.6961 -0.9263
  638MOL0     C86028   3.939   7.892  11.207  1.1522 -0.1213  0.2946
  638MOL0     C86029   4.051   7.977  11.190 -0.6475 -0.6943 -1.1113
  638MOL0     C86030   4.021   8.115  11.157 -1.0950  0.6306 -0.8529
  638MOL0     O86031   4.123   8.205  11.155 -0.8487 -0.6705  0.3777
  638MOL0     C86032   4.156   8.272  11.280  0.4161  0.1036 -0.1196
  638MOL0     C86033   4.243   8.394  11.249  0.3995 -0.3301 -0.4435
  638MOL0     C86034   4.358   8.339  11.166 -0.1631 -0.0855  0.1125
  638MOL0     C86035   4.468   8.441  11.167 -0.1015  0.0194 -0.0118
  638MOL0     C86036   4.565   8.411  11.045  0.1761  0.0777 -0.0207
  638MOL0     C86037   4.671   8.317  11.054 -0.4480  0.1932 -0.2919
  638MOL0     C86038   4.780   8.340  10.950 -0.3632  0.9679  0.4097
  638MOL0     C86039   4.861   8.211  10.942 -0.0196  0.3646  0.7964
  638MOL0    Cl86040   5.019   8.251  10.888  0.1241 -0.5902 -0.0014
  638MOL0     C86041   3.889   8.158  11.145  0.3619  1.1018  0.2659
  638MOL0     C86042   3.783   8.080  11.167 -0.1630 -0.7480  0.2339
  638MOL0     O86043   3.640   7.923  11.419  0.5184 -0.4870  0.5647
  638MOL0     C86044   3.548   7.674  11.491  0.1801  0.2090  0.5421
  638MOL0     C86045   3.467   7.572  11.528  0.7771  0.5502 -0.3780
  638MOL0     N86046   3.384   6.883  11.621 -0.0098 -0.1427 -0.9262
  638MOL0     N86047   3.381   6.753  11.624  0.0758 -0.2891  0.1204
  638MOL0     C86048   2.864   5.866  11.587  0.4769  0.0835 -0.0875
  638MOL0     C86049   2.887   5.761  11.490 -0.6458  0.4117  1.1182
  638MOL0     C86050   2.883   5.333  11.306 -0.2937 -0.1402  0.2399
  638MOL0     C86051   2.863   5.413  11.190 -0.5939 -0.0892 -0.9769
  638MOL0     C86052   2.881   5.348  11.072 -0.4936  0.0685 -0.3012
  638MOL0     C86053   2.899   5.210  11.061 -0.0887  0.5505  0.4285
  638MOL0     O86054   2.921   5.149  10.939  0.5175  0.4913  0.4953
  638MOL0     C86055   2.921   5.006  10.935 -0.4645 -0.6309 -0.3802
  638MOL0     C86056   2.899   4.968  10.785 -0.5476 -0.2099  0.9131
  638MOL0     C86057   3.021   4.991  10.702 -0.0096  0.4919  0.1086
  638MOL0     C86058   3.006   4.952  10.550 -1.2187 -1.0448 -0.3383
  638MOL0     C86059   2.968   4.818  10.528  0.5801  0.1647  0.0644
  638MOL0     C86060   2.935   4.700  10.513 -0.2679  0.7582 -0.4012
  638MOL0     C86061   2.885   5.131  11.175  0.2341 -0.1245  0.1187
  638MOL0     C86062   2.883   5.195  11.301  0.1482  0.5611 -0.5764
  638MOL0     H86063   2.907   5.517  11.726  0.3340  1.1424  0.6763
  638MOL0     H86064   2.847   5.682  11.862  0.4247 -1.7466 -0.4078
  638MOL0     H86065   2.940   6.067  11.793 -0.0912  0.4388 -1.8246
  638MOL0     H86066   2.783   6.107  11.743  0.8852  2.0642  1.4983
  638MOL0     H86067   2.719   6.113  12.001 -0.0491 -0.6995 -0.8444
  638MOL0     H86068   2.889   6.058  12.032 -0.5631  0.0200 -1.4453
  638MOL0     H86069   2.867   6.292  11.858  0.8345 -0.6202 -0.6689
  638MOL0     H86070   2.807   6.327  12.015 -0.3582  1.0350 -2.7206
  638MOL0     H86071   2.998   6.265  12.138  1.9665  2.4372  0.7928
  638MOL0     H86072   3.077   6.187  12.010  2.2643  0.3894  4.1370
  638MOL0     H86073   3.011   6.480  12.040 -0.2315 -0.6622 -0.3221
  638MOL0     H86074   3.169   6.405  12.075 -0.6762 -1.1485  0.5486
  638MOL0     H86075   3.176   6.343  11.827 -0.1269 -1.3382  1.0508
  638MOL0     H86076   3.024   6.442  11.812 -1.4169  0.2663  2.1044
  638MOL0     H86077   3.116   6.646  11.875  0.2129  0.1158 -0.2931
  638MOL0     H86078   3.273   6.572  11.917  1.6168  2.2557 -3.0410
  638MOL0     H86079   3.150   6.552  11.640 -0.2563  1.3351 -0.1983
  638MOL0     H86080   3.307   6.508  11.689  0.7514  0.2222 -0.5763
  638MOL0     H86081   3.116   6.857  11.793  0.6483  4.0515 -0.4508
  638MOL0     H86082   3.186   7.103  11.773 -3.2765 -1.3639 -3.1066
  638MOL0     H86083   3.348   7.134  11.685  0.4725 -0.9748 -0.0298
  638MOL0     H86084   3.089   7.087  11.533  0.0215 -0.0132 -2.1282
  638MOL0     H86085   3.251   7.157  11.483 -1.0646  4.0262  0.0095
  638MOL0     H86086   3.094   7.310  11.698  1.4348  1.0476  1.4216
  638MOL0     H86087   3.063   7.336  11.519  2.0291  0.6835 -1.2128
  638MOL0     H86088   3.321   7.376  11.650 -1.7984  0.6852  0.6825
  638MOL0     H86089   3.199   7.498  11.608  0.2868 -0.2106  1.6881
  638MOL0     H86090   3.381   7.460  11.220 -1.2167 -0.7591  0.9428
  638MOL0     H86091   3.460   7.580  11.046  2.0309 -0.8505 -1.0184
  638MOL0     H86092   3.506   7.751  11.069 -1.1647 -1.2211 -2.7581
  638MOL0     H86093   3.619   7.619  11.061 -0.8583  0.6671 -2.4007
  638MOL0     H86094   3.950   7.784  11.215  2.6335  0.0415  0.7112
  638MOL0     H86095   4.147   7.931  11.213 -1.7122 -3.5044 -1.8743
  638MOL0     H86096   4.065   8.304  11.331  1.7710  0.8229  1.9857
  638MOL0     H86097   4.202   8.192  11.340  0.9270  0.5754  0.1312
  638MOL0     H86098   4.174   8.464  11.200 -0.0112 -0.8217 -0.5800
  638MOL0     H86099   4.273   8.450  11.337  1.6389 -1.1030 -0.3464
  638MOL0     H86100   4.317   8.325  11.065 -0.5838 -4.2593  0.6982
  638MOL0     H86101   4.392   8.238  11.190  0.4972  0.1296  0.1245
  638MOL0     H86102   4.444   8.543  11.137  4.0098  1.2636  0.2438
  638MOL0     H86103   4.512   8.433  11.267 -0.0835  1.1627  0.0750
  638MOL0     H86104   4.603   8.508  11.014 -2.6978  0.2386 -3.7618
  638MOL0     H86105   4.508   8.378  10.957 -1.0286 -6.3504  2.5837
  638MOL0     H86106   4.720   8.337  11.151  1.0031  1.2790 -1.2018
  638MOL0     H86107   4.626   8.218  11.046  0.2981 -0.1274 -0.5715
  638MOL0     H86108   4.844   8.427  10.968 -1.3714  1.7898  0.1520
  638MOL0     H86109   4.732   8.369  10.856  1.0798  0.6434 -0.4582
  638MOL0     H86110   4.803   8.147  10.875 -0.6671  1.9745 -0.2752
  638MOL0     H86111   4.875   8.151  11.032  2.6328 -3.7940 -2.0531
  638MOL0     H86112   3.883   8.263  11.119  0.5671  1.1202  0.2864
  638MOL0     H86113   3.688   8.130  11.152  0.3998  0.0814 -0.7134
  638MOL0     H86114   3.611   7.719  11.567 -0.4905  1.5717  0.3245
  638MOL0     H86115   3.447   7.565  11.635  1.0660  1.8020 -0.2279
  638MOL0     H86116   2.854   5.970  11.557  0.9713 -0.3802 -1.9750
  638MOL0     H86117   2.892   5.786  11.384  0.5402 -1.7622  0.5991
  638MOL0     H86118   2.831   5.515  11.210 -2.0468 -0.1041 -2.9013
  638MOL0     H86119   2.866   5.402  10.979  0.7459 -1.2897 -1.3396
  638MOL0     H86120   3.013   4.960  10.971 -1.5247 -1.1142  1.8911
  638MOL0     H86121   2.849   4.968  11.008  1.8746  0.9184  2.9952
  638MOL0     H86122   2.821   5.028  10.737  0.4330  1.5604  1.4347
  638MOL0     H86123   2.879   4.861  10.774 -1.4131 -0.1098  1.4339
  638MOL0     H86124   3.110   4.956  10.755  0.3598  2.5460  0.9380
  638MOL0     H86125   3.043   5.097  10.693  0.4329  0.4481  0.6109
  638MOL0     H86126   3.096   4.982  10.497 -0.6741 -0.9046  0.6492
  638MOL0     H86127   2.935   5.023  10.507 -1.5811 -1.4633 -0.4394
  638MOL0     H86128   2.905   4.598  10.507  2.4511 -0.1627  0.1036
  638MOL0     H86129   2.901   5.024  11.183  2.4709  0.2218  0.8380
  638MOL0     H86130   2.871   5.135  11.391 -1.0388  0.4779 -0.7822
  639MOL0     O86131   8.366   0.695   6.599 -0.5117 -0.1794  0.2691
  639MOL0     C86132   8.258   0.689   6.549  0.0175 -0.4470  0.2427
  639MOL0     O86133   8.191   0.573   6.511 -0.3390  0.4130 -0.6367
  639MOL0     C86134   8.264   0.458   6.485 -0.2231  1.1258  0.0399
  639MOL0     C86135   8.203   0.337   6.533 -0.7671 -0.7438  0.2079
  639MOL0     C86136   8.261   0.210   6.496  1.4191 -0.3304  1.0871
  639MOL0     C86137   8.356   0.209   6.405 -0.5826  0.7378  0.1378
  639MOL0     O86138   8.391   0.081   6.367  0.2235  0.8194  0.6317
  639MOL0     C86139   8.488   0.052   6.265  0.5650  0.6267  1.4595
  639MOL0     C86140   8.477  -0.098   6.233 -0.2653 -1.3986  0.3346
  639MOL0     C86141   8.492  -0.179   6.360  0.1808  0.0525  0.5133
  639MOL0     C86142   8.579  -0.304   6.338 -0.3368  0.5785 -0.2001
  639MOL0     C86143   8.567  -0.424   6.447 -0.9588  0.3880 -0.4015
  639MOL0     C86144   8.651  -0.535   6.395 -0.3786 -0.2307  0.9375
  639MOL0     C86145   8.714  -0.637   6.488  0.2166 -0.1940  0.3183
  639MOL0     C86146   8.604  -0.702   6.579  0.5657 -0.5010  0.0937
  639MOL0     N86147   8.677  -0.779   6.684  0.6493 -0.0113  0.2961
  639MOL0     C86148   8.717  -0.909   6.665 -0.2369 -0.3438 -0.2521
  639MOL0     C86149   8.739  -0.960   6.788 -0.3832  1.2532  0.3550
  639MOL0     C86150   8.746  -1.113   6.795 -0.0317 -0.8610 -0.6854
  639MOL0     C86151   8.606  -1.175   6.824 -0.6433  0.9838 -0.1381
  639MOL0     C86152   8.518  -1.093   6.929 -0.8987 -0.2855 -0.1149
  639MOL0     C86153   8.398  -1.182   6.978 -1.0354 -0.0275 -0.3652
  639MOL0     O86154   8.287  -1.106   7.032  0.2963  0.0160  0.6942
  639MOL0     C86155   8.175  -1.168   7.093 -0.3433 -0.5592 -0.1180
  639MOL0     C86156   8.101  -1.110   7.201 -0.0908  0.9640  0.0754
  639MOL0     C86157   7.999  -1.177   7.268 -0.2378 -0.1025 -0.5473
  639MOL0     C86158   7.951  -1.119   7.403  0.9747 -1.1677  0.9723
  639MOL0     C86159   7.963  -1.305   7.226 -0.2134  0.6167 -0.5131
  639MOL0     C86160   7.858  -1.403   7.279 -0.7193 -1.2689 -1.0983
  639MOL0     O86161   7.882  -1.535   7.262  0.3399 -0.4003 -0.3219
  639MOL0     C86162   7.800  -1.632   7.329 -0.3149 -0.9593  0.7557
  639MOL0     C86163   7.822  -1.666   7.463  0.1581  1.6442  0.4060
  639MOL0     C86164   7.736  -1.762   7.520 -0.0908  0.6488 -0.3069
  639MOL0     C86165   7.631  -1.822   7.456  0.6656 -0.0380  1.0769
  639MOL0     O86166   7.541  -1.914   7.511 -0.0984  0.2044  0.2125
  639MOL0     C86167   7.582  -1.982   7.632 -0.1526  0.0528 -0.3362
  639MOL0     C86168   7.501  -2.101   7.678 -0.0098 -0.5032 -0.5020
  639MOL0     C86169   7.356  -2.060   7.714 -0.7350 -0.1491 -0.0595
  639MOL0     C86170   7.289  -2.161   7.813  0.6158  0.0792 -0.4223
  639MOL0     C86171   7.167  -2.095   7.878 -0.7592  0.1308  0.3552
  639MOL0     C86172   7.091  -2.191   7.975  0.4428 -0.1282 -0.1165
  639MOL0     C86173   6.978  -2.105   8.045 -0.9905  0.2840  0.2447
  639MOL0     C86174   6.909  -2.192   8.150  0.5706 -0.3409 -0.0547
  639MOL0    Cl86175   7.013  -2.210   8.282 -0.0646  0.3360  0.1487
  639MOL0     C86176   7.622  -1.802   7.317  0.6002 -0.0465 -1.4772
  639MOL0     C86177   7.696  -1.695   7.258  0.6529 -0.1379  0.9638
  639MOL0     O86178   7.752  -1.355   7.318  0.7985  0.0133  0.3185
  639MOL0     C86179   8.027  -1.358   7.118  0.2421  0.2780  0.1968
  639MOL0     C86180   8.130  -1.293   7.057 -0.0410 -0.6126  0.6176
  639MOL0     N86181   8.739  -0.859   6.877  0.3184 -0.7301  0.2504
  639MOL0     N86182   8.687  -0.759   6.809 -0.1751  0.1611  0.0460
  639MOL0     C86183   8.415   0.326   6.364  0.4574 -1.4438  0.2120
  639MOL0     C86184   8.370   0.450   6.401 -0.0388  0.0921  0.3226
  639MOL0     C86185   8.182   0.814   6.536  0.2617 -0.9996  0.7147
  639MOL0     C86186   8.242   0.945   6.521 -0.8681  0.4147 -0.5170
  639MOL0     C86187   8.169   1.058   6.493  0.1901  0.0524 -0.0720
  639MOL0     C86188   8.033   1.047   6.477 -0.1945 -0.3655  0.1114
  639MOL0     O86189   7.960   1.166   6.446  0.2126 -0.8792  0.0119
  639MOL0     C86190   7.818   1.165   6.457 -0.3778  0.1227 -0.8943
  639MOL0     C86191   7.742   1.111   6.338 -0.6030 -0.4151  0.4322
  639MOL0     C86192   7.767   1.193   6.202 -0.4343 -0.6699 -0.8517
  639MOL0     C86193   7.698   1.142   6.071  0.1197  0.0013  0.8694
  639MOL0     C86194   7.550   1.155   6.083  0.3263  0.2041  0.4775
  639MOL0     C86195   7.432   1.172   6.073  0.9524 -0.2865  0.2173
  639MOL0     C86196   7.970   0.923   6.501  0.4625 -0.0724 -0.5311
  639MOL0     C86197   8.039   0.804   6.530  0.4952 -0.5792 -0.4560
  639MOL0     H86198   8.108   0.334   6.587 -0.0317 -3.6189  1.5416
  639MOL0     H86199   8.216   0.118   6.532 -1.2393  1.2317  1.9660
  639MOL0     H86200   8.451   0.109   6.179  0.8905  1.0414  1.5979
  639MOL0     H86201   8.591   0.079   6.289  1.0671  0.1430 -0.0353
  639MOL0     H86202   8.382  -0.119   6.183  1.2771 -1.9020 -2.5898
  639MOL0     H86203   8.558  -0.124   6.164  0.4521 -2.6040  1.5574
  639MOL0     H86204   8.534  -0.124   6.445  4.6163 -3.3485  0.8675
  639MOL0     H86205   8.388  -0.204   6.386 -0.0083  2.1508  2.0160
  639MOL0     H86206   8.532  -0.346   6.248  0.8449 -2.5976  0.5640
  639MOL0     H86207   8.680  -0.273   6.311 -0.0900 -0.9866 -1.1396
  639MOL0     H86208   8.620  -0.396   6.538  0.9678 -2.7081 -0.4305
  639MOL0     H86209   8.463  -0.454   6.458 -0.8327  0.6633  2.1206
  639MOL0     H86210   8.616  -0.581   6.302 -0.0392  0.5162  0.4321
  639MOL0     H86211   8.743  -0.481   6.369 -0.8337  1.0800  1.9464
  639MOL0     H86212   8.786  -0.703   6.439  0.0508 -1.2766  1.4790
  639MOL0     H86213   8.775  -0.576   6.554 -0.0603  0.5183 -0.0704
  639MOL0     H86214   8.539  -0.756   6.510  1.6604 -0.8827 -0.6693
  639MOL0     H86215   8.541  -0.625   6.624  0.2824 -2.2878  3.0183
  639MOL0     H86216   8.709  -0.957   6.568  0.5331 -2.8825  0.8423
  639MOL0     H86217   8.800  -1.163   6.715  3.6695 -0.4961  1.3379
  639MOL0     H86218   8.797  -1.138   6.889 -1.4007 -4.7377 -0.8205
  639MOL0     H86219   8.634  -1.270   6.870  2.1269  2.7515  2.2064
  639MOL0     H86220   8.550  -1.185   6.730  1.8983 -0.8538 -1.5962
  639MOL0     H86221   8.477  -1.008   6.875  1.8946 -0.1014 -2.1926
  639MOL0     H86222   8.569  -1.067   7.022  0.2528  0.2198 -0.8631
  639MOL0     H86223   8.436  -1.246   7.058 -0.2211 -0.3519 -0.9935
  639MOL0     H86224   8.366  -1.247   6.896 -0.5159  0.5845 -1.0724
  639MOL0     H86225   8.146  -1.015   7.225  0.1815  0.6909  0.6454
  639MOL0     H86226   7.938  -1.011   7.393  1.5477 -1.3318 -5.0815
  639MOL0     H86227   7.849  -1.150   7.427 -0.3716  2.3225  0.4045
  639MOL0     H86228   8.018  -1.144   7.487  3.6496 -1.6279 -1.1578
  639MOL0     H86229   7.909  -1.625   7.513  2.1645 -1.1211 -0.6211
  639MOL0     H86230   7.752  -1.792   7.623  3.0436 -1.7576 -1.3322
  639MOL0     H86231   7.687  -2.012   7.621  0.7951  2.6505  0.8123
  639MOL0     H86232   7.585  -1.908   7.713 -3.7306  1.1769 -1.0270
  639MOL0     H86233   7.501  -2.159   7.585  3.1052 -0.7396 -0.4429
  639MOL0     H86234   7.552  -2.166   7.750  0.6643 -1.8416 -2.1349
  639MOL0     H86235   7.302  -2.042   7.620  0.9826 -0.2513 -1.1030
  639MOL0     H86236   7.358  -1.967   7.770 -0.6162  1.5901 -2.7753
  639MOL0     H86237   7.257  -2.257   7.771 -0.9920 -0.6171  2.1886
  639MOL0     H86238   7.354  -2.186   7.897 -0.4589 -1.4282  0.0111
  639MOL0     H86239   7.104  -2.054   7.799  1.1839 -1.1386 -1.9666
  639MOL0     H86240   7.202  -2.006   7.932  3.1526 -1.5800  0.9704
  639MOL0     H86241   7.064  -2.285   7.926 -2.1752  0.0593  0.8237
  639MOL0     H86242   7.165  -2.212   8.053  1.1635  1.1141 -0.4503
  639MOL0     H86243   6.904  -2.069   7.974  1.0234  1.8583 -1.1590
  639MOL0     H86244   7.024  -2.014   8.085 -5.0807  2.5989  0.1980
  639MOL0     H86245   6.881  -2.291   8.114 -0.2405  0.1476 -0.8093
  639MOL0     H86246   6.822  -2.140   8.191 -1.9692 -4.7599  0.7267
  639MOL0     H86247   7.543  -1.850   7.260 -0.3370 -2.8761  1.8574
  639MOL0     H86248   7.692  -1.677   7.151 -0.2967 -2.4152  0.5476
  639MOL0     H86249   8.001  -1.460   7.090  1.0280  0.4249 -1.1484
  639MOL0     H86250   8.182  -1.345   6.978  1.5829 -1.9757  2.4768
  639MOL0     H86251   8.513   0.315   6.319  0.6428 -3.6933  0.9895
  639MOL0     H86252   8.419   0.540   6.365 -2.6849  1.3216 -0.4530
  639MOL0     H86253   8.348   0.950   6.541 -0.9602 -0.6985  0.3317
  639MOL0     H86254   8.226   1.147   6.471 -0.8535  1.1020  1.2579
  639MOL0     H86255   7.788   1.105   6.544  1.9112  2.0153  1.3619
  639MOL0     H86256   7.785   1.266   6.480 -0.9275 -0.0765 -0.8017
  639MOL0     H86257   7.636   1.122   6.362 -0.3437  0.2703  1.2994
  639MOL0     H86258   7.774   1.011   6.307  1.7620  0.7994 -1.3854
  639MOL0     H86259   7.874   1.190   6.178  0.1710 -1.0757  1.6740
  639MOL0     H86260   7.723   1.293   6.213 -1.5783 -1.4369  3.0194
  639MOL0     H86261   7.735   1.041   6.053  1.1296  0.5937 -0.6386
  639MOL0     H86262   7.737   1.196   5.985 -2.2430 -3.7077 -2.9070
  639MOL0     H86263   7.326   1.184   6.062  0.9702 -2.1207 -5.7613
  639MOL0     H86264   7.862   0.915   6.497  0.2628 -0.5747  2.9221
  639MOL0     H86265   7.985   0.713   6.552  0.2152 -0.1747  0.5874
  640MOL0     O86266   2.898   8.025   4.701  0.0349 -0.3910  0.0250
  640MOL0     C86267   2.981   8.009   4.787 -0.0159 -0.5362  0.2542
  640MOL0     O86268   3.109   8.011   4.769 -0.4319  0.3274  0.1733
  640MOL0     C86269   3.153   8.044   4.647 -0.3826  0.2867  0.3901
  640MOL0     C86270   3.261   7.979   4.585  0.5084  0.3792 -0.7275
  640MOL0     C86271   3.310   8.010   4.461 -0.1688  1.2371  1.2151
  640MOL0     C86272   3.254   8.117   4.390 -0.7874  0.2999 -0.0785
  640MOL0     O86273   3.296   8.171   4.269  0.3041 -0.3443 -0.6573
  640MOL0     C86274   3.325   8.070   4.172 -0.1959  0.4007  0.4885
  640MOL0     C86275   3.384   8.149   4.050 -0.4649 -0.0636  0.1603
  640MOL0     C86276   3.336   8.112   3.911  0.6422 -0.6676  0.9980
  640MOL0     C86277   3.423   8.186   3.799  0.3282 -0.2633 -1.6495
  640MOL0     C86278   3.356   8.146   3.667  0.4476  1.5747  0.1266
  640MOL0     C86279   3.410   8.234   3.555 -0.1918  0.3705 -0.2438
  640MOL0     C86280   3.388   8.181   3.416  0.1794 -0.3673  0.2087
  640MOL0     C86281   3.395   8.289   3.315  0.7612  1.0546 -0.1902
  640MOL0     N86282   3.351   8.238   3.180 -0.5658  0.6492 -0.0301
  640MOL0     C86283   3.432   8.172   3.085  0.0720 -0.6281 -0.6568
  640MOL0     C86284   3.356   8.167   2.977 -0.4573  0.1912  0.4548
  640MOL0     C86285   3.398   8.142   2.837  0.5763  1.2150 -0.4327
  640MOL0     C86286   3.347   8.007   2.782 -0.5807 -0.4982  0.0682
  640MOL0     C86287   3.202   8.004   2.710 -0.5904 -0.4526 -0.5946
  640MOL0     C86288   3.212   8.060   2.568  0.0706  0.8252 -0.7823
  640MOL0     O86289   3.076   8.084   2.526 -0.2388 -0.2273 -0.4860
  640MOL0     C86290   3.018   7.990   2.447 -1.2261 -0.1646 -0.8732
  640MOL0     C86291   3.013   8.006   2.312 -0.4722 -0.5019  1.0498
  640MOL0     C86292   3.001   7.897   2.225 -0.2999 -1.2710  0.7936
  640MOL0     C86293   2.984   7.928   2.072  0.3652  0.2515  0.1012
  640MOL0     C86294   2.988   7.769   2.270  0.4501  0.9921 -0.2758
  640MOL0     C86295   2.982   7.653   2.181 -0.3105  1.0806  0.6124
  640MOL0     O86296   2.896   7.551   2.218 -0.2183  0.1594 -0.5514
  640MOL0     C86297   2.876   7.455   2.121  0.5157 -0.4498 -0.7577
  640MOL0     C86298   2.912   7.322   2.132  0.1490 -0.6126 -1.1067
  640MOL0     C86299   2.892   7.231   2.034  0.4828  0.6593  0.4375
  640MOL0     C86300   2.806   7.260   1.925  0.7693  0.3143  0.6492
  640MOL0     O86301   2.774   7.158   1.834 -0.3332  0.6837 -1.0737
  640MOL0     C86302   2.672   7.184   1.736  0.0141 -0.0189  1.0001
  640MOL0     C86303   2.527   7.216   1.785 -0.4828 -0.7173 -0.4028
  640MOL0     C86304   2.430   7.097   1.775  0.1953 -0.4214  0.5026
  640MOL0     C86305   2.292   7.153   1.778 -0.3748  0.0686 -0.6280
  640MOL0     C86306   2.181   7.046   1.788 -0.3356 -0.6239  0.0056
  640MOL0     C86307   2.149   6.938   1.687  0.2114 -0.1935  0.1954
  640MOL0     C86308   2.023   6.872   1.742  0.4865  0.4582 -0.0219
  640MOL0     C86309   2.041   6.760   1.849 -0.3733 -0.0779 -0.1157
  640MOL0    Cl86310   1.887   6.674   1.881 -0.3417  0.3133  0.2708
  640MOL0     C86311   2.769   7.394   1.915  1.1114  0.3014  0.1855
  640MOL0     C86312   2.799   7.497   2.009  1.4024  0.3672 -0.3964
  640MOL0     O86313   3.058   7.644   2.083  0.5421 -0.4914 -0.4361
  640MOL0     C86314   2.973   7.757   2.404 -0.0173  0.4803 -0.2835
  640MOL0     C86315   2.984   7.864   2.496  0.5457 -0.5269  0.0727
  640MOL0     N86316   3.230   8.211   3.002  0.2042  1.0599 -0.4900
  640MOL0     N86317   3.222   8.245   3.126  0.7258  0.6654 -0.5393
  640MOL0     C86318   3.169   8.198   4.451  0.5507 -0.9055 -0.0430
  640MOL0     C86319   3.116   8.161   4.583 -0.1727 -0.4974  0.1725
  640MOL0     C86320   2.928   7.972   4.924  0.5485  0.1646  0.3452
  640MOL0     C86321   2.786   7.966   4.926  0.7255 -0.1847 -0.1054
  640MOL0     C86322   2.730   7.923   5.049  0.3235  0.9297  0.0097
  640MOL0     C86323   2.800   7.908   5.172 -0.2966  0.5241 -0.0395
  640MOL0     O86324   2.716   7.866   5.281 -0.3841  0.0347 -0.2079
  640MOL0     C86325   2.783   7.848   5.409  0.2559  0.3214  0.0941
  640MOL0     C86326   2.676   7.837   5.519 -0.5765 -0.0360 -0.6358
  640MOL0     C86327   2.754   7.843   5.646 -0.2780  0.1550  0.0171
  640MOL0     C86328   2.662   7.829   5.777 -0.0440  0.2757  0.3235
  640MOL0     C86329   2.744   7.819   5.900 -1.1023 -0.0738  1.1328
  640MOL0     C86330   2.823   7.811   5.989 -1.0580 -1.1315 -0.1022
  640MOL0     C86331   2.940   7.905   5.154  0.6365  1.0805 -0.2399
  640MOL0     C86332   3.007   7.932   5.030  0.3896  1.0698 -0.0207
  640MOL0     H86333   3.303   7.893   4.636  4.1410  3.3035  1.7456
  640MOL0     H86334   3.385   7.945   4.417 -0.1254 -0.4873  3.6464
  640MOL0     H86335   3.413   8.012   4.200 -1.0556 -0.3943  1.6114
  640MOL0     H86336   3.240   8.003   4.157 -3.0212  3.8717 -0.3706
  640MOL0     H86337   3.367   8.254   4.074 -2.6531 -0.4053  0.2900
  640MOL0     H86338   3.493   8.137   4.041 -0.8899 -3.7292 -2.3567
  640MOL0     H86339   3.355   8.005   3.905  0.8818 -0.5754 -0.0714
  640MOL0     H86340   3.231   8.143   3.903  1.1066  0.6485 -0.8081
  640MOL0     H86341   3.418   8.294   3.818  2.8137  0.5802 -4.9103
  640MOL0     H86342   3.524   8.145   3.808  0.7097  0.0060 -3.9642
  640MOL0     H86343   3.384   8.041   3.652  1.9459  1.8768  0.6181
  640MOL0     H86344   3.249   8.170   3.668  0.0157 -0.1883  0.9409
  640MOL0     H86345   3.376   8.337   3.566 -0.4592  0.3842 -1.0934
  640MOL0     H86346   3.516   8.239   3.582  0.3890 -3.4412 -1.1705
  640MOL0     H86347   3.449   8.092   3.399 -2.5923 -1.9022 -2.8497
  640MOL0     H86348   3.284   8.147   3.427  0.0313  0.2309  0.7052
  640MOL0     H86349   3.491   8.341   3.320  0.4356  1.5705  1.5407
  640MOL0     H86350   3.322   8.356   3.360 -0.7105 -1.0210  0.6601
  640MOL0     H86351   3.538   8.157   3.098  0.0214 -1.0237 -0.6991
  640MOL0     H86352   3.349   8.220   2.778 -0.5267 -0.0105 -1.1861
  640MOL0     H86353   3.507   8.151   2.830  0.8089  0.1008  1.1900
  640MOL0     H86354   3.341   7.937   2.866  0.9780  1.5512  1.9992
  640MOL0     H86355   3.420   7.961   2.716 -1.1037 -2.8155  1.0285
  640MOL0     H86356   3.129   8.060   2.769  0.4011 -0.7539  0.9779
  640MOL0     H86357   3.151   7.908   2.699 -1.7163  0.3169 -2.5130
  640MOL0     H86358   3.265   7.989   2.504  0.8581  1.2264 -0.5863
  640MOL0     H86359   3.259   8.159   2.565 -1.0998  1.4817  0.8542
  640MOL0     H86360   3.034   8.108   2.281  1.2679 -0.4282  2.3500
  640MOL0     H86361   3.077   7.961   2.026 -0.1106 -0.1078 -1.1572
  640MOL0     H86362   2.945   7.847   2.010  0.8601  2.1724 -2.9463
  640MOL0     H86363   2.906   8.004   2.053 -0.4064 -0.8524 -1.3390
  640MOL0     H86364   2.953   7.306   2.232 -0.3395 -2.2919 -1.1474
  640MOL0     H86365   2.915   7.128   2.057  0.0568 -0.1622 -2.4736
  640MOL0     H86366   2.709   7.267   1.676  0.4590 -0.3720  0.7811
  640MOL0     H86367   2.669   7.092   1.676 -1.7192  0.9351 -0.4654
  640MOL0     H86368   2.531   7.244   1.891 -1.9878  2.6294 -1.0803
  640MOL0     H86369   2.494   7.301   1.725 -0.7084 -1.8170 -1.8710
  640MOL0     H86370   2.448   7.024   1.854 -1.0360  0.4542  1.6182
  640MOL0     H86371   2.452   7.050   1.678  1.8087 -2.2402  1.6834
  640MOL0     H86372   2.276   7.201   1.875 -3.3587 -2.6212  0.4171
  640MOL0     H86373   2.288   7.236   1.706 -0.1970  1.0961  0.5185
  640MOL0     H86374   2.090   7.101   1.812  0.4437  0.7609 -0.0992
  640MOL0     H86375   2.211   6.992   1.878  0.2802  0.0991  0.2411
  640MOL0     H86376   2.146   6.971   1.582  0.9730  0.7696  0.4530
  640MOL0     H86377   2.223   6.858   1.683 -0.1097 -0.4965  0.2496
  640MOL0     H86378   1.990   6.813   1.656 -1.7785  1.1989  0.2748
  640MOL0     H86379   1.959   6.946   1.791  0.5003  0.5706 -0.1739
  640MOL0     H86380   2.086   6.796   1.942  1.3108 -2.7982  0.2659
  640MOL0     H86381   2.118   6.693   1.809 -2.1087 -1.7289 -0.8750
  640MOL0     H86382   2.712   7.431   1.831 -0.6888 -0.8732  0.8385
  640MOL0     H86383   2.748   7.592   1.997 -1.1974 -1.1497 -2.3887
  640MOL0     H86384   2.965   7.656   2.442 -0.8820  0.7161  0.1890
  640MOL0     H86385   2.993   7.843   2.602 -2.2606 -0.6918  0.3395
  640MOL0     H86386   3.139   8.292   4.406  0.2674 -0.9958 -0.0415
  640MOL0     H86387   3.040   8.217   4.636 -3.1033 -1.5490 -2.5777
  640MOL0     H86388   2.713   7.973   4.846 -3.1429 -3.7635  2.6417
  640MOL0     H86389   2.624   7.902   5.043  0.6913 -1.0275 -0.5533
  640MOL0     H86390   2.843   7.757   5.410 -1.1333 -0.6193  0.8593
  640MOL0     H86391   2.850   7.932   5.428 -0.4376  0.8167  0.3870
  640MOL0     H86392   2.625   7.742   5.506  0.6200 -0.4804 -2.4978
  640MOL0     H86393   2.610   7.923   5.504  1.4328  1.0772 -4.7170
  640MOL0     H86394   2.803   7.940   5.650 -1.4958  1.0699 -3.3332
  640MOL0     H86395   2.824   7.760   5.652  0.6651  0.8885 -0.6115
  640MOL0     H86396   2.603   7.738   5.777  2.2277 -1.3595 -1.8962
  640MOL0     H86397   2.598   7.917   5.790  3.0029  2.9803 -1.3607
  640MOL0     H86398   2.909   7.808   6.054 -0.3262  1.5436 -0.8220
  640MOL0     H86399   3.002   7.872   5.237  0.2071 -0.0307 -0.3434
  640MOL0     H86400   3.115   7.929   5.018  0.2272 -1.1364 -1.5540
  641MOL0     O86401  11.329  11.418  11.149  0.1521 -0.3391 -0.3181
  641MOL0     C86402  11.351  11.384  11.269 -1.1397 -0.6725  0.1548
  641MOL0     O86403  11.288  11.434  11.384  0.2401  0.1432  0.0451
  641MOL0     C86404  11.205  11.547  11.356 -1.1020  0.1495 -0.3521
  641MOL0     C86405  11.262  11.670  11.339  0.0655 -0.5629 -1.2539
  641MOL0     C86406  11.172  11.779  11.307 -0.0488 -0.5089  0.4853
  641MOL0     C86407  11.030  11.761  11.301 -0.9800 -0.5240 -0.3028
  641MOL0     O86408  10.937  11.854  11.268 -0.7941  0.1713  0.6809
  641MOL0     C86409  10.944  11.979  11.334 -0.1075  0.2146 -1.3393
  641MOL0     C86410  10.892  11.962  11.470 -0.3845 -0.9975 -0.7025
  641MOL0     C86411  10.829  12.086  11.542  0.3961 -0.3317  0.4652
  641MOL0     C86412  10.924  12.197  11.561  0.9239 -0.2579  0.1188
  641MOL0     C86413  10.853  12.320  11.620  0.1707 -0.2529 -0.2022
  641MOL0     C86414  10.793  12.304  11.752  0.6999  0.3345 -0.0485
  641MOL0     C86415  10.783  12.423  11.849 -1.0645  0.0108  0.6415
  641MOL0     C86416  10.735  12.412  11.997  0.5162 -0.5731  0.0374
  641MOL0     N86417  10.807  12.318  12.079  1.3434  0.5993 -0.8213
  641MOL0     C86418  10.779  12.184  12.084  0.2389  0.4284  0.5388
  641MOL0     C86419  10.828  12.141  12.198 -0.1276 -0.1846 -0.5345
  641MOL0     C86420  10.798  12.013  12.277  0.5663 -0.1077  0.3932
  641MOL0     C86421  10.891  11.985  12.398  0.2025  0.4888  0.6023
  641MOL0     C86422  11.041  11.967  12.374  0.3545 -0.2032  0.8313
  641MOL0     C86423  11.086  11.835  12.300  0.1289 -0.6215 -0.3349
  641MOL0     O86424  11.020  11.714  12.340 -0.6028  0.3211  0.3910
  641MOL0     C86425  11.088  11.590  12.316 -0.4034 -1.4659 -0.5703
  641MOL0     C86426  11.209  11.579  12.252 -0.5548  0.2287  0.0445
  641MOL0     C86427  11.287  11.461  12.250  1.4078 -0.1748 -0.3741
  641MOL0     C86428  11.425  11.479  12.192  1.1325  0.6836  0.4561
  641MOL0     C86429  11.217  11.345  12.296 -0.0822 -0.0548 -1.2318
  641MOL0     C86430  11.277  11.207  12.289  0.5931 -0.7651  0.7488
  641MOL0     O86431  11.263  11.134  12.402  0.1418  0.1694 -0.1712
  641MOL0     C86432  11.307  11.007  12.398 -0.6985  0.3990 -0.4426
  641MOL0     C86433  11.217  10.898  12.377 -0.5923  0.1063  0.5391
  641MOL0     C86434  11.272  10.765  12.362 -0.7642  0.6170 -0.9678
  641MOL0     C86435  11.407  10.745  12.347  0.9039 -1.2344  0.0295
  641MOL0     O86436  11.436  10.616  12.336  0.1753 -0.3091  0.2300
  641MOL0     C86437  11.576  10.586  12.318  0.0000 -0.0537 -0.2124
  641MOL0     C86438  11.571  10.448  12.264  0.5418  0.3021 -1.0811
  641MOL0     C86439  11.698  10.369  12.225  0.4835 -0.0023 -0.0587
  641MOL0     C86440  11.769  10.422  12.096  0.1246 -0.5872 -0.4722
  641MOL0     C86441  11.900  10.342  12.092  0.1895  0.4636 -0.6357
  641MOL0     C86442  11.883  10.201  12.038 -0.5842 -0.2845  0.4774
  641MOL0     C86443  12.019  10.136  12.054 -1.1683 -0.3428 -0.8080
  641MOL0     C86444  12.028  10.025  12.171  0.1623  0.2392  0.5914
  641MOL0    Cl86445  11.971  10.084  12.326  0.0610  0.3033 -0.2923
  641MOL0     C86446  11.495  10.856  12.358  1.5824  0.1624  0.2379
  641MOL0     C86447  11.439  10.978  12.384  1.0820 -0.5365 -0.9402
  641MOL0     O86448  11.344  11.171  12.192  0.0838  0.4624 -0.0804
  641MOL0     C86449  11.094  11.355  12.355 -0.2349 -0.6228 -0.8755
  641MOL0     C86450  11.028  11.481  12.369 -0.5831  1.3666 -0.5017
  641MOL0     N86451  10.899  12.247  12.257 -0.4312 -0.1922  0.2489
  641MOL0     N86452  10.885  12.352  12.185  0.2364 -0.5534 -0.1293
  641MOL0     C86453  10.980  11.637  11.336  0.1846  1.5211  0.4266
  641MOL0     C86454  11.068  11.525  11.366  0.1288 -0.8754 -0.8550
  641MOL0     C86455  11.436  11.265  11.291  0.5386 -0.4362  0.2577
  641MOL0     C86456  11.498  11.233  11.408 -0.5487 -0.8259 -0.0560
  641MOL0     C86457  11.606  11.139  11.411 -0.8442  0.5302  0.1965
  641MOL0     C86458  11.651  11.075  11.286  0.2398  0.3332 -0.5867
  641MOL0     O86459  11.749  10.983  11.278 -0.4465  0.0381 -0.2636
  641MOL0     C86460  11.843  11.009  11.171 -0.6192 -0.0475  0.1262
  641MOL0     C86461  11.863  10.882  11.087  0.0444 -0.7317 -1.0601
  641MOL0     C86462  11.948  10.780  11.163  1.0859 -1.4044  0.0902
  641MOL0     C86463  11.979  10.659  11.070 -0.2971  0.3734  0.8187
  641MOL0     C86464  12.105  10.599  11.105 -0.2778  0.5271  0.4811
  641MOL0     C86465  12.221  10.557  11.129 -0.2572 -1.1081  0.6319
  641MOL0     C86466  11.565  11.097  11.176  0.6188  0.4611 -0.1483
  641MOL0     C86467  11.464  11.192  11.171 -0.1064  0.7638  0.0654
  641MOL0     H86468  11.369  11.677  11.354 -0.2683 -0.0068  1.3690
  641MOL0     H86469  11.206  11.882  11.299 -1.1286 -0.1525  0.3157
  641MOL0     H86470  11.046  12.019  11.334  0.3694 -0.9030 -0.1735
  641MOL0     H86471  10.878  12.057  11.295 -1.3118 -0.1640 -0.1536
  641MOL0     H86472  10.813  11.887  11.462  0.6525 -2.3179  0.7866
  641MOL0     H86473  10.965  11.915  11.536 -0.0672  2.0388  1.3038
  641MOL0     H86474  10.734  12.117  11.497  1.3290  0.0172 -1.3903
  641MOL0     H86475  10.816  12.046  11.643 -1.5416  0.7312  0.6737
  641MOL0     H86476  10.998  12.161  11.633 -0.3655  3.3655  3.5362
  641MOL0     H86477  10.979  12.232  11.473  1.0065 -0.0634  0.2497
  641MOL0     H86478  10.924  12.399  11.646 -0.2962  1.1605 -2.7990
  641MOL0     H86479  10.782  12.364  11.550 -0.0175  0.5939  0.5135
  641MOL0     H86480  10.702  12.245  11.737  0.0524  1.5163 -0.9024
  641MOL0     H86481  10.860  12.238  11.808 -3.3069 -0.5107  4.3131
  641MOL0     H86482  10.888  12.450  11.855 -0.7101 -0.3596 -2.3186
  641MOL0     H86483  10.727  12.494  11.786  0.2601 -1.1729 -2.0560
  641MOL0     H86484  10.628  12.390  12.004  1.1110 -3.8114  0.7460
  641MOL0     H86485  10.766  12.509  12.038  2.9493 -1.0322 -0.5532
  641MOL0     H86486  10.700  12.131  12.032  0.9773 -1.8112  1.5730
  641MOL0     H86487  10.697  12.014  12.318  0.4107  5.7552  0.7980
  641MOL0     H86488  10.811  11.933  12.204  1.5742 -0.3693  0.8462
  641MOL0     H86489  10.855  11.888  12.434  2.4773  0.1174  2.0754
  641MOL0     H86490  10.885  12.071  12.465 -1.9803 -1.5001  3.2122
  641MOL0     H86491  11.079  11.976  12.476 -0.5144 -1.6572  1.3164
  641MOL0     H86492  11.079  12.045  12.308  2.2012 -3.4927 -2.4084
  641MOL0     H86493  11.196  11.831  12.299  0.3261  1.4982 -3.5800
  641MOL0     H86494  11.058  11.841  12.194 -1.6493 -0.4718  0.1114
  641MOL0     H86495  11.267  11.664  12.217  0.8731 -0.9021 -0.4620
  641MOL0     H86496  11.463  11.576  12.224 -2.4006  2.4929 -0.4036
  641MOL0     H86497  11.490  11.392  12.209  2.9360  1.8713  0.0017
  641MOL0     H86498  11.409  11.487  12.084  0.9809 -3.5757 -0.0253
  641MOL0     H86499  11.109  10.910  12.375 -0.8472 -1.6806  1.4221
  641MOL0     H86500  11.203  10.682  12.372  0.5615 -0.4986 -0.8954
  641MOL0     H86501  11.625  10.653  12.246  1.5840 -1.3083 -0.3538
  641MOL0     H86502  11.610  10.594  12.422 -2.7010 -2.8923  1.0519
  641MOL0     H86503  11.508  10.379  12.322 -1.7393  1.5268 -1.9574
  641MOL0     H86504  11.507  10.458  12.175  0.2742 -0.5249 -0.9983
  641MOL0     H86505  11.659  10.267  12.215 -2.9694  1.0293  1.4154
  641MOL0     H86506  11.764  10.366  12.312 -1.9126 -1.3339  1.8378
  641MOL0     H86507  11.711  10.405  12.005  0.4644  0.6538 -0.9446
  641MOL0     H86508  11.799  10.527  12.102  0.0055 -0.3874 -2.5468
  641MOL0     H86509  11.950  10.352  12.189 -0.6515  2.4150 -0.3543
  641MOL0     H86510  11.962  10.396  12.020 -0.2834  0.9105 -0.7119
  641MOL0     H86511  11.816  10.139  12.098 -1.5652  2.3117  2.2145
  641MOL0     H86512  11.851  10.210  11.934  0.9432  1.3583  0.0977
  641MOL0     H86513  12.099  10.210  12.063 -0.8809 -0.7928  0.4031
  641MOL0     H86514  12.042  10.095  11.955 -0.0662  1.0546 -1.1657
  641MOL0     H86515  12.119   9.966  12.189 -1.5206 -2.6563  0.1362
  641MOL0     H86516  11.957   9.942  12.167  0.2844  0.1549  0.0207
  641MOL0     H86517  11.600  10.834  12.370  2.2021  1.9398 -1.4418
  641MOL0     H86518  11.496  11.070  12.391  2.2396 -1.1690 -1.7234
  641MOL0     H86519  11.046  11.266  12.395  2.0453 -0.4864  2.5889
  641MOL0     H86520  10.929  11.492  12.413 -0.1353  2.0884  0.3556
  641MOL0     H86521  10.873  11.622  11.338  0.2839  0.8353  0.9376
  641MOL0     H86522  11.028  11.426  11.388 -1.2862 -0.4303 -1.3498
  641MOL0     H86523  11.486  11.297  11.495  0.0724 -1.0234  0.1790
  641MOL0     H86524  11.665  11.100  11.493  1.1215  1.2525 -0.8154
  641MOL0     H86525  11.808  11.091  11.107  1.9442  0.4356 -0.7931
  641MOL0     H86526  11.946  11.034  11.198 -0.1262 -2.3421  0.5438
  641MOL0     H86527  11.917  10.923  11.001 -1.6046  2.5518 -0.6918
  641MOL0     H86528  11.768  10.839  11.052  0.9842 -3.0722 -0.9170
  641MOL0     H86529  11.886  10.740  11.244  0.7814 -0.2110  0.4750
  641MOL0     H86530  12.041  10.819  11.205 -0.0848  0.6598  0.9319
  641MOL0     H86531  11.985  10.685  10.964 -0.1930 -0.2808  0.6595
  641MOL0     H86532  11.898  10.588  11.090 -0.2136 -0.2500 -0.9381
  641MOL0     H86533  12.321  10.522  11.148  0.6062  0.2506 -1.1159
  641MOL0     H86534  11.570  11.039  11.084  0.6120 -4.1182  2.4527
  641MOL0     H86535  11.397  11.201  11.086 -0.9818 -1.2623  0.4896
  642MOL0     O86536   8.716   7.747   2.136  0.3004 -0.2481  0.5841
  642MOL0     C86537   8.712   7.748   2.255  1.0587 -0.2859  0.8774
  642MOL0     O86538   8.683   7.641   2.338 -0.2512  0.1117  1.2392
  642MOL0     C86539   8.708   7.516   2.289  0.1814 -0.1795  0.8062
  642MOL0     C86540   8.844   7.465   2.270  0.0233 -0.3774  0.3868
  642MOL0     C86541   8.858   7.333   2.218 -0.6425 -0.8539 -0.3925
  642MOL0     C86542   8.764   7.252   2.159  0.6975  0.0771  0.5363
  642MOL0     O86543   8.803   7.127   2.123  0.2802 -0.0635  0.0235
  642MOL0     C86544   8.707   7.050   2.041 -0.2605 -0.1876 -0.6685
  642MOL0     C86545   8.768   6.913   2.020 -1.1860  0.0893 -0.4579
  642MOL0     C86546   8.687   6.819   1.934  1.1280 -0.5203 -0.5787
  642MOL0     C86547   8.658   6.879   1.803 -0.2516  0.3841 -0.0250
  642MOL0     C86548   8.598   6.769   1.713  0.0721  0.1120  0.7005
  642MOL0     C86549   8.529   6.823   1.582 -0.6297  0.1821 -0.0527
  642MOL0     C86550   8.496   6.708   1.497  0.0034  0.1618  0.3936
  642MOL0     C86551   8.419   6.753   1.369 -0.0733 -0.5599 -0.0964
  642MOL0     N86552   8.432   6.668   1.255  0.0415  0.1540  0.5022
  642MOL0     C86553   8.400   6.531   1.268 -1.2088  0.3935  0.3148
  642MOL0     C86554   8.394   6.497   1.132  0.2669 -0.9158 -0.4584
  642MOL0     C86555   8.365   6.361   1.075  0.2457 -0.7668 -0.8009
  642MOL0     C86556   8.215   6.364   1.042 -0.6163 -0.9256 -0.0261
  642MOL0     C86557   8.181   6.419   0.906 -0.1861 -0.3109 -0.3281
  642MOL0     C86558   8.045   6.474   0.918  0.4874 -0.8008 -0.6098
  642MOL0     O86559   7.945   6.371   0.894 -0.3214  0.0985  0.2943
  642MOL0     C86560   7.924   6.338   0.757 -0.1586  0.3822 -0.7756
  642MOL0     C86561   7.974   6.401   0.639  0.5358  0.1610 -0.3537
  642MOL0     C86562   7.924   6.374   0.506  0.2496 -0.2193 -0.2086
  642MOL0     C86563   7.979   6.447   0.396 -0.2801  0.1778  0.0406
  642MOL0     C86564   7.823   6.277   0.497  0.5801 -0.3253 -0.0625
  642MOL0     C86565   7.742   6.253   0.374  0.1472  0.3512 -1.0554
  642MOL0     O86566   7.679   6.374   0.338  0.2453 -0.0845  0.8393
  642MOL0     C86567   7.577   6.352   0.246  0.7188  0.3808 -0.8269
  642MOL0     C86568   7.592   6.413   0.123 -0.3539 -0.4764  0.4813
  642MOL0     C86569   7.498   6.402   0.020  0.1630 -0.4202 -0.4822
  642MOL0     C86570   7.373   6.350   0.053 -0.6181  0.6906  0.6333
  642MOL0     O86571   7.283   6.349  -0.044 -0.3236  0.6381  0.0279
  642MOL0     C86572   7.305   6.235  -0.141 -0.3595 -0.1502  0.5649
  642MOL0     C86573   7.239   6.243  -0.281  1.0788 -0.3915 -0.2547
  642MOL0     C86574   7.327   6.299  -0.393 -0.5972  0.3586  0.8065
  642MOL0     C86575   7.259   6.306  -0.533  0.1033 -0.5000  0.7297
  642MOL0     C86576   7.344   6.336  -0.651 -0.2294 -0.1034  0.9890
  642MOL0     C86577   7.417   6.477  -0.642 -0.1981 -0.2044  0.1682
  642MOL0     C86578   7.537   6.455  -0.543 -0.6166  0.4526 -0.6037
  642MOL0     C86579   7.671   6.500  -0.609 -0.2797 -0.4725 -1.0879
  642MOL0    Cl86580   7.675   6.684  -0.587 -0.2385  0.2995  0.6779
  642MOL0     C86581   7.359   6.292   0.182 -0.2486  0.4132 -0.9457
  642MOL0     C86582   7.452   6.303   0.285  0.3117  0.1260 -0.2497
  642MOL0     O86583   7.712   6.136   0.334 -0.1548 -0.0223 -0.1569
  642MOL0     C86584   7.780   6.211   0.614  0.7239 -0.3636  0.8203
  642MOL0     C86585   7.823   6.244   0.747 -0.2716  0.1088  0.2472
  642MOL0     N86586   8.414   6.613   1.057 -0.5863  0.4431  1.0786
  642MOL0     N86587   8.434   6.710   1.126 -0.3073  0.2996 -0.5105
  642MOL0     C86588   8.635   7.305   2.180 -1.1195 -0.7739  0.0541
  642MOL0     C86589   8.604   7.433   2.239  0.8470  0.7099 -0.3336
  642MOL0     C86590   8.732   7.881   2.316 -0.1806  0.0107 -0.0686
  642MOL0     C86591   8.754   8.010   2.252  1.5880  0.1455 -0.3147
  642MOL0     C86592   8.784   8.131   2.310  0.7015  0.0515 -0.3529
  642MOL0     C86593   8.798   8.131   2.450  0.8709 -0.2400  0.3142
  642MOL0     O86594   8.844   8.249   2.496  0.5666 -0.2683  0.0261
  642MOL0     C86595   8.904   8.252   2.624 -0.6009 -0.9193 -0.6788
  642MOL0     C86596   8.796   8.275   2.737 -0.6363  0.6310 -0.4177
  642MOL0     C86597   8.755   8.412   2.774 -0.1252  0.6611 -0.2629
  642MOL0     C86598   8.867   8.508   2.811  0.8987  0.6512  0.1121
  642MOL0     C86599   8.818   8.649   2.809  0.6475 -0.5904  0.4713
  642MOL0     C86600   8.763   8.756   2.792 -0.6022  0.2877  0.1471
  642MOL0     C86601   8.767   8.014   2.523  0.5203 -0.3388  0.5868
  642MOL0     C86602   8.739   7.888   2.461  0.3100 -0.3247  0.3098
  642MOL0     H86603   8.921   7.530   2.309 -0.3684  0.2401  0.1513
  642MOL0     H86604   8.960   7.296   2.220 -0.5756 -0.6523  0.1752
  642MOL0     H86605   8.614   7.028   2.095  0.1027 -0.8988 -0.3185
  642MOL0     H86606   8.684   7.101   1.947 -0.3722 -4.5686 -3.2849
  642MOL0     H86607   8.869   6.919   1.980 -1.0320 -1.5581 -0.3758
  642MOL0     H86608   8.773   6.861   2.116  0.0577  1.2647  0.1422
  642MOL0     H86609   8.734   6.720   1.930 -1.7773 -2.1527  1.2270
  642MOL0     H86610   8.583   6.806   1.968  0.1124  1.3455 -2.7237
  642MOL0     H86611   8.588   6.962   1.814 -0.9699 -0.4694  2.4727
  642MOL0     H86612   8.751   6.919   1.761 -0.0850  0.2502  0.2143
  642MOL0     H86613   8.684   6.703   1.699 -0.0001  0.0201  0.6916
  642MOL0     H86614   8.517   6.710   1.756 -0.3649  1.0738  1.2360
  642MOL0     H86615   8.441   6.883   1.606 -0.6832 -0.1717  0.6937
  642MOL0     H86616   8.599   6.889   1.532  1.0169 -0.8123  0.8474
  642MOL0     H86617   8.585   6.652   1.465 -1.6203 -2.3834  0.0738
  642MOL0     H86618   8.447   6.633   1.559  1.6126 -0.2180  1.2825
  642MOL0     H86619   8.457   6.852   1.341  0.3072 -0.4052  0.9085
  642MOL0     H86620   8.315   6.773   1.393 -0.5487 -1.1623 -1.5573
  642MOL0     H86621   8.402   6.470   1.358 -0.3987 -1.5556 -0.9568
  642MOL0     H86622   8.434   6.353   0.990 -1.4913 -0.5294 -2.2962
  642MOL0     H86623   8.389   6.280   1.145 -0.7559  3.6849  5.5369
  642MOL0     H86624   8.164   6.427   1.115 -1.6971 -2.8336  0.9558
  642MOL0     H86625   8.176   6.262   1.039  2.1207 -2.0679 -3.9738
  642MOL0     H86626   8.193   6.347   0.825  0.6300 -0.0027 -0.5007
  642MOL0     H86627   8.234   6.512   0.881 -2.2734  0.2582 -3.0445
  642MOL0     H86628   8.029   6.554   0.844 -0.0030 -0.8095 -0.5166
  642MOL0     H86629   8.028   6.535   1.007  1.6278 -0.8920 -0.3147
  642MOL0     H86630   8.054   6.474   0.649  0.3731  0.0738  2.3320
  642MOL0     H86631   7.984   6.554   0.417 -3.9571  0.2667  1.2123
  642MOL0     H86632   8.077   6.400   0.378 -0.0325  0.4847  0.5554
  642MOL0     H86633   7.911   6.437   0.311  1.6975 -0.1314 -1.5840
  642MOL0     H86634   7.691   6.445   0.093 -0.1021 -1.1402  0.5852
  642MOL0     H86635   7.527   6.433  -0.080 -2.1255 -1.7650 -1.6517
  642MOL0     H86636   7.411   6.218  -0.161  0.1397 -2.1424  4.0606
  642MOL0     H86637   7.271   6.139  -0.102  1.5221 -1.6918 -1.3698
  642MOL0     H86638   7.182   6.155  -0.313 -1.2419  0.4647  1.2403
  642MOL0     H86639   7.166   6.324  -0.269  2.4110  0.6177  1.4834
  642MOL0     H86640   7.415   6.234  -0.401  1.4062  2.9692  0.4591
  642MOL0     H86641   7.367   6.394  -0.358 -2.6188  0.3615  3.4655
  642MOL0     H86642   7.204   6.215  -0.557  3.0134 -1.8287 -1.4914
  642MOL0     H86643   7.187   6.388  -0.532  1.6178  0.8957  0.6523
  642MOL0     H86644   7.269   6.345  -0.730 -1.7946 -1.5075  2.2213
  642MOL0     H86645   7.414   6.255  -0.671 -1.4546 -1.3774  1.6911
  642MOL0     H86646   7.454   6.498  -0.742  1.0180 -1.8182  0.2316
  642MOL0     H86647   7.349   6.557  -0.611  1.4517  1.2992  0.0378
  642MOL0     H86648   7.565   6.352  -0.521 -0.7105  1.1807  3.9434
  642MOL0     H86649   7.521   6.504  -0.446  1.5415  0.1140 -0.0274
  642MOL0     H86650   7.667   6.476  -0.716  2.3847 -1.8622 -0.9308
  642MOL0     H86651   7.762   6.457  -0.569  0.5748  3.4346  1.7755
  642MOL0     H86652   7.269   6.237   0.210  0.2872 -0.4596 -0.9084
  642MOL0     H86653   7.455   6.259   0.384 -0.0011 -4.7746 -2.1494
  642MOL0     H86654   7.698   6.143   0.591  0.0945 -0.0165  2.0027
  642MOL0     H86655   7.794   6.207   0.845 -2.5022 -0.9651 -0.7516
  642MOL0     H86656   8.551   7.245   2.146 -3.1100  0.6809  2.0351
  642MOL0     H86657   8.504   7.470   2.261 -0.6058 -3.5997  1.4600
  642MOL0     H86658   8.752   8.004   2.144 -2.5649 -0.7845 -0.3517
  642MOL0     H86659   8.797   8.221   2.251  1.2826 -0.0253 -0.3494
  642MOL0     H86660   8.949   8.152   2.631  0.2035 -0.5474 -0.3898
  642MOL0     H86661   8.979   8.331   2.629 -1.9194  0.3377  3.6690
  642MOL0     H86662   8.834   8.226   2.827 -4.6584  1.1262  1.7471
  642MOL0     H86663   8.701   8.224   2.718 -1.9256  2.1874  1.5247
  642MOL0     H86664   8.679   8.399   2.852 -1.5185 -0.3912 -1.7395
  642MOL0     H86665   8.718   8.462   2.684  0.7606  2.3187  0.2656
  642MOL0     H86666   8.948   8.491   2.739  0.5246 -2.6907  0.3265
  642MOL0     H86667   8.910   8.490   2.910 -3.5786 -3.1838  1.7552
  642MOL0     H86668   8.707   8.846   2.779  0.1565  1.1583  2.5229
  642MOL0     H86669   8.761   8.008   2.631  2.5634  1.2456  0.8549
  642MOL0     H86670   8.697   7.806   2.520  3.2362 -1.0494  1.5713
  643MOL0     O86671   1.974   4.271   6.656  0.3472 -0.5084  0.7503
  643MOL0     C86672   1.894   4.327   6.730  0.8056  1.3327  0.1646
  643MOL0     O86673   1.864   4.459   6.730  0.3132  0.4179 -0.3662
  643MOL0     C86674   1.934   4.541   6.655 -1.1239 -0.0825  0.6843
  643MOL0     C86675   1.883   4.596   6.538  0.1478 -0.8257  0.5226
  643MOL0     C86676   1.958   4.684   6.460 -0.1125 -0.1644  0.4253
  643MOL0     C86677   2.081   4.725   6.504  0.2787 -0.5192  0.9730
  643MOL0     O86678   2.150   4.821   6.434  0.0162  1.3161 -0.7172
  643MOL0     C86679   2.154   4.942   6.511  0.0985  0.2393  0.3049
  643MOL0     C86680   2.168   5.042   6.402 -0.4066 -0.6205  0.3314
  643MOL0     C86681   2.188   5.176   6.466 -1.5031  0.3087 -0.2349
  643MOL0     C86682   2.199   5.283   6.354 -0.6612 -0.1651 -0.4933
  643MOL0     C86683   2.206   5.418   6.430  0.4326  0.0055 -0.4230
  643MOL0     C86684   2.212   5.531   6.320  0.2968 -0.4545  0.0275
  643MOL0     C86685   2.202   5.668   6.383 -0.3874 -0.1118 -0.1616
  643MOL0     C86686   2.186   5.772   6.261  0.4813 -0.0661  0.3300
  643MOL0     N86687   2.226   5.898   6.325 -0.2989 -0.3435 -0.4710
  643MOL0     C86688   2.144   6.004   6.325  0.1287 -0.0746 -0.7201
  643MOL0     C86689   2.209   6.113   6.375 -0.7290  0.4829 -0.8043
  643MOL0     C86690   2.138   6.252   6.388 -0.3676  1.0235 -0.4608
  643MOL0     C86691   2.186   6.334   6.272  0.9966  0.4848  1.1193
  643MOL0     C86692   2.104   6.460   6.254 -0.0272  0.0650  0.0551
  643MOL0     C86693   2.184   6.573   6.170  0.3775 -0.6828  0.0611
  643MOL0     O86694   2.182   6.541   6.028 -1.1297  0.5957  0.4256
  643MOL0     C86695   2.256   6.609   5.937  0.2688  0.4479  0.0015
  643MOL0     C86696   2.239   6.571   5.802  0.5580 -0.3481 -0.0863
  643MOL0     C86697   2.313   6.624   5.688  0.6194 -0.2355 -0.0348
  643MOL0     C86698   2.274   6.578   5.551  0.4475 -0.7256 -0.4152
  643MOL0     C86699   2.396   6.734   5.721 -0.1108  0.1208  0.5025
  643MOL0     C86700   2.471   6.802   5.612 -0.0156  1.5270 -0.2122
  643MOL0     O86701   2.424   6.794   5.476 -1.2115 -0.5939 -0.8760
  643MOL0     C86702   2.476   6.868   5.376 -0.0819 -0.1068  0.1984
  643MOL0     C86703   2.509   7.000   5.390 -0.3416 -0.4101  0.8475
  643MOL0     C86704   2.553   7.064   5.273  0.0317  0.5545 -0.8043
  643MOL0     C86705   2.560   7.010   5.146 -0.0892  0.1924 -0.3329
  643MOL0     O86706   2.594   7.068   5.028 -0.3737  0.5110  0.0575
  643MOL0     C86707   2.609   7.207   5.036  0.4457 -0.4026 -0.2115
  643MOL0     C86708   2.625   7.260   4.894 -0.2824 -1.3868  0.6092
  643MOL0     C86709   2.494   7.230   4.812  0.2627 -0.2967  0.4176
  643MOL0     C86710   2.531   7.270   4.668 -0.3283 -0.2975 -0.5667
  643MOL0     C86711   2.406   7.256   4.573  0.7500 -0.5251  0.5097
  643MOL0     C86712   2.397   7.353   4.452 -0.3057 -0.1439 -0.0092
  643MOL0     C86713   2.519   7.338   4.363 -0.0098  0.0039  0.0527
  643MOL0     C86714   2.597   7.468   4.326 -0.2212  0.0540 -0.9334
  643MOL0    Cl86715   2.656   7.564   4.469 -0.1048  0.3592 -0.3043
  643MOL0     C86716   2.532   6.875   5.139  0.9009  0.7896 -0.2530
  643MOL0     C86717   2.487   6.795   5.247  0.1301 -0.4695 -0.1159
  643MOL0     O86718   2.573   6.857   5.641  0.9217 -0.0646 -0.2178
  643MOL0     C86719   2.406   6.775   5.860  0.1385 -0.1444  0.8695
  643MOL0     C86720   2.344   6.710   5.962  0.0506  0.3026 -0.8578
  643MOL0     N86721   2.336   6.063   6.418 -0.4352 -0.0137  0.0950
  643MOL0     N86722   2.343   5.933   6.378 -0.3143 -1.0089 -0.6410
  643MOL0     C86723   2.140   4.670   6.620  0.1245 -0.6764  0.3306
  643MOL0     C86724   2.070   4.573   6.688  0.0157 -0.7889  0.2663
  643MOL0     C86725   1.804   4.228   6.809 -0.2031 -0.6339  0.7534
  643MOL0     C86726   1.719   4.275   6.905 -0.1036  1.3080  0.3667
  643MOL0     C86727   1.640   4.193   6.982  0.0132  0.3755 -0.1533
  643MOL0     C86728   1.626   4.066   6.956 -0.4320 -0.4329  0.8645
  643MOL0     O86729   1.522   3.996   7.016  0.5565 -0.4996  0.2214
  643MOL0     C86730   1.495   3.865   6.995  0.6235  0.6330  0.1977
  643MOL0     C86731   1.581   3.777   7.086  0.5342 -0.1478 -0.4669
  643MOL0     C86732   1.508   3.639   7.101  0.9425 -0.1397 -0.9560
  643MOL0     C86733   1.604   3.537   7.177  1.1035  0.5801  0.1363
  643MOL0     C86734   1.620   3.566   7.316  0.8198  0.1413 -0.3648
  643MOL0     C86735   1.631   3.605   7.428  0.1884  0.1874  0.2411
  643MOL0     C86736   1.723   4.004   6.867  0.2731 -0.1893 -0.6161
  643MOL0     C86737   1.805   4.086   6.790 -0.4304 -0.2589  0.0512
  643MOL0     H86738   1.783   4.564   6.509 -0.2914  0.9181  0.0280
  643MOL0     H86739   1.907   4.728   6.374  1.6334 -0.1481 -0.6545
  643MOL0     H86740   2.068   4.968   6.573  0.7709  3.1969  0.1445
  643MOL0     H86741   2.241   4.942   6.578 -0.7328 -1.0903  1.4308
  643MOL0     H86742   2.253   5.024   6.336 -0.6940 -1.5486  0.2028
  643MOL0     H86743   2.075   5.040   6.344 -2.0976  0.7676  2.8226
  643MOL0     H86744   2.103   5.204   6.529  1.0696  1.7135  2.9529
  643MOL0     H86745   2.277   5.187   6.529 -2.2994  1.2396  0.7721
  643MOL0     H86746   2.287   5.266   6.293  0.8329 -1.3328  1.8450
  643MOL0     H86747   2.113   5.295   6.287 -2.6285  3.7518  2.3166
  643MOL0     H86748   2.112   5.424   6.486  1.7677 -1.0113  2.1131
  643MOL0     H86749   2.290   5.425   6.500 -0.5952  0.7640  0.7693
  643MOL0     H86750   2.304   5.532   6.261  0.3004  3.6908 -0.1983
  643MOL0     H86751   2.139   5.512   6.241  0.9468 -2.0127 -0.2223
  643MOL0     H86752   2.115   5.667   6.450  0.7163 -1.9813  1.3478
  643MOL0     H86753   2.291   5.697   6.440 -0.2739 -0.0143 -0.3854
  643MOL0     H86754   2.083   5.768   6.225  0.3196  2.2689  0.3812
  643MOL0     H86755   2.260   5.738   6.187 -0.5366 -1.8032  0.0475
  643MOL0     H86756   2.044   6.004   6.284 -1.6097  0.7309  3.1392
  643MOL0     H86757   2.030   6.245   6.401 -0.4649  2.1989 -0.5542
  643MOL0     H86758   2.177   6.296   6.481  2.4241  0.2628 -1.1609
  643MOL0     H86759   2.183   6.274   6.180  2.0214  0.3806  1.1449
  643MOL0     H86760   2.290   6.362   6.289  0.8729  0.2867  2.2653
  643MOL0     H86761   2.067   6.506   6.346 -2.1350  1.2754 -1.3115
  643MOL0     H86762   2.009   6.436   6.206  0.2394 -1.0537  0.0596
  643MOL0     H86763   2.287   6.568   6.206  0.1480 -0.4905  0.7637
  643MOL0     H86764   2.139   6.672   6.180  2.6927  0.2079  3.1380
  643MOL0     H86765   2.177   6.482   5.795  0.5011 -0.4346  1.3220
  643MOL0     H86766   2.238   6.475   5.561  0.0319 -0.4238  1.6670
  643MOL0     H86767   2.206   6.641   5.493 -0.4118  0.1818  1.5141
  643MOL0     H86768   2.365   6.566   5.491  0.0300 -1.8231 -0.8687
  643MOL0     H86769   2.514   7.047   5.487 -0.8425 -1.4570  1.3946
  643MOL0     H86770   2.592   7.162   5.299 -1.4762  1.9839 -3.4758
  643MOL0     H86771   2.527   7.258   5.088 -0.1426  0.8031 -2.2311
  643MOL0     H86772   2.700   7.224   5.096  0.1166  1.2836 -0.1173
  643MOL0     H86773   2.641   7.368   4.903  0.2700 -1.3480 -0.5954
  643MOL0     H86774   2.714   7.215   4.849  0.0158 -2.3283  2.1027
  643MOL0     H86775   2.408   7.279   4.857 -0.4809 -1.4826  0.3449
  643MOL0     H86776   2.463   7.125   4.803 -0.9981  0.1873 -1.2504
  643MOL0     H86777   2.556   7.376   4.673 -0.2543 -0.3739  1.2780
  643MOL0     H86778   2.619   7.212   4.640  2.2870  3.9449 -1.9483
  643MOL0     H86779   2.317   7.280   4.633  0.4294 -2.0909  0.7167
  643MOL0     H86780   2.402   7.151   4.542  0.5822 -0.0491 -1.1524
  643MOL0     H86781   2.305   7.328   4.400 -1.1980  1.3946  0.7515
  643MOL0     H86782   2.373   7.455   4.484 -0.2874  0.0545 -0.6107
  643MOL0     H86783   2.499   7.293   4.266  0.1347 -2.9370  1.2510
  643MOL0     H86784   2.594   7.263   4.391 -0.5953 -0.6528 -0.1263
  643MOL0     H86785   2.535   7.526   4.256  0.1462  0.6046 -0.8084
  643MOL0     H86786   2.685   7.429   4.276 -0.0492 -2.1686  0.9456
  643MOL0     H86787   2.525   6.844   5.035 -2.0579  0.2376  0.0061
  643MOL0     H86788   2.464   6.691   5.228  1.9567 -0.7565 -0.9034
  643MOL0     H86789   2.487   6.844   5.880  0.5104 -0.4521  0.4545
  643MOL0     H86790   2.372   6.750   6.059 -0.4689  0.4992 -0.7886
  643MOL0     H86791   2.240   4.701   6.648  0.9549 -0.6829 -2.3958
  643MOL0     H86792   2.110   4.518   6.772  1.8256 -2.6552 -1.7098
  643MOL0     H86793   1.714   4.383   6.920 -3.4527  1.1039  1.5542
  643MOL0     H86794   1.603   4.251   7.067  2.4122 -0.6775  1.7428
  643MOL0     H86795   1.391   3.839   7.014  0.5534 -0.9478 -2.0162
  643MOL0     H86796   1.499   3.838   6.889 -1.7736  2.5296 -0.4612
  643MOL0     H86797   1.588   3.821   7.185  2.7540 -0.4806 -0.4321
  643MOL0     H86798   1.680   3.764   7.043  1.3513  1.9494  0.6665
  643MOL0     H86799   1.471   3.593   7.009  0.0901 -1.8693  0.2016
  643MOL0     H86800   1.422   3.650   7.167  4.4221  2.1581  3.8122
  643MOL0     H86801   1.699   3.525   7.124  1.0106 -0.6028  0.2212
  643MOL0     H86802   1.545   3.446   7.164 -0.0875  1.6943 -3.5204
  643MOL0     H86803   1.638   3.647   7.526  0.2384  0.8589 -0.0461
  643MOL0     H86804   1.720   3.897   6.852 -1.5638  0.0104 -2.1162
  643MOL0     H86805   1.877   4.027   6.733 -0.6277 -4.6542  3.7061
  644MOL0     O86806   1.041   6.572   5.608  0.5509 -0.1243  0.0040
  644MOL0     C86807   1.068   6.493   5.513 -0.3411 -0.0402 -0.8848
  644MOL0     O86808   1.024   6.368   5.495  0.1025  0.3440 -0.0981
  644MOL0     C86809   0.923   6.333   5.584 -0.6903 -0.3463  0.9227
  644MOL0     C86810   0.796   6.371   5.559 -0.7168  0.6059  0.4656
  644MOL0     C86811   0.691   6.302   5.624 -1.4832  0.3669 -0.1421
  644MOL0     C86812   0.719   6.222   5.745  0.0066 -0.5777 -0.4701
  644MOL0     O86813   0.619   6.152   5.811 -0.2876 -0.4566 -0.2485
  644MOL0     C86814   0.489   6.155   5.762  0.4595  0.9981 -0.2521
  644MOL0     C86815   0.417   6.049   5.850  0.0094 -0.8335 -0.3875
  644MOL0     C86816   0.322   5.960   5.777 -0.4277 -0.2946  0.8145
  644MOL0     C86817   0.230   5.888   5.859 -0.7206  1.0072  0.1355
  644MOL0     C86818   0.137   5.802   5.773 -0.4134  0.5283  0.1744
  644MOL0     C86819   0.030   5.743   5.863  0.1361 -0.2925 -0.1680
  644MOL0     C86820   0.086   5.646   5.965  1.0318  0.6817  0.5027
  644MOL0     C86821   0.078   5.513   5.887  1.0084 -0.3532  0.1071
  644MOL0     N86822   0.153   5.406   5.966  0.1476  0.6944 -0.4589
  644MOL0     C86823   0.272   5.356   5.917  0.7871 -0.9167  0.7922
  644MOL0     C86824   0.282   5.244   5.993 -0.1496  0.7445 -0.7615
  644MOL0     C86825   0.396   5.144   5.998 -0.2817 -0.3320  0.4007
  644MOL0     C86826   0.353   5.008   5.933  0.6428  0.7761 -0.1349
  644MOL0     C86827   0.242   4.925   6.008  0.3165  0.0188  0.3237
  644MOL0     C86828   0.107   4.934   5.936  0.5540  0.5756 -0.2021
  644MOL0     O86829   0.107   4.889   5.798 -0.1210 -0.0658  0.1318
  644MOL0     C86830   0.136   4.759   5.769 -0.3730 -0.0869  0.2810
  644MOL0     C86831   0.045   4.658   5.798  0.3933 -1.3641 -0.0785
  644MOL0     C86832   0.078   4.524   5.774 -0.0129  1.1485  0.1415
  644MOL0     C86833  -0.023   4.425   5.828 -0.8666  0.4393 -0.6430
  644MOL0     C86834   0.208   4.479   5.720  0.4118  0.7099 -0.0103
  644MOL0     C86835   0.247   4.335   5.717  0.9070  0.6586  0.7346
  644MOL0     O86836   0.347   4.298   5.804  0.4166  0.4430 -0.0666
  644MOL0     C86837   0.365   4.365   5.920 -0.2286 -0.0021 -0.2230
  644MOL0     C86838   0.284   4.343   6.031  0.4837  0.4038 -1.0164
  644MOL0     C86839   0.295   4.415   6.150  0.4422 -0.0431 -0.3609
  644MOL0     C86840   0.386   4.518   6.160 -0.5323 -1.0028  0.4867
  644MOL0     O86841   0.405   4.598   6.271 -0.5492  0.3654 -0.1315
  644MOL0     C86842   0.291   4.621   6.367  0.3770  0.8839  0.1712
  644MOL0     C86843   0.170   4.702   6.312  0.3188 -0.2514 -0.5816
  644MOL0     C86844   0.056   4.616   6.265  0.5402 -0.1691  0.7973
  644MOL0     C86845  -0.077   4.709   6.266  0.8338 -0.0715  0.9031
  644MOL0     C86846  -0.184   4.639   6.182 -0.1214 -0.5614 -0.1008
  644MOL0     C86847  -0.312   4.727   6.180 -1.1347 -0.1742  0.4451
  644MOL0     C86848  -0.435   4.660   6.112  0.2755  0.3212  0.1968
  644MOL0     C86849  -0.529   4.585   6.208  0.0650 -0.4318  1.0647
  644MOL0    Cl86850  -0.631   4.703   6.292 -0.0462 -0.1361 -0.3067
  644MOL0     C86851   0.474   4.542   6.054  0.4667  0.0815  0.7718
  644MOL0     C86852   0.465   4.459   5.939 -0.6370 -0.5202 -0.3266
  644MOL0     O86853   0.182   4.256   5.646  0.5023  0.2994  0.5302
  644MOL0     C86854   0.291   4.585   5.678 -0.1970  0.0785 -0.4947
  644MOL0     C86855   0.255   4.720   5.717 -0.5099  0.1895  0.2630
  644MOL0     N86856   0.165   5.229   6.071 -0.8516  0.0357 -0.2440
  644MOL0     N86857   0.086   5.315   6.049 -0.3523 -0.3656  1.2554
  644MOL0     C86858   0.855   6.194   5.761 -0.2801 -1.0051 -0.6723
  644MOL0     C86859   0.957   6.240   5.681 -0.9578  0.4951 -0.2748
  644MOL0     C86860   1.172   6.544   5.427 -0.2993 -0.1544 -1.4144
  644MOL0     C86861   1.210   6.680   5.426  0.6977 -0.4557 -0.0239
  644MOL0     C86862   1.309   6.716   5.343 -0.1726 -0.0248  0.4222
  644MOL0     C86863   1.384   6.622   5.269  0.1681  0.2664 -0.7574
  644MOL0     O86864   1.500   6.667   5.235 -1.4183 -0.6017 -0.1197
  644MOL0     C86865   1.616   6.580   5.228 -0.1736 -0.2894  0.3207
  644MOL0     C86866   1.737   6.664   5.188  0.2490 -0.0312  0.0776
  644MOL0     C86867   1.734   6.818   5.224 -0.2882 -0.0081 -0.2082
  644MOL0     C86868   1.857   6.886   5.167 -0.0176  0.6443  0.4806
  644MOL0     C86869   1.974   6.865   5.244 -1.0655 -0.0964 -0.4030
  644MOL0     C86870   2.083   6.833   5.307  0.1928 -0.4695  0.1699
  644MOL0     C86871   1.351   6.478   5.277  0.6116  0.1329 -0.8509
  644MOL0     C86872   1.240   6.449   5.356  0.3282  0.0829  1.0380
  644MOL0     H86873   0.768   6.430   5.473  1.1518 -0.7617 -1.1927
  644MOL0     H86874   0.593   6.330   5.586 -2.1786 -1.8674 -0.1688
  644MOL0     H86875   0.438   6.252   5.760  0.6019  1.0648 -2.4992
  644MOL0     H86876   0.497   6.131   5.656  0.9533 -0.1044  0.0156
  644MOL0     H86877   0.493   5.982   5.891  2.9396  3.0527  1.1250
  644MOL0     H86878   0.376   6.100   5.938  0.2740  0.7306 -1.1379
  644MOL0     H86879   0.266   6.017   5.702 -2.5731  0.0998  2.5983
  644MOL0     H86880   0.379   5.887   5.719  0.2083 -0.0511  1.1184
  644MOL0     H86881   0.282   5.817   5.924 -3.7744  0.7313  2.5398
  644MOL0     H86882   0.177   5.957   5.926  0.0948  0.6896  1.1425
  644MOL0     H86883   0.092   5.870   5.701 -1.9136  0.5120  1.0411
  644MOL0     H86884   0.188   5.720   5.723 -2.2798 -1.2187  0.9709
  644MOL0     H86885  -0.004   5.825   5.927  2.6559  1.7280 -1.2463
  644MOL0     H86886  -0.047   5.710   5.793  2.1787  0.7141 -3.0530
  644MOL0     H86887   0.191   5.654   5.996  2.0933  0.8414 -2.7988
  644MOL0     H86888   0.031   5.646   6.060  1.7100 -2.2626  1.0236
  644MOL0     H86889   0.131   5.516   5.792  3.2925 -1.4520  1.2677
  644MOL0     H86890  -0.022   5.473   5.872  0.9781  0.3287 -1.8294
  644MOL0     H86891   0.347   5.405   5.856  2.4771 -2.3561  1.6387
  644MOL0     H86892   0.487   5.175   5.947 -2.5128  1.8911 -2.6093
  644MOL0     H86893   0.435   5.133   6.100  0.0106 -0.7877  0.2444
  644MOL0     H86894   0.441   4.942   5.943 -0.3643 -0.4626  0.9088
  644MOL0     H86895   0.337   5.032   5.828  3.4669  0.8134 -0.6390
  644MOL0     H86896   0.245   4.951   6.115  1.4688 -0.7314  0.4921
  644MOL0     H86897   0.276   4.821   6.005  2.3611  0.6569 -0.1925
  644MOL0     H86898   0.079   5.039   5.950 -0.1344  0.1903  1.5702
  644MOL0     H86899   0.035   4.871   5.989  0.9717 -0.9254 -1.3750
  644MOL0     H86900  -0.043   4.686   5.854  1.1801 -2.8090  1.9769
  644MOL0     H86901  -0.125   4.456   5.852 -1.3619 -2.4933  1.4970
  644MOL0     H86902  -0.038   4.337   5.764  1.7078 -2.0919  1.9406
  644MOL0     H86903   0.015   4.384   5.922  2.4871  2.6926 -0.8325
  644MOL0     H86904   0.208   4.266   6.031  0.1697  0.6880  0.0891
  644MOL0     H86905   0.224   4.387   6.227 -1.7674  1.5093 -1.7196
  644MOL0     H86906   0.270   4.520   6.403 -2.8795  0.6812 -1.8735
  644MOL0     H86907   0.337   4.677   6.449  1.9701 -1.7906  1.2560
  644MOL0     H86908   0.129   4.763   6.393  3.2706  0.2859  0.6406
  644MOL0     H86909   0.210   4.770   6.237 -3.6710  0.3978 -2.3297
  644MOL0     H86910   0.030   4.533   6.331  0.3185 -0.1336  0.7538
  644MOL0     H86911   0.075   4.571   6.167 -0.6399  1.6573 -0.3287
  644MOL0     H86912  -0.108   4.720   6.371  4.6718  0.1623  2.1681
  644MOL0     H86913  -0.055   4.807   6.223 -1.1313  0.0238  0.0155
  644MOL0     H86914  -0.207   4.543   6.229  1.4892 -1.0170 -0.1837
  644MOL0     H86915  -0.157   4.621   6.078 -0.6998 -0.3011 -0.3009
  644MOL0     H86916  -0.336   4.779   6.273 -1.3530  4.3515 -1.8648
  644MOL0     H86917  -0.289   4.811   6.113  4.3155  1.6123  3.8710
  644MOL0     H86918  -0.405   4.589   6.034  0.3356  1.7230 -1.0938
  644MOL0     H86919  -0.499   4.734   6.065  4.4528  3.8400 -0.6371
  644MOL0     H86920  -0.465   4.516   6.265  2.1834  2.2416  2.1580
  644MOL0     H86921  -0.596   4.518   6.154  0.4747 -0.0592  0.0750
  644MOL0     H86922   0.542   4.626   6.063 -2.3628  2.9647 -2.2787
  644MOL0     H86923   0.544   4.464   5.865  0.3186  2.8121  0.7660
  644MOL0     H86924   0.392   4.565   5.642  1.4269  1.6867  2.6886
  644MOL0     H86925   0.339   4.788   5.705  1.2381 -1.8913 -0.0459
  644MOL0     H86926   0.881   6.125   5.840  4.4894 -2.2887 -3.0157
  644MOL0     H86927   1.056   6.197   5.690 -0.5993  1.7127  4.1092
  644MOL0     H86928   1.164   6.751   5.494  2.5601  3.2890 -2.2955
  644MOL0     H86929   1.341   6.820   5.345  0.3793  0.1065 -4.0846
  644MOL0     H86930   1.646   6.544   5.327 -0.6450  1.2072  1.0331
  644MOL0     H86931   1.603   6.492   5.164 -4.6333  2.4619 -3.1427
  644MOL0     H86932   1.749   6.661   5.079  0.0802 -2.4794  0.0779
  644MOL0     H86933   1.832   6.620   5.220  1.3997  0.5912 -2.2024
  644MOL0     H86934   1.743   6.836   5.331  0.2982  3.0644 -0.6862
  644MOL0     H86935   1.646   6.863   5.178 -0.4339 -2.1942 -2.2751
  644MOL0     H86936   1.834   6.993   5.164  0.5522  0.7905 -3.3457
  644MOL0     H86937   1.874   6.854   5.064 -1.5086  2.2930 -0.3193
  644MOL0     H86938   2.164   6.817   5.375 -0.1683 -1.4961  0.3714
  644MOL0     H86939   1.405   6.398   5.227 -0.7600  1.7755 -5.4356
  644MOL0     H86940   1.209   6.345   5.358 -0.3274  0.2371 -0.0356
  645MOL0     O86941  11.257   2.788   4.067 -0.4497  0.0579  0.2981
  645MOL0     C86942  11.191   2.804   3.968  1.1356  0.2046 -0.5297
  645MOL0     O86943  11.239   2.854   3.847  0.2803  0.7274 -1.1320
  645MOL0     C86944  11.371   2.884   3.844 -0.0035 -1.1224  0.3119
  645MOL0     C86945  11.445   2.805   3.754  0.6476 -0.0914 -0.2341
  645MOL0     C86946  11.582   2.823   3.743 -0.7687  0.2615 -0.3277
  645MOL0     C86947  11.644   2.916   3.828  0.5041  0.5799  0.3132
  645MOL0     O86948  11.774   2.938   3.827  0.3294 -0.0126  0.3615
  645MOL0     C86949  11.865   2.833   3.801  0.9553 -0.1351 -0.9631
  645MOL0     C86950  12.000   2.906   3.758 -0.7244  0.4241 -0.3241
  645MOL0     C86951  11.989   3.007   3.644 -0.1823 -0.3508  0.7625
  645MOL0     C86952  12.124   3.076   3.613 -0.3621 -0.3304  0.0396
  645MOL0     C86953  12.233   2.982   3.559  0.4105  0.7772  0.2834
  645MOL0     C86954  12.200   2.908   3.432  0.3052 -0.2766 -0.6377
  645MOL0     C86955  12.307   2.813   3.380  0.1541 -0.3312 -0.5470
  645MOL0     C86956  12.289   2.662   3.431 -0.4846  1.4251 -0.0596
  645MOL0     N86957  12.383   2.570   3.357  0.6374 -0.1566 -0.0049
  645MOL0     C86958  12.353   2.514   3.224  0.4756  0.0750 -0.2802
  645MOL0     C86959  12.461   2.443   3.194 -0.0206  0.4177 -0.2076
  645MOL0     C86960  12.480   2.357   3.071  0.5934 -1.4366 -1.2601
  645MOL0     C86961  12.400   2.223   3.091 -1.6016  0.5334  0.3417
  645MOL0     C86962  12.491   2.115   3.152 -1.1898  0.0700 -0.0609
  645MOL0     C86963  12.458   2.091   3.304  0.4314 -0.0422 -0.2017
  645MOL0     O86964  12.320   2.040   3.299  0.6556  0.4442 -0.7201
  645MOL0     C86965  12.254   2.010   3.412 -0.3116 -0.0941 -0.3596
  645MOL0     C86966  12.118   1.988   3.378 -0.7618  0.6346 -0.7424
  645MOL0     C86967  12.019   1.983   3.484 -0.5757 -0.1692 -0.7526
  645MOL0     C86968  11.882   1.960   3.442 -0.4900  0.0956  1.1831
  645MOL0     C86969  12.061   1.988   3.621  0.0386 -0.0704 -0.4939
  645MOL0     C86970  11.973   1.967   3.740 -0.7174 -1.0569  0.0133
  645MOL0     O86971  12.032   1.995   3.863  0.5580  0.2751  0.5820
  645MOL0     C86972  11.954   2.058   3.951  0.4874 -0.2811  0.8530
  645MOL0     C86973  12.011   2.066   4.076  0.5679 -0.6473  1.1671
  645MOL0     C86974  11.954   2.123   4.180  0.5482  0.2846  0.2890
  645MOL0     C86975  11.826   2.176   4.166  0.6047  0.2702 -0.5078
  645MOL0     O86976  11.767   2.205   4.290 -0.2108 -0.5454  0.9875
  645MOL0     C86977  11.629   2.179   4.323 -0.7391 -0.7408 -0.1828
  645MOL0     C86978  11.645   2.101   4.451  0.7575  0.7685 -0.0210
  645MOL0     C86979  11.710   1.959   4.425 -0.1620 -0.5104  0.9225
  645MOL0     C86980  11.708   1.874   4.545 -0.5024 -0.7743  0.2438
  645MOL0     C86981  11.815   1.764   4.537  0.9288 -0.4501  0.4413
  645MOL0     C86982  11.820   1.698   4.665 -0.3564  0.0712  0.1273
  645MOL0     C86983  11.912   1.575   4.647  0.8544  0.1834  0.1147
  645MOL0     C86984  11.847   1.459   4.594  0.4584  0.2801  0.5899
  645MOL0    Cl86985  11.955   1.330   4.623  0.1599  0.0809 -0.3648
  645MOL0     C86986  11.758   2.179   4.037 -0.7469 -0.1268  0.9441
  645MOL0     C86987  11.823   2.113   3.927  0.4067 -0.0976  0.5909
  645MOL0     O86988  11.864   1.920   3.720  0.3397  0.3782  0.3825
  645MOL0     C86989  12.196   2.013   3.646  0.1187  0.1985  1.0438
  645MOL0     C86990  12.289   2.030   3.543 -0.7080 -0.1614  0.8859
  645MOL0     N86991  12.552   2.452   3.305  0.2262  0.6377 -0.6807
  645MOL0     N86992  12.507   2.536   3.397 -0.3434 -0.2962  0.8188
  645MOL0     C86993  11.576   2.990   3.927 -0.7139  0.1521  0.1584
  645MOL0     C86994  11.434   2.976   3.927  0.4458 -1.6851 -0.0656
  645MOL0     C86995  11.052   2.760   3.987 -0.5107 -0.0069 -0.0775
  645MOL0     C86996  11.000   2.692   4.105 -0.1357 -0.9859 -1.3037
  645MOL0     C86997  10.870   2.660   4.107  1.6739 -0.9634  0.0034
  645MOL0     C86998  10.780   2.669   4.009 -0.2209 -0.6727  0.4054
  645MOL0     O86999  10.649   2.639   4.008  0.1207 -0.1762  0.4223
  645MOL0     C87000  10.571   2.732   4.094 -1.0249  0.0525  0.1234
  645MOL0     C87001  10.508   2.639   4.193 -1.0956 -0.1441  0.5164
  645MOL0     C87002  10.427   2.710   4.298 -0.6299  0.1816 -0.0745
  645MOL0     C87003  10.274   2.717   4.271 -0.4713 -0.4413  0.1150
  645MOL0     C87004  10.249   2.773   4.137 -0.7799 -0.5737  0.1738
  645MOL0     C87005  10.235   2.839   4.038 -0.0890 -0.0830 -0.0914
  645MOL0     C87006  10.827   2.741   3.892 -0.7878 -0.2549  1.2022
  645MOL0     C87007  10.963   2.784   3.888  0.1724 -0.4997 -0.1762
  645MOL0     H87008  11.382   2.744   3.690 -0.7074  0.8766  0.1309
  645MOL0     H87009  11.634   2.763   3.669 -2.4831 -3.0642  0.9687
  645MOL0     H87010  11.874   2.777   3.894 -0.4318 -1.5264 -1.6418
  645MOL0     H87011  11.841   2.772   3.714  0.8534  0.9556 -1.7221
  645MOL0     H87012  12.037   2.957   3.848 -0.8910  0.3083 -0.1877
  645MOL0     H87013  12.075   2.826   3.748 -0.6616  0.0605  2.1899
  645MOL0     H87014  11.969   2.955   3.550 -1.0274  0.1068  0.6833
  645MOL0     H87015  11.912   3.079   3.669  0.1612  0.0405  0.7083
  645MOL0     H87016  12.106   3.171   3.563  2.3961  2.3291  3.5888
  645MOL0     H87017  12.150   3.117   3.711 -4.5662  1.8943  0.4324
  645MOL0     H87018  12.322   3.043   3.541 -0.3187  2.3344  1.6833
  645MOL0     H87019  12.248   2.907   3.638 -0.1936  0.3395 -0.0086
  645MOL0     H87020  12.108   2.851   3.443  0.5961 -1.1838 -2.5690
  645MOL0     H87021  12.183   2.985   3.357 -0.2383  0.5822  0.3324
  645MOL0     H87022  12.292   2.824   3.272 -0.9806  0.7529 -0.3113
  645MOL0     H87023  12.406   2.846   3.410 -0.8342  2.1209  0.2423
  645MOL0     H87024  12.185   2.647   3.400 -1.0450  2.1313  1.3818
  645MOL0     H87025  12.315   2.654   3.537 -0.0697  1.1539 -0.1808
  645MOL0     H87026  12.272   2.537   3.157 -0.6230  2.8292  1.7734
  645MOL0     H87027  12.439   2.424   2.995  1.1631 -0.2033 -0.5045
  645MOL0     H87028  12.587   2.344   3.056  1.3586  1.2757  1.1046
  645MOL0     H87029  12.379   2.195   2.987  0.7361 -3.0524  0.6645
  645MOL0     H87030  12.299   2.223   3.135 -1.0273 -0.1790  1.7167
  645MOL0     H87031  12.598   2.134   3.148 -1.5635  4.1613  3.1228
  645MOL0     H87032  12.473   2.015   3.112 -1.0946 -0.6835  1.7032
  645MOL0     H87033  12.462   2.186   3.359 -2.1764  0.0457 -0.0332
  645MOL0     H87034  12.525   2.018   3.350 -2.0357 -1.2481  1.7446
  645MOL0     H87035  12.082   1.969   3.277 -0.6214 -1.4624 -0.4485
  645MOL0     H87036  11.835   1.864   3.467 -0.7301 -0.5876 -1.6115
  645MOL0     H87037  11.817   2.039   3.482 -1.5494  1.5094 -2.8788
  645MOL0     H87038  11.858   1.974   3.336 -0.8354 -1.5561  1.0217
  645MOL0     H87039  12.116   2.043   4.087  0.4587 -1.5655  0.3608
  645MOL0     H87040  12.005   2.153   4.271 -0.7464  0.6528  0.9340
  645MOL0     H87041  11.589   2.278   4.343  0.6357 -0.3700  0.9014
  645MOL0     H87042  11.578   2.114   4.251  0.3237 -3.8692  1.6727
  645MOL0     H87043  11.701   2.153   4.529  0.6595  2.2853 -0.9160
  645MOL0     H87044  11.545   2.080   4.491  0.6112 -1.4559 -1.3906
  645MOL0     H87045  11.810   1.972   4.381 -1.0884 -0.6367 -1.3502
  645MOL0     H87046  11.655   1.914   4.342 -1.7030  0.9186  1.1251
  645MOL0     H87047  11.738   1.937   4.629 -1.8571  1.3305 -0.7738
  645MOL0     H87048  11.608   1.838   4.570  0.3797 -1.2772  3.5291
  645MOL0     H87049  11.907   1.814   4.503  1.5546 -0.2487  2.3545
  645MOL0     H87050  11.778   1.695   4.460 -0.6438  1.2453 -0.4004
  645MOL0     H87051  11.860   1.759   4.746 -0.4872  0.6958 -0.2770
  645MOL0     H87052  11.720   1.672   4.700 -0.1429  1.6427  2.0710
  645MOL0     H87053  11.941   1.549   4.749  2.6408 -0.7096 -0.5750
  645MOL0     H87054  12.000   1.595   4.585  0.2595 -0.1427 -0.8565
  645MOL0     H87055  11.808   1.478   4.494  0.4739 -2.5887 -0.0574
  645MOL0     H87056  11.756   1.442   4.652 -0.0021 -0.1948 -0.2461
  645MOL0     H87057  11.665   2.230   4.013 -0.3193  0.0293 -0.4763
  645MOL0     H87058  11.795   2.102   3.822  3.3082 -3.2827 -0.0343
  645MOL0     H87059  12.234   2.016   3.747 -1.2369  1.5305  1.5363
  645MOL0     H87060  12.390   2.057   3.569 -1.3385  4.4083 -0.5060
  645MOL0     H87061  11.622   3.065   3.991 -0.1445 -0.2544  0.2293
  645MOL0     H87062  11.378   3.040   3.994  1.6235  1.1079 -1.5790
  645MOL0     H87063  11.062   2.688   4.194  0.4389  2.7103 -1.3702
  645MOL0     H87064  10.820   2.619   4.194 -2.9137  0.6797 -1.5471
  645MOL0     H87065  10.629   2.809   4.145 -0.2941  0.8805 -1.8825
  645MOL0     H87066  10.488   2.780   4.041  0.1623  4.1208  1.5960
  645MOL0     H87067  10.593   2.598   4.250 -2.5094 -1.6889  1.6108
  645MOL0     H87068  10.448   2.563   4.143 -0.9425  2.2716 -3.7442
  645MOL0     H87069  10.454   2.815   4.314  1.2738  0.1825 -2.6354
  645MOL0     H87070  10.441   2.652   4.390  1.7822 -3.4520 -2.4832
  645MOL0     H87071  10.228   2.791   4.337 -0.7001 -1.2603  0.8933
  645MOL0     H87072  10.234   2.615   4.271  0.4947 -0.8403  0.8334
  645MOL0     H87073  10.204   2.905   3.960 -3.7500 -3.9479 -2.2951
  645MOL0     H87074  10.758   2.756   3.810  0.3567 -1.7897 -0.0997
  645MOL0     H87075  10.995   2.838   3.800 -2.0328  1.8862  0.3490
  646MOL0     O87076   5.634   1.217   0.536  0.0740  0.9559  0.0731
  646MOL0     C87077   5.717   1.282   0.480 -0.2632  1.5058  0.4732
  646MOL0     O87078   5.730   1.300   0.350  0.5050  0.4277 -0.2204
  646MOL0     C87079   5.621   1.274   0.268  0.2695 -0.5764  0.5585
  646MOL0     C87080   5.487   1.306   0.291 -0.6555  0.5303  1.3598
  646MOL0     C87081   5.393   1.287   0.186 -0.6458 -0.2738 -0.9404
  646MOL0     C87082   5.420   1.212   0.073 -1.1084  0.8018 -0.1650
  646MOL0     O87083   5.334   1.194  -0.029 -0.2771 -0.6882 -0.1624
  646MOL0     C87084   5.298   1.328  -0.087  0.0055  1.3721 -0.8414
  646MOL0     C87085   5.245   1.318  -0.221 -0.2359 -0.3955  0.8160
  646MOL0     C87086   5.331   1.267  -0.331  0.0631  1.0638  0.3960
  646MOL0     C87087   5.343   1.113  -0.326 -0.1737  0.2518  0.8069
  646MOL0     C87088   5.288   1.050  -0.458  0.3958 -0.2795  0.5073
  646MOL0     C87089   5.402   1.014  -0.562  0.8202  0.5261 -0.2485
  646MOL0     C87090   5.353   0.976  -0.694 -0.0124  0.0672  0.6932
  646MOL0     C87091   5.242   0.869  -0.697 -0.4793 -0.5605  0.1783
  646MOL0     N87092   5.300   0.734  -0.651 -1.2481 -0.7391  0.8146
  646MOL0     C87093   5.392   0.667  -0.727 -0.6448  0.1824  0.2473
  646MOL0     C87094   5.430   0.556  -0.663 -0.5432 -0.5477  0.2539
  646MOL0     C87095   5.547   0.477  -0.704 -0.7942 -0.1508 -0.9240
  646MOL0     C87096   5.678   0.484  -0.612 -0.2894 -0.1264 -0.3560
  646MOL0     C87097   5.777   0.603  -0.651  0.8349  0.5057 -0.1630
  646MOL0     C87098   5.742   0.737  -0.582 -0.6607 -0.6255  0.8486
  646MOL0     O87099   5.810   0.740  -0.451  0.1764 -0.0234  0.3238
  646MOL0     C87100   5.834   0.863  -0.401  0.3866 -0.8289  0.2497
  646MOL0     C87101   5.766   0.983  -0.432 -0.0693 -0.1760  0.1640
  646MOL0     C87102   5.796   1.104  -0.367  0.6775 -0.7379 -0.1442
  646MOL0     C87103   5.707   1.232  -0.403 -0.4471 -1.0547 -0.0494
  646MOL0     C87104   5.896   1.109  -0.273 -0.5510 -0.3436 -0.0117
  646MOL0     C87105   5.949   1.215  -0.199 -0.8477 -0.8261 -0.4198
  646MOL0     O87106   6.000   1.176  -0.086  0.5694  0.3155 -1.0856
  646MOL0     C87107   6.038   1.274   0.003 -0.6759  0.4694  0.1828
  646MOL0     C87108   6.170   1.284   0.037  0.0153  0.4053  1.4091
  646MOL0     C87109   6.224   1.374   0.124 -1.0213 -0.2547 -1.2019
  646MOL0     C87110   6.140   1.484   0.164  0.1976 -1.0636 -0.2331
  646MOL0     O87111   6.200   1.592   0.227 -0.1996 -0.1692 -0.2810
  646MOL0     C87112   6.325   1.649   0.185 -0.1110  0.2782  0.1615
  646MOL0     C87113   6.424   1.634   0.303  0.4153  0.1546  0.1260
  646MOL0     C87114   6.545   1.718   0.298  0.5778  0.1002  0.0063
  646MOL0     C87115   6.601   1.734   0.150 -1.0087 -0.5991 -0.3938
  646MOL0     C87116   6.751   1.769   0.155  0.4781  0.4643 -0.4461
  646MOL0     C87117   6.763   1.911   0.208 -0.4718  0.0186 -0.5789
  646MOL0     C87118   6.910   1.969   0.198 -0.2767  0.0934 -0.1690
  646MOL0     C87119   6.916   2.125   0.192 -0.4723 -1.0097  0.8412
  646MOL0    Cl87120   6.844   2.204   0.335  0.2525 -0.1098 -0.1340
  646MOL0     C87121   5.999   1.469   0.135 -0.8677 -0.1316  0.5350
  646MOL0     C87122   5.948   1.363   0.066 -0.5216  0.7607  1.0294
  646MOL0     O87123   5.948   1.331  -0.242 -0.5300 -0.5932  0.0329
  646MOL0     C87124   5.969   0.984  -0.241 -0.2713 -0.3498  0.0773
  646MOL0     C87125   5.931   0.859  -0.302 -0.0044 -0.3490 -0.1143
  646MOL0     N87126   5.359   0.551  -0.541 -0.2724 -1.0926 -0.3350
  646MOL0     N87127   5.293   0.665  -0.535 -0.0908 -0.0181  0.5082
  646MOL0     C87128   5.550   1.163   0.058 -0.0322 -0.7127 -0.0961
  646MOL0     C87129   5.650   1.189   0.156  0.5514 -0.9067  0.2520
  646MOL0     C87130   5.810   1.342   0.564  0.5516  0.3668 -0.8245
  646MOL0     C87131   5.938   1.393   0.506  0.3303 -0.2215 -0.6039
  646MOL0     C87132   6.028   1.456   0.591  0.0755 -0.2735 -0.2731
  646MOL0     C87133   6.006   1.464   0.731  0.2626 -0.8867  0.0001
  646MOL0     O87134   6.103   1.524   0.809  0.0019  0.1884  0.4006
  646MOL0     C87135   6.088   1.539   0.945 -0.2966 -0.4185 -0.8299
  646MOL0     C87136   5.997   1.649   0.990 -0.4625  0.1069  0.8575
  646MOL0     C87137   5.969   1.633   1.138 -0.8890  0.7685  0.0752
  646MOL0     C87138   5.841   1.705   1.184 -0.3028 -0.6660 -0.0795
  646MOL0     C87139   5.719   1.625   1.142  0.0937 -0.2900  0.3327
  646MOL0     C87140   5.622   1.546   1.115  0.5591 -0.3051 -0.5119
  646MOL0     C87141   5.886   1.414   0.785 -0.7056  0.5012 -1.2930
  646MOL0     C87142   5.791   1.366   0.700  0.4281 -0.8295 -0.0611
  646MOL0     H87143   5.465   1.362   0.382 -1.5807  3.3030 -0.4580
  646MOL0     H87144   5.297   1.325   0.220 -0.6497  1.3360 -2.5754
  646MOL0     H87145   5.224   1.369  -0.017 -0.9138 -0.3737 -0.7381
  646MOL0     H87146   5.391   1.386  -0.089 -1.3895  4.2422  3.5062
  646MOL0     H87147   5.153   1.260  -0.235 -0.7817  0.4325  0.9399
  646MOL0     H87148   5.215   1.421  -0.243 -2.9885 -0.7186  2.5752
  646MOL0     H87149   5.307   1.300  -0.433  1.4785  1.4716  0.1678
  646MOL0     H87150   5.425   1.318  -0.307  0.3683  0.6380  0.1224
  646MOL0     H87151   5.451   1.097  -0.313 -0.8408 -3.0932  3.8382
  646MOL0     H87152   5.303   1.063  -0.238 -0.0550 -0.4929  0.4483
  646MOL0     H87153   5.231   0.961  -0.428  0.3314  0.3731  2.4531
  646MOL0     H87154   5.219   1.119  -0.508  1.1834  2.1272  2.5612
  646MOL0     H87155   5.475   1.094  -0.574  0.7449  0.5304 -0.6952
  646MOL0     H87156   5.443   0.918  -0.529 -2.1419  0.1397  2.9636
  646MOL0     H87157   5.318   1.065  -0.749  0.1682 -1.4479 -2.0750
  646MOL0     H87158   5.433   0.937  -0.758 -0.9698 -0.1430 -0.4319
  646MOL0     H87159   5.192   0.858  -0.793 -3.6651  3.5722  1.0350
  646MOL0     H87160   5.162   0.898  -0.629 -2.1536  0.6143 -2.1563
  646MOL0     H87161   5.436   0.707  -0.817  0.1783  1.1551  1.0495
  646MOL0     H87162   5.514   0.373  -0.710  0.5763 -0.5412 -2.2149
  646MOL0     H87163   5.572   0.511  -0.805 -1.6302  3.7257 -0.0093
  646MOL0     H87164   5.725   0.385  -0.611  2.8389  1.2170 -1.5869
  646MOL0     H87165   5.651   0.482  -0.506 -0.0797 -0.9964 -0.3072
  646MOL0     H87166   5.769   0.619  -0.759 -2.4297  0.8066  0.0045
  646MOL0     H87167   5.882   0.579  -0.634  0.3105  0.0266  3.1752
  646MOL0     H87168   5.634   0.758  -0.577 -1.1346 -2.8229  0.6206
  646MOL0     H87169   5.785   0.817  -0.643  0.6373 -2.0429 -0.1739
  646MOL0     H87170   5.693   0.989  -0.512 -0.4477 -3.7557  0.0856
  646MOL0     H87171   5.766   1.290  -0.474  0.7385 -1.1502  0.8336
  646MOL0     H87172   5.611   1.214  -0.453 -2.1464  2.2492  1.6865
  646MOL0     H87173   5.685   1.288  -0.311  2.4895  1.5317 -0.7620
  646MOL0     H87174   6.235   1.215  -0.016  0.6552 -1.5234  4.4250
  646MOL0     H87175   6.333   1.378   0.127 -1.0788  0.6913  1.1045
  646MOL0     H87176   6.357   1.604   0.091 -0.0955  0.0425  0.2782
  646MOL0     H87177   6.308   1.753   0.156  0.3249 -0.3261 -2.4727
  646MOL0     H87178   6.373   1.654   0.398 -1.6301  1.3831 -1.1686
  646MOL0     H87179   6.456   1.530   0.315  0.7244  0.1471 -0.7102
  646MOL0     H87180   6.623   1.661   0.349  0.0861 -2.0251 -1.4845
  646MOL0     H87181   6.538   1.818   0.341 -0.3209  0.3816 -0.7746
  646MOL0     H87182   6.600   1.640   0.094  1.7138  0.2873 -2.1216
  646MOL0     H87183   6.549   1.810   0.091  1.6692 -0.0325 -2.1888
  646MOL0     H87184   6.793   1.751   0.055 -0.7306 -3.4424 -0.4025
  646MOL0     H87185   6.807   1.704   0.224 -1.0315 -1.1928 -0.7084
  646MOL0     H87186   6.691   1.977   0.158 -0.9565  3.1292  3.6689
  646MOL0     H87187   6.745   1.905   0.316  2.3285 -0.1168 -0.0495
  646MOL0     H87188   6.954   1.937   0.104  0.9276 -1.0090  0.7333
  646MOL0     H87189   6.959   1.921   0.284 -4.7112 -3.8339  0.6125
  646MOL0     H87190   6.849   2.145   0.108  1.7072  0.2818 -0.6941
  646MOL0     H87191   7.011   2.167   0.159 -2.0636  1.5794 -0.7986
  646MOL0     H87192   5.936   1.547   0.175  2.3451  3.4123 -0.7102
  646MOL0     H87193   5.843   1.363   0.038 -0.3489 -0.5300  0.2721
  646MOL0     H87194   6.052   0.970  -0.173  1.7321  1.0804 -1.9284
  646MOL0     H87195   5.980   0.764  -0.284  0.0617 -0.7549 -2.1762
  646MOL0     H87196   5.574   1.104  -0.030  1.6423  2.5734 -2.0568
  646MOL0     H87197   5.749   1.150   0.138  0.2966 -0.9290 -1.1969
  646MOL0     H87198   5.951   1.362   0.403 -0.1112 -0.3796 -0.6121
  646MOL0     H87199   6.115   1.510   0.556  0.4412 -0.4767  0.3246
  646MOL0     H87200   6.060   1.439   0.980  0.9130  0.4269  3.0794
  646MOL0     H87201   6.191   1.548   0.981 -0.8209  1.1243  0.4077
  646MOL0     H87202   5.901   1.644   0.937  1.7492 -2.6582 -3.4108
  646MOL0     H87203   6.050   1.742   0.970  0.8731 -0.7305  0.4431
  646MOL0     H87204   6.056   1.665   1.196  0.7713 -0.1683 -1.8041
  646MOL0     H87205   5.947   1.532   1.173 -2.4461  1.1286  0.1956
  646MOL0     H87206   5.857   1.806   1.144  1.0719 -1.4079 -1.4806
  646MOL0     H87207   5.849   1.709   1.293  0.5530  2.3561 -0.1639
  646MOL0     H87208   5.535   1.486   1.099 -0.4864  0.9194  0.3678
  646MOL0     H87209   5.850   1.426   0.887 -1.6873  3.5641 -1.8990
  646MOL0     H87210   5.697   1.340   0.748 -1.5873 -1.6385 -4.0434
  647MOL0     O87211   9.197   8.396   1.981  0.5192 -1.0855 -0.4237
  647MOL0     C87212   9.170   8.332   1.883 -0.9240  0.5953 -0.5757
  647MOL0     O87213   9.268   8.249   1.830  0.5918 -0.2220 -0.0893
  647MOL0     C87214   9.383   8.225   1.892  0.4901 -0.2485  0.6194
  647MOL0     C87215   9.474   8.327   1.913 -0.2330  0.7033  0.4567
  647MOL0     C87216   9.597   8.321   1.976  0.8845  0.5672  0.1152
  647MOL0     C87217   9.635   8.197   2.033 -0.2092 -0.3193 -0.3918
  647MOL0     O87218   9.744   8.200   2.109 -0.1184  0.2632  0.4810
  647MOL0     C87219   9.748   8.111   2.226  0.3919  0.7631 -0.1187
  647MOL0     C87220   9.838   8.167   2.326 -0.6396  0.5594  0.6331
  647MOL0     C87221   9.766   8.273   2.408  0.2934 -0.0010 -0.4445
  647MOL0     C87222   9.821   8.294   2.549 -0.9685 -0.0732 -0.1988
  647MOL0     C87223   9.719   8.378   2.637 -0.0254 -0.5771  0.4356
  647MOL0     C87224   9.768   8.389   2.776 -0.5709 -0.3082 -0.4859
  647MOL0     C87225   9.665   8.468   2.849 -0.0499 -0.5180 -0.4231
  647MOL0     C87226   9.659   8.627   2.821 -0.7761  0.4213  1.2196
  647MOL0     N87227   9.797   8.679   2.808  0.3844 -1.1505 -0.9256
  647MOL0     C87228   9.881   8.670   2.916 -0.5480 -0.1529  0.7989
  647MOL0     C87229   9.996   8.731   2.874 -0.8783  0.4868 -0.3725
  647MOL0     C87230  10.131   8.721   2.939  0.1708  0.1043 -0.9028
  647MOL0     C87231  10.209   8.610   2.877  0.7027 -0.4431 -0.7532
  647MOL0     C87232  10.342   8.594   2.961 -0.7192 -0.1604  0.5126
  647MOL0     C87233  10.324   8.484   3.070 -0.0164  0.0908 -0.5355
  647MOL0     O87234  10.448   8.476   3.141 -0.7535  0.6775  0.2613
  647MOL0     C87235  10.458   8.377   3.242 -0.2533 -0.3424 -1.1426
  647MOL0     C87236  10.366   8.273   3.261 -0.2342  0.7214 -0.0990
  647MOL0     C87237  10.381   8.174   3.361 -1.0466 -1.2482 -0.3422
  647MOL0     C87238  10.273   8.069   3.374 -0.5694 -0.1614  0.0020
  647MOL0     C87239  10.507   8.176   3.433 -0.5224  0.5564 -0.2386
  647MOL0     C87240  10.544   8.082   3.544  0.9730  1.3073 -0.6391
  647MOL0     O87241  10.670   8.096   3.599 -0.5337 -0.2337  0.3347
  647MOL0     C87242  10.729   8.023   3.704  1.5289 -1.0876  0.1088
  647MOL0     C87243  10.867   8.024   3.718  0.1598  0.4776  0.5530
  647MOL0     C87244  10.929   7.941   3.818  0.3483 -0.1390  0.4758
  647MOL0     C87245  10.846   7.879   3.903  0.6807 -0.0780 -0.0311
  647MOL0     O87246  10.898   7.792   3.997 -0.0921  0.1847  0.4451
  647MOL0     C87247  11.001   7.841   4.085 -0.4985 -0.0550  0.4903
  647MOL0     C87248  11.079   7.740   4.181 -0.8315  0.0601  0.1343
  647MOL0     C87249  10.985   7.659   4.255 -1.1091 -0.5645  0.0317
  647MOL0     C87250  11.060   7.607   4.381  0.6796 -0.2600 -0.2211
  647MOL0     C87251  10.982   7.487   4.436 -0.1888  0.2051  0.5385
  647MOL0     C87252  11.060   7.402   4.531  0.2561 -0.0049  0.1698
  647MOL0     C87253  10.981   7.279   4.574 -0.2227 -0.6514  0.6147
  647MOL0     C87254  10.927   7.195   4.462  0.6650 -0.4270  0.3033
  647MOL0    Cl87255  11.055   7.147   4.339  0.6906 -0.0615  0.3479
  647MOL0     C87256  10.709   7.878   3.895  0.1988  0.9249 -0.1185
  647MOL0     C87257  10.643   7.952   3.795  0.0661 -0.8816 -0.3349
  647MOL0     O87258  10.461   7.991   3.572  0.5077 -0.3217  0.4967
  647MOL0     C87259  10.597   8.281   3.413  0.1432 -0.7152  0.2263
  647MOL0     C87260  10.572   8.380   3.322 -0.1410 -0.8505  0.9783
  647MOL0     N87261   9.973   8.789   2.749 -0.2717 -0.3396  0.6260
  647MOL0     N87262   9.849   8.760   2.711 -0.9107  0.7454 -0.0900
  647MOL0     C87263   9.552   8.085   2.012 -0.0570 -0.5647 -1.1924
  647MOL0     C87264   9.425   8.104   1.942 -0.0180 -1.5843  0.3336
  647MOL0     C87265   9.027   8.334   1.842 -0.6016 -0.6439  0.7397
  647MOL0     C87266   8.944   8.445   1.868  0.0671 -0.4339  0.3940
  647MOL0     C87267   8.814   8.448   1.826  0.6691 -0.0568  0.1818
  647MOL0     C87268   8.771   8.346   1.749 -0.5280 -1.0443  0.6990
  647MOL0     O87269   8.638   8.335   1.702 -1.0363  0.1563 -0.2064
  647MOL0     C87270   8.576   8.453   1.649 -0.0014 -0.8434  0.1614
  647MOL0     C87271   8.484   8.524   1.756 -0.4053 -1.2673  0.1529
  647MOL0     C87272   8.345   8.457   1.769 -0.5103 -0.3324 -0.0156
  647MOL0     C87273   8.249   8.457   1.644 -0.7821 -0.9722 -0.1058
  647MOL0     C87274   8.198   8.590   1.626 -0.4432 -0.3046 -0.0636
  647MOL0     C87275   8.157   8.704   1.618 -0.4708  0.7034  0.1490
  647MOL0     C87276   8.856   8.247   1.713  1.5039  0.9137  0.0166
  647MOL0     C87277   8.984   8.230   1.762  0.9673 -0.6043 -0.6575
  647MOL0     H87278   9.455   8.420   1.860  1.1610 -0.3007 -1.9867
  647MOL0     H87279   9.667   8.402   1.998  1.6344 -0.7878  3.3787
  647MOL0     H87280   9.649   8.080   2.260  0.6652  1.8267  1.7846
  647MOL0     H87281   9.792   8.017   2.191  1.1221  1.1017 -0.1389
  647MOL0     H87282   9.865   8.089   2.398  0.5600  0.5891  0.2387
  647MOL0     H87283   9.928   8.198   2.274  0.1416 -0.5869  1.2629
  647MOL0     H87284   9.762   8.375   2.367 -1.7928 -0.1582 -0.7535
  647MOL0     H87285   9.665   8.234   2.423  1.0151 -1.3093  1.2979
  647MOL0     H87286   9.825   8.195   2.595 -4.4863 -2.8376 -4.9121
  647MOL0     H87287   9.923   8.331   2.563 -1.5207  0.9331  1.4981
  647MOL0     H87288   9.705   8.477   2.593 -0.8894 -0.9483 -0.1456
  647MOL0     H87289   9.622   8.328   2.637  0.0298 -0.7001  1.3369
  647MOL0     H87290   9.800   8.292   2.817  0.1153  0.4955  0.9579
  647MOL0     H87291   9.861   8.447   2.776 -0.2655 -0.7695  0.7492
  647MOL0     H87292   9.567   8.423   2.832 -1.5774  1.6341  1.9731
  647MOL0     H87293   9.693   8.462   2.955  1.6693  3.5921 -0.4848
  647MOL0     H87294   9.607   8.684   2.898 -0.9720  2.2274 -0.1877
  647MOL0     H87295   9.602   8.638   2.728  1.9220 -2.6026 -1.0224
  647MOL0     H87296   9.856   8.614   3.005  1.1810 -2.1260  0.1285
  647MOL0     H87297  10.185   8.815   2.924  2.0099 -0.6361  0.6698
  647MOL0     H87298  10.109   8.702   3.045 -1.6814  1.6772 -0.9649
  647MOL0     H87299  10.233   8.625   2.771 -0.3160 -0.2805 -0.9713
  647MOL0     H87300  10.154   8.516   2.891 -0.2801  0.3416  0.8563
  647MOL0     H87301  10.373   8.678   3.022 -1.1252  0.9665 -0.7897
  647MOL0     H87302  10.421   8.572   2.890  1.7318  2.6294  2.1614
  647MOL0     H87303  10.296   8.387   3.027 -0.1598  0.5910 -1.6060
  647MOL0     H87304  10.250   8.513   3.144  1.7251  2.4856  0.4124
  647MOL0     H87305  10.278   8.272   3.197 -0.1566  0.7417 -0.2055
  647MOL0     H87306  10.231   8.091   3.472  2.6345  2.9834  0.8512
  647MOL0     H87307  10.210   8.079   3.285 -1.8115 -2.7431  0.4865
  647MOL0     H87308  10.308   7.965   3.376 -0.2726 -0.0533  1.6977
  647MOL0     H87309  10.934   8.064   3.642 -0.5675  0.1568 -0.2710
  647MOL0     H87310  11.037   7.932   3.818  0.6489  2.0464 -2.3835
  647MOL0     H87311  11.087   7.869   4.024 -1.1317 -2.7731 -1.8644
  647MOL0     H87312  10.965   7.926   4.143  1.5668 -1.0717  3.4655
  647MOL0     H87313  11.144   7.671   4.126 -2.0404 -0.1863 -1.0264
  647MOL0     H87314  11.137   7.796   4.256 -2.2052 -0.1158  1.3699
  647MOL0     H87315  10.952   7.577   4.191 -0.3206 -0.7021 -0.2012
  647MOL0     H87316  10.896   7.714   4.289 -1.6345 -2.9744  3.0302
  647MOL0     H87317  11.162   7.570   4.370 -0.3770 -3.8983  0.6921
  647MOL0     H87318  11.059   7.684   4.458 -1.8515 -1.2514  0.8624
  647MOL0     H87319  10.949   7.427   4.351 -0.4136  1.9125 -0.6204
  647MOL0     H87320  10.889   7.516   4.485 -0.7803  0.5824 -0.7802
  647MOL0     H87321  11.150   7.364   4.481  0.5724 -2.0957  2.1404
  647MOL0     H87322  11.099   7.466   4.611  5.0356  0.3228 -2.0551
  647MOL0     H87323  10.900   7.331   4.626  2.1705  0.2611  3.7593
  647MOL0     H87324  11.027   7.219   4.654 -0.4612 -3.7454 -1.4071
  647MOL0     H87325  10.844   7.253   4.422 -0.3917 -0.7164  1.9656
  647MOL0     H87326  10.895   7.098   4.500  1.6062 -1.2871 -0.9936
  647MOL0     H87327  10.652   7.814   3.962  1.6374 -1.8634 -1.3882
  647MOL0     H87328  10.535   7.962   3.803  0.2997  1.7175  0.4928
  647MOL0     H87329  10.682   8.295   3.479 -0.5608  0.7708  0.8619
  647MOL0     H87330  10.639   8.465   3.316  0.0936 -1.1178 -0.8024
  647MOL0     H87331   9.584   7.989   2.052  1.6536  0.6189  0.3996
  647MOL0     H87332   9.358   8.019   1.934 -0.9678 -0.9563  1.2672
  647MOL0     H87333   8.967   8.538   1.917 -0.7371 -0.8818  1.6650
  647MOL0     H87334   8.742   8.522   1.859 -0.7347  0.1032 -2.8931
  647MOL0     H87335   8.648   8.528   1.616 -0.3215 -0.2466  0.7963
  647MOL0     H87336   8.521   8.417   1.561 -1.3810  2.0357 -0.2872
  647MOL0     H87337   8.454   8.622   1.716  0.5039 -0.3690  1.5734
  647MOL0     H87338   8.527   8.548   1.853 -0.0211  1.1539 -0.5371
  647MOL0     H87339   8.288   8.498   1.853  2.9584  1.1163  1.8100
  647MOL0     H87340   8.366   8.353   1.795 -1.6767 -0.1272  1.9409
  647MOL0     H87341   8.169   8.382   1.649 -1.1501 -0.6465 -0.9683
  647MOL0     H87342   8.308   8.419   1.560 -1.1626  0.5683 -1.1150
  647MOL0     H87343   8.124   8.805   1.628  1.4641  1.4478 -0.5337
  647MOL0     H87344   8.819   8.168   1.649 -1.7746 -0.4358  3.2785
  647MOL0     H87345   9.049   8.151   1.725 -0.5867 -1.8158 -0.9621
  648MOL0     O87346   2.117   5.953  11.281 -0.7326 -0.6427  0.5724
  648MOL0     C87347   2.150   6.055  11.343 -0.2237 -0.2237  0.6075
  648MOL0     O87348   2.211   6.166  11.288 -0.5390 -0.9515  0.2321
  648MOL0     C87349   2.249   6.167  11.149  0.1652 -0.8411 -0.8498
  648MOL0     C87350   2.304   6.057  11.072  0.5785  0.3618 -0.5152
  648MOL0     C87351   2.373   6.072  10.948  0.7938  0.2672  0.7492
  648MOL0     C87352   2.381   6.196  10.887 -1.1526 -0.7257  0.5992
  648MOL0     O87353   2.433   6.220  10.767 -0.3426  0.4301  0.6082
  648MOL0     C87354   2.493   6.109  10.700 -0.1463 -0.5490 -0.2108
  648MOL0     C87355   2.527   6.155  10.552 -0.1657  0.1682 -1.2781
  648MOL0     C87356   2.417   6.174  10.458  0.4464 -0.3691  0.3164
  648MOL0     C87357   2.346   6.313  10.475 -0.6528 -0.0620  0.3685
  648MOL0     C87358   2.295   6.368  10.349  0.3296  0.6855 -0.2500
  648MOL0     C87359   2.194   6.489  10.356  0.0809 -0.8094 -0.1861
  648MOL0     C87360   2.207   6.565  10.221 -0.7083 -0.4761 -0.0361
  648MOL0     C87361   2.337   6.639  10.212 -0.5761 -0.3123  0.1144
  648MOL0     N87362   2.371   6.660  10.067 -0.8535  0.4005  0.4517
  648MOL0     C87363   2.308   6.744   9.979  0.3297 -0.6705 -0.5056
  648MOL0     C87364   2.390   6.767   9.877 -0.9124  0.5558  0.5850
  648MOL0     C87365   2.372   6.847   9.749  1.0704  1.0406 -0.7013
  648MOL0     C87366   2.352   6.999   9.765  0.8853 -0.6679  0.0582
  648MOL0     C87367   2.306   7.074   9.648 -0.0049 -0.2060 -0.2591
  648MOL0     C87368   2.178   7.028   9.580 -0.0485 -1.1957 -0.2990
  648MOL0     O87369   2.136   7.113   9.472 -0.3862 -0.5447 -0.4639
  648MOL0     C87370   2.019   7.189   9.497  0.1169 -1.2235  0.0008
  648MOL0     C87371   2.023   7.333   9.486 -0.0586 -0.3595  0.0188
  648MOL0     C87372   1.921   7.431   9.520  0.9175  0.5761  0.0253
  648MOL0     C87373   1.941   7.580   9.522  0.2201  0.2111 -0.7045
  648MOL0     C87374   1.803   7.370   9.572 -0.1885  0.3285 -1.3946
  648MOL0     C87375   1.690   7.436   9.641  0.8913 -0.2917  0.7853
  648MOL0     O87376   1.565   7.390   9.614 -0.0015 -1.1430 -0.8568
  648MOL0     C87377   1.465   7.485   9.598 -0.4581 -0.7269  0.0037
  648MOL0     C87378   1.329   7.437   9.601  0.0646 -0.2178 -0.8179
  648MOL0     C87379   1.227   7.522   9.576 -0.4299  0.1046 -0.0669
  648MOL0     C87380   1.241   7.656   9.534 -0.1117 -0.2921 -0.0878
  648MOL0     O87381   1.141   7.737   9.490 -0.4279 -0.1974 -0.2367
  648MOL0     C87382   1.043   7.675   9.414  0.2721  0.5911 -0.0288
  648MOL0     C87383   0.975   7.767   9.314 -0.1799  0.0595 -0.0512
  648MOL0     C87384   0.848   7.686   9.263 -0.6927  0.1865  0.0667
  648MOL0     C87385   0.805   7.772   9.142 -0.1856 -0.0794  0.3169
  648MOL0     C87386   0.708   7.696   9.052 -1.5831 -0.0467 -0.2997
  648MOL0     C87387   0.757   7.705   8.912 -0.4263 -0.1815 -0.4964
  648MOL0     C87388   0.633   7.687   8.817 -0.1636 -0.0528 -0.5752
  648MOL0     C87389   0.645   7.807   8.720 -0.2657  0.1823 -0.3883
  648MOL0    Cl87390   0.499   7.795   8.613 -0.0589  0.3929 -0.3822
  648MOL0     C87391   1.373   7.697   9.532  0.5175 -0.2893 -1.2635
  648MOL0     C87392   1.483   7.614   9.553 -1.2095 -0.2256  0.0846
  648MOL0     O87393   1.717   7.533   9.714  0.3087 -0.5548 -0.3610
  648MOL0     C87394   1.793   7.227   9.575 -0.7188  0.1428 -0.2779
  648MOL0     C87395   1.896   7.135   9.539  0.0085  0.2980 -0.2221
  648MOL0     N87396   2.507   6.693   9.899  0.8603  0.2930  0.4799
  648MOL0     N87397   2.497   6.640  10.018 -0.1217  0.4789  0.1087
  648MOL0     C87398   2.330   6.311  10.963 -0.0184 -0.0901  0.6511
  648MOL0     C87399   2.272   6.294  11.094  0.3461 -0.5576  0.4644
  648MOL0     C87400   2.124   6.053  11.486  0.1988  0.4563  0.7569
  648MOL0     C87401   2.149   6.166  11.559  0.4093 -0.2693 -0.3875
  648MOL0     C87402   2.106   6.179  11.695 -1.0509 -0.3603 -0.3902
  648MOL0     C87403   2.043   6.072  11.758 -0.1564  0.1045 -0.0984
  648MOL0     O87404   1.996   6.086  11.886 -0.3694  0.3834 -0.4739
  648MOL0     C87405   2.002   5.979  11.976 -0.2275  0.2642 -0.3506
  648MOL0     C87406   2.153   5.937  12.003  0.2520 -0.5359 -0.1213
  648MOL0     C87407   2.237   6.043  12.081 -1.5413 -0.1422 -0.9874
  648MOL0     C87408   2.379   6.001  12.097  0.7868  0.1468 -0.9051
  648MOL0     C87409   2.438   6.109  12.172 -0.0539 -0.6647 -0.3360
  648MOL0     C87410   2.495   6.198  12.238 -0.3195  0.5093  0.0860
  648MOL0     C87411   2.039   5.952  11.690  0.5083  0.2912  0.1230
  648MOL0     C87412   2.084   5.942  11.557  0.4059 -0.6763  0.2385
  648MOL0     H87413   2.324   5.958  11.111  0.1435  0.3277 -0.3650
  648MOL0     H87414   2.427   5.986  10.911  1.8509  0.4548  1.7997
  648MOL0     H87415   2.578   6.096  10.768 -1.1050 -0.5357  1.0309
  648MOL0     H87416   2.428   6.022  10.705 -1.9255  0.7884  2.7187
  648MOL0     H87417   2.593   6.242  10.556  4.2360 -2.8295  0.3001
  648MOL0     H87418   2.585   6.069  10.515  1.7024  0.0101  1.7365
  648MOL0     H87419   2.450   6.155  10.355 -0.6763 -1.0794  0.0621
  648MOL0     H87420   2.348   6.093  10.483  2.8957 -2.8270 -0.4385
  648MOL0     H87421   2.255   6.305  10.536 -2.9582  0.0528 -2.7600
  648MOL0     H87422   2.407   6.390  10.522 -1.3505  2.5218 -2.5982
  648MOL0     H87423   2.383   6.401  10.293  0.9530  0.7414  0.7424
  648MOL0     H87424   2.248   6.301  10.276 -0.4457  1.5989 -0.6203
  648MOL0     H87425   2.093   6.451  10.370  0.4507 -0.4144  5.7355
  648MOL0     H87426   2.211   6.557  10.440  0.9050  0.6034 -1.4172
  648MOL0     H87427   2.202   6.499  10.133 -1.1968 -1.5670  0.7844
  648MOL0     H87428   2.127   6.638  10.210  0.8840  1.3354 -0.0445
  648MOL0     H87429   2.423   6.594  10.262 -0.5798 -1.1183 -0.5787
  648MOL0     H87430   2.339   6.734  10.266  0.7152  0.0734 -0.5705
  648MOL0     H87431   2.204   6.775   9.982  0.4359 -0.3809  0.5428
  648MOL0     H87432   2.455   6.812   9.688  0.3797 -0.1319 -0.9983
  648MOL0     H87433   2.281   6.809   9.700 -1.3205  4.5013  0.6623
  648MOL0     H87434   2.448   7.048   9.786  1.0838 -0.1144 -1.9386
  648MOL0     H87435   2.281   7.023   9.844  0.8012  0.8021 -0.4380
  648MOL0     H87436   2.388   7.076   9.576  0.0472  0.3721 -0.1825
  648MOL0     H87437   2.278   7.176   9.675 -2.3260 -1.1716  1.2654
  648MOL0     H87438   2.101   7.018   9.656  1.4472 -1.0336  1.3081
  648MOL0     H87439   2.204   6.930   9.539 -1.3439 -2.0468  0.8488
  648MOL0     H87440   2.113   7.380   9.449 -1.2088  1.1746 -0.9514
  648MOL0     H87441   2.022   7.613   9.457  1.1307 -0.4669  0.0647
  648MOL0     H87442   1.847   7.624   9.486  0.4146  2.2221  1.0551
  648MOL0     H87443   1.973   7.618   9.619 -0.9489 -0.2179 -0.1353
  648MOL0     H87444   1.307   7.335   9.632 -0.5886  0.3094  0.5369
  648MOL0     H87445   1.126   7.482   9.586  0.3872 -2.5307 -1.4965
  648MOL0     H87446   1.096   7.602   9.351  1.6878  2.2269 -0.8299
  648MOL0     H87447   0.964   7.636   9.479  1.3673  0.8186  1.5107
  648MOL0     H87448   0.942   7.863   9.353 -0.6091  0.4843 -1.3961
  648MOL0     H87449   1.052   7.803   9.245 -1.0469  1.4438 -0.3318
  648MOL0     H87450   0.763   7.682   9.333 -1.1373 -1.5986 -0.5140
  648MOL0     H87451   0.873   7.586   9.225  0.9295  0.4826  0.2936
  648MOL0     H87452   0.769   7.866   9.184  0.1508 -0.8358  2.4147
  648MOL0     H87453   0.895   7.794   9.083  0.3220  2.0442  1.7694
  648MOL0     H87454   0.608   7.741   9.058 -1.7099  0.6146 -4.3967
  648MOL0     H87455   0.690   7.594   9.087 -0.2719 -1.3533 -3.1026
  648MOL0     H87456   0.805   7.802   8.901 -2.8894  1.0919 -0.7809
  648MOL0     H87457   0.830   7.625   8.894 -1.3253 -1.1951  0.2071
  648MOL0     H87458   0.535   7.697   8.864  0.9618  1.7470  1.6138
  648MOL0     H87459   0.642   7.592   8.764 -2.5095  0.3504 -1.8119
  648MOL0     H87460   0.733   7.797   8.656 -2.2184  1.5554 -3.5935
  648MOL0     H87461   0.646   7.904   8.772  1.6475 -0.4871  0.8951
  648MOL0     H87462   1.400   7.800   9.508  1.6293  0.3601  2.1469
  648MOL0     H87463   1.580   7.661   9.548 -2.1089  1.6847 -0.3810
  648MOL0     H87464   1.708   7.176   9.619 -0.3080 -0.3582 -0.0549
  648MOL0     H87465   1.870   7.030   9.543 -0.2655  0.3812  0.3287
  648MOL0     H87466   2.338   6.406  10.911  1.1986 -1.1518 -1.2184
  648MOL0     H87467   2.257   6.381  11.157  1.0080  0.5703 -0.8767
  648MOL0     H87468   2.173   6.255  11.502 -1.9443  1.2037  0.7344
  648MOL0     H87469   2.113   6.272  11.751 -1.7874  1.2834 -2.8297
  648MOL0     H87470   1.970   6.009  12.076  2.6040  1.2475  0.3508
  648MOL0     H87471   1.949   5.887  11.954  0.9333 -1.1626  2.3766
  648MOL0     H87472   2.202   5.899  11.913  1.2837 -4.2325  1.7768
  648MOL0     H87473   2.140   5.845  12.062 -2.2296  1.8449  3.4296
  648MOL0     H87474   2.185   6.069  12.173 -1.5638  0.2830 -1.1171
  648MOL0     H87475   2.224   6.135  12.023  0.6095  0.9807  0.1882
  648MOL0     H87476   2.441   5.986  12.008 -0.3402 -2.1813 -1.3586
  648MOL0     H87477   2.383   5.911  12.159  1.6055  0.2368 -0.8188
  648MOL0     H87478   2.569   6.259  12.287  0.6830 -1.2148  0.8233
  648MOL0     H87479   1.981   5.870  11.731  2.0967 -0.3666  1.1675
  648MOL0     H87480   2.068   5.848  11.504 -0.0935 -1.5790  1.9017
  649MOL0     O87481   0.018   9.542   5.907  0.1046  0.2764 -0.7067
  649MOL0     C87482   0.060   9.570   6.019  0.0148  0.0962 -0.4770
  649MOL0     O87483   0.188   9.592   6.062 -0.8573  0.5368  0.0960
  649MOL0     C87484   0.295   9.624   5.988  0.0214  0.4948 -0.2249
  649MOL0     C87485   0.420   9.633   6.045  0.0453 -0.2224 -0.7136
  649MOL0     C87486   0.530   9.660   5.963  0.2209 -0.2752 -0.7399
  649MOL0     C87487   0.521   9.672   5.824  0.3517  0.6161 -0.3428
  649MOL0     O87488   0.634   9.681   5.748  0.3829 -0.1765 -0.5808
  649MOL0     C87489   0.651   9.569   5.659 -0.5828  0.9275 -0.4824
  649MOL0     C87490   0.800   9.554   5.633  0.3884 -0.1919 -0.0779
  649MOL0     C87491   0.882   9.531   5.756  0.1375  0.0756  0.2135
  649MOL0     C87492   1.034   9.477   5.720  0.4634 -0.0602  0.2783
  649MOL0     C87493   1.100   9.453   5.854 -0.3933  0.4275  1.0872
  649MOL0     C87494   1.175   9.570   5.915 -0.8898  0.8429  0.6081
  649MOL0     C87495   1.202   9.529   6.059  0.4786 -0.5972  0.1199
  649MOL0     C87496   1.097   9.589   6.158  0.3024 -0.1442 -0.1106
  649MOL0     N87497   1.109   9.528   6.294 -0.2034  0.2367 -0.0268
  649MOL0     C87498   1.002   9.487   6.366  0.1362 -0.2699 -0.5676
  649MOL0     C87499   1.060   9.476   6.495  0.8536  0.6921 -0.3558
  649MOL0     C87500   0.974   9.432   6.613 -0.1509  0.1036  0.1173
  649MOL0     C87501   0.955   9.281   6.636 -1.1460 -0.5046  0.6595
  649MOL0     C87502   0.817   9.224   6.645 -0.3198 -0.3868 -0.3967
  649MOL0     C87503   0.732   9.272   6.767 -0.7587 -0.0927 -0.1419
  649MOL0     O87504   0.793   9.211   6.885  0.1381  0.1317 -0.3835
  649MOL0     C87505   0.723   9.210   7.007  0.5120  0.6648  0.0636
  649MOL0     C87506   0.602   9.279   7.020  0.6024 -0.8827  0.2678
  649MOL0     C87507   0.535   9.294   7.143 -0.6543  0.3525  0.3605
  649MOL0     C87508   0.411   9.381   7.140  1.3861 -0.5508 -0.7175
  649MOL0     C87509   0.592   9.232   7.257  0.5871 -0.1579  0.1153
  649MOL0     C87510   0.533   9.234   7.398 -0.3309  0.3885 -0.6273
  649MOL0     O87511   0.594   9.159   7.496  0.1464  0.2250  0.1882
  649MOL0     C87512   0.550   9.161   7.634 -0.1416 -0.9480 -0.2419
  649MOL0     C87513   0.414   9.187   7.678 -0.5395 -0.7303  0.5109
  649MOL0     C87514   0.373   9.199   7.819 -0.1421  1.1489 -0.1610
  649MOL0     C87515   0.473   9.177   7.916 -0.2448  0.5931  0.7419
  649MOL0     O87516   0.458   9.186   8.048 -0.0351  0.6893 -0.4099
  649MOL0     C87517   0.333   9.141   8.101  0.3480 -0.4485 -0.0509
  649MOL0     C87518   0.360   9.121   8.247 -0.1230  0.2358  0.3365
  649MOL0     C87519   0.235   9.066   8.318  0.3672 -0.0240  1.0953
  649MOL0     C87520   0.148   8.948   8.250  0.6500  0.2428 -0.3917
  649MOL0     C87521   0.082   8.871   8.367  0.7775  0.5158 -0.9464
  649MOL0     C87522  -0.018   8.765   8.315 -0.7554 -1.6836 -0.0889
  649MOL0     C87523  -0.105   8.696   8.429  0.2940  0.2733  0.8284
  649MOL0     C87524  -0.042   8.582   8.495 -0.8168 -0.9821  0.2011
  649MOL0    Cl87525  -0.159   8.481   8.574  0.4887  0.3384  0.2544
  649MOL0     C87526   0.606   9.140   7.872  0.2396  0.5951  0.4725
  649MOL0     C87527   0.638   9.133   7.736  1.0570  0.7725  0.2471
  649MOL0     O87528   0.432   9.301   7.421 -0.4904 -0.2558  0.0272
  649MOL0     C87529   0.714   9.159   7.243  1.3052 -1.4873  0.5556
  649MOL0     C87530   0.778   9.158   7.123 -0.2798  0.6776  0.6009
  649MOL0     N87531   1.195   9.492   6.490 -0.1768  0.4024 -0.3561
  649MOL0     N87532   1.217   9.512   6.367  0.1626  0.4659 -0.1426
  649MOL0     C87533   0.391   9.692   5.772  0.2421 -0.0151  0.5588
  649MOL0     C87534   0.278   9.657   5.851  0.5885 -0.3560  0.3458
  649MOL0     C87535  -0.053   9.578   6.113  0.4124  0.0179  0.0149
  649MOL0     C87536  -0.187   9.549   6.066 -0.3756  0.9730  0.2751
  649MOL0     C87537  -0.299   9.576   6.154  0.6152 -0.6333 -1.1356
  649MOL0     C87538  -0.281   9.623   6.283 -0.5340  0.8330 -1.0279
  649MOL0     O87539  -0.391   9.672   6.349 -0.7790 -0.2201  0.0868
  649MOL0     C87540  -0.421   9.617   6.484  0.2142  0.1356  1.2431
  649MOL0     C87541  -0.536   9.517   6.472  0.4862 -0.3499  0.3982
  649MOL0     C87542  -0.667   9.597   6.431  0.1992  0.6788 -0.6076
  649MOL0     C87543  -0.777   9.498   6.391  0.9107  0.9195 -0.3990
  649MOL0     C87544  -0.908   9.566   6.373 -0.6252  1.1408 -0.1345
  649MOL0     C87545  -1.015   9.609   6.332  0.4654  0.2399 -0.4903
  649MOL0     C87546  -0.147   9.654   6.329 -0.0320  1.2111 -0.5022
  649MOL0     C87547  -0.033   9.628   6.243 -0.2146  0.5439 -0.0969
  649MOL0     H87548   0.434   9.624   6.152 -1.2279 -1.6390 -0.6329
  649MOL0     H87549   0.620   9.647   6.022 -0.6143 -0.6658  0.4909
  649MOL0     H87550   0.607   9.475   5.693  0.5131  1.1181  1.6269
  649MOL0     H87551   0.598   9.577   5.563 -2.0882 -1.1163  0.1287
  649MOL0     H87552   0.805   9.463   5.572 -0.8750 -0.3066 -0.0346
  649MOL0     H87553   0.832   9.644   5.580 -1.7067  0.7485  0.1337
  649MOL0     H87554   0.888   9.620   5.818  0.0989 -0.9927  1.8114
  649MOL0     H87555   0.832   9.449   5.808 -1.0455  1.0654  0.6752
  649MOL0     H87556   1.031   9.382   5.666  1.6851 -1.2970  2.2446
  649MOL0     H87557   1.090   9.548   5.659  0.0311 -0.3498 -0.4757
  649MOL0     H87558   1.024   9.401   5.913 -2.2269 -0.1901 -1.6418
  649MOL0     H87559   1.185   9.388   5.832  0.4736  0.7669  3.1410
  649MOL0     H87560   1.270   9.571   5.861 -0.8668 -2.0632  0.4542
  649MOL0     H87561   1.114   9.661   5.916 -2.1696  0.0763 -1.6866
  649MOL0     H87562   1.211   9.422   6.075  3.9564 -0.6403 -1.2660
  649MOL0     H87563   1.305   9.561   6.079  1.0376 -1.6865 -0.9424
  649MOL0     H87564   0.998   9.571   6.113 -1.4657  0.3948  3.2652
  649MOL0     H87565   1.104   9.698   6.168 -2.7900  0.0441  1.0712
  649MOL0     H87566   0.897   9.484   6.339 -0.7275 -2.5847  2.4476
  649MOL0     H87567   1.034   9.462   6.700  0.8687 -0.8326 -0.2431
  649MOL0     H87568   0.874   9.478   6.619 -0.8470 -1.5066  2.2898
  649MOL0     H87569   1.019   9.243   6.716  1.2755 -0.0918 -0.9681
  649MOL0     H87570   0.990   9.238   6.541  1.5064  2.1850  0.2717
  649MOL0     H87571   0.816   9.115   6.640 -1.2454 -0.3984 -0.0743
  649MOL0     H87572   0.765   9.272   6.561 -1.2769  2.0069  1.4436
  649MOL0     H87573   0.636   9.221   6.756 -0.7854  0.0870 -0.7420
  649MOL0     H87574   0.727   9.379   6.792 -0.6223 -0.7449  3.2610
  649MOL0     H87575   0.561   9.324   6.930  1.2710 -0.3892  0.2051
  649MOL0     H87576   0.324   9.316   7.151  1.0903  0.1930  1.9801
  649MOL0     H87577   0.403   9.452   7.223  3.0988 -1.7879  0.5768
  649MOL0     H87578   0.399   9.445   7.052 -0.4491  1.9270  1.2193
  649MOL0     H87579   0.339   9.203   7.601 -0.2794 -1.3754  0.1209
  649MOL0     H87580   0.277   9.246   7.838  0.6820  3.0138 -0.4403
  649MOL0     H87581   0.272   9.230   8.084  0.6994 -0.7091 -3.3947
  649MOL0     H87582   0.299   9.048   8.054  0.4839 -0.8089  0.5562
  649MOL0     H87583   0.435   9.042   8.253 -0.9356 -0.6030 -0.1778
  649MOL0     H87584   0.389   9.219   8.287 -0.2749  0.8182 -0.9224
  649MOL0     H87585   0.166   9.149   8.337  0.2917 -0.0358  0.8738
  649MOL0     H87586   0.264   9.022   8.414  0.2986  0.7412  1.4723
  649MOL0     H87587   0.089   8.984   8.166 -0.5976 -1.2001 -0.1764
  649MOL0     H87588   0.213   8.875   8.201 -2.8190 -0.3179 -4.7634
  649MOL0     H87589   0.037   8.943   8.436 -1.1866 -0.1728 -1.4579
  649MOL0     H87590   0.159   8.817   8.424 -0.4727  0.3190  0.6311
  649MOL0     H87591  -0.081   8.835   8.260  4.4873  2.6354 -1.4356
  649MOL0     H87592   0.022   8.688   8.248  1.4299 -0.0838 -0.7356
  649MOL0     H87593  -0.202   8.669   8.385  1.4857 -0.0391 -1.8235
  649MOL0     H87594  -0.127   8.783   8.491  2.4402  1.4050  0.1037
  649MOL0     H87595   0.036   8.611   8.566 -1.4192 -0.5485  0.6999
  649MOL0     H87596   0.014   8.522   8.423  1.8521  0.8945  0.5701
  649MOL0     H87597   0.681   9.091   7.933 -1.1987 -0.7330  1.2353
  649MOL0     H87598   0.742   9.109   7.715 -0.2430 -3.4174 -2.6189
  649MOL0     H87599   0.770   9.130   7.332  1.2053  0.7280  1.3976
  649MOL0     H87600   0.876   9.114   7.115  0.8650  3.1947 -0.3430
  649MOL0     H87601   0.370   9.732   5.674 -3.1112 -0.3913  0.9986
  649MOL0     H87602   0.188   9.656   5.790  0.0299 -2.5016  1.1286
  649MOL0     H87603  -0.217   9.511   5.969  1.7251  0.6171 -0.2689
  649MOL0     H87604  -0.396   9.553   6.111  0.1261 -0.0166 -0.3726
  649MOL0     H87605  -0.329   9.580   6.530  3.3588  2.1066 -2.8813
  649MOL0     H87606  -0.437   9.710   6.540  2.9644  1.7027 -0.3224
  649MOL0     H87607  -0.539   9.479   6.575 -1.6491  1.6162  1.1524
  649MOL0     H87608  -0.500   9.440   6.404  2.0025 -0.9608  1.8114
  649MOL0     H87609  -0.654   9.652   6.337 -4.4844 -0.2478 -2.0427
  649MOL0     H87610  -0.691   9.658   6.519  2.4291  0.1401  0.4624
  649MOL0     H87611  -0.792   9.416   6.462  2.1769  1.8316  1.0167
  649MOL0     H87612  -0.745   9.448   6.300  1.8829 -1.1905  1.0203
  649MOL0     H87613  -1.103   9.652   6.289  0.7050 -0.4784 -1.7662
  649MOL0     H87614  -0.137   9.700   6.426  0.4340  1.7527 -0.8011
  649MOL0     H87615   0.063   9.673   6.268  0.1780  0.6846 -1.7659
  650MOL0     O87616  10.593   1.316   8.737  0.1843  0.8339  0.0623
  650MOL0     C87617  10.507   1.381   8.673  0.0995  0.5685 -0.3628
  650MOL0     O87618  10.409   1.464   8.731 -0.1638  0.0351 -0.7458
  650MOL0     C87619  10.387   1.473   8.871 -1.5613  1.7360  0.1130
  650MOL0     C87620  10.478   1.526   8.951  0.7734  0.3009 -0.7608
  650MOL0     C87621  10.442   1.543   9.084 -0.1665  0.0716  0.1176
  650MOL0     C87622  10.332   1.483   9.142 -0.4963 -0.8617  0.1916
  650MOL0     O87623  10.321   1.482   9.276 -0.8360 -0.0210 -0.2462
  650MOL0     C87624  10.369   1.587   9.359  0.0089 -0.0768  0.9725
  650MOL0     C87625  10.312   1.555   9.496  0.3575  0.0405  0.4182
  650MOL0     C87626  10.349   1.667   9.606  0.3058  0.5435 -0.4075
  650MOL0     C87627  10.498   1.703   9.623  0.8279 -0.6317 -0.2452
  650MOL0     C87628  10.524   1.793   9.747  0.4376  0.0797 -0.5108
  650MOL0     C87629  10.505   1.941   9.721 -0.1770  1.1529 -0.6322
  650MOL0     C87630  10.560   2.024   9.846 -0.1650  0.6516 -0.2334
  650MOL0     C87631  10.554   2.174   9.851  0.5190 -0.4684 -0.0730
  650MOL0     N87632  10.624   2.257   9.754  0.0558  0.7136  0.3717
  650MOL0     C87633  10.598   2.291   9.617  0.0650 -0.2089 -0.3359
  650MOL0     C87634  10.678   2.395   9.586 -0.7053 -0.5231 -0.3225
  650MOL0     C87635  10.700   2.449   9.448  0.1326 -0.7894 -0.0140
  650MOL0     C87636  10.612   2.578   9.459 -0.3017 -0.1482  0.7294
  650MOL0     C87637  10.585   2.643   9.323  0.3351 -0.2390 -0.5941
  650MOL0     C87638  10.707   2.706   9.251  0.9582  0.2607  0.0483
  650MOL0     O87639  10.664   2.818   9.177 -0.2511 -0.2968  0.2348
  650MOL0     C87640  10.586   2.806   9.062 -0.4189 -0.9372  0.4695
  650MOL0     C87641  10.542   2.928   9.009 -0.7450 -0.5124 -0.2928
  650MOL0     C87642  10.481   2.935   8.890 -0.2321 -1.3031  1.0814
  650MOL0     C87643  10.452   3.075   8.833  0.2998  0.2858 -0.1657
  650MOL0     C87644  10.448   2.812   8.823  1.0820  0.4032 -0.2430
  650MOL0     C87645  10.387   2.797   8.689  0.5625  0.6418  0.5086
  650MOL0     O87646  10.407   2.679   8.623  0.4757  0.3914 -1.1745
  650MOL0     C87647  10.333   2.638   8.518 -0.8873  0.6801 -0.2601
  650MOL0     C87648  10.340   2.717   8.401  0.3297  0.8215 -0.5638
  650MOL0     C87649  10.270   2.686   8.291 -0.7313 -0.0180  0.2071
  650MOL0     C87650  10.178   2.576   8.290  0.1458  0.3814  0.1789
  650MOL0     O87651  10.122   2.550   8.171  0.9372  0.2329 -0.0405
  650MOL0     C87652   9.972   2.580   8.168  0.5899  1.1613  0.7489
  650MOL0     C87653   9.904   2.596   8.032  0.8203  0.1017 -0.5560
  650MOL0     C87654   9.748   2.612   8.048 -0.5681 -0.3668 -0.6470
  650MOL0     C87655   9.696   2.720   8.141  0.0700  0.4842  0.1541
  650MOL0     C87656   9.541   2.743   8.123  0.2774 -0.9453  0.3298
  650MOL0     C87657   9.451   2.631   8.174 -0.0934 -0.1378 -0.1881
  650MOL0     C87658   9.308   2.664   8.127 -0.1333 -0.5696  0.7506
  650MOL0     C87659   9.236   2.787   8.172  0.2655  0.1982 -0.3172
  650MOL0    Cl87660   9.270   2.948   8.088 -0.4145  0.3532  0.2550
  650MOL0     C87661  10.167   2.501   8.409 -0.6012 -0.1672  0.4275
  650MOL0     C87662  10.245   2.523   8.513  0.6651 -0.0127 -0.2625
  650MOL0     O87663  10.333   2.898   8.645 -0.1275 -0.8851  0.6773
  650MOL0     C87664  10.475   2.694   8.886 -0.1335  0.3285 -0.8822
  650MOL0     C87665  10.547   2.691   9.005 -0.8277  0.3883  0.5161
  650MOL0     N87666  10.759   2.416   9.698  0.4410 -0.5513 -0.1277
  650MOL0     N87667  10.717   2.341   9.799  0.4867 -0.5871  0.1768
  650MOL0     C87668  10.252   1.406   9.061  0.0137  0.6188 -0.5733
  650MOL0     C87669  10.274   1.410   8.920 -0.6274  0.6056 -0.2866
  650MOL0     C87670  10.520   1.372   8.531  0.3081  0.0356 -0.7763
  650MOL0     C87671  10.637   1.312   8.470  0.0973 -0.4682 -0.2135
  650MOL0     C87672  10.659   1.315   8.329 -0.8306  0.4082 -0.7537
  650MOL0     C87673  10.563   1.376   8.253 -0.6812 -0.0730  0.2234
  650MOL0     O87674  10.569   1.360   8.115 -0.2092  0.7574 -0.5845
  650MOL0     C87675  10.602   1.478   8.036 -0.0818 -0.5828  0.7174
  650MOL0     C87676  10.654   1.600   8.106 -1.0558 -0.3139 -1.0513
  650MOL0     C87677  10.701   1.699   8.005 -0.2429 -0.9603 -0.5953
  650MOL0     C87678  10.712   1.853   8.043 -0.4740  0.2836  0.5860
  650MOL0     C87679  10.790   1.887   8.167 -0.2231 -0.8995  0.0638
  650MOL0     C87680  10.851   1.895   8.273  0.4251 -0.6365  0.4201
  650MOL0     C87681  10.457   1.433   8.308 -0.2735 -0.0953  0.3239
  650MOL0     C87682  10.440   1.443   8.443 -0.4534  0.7440  0.8315
  650MOL0     H87683  10.569   1.580   8.928 -1.6733  5.4597  0.1842
  650MOL0     H87684  10.510   1.585   9.157 -1.6274 -0.8514  2.1007
  650MOL0     H87685  10.479   1.594   9.360  0.0343  0.3004 -0.7945
  650MOL0     H87686  10.336   1.690   9.343  0.8365 -0.2651 -2.8229
  650MOL0     H87687  10.203   1.549   9.486  0.3609 -0.5713  0.7240
  650MOL0     H87688  10.341   1.457   9.536  0.6916  1.3123  3.6445
  650MOL0     H87689  10.297   1.761   9.588 -1.7669 -0.7627 -1.6057
  650MOL0     H87690  10.306   1.627   9.698 -3.5176  1.5671 -1.5862
  650MOL0     H87691  10.558   1.612   9.628  1.2466 -0.3348  0.1649
  650MOL0     H87692  10.527   1.761   9.535 -1.1257 -0.6292 -0.9424
  650MOL0     H87693  10.456   1.781   9.832  0.5559  5.5012  0.7463
  650MOL0     H87694  10.617   1.760   9.794 -0.0620  0.8094  1.0847
  650MOL0     H87695  10.549   1.973   9.626  1.3633  0.2383 -0.2582
  650MOL0     H87696  10.397   1.953   9.707 -1.1576  0.0325  4.2405
  650MOL0     H87697  10.515   1.983   9.937  0.0114 -0.9656 -0.8596
  650MOL0     H87698  10.665   1.996   9.858 -0.2956  0.1092 -0.3717
  650MOL0     H87699  10.581   2.212   9.950 -0.3259 -2.3183  0.9197
  650MOL0     H87700  10.449   2.205   9.843 -0.2329 -2.8451 -0.3230
  650MOL0     H87701  10.512   2.247   9.568 -1.3487  0.0680  1.7883
  650MOL0     H87702  10.804   2.479   9.432 -0.8419  2.1685 -1.7173
  650MOL0     H87703  10.665   2.385   9.366 -1.2322  1.6765 -1.4945
  650MOL0     H87704  10.641   2.650   9.536 -1.6676  0.9000  0.3184
  650MOL0     H87705  10.514   2.549   9.498 -0.1362 -0.6269  0.7902
  650MOL0     H87706  10.527   2.735   9.338 -0.1038 -0.5130 -0.6004
  650MOL0     H87707  10.545   2.568   9.255 -1.0767 -2.5056  2.4550
  650MOL0     H87708  10.758   2.632   9.188  2.0987 -1.4239  2.7638
  650MOL0     H87709  10.778   2.734   9.330 -0.0800 -0.2262  1.1833
  650MOL0     H87710  10.557   3.018   9.069 -2.0415  0.7347 -1.7689
  650MOL0     H87711  10.343   3.080   8.842  0.4928  1.6160  2.1244
  650MOL0     H87712  10.497   3.151   8.897  2.2270  2.0113 -3.3360
  650MOL0     H87713  10.493   3.089   8.732  2.2377 -2.3171  0.1756
  650MOL0     H87714  10.415   2.795   8.408  2.2952 -1.0903  1.0825
  650MOL0     H87715  10.288   2.753   8.208  2.5917 -0.5469  0.3478
  650MOL0     H87716   9.910   2.503   8.214 -1.5056  2.5815  0.4198
  650MOL0     H87717   9.954   2.671   8.225 -0.7597  0.5226  1.3805
  650MOL0     H87718   9.955   2.677   7.979  0.0318  1.7128  1.0624
  650MOL0     H87719   9.913   2.498   7.982 -1.0010 -0.2674 -0.2095
  650MOL0     H87720   9.720   2.518   8.097  1.1402 -0.0695  1.0204
  650MOL0     H87721   9.702   2.633   7.951 -0.1941  3.8618 -0.0830
  650MOL0     H87722   9.713   2.705   8.248  0.9213  4.9295  0.8178
  650MOL0     H87723   9.741   2.816   8.113  0.1778  1.1515  2.4355
  650MOL0     H87724   9.525   2.762   8.017  2.2323  1.7203  0.4044
  650MOL0     H87725   9.508   2.829   8.183 -0.1753 -0.5708 -0.4452
  650MOL0     H87726   9.478   2.530   8.143 -2.3915 -1.0110  0.4648
  650MOL0     H87727   9.453   2.641   8.283  2.5017  1.3962 -0.3028
  650MOL0     H87728   9.243   2.582   8.161 -0.5790  0.5439  2.7301
  650MOL0     H87729   9.302   2.660   8.018 -0.6829  0.0863  0.7535
  650MOL0     H87730   9.244   2.806   8.279 -3.4850  3.5482 -0.3708
  650MOL0     H87731   9.128   2.779   8.155 -0.8665  4.1344  3.1968
  650MOL0     H87732  10.102   2.414   8.411 -0.8455 -0.2622 -3.5729
  650MOL0     H87733  10.223   2.453   8.593 -0.7774  1.3581  0.6090
  650MOL0     H87734  10.466   2.593   8.847  1.8893  0.1709 -1.0725
  650MOL0     H87735  10.591   2.600   9.044  1.1065  1.7350  1.7118
  650MOL0     H87736  10.172   1.350   9.110  0.8887  1.7020  2.3153
  650MOL0     H87737  10.204   1.365   8.850  0.2678  0.5225 -1.1392
  650MOL0     H87738  10.710   1.267   8.536  0.5730 -2.4943 -2.0052
  650MOL0     H87739  10.744   1.261   8.291 -1.5464 -0.4957 -1.1142
  650MOL0     H87740  10.669   1.434   7.961  0.1789 -0.1811  0.7137
  650MOL0     H87741  10.508   1.507   7.989  0.1044 -0.1367  0.6158
  650MOL0     H87742  10.738   1.562   8.166 -1.5254  2.1530  1.3908
  650MOL0     H87743  10.584   1.646   8.176  0.2077 -1.1411  0.8614
  650MOL0     H87744  10.634   1.688   7.920  0.5022 -2.1037 -1.0627
  650MOL0     H87745  10.799   1.668   7.967  0.7923  0.9335  0.3825
  650MOL0     H87746  10.617   1.907   8.047 -0.8392 -0.4075  1.3171
  650MOL0     H87747  10.761   1.911   7.963 -2.4981  3.6610  1.6177
  650MOL0     H87748  10.918   1.897   8.357  2.5476 -2.2401 -1.1236
  650MOL0     H87749  10.389   1.490   8.246  0.1675  1.9619  1.6231
  650MOL0     H87750  10.355   1.496   8.486 -1.1594  0.9583 -0.7541
  651MOL0     O87751   7.045  10.215   5.738  0.2793  0.3030 -0.2324
  651MOL0     C87752   7.076  10.197   5.857  0.7556  0.4928  0.8697
  651MOL0     O87753   7.064  10.283   5.961 -0.0418  0.6023  0.6226
  651MOL0     C87754   7.047  10.416   5.925 -0.2787 -0.3668 -0.7601
  651MOL0     C87755   6.945  10.490   5.994 -0.3300  0.1241  0.4827
  651MOL0     C87756   6.919  10.623   5.972 -0.7207  1.3081 -0.7273
  651MOL0     C87757   7.003  10.687   5.876  0.3757  0.3597  0.0958
  651MOL0     O87758   6.997  10.816   5.862 -0.0280  0.0465  0.0602
  651MOL0     C87759   6.869  10.875   5.842  0.3711 -0.0118  0.1985
  651MOL0     C87760   6.870  10.993   5.742  0.2693  0.5926 -0.1333
  651MOL0     C87761   6.883  10.957   5.603  0.4748  0.5301  0.0495
  651MOL0     C87762   7.035  10.942   5.560 -0.7370  0.2736  0.7824
  651MOL0     C87763   7.067  10.935   5.411  0.1011 -0.2706 -0.2595
  651MOL0     C87764   7.000  10.817   5.332  0.4810  0.6277 -0.0546
  651MOL0     C87765   7.047  10.804   5.190  0.6726 -0.5313  0.5406
  651MOL0     C87766   7.192  10.760   5.171  0.5519  0.1319  0.4443
  651MOL0     N87767   7.231  10.789   5.031  0.0396 -0.0519 -0.7442
  651MOL0     C87768   7.176  10.714   4.931  0.0955 -0.7674 -0.3086
  651MOL0     C87769   7.250  10.745   4.824  0.7240  0.5468  0.3200
  651MOL0     C87770   7.222  10.685   4.690  0.0481 -0.3620 -0.4646
  651MOL0     C87771   7.356  10.653   4.633  0.9051 -0.3049  0.6774
  651MOL0     C87772   7.346  10.599   4.488  0.4698  0.1911 -0.1677
  651MOL0     C87773   7.483  10.614   4.415  0.1563 -0.3574 -0.0677
  651MOL0     O87774   7.589  10.545   4.487 -0.3625  0.0639 -0.6323
  651MOL0     C87775   7.598  10.403   4.488 -0.1193 -0.4275  0.1205
  651MOL0     C87776   7.510  10.326   4.408 -0.1869 -1.1261 -0.9747
  651MOL0     C87777   7.520  10.194   4.418 -0.8221  0.7354  0.4013
  651MOL0     C87778   7.423  10.123   4.324  0.4812  0.2484  0.3644
  651MOL0     C87779   7.612  10.128   4.507 -0.3024  0.6285 -0.3620
  651MOL0     C87780   7.646   9.984   4.511  0.5312  0.4252 -0.0022
  651MOL0     O87781   7.681   9.939   4.641 -0.1545 -0.0883 -0.2155
  651MOL0     C87782   7.742   9.821   4.663  1.0354  0.1031  0.8127
  651MOL0     C87783   7.694   9.756   4.770 -0.0754  0.6015  0.3999
  651MOL0     C87784   7.736   9.633   4.794 -0.0032  0.0816 -0.6409
  651MOL0     C87785   7.827   9.571   4.706  0.3851  0.3596  0.8791
  651MOL0     O87786   7.866   9.444   4.703  0.2485  0.0326  0.3695
  651MOL0     C87787   7.757   9.345   4.707  1.4008 -0.3595  0.7434
  651MOL0     C87788   7.816   9.218   4.770 -0.2960 -0.4563  0.2365
  651MOL0     C87789   7.934   9.149   4.693 -0.3233  0.4817 -0.5792
  651MOL0     C87790   7.933   9.151   4.538  1.1191 -0.1394  0.0378
  651MOL0     C87791   8.035   9.072   4.466  0.1822 -0.0489  0.1427
  651MOL0     C87792   8.002   8.923   4.456  0.0296  0.5380  0.5396
  651MOL0     C87793   7.893   8.890   4.348  0.5775  0.0087 -0.4073
  651MOL0     C87794   7.786   8.799   4.419 -0.0136  0.3443  0.6182
  651MOL0    Cl87795   7.856   8.628   4.456 -0.2898 -0.0388  0.5077
  651MOL0     C87796   7.880   9.640   4.597 -0.2728 -0.1700 -1.0251
  651MOL0     C87797   7.833   9.766   4.576  0.1281 -0.7111 -0.3541
  651MOL0     O87798   7.647   9.918   4.410  0.8526  0.3653 -0.1555
  651MOL0     C87799   7.706  10.218   4.568  0.8032 -0.8220 -0.2183
  651MOL0     C87800   7.694  10.354   4.561  0.2743 -0.2906  0.3404
  651MOL0     N87801   7.350  10.831   4.866 -1.4541  0.4685 -0.5257
  651MOL0     N87802   7.342  10.852   4.997  0.2425  0.3410 -0.3328
  651MOL0     C87803   7.106  10.623   5.818 -1.0545 -1.1596 -0.2105
  651MOL0     C87804   7.130  10.486   5.834  0.4721 -0.1960 -0.2775
  651MOL0     C87805   7.107  10.054   5.890  0.6470  0.6702 -0.2918
  651MOL0     C87806   7.114   9.957   5.786 -0.0771  0.5592 -0.4344
  651MOL0     C87807   7.163   9.826   5.805  0.2343 -0.3719  0.6835
  651MOL0     C87808   7.196   9.792   5.941  0.3321 -0.1853  0.0989
  651MOL0     O87809   7.259   9.674   5.964 -0.0215 -0.6164 -0.2152
  651MOL0     C87810   7.323   9.659   6.089  0.0941  0.0430  0.3380
  651MOL0     C87811   7.383   9.519   6.115 -0.3238 -0.3478  0.4499
  651MOL0     C87812   7.472   9.475   6.003 -0.2328  0.0461  0.3435
  651MOL0     C87813   7.465   9.320   5.992 -0.1650 -0.3702 -0.1059
  651MOL0     C87814   7.368   9.275   5.894  0.8166 -0.8689  0.2811
  651MOL0     C87815   7.283   9.246   5.809 -1.2410 -1.1143  0.2350
  651MOL0     C87816   7.169   9.880   6.040  0.5630 -0.4731 -0.0731
  651MOL0     C87817   7.120  10.015   6.019  0.7183  0.6021 -0.3038
  651MOL0     H87818   6.895  10.441   6.077  0.9420 -2.3830 -0.1429
  651MOL0     H87819   6.840  10.671   6.029 -0.2207 -0.5492  1.6966
  651MOL0     H87820   6.801  10.794   5.814 -1.0172  1.5517 -1.2072
  651MOL0     H87821   6.827  10.904   5.939 -1.6987 -4.0234  0.7096
  651MOL0     H87822   6.772  11.041   5.753  0.5407  1.3264 -0.8111
  651MOL0     H87823   6.948  11.067   5.765  1.9733 -1.2132  0.1453
  651MOL0     H87824   6.832  10.866   5.570  4.1396 -1.1135 -1.5736
  651MOL0     H87825   6.846  11.047   5.552 -1.9218 -0.4739 -0.1170
  651MOL0     H87826   7.093  11.029   5.595  0.4962 -1.2151  2.6076
  651MOL0     H87827   7.087  10.849   5.582 -0.4368 -0.0272 -1.0143
  651MOL0     H87828   7.041  11.026   5.356 -1.0307  1.2012  2.4906
  651MOL0     H87829   7.177  10.934   5.404  0.2191  2.5280  0.0089
  651MOL0     H87830   7.019  10.719   5.377  3.0334 -1.2433 -4.5041
  651MOL0     H87831   6.892  10.835   5.330  0.1118 -0.8663  2.1235
  651MOL0     H87832   6.982  10.730   5.142 -0.6490  0.8742  0.0812
  651MOL0     H87833   7.036  10.899   5.138  0.1290 -0.8656  0.0347
  651MOL0     H87834   7.221  10.656   5.186  0.8207 -0.0375 -1.1044
  651MOL0     H87835   7.255  10.820   5.238 -0.3012 -0.6763  2.0468
  651MOL0     H87836   7.089  10.649   4.934  1.6420 -2.9472 -0.6870
  651MOL0     H87837   7.161  10.594   4.693 -1.2139  0.4982  1.1122
  651MOL0     H87838   7.176  10.760   4.625 -1.0137  1.0386  1.8140
  651MOL0     H87839   7.408  10.582   4.698  2.1892  0.9469  1.0757
  651MOL0     H87840   7.412  10.747   4.631  3.5108 -1.7462 -1.1417
  651MOL0     H87841   7.270  10.649   4.428 -1.6707 -0.4386  1.8559
  651MOL0     H87842   7.325  10.492   4.484  0.9937  0.1037 -2.9541
  651MOL0     H87843   7.492  10.724   4.417 -2.7136 -0.0213  2.8170
  651MOL0     H87844   7.494  10.591   4.309  1.4686  3.3828 -0.9344
  651MOL0     H87845   7.437  10.370   4.342 -0.2783 -0.8399 -0.6832
  651MOL0     H87846   7.425  10.164   4.223 -0.6835 -1.3809 -0.3632
  651MOL0     H87847   7.452  10.020   4.303  0.7807  0.4620 -0.2773
  651MOL0     H87848   7.323  10.129   4.369 -0.0226 -1.8587 -0.3757
  651MOL0     H87849   7.618   9.795   4.836  0.2090  0.4623  0.8124
  651MOL0     H87850   7.697   9.585   4.883 -3.2230  2.5011 -0.5546
  651MOL0     H87851   7.668   9.375   4.764  0.1708 -3.2462  0.5034
  651MOL0     H87852   7.721   9.329   4.605  0.2950  2.1032  0.6644
  651MOL0     H87853   7.829   9.249   4.874 -3.9785 -3.1864  1.7613
  651MOL0     H87854   7.739   9.141   4.780 -0.6272  0.0627  2.1228
  651MOL0     H87855   7.945   9.049   4.737 -0.6330  1.9118  3.1543
  651MOL0     H87856   8.032   9.190   4.718 -0.3705 -0.2869  0.9736
  651MOL0     H87857   7.827   9.129   4.519  0.6152  2.1734 -0.1392
  651MOL0     H87858   7.941   9.258   4.514  2.9736 -0.0571  0.8989
  651MOL0     H87859   8.130   9.090   4.517  0.4615  1.0307 -0.7036
  651MOL0     H87860   8.060   9.109   4.366  0.2529 -1.2404 -0.2917
  651MOL0     H87861   8.093   8.875   4.418 -0.8580 -2.0367  1.4521
  651MOL0     H87862   7.984   8.885   4.557 -3.2237  0.3905 -0.0035
  651MOL0     H87863   7.935   8.835   4.264 -3.7946 -1.9713 -1.5880
  651MOL0     H87864   7.845   8.983   4.315  3.1336  1.1011 -1.2207
  651MOL0     H87865   7.701   8.789   4.352  1.3664 -2.3376 -0.8970
  651MOL0     H87866   7.737   8.847   4.505  2.6624  1.8264  1.4493
  651MOL0     H87867   7.954   9.598   4.529  2.5119  1.7049  0.6611
  651MOL0     H87868   7.874   9.823   4.494 -1.7959 -1.8640 -2.2054
  651MOL0     H87869   7.788  10.181   4.629  1.6404  0.9991 -0.1480
  651MOL0     H87870   7.756  10.419   4.622  0.1807 -2.0235  2.3903
  651MOL0     H87871   7.178  10.679   5.761  3.3630 -3.8803  2.1273
  651MOL0     H87872   7.223  10.450   5.792  0.6223 -1.0551  0.7487
  651MOL0     H87873   7.087   9.979   5.683  1.5544  0.6299 -0.8693
  651MOL0     H87874   7.191   9.761   5.723  4.5600  0.7840  1.0165
  651MOL0     H87875   7.397   9.739   6.090  0.5123 -0.1610 -3.1895
  651MOL0     H87876   7.263   9.670   6.180  0.3721  0.6727  0.4481
  651MOL0     H87877   7.304   9.443   6.122  0.4732 -1.4202 -1.4759
  651MOL0     H87878   7.438   9.520   6.209 -1.0624  1.3601  0.9082
  651MOL0     H87879   7.579   9.489   6.019  0.2434 -0.1129 -2.2183
  651MOL0     H87880   7.449   9.527   5.909 -0.9343  2.2213  1.6279
  651MOL0     H87881   7.461   9.269   6.089  1.1022 -0.9718 -0.3415
  651MOL0     H87882   7.559   9.288   5.946 -1.4011  0.5286 -3.4878
  651MOL0     H87883   7.206   9.245   5.735 -0.4500  1.6221 -0.7749
  651MOL0     H87884   7.173   9.848   6.144  1.9004 -1.9812 -0.5499
  651MOL0     H87885   7.105  10.082   6.103  2.0335 -0.4976  0.8531
  652MOL0     O87886  10.623   1.571   6.591  0.0597 -0.1790 -0.5243
  652MOL0     C87887  10.627   1.477   6.675  0.8673 -1.1343 -0.2975
  652MOL0     O87888  10.565   1.467   6.792  0.1779  0.9333 -0.0157
  652MOL0     C87889  10.485   1.566   6.827  0.0556 -0.2751  0.0799
  652MOL0     C87890  10.361   1.541   6.883  0.1627  0.3592  0.8243
  652MOL0     C87891  10.291   1.639   6.959 -1.0599  0.0300 -0.4921
  652MOL0     C87892  10.339   1.776   6.967  0.9671 -1.2482 -1.0629
  652MOL0     O87893  10.248   1.862   7.024 -0.0300  0.2442  1.3768
  652MOL0     C87894  10.307   1.966   7.102  0.9219  0.4072  0.1844
  652MOL0     C87895  10.203   2.025   7.198 -0.0433  0.5783  0.1438
  652MOL0     C87896  10.167   1.946   7.320  0.4514 -0.2629  0.7729
  652MOL0     C87897  10.284   1.891   7.408  0.0816  0.3895 -0.4785
  652MOL0     C87898  10.238   1.834   7.535 -0.1569  0.6818  0.8811
  652MOL0     C87899  10.220   1.931   7.649  0.0571  0.3110  0.0766
  652MOL0     C87900  10.164   1.848   7.767  0.9718 -0.0507 -0.8485
  652MOL0     C87901  10.187   1.921   7.897 -0.4286 -0.4315 -1.0186
  652MOL0     N87902  10.159   1.824   8.005  0.4967 -0.4606 -0.2924
  652MOL0     C87903  10.042   1.824   8.080  0.1014  0.1296  0.3188
  652MOL0     C87904  10.072   1.742   8.185  0.8299  0.1601  0.2270
  652MOL0     C87905   9.982   1.719   8.298  0.4668 -0.3215  0.1788
  652MOL0     C87906   9.994   1.595   8.392 -0.1222 -0.2786 -0.2240
  652MOL0     C87907  10.106   1.600   8.503  0.7885  0.1590 -0.1854
  652MOL0     C87908  10.044   1.667   8.626 -0.2590 -0.0357 -0.4428
  652MOL0     O87909  10.154   1.696   8.713  0.0884 -0.9050 -0.7678
  652MOL0     C87910  10.126   1.767   8.831  1.3340 -0.1612 -0.1109
  652MOL0     C87911  10.000   1.833   8.855 -0.1780  0.1818  0.1278
  652MOL0     C87912   9.966   1.893   8.973 -0.0743  0.4645 -0.0315
  652MOL0     C87913   9.840   1.978   8.971 -0.3404  0.1069  0.3132
  652MOL0     C87914  10.064   1.892   9.075 -0.9094  0.6665  0.9768
  652MOL0     C87915  10.040   1.959   9.202 -0.0671  0.8397  0.8393
  652MOL0     O87916   9.916   1.965   9.238  0.3952  0.0239  0.2492
  652MOL0     C87917   9.867   2.013   9.355  0.1901 -0.0183 -0.3959
  652MOL0     C87918   9.902   2.128   9.424 -0.1343  0.3563 -0.8333
  652MOL0     C87919   9.836   2.164   9.542  1.0313 -0.7694  0.1913
  652MOL0     C87920   9.732   2.084   9.594  0.8122 -0.0851 -0.1249
  652MOL0     O87921   9.670   2.099   9.714  0.0090 -0.2065  0.0142
  652MOL0     C87922   9.714   1.999   9.807 -0.6113  1.1030  0.3490
  652MOL0     C87923   9.755   2.084   9.930  0.3268  0.4812 -0.6494
  652MOL0     C87924   9.808   2.006  10.056  0.0166  0.4167 -0.5032
  652MOL0     C87925   9.714   1.892  10.117  0.4558  0.7226 -0.1300
  652MOL0     C87926   9.564   1.916  10.159  0.1961  0.4445 -0.3315
  652MOL0     C87927   9.522   1.818  10.260 -0.2647  0.7626  0.1086
  652MOL0     C87928   9.535   1.871  10.408  0.0527  0.5810  0.6291
  652MOL0     C87929   9.461   1.781  10.512  0.3128  0.1014  0.3489
  652MOL0    Cl87930   9.496   1.834  10.678  0.2135  0.2762 -0.0462
  652MOL0     C87931   9.682   1.985   9.511  0.4554  0.9740 -0.0908
  652MOL0     C87932   9.744   1.955   9.388  0.8553  0.5791 -0.2070
  652MOL0     O87933  10.133   1.996   9.267 -0.5184 -0.3159  0.8276
  652MOL0     C87934  10.188   1.826   9.060  1.5084  0.6551  0.0331
  652MOL0     C87935  10.221   1.772   8.930 -0.8240  0.1570 -0.6336
  652MOL0     N87936  10.197   1.678   8.163  0.3716  1.0193  0.2698
  652MOL0     N87937  10.240   1.738   8.062 -0.3822  0.7190 -0.1774
  652MOL0     C87938  10.458   1.808   6.903  0.6107 -0.4551 -0.1311
  652MOL0     C87939  10.529   1.702   6.841 -0.0501 -1.1186 -0.3621
  652MOL0     C87940  10.700   1.360   6.640  0.3744 -1.0020  0.4118
  652MOL0     C87941  10.691   1.237   6.710 -0.1111 -0.0562 -0.2389
  652MOL0     C87942  10.764   1.131   6.680 -0.1283 -0.0083 -0.9219
  652MOL0     C87943  10.846   1.121   6.574  0.5328  0.0462 -0.4930
  652MOL0     O87944  10.929   1.017   6.548 -0.5282  0.0557 -0.1863
  652MOL0     C87945  10.888   0.882   6.583 -0.0997 -0.3971 -0.9557
  652MOL0     C87946  11.008   0.779   6.587 -0.3756  0.0369  1.1868
  652MOL0     C87947  11.112   0.768   6.462  0.1848  1.1243 -0.2523
  652MOL0     C87948  11.033   0.705   6.343 -0.8124 -0.1145 -1.0761
  652MOL0     C87949  11.106   0.736   6.221 -0.6525 -0.1904 -0.3302
  652MOL0     C87950  11.172   0.773   6.126 -1.0868  0.6839  0.1881
  652MOL0     C87951  10.840   1.232   6.486 -0.7983  0.6941 -0.9090
  652MOL0     C87952  10.777   1.356   6.520 -0.0547 -0.1897  0.8803
  652MOL0     H87953  10.322   1.441   6.869  1.2260 -0.3243  2.4666
  652MOL0     H87954  10.202   1.600   7.008  0.0876 -2.3622 -0.1966
  652MOL0     H87955  10.399   1.932   7.151  3.9729  4.2900 -2.2129
  652MOL0     H87956  10.340   2.040   7.028  2.7685  0.2206  0.7618
  652MOL0     H87957  10.247   2.124   7.214 -1.0545  1.1864 -0.6845
  652MOL0     H87958  10.109   2.032   7.143  0.5881 -3.9537 -2.0024
  652MOL0     H87959  10.102   2.013   7.376  3.9986  1.5218  3.1067
  652MOL0     H87960  10.104   1.862   7.287  0.3329 -1.2077  3.2397
  652MOL0     H87961  10.332   1.815   7.346  2.8085  1.9858 -0.4903
  652MOL0     H87962  10.360   1.970   7.408  0.7767 -0.0780  3.6515
  652MOL0     H87963  10.141   1.785   7.527  1.9805 -4.6236  3.0176
  652MOL0     H87964  10.307   1.754   7.561  1.9203  1.2091 -2.3174
  652MOL0     H87965  10.318   1.969   7.678  0.9183 -1.8330  0.1652
  652MOL0     H87966  10.154   2.017   7.636 -1.5820 -0.6968  1.2526
  652MOL0     H87967  10.056   1.844   7.750  0.9198  3.6700 -2.5046
  652MOL0     H87968  10.198   1.745   7.759 -0.5815 -0.6694  0.1334
  652MOL0     H87969  10.121   2.008   7.909  0.1579 -0.0238 -0.7248
  652MOL0     H87970  10.287   1.962   7.906 -0.3979 -0.8703  1.1425
  652MOL0     H87971   9.955   1.889   8.079 -0.8189 -1.0808  0.0851
  652MOL0     H87972   9.983   1.814   8.353  3.5382 -0.1577  0.0285
  652MOL0     H87973   9.884   1.729   8.250  1.5035  3.5941 -1.5412
  652MOL0     H87974  10.008   1.498   8.344  0.6651  0.1553 -0.9010
  652MOL0     H87975   9.902   1.577   8.449 -0.5557 -2.9888 -1.6432
  652MOL0     H87976  10.196   1.652   8.469  1.5508  0.0816  1.6104
  652MOL0     H87977  10.136   1.503   8.543 -1.6346  0.3108  2.3544
  652MOL0     H87978   9.962   1.607   8.667 -1.1049  0.2466 -1.6750
  652MOL0     H87979  10.003   1.765   8.599  3.4385  2.0861  0.9081
  652MOL0     H87980   9.921   1.844   8.781 -1.6726  2.1640  1.8815
  652MOL0     H87981   9.764   1.953   9.046 -1.2834 -3.1620 -1.5074
  652MOL0     H87982   9.866   2.084   8.963 -0.1931  0.1318  1.0755
  652MOL0     H87983   9.791   1.961   8.874 -0.4574 -2.9031  0.8086
  652MOL0     H87984   9.987   2.189   9.393  1.3424 -0.1397  1.9421
  652MOL0     H87985   9.884   2.242   9.602  2.6838  0.0068 -2.0156
  652MOL0     H87986   9.636   1.924   9.824  0.1303 -0.7046 -3.3361
  652MOL0     H87987   9.794   1.945   9.757  0.2504  2.9216 -0.3425
  652MOL0     H87988   9.830   2.151   9.887 -0.5374  1.7654 -0.2165
  652MOL0     H87989   9.682   2.156   9.967  0.3653 -0.2883  0.9997
  652MOL0     H87990   9.834   2.070  10.141 -0.2877 -0.5855  0.3800
  652MOL0     H87991   9.899   1.954  10.025  0.8557  1.9172 -0.6253
  652MOL0     H87992   9.703   1.805  10.052 -1.6895  0.7700  0.1016
  652MOL0     H87993   9.768   1.873  10.210 -2.8292  2.0969  2.2674
  652MOL0     H87994   9.502   1.892  10.072 -0.6266 -3.5422  1.1634
  652MOL0     H87995   9.555   2.020  10.191 -0.8793  0.1368  0.3930
  652MOL0     H87996   9.414   1.806  10.246 -0.0269 -2.7954  0.3371
  652MOL0     H87997   9.572   1.721  10.252  1.7911  1.8995 -1.6102
  652MOL0     H87998   9.506   1.976  10.421  0.5534  0.6963  0.8594
  652MOL0     H87999   9.641   1.868  10.437  0.4795  1.0271 -0.7695
  652MOL0     H88000   9.512   1.684  10.503  3.5654  1.4596  2.4018
  652MOL0     H88001   9.353   1.770  10.500  0.7018 -1.3239 -2.8912
  652MOL0     H88002   9.591   1.933   9.536  2.2647 -0.6203  3.9959
  652MOL0     H88003   9.695   1.889   9.318 -2.7453 -0.1435  2.7049
  652MOL0     H88004  10.258   1.793   9.136 -0.4347 -0.0842  1.5858
  652MOL0     H88005  10.316   1.720   8.918 -1.7184 -1.4812 -0.9361
  652MOL0     H88006  10.503   1.907   6.899 -1.5640  0.5847  0.1443
  652MOL0     H88007  10.633   1.700   6.811 -0.0706 -0.4142 -0.4844
  652MOL0     H88008  10.623   1.229   6.794 -0.3566 -1.1040 -0.5202
  652MOL0     H88009  10.752   1.052   6.753 -2.5303  0.9419 -0.1931
  652MOL0     H88010  10.846   0.880   6.684  2.8248  2.7001  0.4918
  652MOL0     H88011  10.811   0.860   6.508 -1.1159  2.5070 -0.8970
  652MOL0     H88012  10.962   0.681   6.602  1.3650 -1.1879 -0.9613
  652MOL0     H88013  11.085   0.792   6.663  3.6438 -2.9365 -1.9440
  652MOL0     H88014  11.190   0.698   6.492 -2.6805 -2.4550 -0.4675
  652MOL0     H88015  11.164   0.864   6.449 -1.7661  2.6609  2.3168
  652MOL0     H88016  10.951   0.775   6.331 -0.8773  0.6243  2.4716
  652MOL0     H88017  11.010   0.599   6.353 -0.9446  0.0790  1.3029
  652MOL0     H88018  11.240   0.781   6.043 -1.5651 -0.1304 -0.3013
  652MOL0     H88019  10.896   1.233   6.393 -0.2946  0.0632 -0.6209
  652MOL0     H88020  10.804   1.442   6.459 -0.2477  1.8566  3.4760
  653MOL0     O88021   2.747   7.413   0.757  0.2446 -0.8514  0.5634
  653MOL0     C88022   2.725   7.296   0.729 -0.3662 -0.0236 -0.3000
  653MOL0     O88023   2.731   7.243   0.602  0.2817  0.4753  0.9385
  653MOL0     C88024   2.741   7.321   0.489  0.1186  0.1301 -0.1312
  653MOL0     C88025   2.679   7.452   0.467 -0.4738 -0.2538 -0.1193
  653MOL0     C88026   2.682   7.514   0.342 -0.2996  0.6676  0.1524
  653MOL0     C88027   2.735   7.438   0.232  0.5125 -0.1432 -0.4679
  653MOL0     O88028   2.727   7.500   0.113 -0.3729  0.3250  0.0697
  653MOL0     C88029   2.829   7.604   0.109  0.1748 -0.4408 -0.1056
  653MOL0     C88030   2.866   7.642  -0.032  0.9845 -1.0322  0.6605
  653MOL0     C88031   2.963   7.763  -0.051  0.2719  0.1094  0.6199
  653MOL0     C88032   2.880   7.896  -0.013  0.3034  0.3113  0.1328
  653MOL0     C88033   2.966   8.024  -0.040  0.6114 -0.3257 -0.1490
  653MOL0     C88034   2.876   8.145  -0.079 -0.4958 -0.3491 -0.1582
  653MOL0     C88035   2.781   8.188   0.037  0.9545  0.6733 -0.0729
  653MOL0     C88036   2.717   8.326   0.016 -0.6454 -0.4996  0.2727
  653MOL0     N88037   2.811   8.440   0.043  0.1539 -0.4473  0.2478
  653MOL0     C88038   2.774   8.552   0.114  0.5442  0.9229  0.3442
  653MOL0     C88039   2.876   8.637   0.100  1.1777 -0.2814  0.2504
  653MOL0     C88040   2.859   8.774   0.162  0.3946  0.2979  1.1054
  653MOL0     C88041   2.955   8.877   0.114 -0.3106 -0.0937  0.9263
  653MOL0     C88042   2.930   9.012   0.177 -0.0067 -0.8236 -0.1101
  653MOL0     C88043   3.032   9.113   0.100  0.6643  0.8891 -0.1213
  653MOL0     O88044   3.037   9.233   0.175 -0.3613 -0.2169 -0.3102
  653MOL0     C88045   3.132   9.329   0.147  0.8318 -0.2376 -0.7642
  653MOL0     C88046   3.243   9.317   0.063 -0.1567 -0.3272 -0.9146
  653MOL0     C88047   3.336   9.412   0.044 -0.0865  0.0512 -0.3771
  653MOL0     C88048   3.439   9.372  -0.053  0.2284  0.8802 -0.1351
  653MOL0     C88049   3.331   9.526   0.128  0.3533 -0.9688  0.4765
  653MOL0     C88050   3.438   9.616   0.141  0.6475 -0.1088 -0.3013
  653MOL0     O88051   3.448   9.684   0.260 -0.0227  0.7060 -1.0052
  653MOL0     C88052   3.544   9.768   0.297 -0.9607  0.9280 -0.6954
  653MOL0     C88053   3.614   9.856   0.210 -0.3026  0.3861  0.0216
  653MOL0     C88054   3.704   9.948   0.264 -0.6316  0.3600  0.2858
  653MOL0     C88055   3.725   9.963   0.400  0.9384 -0.2387 -0.8432
  653MOL0     O88056   3.808  10.053   0.447  0.3727  0.1570  0.3684
  653MOL0     C88057   3.769  10.191   0.442  0.2546 -1.0341  0.1149
  653MOL0     C88058   3.629  10.206   0.512  0.7802 -0.4454 -0.2772
  653MOL0     C88059   3.643  10.160   0.661 -0.4045  0.1767  0.8723
  653MOL0     C88060   3.510  10.171   0.738 -1.1449 -0.1695  0.3463
  653MOL0     C88061   3.396  10.086   0.688  0.2746 -0.1630 -0.1612
  653MOL0     C88062   3.271  10.122   0.772 -0.2183 -0.4759  0.1608
  653MOL0     C88063   3.156  10.014   0.753 -0.2424  0.1140 -0.0204
  653MOL0     C88064   3.126   9.963   0.613 -0.4017  0.3793 -0.2573
  653MOL0    Cl88065   3.251   9.843   0.545 -0.3552 -0.0783 -0.2577
  653MOL0     C88066   3.662   9.868   0.484  0.3425 -0.1447  0.4161
  653MOL0     C88067   3.577   9.767   0.434  0.0160  0.5491 -0.5766
  653MOL0     O88068   3.506   9.639   0.040  0.3445  0.1519 -0.5182
  653MOL0     C88069   3.218   9.551   0.209 -0.1019  0.7946  0.1813
  653MOL0     C88070   3.120   9.451   0.216 -0.8131 -0.4167  0.0362
  653MOL0     N88071   2.985   8.569   0.041 -0.2147  0.7322 -0.4658
  653MOL0     N88072   2.945   8.450   0.002  0.2516 -0.2913  0.0960
  653MOL0     C88073   2.793   7.315   0.254  0.7864 -0.0970  0.7807
  653MOL0     C88074   2.810   7.265   0.379  0.1617  0.2480  0.4595
  653MOL0     C88075   2.682   7.195   0.842 -0.8067 -0.2219  0.4053
  653MOL0     C88076   2.736   7.202   0.974 -0.1549 -0.3173  0.5728
  653MOL0     C88077   2.692   7.115   1.075 -1.3313  0.0141 -0.6560
  653MOL0     C88078   2.598   7.012   1.046  1.2981  0.3287 -0.3382
  653MOL0     O88079   2.549   6.915   1.134 -0.5275  0.2154  0.1016
  653MOL0     C88080   2.537   6.953   1.286  0.4874 -0.3583  0.2812
  653MOL0     C88081   2.417   7.048   1.315  0.4472  0.0373  0.2213
  653MOL0     C88082   2.296   7.068   1.211 -0.3458  0.3658 -0.4044
  653MOL0     C88083   2.197   6.946   1.189 -0.2557  0.4900  0.0724
  653MOL0     C88084   2.107   6.976   1.083  0.4415 -0.0407 -0.1112
  653MOL0     C88085   2.049   6.983   0.980 -0.7623  0.6365 -0.2019
  653MOL0     C88086   2.550   7.001   0.918 -0.9571 -0.7487  0.7014
  653MOL0     C88087   2.596   7.086   0.814  0.7215 -0.3620  0.3062
  653MOL0     H88088   2.626   7.510   0.542  0.6381 -1.0351  1.3188
  653MOL0     H88089   2.660   7.619   0.332  2.6318  1.1667 -2.5242
  653MOL0     H88090   2.787   7.689   0.163 -0.0669  0.4829 -1.6829
  653MOL0     H88091   2.914   7.576   0.172  0.5403  0.1496 -0.3322
  653MOL0     H88092   2.894   7.549  -0.083 -0.7987 -1.5222  0.4982
  653MOL0     H88093   2.779   7.671  -0.091  1.2991 -2.6117 -0.6623
  653MOL0     H88094   3.043   7.745   0.021 -2.0593 -0.3030  3.3224
  653MOL0     H88095   3.004   7.769  -0.152 -0.0527  0.4630  0.5060
  653MOL0     H88096   2.786   7.899  -0.070  0.2400 -3.2468 -0.1803
  653MOL0     H88097   2.854   7.884   0.092  0.7144  1.8636  0.4340
  653MOL0     H88098   3.016   8.058   0.051  0.2689  0.6371 -0.3130
  653MOL0     H88099   3.027   8.023  -0.131 -2.5234 -1.5551 -2.4164
  653MOL0     H88100   2.947   8.227  -0.097  0.3371 -0.9314  0.3855
  653MOL0     H88101   2.828   8.129  -0.176  2.0865  0.4659 -1.6769
  653MOL0     H88102   2.705   8.110   0.047  0.8799  0.2331 -3.0630
  653MOL0     H88103   2.839   8.193   0.129  1.5118  1.9077 -0.4816
  653MOL0     H88104   2.635   8.332   0.088 -0.4360  0.6022  0.4302
  653MOL0     H88105   2.690   8.322  -0.090  1.1630 -1.4260 -0.2018
  653MOL0     H88106   2.686   8.579   0.172 -0.2054 -1.1267  0.2451
  653MOL0     H88107   2.753   8.799   0.150  0.6171  0.5455 -0.5140
  653MOL0     H88108   2.865   8.767   0.271 -0.5580  0.6867  1.1882
  653MOL0     H88109   2.958   8.895   0.007 -1.0373 -1.0756  0.7220
  653MOL0     H88110   3.056   8.845   0.140 -0.1172  1.1279  1.7590
  653MOL0     H88111   2.947   9.006   0.285  1.7324 -0.6350 -0.3329
  653MOL0     H88112   2.830   9.052   0.160  1.9280  6.7107  2.2752
  653MOL0     H88113   3.001   9.124  -0.004 -1.9384  1.7726  0.6635
  653MOL0     H88114   3.132   9.069   0.101  0.6148  0.7835  0.6715
  653MOL0     H88115   3.250   9.224   0.008 -3.3154 -0.3076 -1.5791
  653MOL0     H88116   3.465   9.451  -0.123 -0.3283  0.3797 -0.9148
  653MOL0     H88117   3.529   9.342   0.002  0.4501  2.0877  0.1920
  653MOL0     H88118   3.399   9.290  -0.114 -0.4630  0.7941  0.4168
  653MOL0     H88119   3.594   9.843   0.104  0.5125 -2.6409  0.1366
  653MOL0     H88120   3.747  10.014   0.189 -1.7471 -0.2843 -0.9574
  653MOL0     H88121   3.848  10.259   0.476 -2.4764  2.4462  0.1072
  653MOL0     H88122   3.763  10.215   0.335 -2.7624  1.0443  0.6259
  653MOL0     H88123   3.600  10.311   0.522 -4.6683 -1.5678 -1.1563
  653MOL0     H88124   3.546  10.168   0.454 -0.3740  2.2562 -0.5667
  653MOL0     H88125   3.714  10.226   0.710 -0.0566 -0.4932  1.2854
  653MOL0     H88126   3.684  10.060   0.681 -0.2070  0.1020  0.1103
  653MOL0     H88127   3.530  10.158   0.845  3.5271  2.9389  0.1548
  653MOL0     H88128   3.490  10.278   0.734  0.6311  0.1995  0.6015
  653MOL0     H88129   3.422   9.983   0.715 -1.4485 -0.6062 -0.0661
  653MOL0     H88130   3.391  10.085   0.579  2.8308 -1.9097 -0.3537
  653MOL0     H88131   3.297  10.123   0.879 -2.3395  0.7695  0.7204
  653MOL0     H88132   3.236  10.221   0.741 -0.3375 -0.4488  0.3781
  653MOL0     H88133   3.065  10.037   0.810 -0.1914 -3.4581  1.7755
  653MOL0     H88134   3.184   9.930   0.817  1.4831  2.6986  2.8790
  653MOL0     H88135   3.110  10.053   0.552  0.1339  0.5214 -0.1993
  653MOL0     H88136   3.037   9.900   0.616 -1.7816  2.2311 -0.5603
  653MOL0     H88137   3.702   9.847   0.582  4.3144  1.4138 -0.6843
  653MOL0     H88138   3.531   9.693   0.499  1.1588 -0.0479 -0.4248
  653MOL0     H88139   3.213   9.642   0.268  3.3479  0.6100  0.9920
  653MOL0     H88140   3.032   9.470   0.277 -0.4608  0.3541  0.3126
  653MOL0     H88141   2.836   7.263   0.169  0.8171  1.4472 -0.2066
  653MOL0     H88142   2.844   7.163   0.394  0.5033  0.1384 -0.9726
  653MOL0     H88143   2.812   7.277   0.998  0.4610 -0.1200 -1.8005
  653MOL0     H88144   2.743   7.126   1.170 -1.2301  0.1309 -0.7254
  653MOL0     H88145   2.499   6.865   1.339 -1.2304 -0.4691 -1.0379
  653MOL0     H88146   2.631   6.994   1.323 -0.4422  1.6790  0.5363
  653MOL0     H88147   2.468   7.144   1.325 -1.4438  1.4192 -2.1901
  653MOL0     H88148   2.371   7.016   1.408  0.9362  5.4133  2.6892
  653MOL0     H88149   2.342   7.091   1.114  2.8331 -1.6874  0.4937
  653MOL0     H88150   2.238   7.158   1.234  0.7976  1.3774 -1.2856
  653MOL0     H88151   2.143   6.913   1.278  1.9493 -0.9167  0.9737
  653MOL0     H88152   2.258   6.860   1.161 -0.4941  0.6805 -1.0664
  653MOL0     H88153   1.994   6.981   0.888 -2.5208  1.0295  0.7884
  653MOL0     H88154   2.491   6.917   0.882 -1.0018 -0.1572 -0.6436
  653MOL0     H88155   2.568   7.058   0.713  1.5666 -0.3124  0.0433
  654MOL0     O88156   9.241   7.124  10.096 -0.2685  0.1371 -0.0165
  654MOL0     C88157   9.354   7.120  10.141  0.9966 -0.3517 -0.7995
  654MOL0     O88158   9.432   7.240  10.163  0.8859 -0.6941  0.1349
  654MOL0     C88159   9.385   7.350  10.101  0.0706 -0.3056 -0.2485
  654MOL0     C88160   9.436   7.379   9.975 -1.1383  0.4919 -0.4184
  654MOL0     C88161   9.391   7.492   9.901 -0.2126  0.5676 -1.1305
  654MOL0     C88162   9.286   7.575   9.952  0.6354  0.0489  0.6018
  654MOL0     O88163   9.236   7.692   9.897  0.3112 -0.5915 -0.5277
  654MOL0     C88164   9.307   7.775   9.808 -0.2035  0.5492  0.1313
  654MOL0     C88165   9.285   7.743   9.658  0.1525 -0.1684 -0.2301
  654MOL0     C88166   9.153   7.786   9.600  0.4155 -0.4800  0.0980
  654MOL0     C88167   9.163   7.751   9.446 -0.0366 -0.1812  0.3670
  654MOL0     C88168   9.040   7.821   9.374 -0.3680 -0.2549  0.3690
  654MOL0     C88169   9.024   7.802   9.222  0.6667  1.0681 -0.1608
  654MOL0     C88170   9.031   7.652   9.182  0.7152 -0.7942  0.1938
  654MOL0     C88171   8.951   7.556   9.273  0.2580 -0.9904 -0.4120
  654MOL0     N88172   8.810   7.562   9.237  0.3000  0.3484  0.2788
  654MOL0     C88173   8.750   7.483   9.138  0.0301  0.4372  0.4415
  654MOL0     C88174   8.641   7.548   9.093 -0.4315 -0.2662 -0.7112
  654MOL0     C88175   8.539   7.504   8.996 -0.5976  0.8763  0.1004
  654MOL0     C88176   8.573   7.532   8.848  1.0795  0.1100 -0.0152
  654MOL0     C88177   8.670   7.424   8.797  0.1314  0.7427  0.0121
  654MOL0     C88178   8.715   7.466   8.651  0.9606  0.4013 -0.2287
  654MOL0     O88179   8.830   7.394   8.597  0.1744  0.4600 -0.4251
  654MOL0     C88180   8.810   7.274   8.529  0.5279  0.8707 -0.2910
  654MOL0     C88181   8.685   7.202   8.535  0.7320  0.3899  0.1140
  654MOL0     C88182   8.669   7.078   8.471 -0.0490  0.3278 -0.6423
  654MOL0     C88183   8.526   7.021   8.482 -0.1268 -0.5162 -0.1865
  654MOL0     C88184   8.778   7.026   8.398 -1.8385 -0.1751  0.6169
  654MOL0     C88185   8.780   6.897   8.346  1.1244  0.9374 -0.2327
  654MOL0     O88186   8.855   6.875   8.242  0.1379  0.1233 -0.0050
  654MOL0     C88187   8.886   6.746   8.219  1.1213  0.7718  0.5126
  654MOL0     C88188   8.817   6.672   8.120 -1.0797 -0.1220 -0.6191
  654MOL0     C88189   8.859   6.536   8.089 -0.1173 -0.3121  0.5503
  654MOL0     C88190   8.972   6.480   8.152 -0.5576  0.7393 -1.2037
  654MOL0     O88191   9.000   6.353   8.124  0.2085  0.9201 -0.5111
  654MOL0     C88192   9.033   6.258   8.228  0.5226  0.7138  0.5754
  654MOL0     C88193   8.905   6.234   8.313 -0.5983  0.0634  0.0556
  654MOL0     C88194   8.916   6.162   8.445  0.4564  0.1633 -0.6427
  654MOL0     C88195   8.963   6.017   8.427  0.4069 -0.2666  0.4670
  654MOL0     C88196   8.967   5.934   8.559  0.4376  0.2518  1.3156
  654MOL0     C88197   9.036   5.802   8.556 -0.3707  0.5117  0.6020
  654MOL0     C88198   8.967   5.697   8.463 -0.3918  1.0564 -0.2280
  654MOL0     C88199   9.060   5.580   8.452 -0.0765  0.2323  0.4498
  654MOL0    Cl88200   9.005   5.451   8.334  0.5129  0.0193 -0.2451
  654MOL0     C88201   9.032   6.559   8.252 -0.8395  0.1741  0.1013
  654MOL0     C88202   8.996   6.691   8.272 -0.3286  0.2475  0.9539
  654MOL0     O88203   8.705   6.818   8.397 -0.4028  0.0792 -0.1261
  654MOL0     C88204   8.903   7.097   8.401  0.1624 -0.8466  0.4921
  654MOL0     C88205   8.918   7.216   8.461  0.8596 -0.0852  1.5070
  654MOL0     N88206   8.633   7.669   9.169  0.4444 -0.1939  0.3121
  654MOL0     N88207   8.732   7.668   9.263 -0.1383  0.7868  0.1734
  654MOL0     C88208   9.244   7.552  10.086 -0.0710  0.9381 -0.6681
  654MOL0     C88209   9.296   7.442  10.158  0.4034  0.3748  0.0638
  654MOL0     C88210   9.418   6.987  10.185  0.0997 -0.4236 -0.4645
  654MOL0     C88211   9.373   6.866  10.148 -0.0149  0.4709 -0.3895
  654MOL0     C88212   9.452   6.745  10.172  0.3389  0.0797  0.2034
  654MOL0     C88213   9.574   6.758  10.243 -0.0445 -0.1861  1.0925
  654MOL0     O88214   9.652   6.638  10.260 -0.6932 -0.2870 -0.3454
  654MOL0     C88215   9.710   6.623  10.388  0.0115  0.9755  0.0567
  654MOL0     C88216   9.864   6.595  10.371  0.3183  0.7680 -0.0514
  654MOL0     C88217   9.904   6.477  10.288 -0.1248  0.1974  0.4823
  654MOL0     C88218  10.047   6.425  10.300  0.2312  0.6306 -0.0836
  654MOL0     C88219  10.093   6.323  10.212 -0.8485  0.5133  1.2216
  654MOL0     C88220  10.144   6.248  10.132  0.1782  0.2928  0.3858
  654MOL0     C88221   9.618   6.889  10.279  0.0190  0.3370 -0.5466
  654MOL0     C88222   9.539   7.001  10.264 -0.6862 -0.1651  0.9711
  654MOL0     H88223   9.524   7.330   9.936 -0.0105  1.6421  0.5583
  654MOL0     H88224   9.430   7.523   9.805 -0.6055 -3.0536 -2.6354
  654MOL0     H88225   9.284   7.879   9.833  1.1482  0.2908  2.9201
  654MOL0     H88226   9.415   7.760   9.815 -0.3094  0.0171  0.7395
  654MOL0     H88227   9.362   7.806   9.614 -1.0623  2.1371  0.7909
  654MOL0     H88228   9.307   7.636   9.654 -0.8328 -0.4444  1.0612
  654MOL0     H88229   9.069   7.733   9.646  1.0931 -1.7777 -0.1409
  654MOL0     H88230   9.124   7.890   9.618 -1.6095 -0.9271 -0.3191
  654MOL0     H88231   9.256   7.790   9.402 -2.8739  1.8374 -4.7019
  654MOL0     H88232   9.145   7.650   9.408  2.1711 -0.7834  0.7988
  654MOL0     H88233   8.952   7.802   9.435  1.1270  1.3382  3.2002
  654MOL0     H88234   9.055   7.928   9.386  1.5778 -0.6952  2.6194
  654MOL0     H88235   8.931   7.846   9.186  1.7314 -0.4290 -5.7088
  654MOL0     H88236   9.106   7.858   9.175  1.7946 -0.1758  0.2629
  654MOL0     H88237   9.002   7.644   9.077  2.7006  0.0245 -0.4701
  654MOL0     H88238   9.134   7.614   9.190  1.1186  0.1840 -0.2096
  654MOL0     H88239   8.953   7.569   9.382 -0.9377 -0.9666 -0.3855
  654MOL0     H88240   8.983   7.451   9.273 -1.1440 -1.4470  0.3008
  654MOL0     H88241   8.781   7.382   9.111  1.8920  0.8499  0.9273
  654MOL0     H88242   8.516   7.398   9.009  0.5107  0.6561  0.4298
  654MOL0     H88243   8.453   7.563   9.028 -1.6641 -0.1862 -0.7467
  654MOL0     H88244   8.623   7.630   8.846  1.8258 -0.2173 -2.9031
  654MOL0     H88245   8.484   7.544   8.785  0.9485  3.3866  0.5787
  654MOL0     H88246   8.624   7.325   8.796 -1.2088  1.1826 -4.4982
  654MOL0     H88247   8.765   7.416   8.850  2.0278 -2.3982 -3.3043
  654MOL0     H88248   8.745   7.571   8.646 -0.9784  0.9415 -4.0150
  654MOL0     H88249   8.624   7.465   8.590  1.2781  0.0297 -0.7086
  654MOL0     H88250   8.602   7.245   8.589 -1.5102 -2.7429 -0.5329
  654MOL0     H88251   8.508   6.954   8.566 -0.6864 -1.4533 -1.0251
  654MOL0     H88252   8.452   7.102   8.487  0.5774  0.1170  0.0542
  654MOL0     H88253   8.498   6.956   8.398  1.4317 -3.4604  1.4348
  654MOL0     H88254   8.726   6.710   8.074 -0.4562  0.0415 -1.7596
  654MOL0     H88255   8.811   6.476   8.013  2.0271 -3.7964  1.7022
  654MOL0     H88256   9.064   6.163   8.183  1.3028  1.1484  0.1805
  654MOL0     H88257   9.111   6.290   8.298  0.9302  1.3251 -0.1426
  654MOL0     H88258   8.859   6.332   8.329 -0.3507  1.0298 -4.1021
  654MOL0     H88259   8.824   6.185   8.258  1.2146 -2.9365 -0.1394
  654MOL0     H88260   8.818   6.165   8.493  1.1652  0.4607  0.8670
  654MOL0     H88261   8.987   6.214   8.511  1.2711  0.4566 -1.7260
  654MOL0     H88262   8.902   5.973   8.347  0.6721 -0.2076  0.2271
  654MOL0     H88263   9.067   6.024   8.393  0.8100 -1.5071  1.3693
  654MOL0     H88264   8.863   5.926   8.591 -0.7222  1.3603 -1.7641
  654MOL0     H88265   9.032   5.987   8.628  0.5949  0.4648  1.0074
  654MOL0     H88266   9.141   5.817   8.530  0.1631 -0.5241  2.0333
  654MOL0     H88267   9.045   5.762   8.658 -1.2703  1.6355  1.1421
  654MOL0     H88268   8.937   5.727   8.362 -3.4471 -0.6084  0.0622
  654MOL0     H88269   8.877   5.660   8.512 -0.6447 -3.3740 -3.4352
  654MOL0     H88270   9.089   5.534   8.547 -0.2244 -2.1702 -0.5922
  654MOL0     H88271   9.154   5.617   8.410 -0.6977  1.8068  0.4115
  654MOL0     H88272   9.114   6.509   8.303 -1.5059 -0.2573  0.7831
  654MOL0     H88273   9.065   6.754   8.326  2.8396 -0.8447 -1.4619
  654MOL0     H88274   8.989   7.046   8.357 -2.5154 -2.8943 -2.9386
  654MOL0     H88275   9.016   7.263   8.455  1.9587 -2.4077 -2.0180
  654MOL0     H88276   9.169   7.616  10.131 -0.1061  0.8523 -0.6054
  654MOL0     H88277   9.260   7.419  10.258  1.4655 -3.8609 -0.3683
  654MOL0     H88278   9.273   6.857  10.105 -0.8698 -1.7199  1.8121
  654MOL0     H88279   9.417   6.647  10.140 -1.3351  0.9600 -0.7600
  654MOL0     H88280   9.698   6.700  10.464 -1.1345 -1.0145  2.0392
  654MOL0     H88281   9.657   6.538  10.432 -1.2787  1.6187 -0.2319
  654MOL0     H88282   9.912   6.594  10.469 -0.0965  0.1561  0.1464
  654MOL0     H88283   9.904   6.678  10.312  2.8974  0.1445  0.6652
  654MOL0     H88284   9.898   6.514  10.185  0.4076  1.2901  0.8267
  654MOL0     H88285   9.838   6.395  10.316  0.5313  0.1159  1.8735
  654MOL0     H88286  10.055   6.375  10.397  1.1413  1.6128  0.3764
  654MOL0     H88287  10.105   6.517  10.312 -0.6217  1.4909 -2.1414
  654MOL0     H88288  10.178   6.175  10.062 -1.1167 -0.6767  0.7226
  654MOL0     H88289   9.717   6.903  10.322 -0.4496 -0.4621  0.8884
  654MOL0     H88290   9.560   7.098  10.308 -1.6009 -0.2646  1.6609
  655MOL0     O88291   2.465   0.006   0.264  0.1712 -0.4348 -0.5130
  655MOL0     C88292   2.412  -0.064   0.339  0.0493  0.0958 -0.7183
  655MOL0     O88293   2.307  -0.143   0.309 -0.6515  0.1419 -0.7147
  655MOL0     C88294   2.266  -0.167   0.187 -0.3775 -0.1609  1.6651
  655MOL0     C88295   2.221  -0.298   0.171  0.3396  0.4644 -0.2537
  655MOL0     C88296   2.161  -0.349   0.055  0.6803 -0.0815  0.7105
  655MOL0     C88297   2.160  -0.269  -0.052  0.6505 -0.0262  0.2323
  655MOL0     O88298   2.127  -0.312  -0.180  1.3194  1.0872  0.0371
  655MOL0     C88299   2.173  -0.443  -0.223 -0.8647 -0.2229 -0.1973
  655MOL0     C88300   2.127  -0.464  -0.366 -0.6308  0.0942 -0.2863
  655MOL0     C88301   2.155  -0.613  -0.419 -0.2978 -0.7905 -1.0048
  655MOL0     C88302   2.041  -0.704  -0.400  0.1345 -0.4378  0.7037
  655MOL0     C88303   2.046  -0.829  -0.479 -0.2341 -1.0447  0.1258
  655MOL0     C88304   1.948  -0.925  -0.417 -0.3039  0.5571  1.1030
  655MOL0     C88305   1.936  -1.062  -0.494  0.4867  0.6225  0.5868
  655MOL0     C88306   1.803  -1.131  -0.448  0.0457 -0.7423 -1.0126
  655MOL0     N88307   1.792  -1.163  -0.297 -0.2898 -0.3657  0.0698
  655MOL0     C88308   1.869  -1.248  -0.220  0.1754 -0.0171  0.1792
  655MOL0     C88309   1.800  -1.240  -0.103 -0.9536  0.8911 -0.7025
  655MOL0     C88310   1.837  -1.328   0.009  1.1367  0.3249  0.4679
  655MOL0     C88311   1.842  -1.480  -0.030  0.0367  0.8116  0.1436
  655MOL0     C88312   1.714  -1.541  -0.096 -0.1035  0.0753 -0.0965
  655MOL0     C88313   1.739  -1.662  -0.184  0.4875  0.1262 -0.2404
  655MOL0     O88314   1.767  -1.776  -0.112 -0.1110 -0.2639  0.3052
  655MOL0     C88315   1.679  -1.886  -0.133 -0.0825 -0.0325 -0.3902
  655MOL0     C88316   1.555  -1.897  -0.088 -0.5610 -0.6621 -1.0592
  655MOL0     C88317   1.472  -2.002  -0.101  0.0545 -0.4993 -0.4837
  655MOL0     C88318   1.324  -1.992  -0.056  0.8948  0.0923 -1.5114
  655MOL0     C88319   1.535  -2.118  -0.161  0.9639 -1.4427  0.0203
  655MOL0     C88320   1.455  -2.248  -0.183 -1.1232  1.0069 -0.5575
  655MOL0     O88321   1.516  -2.355  -0.232 -0.5117  0.8594 -0.4411
  655MOL0     C88322   1.458  -2.478  -0.225 -0.8577  0.1340 -0.2913
  655MOL0     C88323   1.489  -2.566  -0.118 -0.9862  0.3932 -0.7088
  655MOL0     C88324   1.432  -2.689  -0.106  0.5552 -0.3843 -0.1426
  655MOL0     C88325   1.330  -2.723  -0.186 -0.3349  0.0499  0.2210
  655MOL0     O88326   1.278  -2.845  -0.159 -0.9185  0.4172  0.5457
  655MOL0     C88327   1.150  -2.860  -0.201  0.7038 -0.0951 -0.0146
  655MOL0     C88328   1.091  -2.980  -0.140  1.0824  0.2870  0.9713
  655MOL0     C88329   0.937  -2.978  -0.159  1.3508  0.1796  0.2576
  655MOL0     C88330   0.843  -3.079  -0.094 -0.3372 -0.9661  0.6142
  655MOL0     C88331   0.920  -3.212  -0.100  0.9338 -0.3629  0.5924
  655MOL0     C88332   0.831  -3.322  -0.043  1.2537 -0.0885 -0.4374
  655MOL0     C88333   0.915  -3.452  -0.028 -0.3689  0.8014  0.2921
  655MOL0     C88334   0.910  -3.512   0.110  0.1817  0.1827  0.4242
  655MOL0    Cl88335   1.038  -3.639   0.136  0.1875  0.4633  0.1791
  655MOL0     C88336   1.302  -2.641  -0.295  0.2634 -1.2290  0.6442
  655MOL0     C88337   1.369  -2.523  -0.324 -0.3662  0.7535  0.2205
  655MOL0     O88338   1.338  -2.242  -0.173 -0.6898 -0.2604  0.0235
  655MOL0     C88339   1.661  -2.112  -0.214 -0.7615 -0.0861  0.8853
  655MOL0     C88340   1.728  -1.993  -0.197 -0.9296 -0.0770 -1.2294
  655MOL0     N88341   1.691  -1.163  -0.104  0.3041 -0.0105 -0.4785
  655MOL0     N88342   1.696  -1.105  -0.221  0.2495  0.1023 -0.0950
  655MOL0     C88343   2.207  -0.132  -0.040  0.1442  0.1565  0.0788
  655MOL0     C88344   2.251  -0.076   0.076 -0.3208 -0.0660  0.3039
  655MOL0     C88345   2.476  -0.094   0.471  0.3762  0.4452 -0.4152
  655MOL0     C88346   2.471  -0.226   0.527 -0.0392  0.2428 -0.2104
  655MOL0     C88347   2.544  -0.248   0.647 -0.2351  0.3649  0.8901
  655MOL0     C88348   2.599  -0.142   0.723  0.3309  0.5855  0.4129
  655MOL0     O88349   2.670  -0.166   0.841  0.3172  0.0954  0.4576
  655MOL0     C88350   2.724  -0.063   0.918 -0.0773 -0.6654 -0.3249
  655MOL0     C88351   2.796  -0.129   1.036  0.0744  0.3814 -0.3181
  655MOL0     C88352   2.934  -0.205   1.007  0.9626 -0.2113 -0.0982
  655MOL0     C88353   2.982  -0.290   1.124 -0.3998 -0.1337  0.0631
  655MOL0     C88354   3.104  -0.359   1.094 -0.5158 -0.6530  0.3939
  655MOL0     C88355   3.211  -0.409   1.072 -0.3875 -0.5084 -0.0683
  655MOL0     C88356   2.590  -0.012   0.668 -0.0952  0.1105 -0.0141
  655MOL0     C88357   2.537   0.006   0.541  0.8423  0.1847 -0.2848
  655MOL0     H88358   2.225  -0.361   0.259 -0.4606  0.6653 -0.0663
  655MOL0     H88359   2.124  -0.451   0.045 -0.0188  0.0903  1.4443
  655MOL0     H88360   2.282  -0.444  -0.214 -0.7464  1.7128 -0.9176
  655MOL0     H88361   2.123  -0.516  -0.158 -3.3722 -0.1285 -1.8462
  655MOL0     H88362   2.027  -0.435  -0.398  0.4201  2.0280 -2.0736
  655MOL0     H88363   2.187  -0.391  -0.421 -2.6610  1.2324 -1.1105
  655MOL0     H88364   2.182  -0.607  -0.524  4.5665 -2.5233 -0.1039
  655MOL0     H88365   2.247  -0.650  -0.371  0.2467  2.0057  0.3252
  655MOL0     H88366   2.028  -0.730  -0.295 -0.8026  1.6856  1.1640
  655MOL0     H88367   1.955  -0.649  -0.440  1.5427  0.5672 -1.1313
  655MOL0     H88368   2.033  -0.813  -0.586  3.2503 -0.0071 -0.2492
  655MOL0     H88369   2.144  -0.875  -0.467  1.1027  1.5779 -0.1422
  655MOL0     H88370   1.982  -0.950  -0.316  1.7805  0.1150  0.3502
  655MOL0     H88371   1.851  -0.875  -0.414 -2.0382 -2.2719 -1.4278
  655MOL0     H88372   1.936  -1.028  -0.598  3.2828 -0.3534  0.1685
  655MOL0     H88373   2.025  -1.126  -0.496 -0.0124 -0.1150  1.4033
  655MOL0     H88374   1.799  -1.228  -0.499  1.0025 -0.2373 -2.1064
  655MOL0     H88375   1.719  -1.064  -0.472  1.7772  2.7617  1.8468
  655MOL0     H88376   1.953  -1.309  -0.253 -0.4800 -0.5751 -0.4634
  655MOL0     H88377   1.934  -1.298   0.049  1.2318 -0.5719  0.9555
  655MOL0     H88378   1.761  -1.323   0.088  1.0942 -5.4047  1.2318
  655MOL0     H88379   1.872  -1.537   0.058 -0.1835  2.5902  1.4362
  655MOL0     H88380   1.927  -1.484  -0.098  0.3876 -1.1442  0.6477
  655MOL0     H88381   1.662  -1.465  -0.156  2.4224  1.6992 -0.3907
  655MOL0     H88382   1.649  -1.571  -0.014  1.6713 -0.1609  1.2699
  655MOL0     H88383   1.831  -1.638  -0.238  1.4284  2.2494  2.1222
  655MOL0     H88384   1.655  -1.675  -0.253 -0.5197  1.0977  0.7679
  655MOL0     H88385   1.525  -1.800  -0.051 -1.1345 -1.7765  1.6800
  655MOL0     H88386   1.256  -2.003  -0.141 -0.4860 -1.3552 -0.2761
  655MOL0     H88387   1.296  -2.071   0.014 -3.1298  1.4825 -1.2737
  655MOL0     H88388   1.298  -1.900  -0.003 -1.1595 -1.5941  0.5947
  655MOL0     H88389   1.568  -2.547  -0.046  0.9065  1.6865 -3.0046
  655MOL0     H88390   1.455  -2.765  -0.032 -0.5546  0.2538  0.9022
  655MOL0     H88391   1.085  -2.774  -0.182  1.2423 -0.0297  1.6989
  655MOL0     H88392   1.155  -2.885  -0.308  0.6309 -1.1012  0.2162
  655MOL0     H88393   1.146  -3.067  -0.178  2.0715  1.0571  0.5968
  655MOL0     H88394   1.110  -2.961  -0.034  1.6260  0.9692  0.7562
  655MOL0     H88395   0.911  -2.980  -0.265 -2.1966  1.7768  0.9498
  655MOL0     H88396   0.900  -2.878  -0.132 -1.2580 -0.4208 -0.7725
  655MOL0     H88397   0.822  -3.050   0.010 -0.4401 -1.2482  0.6708
  655MOL0     H88398   0.757  -3.075  -0.161  1.0191 -1.4276 -1.2185
  655MOL0     H88399   1.012  -3.202  -0.042  1.7164 -1.0679 -0.4966
  655MOL0     H88400   0.951  -3.241  -0.201  0.9434 -1.7757  0.9801
  655MOL0     H88401   0.796  -3.297   0.058  4.7364  0.2905  0.7913
  655MOL0     H88402   0.749  -3.336  -0.114  0.1196  5.2989 -0.6910
  655MOL0     H88403   1.014  -3.451  -0.075 -1.2218 -1.2281 -1.7565
  655MOL0     H88404   0.858  -3.523  -0.088 -1.3882  2.4453 -0.8022
  655MOL0     H88405   0.816  -3.559   0.141 -0.3477  1.1565  0.3406
  655MOL0     H88406   0.921  -3.432   0.185 -0.9578 -0.1198  0.9433
  655MOL0     H88407   1.219  -2.672  -0.357 -2.4483 -1.7534  4.2364
  655MOL0     H88408   1.328  -2.469  -0.408  0.4221  0.3780 -0.4103
  655MOL0     H88409   1.707  -2.194  -0.267  2.1757  0.8686  1.7624
  655MOL0     H88410   1.831  -1.979  -0.231  0.6007  2.9498  3.6717
  655MOL0     H88411   2.214  -0.083  -0.137  3.7812  1.4297  0.7973
  655MOL0     H88412   2.254   0.033   0.077  2.2873 -0.0842  0.8092
  655MOL0     H88413   2.413  -0.307   0.485  1.3569 -1.5725  1.1870
  655MOL0     H88414   2.567  -0.352   0.671  1.0224  0.0562 -1.3089
  655MOL0     H88415   2.798  -0.001   0.865 -0.4125  0.5149  0.5336
  655MOL0     H88416   2.652   0.011   0.955  0.5218  0.5517 -1.4796
  655MOL0     H88417   2.736  -0.199   1.096  1.6397 -1.9674 -1.3444
  655MOL0     H88418   2.817  -0.056   1.115  1.5456  0.5919 -0.8756
  655MOL0     H88419   3.010  -0.134   0.971 -1.4368  2.5364 -0.1129
  655MOL0     H88420   2.923  -0.264   0.916 -0.7185  1.8863 -1.3546
  655MOL0     H88421   2.913  -0.372   1.149  0.1513  0.4606  4.1555
  655MOL0     H88422   3.000  -0.225   1.209 -2.9707  0.4583  0.2497
  655MOL0     H88423   3.300  -0.454   1.033  1.7641  2.3768  1.1113
  655MOL0     H88424   2.634   0.072   0.720  0.6610 -1.1541  1.5002
  655MOL0     H88425   2.552   0.108   0.506  0.8163 -0.2241 -1.5408
  656MOL0     O88426   0.140   2.436   3.490 -0.5359 -0.2117  1.0137
  656MOL0     C88427   0.099   2.324   3.478  0.7184 -0.4798  0.3256
  656MOL0     O88428   0.133   2.234   3.386  0.9023 -0.0918 -0.9351
  656MOL0     C88429   0.218   2.284   3.293  0.5646 -1.2094  0.1880
  656MOL0     C88430   0.161   2.321   3.171  0.2276  0.2217  0.4237
  656MOL0     C88431   0.234   2.375   3.069  0.3162  0.3306 -0.9033
  656MOL0     C88432   0.367   2.379   3.086 -0.8003  0.2968 -0.3380
  656MOL0     O88433   0.459   2.419   2.993 -0.2570 -0.7259 -0.1701
  656MOL0     C88434   0.408   2.423   2.863  0.7906 -0.3983 -0.1621
  656MOL0     C88435   0.533   2.444   2.766  0.2643  0.7344  0.2931
  656MOL0     C88436   0.644   2.548   2.798 -0.2782  0.1971  0.2939
  656MOL0     C88437   0.585   2.690   2.781  0.3186 -0.1454 -0.5306
  656MOL0     C88438   0.669   2.810   2.830  0.0446  0.5968  0.4327
  656MOL0     C88439   0.574   2.931   2.866  0.2091  0.6849 -0.8360
  656MOL0     C88440   0.656   3.061   2.838  0.7467  0.9212 -1.3423
  656MOL0     C88441   0.609   3.174   2.936 -1.0460 -0.1264  0.0725
  656MOL0     N88442   0.709   3.281   2.932 -0.5774 -0.1075  0.1939
  656MOL0     C88443   0.700   3.396   2.860  1.3352 -0.6049  0.2141
  656MOL0     C88444   0.816   3.454   2.864 -0.0136 -0.0840  0.3656
  656MOL0     C88445   0.840   3.573   2.788 -0.1875  0.5353 -0.4391
  656MOL0     C88446   0.787   3.694   2.857  0.6210  1.1145  0.3687
  656MOL0     C88447   0.818   3.713   3.006  0.0214 -0.0006 -0.1930
  656MOL0     C88448   0.705   3.807   3.073  0.4012  0.3307  1.3069
  656MOL0     O88449   0.767   3.876   3.198  0.6632 -0.3108 -0.0462
  656MOL0     C88450   0.689   3.881   3.309 -0.1554  0.1555 -0.7990
  656MOL0     C88451   0.671   4.003   3.380  0.4321  0.0650  0.6926
  656MOL0     C88452   0.590   4.008   3.500 -0.0786 -0.7315  1.5467
  656MOL0     C88453   0.577   4.146   3.558 -0.3319 -0.2980 -0.4245
  656MOL0     C88454   0.525   3.884   3.544 -0.5499 -0.2126  0.2021
  656MOL0     C88455   0.445   3.879   3.671  0.1173 -0.7370  0.6631
  656MOL0     O88456   0.460   3.980   3.760 -0.1248 -0.1774 -0.1939
  656MOL0     C88457   0.399   3.969   3.888 -0.0620 -0.2681  1.7067
  656MOL0     C88458   0.402   3.851   3.956 -0.2249 -0.0105 -0.6337
  656MOL0     C88459   0.355   3.859   4.088  0.1200  0.5743 -0.0594
  656MOL0     C88460   0.289   3.966   4.144  0.7179  0.1024  0.4891
  656MOL0     O88461   0.254   3.978   4.273 -1.1291  0.3810 -0.2139
  656MOL0     C88462   0.234   3.864   4.350  0.0162  0.5662 -0.3835
  656MOL0     C88463   0.181   3.903   4.484 -0.0651 -0.8352 -0.5379
  656MOL0     C88464   0.296   3.917   4.594  0.2491 -0.1646 -0.1475
  656MOL0     C88465   0.252   3.980   4.718 -0.2314 -0.9063  0.6267
  656MOL0     C88466   0.373   4.000   4.814  0.9701  0.8327 -0.0520
  656MOL0     C88467   0.393   3.878   4.912  0.2578  0.2021 -0.5899
  656MOL0     C88468   0.498   3.915   5.015  0.6670 -0.4367 -0.0519
  656MOL0     C88469   0.527   3.810   5.123 -1.4668 -0.8024 -0.1874
  656MOL0    Cl88470   0.623   3.683   5.050 -0.0188  0.5019  0.1982
  656MOL0     C88471   0.268   4.071   4.064  0.1905 -1.1438  0.8029
  656MOL0     C88472   0.325   4.080   3.938 -0.5285  0.4313  0.3652
  656MOL0     O88473   0.375   3.781   3.693 -0.2271 -0.0621  0.1541
  656MOL0     C88474   0.549   3.773   3.472 -0.2285  1.5083 -0.7247
  656MOL0     C88475   0.631   3.773   3.360 -0.9045  0.8981  0.2737
  656MOL0     N88476   0.892   3.375   2.942 -0.8099 -0.2853  0.1887
  656MOL0     N88477   0.834   3.266   2.984 -0.7483  1.2912  0.1443
  656MOL0     C88478   0.426   2.344   3.206  0.5787 -0.2388 -0.9740
  656MOL0     C88479   0.351   2.303   3.313  0.1407  0.3271 -0.3580
  656MOL0     C88480  -0.002   2.279   3.582  0.2561 -0.7272  0.2050
  656MOL0     C88481  -0.082   2.372   3.651  0.3064 -0.4882  0.6039
  656MOL0     C88482  -0.170   2.339   3.759 -0.3101 -0.3854  1.2163
  656MOL0     C88483  -0.168   2.211   3.804 -0.0078 -0.2856  0.6439
  656MOL0     O88484  -0.219   2.172   3.919  0.5018  0.3608  0.1946
  656MOL0     C88485  -0.276   2.263   4.011 -0.1955 -1.3021 -0.2745
  656MOL0     C88486  -0.271   2.217   4.151  1.1077  0.8682 -0.7128
  656MOL0     C88487  -0.322   2.323   4.254 -0.6768  0.3001  0.5677
  656MOL0     C88488  -0.457   2.394   4.217  0.9996  0.2837  0.3913
  656MOL0     C88489  -0.567   2.296   4.220 -0.4433  0.3552 -0.3743
  656MOL0     C88490  -0.661   2.226   4.213 -0.7733  0.4826  0.1748
  656MOL0     C88491  -0.092   2.117   3.736  0.0262  0.6319  0.1840
  656MOL0     C88492  -0.015   2.148   3.627  0.7399  0.3609 -0.2134
  656MOL0     H88493   0.056   2.310   3.148  1.1208 -3.6428 -2.6639
  656MOL0     H88494   0.185   2.411   2.980  0.6803  3.9905  0.2356
  656MOL0     H88495   0.360   2.328   2.841  0.6642 -0.4803  0.4343
  656MOL0     H88496   0.341   2.508   2.845  0.3061 -0.8312 -0.4175
  656MOL0     H88497   0.588   2.350   2.752  0.1716  0.4489  1.6755
  656MOL0     H88498   0.482   2.468   2.672 -3.9020 -3.5107  1.1154
  656MOL0     H88499   0.694   2.539   2.895  2.1993 -1.4224 -1.0054
  656MOL0     H88500   0.732   2.540   2.733  0.1973  0.9358  0.8297
  656MOL0     H88501   0.565   2.701   2.674  3.0408  1.3524 -0.9792
  656MOL0     H88502   0.493   2.689   2.841  1.3170 -0.4575  1.0511
  656MOL0     H88503   0.741   2.785   2.908  2.0177  1.1850 -1.1249
  656MOL0     H88504   0.725   2.830   2.738 -0.8964 -1.7036 -0.7430
  656MOL0     H88505   0.476   2.943   2.820 -2.3789 -1.8283  3.3125
  656MOL0     H88506   0.550   2.917   2.972  1.8171  1.9717 -0.2463
  656MOL0     H88507   0.762   3.047   2.861 -0.3691 -4.0424  2.2853
  656MOL0     H88508   0.650   3.079   2.730 -0.8847 -0.6976 -1.5581
  656MOL0     H88509   0.591   3.123   3.031 -0.5246 -3.5100 -1.5011
  656MOL0     H88510   0.521   3.229   2.903  0.1662  2.3533  0.7075
  656MOL0     H88511   0.623   3.444   2.801  1.7647 -0.0132  0.1287
  656MOL0     H88512   0.948   3.576   2.773 -0.1796 -0.1822 -0.5980
  656MOL0     H88513   0.784   3.569   2.694 -0.9620  1.6311 -0.0465
  656MOL0     H88514   0.678   3.685   2.845  0.7386 -1.0940  0.5472
  656MOL0     H88515   0.825   3.779   2.800 -3.1157  1.7747 -1.5279
  656MOL0     H88516   0.908   3.773   3.012 -0.6994  1.4899 -2.7112
  656MOL0     H88517   0.824   3.624   3.069  0.4044  1.2321  1.5812
  656MOL0     H88518   0.608   3.760   3.095  1.2090 -0.7886  2.6117
  656MOL0     H88519   0.677   3.880   2.996 -2.0559  2.0807  3.6496
  656MOL0     H88520   0.716   4.094   3.342  2.3909 -0.2349  2.1422
  656MOL0     H88521   0.621   4.220   3.490 -0.3717  0.6737  0.5908
  656MOL0     H88522   0.472   4.174   3.569  0.0293  0.4471  1.5946
  656MOL0     H88523   0.627   4.153   3.655 -2.0261 -0.9886  0.5292
  656MOL0     H88524   0.447   3.757   3.926  0.7823  0.4808 -0.7235
  656MOL0     H88525   0.373   3.773   4.152 -3.1477  0.0214  0.3273
  656MOL0     H88526   0.164   3.792   4.308 -0.0955 -1.4278  2.8565
  656MOL0     H88527   0.332   3.817   4.366 -0.7077 -0.4987  1.1743
  656MOL0     H88528   0.127   3.997   4.466  1.0415 -0.2454 -0.8578
  656MOL0     H88529   0.108   3.829   4.516 -0.6904 -0.1920 -0.4422
  656MOL0     H88530   0.369   3.983   4.547  0.6864 -1.4784 -1.3757
  656MOL0     H88531   0.338   3.820   4.624 -2.3083 -0.7316  2.0341
  656MOL0     H88532   0.207   4.076   4.692  3.2918  0.6580 -0.3450
  656MOL0     H88533   0.187   3.918   4.780  2.3839 -2.9775  1.4624
  656MOL0     H88534   0.356   4.088   4.878  0.9632 -0.3098  1.5986
  656MOL0     H88535   0.457   4.023   4.748  0.7565 -1.1862 -1.1156
  656MOL0     H88536   0.301   3.834   4.953 -1.2112  2.8800 -0.8062
  656MOL0     H88537   0.429   3.794   4.851  3.1188  1.8353 -1.3156
  656MOL0     H88538   0.473   4.004   5.074 -1.0573 -1.2756  0.5506
  656MOL0     H88539   0.593   3.941   4.968 -0.0324  0.0188 -1.3055
  656MOL0     H88540   0.442   3.751   5.159  1.8088 -3.3598  4.3987
  656MOL0     H88541   0.578   3.856   5.208 -1.3458  0.1268 -0.7508
  656MOL0     H88542   0.203   4.156   4.081  0.8108  0.1190 -2.4746
  656MOL0     H88543   0.319   4.167   3.874 -0.1844 -1.3418 -2.2598
  656MOL0     H88544   0.526   3.672   3.504  1.4714  0.7814 -1.6436
  656MOL0     H88545   0.654   3.683   3.304 -0.1449  0.6124  1.0179
  656MOL0     H88546   0.533   2.351   3.225  0.4403  0.4187 -0.3749
  656MOL0     H88547   0.399   2.271   3.405  0.9351 -4.7941 -2.2682
  656MOL0     H88548  -0.073   2.479   3.635  2.7621  0.1120  4.6051
  656MOL0     H88549  -0.241   2.413   3.794 -2.7714 -2.4386  0.9330
  656MOL0     H88550  -0.220   2.356   4.012  1.5828 -2.3422  0.7372
  656MOL0     H88551  -0.375   2.298   3.979 -1.4324 -3.7704  0.5679
  656MOL0     H88552  -0.170   2.186   4.178  0.4198 -0.9072 -0.0222
  656MOL0     H88553  -0.334   2.127   4.160  1.9525  0.2353 -1.0136
  656MOL0     H88554  -0.246   2.401   4.254 -0.4962  0.1267  0.9093
  656MOL0     H88555  -0.323   2.273   4.352  3.6614 -2.2240 -0.4103
  656MOL0     H88556  -0.458   2.434   4.115 -2.0514 -1.5041 -0.3970
  656MOL0     H88557  -0.479   2.462   4.300  0.5966  0.5766  0.0499
  656MOL0     H88558  -0.751   2.173   4.187 -0.5554  0.9039 -1.6119
  656MOL0     H88559  -0.102   2.013   3.765  1.2438  0.2907 -0.5640
  656MOL0     H88560   0.041   2.066   3.583  0.8415  0.4378 -0.2280
  657MOL0     O88561  10.036   7.886   6.756  0.0829 -0.8769 -0.3912
  657MOL0     C88562  10.011   8.002   6.724  1.1274  0.8537 -0.0524
  657MOL0     O88563   9.972   8.102   6.802 -0.4526  0.3199  0.9499
  657MOL0     C88564  10.018   8.106   6.928 -0.6635 -0.9596 -0.0190
  657MOL0     C88565  10.082   8.212   6.976 -0.1902  0.2896 -0.5028
  657MOL0     C88566  10.134   8.226   7.107 -0.1131  0.9394  0.0888
  657MOL0     C88567  10.119   8.126   7.198 -0.3910  0.9485  0.4817
  657MOL0     O88568  10.179   8.126   7.317  0.2358  0.4405 -0.3421
  657MOL0     C88569  10.295   8.034   7.332  1.1410 -0.0982  0.2685
  657MOL0     C88570  10.380   8.070   7.445  0.0941 -0.7924 -1.9464
  657MOL0     C88571  10.321   8.039   7.585  0.1561  0.6279  0.0531
  657MOL0     C88572  10.329   7.886   7.613  0.0207 -0.0021  0.0829
  657MOL0     C88573  10.318   7.865   7.773 -0.4067  0.2188  0.7283
  657MOL0     C88574  10.356   7.708   7.801  1.3186 -0.6732  0.4494
  657MOL0     C88575  10.483   7.660   7.729  0.6805 -0.7499 -0.3923
  657MOL0     C88576  10.548   7.530   7.786  0.7819 -0.2293 -0.7703
  657MOL0     N88577  10.604   7.554   7.925 -0.8015 -1.0735  0.2399
  657MOL0     C88578  10.696   7.651   7.950 -0.4397  0.7764  0.8195
  657MOL0     C88579  10.714   7.639   8.085  0.5816 -0.7590 -0.1321
  657MOL0     C88580  10.793   7.730   8.184 -0.5970  0.6286  0.8071
  657MOL0     C88581  10.686   7.825   8.244 -0.1841 -1.4889  0.3670
  657MOL0     C88582  10.755   7.954   8.289 -0.1510  0.1243 -0.4325
  657MOL0     C88583  10.662   8.054   8.338 -0.0634 -0.8668 -1.2822
  657MOL0     O88584  10.725   8.169   8.387 -0.6692 -0.3024  0.1220
  657MOL0     C88585  10.661   8.262   8.469  0.4244 -0.0674  0.0036
  657MOL0     C88586  10.528   8.258   8.504  1.1450 -0.8779  0.3656
  657MOL0     C88587  10.467   8.345   8.599  0.0697  0.1644 -0.3267
  657MOL0     C88588  10.322   8.324   8.629 -0.4470 -0.0267 -0.1994
  657MOL0     C88589  10.543   8.446   8.656 -0.0022 -0.5307 -0.0794
  657MOL0     C88590  10.484   8.537   8.754 -0.2108  0.3820  0.3261
  657MOL0     O88591  10.423   8.484   8.860 -0.9834 -0.1102 -0.0076
  657MOL0     C88592  10.363   8.566   8.952 -1.5571 -0.5439 -1.1962
  657MOL0     C88593  10.444   8.624   9.059 -1.3567 -0.5048  0.5544
  657MOL0     C88594  10.384   8.706   9.154  1.4494 -1.0851 -0.0623
  657MOL0     C88595  10.243   8.716   9.150  0.7545 -0.6246 -0.8162
  657MOL0     O88596  10.179   8.802   9.238  0.7030  0.1651  0.8933
  657MOL0     C88597  10.146   8.930   9.177 -0.3622 -0.0325  0.3646
  657MOL0     C88598  10.264   9.017   9.144  0.7546  0.7124  0.0440
  657MOL0     C88599  10.221   9.102   9.022  1.7583  0.5711 -0.6610
  657MOL0     C88600  10.329   9.176   8.947  0.7676  0.3977 -0.6639
  657MOL0     C88601  10.277   9.232   8.816  0.1221 -0.8567 -0.9548
  657MOL0     C88602  10.383   9.329   8.759 -0.6439 -0.1528  0.5238
  657MOL0     C88603  10.365   9.366   8.619  0.9491  0.6376  0.0070
  657MOL0     C88604  10.386   9.513   8.597  0.1150 -0.2848 -0.0404
  657MOL0    Cl88605  10.547   9.567   8.664  0.4195  0.0453  0.4150
  657MOL0     C88606  10.167   8.649   9.049  0.5317 -0.2146 -1.0641
  657MOL0     C88607  10.230   8.574   8.958  0.5646 -0.4247  1.3278
  657MOL0     O88608  10.501   8.652   8.732  0.0369  0.5670  0.0563
  657MOL0     C88609  10.676   8.449   8.620  0.2508 -0.0533 -0.1791
  657MOL0     C88610  10.736   8.364   8.526 -0.5183 -0.7987  0.4678
  657MOL0     N88611  10.631   7.534   8.119  0.3203  0.1416 -0.3649
  657MOL0     N88612  10.577   7.481   8.028 -0.1252  0.4661  1.4345
  657MOL0     C88613  10.043   8.021   7.160 -0.2994  0.2746 -0.6657
  657MOL0     C88614  10.002   8.007   7.026 -0.3999  0.6581  0.0900
  657MOL0     C88615  10.010   8.015   6.585 -0.5154  1.0931 -0.3807
  657MOL0     C88616  10.050   8.139   6.526 -0.9718  0.8365 -0.5530
  657MOL0     C88617  10.058   8.157   6.389 -0.1243 -0.9689 -1.1900
  657MOL0     C88618  10.023   8.066   6.298  0.2019 -0.6264 -0.4570
  657MOL0     O88619  10.039   8.105   6.166  0.8856 -0.6741  0.5057
  657MOL0     C88620   9.985   8.016   6.071  0.4573 -0.7200  0.5686
  657MOL0     C88621  10.110   7.948   6.003 -0.0270  0.4861 -0.4734
  657MOL0     C88622  10.066   7.869   5.871  0.1326 -0.2811 -0.1201
  657MOL0     C88623  10.176   7.865   5.771  0.2230 -0.0423  0.0742
  657MOL0     C88624  10.144   7.758   5.682 -0.4614  0.5012  0.0892
  657MOL0     C88625  10.125   7.679   5.592  0.7854  0.0332  0.2153
  657MOL0     C88626   9.973   7.945   6.358 -0.8756 -0.7325 -0.1775
  657MOL0     C88627   9.972   7.916   6.496 -0.8367 -0.2554 -0.8009
  657MOL0     H88628  10.077   8.304   6.918 -3.0319  1.1659  0.9387
  657MOL0     H88629  10.185   8.317   7.137 -0.0031  0.6261  0.8770
  657MOL0     H88630  10.261   7.931   7.344  1.7213 -0.3281 -0.0195
  657MOL0     H88631  10.347   8.036   7.236 -0.1849 -0.1854 -0.4815
  657MOL0     H88632  10.480   8.027   7.435  0.4971 -0.6821  0.8992
  657MOL0     H88633  10.392   8.178   7.437 -1.9511 -0.4189 -0.7080
  657MOL0     H88634  10.368   8.096   7.666 -3.8756  1.0817  2.3207
  657MOL0     H88635  10.214   8.061   7.583  0.1082  1.8119  4.8247
  657MOL0     H88636  10.253   7.832   7.556  0.5667  1.0015 -1.6817
  657MOL0     H88637  10.432   7.861   7.585 -0.1907  0.2336 -0.9603
  657MOL0     H88638  10.399   7.924   7.818 -0.1395  0.3263  0.1219
  657MOL0     H88639  10.220   7.893   7.812 -0.8634 -0.1044 -0.1542
  657MOL0     H88640  10.368   7.687   7.908 -2.2234 -0.1553  1.0926
  657MOL0     H88641  10.268   7.649   7.772  0.1808  0.8150  0.7194
  657MOL0     H88642  10.462   7.635   7.624  3.1412  0.4285 -1.2511
  657MOL0     H88643  10.556   7.740   7.742 -0.8154  0.3192  2.2204
  657MOL0     H88644  10.631   7.505   7.721 -0.9197  0.5618 -3.4099
  657MOL0     H88645  10.472   7.452   7.797 -1.7762  1.7906 -2.9196
  657MOL0     H88646  10.748   7.706   7.872 -0.2015  0.2790  0.6278
  657MOL0     H88647  10.868   7.686   8.251  0.4551  2.0532  0.6324
  657MOL0     H88648  10.849   7.790   8.111 -2.4599 -1.7486 -2.8219
  657MOL0     H88649  10.640   7.767   8.324  0.3850  2.0622  3.5672
  657MOL0     H88650  10.610   7.838   8.166 -0.4000  2.8403  1.0567
  657MOL0     H88651  10.815   7.992   8.206  0.1474 -1.0931 -0.7992
  657MOL0     H88652  10.819   7.943   8.377 -0.5220  2.5240  0.2098
  657MOL0     H88653  10.611   8.007   8.423  1.3198 -0.5127 -0.2212
  657MOL0     H88654  10.590   8.082   8.261  0.4322  1.6029 -0.9391
  657MOL0     H88655  10.471   8.182   8.451  0.7779 -0.4453  0.1323
  657MOL0     H88656  10.275   8.416   8.664 -1.3564 -0.1153 -1.1371
  657MOL0     H88657  10.278   8.289   8.535  1.5648 -1.5612 -0.6366
  657MOL0     H88658  10.319   8.250   8.710  1.5888  0.5896  0.5167
  657MOL0     H88659  10.550   8.604   9.052 -1.3045 -0.0791  0.0098
  657MOL0     H88660  10.432   8.763   9.232  0.6757  0.9794 -1.0321
  657MOL0     H88661  10.096   8.905   9.084  2.2085  3.4182 -2.2312
  657MOL0     H88662  10.077   9.001   9.224 -0.3479  2.4608 -2.9967
  657MOL0     H88663  10.296   9.088   9.221 -2.7877  1.1913  1.2813
  657MOL0     H88664  10.353   8.962   9.112 -0.2155 -2.2916  2.0594
  657MOL0     H88665  10.149   9.170   9.067 -0.7262 -2.9829  1.2826
  657MOL0     H88666  10.164   9.044   8.949  1.0522 -0.1037  0.4008
  657MOL0     H88667  10.359   9.263   9.006 -3.4667  0.9764  1.0418
  657MOL0     H88668  10.404   9.098   8.933  0.6102 -0.2317  1.5894
  657MOL0     H88669  10.186   9.291   8.831 -0.7726 -2.3634 -0.3008
  657MOL0     H88670  10.250   9.157   8.741 -0.1291 -1.1940 -0.5342
  657MOL0     H88671  10.391   9.412   8.830  2.3349 -3.0220  3.9441
  657MOL0     H88672  10.480   9.279   8.753 -0.8794 -0.5491 -0.0921
  657MOL0     H88673  10.265   9.331   8.592  1.8098 -0.7318 -1.5922
  657MOL0     H88674  10.435   9.322   8.549 -0.2712  2.1693 -2.3280
  657MOL0     H88675  10.312   9.567   8.658  1.0171  2.2632 -1.0639
  657MOL0     H88676  10.380   9.527   8.488  0.3009 -2.8033 -0.4354
  657MOL0     H88677  10.059   8.658   9.042  0.5319 -0.8035 -1.9603
  657MOL0     H88678  10.177   8.528   8.875 -2.8473  3.4175  1.0787
  657MOL0     H88679  10.737   8.531   8.657 -1.9272  1.4578  0.2376
  657MOL0     H88680  10.836   8.391   8.493 -1.3272  1.7506 -0.1096
  657MOL0     H88681  10.022   7.945   7.235  2.1565  1.0547  0.9351
  657MOL0     H88682   9.964   7.911   6.996 -0.1350  0.8846 -1.0044
  657MOL0     H88683  10.068   8.221   6.594 -0.8587 -0.9618  1.7246
  657MOL0     H88684  10.084   8.255   6.350  0.0554  0.6384  2.5194
  657MOL0     H88685   9.903   7.951   6.103 -1.1309  1.9048  2.2194
  657MOL0     H88686   9.933   8.071   5.991  2.5951  1.0420  0.3200
  657MOL0     H88687  10.145   7.879   6.080 -2.0280  1.5214  1.4671
  657MOL0     H88688  10.191   8.020   5.983 -0.9503  1.2051 -1.7634
  657MOL0     H88689   9.975   7.916   5.831 -0.7435 -0.7934  1.2001
  657MOL0     H88690  10.037   7.770   5.908  1.9327 -0.6264  0.4986
  657MOL0     H88691  10.267   7.844   5.828  1.9443 -0.7971 -2.7179
  657MOL0     H88692  10.178   7.953   5.707 -2.8013  0.2516  0.2507
  657MOL0     H88693  10.094   7.605   5.521 -2.2649  2.3135 -1.0554
  657MOL0     H88694   9.941   7.856   6.304  1.8340 -4.4683  3.6540
  657MOL0     H88695   9.938   7.821   6.536 -1.2959  0.9325  1.8437
  658MOL0     O88696   1.615   6.511   1.052  0.3808  0.3033  0.7157
  658MOL0     C88697   1.628   6.449   1.151  0.2342 -0.7080 -0.7935
  658MOL0     O88698   1.538   6.439   1.256 -0.1279 -1.1644  0.4150
  658MOL0     C88699   1.411   6.490   1.257  0.8542 -0.4782 -0.7687
  658MOL0     C88700   1.325   6.491   1.147 -0.0967 -0.0367 -0.1726
  658MOL0     C88701   1.194   6.530   1.154 -0.2386 -0.5350 -0.5954
  658MOL0     C88702   1.138   6.582   1.267  0.4612  0.4663  0.4484
  658MOL0     O88703   1.006   6.626   1.272 -0.0458  1.5388 -0.2610
  658MOL0     C88704   0.943   6.663   1.397  0.9502 -0.8419 -0.3284
  658MOL0     C88705   0.786   6.672   1.365 -0.6700 -0.5033  0.0515
  658MOL0     C88706   0.702   6.691   1.485 -0.2950  1.0278  0.9777
  658MOL0     C88707   0.562   6.680   1.419  0.4970  0.2337 -0.7441
  658MOL0     C88708   0.445   6.703   1.524 -0.7936 -0.1247  0.0883
  658MOL0     C88709   0.326   6.775   1.469 -0.0963 -0.7449  0.2011
  658MOL0     C88710   0.235   6.790   1.591 -0.8228 -0.5915  0.5638
  658MOL0     C88711   0.174   6.657   1.649 -0.3139 -0.5159  1.3357
  658MOL0     N88712   0.062   6.690   1.743  0.0748 -0.0829 -0.3356
  658MOL0     C88713   0.043   6.812   1.816  0.4403  0.6190 -0.3204
  658MOL0     C88714  -0.049   6.775   1.911  0.1554  0.0469 -0.1142
  658MOL0     C88715  -0.097   6.851   2.027 -0.0044  0.6471 -0.0552
  658MOL0     C88716  -0.096   7.008   2.010  1.4923  0.3986 -0.6315
  658MOL0     C88717   0.015   7.074   2.089 -0.0384 -0.4306 -0.2298
  658MOL0     C88718   0.160   7.073   2.028  0.3421  1.2902 -0.4634
  658MOL0     O88719   0.218   6.946   2.010 -0.2571 -0.2840 -0.1521
  658MOL0     C88720   0.344   6.947   1.950  1.1346  1.3579 -0.4998
  658MOL0     C88721   0.402   6.831   1.922 -0.5646  0.5798  0.3284
  658MOL0     C88722   0.537   6.812   1.874  0.1342  0.0850 -0.6860
  658MOL0     C88723   0.598   6.674   1.867  0.4768 -0.2440 -0.3341
  658MOL0     C88724   0.611   6.933   1.853  0.3684  1.2643  0.4840
  658MOL0     C88725   0.757   6.923   1.830  0.6924 -0.3947  0.4685
  658MOL0     O88726   0.831   7.032   1.864  0.7016 -0.0395 -0.8840
  658MOL0     C88727   0.964   7.012   1.885 -0.4413 -0.8385 -0.1013
  658MOL0     C88728   1.047   6.944   1.797  0.3129  0.5968  0.0304
  658MOL0     C88729   1.186   6.937   1.820 -1.0198  0.9619  0.4508
  658MOL0     C88730   1.243   7.003   1.929 -0.1743  0.1283 -0.7676
  658MOL0     O88731   1.375   7.000   1.978  0.9163  0.0499 -0.1062
  658MOL0     C88732   1.472   6.915   1.919 -0.3144  0.6125  0.2635
  658MOL0     C88733   1.593   6.881   2.002 -0.5394  0.4721 -0.4177
  658MOL0     C88734   1.687   7.006   2.018 -0.0500 -0.4024 -0.5568
  658MOL0     C88735   1.825   6.967   2.081  0.3175  0.0046 -0.4497
  658MOL0     C88736   1.922   7.079   2.072 -0.2464  0.0634 -0.5257
  658MOL0     C88737   1.898   7.194   2.168 -0.2122  0.2995  0.3648
  658MOL0     C88738   2.010   7.290   2.183 -0.3338 -0.2076  0.4868
  658MOL0     C88739   1.969   7.414   2.259 -0.1980 -0.5385 -1.3846
  658MOL0    Cl88740   1.998   7.373   2.435 -0.2725 -0.0725 -0.2408
  658MOL0     C88741   1.162   7.064   2.026  0.6007 -0.5962  0.1365
  658MOL0     C88742   1.018   7.069   1.999 -0.2143 -0.5107 -0.1278
  658MOL0     O88743   0.801   6.823   1.768 -0.3289 -0.1885  0.4722
  658MOL0     C88744   0.547   7.056   1.878 -0.5496  0.1477 -0.4439
  658MOL0     C88745   0.416   7.061   1.919 -0.0385 -0.6618 -0.4162
  658MOL0     N88746  -0.081   6.635   1.886  0.1749  0.9022 -0.3329
  658MOL0     N88747  -0.019   6.593   1.786 -0.3661  0.0583  0.3335
  658MOL0     C88748   1.215   6.575   1.387  0.4634 -0.7571  0.5809
  658MOL0     C88749   1.355   6.537   1.383 -0.0101  0.2165  0.1071
  658MOL0     C88750   1.757   6.386   1.165  0.6544 -1.0480 -0.2641
  658MOL0     C88751   1.776   6.279   1.257  0.0676  0.4109  0.3387
  658MOL0     C88752   1.884   6.193   1.243  0.4486  0.1987  0.8571
  658MOL0     C88753   1.990   6.209   1.152 -0.2560  0.3690  0.8729
  658MOL0     O88754   2.102   6.139   1.131  0.3523  0.7404 -0.4587
  658MOL0     C88755   2.131   6.033   1.226 -0.7163  1.1774 -0.2939
  658MOL0     C88756   2.184   6.083   1.360 -0.9188 -1.5416 -0.9070
  658MOL0     C88757   2.220   5.976   1.461 -0.2243  0.5764  0.1161
  658MOL0     C88758   2.333   5.889   1.408  0.2832  0.2423 -0.6791
  658MOL0     C88759   2.298   5.758   1.350 -0.7606  1.0933  0.7030
  658MOL0     C88760   2.266   5.643   1.316 -0.0646  0.2287  0.6845
  658MOL0     C88761   1.983   6.324   1.068  0.1338 -0.2238 -0.2194
  658MOL0     C88762   1.867   6.404   1.075 -0.2223  0.2282  0.0478
  658MOL0     H88763   1.350   6.470   1.043  2.0711  2.6529 -0.3077
  658MOL0     H88764   1.135   6.536   1.063 -3.1902 -0.1910  1.2210
  658MOL0     H88765   0.946   6.590   1.479 -0.1843  0.9243  1.3445
  658MOL0     H88766   0.973   6.761   1.433 -1.9132  0.2745 -0.7219
  658MOL0     H88767   0.770   6.748   1.288  2.6005 -0.7708 -1.0090
  658MOL0     H88768   0.759   6.571   1.333  0.4098 -0.9816  0.6038
  658MOL0     H88769   0.723   6.616   1.562 -4.4314 -0.7803  0.5626
  658MOL0     H88770   0.727   6.794   1.513 -0.6823  2.0229 -2.0116
  658MOL0     H88771   0.558   6.754   1.338  2.4900  0.5479 -0.6036
  658MOL0     H88772   0.546   6.577   1.388 -2.5201 -0.3316  2.0690
  658MOL0     H88773   0.419   6.605   1.566  0.6988 -0.7615 -0.4257
  658MOL0     H88774   0.478   6.770   1.604 -1.5258  1.2580 -0.7342
  658MOL0     H88775   0.361   6.874   1.438  3.3486 -2.1575 -0.9690
  658MOL0     H88776   0.283   6.723   1.383  0.3095  1.5773 -1.4990
  658MOL0     H88777   0.288   6.861   1.655 -1.1957  1.8270 -1.6093
  658MOL0     H88778   0.148   6.847   1.557 -1.3313 -2.3728 -1.3206
  658MOL0     H88779   0.252   6.594   1.691  0.1584 -0.2539  0.8543
  658MOL0     H88780   0.124   6.614   1.561 -1.4817  1.3338  1.0324
  658MOL0     H88781   0.089   6.910   1.805  0.0993  0.6866 -1.2182
  658MOL0     H88782  -0.203   6.834   2.048  0.3732 -1.7505  0.2066
  658MOL0     H88783  -0.033   6.808   2.105 -1.6935  0.5233  1.3470
  658MOL0     H88784  -0.186   7.048   2.056  0.6687  0.5038 -2.2708
  658MOL0     H88785  -0.091   7.037   1.904  1.3921 -3.2309 -1.7547
  658MOL0     H88786   0.022   7.023   2.185  1.2491 -2.5452 -1.3819
  658MOL0     H88787  -0.010   7.180   2.101 -1.8076 -0.9900  1.7292
  658MOL0     H88788   0.221   7.121   2.106  1.3230  0.5504 -0.7499
  658MOL0     H88789   0.165   7.128   1.934 -1.0214  0.7485 -0.8780
  658MOL0     H88790   0.345   6.740   1.938  1.8691 -1.0195  0.4269
  658MOL0     H88791   0.605   6.630   1.767 -0.9314 -0.3337 -0.4117
  658MOL0     H88792   0.690   6.656   1.923  0.4348  2.2704  0.6516
  658MOL0     H88793   0.529   6.616   1.929 -1.0054 -0.2670 -1.9354
  658MOL0     H88794   1.019   6.896   1.704 -0.5984  0.5480  0.3262
  658MOL0     H88795   1.254   6.883   1.755  0.5537  2.5934  0.6611
  658MOL0     H88796   1.427   6.817   1.901  2.0668 -0.8700  1.7384
  658MOL0     H88797   1.511   6.958   1.826  4.1374 -5.6823 -1.5110
  658MOL0     H88798   1.547   6.847   2.096 -2.7131 -2.8678 -2.4917
  658MOL0     H88799   1.653   6.793   1.977  2.8211  2.1888  0.9873
  658MOL0     H88800   1.647   7.090   2.075  2.9038  1.3194 -0.8038
  658MOL0     H88801   1.713   7.036   1.916 -0.5528 -0.7605 -0.7930
  658MOL0     H88802   1.804   6.936   2.183 -2.1840  3.8274  0.4391
  658MOL0     H88803   1.864   6.879   2.029  0.3337 -0.4287  0.2834
  658MOL0     H88804   1.953   7.123   1.976 -1.8322  0.6231 -0.8062
  658MOL0     H88805   2.012   7.031   2.112 -0.2348  1.2962  1.0525
  658MOL0     H88806   1.810   7.252   2.138 -2.5236 -3.5522 -1.0841
  658MOL0     H88807   1.880   7.163   2.271 -2.0306  2.2975  0.7296
  658MOL0     H88808   2.050   7.311   2.083 -2.3889  0.3260 -0.2699
  658MOL0     H88809   2.094   7.238   2.231  1.4982  2.1422  0.0535
  658MOL0     H88810   1.867   7.445   2.236 -0.3665 -0.6456 -0.7917
  658MOL0     H88811   2.026   7.503   2.229  0.2926 -0.8993 -1.5471
  658MOL0     H88812   1.204   7.110   2.114 -3.8198  0.7223  1.8308
  658MOL0     H88813   0.953   7.127   2.065 -0.0699 -1.4684  0.8916
  658MOL0     H88814   0.617   7.139   1.872 -1.1010  0.6136 -0.4257
  658MOL0     H88815   0.376   7.160   1.938 -1.2396 -0.4860 -3.2882
  658MOL0     H88816   1.193   6.603   1.489  3.5059 -2.1771  1.7628
  658MOL0     H88817   1.416   6.536   1.473 -0.3769 -0.9498  0.3516
  658MOL0     H88818   1.714   6.262   1.345  2.7948 -0.9041  2.1517
  658MOL0     H88819   1.880   6.107   1.310 -0.8163 -0.8171 -0.4552
  658MOL0     H88820   2.045   5.970   1.252 -0.6142  2.0527  2.5438
  658MOL0     H88821   2.206   5.960   1.194 -0.8863 -1.9271  5.0463
  658MOL0     H88822   2.112   6.148   1.411 -1.2488 -1.4637 -1.4668
  658MOL0     H88823   2.279   6.131   1.339  0.5235 -2.2171  3.1329
  658MOL0     H88824   2.133   5.911   1.478 -0.8742  1.0750 -1.1367
  658MOL0     H88825   2.266   6.032   1.542  4.9202  0.5569 -2.3886
  658MOL0     H88826   2.398   5.864   1.492 -1.9741 -0.8868  0.8366
  658MOL0     H88827   2.388   5.946   1.333 -3.3161 -0.6832 -4.4169
  658MOL0     H88828   2.243   5.542   1.287  0.6196 -0.0976  1.2849
  658MOL0     H88829   2.067   6.364   1.012  0.5385  0.4299  0.8253
  658MOL0     H88830   1.866   6.495   1.015 -0.9525  0.5018  0.4641
  659MOL0     O88831   9.851   8.375   0.816 -0.7928  0.0355  0.3387
  659MOL0     C88832   9.957   8.426   0.795  0.1846 -1.0059  0.7953
  659MOL0     O88833  10.065   8.444   0.883 -0.4730 -0.0434  0.0718
  659MOL0     C88834  10.089   8.378   1.006 -0.4631 -0.4299 -0.2761
  659MOL0     C88835  10.004   8.288   1.072 -0.2039 -0.1482 -0.3030
  659MOL0     C88836  10.033   8.242   1.203 -0.5844 -0.2648  0.0380
  659MOL0     C88837  10.153   8.276   1.271  0.3748  0.8298  0.2259
  659MOL0     O88838  10.176   8.222   1.400 -0.3851 -0.3285  0.0245
  659MOL0     C88839  10.271   8.272   1.493 -0.0686  0.1889 -0.2113
  659MOL0     C88840  10.231   8.405   1.561 -0.4370 -0.7081  0.3714
  659MOL0     C88841  10.335   8.471   1.657  1.4785  0.7125 -0.1431
  659MOL0     C88842  10.450   8.519   1.578  0.3374  0.0915  0.3489
  659MOL0     C88843  10.538   8.605   1.660 -0.0854  0.0348 -0.0808
  659MOL0     C88844  10.686   8.608   1.606  0.0405  0.2243 -0.5421
  659MOL0     C88845  10.779   8.671   1.701  0.7602  0.2649  0.6758
  659MOL0     C88846  10.791   8.825   1.689 -0.6264  0.0169  0.2100
  659MOL0     N88847  10.675   8.881   1.754 -0.2449  0.3432  0.0744
  659MOL0     C88848  10.613   8.846   1.877 -0.7670 -0.1976 -0.1089
  659MOL0     C88849  10.513   8.942   1.889 -0.9537  0.2155 -0.5743
  659MOL0     C88850  10.423   8.962   2.011 -0.1905 -0.0099 -0.3825
  659MOL0     C88851  10.280   8.917   1.969 -0.1723  0.9939  0.2426
  659MOL0     C88852  10.276   8.764   1.964 -1.3792 -0.8058  0.1302
  659MOL0     C88853  10.141   8.700   1.944  0.4273 -0.2747  0.1977
  659MOL0     O88854  10.145   8.561   1.980 -0.3080  0.8668  0.2099
  659MOL0     C88855  10.162   8.514   2.109  0.7109  0.2572 -0.1737
  659MOL0     C88856  10.131   8.572   2.226  0.0369  0.0941 -0.4560
  659MOL0     C88857  10.145   8.498   2.356  0.3506  0.3913  0.7370
  659MOL0     C88858  10.118   8.586   2.468 -0.6700 -0.3313  0.3486
  659MOL0     C88859  10.193   8.365   2.353 -0.4650 -0.7418  0.5350
  659MOL0     C88860  10.206   8.285   2.481 -0.0135  0.7151  0.8912
  659MOL0     O88861  10.196   8.350   2.603 -0.0873 -0.1048 -0.4467
  659MOL0     C88862  10.249   8.270   2.706 -0.1354 -0.1050  0.5174
  659MOL0     C88863  10.155   8.180   2.766  0.3401  0.7128 -0.1790
  659MOL0     C88864  10.203   8.093   2.866 -0.4325  0.3000 -0.3482
  659MOL0     C88865  10.348   8.095   2.900  0.0072 -0.2332  0.6242
  659MOL0     O88866  10.385   7.999   2.985 -0.1083 -0.4452  0.5220
  659MOL0     C88867  10.506   8.028   3.051  0.4445 -0.4314 -0.5776
  659MOL0     C88868  10.543   7.910   3.131 -0.1778 -0.4798 -0.7545
  659MOL0     C88869  10.588   7.789   3.060 -0.0685  0.2489 -0.5950
  659MOL0     C88870  10.597   7.667   3.152  0.3197 -0.5228 -0.1402
  659MOL0     C88871  10.706   7.565   3.108  0.1285 -0.6768  0.3910
  659MOL0     C88872  10.677   7.480   2.990  0.1077  0.2451  0.6656
  659MOL0     C88873  10.794   7.378   2.955  0.4387 -0.3483 -0.1053
  659MOL0     C88874  10.748   7.289   2.839 -0.4561  1.0282  0.1721
  659MOL0    Cl88875  10.699   7.130   2.916 -0.3002 -0.4433 -0.3289
  659MOL0     C88876  10.434   8.195   2.839  0.4495  0.1973 -0.9165
  659MOL0     C88877  10.378   8.276   2.750 -0.2140  0.4553 -0.1346
  659MOL0     O88878  10.219   8.165   2.462  0.0103  0.1190  0.3455
  659MOL0     C88879  10.230   8.319   2.228  0.7468 -0.4149 -0.4664
  659MOL0     C88880  10.220   8.390   2.111 -0.9424  0.9667 -0.3921
  659MOL0     N88881  10.505   9.010   1.773  0.3805  0.0724  0.4782
  659MOL0     N88882  10.599   8.974   1.688 -0.1613 -1.2892  0.0767
  659MOL0     C88883  10.239   8.360   1.205 -0.2976 -0.9120 -0.3410
  659MOL0     C88884  10.207   8.412   1.080 -0.2174  0.5973  0.5480
  659MOL0     C88885   9.967   8.486   0.659 -0.3848  0.4128  0.4715
  659MOL0     C88886  10.098   8.478   0.599  0.8417 -0.2834  0.7466
  659MOL0     C88887  10.116   8.523   0.471 -0.5213  0.2053 -0.7222
  659MOL0     C88888  10.010   8.580   0.405 -1.1268 -0.4648 -0.5598
  659MOL0     O88889  10.030   8.642   0.282 -0.2130  0.6010 -0.1693
  659MOL0     C88890  10.140   8.602   0.207  0.4428  0.3287 -0.3330
  659MOL0     C88891  10.258   8.695   0.230 -0.0610 -0.7066  0.1151
  659MOL0     C88892  10.370   8.681   0.123 -0.0798 -0.8473 -0.1944
  659MOL0     C88893  10.427   8.535   0.107 -0.2921  0.0920 -0.3235
  659MOL0     C88894  10.491   8.472   0.225 -0.4952  0.8862  0.3105
  659MOL0     C88895  10.536   8.425   0.336  0.4903  0.1101 -0.5472
  659MOL0     C88896   9.885   8.586   0.461  0.4282  0.0585 -0.6200
  659MOL0     C88897   9.865   8.545   0.590 -0.0238  0.1138 -0.0920
  659MOL0     H88898   9.911   8.255   1.026  0.4728 -0.7836 -1.2587
  659MOL0     H88899   9.970   8.178   1.263  1.1341 -0.8056  1.3327
  659MOL0     H88900  10.290   8.194   1.568 -1.2636 -0.2424 -0.3405
  659MOL0     H88901  10.364   8.288   1.438 -1.5128  0.3189 -2.7249
  659MOL0     H88902  10.210   8.481   1.486  0.1596 -2.8658 -2.1227
  659MOL0     H88903  10.148   8.380   1.628 -3.0394 -0.1734 -2.4560
  659MOL0     H88904  10.288   8.560   1.700  0.0339 -1.4436  3.2032
  659MOL0     H88905  10.355   8.398   1.736  0.0428  0.2463 -0.1908
  659MOL0     H88906  10.496   8.432   1.529 -5.1753 -2.1072 -1.6873
  659MOL0     H88907  10.413   8.589   1.502  3.0383  2.3828  0.9677
  659MOL0     H88908  10.499   8.707   1.659  5.3772  2.5680  2.6560
  659MOL0     H88909  10.536   8.589   1.768  1.5603  1.7821  0.2625
  659MOL0     H88910  10.720   8.507   1.585  2.4088  1.2372 -2.0552
  659MOL0     H88911  10.688   8.649   1.504 -2.6332 -2.1740 -1.7056
  659MOL0     H88912  10.760   8.647   1.806  2.4718  0.0492  0.9660
  659MOL0     H88913  10.872   8.617   1.682  0.5335  0.0502  0.1399
  659MOL0     H88914  10.797   8.860   1.585 -2.2153 -1.4837 -0.4375
  659MOL0     H88915  10.869   8.859   1.757  0.0139  0.3207 -0.6464
  659MOL0     H88916  10.659   8.784   1.952 -4.6009 -1.5117  1.4209
  659MOL0     H88917  10.463   8.920   2.104  0.1768  1.4579  0.1489
  659MOL0     H88918  10.421   9.070   2.027  0.8293  0.0084 -0.2946
  659MOL0     H88919  10.254   8.957   1.871  1.1405 -0.2299 -0.6462
  659MOL0     H88920  10.216   8.946   2.053 -1.1609 -1.5254  0.4365
  659MOL0     H88921  10.309   8.726   2.061 -3.5178  0.2903  1.3573
  659MOL0     H88922  10.343   8.736   1.882  4.0047 -1.6255  4.2880
  659MOL0     H88923  10.087   8.696   1.849 -1.3401 -2.1051  1.1857
  659MOL0     H88924  10.080   8.753   2.018  0.7883 -0.2891  0.5090
  659MOL0     H88925  10.113   8.679   2.221 -0.0999  0.0665 -0.5553
  659MOL0     H88926  10.069   8.681   2.443  0.6727  0.1676 -0.4935
  659MOL0     H88927  10.042   8.542   2.534 -1.3118  1.2137  0.6896
  659MOL0     H88928  10.213   8.621   2.510  1.7736 -4.0987 -1.5151
  659MOL0     H88929  10.051   8.183   2.736  0.3273  1.3397 -0.0763
  659MOL0     H88930  10.137   8.027   2.922  1.4273  1.4922  3.6538
  659MOL0     H88931  10.589   8.046   2.983  0.4666 -4.1990 -1.7410
  659MOL0     H88932  10.505   8.121   3.109 -0.4170  1.7264 -3.8342
  659MOL0     H88933  10.621   7.947   3.198  0.7527 -0.2032 -1.9518
  659MOL0     H88934  10.457   7.882   3.193  0.0173 -3.9192 -1.8256
  659MOL0     H88935  10.690   7.804   3.021  0.0441  0.7317 -0.1208
  659MOL0     H88936  10.522   7.763   2.977  1.6584 -1.8107 -1.4113
  659MOL0     H88937  10.625   7.707   3.249 -2.3005  0.5781  0.2445
  659MOL0     H88938  10.496   7.627   3.156  0.4029 -1.0073 -1.8339
  659MOL0     H88939  10.743   7.502   3.189 -0.7322  0.0646  1.3878
  659MOL0     H88940  10.802   7.613   3.085  0.1128 -0.6984  0.2782
  659MOL0     H88941  10.590   7.415   3.007  1.5383 -1.5694  1.3539
  659MOL0     H88942  10.666   7.551   2.908  1.3170  2.7666  2.5525
  659MOL0     H88943  10.820   7.318   3.043 -1.7805 -3.7361 -1.5650
  659MOL0     H88944  10.878   7.442   2.926 -0.3899  0.0040 -1.8744
  659MOL0     H88945  10.825   7.268   2.764 -1.4015  0.1079 -0.5758
  659MOL0     H88946  10.649   7.319   2.804 -0.9657  0.1181  0.7822
  659MOL0     H88947  10.542   8.207   2.848  0.7737 -0.7495 -3.0869
  659MOL0     H88948  10.448   8.355   2.723  1.2089 -0.8633 -0.4562
  659MOL0     H88949  10.257   8.214   2.223 -1.2032 -0.9786 -0.1446
  659MOL0     H88950  10.260   8.352   2.017  0.2844 -0.0837  0.5073
  659MOL0     H88951  10.334   8.375   1.256  0.4535 -0.4250 -1.8208
  659MOL0     H88952  10.294   8.468   1.047 -1.1286  2.0889  0.6087
  659MOL0     H88953  10.178   8.441   0.661  2.0047 -1.9537 -1.6092
  659MOL0     H88954  10.220   8.511   0.441 -0.8784 -0.9035 -1.5419
  659MOL0     H88955  10.163   8.495   0.215  2.5746  0.8339  0.9567
  659MOL0     H88956  10.129   8.626   0.101  1.6555  0.8314 -0.3629
  659MOL0     H88957  10.297   8.689   0.332  0.3805 -2.8644 -0.1380
  659MOL0     H88958  10.220   8.796   0.208 -0.1840 -1.0160 -1.1849
  659MOL0     H88959  10.451   8.741   0.164  2.1969 -4.9005  1.8127
  659MOL0     H88960  10.323   8.715   0.030 -0.6849 -1.7220 -0.2222
  659MOL0     H88961  10.507   8.524   0.034 -3.2342 -0.1287 -3.8033
  659MOL0     H88962  10.341   8.470   0.088 -0.8505  0.4733  0.7710
  659MOL0     H88963  10.575   8.385   0.427  1.3682 -0.6137 -1.2238
  659MOL0     H88964   9.810   8.633   0.398  1.2336  5.1228  1.7560
  659MOL0     H88965   9.773   8.548   0.646 -0.2676  2.0283 -0.5445
  660MOL0     O88966  10.408   7.623  10.147  0.1008  0.2119  0.4122
  660MOL0     C88967  10.429   7.502  10.132 -0.6021 -0.9373  0.8534
  660MOL0     O88968  10.550   7.447  10.116 -0.5676 -1.2546  0.3658
  660MOL0     C88969  10.664   7.522  10.126 -1.4568  0.4562  0.3749
  660MOL0     C88970  10.737   7.535  10.249  0.0723  0.8955 -0.3056
  660MOL0     C88971  10.863   7.597  10.252 -1.7453 -0.0719  0.8845
  660MOL0     C88972  10.918   7.652  10.134 -0.5579 -0.1932  0.0899
  660MOL0     O88973  11.046   7.707  10.160  0.0899 -0.1415  0.0620
  660MOL0     C88974  11.132   7.745  10.053  0.7310 -0.9755  0.2922
  660MOL0     C88975  11.198   7.883  10.098 -0.2946  0.0419 -0.2994
  660MOL0     C88976  11.091   7.996  10.084 -0.4835 -0.6856 -0.1427
  660MOL0     C88977  11.133   8.140  10.130  0.5391  0.6528  0.9113
  660MOL0     C88978  11.235   8.220  10.042  0.0193  0.1617 -0.3113
  660MOL0     C88979  11.237   8.360  10.100 -0.4824 -0.5118 -0.4456
  660MOL0     C88980  11.292   8.472  10.014  0.5718 -0.8714 -1.1555
  660MOL0     C88981  11.280   8.605  10.095 -0.3749  1.1091 -0.2312
  660MOL0     N88982  11.328   8.712  10.017 -0.4151 -0.1097  0.2685
  660MOL0     C88983  11.460   8.749   9.987  0.4447  0.1393  0.0655
  660MOL0     C88984  11.452   8.868   9.925 -0.3789 -0.9111 -1.1694
  660MOL0     C88985  11.564   8.954   9.870 -0.6653 -0.2257 -0.0567
  660MOL0     C88986  11.636   9.025   9.988 -0.1819  0.8354 -0.4901
  660MOL0     C88987  11.705   9.162   9.942  0.7060 -0.1296 -0.7718
  660MOL0     C88988  11.803   9.151   9.827 -0.0452 -0.0707 -0.5145
  660MOL0     O88989  11.867   9.020   9.842  0.3450 -0.6017 -0.5265
  660MOL0     C88990  11.957   8.991   9.944  0.4246 -0.2254 -0.9055
  660MOL0     C88991  12.029   8.871   9.922  0.0857 -0.2967  0.1444
  660MOL0     C88992  12.119   8.824  10.020  0.2597 -0.1641  0.1249
  660MOL0     C88993  12.193   8.696   9.989  0.1696 -0.1160  0.4515
  660MOL0     C88994  12.128   8.891  10.144 -0.3732 -0.0289 -0.1412
  660MOL0     C88995  12.199   8.838  10.272 -0.2071  0.5699  0.3111
  660MOL0     O88996  12.204   8.919  10.371 -0.6986  0.2265  0.3192
  660MOL0     C88997  12.168   8.877  10.495  0.0504 -0.5572 -0.1075
  660MOL0     C88998  12.199   8.960  10.602 -0.4301 -0.5283  0.4773
  660MOL0     C88999  12.181   8.921  10.736  0.1818  0.7749 -0.3381
  660MOL0     C89000  12.126   8.790  10.762  0.2515  0.1400  0.8673
  660MOL0     O89001  12.104   8.736  10.882  0.4218 -1.0767  0.3803
  660MOL0     C89002  12.172   8.611  10.913  0.5773  0.8085  0.1479
  660MOL0     C89003  12.093   8.530  11.014  0.0689 -0.1316  0.2130
  660MOL0     C89004  11.976   8.439  10.969 -0.7791 -0.1771  0.3804
  660MOL0     C89005  11.944   8.328  11.069 -0.1364 -0.5535  0.2743
  660MOL0     C89006  11.839   8.233  11.014  0.2675  0.4738  0.1947
  660MOL0     C89007  11.819   8.112  11.104  0.0286  0.4048  0.6661
  660MOL0     C89008  11.702   8.017  11.039  0.2000  0.0495  0.1365
  660MOL0     C89009  11.654   7.903  11.134 -0.6789 -0.2723  0.7439
  660MOL0    Cl89010  11.512   7.822  11.055  0.1855  0.0073 -0.2931
  660MOL0     C89011  12.076   8.720  10.655  0.3518  0.1579  0.0362
  660MOL0     C89012  12.100   8.757  10.527 -0.6914 -0.2118  0.4587
  660MOL0     O89013  12.257   8.726  10.267  1.1030 -0.1844  0.5590
  660MOL0     C89014  12.059   9.011  10.155  0.2725 -0.8540  0.0889
  660MOL0     C89015  11.980   9.065  10.054 -0.3038 -0.1299 -0.3352
  660MOL0     N89016  11.314   8.893   9.902  0.7569 -0.1405  0.4973
  660MOL0     N89017  11.239   8.803   9.967  0.3729 -0.6874 -0.3255
  660MOL0     C89018  10.835   7.658  10.018 -0.1930 -0.4808 -0.7904
  660MOL0     C89019  10.714   7.590  10.013 -0.0102 -0.4059 -0.5169
  660MOL0     C89020  10.310   7.421  10.120  0.2362  0.3419 -1.0026
  660MOL0     C89021  10.184   7.483  10.142  0.1960  0.0903  1.3359
  660MOL0     C89022  10.062   7.399  10.153 -0.6846 -0.4994 -0.1844
  660MOL0     C89023  10.066   7.260  10.144 -0.2251 -0.1289 -0.0244
  660MOL0     O89024   9.952   7.188  10.170 -0.1246 -0.2844 -0.4883
  660MOL0     C89025   9.954   7.053  10.137  0.2971 -0.0754  0.1728
  660MOL0     C89026   9.903   7.024   9.982 -0.7533 -0.7894 -1.4997
  660MOL0     C89027   9.772   7.082   9.960  0.5902  0.3752 -0.0724
  660MOL0     C89028   9.720   7.041   9.823 -0.0237  1.0215 -0.2115
  660MOL0     C89029   9.579   7.090   9.805 -0.1157 -0.4423  0.9174
  660MOL0     C89030   9.469   7.122   9.771  0.4158  0.0645 -0.3550
  660MOL0     C89031  10.200   7.199  10.121 -0.0156 -0.2064  0.2270
  660MOL0     C89032  10.314   7.278  10.105  0.5375 -0.1011 -0.3559
  660MOL0     H89033  10.693   7.493  10.339  2.7376  1.1850  1.2391
  660MOL0     H89034  10.914   7.625  10.343 -0.6988  0.5442  0.1236
  660MOL0     H89035  11.216   7.676  10.041  1.9202  0.3949  0.4434
  660MOL0     H89036  11.087   7.762   9.954 -4.4311 -0.5011  2.4036
  660MOL0     H89037  11.238   7.876  10.199 -2.2416  0.7724  0.5632
  660MOL0     H89038  11.280   7.909  10.030  0.4021  3.3177  1.5964
  660MOL0     H89039  11.076   8.009   9.976  1.7809  4.3911 -0.1549
  660MOL0     H89040  10.999   7.966  10.133 -2.0894  2.6041 -0.8640
  660MOL0     H89041  11.040   8.195  10.143 -0.0568 -0.1452  0.1741
  660MOL0     H89042  11.166   8.120  10.232 -1.5200 -1.5542  1.2462
  660MOL0     H89043  11.340   8.189  10.047  0.3559  1.3807  1.2016
  660MOL0     H89044  11.202   8.208   9.939  0.4365 -0.3354 -0.3885
  660MOL0     H89045  11.132   8.388  10.114 -0.0184  0.2857  1.8401
  660MOL0     H89046  11.274   8.346  10.202  1.9320 -0.1382 -1.1946
  660MOL0     H89047  11.393   8.453   9.976  0.5927  2.1019 -2.9113
  660MOL0     H89048  11.229   8.489   9.926 -2.0925 -3.9233  0.0063
  660MOL0     H89049  11.326   8.586  10.192  1.8901 -3.2945 -1.8602
  660MOL0     H89050  11.173   8.619  10.113 -1.0255 -0.5390 -2.4165
  660MOL0     H89051  11.551   8.692  10.002  0.6243  0.2112 -0.6925
  660MOL0     H89052  11.638   8.889   9.822  0.8467  0.0718  1.7381
  660MOL0     H89053  11.527   9.031   9.802 -0.8145 -0.9812 -0.8466
  660MOL0     H89054  11.708   8.959  10.039  0.6350  3.4205  1.9247
  660MOL0     H89055  11.557   9.052  10.059 -1.6668 -0.9253 -1.3704
  660MOL0     H89056  11.754   9.208  10.028 -0.5465 -1.4271  0.6882
  660MOL0     H89057  11.624   9.229   9.910 -0.0172 -1.4984 -1.9195
  660MOL0     H89058  11.865   9.240   9.842 -1.8316  0.8551  2.4040
  660MOL0     H89059  11.754   9.151   9.729 -1.2995 -2.8741  0.0084
  660MOL0     H89060  12.020   8.824   9.824  2.1975  0.8593 -0.6789
  660MOL0     H89061  12.188   8.665   9.884  0.6726 -1.4742  0.8076
  660MOL0     H89062  12.299   8.708  10.014 -0.1829 -1.7602  3.1880
  660MOL0     H89063  12.155   8.617  10.054  0.8846 -2.4064 -1.7894
  660MOL0     H89064  12.243   9.053  10.571 -1.1191 -1.1074 -2.5959
  660MOL0     H89065  12.201   8.982  10.823 -1.3723  3.7049 -1.9086
  660MOL0     H89066  12.175   8.550  10.822 -4.4821  0.8262 -0.2943
  660MOL0     H89067  12.270   8.639  10.953  1.4413 -1.1265 -0.4793
  660MOL0     H89068  12.156   8.460  11.071 -1.4317 -0.6655  1.2706
  660MOL0     H89069  12.047   8.604  11.080 -1.3074 -1.4297  0.7661
  660MOL0     H89070  11.998   8.383  10.878 -1.4793 -1.4067  0.9471
  660MOL0     H89071  11.879   8.488  10.952  0.6492  2.1584 -1.6442
  660MOL0     H89072  12.032   8.276  11.109 -1.5263 -1.7012  1.9767
  660MOL0     H89073  11.899   8.375  11.157  1.5279  1.7784 -0.0097
  660MOL0     H89074  11.880   8.203  10.917  0.2075  2.1435 -0.3732
  660MOL0     H89075  11.742   8.283  11.008  0.3562  0.6928  0.5352
  660MOL0     H89076  11.907   8.053  11.079 -0.1928  0.9018 -1.5195
  660MOL0     H89077  11.806   8.135  11.210 -0.6203 -2.1517  1.2341
  660MOL0     H89078  11.728   7.975  10.942  1.0992  2.1041 -0.5805
  660MOL0     H89079  11.608   8.074  11.029  0.5261  0.8363  1.2384
  660MOL0     H89080  11.634   7.930  11.238 -3.4042  2.0381 -0.2696
  660MOL0     H89081  11.733   7.827  11.136 -0.3646 -0.0408 -1.1852
  660MOL0     H89082  12.030   8.622  10.668 -1.3428  0.9474  0.2928
  660MOL0     H89083  12.068   8.686  10.452  3.8740  0.8547 -2.9367
  660MOL0     H89084  12.041   9.065  10.248 -2.1213  0.4821 -1.0512
  660MOL0     H89085  11.924   9.155  10.078 -2.4213 -1.2344 -0.8965
  660MOL0     H89086  10.859   7.699   9.920 -0.5877  1.5427 -0.0822
  660MOL0     H89087  10.648   7.586   9.927 -0.1732 -0.9065 -0.3706
  660MOL0     H89088  10.163   7.590  10.143 -0.9558 -0.0451 -1.1395
  660MOL0     H89089   9.974   7.459  10.174  1.0294  1.1641  2.9742
  660MOL0     H89090  10.044   6.994  10.160  1.6299  1.8700  0.1229
  660MOL0     H89091   9.871   7.005  10.190 -2.0155  1.9184 -1.4007
  660MOL0     H89092   9.910   6.917   9.962  2.5786 -0.6911 -1.3311
  660MOL0     H89093   9.971   7.076   9.914 -0.5550  0.9938 -0.0247
  660MOL0     H89094   9.771   7.191   9.950 -0.7949  0.6812  2.5892
  660MOL0     H89095   9.692   7.049  10.027 -0.0385 -0.7895 -1.3687
  660MOL0     H89096   9.728   6.932   9.828  0.4272  1.0171 -0.8897
  660MOL0     H89097   9.782   7.066   9.736  1.0139  0.4995  0.3630
  660MOL0     H89098   9.375   7.153   9.730 -0.0814 -0.9719 -0.0456
  660MOL0     H89099  10.231   7.095  10.115 -0.1086 -0.1677 -1.7030
  660MOL0     H89100  10.409   7.225  10.106  2.6579  3.2306 -3.0392
  661MOL0     O89101   4.431   3.341   2.805  0.4238 -0.5427  0.0762
  661MOL0     C89102   4.411   3.460   2.778  0.0558  0.7783 -1.2639
  661MOL0     O89103   4.417   3.579   2.858 -0.4497 -0.3624  0.0300
  661MOL0     C89104   4.454   3.582   2.991  1.9204 -1.0740 -0.0532
  661MOL0     C89105   4.389   3.689   3.053  0.5208 -0.0736 -0.0652
  661MOL0     C89106   4.409   3.714   3.184 -0.2893 -0.6831 -0.3944
  661MOL0     C89107   4.504   3.643   3.267  0.9071 -0.0900 -0.7767
  661MOL0     O89108   4.543   3.696   3.387 -0.7218  0.0287 -0.2409
  661MOL0     C89109   4.602   3.615   3.480 -0.2517  0.6796  0.0574
  661MOL0     C89110   4.753   3.594   3.455  0.4089  0.4548 -0.8777
  661MOL0     C89111   4.815   3.467   3.514 -0.0340 -0.0895  0.2140
  661MOL0     C89112   4.783   3.462   3.663 -0.4540 -0.1206 -1.6363
  661MOL0     C89113   4.847   3.337   3.728 -0.6174  0.6923  0.0577
  661MOL0     C89114   4.818   3.333   3.872 -0.3892  0.8093  0.6197
  661MOL0     C89115   4.891   3.211   3.946 -0.0506 -0.2435  0.3713
  661MOL0     C89116   4.881   3.234   4.091  0.2653  1.5020 -0.0466
  661MOL0     N89117   4.990   3.310   4.143 -0.3753 -0.5456  0.5484
  661MOL0     C89118   5.005   3.448   4.119 -0.8491  0.8116 -0.1907
  661MOL0     C89119   5.133   3.479   4.151 -0.3765 -0.7359 -1.0280
  661MOL0     C89120   5.208   3.609   4.155 -0.0440  0.4421  0.4793
  661MOL0     C89121   5.304   3.626   4.037  1.0350 -0.1062  0.2278
  661MOL0     C89122   5.263   3.560   3.893  0.5579 -0.4988 -0.1635
  661MOL0     C89123   5.146   3.629   3.824 -0.0152  0.0656  0.2698
  661MOL0     O89124   5.147   3.641   3.674  0.3024  0.7529  0.6031
  661MOL0     C89125   5.257   3.717   3.632 -0.3161 -0.3868  0.4566
  661MOL0     C89126   5.286   3.711   3.499  0.0246 -0.7698 -0.1743
  661MOL0     C89127   5.394   3.783   3.438  1.1807 -0.0429  0.7415
  661MOL0     C89128   5.415   3.751   3.285 -0.0243 -0.0686  0.1934
  661MOL0     C89129   5.459   3.879   3.514  0.4951  0.9231  0.3992
  661MOL0     C89130   5.557   3.975   3.454 -0.9712 -0.9662  0.2050
  661MOL0     O89131   5.627   4.054   3.545  0.3028  0.5503  0.1912
  661MOL0     C89132   5.709   4.158   3.507 -0.0730  0.3850  0.0764
  661MOL0     C89133   5.750   4.186   3.377 -0.0299 -0.6656  0.3624
  661MOL0     C89134   5.827   4.303   3.349 -0.4616 -0.0791 -0.4839
  661MOL0     C89135   5.871   4.396   3.447  0.2246 -0.4008  0.3489
  661MOL0     O89136   5.930   4.517   3.431 -0.3080 -0.0677  0.1862
  661MOL0     C89137   5.971   4.560   3.294 -1.2562  0.7160 -0.5150
  661MOL0     C89138   6.114   4.508   3.264  0.5196  0.1340 -0.3843
  661MOL0     C89139   6.138   4.498   3.117  0.1869 -0.0169 -1.1327
  661MOL0     C89140   6.160   4.636   3.059  0.1905 -0.8028  0.7228
  661MOL0     C89141   6.253   4.627   2.937  0.6371  0.1422  0.2076
  661MOL0     C89142   6.261   4.768   2.865 -0.0515  0.5464 -0.7190
  661MOL0     C89143   6.404   4.779   2.794  0.8670 -0.3934  0.5305
  661MOL0     C89144   6.431   4.672   2.691  0.3895  0.0099 -0.7273
  661MOL0    Cl89145   6.316   4.663   2.560  0.1719 -0.0555 -0.9555
  661MOL0     C89146   5.829   4.360   3.572 -0.9259 -0.2414  0.9287
  661MOL0     C89147   5.755   4.242   3.611 -0.4079 -1.0663  0.1271
  661MOL0     O89148   5.582   3.972   3.331  0.7791  0.7697  0.6130
  661MOL0     C89149   5.448   3.870   3.655 -0.7897 -0.0273  0.2939
  661MOL0     C89150   5.342   3.793   3.711  0.4988  0.0024 -0.3858
  661MOL0     N89151   5.190   3.362   4.197  0.4349  0.0879 -0.3493
  661MOL0     N89152   5.106   3.264   4.195 -0.4491  0.5244 -1.2379
  661MOL0     C89153   4.555   3.526   3.204  0.9544 -0.5094  0.4631
  661MOL0     C89154   4.530   3.500   3.069 -0.6668 -0.0836  0.3679
  661MOL0     C89155   4.385   3.476   2.637 -0.7423  0.8707 -0.0581
  661MOL0     C89156   4.359   3.602   2.582 -0.7416 -0.1200  0.0293
  661MOL0     C89157   4.341   3.614   2.445 -0.8319  0.1928 -0.7619
  661MOL0     C89158   4.323   3.507   2.353 -0.3035 -0.3704 -0.5157
  661MOL0     O89159   4.295   3.542   2.226 -0.8907  0.3211 -0.9167
  661MOL0     C89160   4.289   3.438   2.122 -0.4559  0.1349  0.0959
  661MOL0     C89161   4.272   3.491   1.982  0.2811 -0.1812  0.9961
  661MOL0     C89162   4.129   3.497   1.952  0.0948  0.2927 -0.6547
  661MOL0     C89163   4.090   3.387   1.853 -0.2128 -0.1059 -1.1055
  661MOL0     C89164   4.127   3.253   1.905 -0.0453 -0.0696 -0.1828
  661MOL0     C89165   4.164   3.147   1.955 -0.0836 -0.6705  0.0037
  661MOL0     C89166   4.356   3.387   2.402 -0.3250  0.1378 -0.6318
  661MOL0     C89167   4.374   3.366   2.540 -0.3459 -0.5386  0.1273
  661MOL0     H89168   4.333   3.764   2.999  2.4608  0.3645 -1.5484
  661MOL0     H89169   4.375   3.813   3.212  2.0399 -0.3366  1.5554
  661MOL0     H89170   4.599   3.651   3.583 -0.9217  2.2006 -0.4721
  661MOL0     H89171   4.541   3.524   3.480 -2.4096  2.0447  1.4758
  661MOL0     H89172   4.778   3.607   3.349 -1.2091 -1.3061 -1.5481
  661MOL0     H89173   4.799   3.676   3.510  0.0045  1.2569 -1.6951
  661MOL0     H89174   4.784   3.370   3.475  1.6682 -2.1994  3.5950
  661MOL0     H89175   4.922   3.484   3.500 -0.5243  3.8192  0.0925
  661MOL0     H89176   4.825   3.550   3.712 -2.4835  0.6810 -1.1964
  661MOL0     H89177   4.676   3.469   3.688  0.2595  1.8260  1.4793
  661MOL0     H89178   4.794   3.264   3.666  3.2739 -0.0921 -2.7290
  661MOL0     H89179   4.955   3.333   3.714 -0.4337  1.5267  1.0712
  661MOL0     H89180   4.831   3.435   3.908 -0.8323  1.0471  0.1279
  661MOL0     H89181   4.709   3.323   3.882 -0.5995  2.7400  0.5628
  661MOL0     H89182   4.842   3.117   3.918  1.0546 -0.4339 -1.0326
  661MOL0     H89183   4.997   3.192   3.927 -0.2129 -2.5151  1.4443
  661MOL0     H89184   4.886   3.135   4.138  0.2353 -1.8678 -6.0506
  661MOL0     H89185   4.792   3.291   4.116  0.0909  2.0540 -1.8372
  661MOL0     H89186   4.930   3.520   4.088 -0.9796  0.1457 -1.5299
  661MOL0     H89187   5.128   3.683   4.163 -3.3202 -2.5523 -1.4122
  661MOL0     H89188   5.261   3.618   4.250 -3.4101  1.0338  2.4831
  661MOL0     H89189   5.400   3.600   4.082  0.6125 -0.7539  0.7705
  661MOL0     H89190   5.312   3.734   4.021 -0.2282  0.0559  0.6041
  661MOL0     H89191   5.240   3.454   3.903 -2.2321 -0.0633 -1.1729
  661MOL0     H89192   5.354   3.554   3.833  1.5529 -1.2830  1.3524
  661MOL0     H89193   5.141   3.727   3.871  1.1089  1.8019 -2.9590
  661MOL0     H89194   5.046   3.589   3.846  0.1035 -0.1750  0.3839
  661MOL0     H89195   5.234   3.632   3.447  0.6928 -2.5428  1.6862
  661MOL0     H89196   5.408   3.841   3.224 -1.2687 -0.3046 -0.0296
  661MOL0     H89197   5.518   3.714   3.273 -0.5305 -0.7636 -2.6360
  661MOL0     H89198   5.348   3.675   3.245  1.1569 -1.1079  0.1226
  661MOL0     H89199   5.729   4.126   3.288  0.2113 -1.6106  0.9292
  661MOL0     H89200   5.861   4.321   3.247  1.5354  1.7433  0.4101
  661MOL0     H89201   5.891   4.523   3.230 -1.6675 -4.8774  2.5538
  661MOL0     H89202   5.982   4.669   3.291  2.6640  0.4532 -0.5924
  661MOL0     H89203   6.186   4.568   3.321  1.1752 -1.3496  0.3932
  661MOL0     H89204   6.120   4.408   3.306 -1.0222 -1.9585 -4.5649
  661MOL0     H89205   6.059   4.451   3.058 -0.8728 -1.1889  1.0825
  661MOL0     H89206   6.231   4.445   3.094  0.6472 -0.9656  2.3520
  661MOL0     H89207   6.059   4.671   3.035 -0.1763 -0.1893  2.9436
  661MOL0     H89208   6.212   4.705   3.125  1.8687  0.6897 -2.0028
  661MOL0     H89209   6.208   4.555   2.868  3.5749 -2.8968  1.2028
  661MOL0     H89210   6.346   4.578   2.969  0.0169 -0.6887  0.7920
  661MOL0     H89211   6.179   4.769   2.792 -0.5267  0.1276 -0.2020
  661MOL0     H89212   6.233   4.857   2.921 -0.7377  0.5156 -1.0045
  661MOL0     H89213   6.474   4.782   2.878 -2.4349 -1.6740  3.6061
  661MOL0     H89214   6.400   4.877   2.745  0.7749 -0.7774 -0.2562
  661MOL0     H89215   6.433   4.575   2.740 -3.0585 -0.0740 -0.4849
  661MOL0     H89216   6.526   4.694   2.642  1.0634 -0.0415  0.5249
  661MOL0     H89217   5.854   4.440   3.640 -0.1066 -1.3821  2.0041
  661MOL0     H89218   5.732   4.218   3.714 -0.4613 -1.6843 -0.0250
  661MOL0     H89219   5.500   3.948   3.710 -1.6875 -0.1718  1.3855
  661MOL0     H89220   5.310   3.819   3.811 -1.6312 -1.6195 -0.5876
  661MOL0     H89221   4.631   3.464   3.252  0.6120  0.1399  1.9108
  661MOL0     H89222   4.569   3.413   3.017 -2.5725 -2.4321  2.5694
  661MOL0     H89223   4.355   3.687   2.649 -2.6238 -2.6306  3.3752
  661MOL0     H89224   4.326   3.712   2.402  2.0161 -0.2629 -3.0812
  661MOL0     H89225   4.389   3.394   2.118 -0.7276 -0.5686 -4.2482
  661MOL0     H89226   4.208   3.369   2.147  1.9892 -2.9672  0.1016
  661MOL0     H89227   4.321   3.432   1.904 -0.4897  0.8942 -0.3487
  661MOL0     H89228   4.319   3.589   1.969 -1.8194  0.6907 -0.5797
  661MOL0     H89229   4.092   3.591   1.911 -1.4383 -0.5129 -1.1970
  661MOL0     H89230   4.055   3.486   2.032  2.7224  3.1965  2.5033
  661MOL0     H89231   4.140   3.410   1.759 -1.2513 -2.0674 -2.1977
  661MOL0     H89232   3.983   3.390   1.832 -0.5481 -0.2145  0.4384
  661MOL0     H89233   4.204   3.053   1.985 -0.5842 -0.8619  0.0907
  661MOL0     H89234   4.371   3.309   2.328  2.7024 -1.8823  1.8811
  661MOL0     H89235   4.394   3.265   2.572 -0.2520  0.2223  2.6785
  662MOL0     O89236   0.328   6.294   0.802 -0.2962  0.0539  1.4888
  662MOL0     C89237   0.351   6.392   0.721  0.9042  0.7560  1.0257
  662MOL0     O89238   0.255   6.442   0.637  0.1330  0.5639 -0.8996
  662MOL0     C89239   0.126   6.425   0.676 -0.0228  0.1700 -0.3649
  662MOL0     C89240   0.089   6.471   0.804 -0.0333 -0.3952 -0.4049
  662MOL0     C89241  -0.046   6.484   0.836  0.4869  0.8559 -0.1910
  662MOL0     C89242  -0.150   6.445   0.750 -0.1734  0.0348 -0.1432
  662MOL0     O89243  -0.276   6.467   0.798  0.7587  0.1646 -0.2177
  662MOL0     C89244  -0.382   6.414   0.711  0.0305  0.2465  0.5531
  662MOL0     C89245  -0.407   6.261   0.740  0.4681  0.7728  0.1440
  662MOL0     C89246  -0.434   6.180   0.609  0.4650  0.7737  0.3287
  662MOL0     C89247  -0.418   6.029   0.655 -0.4846 -0.6551 -0.1804
  662MOL0     C89248  -0.483   5.929   0.546  0.1162  0.0068  0.9574
  662MOL0     C89249  -0.490   5.789   0.612  0.3313  0.1467 -0.0734
  662MOL0     C89250  -0.359   5.733   0.656  1.1738 -0.1731  0.0744
  662MOL0     C89251  -0.375   5.591   0.695 -0.1696  1.1319  0.1166
  662MOL0     N89252  -0.248   5.532   0.719 -0.1520  0.5831 -0.6527
  662MOL0     C89253  -0.162   5.453   0.635  0.2534  0.1995 -0.3789
  662MOL0     C89254  -0.055   5.417   0.714  0.4646  0.3337  0.4484
  662MOL0     C89255   0.065   5.341   0.665 -0.2128 -0.6307 -0.3975
  662MOL0     C89256   0.165   5.401   0.568  0.5358  1.2670  1.1864
  662MOL0     C89257   0.254   5.508   0.624 -0.0263  0.0810  0.0851
  662MOL0     C89258   0.353   5.453   0.728 -0.5390  0.7650 -0.8877
  662MOL0     O89259   0.423   5.342   0.681  0.9791 -0.0707  0.2530
  662MOL0     C89260   0.452   5.244   0.774 -0.6417 -0.1587 -0.0633
  662MOL0     C89261   0.524   5.285   0.884 -0.1008 -0.0098 -0.1000
  662MOL0     C89262   0.556   5.185   0.976  0.6924  0.4421 -0.1703
  662MOL0     C89263   0.637   5.235   1.087  0.2974 -0.7502 -0.2729
  662MOL0     C89264   0.488   5.058   0.967  0.8489 -0.5811  0.1631
  662MOL0     C89265   0.511   4.955   1.076  0.1250 -0.1735  0.8595
  662MOL0     O89266   0.451   4.832   1.047  0.4297 -0.1748  0.3530
  662MOL0     C89267   0.329   4.816   1.110  0.8797  0.5564  0.3890
  662MOL0     C89268   0.229   4.909   1.130 -0.1344 -0.1699 -0.6418
  662MOL0     C89269   0.124   4.883   1.210  0.1771 -0.4779  0.6985
  662MOL0     C89270   0.098   4.754   1.259  0.2259  0.0370  0.8114
  662MOL0     O89271  -0.016   4.735   1.336  0.4273  0.5380  1.1780
  662MOL0     C89272   0.005   4.696   1.465 -0.4624  0.0283  0.1087
  662MOL0     C89273  -0.130   4.692   1.543  0.4466  0.7711  0.2322
  662MOL0     C89274  -0.206   4.572   1.494 -0.4940 -0.0310 -0.7422
  662MOL0     C89275  -0.308   4.542   1.602 -0.9274  0.7034  0.2719
  662MOL0     C89276  -0.248   4.487   1.730 -0.2229 -0.2450  0.5098
  662MOL0     C89277  -0.335   4.469   1.849 -0.7510 -0.3021  0.7505
  662MOL0     C89278  -0.454   4.371   1.835 -0.5596 -0.5698  0.1544
  662MOL0     C89279  -0.511   4.331   1.970  0.6493 -0.7042 -0.1191
  662MOL0    Cl89280  -0.530   4.477   2.074  0.2838 -0.0865 -0.4094
  662MOL0     C89281   0.184   4.646   1.221  0.4334 -0.7409  0.5049
  662MOL0     C89282   0.300   4.684   1.159 -0.4247  0.2505  0.6736
  662MOL0     O89283   0.579   4.982   1.172  0.3275  0.1144 -0.0958
  662MOL0     C89284   0.416   5.023   0.846 -0.0606  0.4758 -1.1171
  662MOL0     C89285   0.405   5.115   0.751  0.0776 -0.7356  0.2836
  662MOL0     N89286  -0.076   5.471   0.841 -0.6495  0.5465 -0.0642
  662MOL0     N89287  -0.187   5.538   0.845 -0.6235  0.3196  0.1919
  662MOL0     C89288  -0.111   6.389   0.627 -0.0295 -0.0921 -0.1411
  662MOL0     C89289   0.019   6.377   0.596  0.1563  0.2342 -0.0685
  662MOL0     C89290   0.493   6.421   0.683 -0.2912 -0.3470 -0.0442
  662MOL0     C89291   0.594   6.351   0.756  0.0416 -0.1314  0.3783
  662MOL0     C89292   0.728   6.354   0.717  0.4986 -0.5414  0.1858
  662MOL0     C89293   0.759   6.427   0.605 -0.2281 -0.2185  0.4809
  662MOL0     O89294   0.897   6.438   0.580  0.4937  0.6728 -0.3700
  662MOL0     C89295   0.941   6.534   0.490  1.4377  0.7039 -0.3570
  662MOL0     C89296   1.098   6.513   0.497  0.5547 -0.1305  0.0521
  662MOL0     C89297   1.152   6.368   0.488  0.1256  0.5564 -0.1263
  662MOL0     C89298   1.298   6.344   0.514 -0.2545 -0.4381 -0.4803
  662MOL0     C89299   1.354   6.380   0.654 -0.8074 -0.1091 -0.2010
  662MOL0     C89300   1.404   6.409   0.768  0.4147  0.4976  0.0818
  662MOL0     C89301   0.661   6.498   0.522  0.1239  0.6618  0.9397
  662MOL0     C89302   0.534   6.497   0.568  0.9034  1.2534 -0.2709
  662MOL0     H89303   0.168   6.494   0.874 -0.6484  0.2245  0.0966
  662MOL0     H89304  -0.073   6.511   0.938  3.0156 -1.8445  1.3478
  662MOL0     H89305  -0.472   6.475   0.725  1.1958  1.8668  1.2986
  662MOL0     H89306  -0.360   6.424   0.604 -3.1041 -0.5637 -0.2713
  662MOL0     H89307  -0.324   6.226   0.802  0.9770  1.7582  0.0427
  662MOL0     H89308  -0.501   6.246   0.794 -1.1708  2.5026 -2.0729
  662MOL0     H89309  -0.535   6.195   0.571 -0.2458  0.6746  2.0637
  662MOL0     H89310  -0.364   6.217   0.534 -1.2527  1.6959 -0.8938
  662MOL0     H89311  -0.315   5.998   0.677 -1.0617 -2.0485  0.7104
  662MOL0     H89312  -0.462   6.004   0.753 -3.9207 -0.7980 -1.6054
  662MOL0     H89313  -0.580   5.974   0.523  0.7326  0.5485 -0.7131
  662MOL0     H89314  -0.424   5.927   0.454  0.5998  2.9736  1.1206
  662MOL0     H89315  -0.552   5.793   0.701  1.0972 -1.5416  0.5596
  662MOL0     H89316  -0.551   5.726   0.547  0.7011 -0.2053 -0.0814
  662MOL0     H89317  -0.288   5.738   0.572 -1.8998  1.3475 -2.6550
  662MOL0     H89318  -0.326   5.785   0.746  5.5763 -0.2506 -1.2557
  662MOL0     H89319  -0.432   5.539   0.616 -1.2069  1.3632  0.6988
  662MOL0     H89320  -0.439   5.578   0.783 -0.8868 -3.2889 -0.8097
  662MOL0     H89321  -0.191   5.424   0.535 -0.5794  2.4695 -0.8579
  662MOL0     H89322   0.122   5.306   0.751 -0.4421  0.9758  0.4475
  662MOL0     H89323   0.024   5.249   0.622 -4.1171  0.8909 -0.4028
  662MOL0     H89324   0.105   5.445   0.488  2.3148  0.7527 -0.5192
  662MOL0     H89325   0.220   5.322   0.516 -2.2576  1.8862 -3.2130
  662MOL0     H89326   0.198   5.593   0.665  0.4962 -0.9359  3.2165
  662MOL0     H89327   0.320   5.543   0.545  0.4227 -2.4116 -0.7197
  662MOL0     H89328   0.287   5.419   0.809  1.3574 -1.4947 -0.2174
  662MOL0     H89329   0.427   5.528   0.756  0.7633 -0.2793 -1.4722
  662MOL0     H89330   0.557   5.388   0.875  1.1814 -0.5231 -1.6885
  662MOL0     H89331   0.633   5.344   1.095 -2.5784 -0.6839 -1.4611
  662MOL0     H89332   0.611   5.209   1.190  0.4127  2.2834  0.6336
  662MOL0     H89333   0.740   5.203   1.069  0.0755 -0.5040 -2.1969
  662MOL0     H89334   0.254   5.009   1.096 -1.1363 -0.2182 -1.5554
  662MOL0     H89335   0.058   4.960   1.249 -2.2000 -1.5038 -1.0306
  662MOL0     H89336   0.056   4.599   1.475 -2.7695 -1.0659  3.0324
  662MOL0     H89337   0.070   4.770   1.514  1.5194 -2.8526  2.2361
  662MOL0     H89338  -0.123   4.713   1.650 -3.5605  0.6380  0.6629
  662MOL0     H89339  -0.195   4.773   1.508 -0.1842  1.8911  3.5805
  662MOL0     H89340  -0.145   4.482   1.486  1.2290  0.8305  1.4627
  662MOL0     H89341  -0.257   4.580   1.397 -0.0056 -5.5741 -1.7754
  662MOL0     H89342  -0.343   4.637   1.643 -1.1102  0.6780  0.1716
  662MOL0     H89343  -0.388   4.472   1.576 -0.5949 -0.7183  2.7635
  662MOL0     H89344  -0.162   4.542   1.770  0.5048 -2.0301  1.5331
  662MOL0     H89345  -0.219   4.390   1.688 -0.1639  0.1465 -0.3705
  662MOL0     H89346  -0.267   4.436   1.928  0.5887 -1.1312 -0.7018
  662MOL0     H89347  -0.375   4.570   1.860  0.5143  0.0962  1.8140
  662MOL0     H89348  -0.418   4.279   1.789 -1.3390 -1.7484  1.8025
  662MOL0     H89349  -0.541   4.399   1.774 -2.1071 -2.5536  1.3259
  662MOL0     H89350  -0.433   4.271   2.017  1.8920  1.1709  0.3131
  662MOL0     H89351  -0.600   4.269   1.959 -0.3292  0.8022 -1.0701
  662MOL0     H89352   0.162   4.540   1.229  2.1631 -1.2518 -0.8203
  662MOL0     H89353   0.375   4.611   1.132 -0.9029 -0.3522  0.9320
  662MOL0     H89354   0.371   4.925   0.833  1.9695 -1.1546  2.5545
  662MOL0     H89355   0.346   5.105   0.661  1.1517  1.3166 -0.7122
  662MOL0     H89356  -0.185   6.356   0.554  0.7651 -0.3736 -0.8248
  662MOL0     H89357   0.046   6.345   0.496  2.4100 -0.5740  0.7297
  662MOL0     H89358   0.562   6.285   0.837 -1.0290 -0.4033 -0.2474
  662MOL0     H89359   0.813   6.302   0.761 -0.3110 -2.1862 -0.1227
  662MOL0     H89360   0.908   6.523   0.386  2.2829  1.9916 -0.7923
  662MOL0     H89361   0.918   6.635   0.525 -0.2655 -0.4432  2.0970
  662MOL0     H89362   1.124   6.546   0.598 -1.3040  0.7067  0.3010
  662MOL0     H89363   1.149   6.554   0.409 -0.5480 -1.7529 -1.4100
  662MOL0     H89364   1.139   6.345   0.382 -0.7336  1.6257 -0.2740
  662MOL0     H89365   1.100   6.294   0.550  1.4101  0.6268  1.0840
  662MOL0     H89366   1.362   6.390   0.438  1.3272 -1.3612  0.2477
  662MOL0     H89367   1.305   6.236   0.499 -0.8745 -0.4780 -0.4997
  662MOL0     H89368   1.455   6.441   0.856 -1.2953  2.7989  0.3453
  662MOL0     H89369   0.669   6.566   0.437 -3.9572 -0.1518 -0.3582
  662MOL0     H89370   0.456   6.552   0.516 -0.1035  2.7861  2.6242
  663MOL0     O89371   6.560   6.071   9.189 -0.0192  0.0237 -0.8715
  663MOL0     C89372   6.595   5.981   9.274 -0.6893  0.6536  0.3911
  663MOL0     O89373   6.620   6.008   9.410 -0.2788 -0.1455 -0.4028
  663MOL0     C89374   6.609   6.136   9.458  0.4627  0.7733 -0.8207
  663MOL0     C89375   6.641   6.251   9.397 -0.1518  0.2821  0.6340
  663MOL0     C89376   6.627   6.377   9.456 -0.4025  0.7902 -0.0437
  663MOL0     C89377   6.601   6.388   9.591  0.4200 -0.6127 -0.4155
  663MOL0     O89378   6.614   6.509   9.662  0.3903  0.1600 -0.3887
  663MOL0     C89379   6.705   6.616   9.622 -0.2937 -0.9504 -0.0300
  663MOL0     C89380   6.702   6.737   9.725 -0.8090 -0.3890  0.8567
  663MOL0     C89381   6.776   6.853   9.664 -0.0992 -0.3491  0.2861
  663MOL0     C89382   6.679   6.945   9.592 -0.2537 -0.4410  0.6370
  663MOL0     C89383   6.740   7.088   9.585 -0.7966  0.6131  0.8424
  663MOL0     C89384   6.638   7.192   9.538  0.4767  0.4482  0.3572
  663MOL0     C89385   6.663   7.347   9.546  0.2099 -0.4466 -0.3542
  663MOL0     C89386   6.527   7.418   9.548  0.2815  0.2946 -0.3040
  663MOL0     N89387   6.449   7.387   9.666  0.0428 -0.7250 -0.1815
  663MOL0     C89388   6.464   7.440   9.798 -0.3896 -0.1767  0.8966
  663MOL0     C89389   6.345   7.407   9.867  0.4365 -0.0664 -1.2086
  663MOL0     C89390   6.291   7.436  10.010 -0.0477 -0.2964 -0.3648
  663MOL0     C89391   6.412   7.460  10.109  0.1792 -0.3828  0.5665
  663MOL0     C89392   6.355   7.505  10.255 -0.3732 -0.6977  0.1251
  663MOL0     C89393   6.474   7.570  10.335  0.5979 -0.7960  0.4244
  663MOL0     O89394   6.518   7.685  10.265  0.5208  0.0785  0.4697
  663MOL0     C89395   6.624   7.743  10.303 -0.7766 -0.7121 -0.1896
  663MOL0     C89396   6.662   7.748  10.431  0.4951 -0.1518 -0.4624
  663MOL0     C89397   6.783   7.811  10.472 -0.2740 -0.5865  1.2033
  663MOL0     C89398   6.830   7.805  10.619 -1.2487 -0.5031  0.9931
  663MOL0     C89399   6.842   7.906  10.374 -0.5943 -0.1831  0.0678
  663MOL0     C89400   6.949   7.999  10.400 -0.0419  0.4688  0.4707
  663MOL0     O89401   7.034   8.036  10.295  0.2215  0.2945 -0.3392
  663MOL0     C89402   7.103   8.155  10.311 -0.2270 -0.1647  0.1660
  663MOL0     C89403   7.052   8.269  10.369 -0.0606 -0.0717 -1.0958
  663MOL0     C89404   7.127   8.388  10.384 -0.8032 -0.1855  0.3483
  663MOL0     C89405   7.256   8.402  10.329 -0.3139  0.2815  0.0275
  663MOL0     O89406   7.322   8.516  10.337  0.4581  0.1244 -0.2149
  663MOL0     C89407   7.454   8.519  10.302  0.2032  0.0962 -0.3260
  663MOL0     C89408   7.495   8.655  10.244 -0.2892 -0.0840  0.7510
  663MOL0     C89409   7.645   8.655  10.201  0.2566 -0.5252 -0.6771
  663MOL0     C89410   7.686   8.731  10.079 -0.1027  0.7921 -0.2287
  663MOL0     C89411   7.846   8.755  10.090 -0.3544  0.9816  0.3310
  663MOL0     C89412   7.924   8.620  10.113  0.9278  0.0007 -0.3185
  663MOL0     C89413   8.074   8.652  10.143 -0.9278  1.2021 -0.6009
  663MOL0     C89414   8.144   8.522  10.152  0.0639  0.4581  0.0101
  663MOL0    Cl89415   8.264   8.523  10.282  0.3692  0.0175 -0.2879
  663MOL0     C89416   7.297   8.288  10.255 -0.0209 -1.2688  0.2927
  663MOL0     C89417   7.230   8.165  10.253  0.3071 -0.5485  0.2961
  663MOL0     O89418   6.946   8.047  10.507 -0.4711 -0.2752 -0.4218
  663MOL0     C89419   6.802   7.907  10.239 -0.2139 -0.2366 -0.2276
  663MOL0     C89420   6.697   7.825  10.212  0.3179  0.4532  0.1153
  663MOL0     N89421   6.266   7.339   9.775 -0.0658 -0.9713 -0.0849
  663MOL0     N89422   6.329   7.318   9.662 -0.5522  0.1694  0.1540
  663MOL0     C89423   6.573   6.268   9.654 -0.4536 -0.4181  0.2244
  663MOL0     C89424   6.587   6.145   9.595  0.0890 -0.3459 -0.6281
  663MOL0     C89425   6.605   5.839   9.229 -0.1230  1.0634 -0.2774
  663MOL0     C89426   6.574   5.802   9.097  1.2252  0.3072  0.0538
  663MOL0     C89427   6.559   5.671   9.048 -0.4149 -1.0633 -1.2293
  663MOL0     C89428   6.606   5.571   9.127 -0.6663  0.1419 -0.5076
  663MOL0     O89429   6.591   5.433   9.105 -0.1115  0.0620 -0.4631
  663MOL0     C89430   6.706   5.358   9.052 -0.1877 -0.5508  0.0592
  663MOL0     C89431   6.694   5.218   9.113 -0.3724 -0.0125  0.3423
  663MOL0     C89432   6.813   5.121   9.078 -1.0344 -0.0013  0.0903
  663MOL0     C89433   6.814   4.981   9.148  0.2360  0.3648  0.0683
  663MOL0     C89434   6.743   4.883   9.064 -0.4862  0.0571  0.4972
  663MOL0     C89435   6.667   4.811   8.998  0.2895  0.0895 -0.9738
  663MOL0     C89436   6.643   5.597   9.258 -0.4968  0.2229  0.2130
  663MOL0     C89437   6.634   5.726   9.308  0.7808 -0.3373  0.5166
  663MOL0     H89438   6.673   6.245   9.293  2.0095  0.7885  1.2119
  663MOL0     H89439   6.659   6.462   9.397  0.4489  0.8751  0.5180
  663MOL0     H89440   6.807   6.578   9.615  0.3120  0.8463 -2.2257
  663MOL0     H89441   6.676   6.646   9.521 -1.6541 -0.3607  0.5137
  663MOL0     H89442   6.597   6.761   9.745 -0.7718 -0.5573  1.2698
  663MOL0     H89443   6.745   6.701   9.819 -0.2095  1.0149  1.1374
  663MOL0     H89444   6.833   6.902   9.744  1.0658 -2.0808  0.5631
  663MOL0     H89445   6.856   6.819   9.597 -0.3137 -2.9715  1.2595
  663MOL0     H89446   6.654   6.919   9.488  0.1852  4.1580 -0.8861
  663MOL0     H89447   6.587   6.956   9.651 -1.6159 -2.5860 -0.9035
  663MOL0     H89448   6.769   7.112   9.688 -3.3465  0.4669  1.6613
  663MOL0     H89449   6.824   7.085   9.516 -3.4212 -1.3052 -2.5511
  663MOL0     H89450   6.620   7.168   9.432 -1.1939 -1.4573  1.0111
  663MOL0     H89451   6.547   7.175   9.596 -1.0173  1.3409 -1.5963
  663MOL0     H89452   6.706   7.363   9.645  0.9975  1.5039 -0.9704
  663MOL0     H89453   6.737   7.372   9.469  2.6929 -0.7764  1.7724
  663MOL0     H89454   6.469   7.397   9.457  1.6736 -1.2828 -0.8593
  663MOL0     H89455   6.557   7.523   9.548 -1.9701  1.0209 -1.6811
  663MOL0     H89456   6.554   7.490   9.832  0.2499 -0.5753 -0.1664
  663MOL0     H89457   6.219   7.518  10.011 -0.0331 -0.2835 -0.3718
  663MOL0     H89458   6.247   7.343  10.048  0.4687 -0.5117 -0.2836
  663MOL0     H89459   6.480   7.536  10.068  3.1523 -3.5828 -0.9843
  663MOL0     H89460   6.458   7.362  10.122  0.3021 -0.3838  0.1395
  663MOL0     H89461   6.319   7.415  10.307  1.1511 -2.1278 -1.1490
  663MOL0     H89462   6.273   7.576  10.246 -2.0119 -2.2720  1.6187
  663MOL0     H89463   6.556   7.507  10.372  3.5314  2.8038  0.6450
  663MOL0     H89464   6.422   7.606  10.424 -2.5113 -0.2317 -1.5088
  663MOL0     H89465   6.615   7.680  10.502 -0.7215  1.2460  0.1172
  663MOL0     H89466   6.818   7.901  10.670  1.6883  0.5516 -0.0641
  663MOL0     H89467   6.764   7.739  10.675 -0.6994  0.4639  2.8399
  663MOL0     H89468   6.932   7.767  10.629 -1.3623 -0.2582  3.4553
  663MOL0     H89469   6.962   8.268  10.431  0.6123  2.7909  0.0956
  663MOL0     H89470   7.089   8.475  10.434 -0.8506  1.2851 -2.0819
  663MOL0     H89471   7.509   8.521  10.396 -0.8088  3.8116  0.3227
  663MOL0     H89472   7.501   8.442  10.239  0.8536 -0.5379  0.8968
  663MOL0     H89473   7.441   8.667  10.150  0.3273 -0.3273  0.3573
  663MOL0     H89474   7.472   8.747  10.299  1.3345  1.4132 -0.8912
  663MOL0     H89475   7.682   8.553  10.194  0.0729 -1.1539  3.9781
  663MOL0     H89476   7.693   8.690  10.293 -0.0228 -1.8442  0.0028
  663MOL0     H89477   7.650   8.679   9.989  1.4737 -0.2493 -0.3085
  663MOL0     H89478   7.636   8.828  10.086  2.2809  2.0062  1.4495
  663MOL0     H89479   7.860   8.824  10.174 -3.9400 -0.2019  2.0888
  663MOL0     H89480   7.891   8.791   9.996  1.0493  1.3713  1.1142
  663MOL0     H89481   7.884   8.569  10.201  1.1296  3.5586  2.0119
  663MOL0     H89482   7.903   8.573  10.016 -2.3794  0.0305  0.2732
  663MOL0     H89483   8.074   8.709  10.236 -0.4785  0.1190  0.0800
  663MOL0     H89484   8.116   8.718  10.066 -1.3364  1.2571 -0.7785
  663MOL0     H89485   8.189   8.508  10.054 -0.0409 -4.2153  0.3633
  663MOL0     H89486   8.079   8.439  10.181 -0.0723 -0.4706 -2.7314
  663MOL0     H89487   7.387   8.298  10.195 -0.7291  1.9590 -0.4292
  663MOL0     H89488   7.265   8.076  10.203 -0.9653 -1.3296  0.7440
  663MOL0     H89489   6.850   7.962  10.159  2.0123  1.1386  1.9015
  663MOL0     H89490   6.670   7.812  10.107  4.2843  1.3821 -1.1906
  663MOL0     H89491   6.563   6.263   9.762  2.4555  2.5250  0.7956
  663MOL0     H89492   6.563   6.060   9.657 -0.4937  0.9478  0.9816
  663MOL0     H89493   6.538   5.882   9.033 -1.5891 -2.1736 -1.7136
  663MOL0     H89494   6.513   5.642   8.954 -2.8595  1.6350 -1.0241
  663MOL0     H89495   6.712   5.363   8.943 -0.4100 -0.9705  0.0260
  663MOL0     H89496   6.800   5.401   9.089 -0.3015 -0.5245  0.3202
  663MOL0     H89497   6.605   5.158   9.090 -0.7764  0.7810 -0.1793
  663MOL0     H89498   6.686   5.225   9.222  0.5464  2.0847  0.3225
  663MOL0     H89499   6.908   5.170   9.102 -1.4405  1.9819 -1.8934
  663MOL0     H89500   6.814   5.107   8.969 -2.9129  1.5020 -0.1761
  663MOL0     H89501   6.756   4.993   9.240  1.9221 -3.8937  1.9565
  663MOL0     H89502   6.914   4.947   9.173  0.3825  1.7951  1.5852
  663MOL0     H89503   6.604   4.751   8.936 -0.6655  1.0539 -0.9751
  663MOL0     H89504   6.679   5.521   9.327  1.1198 -1.2410 -2.0713
  663MOL0     H89505   6.640   5.758   9.412 -2.9713 -0.4617  0.9321
  664MOL0     O89506   9.965   1.969   3.785  0.4994  0.5004  0.0714
  664MOL0     C89507   9.945   1.930   3.897  0.6051 -0.7571 -0.3493
  664MOL0     O89508   9.870   2.001   3.989 -0.4911  0.5225  0.2896
  664MOL0     C89509   9.800   2.116   3.968  0.9363 -0.5040 -0.9717
  664MOL0     C89510   9.732   2.156   3.850  0.2532 -0.1214 -0.7792
  664MOL0     C89511   9.666   2.273   3.848 -0.6957 -0.4865 -0.4460
  664MOL0     C89512   9.669   2.369   3.956 -0.5429  0.1630 -0.2286
  664MOL0     O89513   9.606   2.496   3.955 -0.1917  0.1793  0.1250
  664MOL0     C89514   9.680   2.613   3.990  0.5305  0.4197  0.4271
  664MOL0     C89515   9.810   2.633   3.922 -0.3014  0.4823  0.3614
  664MOL0     C89516   9.812   2.645   3.760 -1.1021 -1.0861 -0.4005
  664MOL0     C89517   9.954   2.659   3.709  0.2154  0.1108  0.0059
  664MOL0     C89518  10.028   2.532   3.720  0.0535 -0.2714  0.8312
  664MOL0     C89519  10.165   2.537   3.657 -0.1922 -0.3160  0.1495
  664MOL0     C89520  10.260   2.587   3.766 -0.4997 -0.0536 -0.1392
  664MOL0     C89521  10.403   2.589   3.716 -0.1620 -0.2309 -0.4066
  664MOL0     N89522  10.391   2.708   3.621 -0.5503  0.2446  0.8692
  664MOL0     C89523  10.365   2.837   3.658  0.2045 -0.2994  0.3344
  664MOL0     C89524  10.345   2.896   3.534 -0.5264 -0.1604  0.3229
  664MOL0     C89525  10.343   3.038   3.512  0.1320  0.0965  0.1284
  664MOL0     C89526  10.269   3.090   3.390  0.2166 -0.2425  0.1370
  664MOL0     C89527  10.116   3.062   3.394 -0.0944  0.2884  0.1810
  664MOL0     C89528  10.059   3.129   3.519  0.6806  0.3838  0.7002
  664MOL0     O89529   9.907   3.140   3.510 -1.0393  0.7208 -0.0507
  664MOL0     C89530   9.865   3.238   3.414 -0.2302 -0.2604  0.5872
  664MOL0     C89531   9.732   3.215   3.379 -0.3998 -0.1838  1.0707
  664MOL0     C89532   9.670   3.280   3.273  0.5065  0.8987 -0.3249
  664MOL0     C89533   9.524   3.237   3.235 -0.7707 -0.2378 -0.6928
  664MOL0     C89534   9.741   3.386   3.205  0.0153  0.3696 -0.0372
  664MOL0     C89535   9.699   3.474   3.098  0.0544 -0.1760 -0.9016
  664MOL0     O89536   9.791   3.481   3.001  0.1154  0.1791 -0.3772
  664MOL0     C89537   9.781   3.565   2.893 -0.3846  0.6432 -0.4334
  664MOL0     C89538   9.793   3.503   2.768 -0.2481 -0.2451  1.0392
  664MOL0     C89539   9.806   3.590   2.655 -0.3176  0.2061  0.8531
  664MOL0     C89540   9.797   3.728   2.665 -0.1461 -0.2805  0.8885
  664MOL0     O89541   9.810   3.812   2.557 -0.1419  0.0065  0.1350
  664MOL0     C89542   9.874   3.782   2.430  0.5347 -0.3047 -1.2471
  664MOL0     C89543  10.014   3.838   2.431 -0.5420 -0.1993 -0.9291
  664MOL0     C89544  10.033   3.959   2.519 -0.3573  0.5985  0.7870
  664MOL0     C89545  10.176   4.012   2.509  0.8121 -0.7660 -0.2456
  664MOL0     C89546  10.209   4.089   2.642  0.1306  0.2524 -0.2939
  664MOL0     C89547  10.368   4.118   2.638 -0.5700 -0.6682 -0.1229
  664MOL0     C89548  10.418   4.201   2.765  1.7963  0.4206 -0.3873
  664MOL0     C89549  10.557   4.270   2.758  0.4249  0.6252  0.0185
  664MOL0    Cl89550  10.679   4.144   2.748  0.0611  0.3854 -0.0839
  664MOL0     C89551   9.796   3.785   2.788  0.0573  0.5167 -0.4334
  664MOL0     C89552   9.786   3.705   2.910  0.4039 -0.1556  1.0996
  664MOL0     O89553   9.596   3.535   3.099  0.0019 -0.1040  0.3940
  664MOL0     C89554   9.869   3.425   3.263 -0.0094 -1.3037 -0.0847
  664MOL0     C89555   9.931   3.350   3.363  1.0003  0.5732 -0.5396
  664MOL0     N89556  10.360   2.803   3.428  0.4939  0.7644 -0.5376
  664MOL0     N89557  10.386   2.687   3.483 -0.4735  0.0832 -1.0855
  664MOL0     C89558   9.742   2.335   4.068 -0.2312 -0.5662  0.5196
  664MOL0     C89559   9.798   2.210   4.073 -1.0976 -0.3821 -0.3314
  664MOL0     C89560   9.997   1.800   3.945 -0.3361  0.2269 -0.2295
  664MOL0     C89561  10.079   1.721   3.864 -0.5193 -0.1490 -0.1126
  664MOL0     C89562  10.130   1.606   3.906  0.6957 -0.1900 -0.0597
  664MOL0     C89563  10.106   1.560   4.038  0.7111  0.3216  0.0508
  664MOL0     O89564  10.159   1.435   4.073  0.1339  0.3633 -0.1967
  664MOL0     C89565  10.254   1.448   4.189 -0.3218  1.1321  0.0731
  664MOL0     C89566  10.277   1.294   4.235 -0.1226 -0.4662 -0.3269
  664MOL0     C89567  10.379   1.212   4.138  0.5331 -0.3062 -0.2507
  664MOL0     C89568  10.392   1.065   4.190  0.6447 -0.1248  0.3056
  664MOL0     C89569  10.412   1.063   4.337 -0.2944  0.7905 -0.3688
  664MOL0     C89570  10.421   1.072   4.462  0.4727  0.7516  1.5590
  664MOL0     C89571  10.026   1.637   4.120 -1.3360 -0.5408  0.7015
  664MOL0     C89572   9.976   1.760   4.076  0.0222 -1.2016  1.1102
  664MOL0     H89573   9.752   2.087   3.769 -0.0294 -2.5630  1.0962
  664MOL0     H89574   9.610   2.314   3.764  0.6204  1.8830 -0.2422
  664MOL0     H89575   9.619   2.702   3.970  1.3602  0.9907  0.4076
  664MOL0     H89576   9.692   2.618   4.099  0.6883 -2.1055  0.5887
  664MOL0     H89577   9.859   2.718   3.969 -1.3372  1.5815 -0.4784
  664MOL0     H89578   9.872   2.551   3.960 -1.8346 -1.8195 -1.7430
  664MOL0     H89579   9.768   2.555   3.717 -0.6800 -2.0900  1.1819
  664MOL0     H89580   9.770   2.739   3.722 -1.2205 -0.6110  0.8378
  664MOL0     H89581   9.941   2.678   3.602 -1.2183 -0.8287 -0.0116
  664MOL0     H89582  10.010   2.738   3.760 -0.3181  2.1869 -2.4337
  664MOL0     H89583  10.028   2.490   3.821  0.6384 -1.5825  0.3127
  664MOL0     H89584   9.974   2.462   3.655  1.6951 -0.9143  0.1129
  664MOL0     H89585  10.202   2.440   3.624  0.0077 -0.8926  2.0070
  664MOL0     H89586  10.162   2.600   3.567 -1.8545  2.1314  1.7697
  664MOL0     H89587  10.223   2.685   3.798  1.1376  0.8939 -1.0495
  664MOL0     H89588  10.258   2.512   3.847 -1.6710 -0.4275 -0.4922
  664MOL0     H89589  10.431   2.501   3.657  3.2850  0.6322 -0.2743
  664MOL0     H89590  10.474   2.610   3.797 -0.7524  4.3668 -0.7761
  664MOL0     H89591  10.367   2.891   3.751  0.2557  0.7143 -0.2384
  664MOL0     H89592  10.308   3.091   3.601 -2.5286  2.4765 -2.1394
  664MOL0     H89593  10.447   3.068   3.499  0.2420 -1.0250 -2.0201
  664MOL0     H89594  10.320   3.034   3.311  1.9197  0.0352  0.9938
  664MOL0     H89595  10.288   3.197   3.387 -0.5316 -0.0696  0.9123
  664MOL0     H89596  10.100   2.954   3.399  0.6824  0.0278 -1.8664
  664MOL0     H89597  10.073   3.096   3.299 -0.1279  1.0623  0.4621
  664MOL0     H89598  10.117   3.220   3.531  0.0725  0.7557  0.8682
  664MOL0     H89599  10.073   3.083   3.618  0.5603  0.0166  0.5484
  664MOL0     H89600   9.674   3.140   3.432  1.2093  0.7863  4.5185
  664MOL0     H89601   9.473   3.205   3.326 -4.2402 -2.4373 -3.1750
  664MOL0     H89602   9.467   3.318   3.189  0.6033  0.3411 -1.4339
  664MOL0     H89603   9.535   3.151   3.169 -2.5922 -1.0706  0.0341
  664MOL0     H89604   9.790   3.396   2.754 -1.0189  0.0824 -1.9870
  664MOL0     H89605   9.816   3.537   2.561 -0.8072 -3.8919  2.9143
  664MOL0     H89606   9.883   3.674   2.412  3.7531 -0.3704 -0.0284
  664MOL0     H89607   9.811   3.826   2.353 -0.9265  2.5468  1.3478
  664MOL0     H89608  10.083   3.756   2.452  2.0429  1.7757 -1.3319
  664MOL0     H89609  10.034   3.868   2.328 -4.2439 -0.1687 -1.7979
  664MOL0     H89610  10.007   3.924   2.619 -1.9850 -6.0283 -1.3909
  664MOL0     H89611   9.968   4.030   2.468 -0.9176 -0.6009 -0.2277
  664MOL0     H89612  10.221   3.915   2.489 -0.8381 -1.7307  0.5842
  664MOL0     H89613  10.188   4.082   2.425  1.1052 -2.1068 -1.3506
  664MOL0     H89614  10.197   4.034   2.735  3.2487  2.2945  1.5172
  664MOL0     H89615  10.154   4.183   2.657 -0.1300 -0.0221  0.5180
  664MOL0     H89616  10.424   4.024   2.641  3.6035  1.5213  3.5587
  664MOL0     H89617  10.400   4.173   2.550 -0.5210  0.3509  0.5147
  664MOL0     H89618  10.410   4.139   2.855 -0.9493 -0.3186 -1.0458
  664MOL0     H89619  10.346   4.284   2.767  2.0560  0.6837 -1.5979
  664MOL0     H89620  10.578   4.333   2.845  1.2474  2.5638 -1.5056
  664MOL0     H89621  10.549   4.333   2.670 -1.0096 -0.9733 -1.0528
  664MOL0     H89622   9.815   3.892   2.792  2.4058  0.2029 -1.3391
  664MOL0     H89623   9.793   3.752   3.007  0.8932 -0.1621  1.0699
  664MOL0     H89624   9.919   3.514   3.225  0.1854 -1.7217 -0.8422
  664MOL0     H89625  10.029   3.382   3.396  0.3031  0.9075  1.3106
  664MOL0     H89626   9.724   2.392   4.159  0.2436 -0.8859  0.8176
  664MOL0     H89627   9.834   2.159   4.162  1.8437 -1.8507 -2.1890
  664MOL0     H89628  10.108   1.744   3.762  0.6155 -2.2919 -0.3335
  664MOL0     H89629  10.197   1.542   3.850 -1.7613 -1.9373 -1.2112
  664MOL0     H89630  10.349   1.495   4.165 -1.0608  0.7843 -4.5547
  664MOL0     H89631  10.199   1.484   4.276 -2.0889 -1.0335 -0.0548
  664MOL0     H89632  10.175   1.257   4.235  0.2093 -1.4392  0.7521
  664MOL0     H89633  10.307   1.296   4.340  1.1304  3.5061 -0.5984
  664MOL0     H89634  10.474   1.264   4.148 -1.1155  2.4921  3.0471
  664MOL0     H89635  10.343   1.200   4.035 -2.1734  0.0676  0.5795
  664MOL0     H89636  10.480   1.020   4.144 -0.8537 -1.9355 -0.9075
  664MOL0     H89637  10.305   1.005   4.166 -0.6125  0.2447  3.4844
  664MOL0     H89638  10.430   1.088   4.567 -0.1383  2.3326  1.3983
  664MOL0     H89639  10.021   1.628   4.228  0.5877 -3.0481  0.6482
  664MOL0     H89640   9.916   1.830   4.133 -1.3049  0.1179 -1.7184
  665MOL0     O89641   1.843   5.318   1.344  0.8481  0.2158  0.1868
  665MOL0     C89642   1.951   5.330   1.286  0.1164 -0.9719 -0.5253
  665MOL0     O89643   1.985   5.429   1.212  0.2883 -0.7811 -0.5699
  665MOL0     C89644   1.895   5.525   1.169 -0.9245  0.8689 -0.4396
  665MOL0     C89645   1.792   5.491   1.083  1.5065  0.3435 -0.2117
  665MOL0     C89646   1.718   5.598   1.023 -0.6076 -0.2272  0.1689
  665MOL0     C89647   1.753   5.729   1.050  1.0632 -0.0515 -0.9714
  665MOL0     O89648   1.694   5.820   0.958 -0.1424 -1.0802  0.2553
  665MOL0     C89649   1.764   5.949   0.946 -0.0704  0.4395 -0.4200
  665MOL0     C89650   1.730   6.023   0.817 -0.3118  0.2451 -0.4466
  665MOL0     C89651   1.819   6.140   0.760  0.2199 -0.0570 -0.4242
  665MOL0     C89652   1.734   6.209   0.651 -0.2896 -0.8049 -0.5827
  665MOL0     C89653   1.817   6.303   0.552  0.2210 -0.0376 -0.8429
  665MOL0     C89654   1.747   6.302   0.419  0.6677  0.1388  0.0156
  665MOL0     C89655   1.807   6.412   0.334 -0.8638 -0.6841  0.4955
  665MOL0     C89656   1.698   6.453   0.231 -0.1927  0.3759 -0.2484
  665MOL0     N89657   1.625   6.336   0.185  0.9978  0.3030  0.3295
  665MOL0     C89658   1.686   6.238   0.116 -0.3772  0.5462 -0.0392
  665MOL0     C89659   1.595   6.145   0.093  1.2640  0.3017 -0.5381
  665MOL0     C89660   1.607   6.016   0.018  0.2886  1.1110 -0.2197
  665MOL0     C89661   1.665   5.910   0.116  0.1626  0.4449  0.0503
  665MOL0     C89662   1.659   5.770   0.048  0.4616 -0.0316 -0.0769
  665MOL0     C89663   1.725   5.670   0.142  0.0899 -0.2907  0.4815
  665MOL0     O89664   1.872   5.664   0.125  0.3272 -0.7271  0.8275
  665MOL0     C89665   1.923   5.552   0.058 -1.0300 -0.9531  0.0155
  665MOL0     C89666   1.850   5.444   0.003 -1.4493  0.0795 -0.6440
  665MOL0     C89667   1.915   5.327  -0.051 -1.0724  0.6573 -0.1714
  665MOL0     C89668   1.837   5.225  -0.128 -0.3587 -0.3186 -0.3402
  665MOL0     C89669   2.065   5.324  -0.042  0.3471  0.4304  0.4636
  665MOL0     C89670   2.152   5.211  -0.084 -0.1200 -0.2985  0.5166
  665MOL0     O89671   2.276   5.210  -0.036 -0.1558  0.2825 -1.0653
  665MOL0     C89672   2.371   5.126  -0.070 -1.1369  0.3423 -0.5767
  665MOL0     C89673   2.502   5.140  -0.016 -0.2639 -0.0842 -0.0086
  665MOL0     C89674   2.611   5.073  -0.044  0.6572  0.6074  0.3058
  665MOL0     C89675   2.598   4.965  -0.130 -0.4770  0.3143  0.9416
  665MOL0     O89676   2.711   4.880  -0.141  0.0802 -0.3540 -0.1774
  665MOL0     C89677   2.692   4.737  -0.120 -0.8798  0.1644 -0.4251
  665MOL0     C89678   2.831   4.668  -0.107  1.3467 -0.2724 -0.4981
  665MOL0     C89679   2.889   4.689   0.037  0.3777  0.4635  0.2545
  665MOL0     C89680   3.035   4.654   0.057  0.3876  0.3519 -0.9085
  665MOL0     C89681   3.141   4.738  -0.020 -0.4895  0.8700 -0.1557
  665MOL0     C89682   3.180   4.870   0.048  0.0519 -0.8874 -0.4064
  665MOL0     C89683   3.285   4.941  -0.032 -0.1456 -0.7025 -0.5411
  665MOL0     C89684   3.217   5.047  -0.129 -0.1842 -0.3909  0.1959
  665MOL0    Cl89685   3.171   5.204  -0.060  0.3560  0.6947 -0.0579
  665MOL0     C89686   2.479   4.936  -0.184 -0.0553  0.0795  0.2486
  665MOL0     C89687   2.369   5.009  -0.150  1.1053  0.3839  0.7144
  665MOL0     O89688   2.112   5.136  -0.174 -0.1629  0.9339  0.8800
  665MOL0     C89689   2.133   5.428   0.025  0.4433 -0.0464  0.8593
  665MOL0     C89690   2.064   5.536   0.069 -0.2936 -0.7817 -0.2058
  665MOL0     N89691   1.471   6.184   0.165 -0.4316 -0.0095  0.7229
  665MOL0     N89692   1.489   6.302   0.210  0.1501 -0.2838 -0.7958
  665MOL0     C89693   1.855   5.760   1.144  1.0728  0.2637 -0.7704
  665MOL0     C89694   1.915   5.654   1.207  0.4952 -1.1115 -0.5328
  665MOL0     C89695   2.052   5.229   1.318 -0.1011 -0.2071  0.8265
  665MOL0     C89696   2.023   5.113   1.394  0.2702 -0.6933 -0.4567
  665MOL0     C89697   2.117   5.020   1.430  0.9119  0.1252  0.4143
  665MOL0     C89698   2.244   5.034   1.384 -0.7347  0.4020  0.2402
  665MOL0     O89699   2.336   4.933   1.407 -0.3459  0.3210  0.6543
  665MOL0     C89700   2.300   4.818   1.332 -0.2885 -0.5715  0.4621
  665MOL0     C89701   2.296   4.847   1.187 -0.2679 -0.6424  0.1841
  665MOL0     C89702   2.287   4.711   1.109 -0.3515  0.9277 -0.0712
  665MOL0     C89703   2.334   4.711   0.965 -0.8198 -0.1118 -0.7839
  665MOL0     C89704   2.228   4.704   0.875  0.1558 -0.0805  0.0064
  665MOL0     C89705   2.121   4.694   0.809 -0.3873 -0.1472 -0.3880
  665MOL0     C89706   2.278   5.146   1.305  0.0802 -0.5184 -0.3126
  665MOL0     C89707   2.183   5.247   1.269  0.8001 -0.2541 -0.6679
  665MOL0     H89708   1.776   5.385   1.068  3.1547 -0.0494  0.6390
  665MOL0     H89709   1.637   5.575   0.954  0.6674  0.9808 -1.8444
  665MOL0     H89710   1.744   6.023   1.024  0.6479 -0.7875  0.9771
  665MOL0     H89711   1.872   5.930   0.943  0.4510  2.5240  1.7303
  665MOL0     H89712   1.738   5.945   0.741  3.9663 -0.8726  0.8688
  665MOL0     H89713   1.627   6.053   0.837 -0.4084 -2.3623  4.4762
  665MOL0     H89714   1.845   6.224   0.825 -0.8039 -0.6527  0.8239
  665MOL0     H89715   1.909   6.090   0.723 -0.3060 -4.6149  3.4874
  665MOL0     H89716   1.692   6.127   0.592 -0.1762 -1.1901 -0.1303
  665MOL0     H89717   1.646   6.259   0.694  2.5865  2.3576  2.2113
  665MOL0     H89718   1.828   6.403   0.595 -1.6888 -0.4742  0.8337
  665MOL0     H89719   1.918   6.263   0.553  0.3344  0.1201  2.0211
  665MOL0     H89720   1.766   6.208   0.366 -0.8357  1.0134 -2.2644
  665MOL0     H89721   1.637   6.302   0.422  0.5652 -0.5422 -2.0422
  665MOL0     H89722   1.849   6.497   0.390  2.1429 -0.6616 -1.5518
  665MOL0     H89723   1.890   6.367   0.280 -0.2796  2.3589 -1.4472
  665MOL0     H89724   1.734   6.497   0.137  2.3838  1.1559  1.0283
  665MOL0     H89725   1.621   6.505   0.290 -1.1699 -2.3398  1.0197
  665MOL0     H89726   1.786   6.253   0.076  0.4038 -0.7495  1.3286
  665MOL0     H89727   1.507   5.994  -0.021  0.0359 -0.8300  1.3803
  665MOL0     H89728   1.674   6.034  -0.067  0.5298  1.3708  0.0245
  665MOL0     H89729   1.615   5.889   0.211  2.6915 -3.6808  0.7219
  665MOL0     H89730   1.763   5.948   0.145 -0.2216  1.1368  0.4962
  665MOL0     H89731   1.709   5.750  -0.047  1.7669  1.4872  0.2568
  665MOL0     H89732   1.555   5.741   0.030 -0.1870  1.8291  0.4628
  665MOL0     H89733   1.671   5.579   0.114  0.1209  0.5711 -2.8513
  665MOL0     H89734   1.707   5.702   0.245  0.4545 -0.9369  0.7545
  665MOL0     H89735   1.743   5.463   0.002 -1.5882 -0.6688 -1.9525
  665MOL0     H89736   1.890   5.232  -0.223  0.7884  0.8081  0.3480
  665MOL0     H89737   1.842   5.132  -0.070 -3.4291 -0.1888  0.2952
  665MOL0     H89738   1.733   5.258  -0.131 -0.3236 -0.2447 -0.7209
  665MOL0     H89739   2.518   5.227   0.047  0.1508 -0.3613  0.2801
  665MOL0     H89740   2.706   5.090   0.004 -0.2847  0.3246  2.3955
  665MOL0     H89741   2.636   4.719  -0.028  0.0931  0.6694  0.2897
  665MOL0     H89742   2.643   4.708  -0.213 -3.0026  3.4817 -0.5131
  665MOL0     H89743   2.821   4.562  -0.135  3.9201  0.1830 -3.8472
  665MOL0     H89744   2.905   4.717  -0.171 -0.4604  5.9747  1.4722
  665MOL0     H89745   2.830   4.641   0.115  0.1749 -2.3632 -1.4923
  665MOL0     H89746   2.885   4.796   0.059  0.7645  0.4747  0.2787
  665MOL0     H89747   3.053   4.659   0.165  0.1983  1.6933 -0.9224
  665MOL0     H89748   3.042   4.549   0.027  1.2620 -0.4834  1.8873
  665MOL0     H89749   3.106   4.753  -0.122  0.7406  0.0171 -0.7386
  665MOL0     H89750   3.232   4.676  -0.015 -0.1368  1.1077 -2.6030
  665MOL0     H89751   3.085   4.924   0.054  0.7386  0.3873 -0.5164
  665MOL0     H89752   3.209   4.846   0.151 -0.6901 -4.8204 -0.9740
  665MOL0     H89753   3.341   4.876  -0.101  1.9425 -0.8107  1.1354
  665MOL0     H89754   3.350   4.989   0.041 -0.8483 -0.4332 -0.0968
  665MOL0     H89755   3.127   4.996  -0.162 -2.1485  2.7710  0.2518
  665MOL0     H89756   3.280   5.053  -0.219 -1.4497 -2.0177 -0.8501
  665MOL0     H89757   2.481   4.843  -0.240  2.2522  0.0615  0.2559
  665MOL0     H89758   2.286   4.957  -0.197  1.4101  3.0615 -3.2262
  665MOL0     H89759   2.239   5.441   0.040  0.6183  0.9279 -0.9364
  665MOL0     H89760   2.130   5.599   0.129 -0.3292 -1.8961  1.0311
  665MOL0     H89761   1.881   5.865   1.146 -0.0142  0.5563 -1.0540
  665MOL0     H89762   1.993   5.675   1.279 -1.6297  0.6311  1.4228
  665MOL0     H89763   1.921   5.102   1.428  1.2296 -1.9285  2.3767
  665MOL0     H89764   2.097   4.937   1.497  0.1858 -0.0077  0.0421
  665MOL0     H89765   2.390   4.756   1.337  1.9125  2.0604 -2.1394
  665MOL0     H89766   2.213   4.761   1.367 -2.5010  3.1861  1.7105
  665MOL0     H89767   2.392   4.898   1.172 -0.2590 -0.4737  0.7869
  665MOL0     H89768   2.218   4.912   1.147  2.4330  2.2602 -0.7821
  665MOL0     H89769   2.190   4.667   1.133 -0.9242  3.0188  1.7627
  665MOL0     H89770   2.368   4.648   1.144  1.8862  3.1736 -0.8634
  665MOL0     H89771   2.383   4.614   0.950  0.3808  0.4559 -0.6584
  665MOL0     H89772   2.397   4.798   0.949  1.8075 -1.6812  0.3062
  665MOL0     H89773   2.038   4.687   0.743  0.8144  1.6763 -2.2003
  665MOL0     H89774   2.380   5.146   1.269  1.1495 -0.7255  2.4746
  665MOL0     H89775   2.212   5.333   1.209  1.0738  0.1133 -0.0175
  666MOL0     O89776  10.180  10.997   5.016  0.1734  0.0382 -0.5054
  666MOL0     C89777  10.246  11.070   5.088 -0.0732  0.4447 -0.3048
  666MOL0     O89778  10.276  11.199   5.064 -0.2455  0.7553 -0.0818
  666MOL0     C89779  10.252  11.261   4.943 -0.6131  0.0441  0.2430
  666MOL0     C89780  10.236  11.198   4.819 -0.3805 -0.2840 -0.6263
  666MOL0     C89781  10.204  11.273   4.707  0.5074  0.7175 -0.1422
  666MOL0     C89782  10.179  11.407   4.710 -0.4849  0.1811  0.4864
  666MOL0     O89783  10.125  11.477   4.597 -0.9651  0.3504  0.2698
  666MOL0     C89784  10.006  11.555   4.600 -0.5307  0.9044 -1.3719
  666MOL0     C89785  10.020  11.667   4.510 -0.6084 -0.5864 -0.2107
  666MOL0     C89786   9.989  11.644   4.363  0.5016 -0.2414  0.5899
  666MOL0     C89787  10.009  11.766   4.274 -0.9924 -0.4327  0.1115
  666MOL0     C89788   9.951  11.757   4.125  0.3456  0.2671  0.4294
  666MOL0     C89789  10.028  11.651   4.053 -0.9144 -0.0458  1.3669
  666MOL0     C89790   9.967  11.652   3.906  0.4519  1.4069  1.0729
  666MOL0     C89791  10.024  11.752   3.822  0.3206  0.5709  0.7559
  666MOL0     N89792   9.933  11.788   3.719 -0.1656 -0.1141  0.8473
  666MOL0     C89793   9.821  11.870   3.755 -0.7439  0.7441 -1.2408
  666MOL0     C89794   9.772  11.912   3.642  0.2808  0.6782  0.1784
  666MOL0     C89795   9.638  11.989   3.629 -0.1087  0.9369  0.3361
  666MOL0     C89796   9.628  12.107   3.712  0.5586  0.6988 -0.5993
  666MOL0     C89797   9.481  12.142   3.741 -0.2444 -0.2101  0.1854
  666MOL0     C89798   9.443  12.249   3.835 -0.0008  0.9200 -0.5720
  666MOL0     O89799   9.535  12.261   3.944  0.7184  0.4302  0.1333
  666MOL0     C89800   9.500  12.214   4.074  0.3411 -0.2654  0.4245
  666MOL0     C89801   9.370  12.207   4.126 -1.0008 -0.0249  0.4934
  666MOL0     C89802   9.351  12.189   4.256  0.2910 -0.2763 -0.5449
  666MOL0     C89803   9.211  12.170   4.293 -0.1675  0.1918 -0.4501
  666MOL0     C89804   9.461  12.189   4.353  0.0123 -0.7270  0.1871
  666MOL0     C89805   9.432  12.193   4.496 -0.1290  0.8862  0.1722
  666MOL0     O89806   9.360  12.097   4.558  0.0066  0.1388  0.4271
  666MOL0     C89807   9.336  12.078   4.688  0.8614  0.9637 -1.3970
  666MOL0     C89808   9.431  12.032   4.767 -0.1273 -1.1426 -0.1344
  666MOL0     C89809   9.420  12.011   4.901  0.6561  0.9488 -0.3148
  666MOL0     C89810   9.290  12.014   4.963  0.2093  0.1533  0.0636
  666MOL0     O89811   9.277  11.987   5.105  0.1076  0.3099 -0.2396
  666MOL0     C89812   9.394  12.011   5.190  1.3107  0.0635 -0.8842
  666MOL0     C89813   9.353  11.943   5.326 -0.4940 -0.6471 -0.1561
  666MOL0     C89814   9.262  11.821   5.311  0.2325 -0.2625  1.0476
  666MOL0     C89815   9.279  11.725   5.427  0.0821  1.1361 -0.8076
  666MOL0     C89816   9.200  11.598   5.385 -0.2243  0.0651 -0.3448
  666MOL0     C89817   9.207  11.488   5.490 -0.8888 -0.8268  0.4296
  666MOL0     C89818   9.127  11.366   5.453  0.7820 -0.1838 -0.0222
  666MOL0     C89819   9.091  11.281   5.571  0.2776  0.1545  0.0890
  666MOL0    Cl89820   9.106  11.346   5.739 -0.1347 -0.0268  0.0095
  666MOL0     C89821   9.180  12.036   4.871  0.2686 -0.3086  0.2680
  666MOL0     C89822   9.204  12.070   4.739 -0.2919 -0.2695  0.5460
  666MOL0     O89823   9.509  12.269   4.561 -0.5268 -0.4838  0.6588
  666MOL0     C89824   9.592  12.193   4.298  0.8531  0.1862 -0.3831
  666MOL0     C89825   9.606  12.201   4.161 -0.0151  0.1148 -0.8498
  666MOL0     N89826   9.864  11.881   3.543  0.1956 -0.0844 -0.5219
  666MOL0     N89827   9.948  11.795   3.584  0.6562  0.8206  0.2153
  666MOL0     C89828  10.194  11.473   4.834 -0.6232  0.0695 -0.2874
  666MOL0     C89829  10.234  11.395   4.950 -0.0575  0.1390 -0.7693
  666MOL0     C89830  10.285  11.014   5.220  1.3831 -0.3753  0.6258
  666MOL0     C89831  10.347  11.094   5.316 -0.2670  0.3158  0.7618
  666MOL0     C89832  10.382  11.053   5.444  0.6802  0.1747 -0.6866
  666MOL0     C89833  10.348  10.924   5.483  0.5024  0.2195 -0.0797
  666MOL0     O89834  10.367  10.884   5.619 -0.3218 -0.4400  0.0604
  666MOL0     C89835  10.329  10.971   5.724 -0.2384 -0.1420  0.3237
  666MOL0     C89836  10.362  10.906   5.868 -0.2625 -0.0392  0.8996
  666MOL0     C89837  10.515  10.902   5.906 -0.7087 -0.7032 -0.3214
  666MOL0     C89838  10.529  10.861   6.060 -0.3865  0.5138  0.4787
  666MOL0     C89839  10.559  10.713   6.080 -0.4923  0.2524 -0.2037
  666MOL0     C89840  10.615  10.608   6.092  0.0765  0.1144  0.1659
  666MOL0     C89841  10.288  10.840   5.392  0.3002  0.3975  0.6968
  666MOL0     C89842  10.261  10.881   5.262 -0.6426  0.2638  0.6067
  666MOL0     H89843  10.253  11.093   4.795  1.3677  0.4966 -3.1633
  666MOL0     H89844  10.210  11.218   4.614  6.6848  0.9700 -0.3564
  666MOL0     H89845   9.917  11.498   4.575 -0.0998 -0.4421  0.0715
  666MOL0     H89846   9.987  11.607   4.694 -3.0828  1.8094 -2.2991
  666MOL0     H89847   9.954  11.742   4.554  0.7309 -0.5571  1.9085
  666MOL0     H89848  10.122  11.705   4.525 -0.6219 -0.1118 -1.2619
  666MOL0     H89849  10.052  11.566   4.321 -0.8977 -1.8278  1.3015
  666MOL0     H89850   9.881  11.629   4.354 -0.1335  2.9074  1.4868
  666MOL0     H89851   9.960  11.844   4.332  2.5918  1.0447  1.4431
  666MOL0     H89852  10.117  11.786   4.280 -0.6269 -2.2863  0.5634
  666MOL0     H89853   9.844  11.738   4.135 -0.2800  3.1743  0.1212
  666MOL0     H89854   9.957  11.852   4.070 -0.7834  0.4475  0.5876
  666MOL0     H89855  10.131  11.688   4.057 -1.0857  0.7295 -0.3777
  666MOL0     H89856  10.031  11.550   4.096  1.7146 -0.3108  0.7541
  666MOL0     H89857   9.994  11.555   3.864 -2.0314 -0.0916  2.7184
  666MOL0     H89858   9.858  11.652   3.914  0.3853  1.5830  0.2144
  666MOL0     H89859  10.106  11.710   3.763 -0.6724 -1.3772  0.6882
  666MOL0     H89860  10.059  11.835   3.885 -0.7813  1.1241  0.6692
  666MOL0     H89861   9.789  11.882   3.858  1.6736  0.8885 -0.4425
  666MOL0     H89862   9.634  12.024   3.526  0.3663  1.9033  0.6288
  666MOL0     H89863   9.561  11.916   3.654 -0.1712  0.2417 -1.7484
  666MOL0     H89864   9.679  12.194   3.671  0.1845  1.9350  1.3891
  666MOL0     H89865   9.662  12.075   3.811 -3.5789 -0.1891  0.7476
  666MOL0     H89866   9.442  12.060   3.802  0.6571  0.0333  1.1086
  666MOL0     H89867   9.427  12.131   3.647 -3.2829  1.9622  1.5144
  666MOL0     H89868   9.340  12.234   3.869 -0.3010  2.4028 -0.7414
  666MOL0     H89869   9.457  12.344   3.782 -1.8641  2.9376  2.2351
  666MOL0     H89870   9.284  12.205   4.059  1.3742 -1.2517 -2.7402
  666MOL0     H89871   9.193  12.062   4.298  2.2601 -0.2455  0.0553
  666MOL0     H89872   9.182  12.221   4.385  3.0405 -1.8110  1.8755
  666MOL0     H89873   9.139  12.204   4.217 -2.0564 -1.5971  0.4161
  666MOL0     H89874   9.528  12.019   4.721  1.3008 -2.1260  2.8916
  666MOL0     H89875   9.510  12.013   4.962  0.6597 -2.5298  0.0021
  666MOL0     H89876   9.485  11.960   5.157  1.9199  1.4766 -1.4526
  666MOL0     H89877   9.410  12.119   5.190  1.4649  0.0412 -0.6868
  666MOL0     H89878   9.446  11.919   5.377  0.0602  2.2909  0.3402
  666MOL0     H89879   9.305  12.025   5.381  0.2597  0.4759 -1.1462
  666MOL0     H89880   9.278  11.765   5.218  1.0809  0.5187  0.7093
  666MOL0     H89881   9.158  11.855   5.305 -0.6027 -2.5142  1.5459
  666MOL0     H89882   9.386  11.708   5.445  0.2460  2.1471 -0.7621
  666MOL0     H89883   9.228  11.759   5.518 -2.9666  1.6386 -2.5599
  666MOL0     H89884   9.227  11.554   5.288  1.5581 -0.7123  0.4597
  666MOL0     H89885   9.094  11.625   5.381 -1.1237 -2.5915  1.9391
  666MOL0     H89886   9.314  11.469   5.502 -0.2604  2.0348 -0.1312
  666MOL0     H89887   9.173  11.537   5.582  1.0114  0.1371  0.6688
  666MOL0     H89888   9.174  11.301   5.379  2.1064  1.0280 -0.2916
  666MOL0     H89889   9.036  11.401   5.405  2.5584  0.5073 -3.1410
  666MOL0     H89890   9.154  11.191   5.567  0.2857  0.1364  0.6248
  666MOL0     H89891   8.985  11.261   5.552  0.0821  2.2001 -1.2583
  666MOL0     H89892   9.083  12.042   4.920 -0.1776 -3.1970 -0.1221
  666MOL0     H89893   9.122  12.107   4.678  0.8249  0.0431 -0.8184
  666MOL0     H89894   9.683  12.202   4.357  1.6089 -0.6568 -1.3619
  666MOL0     H89895   9.706  12.220   4.123  0.2491  1.8083  0.5598
  666MOL0     H89896  10.180  11.581   4.842 -2.0560 -0.2249  2.1334
  666MOL0     H89897  10.261  11.435   5.047  1.1681 -3.2835  0.4311
  666MOL0     H89898  10.369  11.197   5.290 -1.2603  0.0409 -1.3966
  666MOL0     H89899  10.429  11.130   5.505  0.9442 -0.4092 -0.1510
  666MOL0     H89900  10.388  11.063   5.731 -0.8398  0.1246  3.1379
  666MOL0     H89901  10.224  11.001   5.710 -1.1001 -3.5121 -1.6395
  666MOL0     H89902  10.315  10.807   5.871 -0.3601  0.0281  2.6920
  666MOL0     H89903  10.317  10.964   5.949  0.4957 -2.6372  3.3547
  666MOL0     H89904  10.561  11.000   5.890 -1.4784 -0.0393  1.2844
  666MOL0     H89905  10.578  10.835   5.847  0.4811  0.8796 -0.8872
  666MOL0     H89906  10.439  10.882   6.118 -2.4622 -2.5927 -1.3275
  666MOL0     H89907  10.618  10.912   6.098 -0.7012  3.5778 -2.4078
  666MOL0     H89908  10.655  10.509   6.097 -1.7062 -0.8082 -2.0385
  666MOL0     H89909  10.271  10.733   5.398 -0.9727  0.1446 -3.5500
  666MOL0     H89910  10.237  10.806   5.187  2.6305  0.4124 -0.7330
  667MOL0     O89911   5.180   3.564   6.201 -0.7716  0.4096 -0.2657
  667MOL0     C89912   5.084   3.587   6.131  0.8400  0.4270 -0.2705
  667MOL0     O89913   5.093   3.655   6.012  0.1508 -0.9136 -0.0466
  667MOL0     C89914   5.210   3.695   5.958 -0.5565 -1.9175  0.1508
  667MOL0     C89915   5.257   3.822   5.983 -0.4383 -0.8838 -0.4451
  667MOL0     C89916   5.387   3.855   5.927  0.5589 -0.6349  0.3588
  667MOL0     C89917   5.464   3.756   5.865 -0.4457  0.0777  0.8772
  667MOL0     O89918   5.599   3.779   5.842 -0.1956  0.1139  0.4714
  667MOL0     C89919   5.662   3.867   5.939 -0.0508 -0.1758 -0.4585
  667MOL0     C89920   5.811   3.819   5.941 -0.1197 -0.5968  0.3921
  667MOL0     C89921   5.919   3.925   5.973  0.4622  1.3000 -0.3188
  667MOL0     C89922   5.946   3.938   6.122 -0.5584 -0.3420  0.4823
  667MOL0     C89923   5.998   4.082   6.158 -0.0582 -0.4691 -0.5660
  667MOL0     C89924   6.143   4.093   6.096 -0.0152  0.4550  0.1100
  667MOL0     C89925   6.245   4.031   6.192 -0.4890  0.6836  0.2716
  667MOL0     C89926   6.388   4.100   6.175  0.0708  0.3022  1.2909
  667MOL0     N89927   6.484   4.093   6.290  0.6680 -0.7246  0.0785
  667MOL0     C89928   6.456   4.160   6.405  0.4387  0.7697 -1.5004
  667MOL0     C89929   6.567   4.171   6.473  0.7617 -0.2748 -0.9067
  667MOL0     C89930   6.574   4.247   6.604 -0.6233 -1.0896 -0.2574
  667MOL0     C89931   6.661   4.376   6.614 -0.2716  0.5001  0.5002
  667MOL0     C89932   6.636   4.498   6.521 -0.4216  0.0539  0.0307
  667MOL0     C89933   6.719   4.498   6.388 -0.0443 -0.3208  0.2186
  667MOL0     O89934   6.678   4.594   6.290 -0.2753  0.6017 -0.1690
  667MOL0     C89935   6.743   4.723   6.289  0.0030  0.6515 -0.1482
  667MOL0     C89936   6.800   4.802   6.396  1.0883  1.2235 -0.1153
  667MOL0     C89937   6.890   4.910   6.372  0.2808  0.4583 -0.7279
  667MOL0     C89938   6.950   4.979   6.497 -0.3255  0.0803  0.0199
  667MOL0     C89939   6.904   4.961   6.244 -0.0059 -0.2969  0.3465
  667MOL0     C89940   6.962   5.093   6.221  0.7540  0.6263  0.3042
  667MOL0     O89941   6.887   5.182   6.157 -0.0596  0.0406  0.2800
  667MOL0     C89942   6.944   5.307   6.140 -0.6903  0.0664  0.9402
  667MOL0     C89943   6.862   5.412   6.171 -0.1042  0.0324  0.7938
  667MOL0     C89944   6.881   5.543   6.123 -0.7636  0.4685 -0.0603
  667MOL0     C89945   7.014   5.579   6.079 -0.5878 -0.1362  0.4763
  667MOL0     O89946   7.059   5.709   6.057  0.3088  0.0557  0.4745
  667MOL0     C89947   6.985   5.774   5.946 -0.5067 -0.3693  0.1654
  667MOL0     C89948   7.056   5.747   5.823  0.3869  0.3661 -0.2075
  667MOL0     C89949   7.200   5.765   5.838 -0.3284 -0.9560 -0.6633
  667MOL0     C89950   7.282   5.741   5.711  0.9318  0.5441 -0.1473
  667MOL0     C89951   7.290   5.582   5.692 -1.3292 -1.2963 -0.0095
  667MOL0     C89952   7.298   5.535   5.549 -0.3762 -0.1459  0.2377
  667MOL0     C89953   7.437   5.576   5.488 -0.6364 -0.3057  0.1215
  667MOL0     C89954   7.544   5.472   5.508 -0.5318 -0.2027  0.7295
  667MOL0    Cl89955   7.610   5.474   5.674 -0.2430  0.2402 -0.1518
  667MOL0     C89956   7.105   5.471   6.066  0.2560 -0.3922 -0.1615
  667MOL0     C89957   7.074   5.340   6.085  0.4479  0.3023 -0.0654
  667MOL0     O89958   7.080   5.106   6.255 -0.4488 -0.1438 -0.5855
  667MOL0     C89959   6.842   4.889   6.145 -0.1893 -0.1505  0.2873
  667MOL0     C89960   6.763   4.773   6.165 -0.5495 -0.3234 -0.6817
  667MOL0     N89961   6.659   4.121   6.396 -0.3057 -0.1206  0.2013
  667MOL0     N89962   6.619   4.095   6.280  0.6171 -0.2809 -0.2688
  667MOL0     C89963   5.405   3.637   5.829 -0.0378  0.2471 -0.0999
  667MOL0     C89964   5.282   3.607   5.876  0.5628  0.8185 -0.4618
  667MOL0     C89965   4.948   3.558   6.192 -0.6684 -0.2954 -0.0119
  667MOL0     C89966   4.852   3.652   6.188 -0.3129 -0.1531 -1.3583
  667MOL0     C89967   4.726   3.631   6.247  0.3560  1.0129 -0.0254
  667MOL0     C89968   4.701   3.504   6.315 -0.1610  0.0819  0.2386
  667MOL0     O89969   4.584   3.472   6.376  0.1083  0.1447  0.1897
  667MOL0     C89970   4.494   3.577   6.418 -0.5439  1.1792 -0.2426
  667MOL0     C89971   4.540   3.655   6.542 -0.2883 -0.4084 -0.5022
  667MOL0     C89972   4.603   3.555   6.648  1.2473  0.0935  1.4213
  667MOL0     C89973   4.615   3.612   6.793 -0.1451 -0.6952 -0.6102
  667MOL0     C89974   4.661   3.524   6.894  0.3928 -0.0149  0.5156
  667MOL0     C89975   4.690   3.426   6.960 -0.3506 -1.6554  0.2637
  667MOL0     C89976   4.798   3.400   6.313 -0.0314  0.1080  0.3979
  667MOL0     C89977   4.915   3.427   6.238  0.4975  0.2612 -0.0850
  667MOL0     H89978   5.200   3.899   6.034 -1.6016 -1.2842 -1.0843
  667MOL0     H89979   5.411   3.961   5.930 -3.4922  0.5528 -1.7626
  667MOL0     H89980   5.665   3.975   5.919  1.4872  0.5754  3.1136
  667MOL0     H89981   5.614   3.850   6.036 -1.4440 -1.1298 -1.2853
  667MOL0     H89982   5.817   3.737   6.013 -2.8389  0.9645  2.6041
  667MOL0     H89983   5.845   3.792   5.841  0.4220  2.6043 -0.3888
  667MOL0     H89984   6.013   3.903   5.922  1.6076 -1.1763  2.5678
  667MOL0     H89985   5.886   4.022   5.935 -0.2276  3.3350  4.6229
  667MOL0     H89986   5.856   3.909   6.176 -1.6050 -0.4191 -1.2606
  667MOL0     H89987   6.026   3.880   6.169 -2.5168 -0.9861  3.3149
  667MOL0     H89988   5.927   4.159   6.124 -1.0249 -1.3304 -0.5316
  667MOL0     H89989   6.012   4.109   6.263  0.0473 -0.0438 -0.6860
  667MOL0     H89990   6.154   4.046   5.999 -0.0294  1.2439 -0.2814
  667MOL0     H89991   6.157   4.198   6.069 -0.2339 -0.0549 -2.1012
  667MOL0     H89992   6.212   4.042   6.296 -1.7184  0.9185 -0.1283
  667MOL0     H89993   6.254   3.923   6.177 -1.9913 -0.1412  4.0898
  667MOL0     H89994   6.373   4.203   6.144 -0.3709 -0.4498 -1.2113
  667MOL0     H89995   6.442   4.048   6.095  3.2095  3.4133  1.1347
  667MOL0     H89996   6.359   4.194   6.439 -0.1159 -2.0466  0.0787
  667MOL0     H89997   6.473   4.282   6.626  0.0288  0.4396  0.4493
  667MOL0     H89998   6.594   4.172   6.681 -1.5782 -2.3925 -1.2403
  667MOL0     H89999   6.763   4.343   6.592 -1.1888 -2.5251  0.2985
  667MOL0     H90000   6.651   4.408   6.718 -4.5424 -0.9899  0.7653
  667MOL0     H90001   6.659   4.587   6.580 -0.5180  1.0743 -1.4116
  667MOL0     H90002   6.527   4.502   6.509 -0.4014 -0.2728 -0.2743
  667MOL0     H90003   6.701   4.397   6.350  0.5936 -0.0234 -0.9063
  667MOL0     H90004   6.821   4.513   6.425  0.5004 -3.0952  0.0723
  667MOL0     H90005   6.771   4.771   6.496 -0.8494  1.0598 -0.6820
  667MOL0     H90006   6.919   5.083   6.488  2.7753  0.9324 -2.4912
  667MOL0     H90007   6.908   4.937   6.589 -2.6804  3.0820  0.4647
  667MOL0     H90008   7.059   4.978   6.495 -0.3276  0.1339 -0.1353
  667MOL0     H90009   6.764   5.389   6.210 -0.7497 -0.6979 -1.1711
  667MOL0     H90010   6.803   5.613   6.154 -2.2033 -1.9172  2.1047
  667MOL0     H90011   6.879   5.750   5.951 -0.0970 -2.3350  0.1036
  667MOL0     H90012   6.993   5.882   5.960 -3.6835 -0.3407  2.9045
  667MOL0     H90013   7.040   5.644   5.791 -1.5650 -0.4846  2.9879
  667MOL0     H90014   7.025   5.813   5.742 -1.6531 -2.6873 -2.1157
  667MOL0     H90015   7.250   5.693   5.903  1.8561 -0.3467 -1.6043
  667MOL0     H90016   7.228   5.863   5.878 -0.0222 -1.1592 -0.3711
  667MOL0     H90017   7.222   5.785   5.631 -1.7710  0.7222  1.8372
  667MOL0     H90018   7.377   5.797   5.714 -0.1435  2.4263  0.5950
  667MOL0     H90019   7.202   5.526   5.725 -1.9640 -2.1059 -2.7842
  667MOL0     H90020   7.372   5.544   5.752 -0.3401 -3.7615 -2.6601
  667MOL0     H90021   7.297   5.427   5.568 -2.0500 -0.3254 -0.6164
  667MOL0     H90022   7.214   5.549   5.480 -1.3383 -2.3989  0.8436
  667MOL0     H90023   7.475   5.673   5.521 -3.3701  0.6240  0.8080
  667MOL0     H90024   7.423   5.578   5.380 -2.7124 -0.4127  0.3476
  667MOL0     H90025   7.623   5.489   5.435 -0.6506  2.6417  1.1462
  667MOL0     H90026   7.500   5.372   5.495  1.4547 -1.6701  3.8195
  667MOL0     H90027   7.202   5.513   6.040 -0.1089  1.1156  0.7473
  667MOL0     H90028   7.151   5.265   6.079 -0.1894 -0.6113  1.9860
  667MOL0     H90029   6.840   4.928   6.044 -1.6565 -1.1115 -0.0819
  667MOL0     H90030   6.719   4.729   6.076 -1.6845  2.0475 -1.3646
  667MOL0     H90031   5.473   3.570   5.776  0.8583 -0.0482  1.3584
  667MOL0     H90032   5.232   3.514   5.852  2.2141  0.0777 -1.1772
  667MOL0     H90033   4.893   3.741   6.141  2.4803 -1.0089 -0.7225
  667MOL0     H90034   4.659   3.714   6.228 -1.7653 -0.9547 -1.6366
  667MOL0     H90035   4.471   3.642   6.333  0.0169 -0.5181 -1.7554
  667MOL0     H90036   4.398   3.529   6.441  0.3736 -1.5182 -1.5983
  667MOL0     H90037   4.466   3.720   6.590  2.7668  0.4684  3.5909
  667MOL0     H90038   4.625   3.717   6.514  0.4577 -0.8436  0.7451
  667MOL0     H90039   4.695   3.521   6.601  0.3226 -1.0317  0.3352
  667MOL0     H90040   4.540   3.465   6.650 -1.1737  1.4345 -2.5088
  667MOL0     H90041   4.512   3.642   6.814  0.5902  4.0947 -2.4639
  667MOL0     H90042   4.679   3.701   6.797 -1.4836  0.2642  2.0020
  667MOL0     H90043   4.702   3.342   7.025 -0.9404 -2.2567 -0.3807
  667MOL0     H90044   4.785   3.305   6.363 -2.9025  0.0308 -0.3119
  667MOL0     H90045   4.988   3.347   6.230  1.2415  0.7532  1.4574
  668MOL0     O90046  10.601   8.462   2.523  0.7118  0.8582 -0.1218
  668MOL0     C90047  10.607   8.511   2.410 -0.5272  1.0753  0.2205
  668MOL0     O90048  10.599   8.638   2.371  0.8554  0.2594 -0.2182
  668MOL0     C90049  10.552   8.727   2.471  0.1341  0.2447 -0.2347
  668MOL0     C90050  10.592   8.743   2.602  0.5521  0.7904 -0.5541
  668MOL0     C90051  10.551   8.850   2.677 -1.3345  1.3249 -0.4272
  668MOL0     C90052  10.444   8.933   2.633  0.8927 -0.4573  0.1921
  668MOL0     O90053  10.412   9.047   2.715 -0.8433  0.4023 -0.3558
  668MOL0     C90054  10.274   9.071   2.746 -0.0810  0.0780 -0.1406
  668MOL0     C90055  10.261   9.102   2.893 -0.2951 -0.0643 -0.2504
  668MOL0     C90056  10.115   9.150   2.923 -0.3599  0.3949 -0.0651
  668MOL0     C90057  10.089   9.185   3.064 -0.0414 -0.6520  2.0938
  668MOL0     C90058  10.066   9.080   3.163 -0.0703 -0.2026  0.5355
  668MOL0     C90059  10.059   9.144   3.304  0.3450  0.2958 -0.9277
  668MOL0     C90060  10.022   9.043   3.415 -0.3361 -0.8662  0.6772
  668MOL0     C90061   9.993   9.109   3.552 -0.6971  0.4839 -0.2370
  668MOL0     N90062   9.890   9.206   3.546  0.6183 -0.5981 -0.5646
  668MOL0     C90063   9.758   9.173   3.495 -0.7384  0.6949 -0.3393
  668MOL0     C90064   9.687   9.285   3.519  0.8183  0.5533  0.4746
  668MOL0     C90065   9.554   9.323   3.460  0.3785 -0.4421 -0.2301
  668MOL0     C90066   9.523   9.258   3.324  0.1456  0.2395  0.0978
  668MOL0     C90067   9.421   9.323   3.245  0.3578 -0.1456  0.9006
  668MOL0     C90068   9.283   9.314   3.312 -0.0154  0.5606  0.4933
  668MOL0     O90069   9.199   9.393   3.231 -0.3388  0.0013  0.3745
  668MOL0     C90070   9.066   9.344   3.198  0.1040 -0.2523 -0.1500
  668MOL0     C90071   8.993   9.414   3.104  0.4286 -0.8319 -0.6333
  668MOL0     C90072   8.861   9.384   3.071  0.9820  0.8401  0.3552
  668MOL0     C90073   8.782   9.477   2.978 -0.0290  0.6585 -0.4100
  668MOL0     C90074   8.789   9.274   3.134  0.8632 -0.2207  0.1738
  668MOL0     C90075   8.655   9.218   3.104  0.5468 -0.7456  0.0866
  668MOL0     O90076   8.603   9.249   2.973 -1.1465 -0.7733  0.2852
  668MOL0     C90077   8.511   9.176   2.917  0.8797 -1.4686 -0.1835
  668MOL0     C90078   8.390   9.244   2.868 -1.0945  0.2725  0.1244
  668MOL0     C90079   8.285   9.171   2.817  0.4047  0.4934 -0.3128
  668MOL0     C90080   8.302   9.033   2.786  0.1831  0.4130 -0.9614
  668MOL0     O90081   8.210   8.969   2.709 -0.4740 -0.6944  0.0681
  668MOL0     C90082   8.130   9.048   2.622 -0.1488  0.6546  1.0460
  668MOL0     C90083   8.056   8.958   2.522  0.3286  1.4028  0.6302
  668MOL0     C90084   7.978   9.036   2.431  0.6128 -0.6626  0.7052
  668MOL0     C90085   7.875   8.957   2.346  0.6934  0.0090 -0.6158
  668MOL0     C90086   7.780   9.025   2.240  0.2178  0.3472  0.1375
  668MOL0     C90087   7.662   8.944   2.183 -0.8966 -0.3086  0.0454
  668MOL0     C90088   7.578   9.042   2.105  0.0228  0.2035 -1.0890
  668MOL0     C90089   7.496   8.956   2.012 -0.1484  0.7403  0.8716
  668MOL0    Cl90090   7.362   8.904   2.106 -0.2704  0.1329  0.1967
  668MOL0     C90091   8.418   8.961   2.838 -0.1797  0.4798  0.2232
  668MOL0     C90092   8.511   9.032   2.918  0.3611  0.1974  0.3202
  668MOL0     O90093   8.602   9.143   3.184 -0.0738  0.4556 -0.6206
  668MOL0     C90094   8.870   9.209   3.227  0.5401 -0.1453 -0.2763
  668MOL0     C90095   9.000   9.247   3.263 -0.8077  0.1112 -0.4339
  668MOL0     N90096   9.772   9.371   3.581  0.7503 -0.9020  0.5912
  668MOL0     N90097   9.895   9.331   3.589 -0.0033  0.1071 -0.0946
  668MOL0     C90098  10.387   8.907   2.510  0.0273 -0.0500 -0.3848
  668MOL0     C90099  10.444   8.809   2.426  0.3098  0.8989 -1.0138
  668MOL0     C90100  10.605   8.400   2.299  0.1068  0.2465 -0.0929
  668MOL0     C90101  10.580   8.268   2.337  1.2987  0.3828 -0.0704
  668MOL0     C90102  10.597   8.164   2.252  0.3793  0.7976  0.5550
  668MOL0     C90103  10.642   8.181   2.119 -0.5773  0.2730 -0.9465
  668MOL0     O90104  10.668   8.076   2.033 -0.6045  0.0034 -0.5875
  668MOL0     C90105  10.571   7.979   2.005  0.3623  0.7159 -0.8868
  668MOL0     C90106  10.436   8.038   1.957 -0.4051  0.1849  0.7897
  668MOL0     C90107  10.446   8.124   1.826  0.1619  0.6229  0.1564
  668MOL0     C90108  10.502   8.051   1.706  1.1650 -0.8273 -0.0646
  668MOL0     C90109  10.387   7.966   1.646 -0.2265  0.5265  0.2172
  668MOL0     C90110  10.283   7.909   1.609 -0.2027 -0.4239 -0.3901
  668MOL0     C90111  10.667   8.314   2.082 -0.0528  0.1548 -0.8443
  668MOL0     C90112  10.639   8.429   2.163  0.8797  0.1912  0.0267
  668MOL0     H90113  10.664   8.677   2.650 -1.5628 -1.7082 -0.5598
  668MOL0     H90114  10.597   8.872   2.773 -0.4928 -0.1756 -0.4702
  668MOL0     H90115  10.231   9.155   2.691  0.1191  1.2280  1.4075
  668MOL0     H90116  10.206   8.986   2.730  0.5567 -0.9761  2.3323
  668MOL0     H90117  10.287   9.020   2.961 -0.8914 -0.6894 -0.7580
  668MOL0     H90118  10.335   9.179   2.915  0.2651 -0.4368 -0.8163
  668MOL0     H90119  10.088   9.236   2.861 -1.9235  0.5127  0.7242
  668MOL0     H90120  10.044   9.071   2.896 -0.4913  0.0735  1.1265
  668MOL0     H90121  10.171   9.248   3.101  1.3672 -0.6325 -0.7649
  668MOL0     H90122   9.996   9.241   3.051 -0.9976 -2.3292  1.4372
  668MOL0     H90123   9.982   9.015   3.135  0.4204 -1.1957  1.3176
  668MOL0     H90124  10.143   9.003   3.160  0.8108  0.6603  0.4321
  668MOL0     H90125  10.155   9.191   3.326 -0.1233  1.7232 -1.7801
  668MOL0     H90126   9.982   9.221   3.297  1.8586  1.7511 -2.2973
  668MOL0     H90127   9.929   8.995   3.386  0.1904 -2.4208  1.4589
  668MOL0     H90128  10.101   8.967   3.411  1.4959  0.9094 -3.6758
  668MOL0     H90129  10.082   9.166   3.580  1.1039 -0.5119 -3.3406
  668MOL0     H90130   9.981   9.043   3.638 -0.2080 -0.3916 -0.8277
  668MOL0     H90131   9.741   9.087   3.431  1.1692  0.8740 -1.1630
  668MOL0     H90132   9.484   9.293   3.539  1.8671  0.2067  1.4109
  668MOL0     H90133   9.549   9.432   3.447  1.0755 -0.1788  1.3551
  668MOL0     H90134   9.505   9.153   3.348  1.0292 -0.2305 -1.1776
  668MOL0     H90135   9.610   9.254   3.257 -1.2804  1.0525 -1.9252
  668MOL0     H90136   9.412   9.276   3.146 -2.0997  0.0463  0.9744
  668MOL0     H90137   9.433   9.429   3.218 -4.9862  0.8847  1.3564
  668MOL0     H90138   9.268   9.335   3.418 -2.5695 -1.4832  0.6626
  668MOL0     H90139   9.247   9.211   3.307 -2.9704  1.5006  0.3810
  668MOL0     H90140   9.028   9.502   3.051 -1.2851  0.6417  0.5281
  668MOL0     H90141   8.829   9.453   2.883  2.5563 -0.6422  1.0688
  668MOL0     H90142   8.673   9.473   2.985 -0.2656 -2.9131 -3.3444
  668MOL0     H90143   8.796   9.581   3.010 -2.4630  0.9767 -0.2081
  668MOL0     H90144   8.371   9.351   2.869 -0.7592  0.3646 -1.5594
  668MOL0     H90145   8.200   9.230   2.784 -0.8415 -1.9867 -1.8335
  668MOL0     H90146   8.061   9.104   2.687 -1.0109  1.7255 -0.7218
  668MOL0     H90147   8.189   9.119   2.564  1.9827 -0.7821  1.3359
  668MOL0     H90148   8.122   8.885   2.473 -0.0473 -0.2477  2.4580
  668MOL0     H90149   7.988   8.894   2.579 -3.0357  2.1757 -2.1586
  668MOL0     H90150   8.041   9.104   2.373 -3.9135  0.8574 -3.1006
  668MOL0     H90151   7.917   9.104   2.493  2.9010  1.8020  0.4314
  668MOL0     H90152   7.941   8.881   2.304  4.2613  1.9583  1.0076
  668MOL0     H90153   7.801   8.910   2.411 -1.8390  4.1999 -0.0562
  668MOL0     H90154   7.845   9.049   2.155  2.2901  0.6590  1.7130
  668MOL0     H90155   7.743   9.121   2.280 -0.6242  0.4607 -0.8932
  668MOL0     H90156   7.712   8.868   2.121 -1.6434 -0.6216 -0.1865
  668MOL0     H90157   7.614   8.902   2.272 -2.5598  1.3197 -0.0288
  668MOL0     H90158   7.645   9.112   2.054  3.5689 -1.6575  0.6483
  668MOL0     H90159   7.511   9.092   2.175 -1.0697  0.0481 -2.0022
  668MOL0     H90160   7.550   8.868   1.977  0.5958  0.2096  3.1532
  668MOL0     H90161   7.483   9.028   1.930 -1.1322  0.6518  0.9395
  668MOL0     H90162   8.422   8.854   2.819  2.1865  0.7830 -1.5107
  668MOL0     H90163   8.591   8.970   2.957 -1.9958 -2.1172  1.8516
  668MOL0     H90164   8.827   9.130   3.288 -0.2815  0.7724  0.3719
  668MOL0     H90165   9.045   9.195   3.346 -0.1968 -2.8385 -2.4575
  668MOL0     H90166  10.302   8.960   2.468 -0.2509  0.5098  0.8290
  668MOL0     H90167  10.409   8.800   2.323 -1.9322  0.9470 -0.2930
  668MOL0     H90168  10.561   8.246   2.442 -1.7938  4.0321  0.3501
  668MOL0     H90169  10.579   8.062   2.286 -1.3841  0.7214 -0.4572
  668MOL0     H90170  10.602   7.911   1.925 -0.1899  1.3435 -1.6556
  668MOL0     H90171  10.543   7.922   2.094 -1.2405 -0.0667 -1.8449
  668MOL0     H90172  10.391   8.093   2.040 -1.6322 -1.7804  1.5162
  668MOL0     H90173  10.368   7.953   1.942  2.3270 -1.9968 -0.1443
  668MOL0     H90174  10.518   8.205   1.845 -0.7333  1.1490  1.4847
  668MOL0     H90175  10.348   8.169   1.808  0.5623  2.1488  1.5063
  668MOL0     H90176  10.595   8.002   1.738 -0.2602 -2.8013  1.2584
  668MOL0     H90177  10.529   8.122   1.627 -3.0388 -0.9523 -1.8471
  668MOL0     H90178  10.187   7.872   1.580 -1.2604  2.0866 -0.3929
  668MOL0     H90179  10.704   8.321   1.980 -3.9896 -1.0601 -2.5868
  668MOL0     H90180  10.664   8.528   2.125  0.0832  0.3343 -0.1307
  669MOL0     O90181  10.549   2.725   4.698  0.7519  0.2633 -0.3489
  669MOL0     C90182  10.441   2.767   4.654 -0.9009  0.4965  0.1317
  669MOL0     O90183  10.423   2.893   4.611 -0.2135 -0.3006 -0.7374
  669MOL0     C90184  10.508   2.994   4.640  0.0139  0.1840  0.1828
  669MOL0     C90185  10.511   3.103   4.553  1.2085 -0.3913 -0.3438
  669MOL0     C90186  10.579   3.217   4.582 -0.1220 -0.2227  0.3604
  669MOL0     C90187  10.648   3.236   4.703  0.7534  0.5740  0.6249
  669MOL0     O90188  10.736   3.327   4.744 -0.6647  0.1156  0.6328
  669MOL0     C90189  10.804   3.394   4.631  0.8349  0.0515 -0.3211
  669MOL0     C90190  10.926   3.476   4.685 -0.3967 -1.3097 -0.6071
  669MOL0     C90191  11.054   3.389   4.711  0.1201  0.2912  0.4291
  669MOL0     C90192  11.170   3.453   4.793  0.5630  0.0124 -0.0160
  669MOL0     C90193  11.307   3.381   4.756  0.8739 -0.3590 -0.5227
  669MOL0     C90194  11.308   3.223   4.775  0.2133 -1.5363  0.1080
  669MOL0     C90195  11.247   3.182   4.912 -0.1373  0.7478  0.4287
  669MOL0     C90196  11.235   3.033   4.941 -0.5215  0.1129  0.2584
  669MOL0     N90197  11.130   2.977   4.859 -0.2271 -0.4080  0.4485
  669MOL0     C90198  11.135   2.859   4.790 -0.6716 -0.1277 -0.6017
  669MOL0     C90199  11.010   2.838   4.753  0.1905  0.0811 -0.1198
  669MOL0     C90200  10.968   2.736   4.655 -0.2082 -0.2337  0.0807
  669MOL0     C90201  10.967   2.787   4.506 -0.1904  0.3841 -0.2201
  669MOL0     C90202  10.892   2.916   4.488  0.5940 -0.8455 -0.7899
  669MOL0     C90203  10.901   2.963   4.347  0.5686  0.1828 -0.4313
  669MOL0     O90204  10.795   3.051   4.321  0.3478 -0.1549  0.8910
  669MOL0     C90205  10.774   3.069   4.184  0.3451 -0.5246 -0.1090
  669MOL0     C90206  10.647   3.121   4.152 -0.2977 -0.3258  0.0157
  669MOL0     C90207  10.604   3.133   4.022  1.1325  1.1440 -0.0166
  669MOL0     C90208  10.457   3.172   4.020 -0.7518  0.1928  0.9652
  669MOL0     C90209  10.682   3.088   3.914 -0.2829 -0.6555  0.6343
  669MOL0     C90210  10.644   3.091   3.776  0.1070  0.6060 -0.9193
  669MOL0     O90211  10.759   3.119   3.697 -0.6214 -0.5176 -0.2083
  669MOL0     C90212  10.739   3.155   3.574  0.5050  0.4825  1.0889
  669MOL0     C90213  10.759   3.285   3.528 -0.0634  0.1338  0.1658
  669MOL0     C90214  10.744   3.320   3.394 -0.2304 -0.2059 -0.1634
  669MOL0     C90215  10.701   3.223   3.304  0.5845  0.0878  0.7351
  669MOL0     O90216  10.677   3.270   3.178  1.0337  0.7242 -0.7928
  669MOL0     C90217  10.761   3.212   3.072 -0.6512 -0.3453  0.2235
  669MOL0     C90218  10.908   3.240   3.102 -0.7402  0.0341  0.6729
  669MOL0     C90219  11.000   3.181   2.982 -0.9253 -0.1406 -0.5345
  669MOL0     C90220  11.143   3.216   2.989 -0.4104  0.6543 -1.0890
  669MOL0     C90221  11.235   3.209   2.857 -0.3414  0.2074  0.0231
  669MOL0     C90222  11.205   3.345   2.771 -0.3357  0.3777 -0.2092
  669MOL0     C90223  11.305   3.382   2.664 -0.6882  0.0845 -0.2447
  669MOL0     C90224  11.257   3.510   2.589 -0.7837  0.4357 -0.5201
  669MOL0    Cl90225  11.338   3.517   2.425  0.1875 -0.1701 -0.0370
  669MOL0     C90226  10.674   3.094   3.347 -0.8247  0.1054  0.3944
  669MOL0     C90227  10.702   3.055   3.478  0.1948 -0.7552  0.3785
  669MOL0     O90228  10.533   3.065   3.748  0.3746 -0.8279 -0.8330
  669MOL0     C90229  10.818   3.051   3.949  0.7706  0.6132  1.2581
  669MOL0     C90230  10.864   3.040   4.080 -0.5118  0.1285  0.2855
  669MOL0     N90231  10.923   2.921   4.815 -0.1539  0.1591  0.6073
  669MOL0     N90232  11.000   2.999   4.879  0.6722 -0.0812  0.3113
  669MOL0     C90233  10.647   3.124   4.788 -0.4482 -0.7390  0.1053
  669MOL0     C90234  10.583   3.005   4.758 -0.1055 -0.2019  0.4102
  669MOL0     C90235  10.323   2.670   4.650 -0.5456  0.3334  1.3723
  669MOL0     C90236  10.355   2.536   4.670  0.5152 -0.3619 -1.4219
  669MOL0     C90237  10.249   2.443   4.669  0.1488  0.8226 -0.3983
  669MOL0     C90238  10.120   2.488   4.644 -1.3044 -0.2428 -1.0270
  669MOL0     O90239  10.008   2.407   4.656 -0.0306 -0.4831 -0.6583
  669MOL0     C90240  10.013   2.298   4.745  0.1534  0.2932 -0.0973
  669MOL0     C90241   9.873   2.281   4.803  0.1102 -0.4772 -0.3062
  669MOL0     C90242   9.846   2.159   4.896 -0.4457  0.1652 -0.0342
  669MOL0     C90243   9.952   2.165   5.021  1.2494 -0.0436 -0.1989
  669MOL0     C90244   9.957   2.303   5.089 -0.7102  0.5721 -0.6726
  669MOL0     C90245   9.973   2.417   5.136 -0.6273  0.2508  0.5166
  669MOL0     C90246  10.095   2.626   4.618 -0.0401  0.2249 -1.2083
  669MOL0     C90247  10.196   2.715   4.601  1.3366  0.1437  0.4914
  669MOL0     H90248  10.452   3.094   4.461 -0.8808 -0.4760  0.9320
  669MOL0     H90249  10.568   3.291   4.504 -3.7322 -0.0889  0.8120
  669MOL0     H90250  10.851   3.321   4.565  0.8841 -0.8101  0.6321
  669MOL0     H90251  10.732   3.458   4.579 -0.6869 -1.7073 -0.4673
  669MOL0     H90252  10.943   3.552   4.609 -2.1179  1.3117  1.4371
  669MOL0     H90253  10.901   3.526   4.779  0.5531 -2.4604  0.2915
  669MOL0     H90254  11.030   3.300   4.770  5.3791 -2.7471 -1.3847
  669MOL0     H90255  11.091   3.349   4.616  1.8850 -0.8588  1.5555
  669MOL0     H90256  11.178   3.561   4.775  2.9789 -0.0916  0.0296
  669MOL0     H90257  11.142   3.448   4.898 -0.4797 -3.1182 -0.3402
  669MOL0     H90258  11.307   3.411   4.651 -0.4131  1.0472 -0.1517
  669MOL0     H90259  11.387   3.439   4.803 -2.8317  3.4224  1.8102
  669MOL0     H90260  11.262   3.172   4.690  2.4099 -4.4249  0.4878
  669MOL0     H90261  11.410   3.189   4.754  0.4956  0.1730 -1.5739
  669MOL0     H90262  11.325   3.226   4.975 -0.7552  1.0665  0.9662
  669MOL0     H90263  11.154   3.228   4.945 -0.1521 -0.4396  2.1641
  669MOL0     H90264  11.207   3.027   5.046  2.9725 -3.3897  1.2311
  669MOL0     H90265  11.332   2.986   4.921 -0.7270 -1.2680  2.2420
  669MOL0     H90266  11.221   2.798   4.765  0.6674  0.3106  2.5142
  669MOL0     H90267  11.043   2.658   4.674 -0.2081 -0.2704 -0.0773
  669MOL0     H90268  10.868   2.694   4.673 -1.9237  2.5249 -2.2319
  669MOL0     H90269  10.914   2.708   4.451  2.0762 -3.0502  2.0769
  669MOL0     H90270  11.072   2.777   4.477  0.0965  1.6643  0.3518
  669MOL0     H90271  10.935   2.998   4.547  1.5157 -0.8407 -1.4464
  669MOL0     H90272  10.786   2.902   4.511  0.3648  1.9092  0.1983
  669MOL0     H90273  10.896   2.875   4.282  1.0689 -1.4430  1.6117
  669MOL0     H90274  10.998   3.012   4.333  0.0623  0.5287 -3.5121
  669MOL0     H90275  10.577   3.118   4.234 -1.1627 -1.3995 -0.7322
  669MOL0     H90276  10.453   3.276   4.053 -1.2909 -0.6804  3.9823
  669MOL0     H90277  10.414   3.151   3.922  1.9376 -1.3765 -0.0023
  669MOL0     H90278  10.409   3.105   4.092 -0.2818  1.2798  2.3307
  669MOL0     H90279  10.791   3.364   3.596  0.9331 -0.1988  0.1019
  669MOL0     H90280  10.778   3.419   3.366 -2.9136  1.1615  1.0691
  669MOL0     H90281  10.740   3.105   3.062 -5.2717  0.2844  0.9487
  669MOL0     H90282  10.746   3.252   2.971 -2.1343  0.1118  0.5980
  669MOL0     H90283  10.931   3.345   3.123 -1.0518  0.4914 -1.0561
  669MOL0     H90284  10.944   3.187   3.190  2.0391  3.8775  2.1390
  669MOL0     H90285  10.958   3.224   2.891 -3.2316  0.3309  0.6538
  669MOL0     H90286  10.984   3.073   2.989  4.1276 -1.0136  2.5473
  669MOL0     H90287  11.155   3.317   3.029 -0.0574  0.3496 -0.4076
  669MOL0     H90288  11.196   3.152   3.060 -0.5491  0.7365 -0.9076
  669MOL0     H90289  11.219   3.122   2.793 -1.2709 -1.0484  1.8905
  669MOL0     H90290  11.337   3.218   2.896  0.7511 -4.7025 -1.0744
  669MOL0     H90291  11.114   3.337   2.711  0.2134  2.3351 -1.4035
  669MOL0     H90292  11.192   3.432   2.836  0.5716  1.3393 -1.2631
  669MOL0     H90293  11.290   3.316   2.579 -4.2640  1.8356 -1.1565
  669MOL0     H90294  11.403   3.389   2.712 -0.7141  2.1565 -0.3792
  669MOL0     H90295  11.297   3.598   2.640  0.0475  1.4301 -2.7477
  669MOL0     H90296  11.148   3.515   2.579 -0.5440  1.0229 -4.7581
  669MOL0     H90297  10.637   3.019   3.279 -0.1417  0.5780 -0.5222
  669MOL0     H90298  10.677   2.959   3.521  0.1236 -0.6148  0.6472
  669MOL0     H90299  10.891   3.024   3.873  0.0059 -2.7553  1.5860
  669MOL0     H90300  10.969   3.025   4.102 -0.1925  3.4833  1.7522
  669MOL0     H90301  10.704   3.116   4.880 -0.5584  0.6199  0.3105
  669MOL0     H90302  10.587   2.921   4.827 -1.5744 -0.1973  0.5418
  669MOL0     H90303  10.456   2.502   4.688 -0.4927 -4.3802 -2.3906
  669MOL0     H90304  10.280   2.340   4.686 -2.7844 -0.2348 -0.8238
  669MOL0     H90305  10.030   2.210   4.682  0.1827  1.3910 -1.6498
  669MOL0     H90306  10.081   2.315   4.829 -0.0003 -3.0726  0.8743
  669MOL0     H90307   9.797   2.276   4.724  1.0226 -1.9514 -1.1342
  669MOL0     H90308   9.847   2.370   4.862  2.3154 -1.2499  2.0270
  669MOL0     H90309   9.850   2.071   4.832 -1.6766 -0.6441  0.9584
  669MOL0     H90310   9.743   2.169   4.930 -0.1829  2.4913  0.2458
  669MOL0     H90311  10.054   2.139   4.991  0.4964  0.7744 -4.1730
  669MOL0     H90312   9.920   2.087   5.090  2.3462 -2.0202 -1.8083
  669MOL0     H90313  10.006   2.506   5.186 -0.0830  0.1178  0.3973
  669MOL0     H90314   9.992   2.645   4.589  0.5912  0.7747 -3.2083
  669MOL0     H90315  10.175   2.812   4.558  1.4076 -0.4239 -0.8731
  670MOL0     O90316   9.178   6.629   1.167  0.2900 -0.1200 -0.0615
  670MOL0     C90317   9.293   6.645   1.133  0.0549  0.1018  0.2733
  670MOL0     O90318   9.330   6.695   1.008  0.3992  0.7977 -0.9518
  670MOL0     C90319   9.233   6.740   0.911  0.0127 -1.3007  0.1840
  670MOL0     C90320   9.219   6.877   0.880 -1.3183 -0.6027  0.2926
  670MOL0     C90321   9.119   6.915   0.793  0.1569 -0.2858 -0.6350
  670MOL0     C90322   9.035   6.815   0.728  0.1400 -0.4140 -0.3334
  670MOL0     O90323   8.923   6.865   0.666 -0.0203  0.7937  0.0948
  670MOL0     C90324   8.813   6.775   0.656 -0.1995  0.4293 -0.0988
  670MOL0     C90325   8.691   6.849   0.615  0.5654 -1.0102 -0.0153
  670MOL0     C90326   8.634   6.942   0.723  0.2040  0.6571 -0.2744
  670MOL0     C90327   8.516   6.887   0.813 -0.1858 -0.0449  0.2318
  670MOL0     C90328   8.382   6.856   0.743 -0.1895  0.2305 -0.0005
  670MOL0     C90329   8.288   6.974   0.735 -0.0099  0.3736  0.3732
  670MOL0     C90330   8.181   6.946   0.633  0.2849  0.4288  0.5119
  670MOL0     C90331   8.093   6.823   0.667 -0.1182  0.1037  0.0959
  670MOL0     N90332   7.981   6.845   0.766 -0.8522 -0.0027  0.1174
  670MOL0     C90333   7.947   6.964   0.831 -0.4085 -0.1236  0.1092
  670MOL0     C90334   7.831   6.932   0.905  0.0630  0.6967  0.1571
  670MOL0     C90335   7.755   7.022   1.000  0.0903 -0.1085 -0.4397
  670MOL0     C90336   7.622   7.081   0.941  0.5385  0.1855  0.5877
  670MOL0     C90337   7.522   6.965   0.906 -0.4696  0.5485 -0.3005
  670MOL0     C90338   7.494   6.861   1.018  0.6281 -1.3067  1.0767
  670MOL0     O90339   7.492   6.936   1.139 -0.1166 -0.2750  0.0880
  670MOL0     C90340   7.442   6.882   1.244 -0.4754  1.0615 -1.1831
  670MOL0     C90341   7.459   6.738   1.269  0.2109 -0.0129 -0.8715
  670MOL0     C90342   7.407   6.673   1.378  0.4612 -0.3692 -0.4603
  670MOL0     C90343   7.419   6.526   1.372  0.1755  0.4201 -1.2485
  670MOL0     C90344   7.352   6.747   1.484 -0.1138  0.3472  0.0035
  670MOL0     C90345   7.277   6.693   1.603 -0.1351 -0.7579  0.7096
  670MOL0     O90346   7.223   6.571   1.591  0.7973  0.4034 -0.0099
  670MOL0     C90347   7.156   6.512   1.695 -0.9057  0.0496  0.4823
  670MOL0     C90348   7.029   6.462   1.676  0.4194 -0.8820 -0.6952
  670MOL0     C90349   6.972   6.353   1.761 -0.1952 -0.1346 -0.4376
  670MOL0     C90350   7.054   6.298   1.858  0.0596  0.3301 -0.2225
  670MOL0     O90351   7.018   6.194   1.939 -0.0717  0.0885  0.1507
  670MOL0     C90352   6.880   6.154   1.951 -0.1021 -0.2556  0.1461
  670MOL0     C90353   6.839   6.091   2.086 -0.2779  0.1731 -1.0111
  670MOL0     C90354   6.851   6.188   2.201  1.0612 -0.2319  0.4286
  670MOL0     C90355   6.748   6.169   2.303  0.2169 -0.8867 -0.4473
  670MOL0     C90356   6.728   6.288   2.395  0.1637 -0.5965  0.8046
  670MOL0     C90357   6.859   6.346   2.452  0.1705  0.6828 -0.1914
  670MOL0     C90358   6.935   6.263   2.561 -0.2217 -0.2805 -0.0098
  670MOL0     C90359   7.066   6.326   2.622  0.8962 -0.3009 -0.1246
  670MOL0    Cl90360   7.160   6.185   2.712  0.2133  0.2719  0.5821
  670MOL0     C90361   7.174   6.363   1.879 -0.6392 -1.1143 -0.2753
  670MOL0     C90362   7.232   6.472   1.806  0.0538 -0.0831 -0.3298
  670MOL0     O90363   7.293   6.755   1.708  0.0588 -0.5812  0.7439
  670MOL0     C90364   7.345   6.887   1.464 -0.2363  0.0382  0.3515
  670MOL0     C90365   7.394   6.950   1.353  0.4001  0.1772  0.6814
  670MOL0     N90366   7.807   6.798   0.880  0.0902 -0.3928  0.1366
  670MOL0     N90367   7.894   6.750   0.798 -0.2470 -0.4349 -0.7119
  670MOL0     C90368   9.053   6.679   0.759 -0.0890  0.1720 -0.1959
  670MOL0     C90369   9.150   6.644   0.848 -0.3283  0.0785 -0.7538
  670MOL0     C90370   9.402   6.627   1.238 -0.3992 -1.6932 -0.5157
  670MOL0     C90371   9.359   6.598   1.374  0.1045 -0.1153  1.5224
  670MOL0     C90372   9.451   6.592   1.474  0.6044  0.3294 -0.2542
  670MOL0     C90373   9.586   6.602   1.445  0.5280 -0.2198 -0.1711
  670MOL0     O90374   9.669   6.593   1.555  0.6576 -0.1609  0.3609
  670MOL0     C90375   9.780   6.509   1.533 -1.2778  0.1267  0.9439
  670MOL0     C90376   9.776   6.376   1.608 -0.2171 -0.6000 -0.2503
  670MOL0     C90377   9.663   6.289   1.570 -0.6512  0.1702  0.0219
  670MOL0     C90378   9.698   6.159   1.654 -0.6227  0.3104  0.0968
  670MOL0     C90379   9.604   6.062   1.613  0.9786  0.6669 -0.2981
  670MOL0     C90380   9.523   5.978   1.581  0.0070 -0.2679 -1.4150
  670MOL0     C90381   9.633   6.640   1.320 -0.6380 -0.8280 -0.0590
  670MOL0     C90382   9.544   6.639   1.215 -1.2873  0.5139  0.5025
  670MOL0     H90383   9.271   6.961   0.925 -3.2202  1.9797 -1.9885
  670MOL0     H90384   9.113   7.022   0.779  3.7836  0.2426  0.8009
  670MOL0     H90385   8.830   6.695   0.583  0.0489  1.0236 -0.6913
  670MOL0     H90386   8.806   6.729   0.755  0.8771  1.3772  0.4396
  670MOL0     H90387   8.711   6.903   0.522 -2.8000  1.1238  0.3141
  670MOL0     H90388   8.617   6.770   0.595 -0.7489  0.2472 -0.3192
  670MOL0     H90389   8.713   6.967   0.794  1.8521  2.5479 -2.5964
  670MOL0     H90390   8.619   7.039   0.675 -0.5620  0.8716  0.3872
  670MOL0     H90391   8.551   6.794   0.857  0.6045  1.0552  2.0464
  670MOL0     H90392   8.490   6.964   0.886  3.1497  1.6846 -0.2033
  670MOL0     H90393   8.401   6.811   0.645 -2.7700 -0.4466 -0.2622
  670MOL0     H90394   8.332   6.776   0.799  1.4564 -2.2299 -1.8079
  670MOL0     H90395   8.250   6.993   0.835  0.4566  0.7474  0.4839
  670MOL0     H90396   8.342   7.066   0.708  0.1705  0.6106  1.5097
  670MOL0     H90397   8.132   7.043   0.620  2.9771  2.2324  2.5980
  670MOL0     H90398   8.224   6.939   0.533 -0.1094  1.5077  0.2476
  670MOL0     H90399   8.144   6.735   0.706 -0.3657  0.6951  1.8149
  670MOL0     H90400   8.046   6.788   0.575 -1.9582  0.0370  1.0226
  670MOL0     H90401   8.000   7.058   0.828 -0.0625 -0.2872 -3.6054
  670MOL0     H90402   7.731   6.969   1.092  1.6913  1.7258  1.1149
  670MOL0     H90403   7.805   7.118   1.017 -1.3037  0.7524 -0.9841
  670MOL0     H90404   7.632   7.149   0.856  3.0189  2.1572  2.3130
  670MOL0     H90405   7.581   7.144   1.020 -1.3284  2.1389 -1.7807
  670MOL0     H90406   7.535   6.920   0.807  1.7484 -1.8481  0.9457
  670MOL0     H90407   7.426   7.018   0.902 -2.4933 -2.6018  1.3962
  670MOL0     H90408   7.573   6.786   1.025 -0.5201 -2.5347  1.2357
  670MOL0     H90409   7.401   6.809   0.995  1.1617 -0.5928 -3.7895
  670MOL0     H90410   7.504   6.674   1.194 -4.1542 -1.4074 -2.6075
  670MOL0     H90411   7.325   6.480   1.340 -0.6045 -1.7999  3.4328
  670MOL0     H90412   7.495   6.501   1.297  2.0634  6.5885 -1.9332
  670MOL0     H90413   7.441   6.487   1.472 -1.2683  0.2211 -0.9894
  670MOL0     H90414   6.973   6.512   1.597  2.5627  1.0955 -1.0766
  670MOL0     H90415   6.873   6.318   1.735  0.2199 -2.1330  0.5052
  670MOL0     H90416   6.815   6.239   1.930  0.3582  0.0245 -0.1717
  670MOL0     H90417   6.867   6.087   1.866 -0.1348 -1.4449  1.0569
  670MOL0     H90418   6.732   6.075   2.074 -0.0114 -0.8365 -2.2639
  670MOL0     H90419   6.892   5.999   2.114 -0.4118  1.1880  3.2535
  670MOL0     H90420   6.843   6.287   2.156  0.4872 -1.4465 -2.3551
  670MOL0     H90421   6.953   6.171   2.238  1.2694 -1.4811 -0.6257
  670MOL0     H90422   6.652   6.148   2.255 -0.1301 -2.7218  0.9125
  670MOL0     H90423   6.784   6.079   2.355 -0.0512 -1.1761 -0.7521
  670MOL0     H90424   6.662   6.261   2.478 -1.3933  2.5524  0.7310
  670MOL0     H90425   6.669   6.361   2.339  1.2160 -2.8745 -3.7936
  670MOL0     H90426   6.930   6.371   2.373  0.2926 -1.6003 -0.8919
  670MOL0     H90427   6.822   6.437   2.500 -4.1880 -1.1034  0.3731
  670MOL0     H90428   6.960   6.166   2.516 -0.2898 -0.5478  0.5225
  670MOL0     H90429   6.860   6.247   2.639 -0.3170 -0.4645 -0.1361
  670MOL0     H90430   7.025   6.399   2.693 -3.8897 -0.7330 -2.0490
  670MOL0     H90431   7.133   6.373   2.549  3.5988 -2.6774  0.6131
  670MOL0     H90432   7.225   6.308   1.958 -0.9679 -0.1473  0.6172
  670MOL0     H90433   7.334   6.507   1.820 -0.3559  0.8801  0.3104
  670MOL0     H90434   7.305   6.962   1.532  2.5944  0.0675  2.1763
  670MOL0     H90435   7.365   7.055   1.353  0.2039  0.1294  0.2363
  670MOL0     H90436   8.988   6.597   0.729  2.3872 -1.5246 -1.2036
  670MOL0     H90437   9.160   6.540   0.878 -2.7398  0.2571  0.9450
  670MOL0     H90438   9.253   6.594   1.398  0.8373 -0.2139  5.4305
  670MOL0     H90439   9.430   6.567   1.577 -1.7774  0.8929 -0.5277
  670MOL0     H90440   9.804   6.483   1.430 -1.5594  0.3851  0.8135
  670MOL0     H90441   9.868   6.562   1.570 -0.7374 -0.1182  0.0479
  670MOL0     H90442   9.769   6.399   1.715 -2.3231 -0.0518 -0.4716
  670MOL0     H90443   9.871   6.325   1.588  1.0353  1.6718 -0.3315
  670MOL0     H90444   9.667   6.260   1.465  3.2068  0.4510 -0.0258
  670MOL0     H90445   9.571   6.343   1.598 -1.3866 -1.2424  0.4519
  670MOL0     H90446   9.661   6.177   1.756  0.0149 -2.1932  0.8546
  670MOL0     H90447   9.803   6.127   1.656 -0.2989  1.0883 -2.1042
  670MOL0     H90448   9.445   5.912   1.546 -2.3576  0.5284  1.9091
  670MOL0     H90449   9.737   6.658   1.293  0.3916 -1.5727  3.0629
  670MOL0     H90450   9.572   6.669   1.114  1.0933  0.0686  0.9641
  671MOL0     O90451   5.002   7.263   6.708 -0.0448 -0.3966 -0.7994
  671MOL0     C90452   5.068   7.164   6.748 -0.2587 -1.4469 -0.0576
  671MOL0     O90453   5.176   7.116   6.690 -0.6441  0.0759 -0.3004
  671MOL0     C90454   5.220   7.176   6.576  0.0604 -0.0395 -0.2357
  671MOL0     C90455   5.145   7.203   6.466 -0.0097  0.2614  0.2559
  671MOL0     C90456   5.195   7.260   6.353 -1.4956 -0.8582  1.3766
  671MOL0     C90457   5.332   7.293   6.344 -0.5427  0.2444  0.2115
  671MOL0     O90458   5.394   7.363   6.243  0.1164  0.5344 -0.5113
  671MOL0     C90459   5.363   7.313   6.113 -0.3321 -1.2703  0.8153
  671MOL0     C90460   5.471   7.364   6.005  0.1987  0.0147  0.3965
  671MOL0     C90461   5.545   7.489   6.040  0.7621 -0.2881 -0.0619
  671MOL0     C90462   5.624   7.531   5.917 -0.1614  0.0971  0.5919
  671MOL0     C90463   5.702   7.657   5.950 -1.2502  0.3215 -0.3096
  671MOL0     C90464   5.798   7.682   5.824  0.9004  0.1153 -0.7593
  671MOL0     C90465   5.928   7.750   5.851  0.1640 -0.1715  0.0961
  671MOL0     C90466   5.910   7.897   5.919 -0.0430 -0.3156  0.8176
  671MOL0     N90467   6.034   7.956   5.977  0.3279 -0.4251  0.1615
  671MOL0     C90468   6.149   7.984   5.921  0.3072 -0.2242  0.6796
  671MOL0     C90469   6.201   8.082   6.000 -0.8877  0.3397 -0.1734
  671MOL0     C90470   6.315   8.163   5.962 -0.7474 -0.4918  0.4414
  671MOL0     C90471   6.274   8.268   5.848 -0.7975  0.2805  0.0255
  671MOL0     C90472   6.394   8.355   5.799 -0.0695  0.5076 -0.2196
  671MOL0     C90473   6.461   8.294   5.678  0.2268 -0.2412  0.5270
  671MOL0     O90474   6.403   8.303   5.552  0.2128 -0.0945 -0.4771
  671MOL0     C90475   6.304   8.212   5.510 -0.0199 -0.0627  0.1749
  671MOL0     C90476   6.325   8.074   5.529  0.1960 -0.0423 -0.0548
  671MOL0     C90477   6.224   7.977   5.504 -0.3777  0.1834 -0.1486
  671MOL0     C90478   6.261   7.834   5.529  0.0272 -0.3081  0.8536
  671MOL0     C90479   6.100   8.028   5.458 -1.1053  0.3793  0.5498
  671MOL0     C90480   5.974   7.946   5.435 -0.2782 -0.7560  0.6584
  671MOL0     O90481   5.868   8.005   5.362 -0.9776  0.6131  0.0767
  671MOL0     C90482   5.761   7.936   5.300  0.0413 -0.0863 -0.8029
  671MOL0     C90483   5.688   7.846   5.382  0.8149 -0.2920 -0.3142
  671MOL0     C90484   5.572   7.797   5.333  0.1996  0.2039  0.6041
  671MOL0     C90485   5.523   7.832   5.204  0.4646 -0.1966 -0.0467
  671MOL0     O90486   5.409   7.770   5.156  0.0464  0.9484  0.3389
  671MOL0     C90487   5.440   7.627   5.119 -0.7433 -0.5287 -0.4295
  671MOL0     C90488   5.398   7.607   4.974  0.3087 -0.6164  0.3891
  671MOL0     C90489   5.442   7.723   4.890 -0.0717  0.1728 -0.6123
  671MOL0     C90490   5.451   7.685   4.744  0.9869 -0.4386 -0.7506
  671MOL0     C90491   5.336   7.671   4.661 -0.4782 -0.5476  0.3776
  671MOL0     C90492   5.233   7.780   4.665 -0.3184  0.0980  0.4540
  671MOL0     C90493   5.098   7.737   4.587  0.5402 -0.5159 -0.5589
  671MOL0     C90494   4.995   7.844   4.563 -0.0955  0.1167 -0.4522
  671MOL0    Cl90495   5.033   7.940   4.403 -0.4616 -0.0072 -0.4161
  671MOL0     C90496   5.592   7.924   5.131  0.2958  0.3336 -0.0921
  671MOL0     C90497   5.712   7.988   5.181  0.4808 -0.0842 -0.3496
  671MOL0     O90498   5.968   7.833   5.480  0.2331  0.4102  0.9060
  671MOL0     C90499   6.094   8.160   5.407  0.5640  0.9523 -0.6034
  671MOL0     C90500   6.197   8.247   5.430  0.4576 -0.2578  0.3687
  671MOL0     N90501   6.118   8.108   6.105  1.0877 -0.4386  0.1257
  671MOL0     N90502   6.024   8.023   6.097 -0.6904 -0.5710 -0.1448
  671MOL0     C90503   5.410   7.256   6.452 -0.7550 -0.2610 -0.1475
  671MOL0     C90504   5.355   7.199   6.568  0.3895 -0.2238  0.2093
  671MOL0     C90505   5.024   7.101   6.875  1.0902 -0.1039  0.1129
  671MOL0     C90506   4.935   7.143   6.973  0.5725 -0.3077  0.4658
  671MOL0     C90507   4.897   7.066   7.085 -0.3046  0.5002 -0.0721
  671MOL0     C90508   4.962   6.946   7.107  0.1175 -0.6090  0.5820
  671MOL0     O90509   4.938   6.869   7.217 -0.1641 -0.0932 -1.0926
  671MOL0     C90510   4.801   6.842   7.259 -0.1342  0.3945  0.8141
  671MOL0     C90511   4.709   6.789   7.142  0.8840  0.4325  0.4951
  671MOL0     C90512   4.558   6.782   7.186 -0.5157  0.0366  0.0952
  671MOL0     C90513   4.525   6.642   7.243 -0.2240 -0.1020 -0.5536
  671MOL0     C90514   4.572   6.610   7.380  0.7088  0.3331  0.5006
  671MOL0     C90515   4.593   6.603   7.499  0.3880  0.0131  0.0996
  671MOL0     C90516   5.047   6.899   7.008 -0.7496 -0.5867 -1.2040
  671MOL0     C90517   5.083   6.975   6.896 -0.7267  0.1856  0.0413
  671MOL0     H90518   5.039   7.179   6.466  0.3370 -1.9307 -2.9832
  671MOL0     H90519   5.126   7.279   6.271 -0.1877  2.0650  0.8202
  671MOL0     H90520   5.367   7.204   6.102 -0.7088 -1.2160  0.0775
  671MOL0     H90521   5.268   7.350   6.074  1.9129  2.0144 -2.1509
  671MOL0     H90522   5.529   7.273   5.990  3.3818  1.8620  0.6905
  671MOL0     H90523   5.407   7.383   5.919 -0.8220 -2.3671  0.5579
  671MOL0     H90524   5.473   7.568   6.063  3.2263  2.4702 -1.1603
  671MOL0     H90525   5.613   7.473   6.124  0.0407 -0.5858  0.4720
  671MOL0     H90526   5.686   7.444   5.893  1.0784  1.7729 -3.0873
  671MOL0     H90527   5.559   7.562   5.834  1.1116 -1.0304 -0.9008
  671MOL0     H90528   5.641   7.738   5.989 -1.3391  0.3449 -0.4967
  671MOL0     H90529   5.767   7.641   6.037 -2.0247  0.5606  0.3198
  671MOL0     H90530   5.824   7.579   5.795 -0.8364 -0.8818  0.9745
  671MOL0     H90531   5.739   7.728   5.745  3.7493  0.8964 -2.5737
  671MOL0     H90532   5.984   7.687   5.920 -1.9871 -4.1155 -1.4000
  671MOL0     H90533   5.983   7.759   5.757  2.5617 -0.2089  1.4296
  671MOL0     H90534   5.835   7.897   5.998  0.8961 -0.7517  1.7341
  671MOL0     H90535   5.882   7.970   5.842  1.7518 -2.5001 -2.1567
  671MOL0     H90536   6.182   7.973   5.818 -2.0497 -0.8809 -0.0493
  671MOL0     H90537   6.336   8.228   6.048 -1.4225 -0.6368  0.7278
  671MOL0     H90538   6.405   8.108   5.935  0.9021  1.6798  1.1766
  671MOL0     H90539   6.204   8.342   5.889 -0.0802  0.5642  0.7641
  671MOL0     H90540   6.228   8.214   5.765 -1.3360  0.6117  0.1001
  671MOL0     H90541   6.454   8.372   5.888 -2.6704 -0.0499  1.7636
  671MOL0     H90542   6.365   8.453   5.759 -2.7224  1.2864  3.1389
  671MOL0     H90543   6.470   8.187   5.699 -1.4079  0.0595  3.2619
  671MOL0     H90544   6.565   8.328   5.673  0.6913 -1.2269  2.4719
  671MOL0     H90545   6.417   8.029   5.565  0.8441  0.4371 -1.1020
  671MOL0     H90546   6.223   7.803   5.627  0.0789  0.0045  0.9734
  671MOL0     H90547   6.229   7.754   5.461 -2.2139 -0.9555  2.5329
  671MOL0     H90548   6.368   7.827   5.549  0.4451  3.9009  0.9636
  671MOL0     H90549   5.731   7.814   5.476  1.8624  1.2897 -0.1981
  671MOL0     H90550   5.511   7.726   5.386  0.4526 -0.0340  0.5813
  671MOL0     H90551   5.548   7.619   5.112 -0.3755  2.1284  1.0239
  671MOL0     H90552   5.408   7.563   5.202  0.7921 -1.6209 -0.6596
  671MOL0     H90553   5.453   7.520   4.938  0.1910 -1.3494  1.8818
  671MOL0     H90554   5.290   7.598   4.963 -0.0277  0.3060  2.3660
  671MOL0     H90555   5.547   7.741   4.916 -0.9548  3.1438  1.5186
  671MOL0     H90556   5.400   7.822   4.913  2.0174  0.8065  0.8137
  671MOL0     H90557   5.517   7.761   4.701  0.5415  1.1387  1.2185
  671MOL0     H90558   5.503   7.589   4.741 -2.4619 -2.7254  2.6646
  671MOL0     H90559   5.303   7.574   4.700  4.5733 -1.8345  2.1648
  671MOL0     H90560   5.375   7.663   4.560  3.7612 -0.0876  1.7850
  671MOL0     H90561   5.209   7.823   4.763  1.6989  2.7280 -0.0557
  671MOL0     H90562   5.283   7.859   4.607  1.0524  0.0691  1.5346
  671MOL0     H90563   5.056   7.647   4.633 -1.3694  0.7411  0.2571
  671MOL0     H90564   5.125   7.708   4.485 -3.0295  1.6411 -2.3011
  671MOL0     H90565   5.001   7.911   4.649 -0.9792  1.3512 -1.3210
  671MOL0     H90566   4.893   7.806   4.564 -0.0252 -0.0975  1.1116
  671MOL0     H90567   5.553   7.968   5.040  0.2221 -2.3808 -1.4548
  671MOL0     H90568   5.757   8.075   5.135 -2.2142  1.4900 -0.1978
  671MOL0     H90569   6.003   8.202   5.365  0.7856  0.8133 -1.2274
  671MOL0     H90570   6.186   8.352   5.409 -3.6104  0.6017  5.0645
  671MOL0     H90571   5.514   7.288   6.450 -0.5483 -0.8197  1.0689
  671MOL0     H90572   5.406   7.199   6.664  0.9583  0.7748 -0.0778
  671MOL0     H90573   4.904   7.246   6.954  3.9419  0.7397 -0.0699
  671MOL0     H90574   4.831   7.100   7.165  0.0243 -1.1571  0.9549
  671MOL0     H90575   4.787   6.770   7.340  0.3484  1.1538  1.5779
  671MOL0     H90576   4.757   6.937   7.291 -3.8480 -0.7531 -0.3112
  671MOL0     H90577   4.749   6.688   7.128 -0.0760  0.1865 -0.5723
  671MOL0     H90578   4.719   6.852   7.054  1.7578 -0.6010 -0.1616
  671MOL0     H90579   4.490   6.809   7.104 -3.0919  0.2372  2.1432
  671MOL0     H90580   4.539   6.863   7.257  3.2240  0.5503  0.6802
  671MOL0     H90581   4.564   6.568   7.173  3.4974 -0.3362  1.5337
  671MOL0     H90582   4.415   6.643   7.249 -0.1543 -0.9235  2.2937
  671MOL0     H90583   4.610   6.594   7.605 -0.1391 -0.5887  0.1401
  671MOL0     H90584   5.105   6.811   7.035  1.0879  0.1058 -2.6630
  671MOL0     H90585   5.156   6.928   6.831 -2.2442  0.0592 -1.6602
  672MOL0     O90586   7.413   2.644   8.793 -0.4819 -0.5620 -0.1027
  672MOL0     C90587   7.309   2.581   8.823 -0.3034 -0.6905  0.3393
  672MOL0     O90588   7.296   2.440   8.812 -0.0573  1.0430  0.2903
  672MOL0     C90589   7.401   2.373   8.765 -0.8497  0.4508 -0.3583
  672MOL0     C90590   7.490   2.316   8.858  0.9434 -0.5881 -0.5403
  672MOL0     C90591   7.610   2.258   8.818 -0.4867  0.2780  0.9206
  672MOL0     C90592   7.636   2.252   8.679  0.3314 -0.4880 -0.7469
  672MOL0     O90593   7.749   2.186   8.635 -0.2380 -0.4165 -0.4105
  672MOL0     C90594   7.852   2.263   8.560  0.1497 -0.4032 -1.4684
  672MOL0     C90595   7.871   2.178   8.431 -0.0911 -0.7351 -0.2950
  672MOL0     C90596   7.972   2.243   8.333  0.0132  0.3211 -1.1241
  672MOL0     C90597   7.984   2.165   8.204 -0.2890 -0.5847  0.9841
  672MOL0     C90598   8.077   2.227   8.099  0.5460  0.7020 -0.3353
  672MOL0     C90599   8.219   2.205   8.143  0.2490  0.7853 -1.2348
  672MOL0     C90600   8.329   2.205   8.045  0.2756 -0.0268 -0.1756
  672MOL0     C90601   8.453   2.146   8.103  0.4236 -0.2950  0.9651
  672MOL0     N90602   8.556   2.135   8.004 -0.3718  0.6300 -0.2905
  672MOL0     C90603   8.658   2.229   7.984  0.0046  0.0828 -0.8788
  672MOL0     C90604   8.744   2.163   7.886  0.3678 -0.2990  0.1131
  672MOL0     C90605   8.868   2.201   7.825 -0.8123  0.4501 -0.6022
  672MOL0     C90606   8.980   2.216   7.929 -0.6361  0.4083 -0.4243
  672MOL0     C90607   9.098   2.283   7.870  0.0069 -0.0259  0.3051
  672MOL0     C90608   9.198   2.314   7.983  0.5644 -0.3181  0.9327
  672MOL0     O90609   9.321   2.349   7.921 -0.1984 -0.5571 -0.7495
  672MOL0     C90610   9.417   2.250   7.909  1.0491  0.3886  1.0037
  672MOL0     C90611   9.547   2.292   7.907 -1.2985 -0.8642  0.9704
  672MOL0     C90612   9.649   2.205   7.881 -0.3145  0.6932  1.3636
  672MOL0     C90613   9.782   2.274   7.848  0.4354 -1.1218 -0.6737
  672MOL0     C90614   9.622   2.062   7.884 -1.3558  0.3360  1.4948
  672MOL0     C90615   9.734   1.958   7.883  0.0678 -0.9662 -0.0837
  672MOL0     O90616   9.694   1.829   7.920  0.1778  0.6211 -0.2799
  672MOL0     C90617   9.780   1.720   7.910  1.0142  1.0752 -0.6874
  672MOL0     C90618   9.851   1.696   7.796  0.3653 -0.7502  0.4394
  672MOL0     C90619   9.940   1.588   7.791  0.4004 -0.2851 -1.1045
  672MOL0     C90620   9.948   1.497   7.901 -0.1957 -0.0886  0.0739
  672MOL0     O90621  10.036   1.395   7.906  0.4594 -0.0156  0.2705
  672MOL0     C90622  10.099   1.367   8.028 -0.1502 -0.5428 -0.1196
  672MOL0     C90623  10.197   1.250   8.018 -0.0890  1.0757 -1.3331
  672MOL0     C90624  10.223   1.181   8.149  0.0282 -0.5759 -0.2993
  672MOL0     C90625  10.341   1.095   8.136  1.0354  0.6888  0.7051
  672MOL0     C90626  10.339   0.992   8.252 -0.0004 -0.4537 -0.9224
  672MOL0     C90627  10.372   1.046   8.392  0.7701  0.6499  0.0400
  672MOL0     C90628  10.352   0.929   8.494 -0.0704  0.2545 -0.2276
  672MOL0     C90629  10.400   0.966   8.639  0.4588 -0.1159  0.1270
  672MOL0    Cl90630  10.304   1.105   8.708 -0.2431 -0.2958  0.4106
  672MOL0     C90631   9.852   1.519   8.008  0.9147 -0.1246  1.2510
  672MOL0     C90632   9.764   1.631   8.011 -0.6284  0.3544 -0.4442
  672MOL0     O90633   9.842   1.993   7.826  0.2338  0.1105  0.3781
  672MOL0     C90634   9.491   2.022   7.889 -0.1207  0.2712 -1.0886
  672MOL0     C90635   9.385   2.108   7.897  0.8037 -0.2052 -0.8452
  672MOL0     N90636   8.670   2.056   7.837 -0.6707 -0.2730  0.1660
  672MOL0     N90637   8.568   2.037   7.908 -0.5562  0.3740 -0.8799
  672MOL0     C90638   7.557   2.309   8.580  0.4426 -0.1547 -0.0252
  672MOL0     C90639   7.434   2.366   8.626 -0.9896 -0.1625  0.4973
  672MOL0     C90640   7.208   2.662   8.884  0.8613 -0.8547 -0.4661
  672MOL0     C90641   7.076   2.626   8.882  0.2264  0.0830  0.1127
  672MOL0     C90642   6.986   2.712   8.940  0.1052 -0.3089  0.6223
  672MOL0     C90643   7.019   2.834   8.997 -0.1808 -0.7901 -0.1106
  672MOL0     O90644   6.928   2.922   9.048 -0.5055 -0.6417 -0.3784
  672MOL0     C90645   6.789   2.890   9.035  0.1133 -0.7502  0.6027
  672MOL0     C90646   6.689   2.994   9.094  0.7793  0.3563 -0.4610
  672MOL0     C90647   6.544   2.956   9.101  0.0834 -0.4856 -0.1721
  672MOL0     C90648   6.509   2.814   9.171  0.2840 -0.9476 -1.1091
  672MOL0     C90649   6.366   2.811   9.193  0.7094 -0.2271  1.0408
  672MOL0     C90650   6.258   2.817   9.246  0.6561  0.5336  0.2253
  672MOL0     C90651   7.152   2.872   9.000 -0.5420 -0.3007 -0.4153
  672MOL0     C90652   7.242   2.780   8.949 -0.0682 -0.5906 -0.3229
  672MOL0     H90653   7.475   2.332   8.964  0.6665 -3.1163 -0.1507
  672MOL0     H90654   7.682   2.207   8.880 -2.4721 -0.8541  2.4242
  672MOL0     H90655   7.844   2.372   8.550  2.4252  0.2872  2.2812
  672MOL0     H90656   7.939   2.248   8.623  0.2527 -0.3671 -1.6021
  672MOL0     H90657   7.897   2.074   8.453  0.4849 -1.2759 -3.1877
  672MOL0     H90658   7.775   2.163   8.381  0.5744 -2.2501 -1.2023
  672MOL0     H90659   7.939   2.346   8.314 -2.4919  0.3734  2.4733
  672MOL0     H90660   8.059   2.246   8.399 -0.7871 -2.2822  0.1636
  672MOL0     H90661   8.017   2.063   8.222 -0.5352 -0.7046  0.7560
  672MOL0     H90662   7.884   2.149   8.163  0.5234 -1.1533 -0.9037
  672MOL0     H90663   8.064   2.173   8.005  0.0017  1.7894 -0.9048
  672MOL0     H90664   8.046   2.330   8.082 -1.6921 -0.0661 -1.2838
  672MOL0     H90665   8.244   2.273   8.225 -0.3013 -2.1726  1.5739
  672MOL0     H90666   8.224   2.105   8.188  1.1550  0.2262 -2.5246
  672MOL0     H90667   8.294   2.165   7.950 -1.0603  2.0527 -0.6262
  672MOL0     H90668   8.343   2.311   8.026  0.8248  0.0879  0.7910
  672MOL0     H90669   8.432   2.041   8.129 -3.4157  0.6603  2.3300
  672MOL0     H90670   8.492   2.196   8.192 -1.6105  0.2814  1.5865
  672MOL0     H90671   8.694   2.310   8.046  2.2618 -1.6036  0.1764
  672MOL0     H90672   8.906   2.134   7.747  1.2940  1.9603 -0.9481
  672MOL0     H90673   8.860   2.298   7.775  2.1208  0.6203 -0.8860
  672MOL0     H90674   9.004   2.118   7.971  0.1201  1.4183  1.6193
  672MOL0     H90675   8.951   2.279   8.014  2.1640  1.1078  0.1144
  672MOL0     H90676   9.069   2.371   7.812 -1.8289 -1.6786 -1.4634
  672MOL0     H90677   9.139   2.211   7.798 -0.7202 -1.5787  1.3644
  672MOL0     H90678   9.217   2.229   8.049  0.9176 -1.6050 -0.7531
  672MOL0     H90679   9.151   2.394   8.041 -0.9537  0.7073 -1.5416
  672MOL0     H90680   9.562   2.398   7.924  0.7581 -1.0898  0.8408
  672MOL0     H90681   9.863   2.243   7.915  2.5351  0.1642 -2.4783
  672MOL0     H90682   9.811   2.260   7.743  0.2012  1.4330 -1.1480
  672MOL0     H90683   9.769   2.382   7.859 -0.6849 -1.2012 -1.0316
  672MOL0     H90684   9.832   1.758   7.709 -1.7327  1.9723  2.6416
  672MOL0     H90685   9.995   1.558   7.702  1.6756 -2.1264  0.2197
  672MOL0     H90686  10.152   1.458   8.058 -0.7408  0.2457 -1.4121
  672MOL0     H90687  10.029   1.344   8.109  0.6192 -1.6018  0.2871
  672MOL0     H90688  10.132   1.184   7.959 -0.4333  0.5854 -0.4258
  672MOL0     H90689  10.284   1.275   7.957  0.4348  2.5205 -0.0673
  672MOL0     H90690  10.128   1.127   8.156 -1.9306  2.0550 -3.6993
  672MOL0     H90691  10.225   1.241   8.241  0.1130 -1.7180  0.4616
  672MOL0     H90692  10.344   1.048   8.038 -0.8567 -2.0856  1.8384
  672MOL0     H90693  10.429   1.158   8.152 -0.0090  3.5866 -3.4523
  672MOL0     H90694  10.403   0.909   8.222  1.4712  0.4122 -0.2781
  672MOL0     H90695  10.236   0.955   8.260 -0.1331  0.2688  2.0178
  672MOL0     H90696  10.480   1.065   8.391  1.5482 -3.0385 -0.4331
  672MOL0     H90697  10.314   1.134   8.422  1.7340  1.1803  0.4111
  672MOL0     H90698  10.421   0.852   8.458  0.7368 -0.6199  2.8520
  672MOL0     H90699  10.255   0.880   8.483 -0.9060  1.8868 -0.4598
  672MOL0     H90700  10.505   0.997   8.640  0.0092  1.7346 -1.4554
  672MOL0     H90701  10.390   0.876   8.699  1.7651 -1.4451 -1.5666
  672MOL0     H90702   9.853   1.453   8.095 -0.7995  4.0826  4.8128
  672MOL0     H90703   9.700   1.645   8.098 -0.8295 -0.8748 -0.3757
  672MOL0     H90704   9.459   1.919   7.879  0.0912  0.2995 -2.1918
  672MOL0     H90705   9.283   2.072   7.905  0.4486  1.1464  2.3521
  672MOL0     H90706   7.576   2.295   8.474  0.4625  0.7316 -0.1472
  672MOL0     H90707   7.371   2.398   8.543  3.1197  2.6686 -1.9566
  672MOL0     H90708   7.061   2.529   8.835 -1.7086 -0.8453  2.4426
  672MOL0     H90709   6.885   2.673   8.942 -0.1983  0.3003 -0.8902
  672MOL0     H90710   6.774   2.867   8.929 -1.5136  0.5396  0.5179
  672MOL0     H90711   6.772   2.791   9.080 -1.0745 -1.0639 -0.4854
  672MOL0     H90712   6.688   3.088   9.038 -1.5319  0.1011 -0.9411
  672MOL0     H90713   6.724   3.023   9.193 -0.6684 -1.6407  0.7102
  672MOL0     H90714   6.492   2.953   9.004 -0.1407 -1.9758 -0.0245
  672MOL0     H90715   6.497   3.040   9.153  3.9233  2.4597 -0.9981
  672MOL0     H90716   6.552   2.808   9.271 -0.5675  3.0814 -0.3331
  672MOL0     H90717   6.542   2.731   9.107  0.9206 -1.2441 -0.4161
  672MOL0     H90718   6.164   2.819   9.295  0.4729 -2.7818  0.2035
  672MOL0     H90719   7.180   2.968   9.042 -0.4649  1.1494 -3.4907
  672MOL0     H90720   7.346   2.808   8.961  0.5982 -1.0771 -3.9265
  673MOL0     O90721   1.692  10.025   5.492 -0.0001  0.5235  0.4217
  673MOL0     C90722   1.607   9.949   5.543 -0.2620 -0.1636  1.2806
  673MOL0     O90723   1.483   9.916   5.483 -0.5067  0.3387 -0.5063
  673MOL0     C90724   1.444   9.968   5.364  0.2067  0.0142 -0.1360
  673MOL0     C90725   1.304   9.986   5.347 -0.9813  0.8524  0.3028
  673MOL0     C90726   1.246  10.025   5.223 -0.1898  0.5618  0.4721
  673MOL0     C90727   1.330  10.055   5.120 -0.2201  0.3486  0.1582
  673MOL0     O90728   1.293  10.088   4.993  0.2538  0.4009  0.6854
  673MOL0     C90729   1.181  10.173   4.981  0.2304 -1.6399  1.0992
  673MOL0     C90730   1.222  10.308   4.904 -0.1873  1.1881  0.3783
  673MOL0     C90731   1.323  10.385   4.974 -0.3159 -1.3896 -0.8391
  673MOL0     C90732   1.323  10.527   4.916 -0.0123 -0.3414  0.2237
  673MOL0     C90733   1.431  10.623   4.999  0.1151  0.9553  0.1308
  673MOL0     C90734   1.467  10.750   4.919  0.1571  1.0622  0.5240
  673MOL0     C90735   1.586  10.808   4.966 -0.7137  0.0220 -0.2867
  673MOL0     C90736   1.612  10.949   4.927 -0.0579  1.1056  0.6844
  673MOL0     N90737   1.685  11.024   5.034  0.1225 -0.0094 -0.2676
  673MOL0     C90738   1.669  11.158   5.042  0.1528 -0.1569 -0.4114
  673MOL0     C90739   1.779  11.201   5.114 -0.6319  0.0074  0.6906
  673MOL0     C90740   1.798  11.335   5.164  0.1040 -0.2057  0.1033
  673MOL0     C90741   1.865  11.350   5.306 -0.1318 -0.3346  0.4099
  673MOL0     C90742   1.913  11.505   5.320 -0.0920 -0.4623  0.5092
  673MOL0     C90743   1.986  11.535   5.448 -0.8531 -0.5780  0.5639
  673MOL0     O90744   2.049  11.668   5.433  0.5049  0.9224  0.2616
  673MOL0     C90745   2.168  11.694   5.495  0.3803  1.1644 -0.8333
  673MOL0     C90746   2.176  11.690   5.634  0.8741 -1.4552 -0.6109
  673MOL0     C90747   2.301  11.723   5.697 -0.2625 -0.9736  0.8613
  673MOL0     C90748   2.320  11.709   5.853  0.2468 -0.9213 -0.7073
  673MOL0     C90749   2.413  11.762   5.617 -0.1271 -0.8252 -0.3637
  673MOL0     C90750   2.534  11.835   5.668  0.0954 -0.3758  0.7634
  673MOL0     O90751   2.509  11.937   5.746 -0.2922  0.6306 -0.8176
  673MOL0     C90752   2.598  12.039   5.767  0.2677 -0.0831  0.3434
  673MOL0     C90753   2.714  12.057   5.698 -0.6741 -0.0678 -0.2205
  673MOL0     C90754   2.805  12.166   5.727  0.5776  0.6278 -0.8967
  673MOL0     C90755   2.780  12.254   5.827 -0.1393 -0.2885  0.0842
  673MOL0     O90756   2.875  12.349   5.863  0.1042  0.4629 -0.2804
  673MOL0     C90757   2.835  12.482   5.837  0.2146 -0.0254  1.1698
  673MOL0     C90758   2.930  12.564   5.920  0.0432 -0.5029  0.0329
  673MOL0     C90759   2.925  12.714   5.883  0.2996  0.7844  0.3171
  673MOL0     C90760   2.964  12.743   5.734  0.1306  0.4200  0.5025
  673MOL0     C90761   3.055  12.868   5.723  0.9756  0.1824 -0.6410
  673MOL0     C90762   3.070  12.927   5.586 -0.3832 -0.8869 -0.1425
  673MOL0     C90763   3.144  12.844   5.486  0.2796 -0.1658  1.2429
  673MOL0     C90764   3.157  12.912   5.350  0.2357  0.7021 -0.0931
  673MOL0    Cl90765   3.281  13.049   5.344 -0.0255 -0.4991  0.5791
  673MOL0     C90766   2.664  12.228   5.896 -0.8044 -0.2827 -0.1145
  673MOL0     C90767   2.580  12.122   5.876  1.4279  0.6241 -0.8701
  673MOL0     O90768   2.636  11.803   5.615 -0.8012  0.9603 -0.4878
  673MOL0     C90769   2.402  11.756   5.480  0.2692  0.1399  0.5494
  673MOL0     C90770   2.280  11.725   5.423 -0.2346 -0.8268 -0.4145
  673MOL0     N90771   1.853  11.086   5.151 -0.5601 -0.4824 -0.1740
  673MOL0     N90772   1.799  10.981   5.094 -0.6490  0.0864  0.4020
  673MOL0     C90773   1.464  10.042   5.134 -0.4420 -0.2611 -0.6167
  673MOL0     C90774   1.523   9.988   5.248  0.3521  0.2027  0.3140
  673MOL0     C90775   1.636   9.892   5.677 -0.7416  0.0482 -0.7222
  673MOL0     C90776   1.755   9.925   5.750 -0.3868  0.2669 -0.0684
  673MOL0     C90777   1.803   9.864   5.863 -0.1070  0.1711 -0.7574
  673MOL0     C90778   1.709   9.778   5.930 -0.7546 -0.0539 -0.0513
  673MOL0     O90779   1.714   9.705   6.038  0.0967  0.9437 -0.0032
  673MOL0     C90780   1.840   9.712   6.100 -0.0077  0.0419  0.0303
  673MOL0     C90781   1.939   9.617   6.025  0.3760  0.6040  0.4483
  673MOL0     C90782   1.895   9.470   6.041  0.4267 -0.1676  0.4232
  673MOL0     C90783   1.947   9.379   5.932 -0.1354  0.0464  0.5682
  673MOL0     C90784   1.961   9.240   5.981  0.3893 -0.5089  0.3096
  673MOL0     C90785   1.995   9.128   5.993  0.0924 -0.1092 -0.8221
  673MOL0     C90786   1.580   9.772   5.881 -0.3629  0.3827 -0.7450
  673MOL0     C90787   1.542   9.814   5.750  0.2588 -0.5842 -1.0397
  673MOL0     H90788   1.242   9.977   5.435  1.3628 -0.0923  1.9701
  673MOL0     H90789   1.138  10.035   5.224 -0.4023 -0.9015 -1.4462
  673MOL0     H90790   1.104  10.123   4.922  1.4019  0.2385 -2.3253
  673MOL0     H90791   1.130  10.198   5.075  0.1363 -0.6109  0.7949
  673MOL0     H90792   1.240  10.271   4.803 -0.1749  0.1675  0.7428
  673MOL0     H90793   1.135  10.372   4.888 -1.2378 -0.3158 -0.1308
  673MOL0     H90794   1.290  10.397   5.077  0.5215  0.6327 -0.7645
  673MOL0     H90795   1.412  10.323   4.958 -1.5528 -3.0922 -1.4017
  673MOL0     H90796   1.351  10.513   4.811  0.1632 -2.7515  0.5404
  673MOL0     H90797   1.226  10.576   4.926 -0.8170 -1.3421 -2.0293
  673MOL0     H90798   1.391  10.656   5.095  2.9546 -0.3557  1.8865
  673MOL0     H90799   1.511  10.552   5.020  0.7305  0.1454 -4.0091
  673MOL0     H90800   1.485  10.728   4.814 -3.9249  1.8690 -0.4917
  673MOL0     H90801   1.382  10.819   4.920 -1.4165 -0.7776  1.2314
  673MOL0     H90802   1.570  10.808   5.074  0.3630  0.3725 -0.1154
  673MOL0     H90803   1.673  10.745   4.947 -2.1926 -2.8985  1.7866
  673MOL0     H90804   1.512  10.988   4.906 -0.3149 -0.7552 -1.9717
  673MOL0     H90805   1.669  10.950   4.833 -0.6460 -1.0686  0.2605
  673MOL0     H90806   1.577  11.210   5.015 -1.0310 -0.0500  3.2849
  673MOL0     H90807   1.863  11.380   5.088 -1.6120  2.3912  0.0496
  673MOL0     H90808   1.708  11.399   5.161  1.1700  1.7394  3.7705
  673MOL0     H90809   1.943  11.273   5.310  0.4820  0.1631 -0.9725
  673MOL0     H90810   1.800  11.330   5.391  0.3859 -2.8486  0.3046
  673MOL0     H90811   1.819  11.562   5.327 -0.5846 -1.3815  1.5766
  673MOL0     H90812   1.971  11.533   5.232 -2.4923  0.3508 -0.9214
  673MOL0     H90813   2.052  11.449   5.457 -0.8537 -0.3889  2.9823
  673MOL0     H90814   1.923  11.541   5.537  2.3973  0.5831  2.9926
  673MOL0     H90815   2.095  11.646   5.692  0.4650  0.6720  0.5461
  673MOL0     H90816   2.236  11.654   5.896  0.6008  0.1042  1.4155
  673MOL0     H90817   2.409  11.652   5.879  0.2561 -0.1508  1.0776
  673MOL0     H90818   2.318  11.808   5.899 -2.6266 -1.8599  1.5148
  673MOL0     H90819   2.743  12.008   5.606  3.9703  0.5932  0.6445
  673MOL0     H90820   2.878  12.185   5.649 -1.1171 -3.1456 -3.7314
  673MOL0     H90821   2.837  12.506   5.730 -0.4942 -1.5157  0.7993
  673MOL0     H90822   2.731  12.501   5.866  0.0370 -1.4186  1.5060
  673MOL0     H90823   2.904  12.559   6.027  0.1115  2.4006  0.2632
  673MOL0     H90824   3.030  12.520   5.908 -0.4574 -2.5475  2.4303
  673MOL0     H90825   2.989  12.768   5.954  0.0874 -0.4094  1.4437
  673MOL0     H90826   2.821  12.747   5.889  0.5884  1.7524  0.2838
  673MOL0     H90827   3.027  12.667   5.687  1.3471  1.0842  1.0093
  673MOL0     H90828   2.865  12.760   5.691  0.4832 -0.8389 -0.8708
  673MOL0     H90829   3.147  12.830   5.768  0.3019 -0.5812  0.1280
  673MOL0     H90830   3.010  12.950   5.780  0.0492 -0.6315 -0.1696
  673MOL0     H90831   2.970  12.954   5.550 -0.3620  2.0291  1.6728
  673MOL0     H90832   3.123  13.023   5.585  1.1939 -1.7112 -1.5760
  673MOL0     H90833   3.095  12.749   5.464  3.7587 -1.4793 -1.9460
  673MOL0     H90834   3.242  12.814   5.525 -0.4252 -2.7379  1.2409
  673MOL0     H90835   3.056  12.942   5.322 -0.0067  0.1932  0.2246
  673MOL0     H90836   3.182  12.838   5.274 -2.3218  0.1625 -0.4952
  673MOL0     H90837   2.655  12.298   5.978  0.2498  0.2066 -0.3982
  673MOL0     H90838   2.493  12.116   5.941  0.7634 -2.9344 -1.9021
  673MOL0     H90839   2.484  11.772   5.410 -3.5273 -2.5320 -5.3101
  673MOL0     H90840   2.256  11.737   5.318  1.1971  1.6569 -0.5291
  673MOL0     H90841   1.516  10.079   5.046  3.2135 -0.4806  1.2478
  673MOL0     H90842   1.629   9.965   5.256  0.2980 -0.6003 -0.9037
  673MOL0     H90843   1.829   9.987   5.700  1.2674 -2.7466 -1.6072
  673MOL0     H90844   1.897   9.893   5.910 -1.3717 -0.0515  2.1511
  673MOL0     H90845   1.883   9.812   6.106 -2.3523  1.3798 -2.8888
  673MOL0     H90846   1.812   9.679   6.200  1.3726 -0.7863  0.1721
  673MOL0     H90847   2.038   9.628   6.068 -1.2098  0.9315  4.4208
  673MOL0     H90848   1.944   9.655   5.922 -0.1750  1.5137  0.7477
  673MOL0     H90849   1.786   9.463   6.048  0.3436  1.9574  2.2306
  673MOL0     H90850   1.929   9.429   6.136  1.9280 -1.4514 -0.6002
  673MOL0     H90851   2.048   9.416   5.912 -0.0188 -0.4119  0.3133
  673MOL0     H90852   1.887   9.384   5.841  0.5478  1.8688  0.1584
  673MOL0     H90853   1.999   9.021   5.996 -1.6157 -0.1878  1.0576
  673MOL0     H90854   1.501   9.721   5.935 -0.7147  0.2299 -1.3902
  673MOL0     H90855   1.441   9.799   5.713  0.8065 -1.5454 -2.2178
  674MOL0     O90856   4.735   6.262   4.854 -0.9212 -0.4750 -0.6692
  674MOL0     C90857   4.802   6.342   4.919  0.2277 -0.2497 -0.4507
  674MOL0     O90858   4.781   6.367   5.058  1.0063 -0.0631 -0.1984
  674MOL0     C90859   4.649   6.332   5.104 -0.3863 -0.5231 -0.1756
  674MOL0     C90860   4.541   6.402   5.045 -0.4679 -0.4532  0.3347
  674MOL0     C90861   4.413   6.377   5.083  0.1515  0.5243  0.1076
  674MOL0     C90862   4.384   6.264   5.173 -0.6078  0.2018  0.6705
  674MOL0     O90863   4.260   6.214   5.199  0.2994 -0.8234  0.8125
  674MOL0     C90864   4.147   6.272   5.121  0.4987 -0.0463 -1.0372
  674MOL0     C90865   4.010   6.260   5.190 -0.8480  0.5021 -0.1998
  674MOL0     C90866   3.982   6.118   5.230 -0.5346 -1.0822 -0.0825
  674MOL0     C90867   3.939   6.019   5.126 -0.2143  0.8513  0.5060
  674MOL0     C90868   3.950   5.882   5.193  0.6730  0.1405 -0.3861
  674MOL0     C90869   3.879   5.792   5.096  0.1584  0.3967  0.2369
  674MOL0     C90870   3.860   5.648   5.159 -0.6670 -0.1972 -0.4477
  674MOL0     C90871   3.876   5.550   5.052  0.6101  0.1966 -0.2378
  674MOL0     N90872   3.820   5.419   5.082  0.1926  0.3260 -0.3636
  674MOL0     C90873   3.856   5.337   5.191 -0.3523 -0.4984 -0.3534
  674MOL0     C90874   3.857   5.205   5.156  0.1526 -0.1024  0.6788
  674MOL0     C90875   3.895   5.072   5.233  0.0298 -0.5206  0.4449
  674MOL0     C90876   3.817   5.074   5.364  0.7191  0.4908 -0.1130
  674MOL0     C90877   3.814   4.948   5.459 -0.0285  0.5848  0.1956
  674MOL0     C90878   3.936   4.945   5.545 -0.3521 -0.0505 -0.1012
  674MOL0     O90879   4.058   4.910   5.471  0.6686 -0.5291 -0.4013
  674MOL0     C90880   4.176   4.925   5.521  0.3396 -0.4110 -0.3880
  674MOL0     C90881   4.219   4.846   5.621  0.5032 -0.9035 -0.3468
  674MOL0     C90882   4.339   4.866   5.694 -0.5877  0.2746  0.6423
  674MOL0     C90883   4.356   4.768   5.813 -0.2658  0.2295  0.6265
  674MOL0     C90884   4.422   4.980   5.647  0.0262  0.0878 -0.0256
  674MOL0     C90885   4.555   5.006   5.705  0.1037  0.8060  0.2902
  674MOL0     O90886   4.607   5.131   5.692 -0.0343 -0.8086 -0.4723
  674MOL0     C90887   4.715   5.155   5.765 -0.2957 -0.6581 -0.5011
  674MOL0     C90888   4.845   5.106   5.726 -0.5703  0.0232  0.1318
  674MOL0     C90889   4.957   5.145   5.802 -0.0522 -0.6379 -0.5973
  674MOL0     C90890   4.933   5.214   5.926  0.2078  0.8100  0.3918
  674MOL0     O90891   5.029   5.253   6.009  0.0259 -0.2776 -0.1862
  674MOL0     C90892   5.096   5.139   6.059  0.4986 -0.5388 -0.5179
  674MOL0     C90893   5.235   5.166   6.113  0.4579  0.2511  0.5084
  674MOL0     C90894   5.335   5.191   5.999  0.3262 -0.3493  0.6693
  674MOL0     C90895   5.480   5.183   6.034  0.6938  0.0669 -0.2392
  674MOL0     C90896   5.559   5.175   5.893  0.7610 -0.9607  0.4306
  674MOL0     C90897   5.702   5.159   5.917 -0.3042  0.2790  0.8624
  674MOL0     C90898   5.770   5.176   5.783  0.6804  0.7031 -0.2922
  674MOL0     C90899   5.917   5.190   5.790  0.5324 -0.7106 -0.5663
  674MOL0    Cl90900   5.936   5.368   5.835  0.2342 -0.0618  0.1915
  674MOL0     C90901   4.807   5.258   5.956  0.4356 -0.6786 -0.1607
  674MOL0     C90902   4.695   5.222   5.883 -0.9244  0.4535  0.4932
  674MOL0     O90903   4.607   4.906   5.756  0.0265  0.4714  0.0916
  674MOL0     C90904   4.378   5.046   5.536 -0.4343 -0.0168  0.2605
  674MOL0     C90905   4.257   5.028   5.474 -0.2105 -0.3628 -0.0543
  674MOL0     N90906   3.817   5.204   5.021 -0.3828 -0.1349 -1.1757
  674MOL0     N90907   3.808   5.329   4.976  0.3099  0.2377 -0.5851
  674MOL0     C90908   4.492   6.191   5.210 -0.2235 -0.2251  0.0724
  674MOL0     C90909   4.620   6.221   5.175 -0.7140 -0.3159 -0.3574
  674MOL0     C90910   4.902   6.422   4.852 -0.2491 -0.1416  0.0004
  674MOL0     C90911   4.966   6.376   4.735 -1.2055 -0.1762 -0.2295
  674MOL0     C90912   5.049   6.454   4.660 -0.6421 -0.0310  0.3611
  674MOL0     C90913   5.105   6.569   4.732 -0.4736 -0.4662 -0.2528
  674MOL0     O90914   5.216   6.634   4.677  0.0856  0.1753  0.0941
  674MOL0     C90915   5.209   6.782   4.681  0.3884  0.2770 -0.0591
  674MOL0     C90916   5.098   6.831   4.585  0.8694 -0.6607  0.6978
  674MOL0     C90917   5.132   6.786   4.440 -0.0485  0.0663 -0.1613
  674MOL0     C90918   5.016   6.810   4.340  1.3632  0.5293 -0.2573
  674MOL0     C90919   4.952   6.941   4.354  0.7804 -0.1173 -0.2230
  674MOL0     C90920   4.890   7.049   4.349 -0.5982 -0.4827 -0.0206
  674MOL0     C90921   5.053   6.613   4.856 -0.0541  0.4140  0.7698
  674MOL0     C90922   4.956   6.533   4.927 -0.7770 -0.6994  1.4869
  674MOL0     H90923   4.558   6.485   4.977  0.6060 -1.2585 -0.4012
  674MOL0     H90924   4.326   6.417   5.031  0.0401  1.2913  0.8533
  674MOL0     H90925   4.156   6.380   5.105  3.8379  0.0739  0.7975
  674MOL0     H90926   4.142   6.210   5.031 -0.4526 -1.1424 -0.2717
  674MOL0     H90927   3.998   6.328   5.275 -1.3334 -0.7708  0.7808
  674MOL0     H90928   3.928   6.281   5.120 -0.9442 -1.0252 -0.5783
  674MOL0     H90929   4.067   6.080   5.287  2.6512  1.6681 -2.5367
  674MOL0     H90930   3.903   6.126   5.305  0.0274  0.4040  0.3876
  674MOL0     H90931   3.839   6.036   5.085  0.2853  1.1481 -0.6409
  674MOL0     H90932   4.005   6.033   5.040  0.2646  1.7223  1.0090
  674MOL0     H90933   4.054   5.852   5.209  1.4589  1.8811 -1.8748
  674MOL0     H90934   3.902   5.883   5.291 -0.8957 -0.9251 -1.0908
  674MOL0     H90935   3.783   5.834   5.066 -0.0736  1.8054  2.7397
  674MOL0     H90936   3.944   5.787   5.008  2.6818  1.7122  1.9294
  674MOL0     H90937   3.939   5.637   5.234  1.0431  1.7504 -1.8699
  674MOL0     H90938   3.766   5.644   5.214 -0.1372  0.6278  0.5410
  674MOL0     H90939   3.982   5.528   5.039  0.6461  0.2381 -0.0116
  674MOL0     H90940   3.825   5.591   4.964 -1.4639  1.0993  1.3044
  674MOL0     H90941   3.861   5.380   5.290  1.5413  2.0965 -1.4536
  674MOL0     H90942   3.859   4.989   5.172 -2.0054  1.0138 -0.5878
  674MOL0     H90943   4.003   5.077   5.246  0.2612 -1.9284 -0.7462
  674MOL0     H90944   3.712   5.092   5.338  1.0161  1.4452 -0.6921
  674MOL0     H90945   3.845   5.154   5.433 -1.6384  0.3666  1.0998
  674MOL0     H90946   3.801   4.860   5.396 -0.8678 -0.3972  1.6686
  674MOL0     H90947   3.729   4.952   5.527  0.2361  0.6204  0.5302
  674MOL0     H90948   3.919   4.875   5.627  1.4785 -0.3803  0.0448
  674MOL0     H90949   3.931   5.048   5.582 -1.7249 -0.0631 -0.1828
  674MOL0     H90950   4.142   4.772   5.643 -0.9736  0.1546 -1.7436
  674MOL0     H90951   4.262   4.721   5.843 -1.6978  2.3092 -0.3736
  674MOL0     H90952   4.419   4.682   5.788  1.5071  0.8655  2.5981
  674MOL0     H90953   4.389   4.825   5.901  0.0656  1.2802 -0.1628
  674MOL0     H90954   4.862   5.050   5.635  1.8146  2.2145 -0.8771
  674MOL0     H90955   5.056   5.123   5.764  0.8857 -1.5569  2.1153
  674MOL0     H90956   5.027   5.095   6.132  1.4169 -2.1214 -0.5413
  674MOL0     H90957   5.111   5.058   5.987  1.7900 -1.8086  1.0838
  674MOL0     H90958   5.224   5.245   6.188 -4.0682 -0.8623  1.3156
  674MOL0     H90959   5.272   5.076   6.163  1.1606  0.7060  0.8331
  674MOL0     H90960   5.319   5.293   5.964  1.1619 -1.1340 -2.3563
  674MOL0     H90961   5.324   5.124   5.912  2.5708  0.1688 -0.0672
  674MOL0     H90962   5.510   5.278   6.078 -0.2579  0.9362 -1.4097
  674MOL0     H90963   5.499   5.097   6.099  0.0168 -1.2991 -1.7426
  674MOL0     H90964   5.540   5.267   5.837 -0.7424  1.0384  3.8931
  674MOL0     H90965   5.526   5.089   5.833  1.5793 -1.2845  0.4363
  674MOL0     H90966   5.733   5.246   5.976 -1.1310  0.9516  0.3257
  674MOL0     H90967   5.717   5.058   5.957  0.1774  0.8053  2.0638
  674MOL0     H90968   5.726   5.260   5.730  1.4037 -0.2582 -2.5388
  674MOL0     H90969   5.738   5.089   5.724 -1.1603 -2.4256  4.6700
  674MOL0     H90970   5.970   5.175   5.696  0.5624 -0.9524 -0.5104
  674MOL0     H90971   5.944   5.114   5.864  0.3243 -0.8559 -0.6389
  674MOL0     H90972   4.782   5.305   6.050 -2.5542 -2.5384  0.0930
  674MOL0     H90973   4.595   5.254   5.910 -1.1762 -0.0112  0.1240
  674MOL0     H90974   4.424   5.141   5.511  0.3715 -0.4881 -0.0646
  674MOL0     H90975   4.231   5.100   5.398 -2.2503 -0.5812  0.3743
  674MOL0     H90976   4.484   6.112   5.284  1.5068  0.6820  1.2855
  674MOL0     H90977   4.685   6.141   5.209 -1.8171 -1.0566  0.0888
  674MOL0     H90978   4.919   6.292   4.686 -1.7498 -0.9833  1.5758
  674MOL0     H90979   5.086   6.437   4.559 -1.1695  0.2882  0.1106
  674MOL0     H90980   5.195   6.821   4.782 -1.3764 -1.0079  0.2555
  674MOL0     H90981   5.300   6.832   4.649 -0.4065  1.4970 -0.4838
  674MOL0     H90982   5.101   6.939   4.602  1.5876 -0.9054  2.2352
  674MOL0     H90983   4.999   6.796   4.615  0.8863 -0.3273  1.1471
  674MOL0     H90984   5.167   6.682   4.448  0.4063  0.3138  1.4284
  674MOL0     H90985   5.218   6.846   4.410  3.2661 -3.0045  2.2677
  674MOL0     H90986   4.938   6.734   4.348  2.0019 -0.1337 -0.0695
  674MOL0     H90987   5.063   6.803   4.242 -1.7728 -1.5151 -1.7612
  674MOL0     H90988   4.843   7.145   4.347  2.2575  1.0273 -0.6096
  674MOL0     H90989   5.086   6.705   4.904  4.2885  0.3502 -1.5422
  674MOL0     H90990   4.912   6.575   5.017 -4.3682 -0.2962 -0.2910
  675MOL0     O90991  11.064   2.309   8.602  0.4885 -0.2963 -0.6098
  675MOL0     C90992  11.154   2.399   8.615  1.0468  0.4055 -0.2452
  675MOL0     O90993  11.251   2.397   8.713  0.2187  0.0714 -0.0268
  675MOL0     C90994  11.273   2.288   8.790  0.1448 -0.4434  0.0202
  675MOL0     C90995  11.295   2.308   8.919  0.6345 -0.0779 -0.3905
  675MOL0     C90996  11.325   2.205   9.006  0.2453 -0.1760 -0.4937
  675MOL0     C90997  11.339   2.080   8.959  1.2880  0.1201 -0.1847
  675MOL0     O90998  11.374   1.971   9.038 -0.2640 -1.5490  0.1519
  675MOL0     C90999  11.489   1.908   8.992  0.1090 -0.0540  0.9991
  675MOL0     C91000  11.468   1.755   8.995  0.0708 -0.2734  0.6295
  675MOL0     C91001  11.426   1.694   9.131  0.1003  0.2439 -0.5291
  675MOL0     C91002  11.516   1.747   9.237  0.9237 -0.6155  0.1611
  675MOL0     C91003  11.463   1.708   9.373 -0.5184 -0.8610 -1.0641
  675MOL0     C91004  11.566   1.691   9.492  0.8674 -0.3538 -0.2675
  675MOL0     C91005  11.633   1.819   9.539 -0.0961 -0.3259  0.2624
  675MOL0     C91006  11.546   1.870   9.672 -0.3145 -1.1325  0.2742
  675MOL0     N91007  11.417   1.923   9.635 -0.0308  0.4585  0.9444
  675MOL0     C91008  11.300   1.869   9.681  0.4341  0.1998  0.1402
  675MOL0     C91009  11.204   1.934   9.619  1.1097 -0.5380 -0.0607
  675MOL0     C91010  11.052   1.923   9.633  0.5047  0.1905  0.5052
  675MOL0     C91011  11.002   1.777   9.645 -0.0634 -0.6363 -0.0551
  675MOL0     C91012  10.941   1.761   9.784 -0.5412  1.5704  0.5164
  675MOL0     C91013  10.917   1.611   9.811 -0.4190 -0.3712 -0.0856
  675MOL0     O91014  10.845   1.553   9.699  0.3320  0.7207  0.2391
  675MOL0     C91015  10.795   1.431   9.700 -0.3661  0.0409 -0.8299
  675MOL0     C91016  10.736   1.381   9.584  0.6817  0.3984 -0.4068
  675MOL0     C91017  10.653   1.263   9.591  0.9759 -0.4286  0.7525
  675MOL0     C91018  10.583   1.222   9.469  0.0465  0.2548 -0.4507
  675MOL0     C91019  10.644   1.179   9.705  0.2374  1.1182 -0.1048
  675MOL0     C91020  10.563   1.057   9.724 -0.2507  0.0979 -0.4884
  675MOL0     O91021  10.488   1.009   9.615  0.0579  0.3061 -0.8799
  675MOL0     C91022  10.438   0.882   9.601 -0.2718  0.1667 -0.2166
  675MOL0     C91023  10.436   0.838   9.471  0.5265 -0.9646  0.0198
  675MOL0     C91024  10.394   0.709   9.435 -0.4580 -1.2042 -0.4007
  675MOL0     C91025  10.333   0.629   9.540  0.3247 -0.5075  0.1826
  675MOL0     O91026  10.297   0.504   9.499 -0.0789 -0.1456 -0.3677
  675MOL0     C91027  10.211   0.420   9.575 -0.7532 -0.6954 -0.6314
  675MOL0     C91028  10.074   0.484   9.562 -0.2780 -0.4122  0.5323
  675MOL0     C91029   9.974   0.398   9.634 -0.7167  0.3634  0.1657
  675MOL0     C91030   9.836   0.415   9.594  0.1951  0.1567 -0.8507
  675MOL0     C91031   9.751   0.297   9.663 -0.5100  0.1960  0.0632
  675MOL0     C91032   9.606   0.338   9.696 -0.4101 -0.3705 -0.6884
  675MOL0     C91033   9.545   0.241   9.804  0.5890  0.2310  0.4686
  675MOL0     C91034   9.403   0.265   9.851  0.3197 -0.2562 -0.2165
  675MOL0    Cl91035   9.391   0.427   9.922  0.3006 -0.4654 -0.1079
  675MOL0     C91036  10.339   0.676   9.675 -0.6088 -0.5327  0.7433
  675MOL0     C91037  10.390   0.802   9.711  0.9085 -0.0727 -1.1692
  675MOL0     O91038  10.559   1.008   9.842  1.0786  0.4191  0.1446
  675MOL0     C91039  10.720   1.222   9.816  0.4534  0.3449 -0.0043
  675MOL0     C91040  10.794   1.338   9.813 -0.2848 -0.4979  1.2039
  675MOL0     N91041  11.263   2.025   9.530  0.7962 -0.2240  0.4483
  675MOL0     N91042  11.390   2.009   9.536  0.8097  0.3894  0.7977
  675MOL0     C91043  11.311   2.051   8.823  0.2087  0.0705 -1.1186
  675MOL0     C91044  11.278   2.156   8.742 -1.1490  0.4594  0.7732
  675MOL0     C91045  11.155   2.506   8.505 -1.4356  0.6587 -0.0532
  675MOL0     C91046  11.066   2.492   8.399  0.1450 -0.8830 -0.5031
  675MOL0     C91047  11.038   2.596   8.303  0.6028 -0.0588  0.2766
  675MOL0     C91048  11.113   2.707   8.315 -0.9749 -0.3664  0.6779
  675MOL0     O91049  11.090   2.813   8.225  0.4308  0.2026 -0.3859
  675MOL0     C91050  11.064   2.785   8.087  0.6092 -0.4646  0.3404
  675MOL0     C91051  11.039   2.918   8.021  0.5911  0.2632 -0.2817
  675MOL0     C91052  11.161   2.977   7.966  0.2478 -0.0665  0.7574
  675MOL0     C91053  11.122   3.095   7.889 -0.0853  0.0409 -0.1792
  675MOL0     C91054  11.063   3.061   7.762 -0.4263  1.0931 -0.4730
  675MOL0     C91055  11.018   3.016   7.659  0.1316  0.2160  0.1868
  675MOL0     C91056  11.202   2.728   8.419  0.3224  0.3182 -0.0788
  675MOL0     C91057  11.217   2.632   8.513 -0.6407  0.2025  0.3945
  675MOL0     H91058  11.289   2.402   8.974 -0.9162 -2.7248  4.5829
  675MOL0     H91059  11.348   2.225   9.110 -0.9402  1.0656 -0.4469
  675MOL0     H91060  11.525   1.949   8.897 -0.8960 -1.7191 -0.1469
  675MOL0     H91061  11.573   1.917   9.062  0.7413 -2.8927  0.7177
  675MOL0     H91062  11.389   1.736   8.922 -0.7425  2.5709  0.6474
  675MOL0     H91063  11.559   1.703   8.963 -0.8948 -2.7299  1.6076
  675MOL0     H91064  11.325   1.725   9.158 -0.7510 -1.6887 -1.3223
  675MOL0     H91065  11.442   1.586   9.130  4.0910  0.6039  1.7850
  675MOL0     H91066  11.614   1.701   9.219  0.7766 -0.4605 -1.1299
  675MOL0     H91067  11.518   1.856   9.234  3.2755 -0.5696 -4.1420
  675MOL0     H91068  11.383   1.780   9.393 -1.2326 -2.2506  1.4939
  675MOL0     H91069  11.410   1.613   9.375  1.9006 -2.2750  1.2314
  675MOL0     H91070  11.505   1.646   9.571  0.5764  0.8367  0.2070
  675MOL0     H91071  11.645   1.618   9.470  0.5805 -0.4622 -0.9945
  675MOL0     H91072  11.738   1.795   9.559  0.0471  0.0682 -0.0097
  675MOL0     H91073  11.619   1.896   9.463  2.0982  0.9272  1.0418
  675MOL0     H91074  11.603   1.950   9.720 -2.1779  3.6971 -4.4968
  675MOL0     H91075  11.539   1.783   9.738  1.0643 -1.5960 -0.1430
  675MOL0     H91076  11.290   1.790   9.756 -0.9217  1.2409  1.0896
  675MOL0     H91077  11.016   1.994   9.707  1.8727  0.5677  0.8345
  675MOL0     H91078  11.019   1.964   9.537 -0.0173  0.2246  0.6980
  675MOL0     H91079  11.090   1.713   9.635 -0.0601 -0.9174  1.5148
  675MOL0     H91080  10.932   1.760   9.564  3.4809 -1.9804 -3.1215
  675MOL0     H91081  10.842   1.806   9.791 -0.0320  2.8257 -0.0508
  675MOL0     H91082  11.009   1.785   9.866 -0.1224 -2.9510  1.7867
  675MOL0     H91083  10.852   1.598   9.898  2.3259  1.4693  2.4273
  675MOL0     H91084  11.017   1.568   9.817 -0.6767 -0.8003  1.3535
  675MOL0     H91085  10.732   1.458   9.508  1.1324  1.0861  0.2394
  675MOL0     H91086  10.474   1.220   9.485 -0.3720  0.4696 -2.8804
  675MOL0     H91087  10.597   1.296   9.389 -0.8465  2.0270  0.9547
  675MOL0     H91088  10.611   1.120   9.442  1.0793  0.9660 -2.2493
  675MOL0     H91089  10.468   0.912   9.398  0.1924  2.1728  2.8204
  675MOL0     H91090  10.384   0.675   9.332 -2.8486 -2.1661  0.0828
  675MOL0     H91091  10.212   0.321   9.530  1.4392 -0.6086 -0.9105
  675MOL0     H91092  10.242   0.412   9.680 -0.4465  2.6629 -0.3503
  675MOL0     H91093  10.068   0.590   9.586  0.0239 -0.1845 -0.3926
  675MOL0     H91094  10.051   0.481   9.455 -0.7867  1.7668  0.5398
  675MOL0     H91095  10.003   0.424   9.736 -0.6564 -1.9612  0.7895
  675MOL0     H91096   9.998   0.293   9.620 -2.9484 -0.1323 -0.3850
  675MOL0     H91097   9.803   0.516   9.620  0.6297  0.0709  0.0618
  675MOL0     H91098   9.832   0.402   9.486 -2.1901 -0.1735 -0.7930
  675MOL0     H91099   9.797   0.258   9.754 -3.4947  1.2008  2.1903
  675MOL0     H91100   9.756   0.224   9.582  0.1820  1.1186 -0.7527
  675MOL0     H91101   9.605   0.440   9.735  4.5118 -0.6447  0.8301
  675MOL0     H91102   9.555   0.327   9.600  3.1182  0.4695 -2.8788
  675MOL0     H91103   9.617   0.255   9.885  3.7300 -0.6576 -1.9517
  675MOL0     H91104   9.548   0.138   9.769 -0.1920  0.1585  0.5796
  675MOL0     H91105   9.387   0.181   9.919 -0.5533  1.8345  2.3311
  675MOL0     H91106   9.330   0.245   9.772 -0.4281 -2.5323  0.9432
  675MOL0     H91107  10.309   0.620   9.762 -1.6980  0.1736  0.8417
  675MOL0     H91108  10.397   0.839   9.813 -0.5489 -1.8363 -0.3787
  675MOL0     H91109  10.719   1.155   9.902 -1.3639  0.7259  0.3038
  675MOL0     H91110  10.862   1.364   9.894  3.3356  1.1975 -2.0550
  675MOL0     H91111  11.325   1.952   8.782  0.0851 -0.6477  0.4747
  675MOL0     H91112  11.261   2.136   8.637 -0.3875 -0.2137  0.7688
  675MOL0     H91113  11.015   2.397   8.388 -0.9088 -0.5499  1.0961
  675MOL0     H91114  10.966   2.564   8.228  1.2140  2.7553 -1.6230
  675MOL0     H91115  11.154   2.750   8.036 -0.2678 -1.0275 -0.8880
  675MOL0     H91116  10.985   2.710   8.079  0.1477 -0.1736  1.8924
  675MOL0     H91117  11.013   2.994   8.095  1.7348  0.3585  0.0446
  675MOL0     H91118  10.956   2.907   7.950  0.4133  3.4705 -0.7165
  675MOL0     H91119  11.213   2.905   7.901 -0.0192 -0.7437  1.2807
  675MOL0     H91120  11.231   2.999   8.046  2.1050 -3.4086  0.2662
  675MOL0     H91121  11.219   3.138   7.864  1.5718 -2.6912  1.1501
  675MOL0     H91122  11.050   3.163   7.936 -2.7736 -3.0607  0.5255
  675MOL0     H91123  10.995   2.958   7.572 -0.8866 -1.5688  1.5781
  675MOL0     H91124  11.244   2.828   8.429 -0.2884  0.4819  1.1579
  675MOL0     H91125  11.277   2.660   8.599 -2.1016 -1.1512  1.9012
  676MOL0     O91126   3.768   6.681  10.840 -0.2811 -0.0058  0.2402
  676MOL0     C91127   3.792   6.576  10.787  0.4811 -0.5337  1.2678
  676MOL0     O91128   3.891   6.556  10.700  0.1773  0.3133  0.7061
  676MOL0     C91129   3.995   6.646  10.716 -0.7080  0.0808 -0.0521
  676MOL0     C91130   3.994   6.778  10.674  0.0189  0.2216 -0.6977
  676MOL0     C91131   4.107   6.855  10.679  0.3490 -0.1346  0.7679
  676MOL0     C91132   4.218   6.805  10.751 -0.6625  0.1475 -0.6320
  676MOL0     O91133   4.336   6.868  10.761  0.4766 -1.2210  0.0506
  676MOL0     C91134   4.399   6.882  10.883  0.3809 -0.3617  0.3674
  676MOL0     C91135   4.358   7.021  10.951  0.6203  0.0666 -0.6026
  676MOL0     C91136   4.383   7.150  10.884 -0.2382  0.0348  0.2621
  676MOL0     C91137   4.416   7.261  10.994  0.5992  0.1780  0.1239
  676MOL0     C91138   4.430   7.405  10.960  0.0552  0.4093  0.7420
  676MOL0     C91139   4.556   7.425  10.872  0.7823 -0.6440 -0.4297
  676MOL0     C91140   4.571   7.561  10.809 -0.7997  0.2214  0.3436
  676MOL0     C91141   4.708   7.576  10.747 -0.4473  0.6716  0.9595
  676MOL0     N91142   4.714   7.708  10.682  0.1430 -0.4781 -0.1023
  676MOL0     C91143   4.635   7.756  10.579  0.4518  0.5921  0.3777
  676MOL0     C91144   4.696   7.870  10.529 -0.4039 -0.3739 -1.0030
  676MOL0     C91145   4.651   7.952  10.400 -0.4551  0.1458  0.1719
  676MOL0     C91146   4.693   7.897  10.267  0.2793 -0.9558  0.5917
  676MOL0     C91147   4.845   7.876  10.239  0.6769  1.3967 -0.2038
  676MOL0     C91148   4.926   8.006  10.211  0.3810 -0.1767  0.1459
  676MOL0     O91149   4.872   8.094  10.117  0.4882 -0.0921  0.2041
  676MOL0     C91150   4.870   8.055   9.981 -1.3154 -0.2462 -1.5320
  676MOL0     C91151   4.785   8.110   9.894  0.5088 -0.0529  0.1265
  676MOL0     C91152   4.774   8.068   9.758 -0.7989  0.9350  0.1086
  676MOL0     C91153   4.696   8.158   9.673  0.4995  0.3041  0.0114
  676MOL0     C91154   4.849   7.961   9.709  1.2144  0.2809 -0.4032
  676MOL0     C91155   4.846   7.899   9.573 -0.4964 -0.8081  0.5466
  676MOL0     O91156   4.893   7.779   9.552 -0.4478 -0.2248  0.5452
  676MOL0     C91157   4.917   7.738   9.419 -0.1381 -1.1075  0.1960
  676MOL0     C91158   5.001   7.821   9.330 -0.2414  0.3434 -0.9683
  676MOL0     C91159   5.027   7.783   9.198  0.3204 -0.8365 -0.6451
  676MOL0     C91160   4.979   7.663   9.149 -0.3000  0.3759  0.7798
  676MOL0     O91161   5.013   7.606   9.024  0.2198  0.4133 -0.7071
  676MOL0     C91162   5.024   7.701   8.914  0.3269 -0.5485  0.5709
  676MOL0     C91163   5.066   7.622   8.791 -0.8330  0.1237 -0.4656
  676MOL0     C91164   5.210   7.575   8.823 -0.5054  0.0160 -0.6164
  676MOL0     C91165   5.293   7.582   8.699 -0.5666  0.2503  0.7516
  676MOL0     C91166   5.407   7.486   8.712  0.5986 -0.2749  0.8931
  676MOL0     C91167   5.492   7.473   8.579 -1.5592  0.0158 -0.8095
  676MOL0     C91168   5.407   7.413   8.461 -0.1325  0.6312  0.4300
  676MOL0     C91169   5.465   7.417   8.318  0.3711 -1.2078  0.3065
  676MOL0    Cl91170   5.511   7.579   8.263  0.1794 -0.0194  0.1038
  676MOL0     C91171   4.894   7.588   9.230  0.0492  1.0724  0.2189
  676MOL0     C91172   4.865   7.619   9.362  0.8621  0.9899  0.7003
  676MOL0     O91173   4.801   7.979   9.490  0.2120  0.2929 -1.1578
  676MOL0     C91174   4.924   7.888   9.808 -0.0342  0.1428 -0.3008
  676MOL0     C91175   4.935   7.939   9.935  1.5727 -0.4667 -0.4361
  676MOL0     N91176   4.814   7.888  10.600  0.0562  0.5819  0.4044
  676MOL0     N91177   4.828   7.782  10.667  0.0903 -0.8178 -0.1516
  676MOL0     C91178   4.220   6.675  10.782  0.1053  1.2883  0.4413
  676MOL0     C91179   4.110   6.588  10.762  0.7917 -0.3893  0.3780
  676MOL0     C91180   3.682   6.480  10.798 -0.1213  0.6171 -0.4135
  676MOL0     C91181   3.674   6.371  10.710  0.2666 -0.4664  0.1652
  676MOL0     C91182   3.579   6.262  10.732  0.4235 -1.0559  0.1927
  676MOL0     C91183   3.489   6.268  10.841 -0.4469  0.5120 -0.3726
  676MOL0     O91184   3.413   6.156  10.872  0.6743  0.1008 -0.9602
  676MOL0     C91185   3.395   6.112  11.009  0.2274  0.2058 -0.1885
  676MOL0     C91186   3.331   5.973  11.029  0.4143  0.1799 -0.2383
  676MOL0     C91187   3.174   5.971  11.026  0.1292 -0.1638 -0.6441
  676MOL0     C91188   3.114   5.839  11.087  0.3286 -0.1825  0.2028
  676MOL0     C91189   3.180   5.798  11.211 -1.7494  0.0566 -0.7739
  676MOL0     C91190   3.220   5.762  11.322 -0.7748 -0.3654  0.3285
  676MOL0     C91191   3.495   6.381  10.925 -0.5293  0.0378 -0.8523
  676MOL0     C91192   3.596   6.481  10.911  1.5790  0.5402  0.3969
  676MOL0     H91193   3.907   6.820  10.625  0.9877  1.5771 -1.3349
  676MOL0     H91194   4.102   6.952  10.631  2.6653  0.1261  0.8969
  676MOL0     H91195   4.368   6.798  10.946 -0.1773 -1.1591 -0.9176
  676MOL0     H91196   4.508   6.882  10.887  0.4068  0.8891  0.1212
  676MOL0     H91197   4.250   7.022  10.966  0.5083  4.1495 -0.7283
  676MOL0     H91198   4.394   7.023  11.054  0.9737 -5.7726 -0.2855
  676MOL0     H91199   4.463   7.144  10.809  1.3863  1.2298  1.8070
  676MOL0     H91200   4.292   7.188  10.837 -0.9102  0.6616  1.9787
  676MOL0     H91201   4.335   7.249  11.067  1.0381 -2.6176  0.2645
  676MOL0     H91202   4.507   7.237  11.050  0.5912 -0.5438 -0.1577
  676MOL0     H91203   4.344   7.446  10.906 -0.4673  1.0677  2.0316
  676MOL0     H91204   4.423   7.464  11.052 -2.9691 -1.8929  2.1762
  676MOL0     H91205   4.649   7.412  10.929  0.6180  1.8202  0.5299
  676MOL0     H91206   4.553   7.346  10.797  1.8191 -2.6348  1.5076
  676MOL0     H91207   4.500   7.567  10.726  0.8471  0.2866 -1.1129
  676MOL0     H91208   4.561   7.642  10.882 -0.6268  2.4301 -1.9651
  676MOL0     H91209   4.735   7.498  10.677  0.4188  1.4479  0.4108
  676MOL0     H91210   4.786   7.578  10.823  0.7879 -1.4970 -0.1609
  676MOL0     H91211   4.554   7.709  10.524  0.0545  1.3058  0.3291
  676MOL0     H91212   4.544   7.975  10.400 -1.0056 -2.0975 -1.5577
  676MOL0     H91213   4.716   8.039  10.416  1.2044 -0.9830 -0.1984
  676MOL0     H91214   4.648   7.949  10.182  2.1240 -2.4969 -1.4646
  676MOL0     H91215   4.643   7.799  10.261  0.0246 -1.0576  3.3717
  676MOL0     H91216   4.845   7.801  10.160  1.4804 -2.1296  2.8613
  676MOL0     H91217   4.887   7.821  10.324 -1.9695 -3.0463 -1.4641
  676MOL0     H91218   5.030   7.983  10.188  0.8993  0.5164  1.6471
  676MOL0     H91219   4.921   8.064  10.304 -3.4462  1.5181 -0.9300
  676MOL0     H91220   4.723   8.195   9.923 -3.9134 -2.3354 -1.7750
  676MOL0     H91221   4.654   8.236   9.738 -0.4700 -0.5666  0.4489
  676MOL0     H91222   4.762   8.195   9.594  0.8322 -1.7044 -0.6970
  676MOL0     H91223   4.612   8.111   9.620 -0.3347 -0.8368  2.2132
  676MOL0     H91224   5.027   7.923   9.359  1.8158 -0.3166 -0.3083
  676MOL0     H91225   5.087   7.855   9.144 -0.5706  0.4652  0.0713
  676MOL0     H91226   4.927   7.739   8.882 -0.1829 -0.6307  1.9442
  676MOL0     H91227   5.088   7.787   8.935  2.1159 -1.6304 -0.1753
  676MOL0     H91228   5.000   7.536   8.779  1.8678 -2.5575  2.1273
  676MOL0     H91229   5.075   7.682   8.700  0.7414 -1.0591 -1.1503
  676MOL0     H91230   5.211   7.474   8.864 -3.9254  0.6315  1.3868
  676MOL0     H91231   5.260   7.637   8.897 -1.9683 -0.1208  0.5486
  676MOL0     H91232   5.226   7.551   8.618 -1.5839  1.0875  1.2485
  676MOL0     H91233   5.321   7.685   8.676 -0.2556 -0.7696 -4.9250
  676MOL0     H91234   5.373   7.387   8.745 -2.6572  0.5857  0.4334
  676MOL0     H91235   5.486   7.519   8.780  0.8961 -1.7326  1.2845
  676MOL0     H91236   5.531   7.572   8.552  1.3692 -0.3286  1.7071
  676MOL0     H91237   5.585   7.418   8.591  0.1573  2.6786 -1.0547
  676MOL0     H91238   5.309   7.462   8.457 -1.3768 -1.7543 -1.2894
  676MOL0     H91239   5.370   7.312   8.486 -1.4748  0.6833 -1.1871
  676MOL0     H91240   5.385   7.387   8.251  0.6067 -0.2270 -0.4379
  676MOL0     H91241   5.547   7.345   8.323  2.1559  0.6968  5.5606
  676MOL0     H91242   4.872   7.493   9.182  0.8067  1.5166 -1.0528
  676MOL0     H91243   4.803   7.544   9.410  0.2895  1.9182  1.4479
  676MOL0     H91244   4.986   7.802   9.786  1.5967  1.1271  0.2736
  676MOL0     H91245   4.993   7.871   9.997  0.8888 -0.2508  0.4687
  676MOL0     H91246   4.307   6.618  10.814  0.1634 -0.8645 -3.0402
  676MOL0     H91247   4.119   6.482  10.781 -0.1948 -0.1546  2.4240
  676MOL0     H91248   3.749   6.355  10.633 -2.4185 -2.5155 -2.2640
  676MOL0     H91249   3.583   6.178  10.664  2.9425  0.0112 -1.1213
  676MOL0     H91250   3.494   6.106  11.053 -0.2297 -0.5808  0.7760
  676MOL0     H91251   3.336   6.192  11.056  1.5742  0.4873  1.0670
  676MOL0     H91252   3.369   5.946  11.127  0.8320  1.2159 -0.1025
  676MOL0     H91253   3.376   5.912  10.950  2.0227  0.7545  0.2059
  676MOL0     H91254   3.160   5.976  10.918  1.8087  0.9300 -0.8343
  676MOL0     H91255   3.133   6.060  11.073  1.1074 -0.7676  1.4709
  676MOL0     H91256   3.120   5.752  11.020  1.5784  0.7725 -0.9776
  676MOL0     H91257   3.007   5.862  11.097 -0.0508 -0.1576 -2.8962
  676MOL0     H91258   3.242   5.726  11.420 -0.4639 -0.7625  0.1131
  676MOL0     H91259   3.411   6.384  10.994 -0.8906  0.0714 -1.2860
  676MOL0     H91260   3.588   6.554  10.990 -0.2582 -0.5801  1.3136
  677MOL0     O91261  10.608   6.675   2.730  0.1276  0.5766 -0.0578
  677MOL0     C91262  10.638   6.562   2.768 -0.0331 -1.0537 -0.4901
  677MOL0     O91263  10.659   6.453   2.692  0.7436 -0.3976  0.7305
  677MOL0     C91264  10.654   6.461   2.548  0.0408  0.6368 -0.3152
  677MOL0     C91265  10.585   6.364   2.474 -0.1212  0.5131  0.4613
  677MOL0     C91266  10.574   6.374   2.335 -0.0875  0.2007 -0.0876
  677MOL0     C91267  10.632   6.484   2.268  0.1250 -1.2519  0.6692
  677MOL0     O91268  10.630   6.469   2.132  0.1659  0.5573  0.0360
  677MOL0     C91269  10.654   6.590   2.056  0.2582  0.6769  0.2613
  677MOL0     C91270  10.610   6.571   1.914 -0.2802 -0.0050  0.5404
  677MOL0     C91271  10.643   6.696   1.829 -0.3020  0.4608  0.1423
  677MOL0     C91272  10.546   6.719   1.710 -0.3341  0.2205 -0.6644
  677MOL0     C91273  10.567   6.621   1.587 -0.9921  0.3910 -0.4179
  677MOL0     C91274  10.449   6.607   1.503  0.8376 -0.2862 -0.4641
  677MOL0     C91275  10.325   6.544   1.556  0.1789  0.1358  0.3417
  677MOL0     C91276  10.201   6.582   1.477 -0.0423  0.5705 -0.3794
  677MOL0     N91277  10.181   6.723   1.464 -0.2833 -0.3428  0.0208
  677MOL0     C91278  10.093   6.781   1.364 -0.3412 -0.2403 -0.6924
  677MOL0     C91279  10.048   6.897   1.408 -0.3617 -0.5346  0.3626
  677MOL0     C91280   9.947   6.972   1.338  0.0475 -0.1352  0.5824
  677MOL0     C91281   9.994   7.104   1.276  0.9449 -0.1715 -0.3846
  677MOL0     C91282  10.034   7.082   1.138 -0.7464 -0.2349  0.5856
  677MOL0     C91283  10.098   7.191   1.055 -0.4163  0.3549  0.3378
  677MOL0     O91284  10.129   7.151   0.927 -0.1510  0.2610 -0.0124
  677MOL0     C91285  10.173   7.247   0.831  0.3545  0.2577  0.2127
  677MOL0     C91286  10.254   7.358   0.853 -0.2725  0.5947 -1.0395
  677MOL0     C91287  10.274   7.453   0.753 -0.1122 -0.4527  0.7659
  677MOL0     C91288  10.342   7.580   0.789 -0.0911  1.0173  1.2053
  677MOL0     C91289  10.211   7.437   0.625 -0.6141  0.6515 -0.7703
  677MOL0     C91290  10.223   7.535   0.520  0.5265 -0.3701 -0.8889
  677MOL0     O91291  10.237   7.489   0.405 -0.3907  0.2088  0.6681
  677MOL0     C91292  10.226   7.559   0.294 -0.5494 -1.8195  0.2655
  677MOL0     C91293  10.104   7.592   0.240  0.5901 -0.2363  0.5218
  677MOL0     C91294  10.087   7.682   0.135  0.4854  0.4998  0.2668
  677MOL0     C91295  10.199   7.734   0.065 -0.1741  0.5392  0.6464
  677MOL0     O91296  10.181   7.823  -0.036  0.6092  0.5160 -0.4594
  677MOL0     C91297  10.288   7.838  -0.133 -0.3540  0.5078 -0.4587
  677MOL0     C91298  10.235   7.924  -0.248 -0.3602  0.1204 -0.5078
  677MOL0     C91299  10.341   7.970  -0.349 -0.0312  0.3385 -0.6869
  677MOL0     C91300  10.277   8.031  -0.476 -0.4244 -0.0554 -0.2172
  677MOL0     C91301  10.399   8.100  -0.543  0.1421  0.6072 -1.2151
  677MOL0     C91302  10.371   8.168  -0.674  0.3491  0.1831  0.1169
  677MOL0     C91303  10.279   8.293  -0.655  0.6418  0.0240  0.3994
  677MOL0     C91304  10.142   8.275  -0.714 -0.3474  0.2512 -0.0113
  677MOL0    Cl91305  10.139   8.230  -0.887 -0.1848  0.0680 -0.0090
  677MOL0     C91306  10.325   7.695   0.118 -0.6604 -0.2095 -0.1182
  677MOL0     C91307  10.337   7.604   0.223 -0.3241  0.9702 -0.1008
  677MOL0     O91308  10.208   7.651   0.548 -0.1831 -0.4964 -0.4227
  677MOL0     C91309  10.143   7.322   0.602  0.9021 -0.9618 -0.2116
  677MOL0     C91310  10.114   7.232   0.703 -0.8225  0.0019 -0.2023
  677MOL0     N91311  10.108   6.919   1.534  0.5232  0.4691 -0.3293
  677MOL0     N91312  10.185   6.818   1.566  0.3573  0.6756 -0.7692
  677MOL0     C91313  10.711   6.577   2.341 -0.2069 -0.7882  1.0801
  677MOL0     C91314  10.715   6.567   2.482 -0.2125  0.0422 -0.0839
  677MOL0     C91315  10.637   6.538   2.910 -0.9759 -0.0544 -0.3328
  677MOL0     C91316  10.611   6.638   2.996 -0.3277 -0.7783 -0.0717
  677MOL0     C91317  10.610   6.632   3.134 -0.3410  0.1600 -0.0342
  677MOL0     C91318  10.650   6.505   3.197  0.2352 -0.0187  0.5815
  677MOL0     O91319  10.628   6.484   3.330 -0.1499 -0.6959  1.3540
  677MOL0     C91320  10.669   6.364   3.405 -0.2549 -0.2096  0.0431
  677MOL0     C91321  10.554   6.318   3.485  0.1099 -0.1159 -0.2197
  677MOL0     C91322  10.596   6.228   3.602  0.0106 -0.2985 -0.2671
  677MOL0     C91323  10.480   6.179   3.687  0.7996 -0.3819 -0.2090
  677MOL0     C91324  10.389   6.280   3.728  0.0134  0.0229 -0.4564
  677MOL0     C91325  10.331   6.378   3.766  0.1053  0.7492 -0.7783
  677MOL0     C91326  10.677   6.399   3.112 -0.3494  1.1005 -0.1109
  677MOL0     C91327  10.669   6.413   2.974  0.5117  0.2489  0.7751
  677MOL0     H91328  10.554   6.279   2.534  1.1518 -0.7098 -0.5082
  677MOL0     H91329  10.521   6.301   2.274 -0.8695  2.6814 -2.5730
  677MOL0     H91330  10.588   6.670   2.091  1.1591  1.2874  0.5744
  677MOL0     H91331  10.753   6.635   2.056 -0.2192  1.8281 -1.2926
  677MOL0     H91332  10.662   6.483   1.874 -3.2860 -0.4781 -2.8554
  677MOL0     H91333  10.504   6.546   1.920 -0.1674 -0.7578 -0.3673
  677MOL0     H91334  10.629   6.783   1.892  0.8590 -0.6481  2.0243
  677MOL0     H91335  10.750   6.693   1.804  0.0765  0.0067  1.7141
  677MOL0     H91336  10.449   6.704   1.757 -0.3483 -4.3777 -1.7016
  677MOL0     H91337  10.558   6.824   1.683  0.7169  1.0225  2.4991
  677MOL0     H91338  10.648   6.651   1.520  0.2133 -0.7326  0.4618
  677MOL0     H91339  10.590   6.528   1.641 -2.2947  1.3401  1.9029
  677MOL0     H91340  10.416   6.708   1.477  2.0791  0.7348  1.6651
  677MOL0     H91341  10.481   6.554   1.413  1.5598  1.6748 -1.4163
  677MOL0     H91342  10.359   6.442   1.538  0.6295  0.7187 -2.4849
  677MOL0     H91343  10.310   6.566   1.662  2.3726 -0.3606  0.8033
  677MOL0     H91344  10.123   6.540   1.539 -0.1417  0.9630 -0.2345
  677MOL0     H91345  10.221   6.534   1.381 -0.9847  0.3675 -0.4742
  677MOL0     H91346  10.074   6.732   1.269  3.0877 -3.7521  0.1364
  677MOL0     H91347   9.890   6.910   1.269 -2.0749  1.7966  0.4645
  677MOL0     H91348   9.879   7.007   1.416  1.2047 -0.0438  1.5734
  677MOL0     H91349  10.080   7.149   1.326  0.8540  0.5638 -0.8757
  677MOL0     H91350   9.901   7.162   1.268 -0.0570 -1.9072 -3.0645
  677MOL0     H91351   9.948   7.044   1.083 -1.8545 -0.4291  2.3538
  677MOL0     H91352  10.090   6.989   1.134 -2.4636 -1.3541  1.4290
  677MOL0     H91353  10.184   7.238   1.104  1.7583  1.3472 -3.9197
  677MOL0     H91354  10.027   7.274   1.047 -0.4765  0.1838 -1.3449
  677MOL0     H91355  10.285   7.381   0.954 -1.7290 -3.0061  0.3841
  677MOL0     H91356  10.407   7.622   0.712 -2.6295  1.0261 -1.1249
  677MOL0     H91357  10.267   7.659   0.799  1.5319  2.5778  1.4877
  677MOL0     H91358  10.394   7.568   0.884  3.8698  1.8452 -0.6853
  677MOL0     H91359  10.016   7.559   0.293  0.3022 -2.5405 -1.2311
  677MOL0     H91360   9.986   7.701   0.100  0.8734  1.2370 -0.4678
  677MOL0     H91361  10.370   7.885  -0.079 -2.6772  1.9649  2.0777
  677MOL0     H91362  10.318   7.739  -0.169  1.9443  0.2986  1.7883
  677MOL0     H91363  10.162   7.867  -0.306 -0.9996  0.8607 -0.4463
  677MOL0     H91364  10.178   8.011  -0.216 -2.8636 -1.8026  0.5768
  677MOL0     H91365  10.412   7.889  -0.367 -0.1587 -0.2867  1.3821
  677MOL0     H91366  10.404   8.042  -0.296  0.4188 -2.8543  3.6408
  677MOL0     H91367  10.229   7.956  -0.539  0.7025 -1.9380  1.0649
  677MOL0     H91368  10.207   8.102  -0.432  1.1752  1.1082  0.5597
  677MOL0     H91369  10.474   8.021  -0.551  1.6956  1.4462  2.6355
  677MOL0     H91370  10.437   8.180  -0.478 -1.4543  0.3105  0.1405
  677MOL0     H91371  10.464   8.204  -0.719 -1.1699  1.6808 -2.0240
  677MOL0     H91372  10.332   8.100  -0.750  0.7262  1.5447 -1.3567
  677MOL0     H91373  10.328   8.378  -0.702  3.3621 -2.3853 -1.4834
  677MOL0     H91374  10.277   8.322  -0.549 -0.0565  1.3373  0.0396
  677MOL0     H91375  10.071   8.354  -0.686 -0.4401  0.1909 -0.0732
  677MOL0     H91376  10.090   8.199  -0.655 -1.0207  2.5620  2.6346
  677MOL0     H91377  10.414   7.732   0.066 -0.8508 -0.8595 -0.9240
  677MOL0     H91378  10.436   7.567   0.251 -0.6649 -0.2496 -0.4137
  677MOL0     H91379  10.091   7.322   0.507 -0.6535 -0.3708  0.5909
  677MOL0     H91380  10.054   7.146   0.675 -2.1404  0.9637 -0.4661
  677MOL0     H91381  10.760   6.661   2.292 -1.1420 -0.7249  0.2345
  677MOL0     H91382  10.778   6.638   2.535  0.6583 -1.4806  1.0000
  677MOL0     H91383  10.602   6.742   2.967 -0.1464  0.5583  4.0130
  677MOL0     H91384  10.591   6.724   3.188  0.4664  0.5694 -0.4333
  677MOL0     H91385  10.713   6.282   3.347  0.5218  0.6508 -0.6245
  677MOL0     H91386  10.741   6.405   3.476  0.4719  1.4402 -1.5512
  677MOL0     H91387  10.476   6.273   3.424 -3.0654  2.0825  1.9129
  677MOL0     H91388  10.525   6.411   3.534  1.5643 -1.0252  2.6717
  677MOL0     H91389  10.667   6.281   3.666  1.9562 -3.0254  0.0038
  677MOL0     H91390  10.656   6.140   3.573  3.1348  0.7307  2.4490
  677MOL0     H91391  10.517   6.121   3.773  1.8500 -0.8359 -0.9367
  677MOL0     H91392  10.412   6.121   3.624  0.9051 -1.8350  0.9558
  677MOL0     H91393  10.281   6.453   3.823  0.6845  0.3780  0.2420
  677MOL0     H91394  10.711   6.299   3.137 -0.5153  0.8323 -0.9266
  677MOL0     H91395  10.709   6.338   2.907 -1.3192  0.5250 -0.7038
  678MOL0     O91396   8.654   6.432   9.182 -0.3936  0.1533  0.1207
  678MOL0     C91397   8.768   6.400   9.147  1.0145 -0.3553 -0.5281
  678MOL0     O91398   8.819   6.275   9.130  0.9015  0.1122 -0.1665
  678MOL0     C91399   8.749   6.173   9.191  0.9526  0.4469  0.1347
  678MOL0     C91400   8.708   6.054   9.128 -1.3480 -0.5123  0.6389
  678MOL0     C91401   8.634   5.956   9.194 -0.1017 -0.0834  0.7555
  678MOL0     C91402   8.599   5.970   9.325 -0.7897  0.3453 -0.1330
  678MOL0     O91403   8.521   5.888   9.401  0.2408 -0.3021 -0.2485
  678MOL0     C91404   8.421   5.806   9.339  0.2259 -0.5191  0.0904
  678MOL0     C91405   8.482   5.667   9.322 -0.5361  0.9566  0.7009
  678MOL0     C91406   8.560   5.606   9.441  0.0753 -0.6446  0.2844
  678MOL0     C91407   8.457   5.583   9.544  1.2499 -0.3432  0.1009
  678MOL0     C91408   8.527   5.548   9.685  0.9142 -0.4297  0.2805
  678MOL0     C91409   8.435   5.538   9.809  0.3386 -0.0939 -0.3471
  678MOL0     C91410   8.313   5.451   9.797 -0.1825  0.0509  0.8704
  678MOL0     C91411   8.238   5.424   9.935 -0.7979 -0.8520  0.3299
  678MOL0     N91412   8.133   5.324   9.916 -0.4174 -0.2749  0.1382
  678MOL0     C91413   8.009   5.348   9.876  0.8685  1.2821 -0.0952
  678MOL0     C91414   7.963   5.223   9.842  0.2604  0.2280 -0.2821
  678MOL0     C91415   7.818   5.201   9.812 -0.0829 -0.3424 -0.3967
  678MOL0     C91416   7.806   5.222   9.662 -0.9845  0.3983  0.3493
  678MOL0     C91417   7.657   5.239   9.629 -0.5675  0.8157  0.2557
  678MOL0     C91418   7.640   5.327   9.506  0.5220  0.0969 -0.0883
  678MOL0     O91419   7.513   5.387   9.530  0.3715 -0.0795 -0.1270
  678MOL0     C91420   7.394   5.343   9.479 -0.8818  0.1135 -0.2111
  678MOL0     C91421   7.371   5.211   9.434  0.1106 -0.4704 -0.3189
  678MOL0     C91422   7.248   5.173   9.382  0.1203  1.2407 -1.0526
  678MOL0     C91423   7.241   5.035   9.315  0.4666 -0.1376 -0.0253
  678MOL0     C91424   7.138   5.258   9.413 -0.8650 -0.0469  0.2374
  678MOL0     C91425   7.002   5.221   9.391  0.3499 -0.6923  0.0635
  678MOL0     O91426   6.959   5.094   9.424 -0.6860  0.1272  0.3246
  678MOL0     C91427   6.842   5.087   9.500 -0.8868 -0.0196  0.0757
  678MOL0     C91428   6.787   5.195   9.576  0.2024  0.4151  0.8686
  678MOL0     C91429   6.677   5.175   9.659 -0.0439  0.1701 -0.2893
  678MOL0     C91430   6.617   5.047   9.663  0.5414  0.2382  0.2686
  678MOL0     O91431   6.505   5.027   9.746  0.1370 -0.0926  0.2614
  678MOL0     C91432   6.448   5.132   9.831  0.4832  0.1632  1.2558
  678MOL0     C91433   6.314   5.078   9.885 -0.0213  0.3828 -0.5784
  678MOL0     C91434   6.218   5.190   9.920  0.0085 -0.6119  0.5623
  678MOL0     C91435   6.279   5.292  10.005 -0.1402 -0.1819 -0.5502
  678MOL0     C91436   6.201   5.422  10.044  0.8260  0.7682  0.2938
  678MOL0     C91437   6.129   5.477   9.926  0.7568 -0.4951  0.4658
  678MOL0     C91438   6.045   5.608   9.953 -0.8481 -0.0489  0.7657
  678MOL0     C91439   5.940   5.591  10.060  0.0844  0.1442 -0.2478
  678MOL0    Cl91440   5.798   5.505   9.993 -0.0374  0.2321  0.0035
  678MOL0     C91441   6.678   4.931   9.601 -0.3033 -0.9716 -0.2724
  678MOL0     C91442   6.785   4.957   9.514  0.2682 -0.1598  0.6202
  678MOL0     O91443   6.924   5.312   9.361 -0.1904 -0.7528  0.4149
  678MOL0     C91444   7.165   5.387   9.445 -0.9573 -0.9515 -0.5341
  678MOL0     C91445   7.287   5.433   9.477 -0.1887 -0.0611 -1.0418
  678MOL0     N91446   8.064   5.126   9.862  0.4775  0.5388 -0.2480
  678MOL0     N91447   8.169   5.193   9.912 -0.6479 -0.8410  0.0086
  678MOL0     C91448   8.666   6.064   9.398  0.4629 -1.1097  0.1063
  678MOL0     C91449   8.733   6.165   9.334  0.5519 -0.8596 -0.3158
  678MOL0     C91450   8.854   6.522   9.130  0.4089 -0.1859  0.5107
  678MOL0     C91451   8.816   6.654   9.165  0.2649  0.7525  0.1486
  678MOL0     C91452   8.898   6.759   9.153 -0.4047 -0.1937  0.2567
  678MOL0     C91453   9.038   6.744   9.113 -0.0180 -0.8205 -0.2135
  678MOL0     O91454   9.122   6.855   9.108  0.3927 -0.8876  0.0483
  678MOL0     C91455   9.269   6.847   9.084 -0.2175  0.3559 -0.5217
  678MOL0     C91456   9.351   6.980   9.045  0.3598 -0.7319 -0.3561
  678MOL0     C91457   9.499   6.945   9.006  0.3663 -0.7956 -0.0399
  678MOL0     C91458   9.591   6.941   9.130  0.4040 -0.2389 -0.0108
  678MOL0     C91459   9.519   6.907   9.258  0.4391  0.2460  0.2387
  678MOL0     C91460   9.466   6.883   9.363  0.4543  0.7380  0.8881
  678MOL0     C91461   9.079   6.609   9.089 -0.5714 -0.0676 -1.0262
  678MOL0     C91462   8.991   6.506   9.092  0.6866 -0.3792 -0.5552
  678MOL0     H91463   8.743   6.029   9.028 -3.2027  1.2864 -0.5448
  678MOL0     H91464   8.615   5.863   9.142 -0.7436 -0.1465  1.0941
  678MOL0     H91465   8.328   5.812   9.396  1.2635  0.9759  1.7138
  678MOL0     H91466   8.391   5.848   9.242 -1.7544 -3.4328 -0.6926
  678MOL0     H91467   8.403   5.600   9.288 -2.0001  0.7078  4.1423
  678MOL0     H91468   8.562   5.671   9.247 -0.0417 -2.0622  0.9418
  678MOL0     H91469   8.604   5.510   9.413  1.8804 -0.0788  1.0439
  678MOL0     H91470   8.641   5.675   9.467  0.0763 -0.9424  1.0825
  678MOL0     H91471   8.396   5.673   9.550  1.4957 -0.2661  2.1742
  678MOL0     H91472   8.404   5.491   9.515  0.9248 -0.5744  1.3535
  678MOL0     H91473   8.588   5.460   9.661  1.1189  0.0307 -0.9866
  678MOL0     H91474   8.590   5.636   9.696  0.1687  0.2047 -0.3310
  678MOL0     H91475   8.483   5.487   9.894  2.7149  1.4907 -0.6544
  678MOL0     H91476   8.407   5.639   9.841  2.0034  0.5272 -0.7491
  678MOL0     H91477   8.239   5.497   9.731  0.7522 -0.9186 -0.9209
  678MOL0     H91478   8.354   5.367   9.741  0.2071  0.6922  0.1821
  678MOL0     H91479   8.203   5.519   9.976 -0.1004 -1.1443  1.6585
  678MOL0     H91480   8.308   5.383  10.008 -2.1805 -1.6163  1.2597
  678MOL0     H91481   7.951   5.439   9.870 -0.5925  0.3741 -0.2338
  678MOL0     H91482   7.783   5.103   9.844  2.9178 -0.2398  4.0250
  678MOL0     H91483   7.757   5.272   9.868  1.1915  1.5598 -1.3248
  678MOL0     H91484   7.838   5.131   9.611 -0.0322  2.1633 -2.4179
  678MOL0     H91485   7.868   5.305   9.625 -1.1077  0.1192 -0.4851
  678MOL0     H91486   7.607   5.283   9.715 -3.6302 -0.3556 -0.8122
  678MOL0     H91487   7.608   5.144   9.607  0.6867  1.3295 -8.0141
  678MOL0     H91488   7.649   5.258   9.421 -2.4185 -0.7623  0.1960
  678MOL0     H91489   7.709   5.412   9.496 -0.4431  0.9023 -0.0568
  678MOL0     H91490   7.460   5.150   9.416 -1.1429 -1.6446 -3.1038
  678MOL0     H91491   7.205   4.966   9.392  2.7268  0.1137  1.3396
  678MOL0     H91492   7.162   5.043   9.240  2.2229  0.6217 -1.8925
  678MOL0     H91493   7.334   5.011   9.261 -0.4404 -2.9966 -0.4870
  678MOL0     H91494   6.822   5.297   9.565 -1.7912  0.9542 -1.3746
  678MOL0     H91495   6.640   5.256   9.721  1.4481 -1.4017  2.9006
  678MOL0     H91496   6.515   5.159   9.913 -0.7154  2.7157  1.4812
  678MOL0     H91497   6.435   5.221   9.769  1.5761  1.4251  2.7888
  678MOL0     H91498   6.272   5.012   9.809  1.9788 -0.7931 -0.7300
  678MOL0     H91499   6.336   5.017   9.973  2.3581 -0.0621 -1.4019
  678MOL0     H91500   6.128   5.153   9.968  0.1738  0.0571  1.4203
  678MOL0     H91501   6.181   5.224   9.822  0.4072 -0.8263  0.3341
  678MOL0     H91502   6.307   5.234  10.093  2.6308  2.3386  0.3965
  678MOL0     H91503   6.374   5.329   9.967  0.3044 -1.3485 -0.5933
  678MOL0     H91504   6.274   5.491  10.087  2.3479 -0.7094  0.1539
  678MOL0     H91505   6.125   5.393  10.116  0.2506  1.1673 -0.1415
  678MOL0     H91506   6.203   5.502   9.849  0.3216 -3.3171 -1.0126
  678MOL0     H91507   6.053   5.409   9.885  0.0859  0.7770 -0.4584
  678MOL0     H91508   5.997   5.634   9.858 -1.3631 -0.0038  1.0347
  678MOL0     H91509   6.119   5.681   9.987 -0.3132  0.5972 -1.5901
  678MOL0     H91510   5.908   5.694  10.082 -0.1772  0.7591 -3.0829
  678MOL0     H91511   5.976   5.535  10.146 -1.5916 -1.5818 -0.6006
  678MOL0     H91512   6.638   4.830   9.611 -1.0886 -1.0361 -3.1465
  678MOL0     H91513   6.836   4.874   9.468 -0.1794 -1.9314  3.1192
  678MOL0     H91514   7.090   5.465   9.455  1.9318  1.8818  0.5895
  678MOL0     H91515   7.300   5.530   9.524 -1.8542 -0.5054  0.4433
  678MOL0     H91516   8.653   6.068   9.506 -1.5217  1.4312 -0.1351
  678MOL0     H91517   8.768   6.241   9.403 -1.9485 -0.0410  0.1357
  678MOL0     H91518   8.718   6.690   9.197  1.1162  2.6603  0.7134
  678MOL0     H91519   8.855   6.854   9.184 -1.5284  0.8796 -3.9526
  678MOL0     H91520   9.307   6.796   9.172 -1.4763 -2.3912 -1.4378
  678MOL0     H91521   9.282   6.783   8.996  1.2426 -1.4347  0.9200
  678MOL0     H91522   9.350   7.054   9.125  1.5352 -0.7699 -0.2966
  678MOL0     H91523   9.308   7.027   8.956  0.3005 -0.7647 -0.3451
  678MOL0     H91524   9.544   7.024   8.945 -3.1806  1.0897 -0.5284
  678MOL0     H91525   9.485   6.860   8.939 -1.1228  0.1672 -1.0232
  678MOL0     H91526   9.647   7.035   9.140  1.1177 -0.8785  3.0487
  678MOL0     H91527   9.665   6.864   9.110  1.0702  0.1974  0.7271
  678MOL0     H91528   9.409   6.874   9.453  1.8306  0.7758  1.7902
  678MOL0     H91529   9.176   6.586   9.045  0.7633 -0.4950  1.9382
  678MOL0     H91530   9.020   6.409   9.054  3.8175 -1.1497  3.1368
  679MOL0     O91531   7.002   6.347  10.545  1.1273  0.4216 -0.7281
  679MOL0     C91532   7.105   6.290  10.534  0.3163  0.3768 -0.0974
  679MOL0     O91533   7.127   6.154  10.542 -0.0836  0.9285  0.0954
  679MOL0     C91534   7.023   6.074  10.576  1.0865  0.4102  0.0858
  679MOL0     C91535   6.984   6.071  10.714 -0.8617 -0.5724 -0.0098
  679MOL0     C91536   6.886   5.975  10.755  0.9965 -0.3941  0.3962
  679MOL0     C91537   6.824   5.877  10.669 -0.8715 -0.2716 -0.3376
  679MOL0     O91538   6.742   5.772  10.699  0.5973  0.3548 -0.9220
  679MOL0     C91539   6.729   5.738  10.839  0.0603  0.1250  0.3342
  679MOL0     C91540   6.636   5.621  10.864 -0.0050  0.1562 -0.7776
  679MOL0     C91541   6.672   5.493  10.790 -0.1750  0.0589 -0.0434
  679MOL0     C91542   6.550   5.396  10.814  0.8183  0.2561 -0.5458
  679MOL0     C91543   6.607   5.249  10.794  0.0498 -0.7717  0.4148
  679MOL0     C91544   6.520   5.130  10.852 -0.9617 -0.6380  0.4167
  679MOL0     C91545   6.372   5.137  10.802 -1.0123  0.1630 -0.1026
  679MOL0     C91546   6.298   5.007  10.850  0.0313 -1.1954 -0.5933
  679MOL0     N91547   6.161   5.050  10.867  0.1824  0.5923  1.2492
  679MOL0     C91548   6.104   5.147  10.938 -0.8261 -0.3411  0.3424
  679MOL0     C91549   5.976   5.128  10.910  0.5164  0.8766  0.1032
  679MOL0     C91550   5.849   5.208  10.940  0.4055  0.0911  0.0576
  679MOL0     C91551   5.798   5.194  11.084 -0.3231  0.8724 -0.2094
  679MOL0     C91552   5.786   5.043  11.126 -0.4474  0.1446 -0.0203
  679MOL0     C91553   5.700   5.050  11.253  0.3977 -0.5791  0.4731
  679MOL0     O91554   5.745   5.143  11.359  0.2325 -0.2568 -0.1007
  679MOL0     C91555   5.848   5.109  11.445  0.7563 -0.0624  0.2563
  679MOL0     C91556   5.928   5.206  11.490 -0.9729 -0.2819 -0.0778
  679MOL0     C91557   6.041   5.186  11.573 -0.6064 -0.2840 -0.0671
  679MOL0     C91558   6.144   5.297  11.580 -0.0818  0.7971 -0.8704
  679MOL0     C91559   6.051   5.059  11.639 -0.3390 -0.1984 -0.6643
  679MOL0     C91560   6.143   5.027  11.748  0.7321  0.4092 -0.1400
  679MOL0     O91561   6.195   4.906  11.751 -1.0532 -0.8178 -0.3170
  679MOL0     C91562   6.322   4.867  11.797 -0.0512  0.8413  0.5904
  679MOL0     C91563   6.342   4.733  11.791  0.4368  0.2136 -0.6923
  679MOL0     C91564   6.459   4.663  11.812 -0.6441 -0.0098  0.6857
  679MOL0     C91565   6.572   4.738  11.857  0.3270  0.1775 -1.0531
  679MOL0     O91566   6.685   4.663  11.863 -0.0357 -1.1809 -0.5797
  679MOL0     C91567   6.813   4.721  11.903 -0.7278 -0.0551  0.9048
  679MOL0     C91568   6.928   4.621  11.902 -0.0486  0.4736  0.2782
  679MOL0     C91569   7.054   4.679  11.946  0.0529 -0.5784  0.1388
  679MOL0     C91570   7.115   4.779  11.842  0.6801  0.1727  0.0886
  679MOL0     C91571   7.186   4.896  11.909  0.0693  0.5667  0.4551
  679MOL0     C91572   7.249   4.994  11.810 -0.3444 -0.7506 -0.8465
  679MOL0     C91573   7.144   5.062  11.725 -0.2237  0.2181  0.4418
  679MOL0     C91574   7.203   5.166  11.628 -0.3906 -0.4614 -0.6668
  679MOL0    Cl91575   7.333   5.096  11.509 -0.0496  0.1293 -0.2022
  679MOL0     C91576   6.560   4.878  11.878  0.3946 -0.2454 -0.0946
  679MOL0     C91577   6.436   4.942  11.840 -0.0634  0.6459 -0.5211
  679MOL0     O91578   6.186   5.120  11.818 -0.2491  0.1963  0.3775
  679MOL0     C91579   5.967   4.957  11.597 -0.1803 -0.3825  0.3985
  679MOL0     C91580   5.877   4.979  11.491  0.5844 -0.0149 -0.5573
  679MOL0     N91581   5.950   5.015  10.831  0.4584 -0.8095  0.4583
  679MOL0     N91582   6.067   4.972  10.801  0.8870 -0.4480 -0.9493
  679MOL0     C91583   6.856   5.892  10.534 -0.5450  0.0728  0.3940
  679MOL0     C91584   6.954   5.983  10.485 -0.2610 -0.0831  0.4050
  679MOL0     C91585   7.224   6.370  10.516  0.3387 -0.3004 -0.1424
  679MOL0     C91586   7.226   6.484  10.596 -0.5558  0.2396 -0.4588
  679MOL0     C91587   7.324   6.586  10.575 -0.8308  0.0109 -0.4879
  679MOL0     C91588   7.425   6.561  10.484  0.7480 -0.0729 -0.5716
  679MOL0     O91589   7.533   6.646  10.461 -0.3183 -0.9782 -0.4001
  679MOL0     C91590   7.569   6.758  10.550  0.3862  0.3834 -1.5859
  679MOL0     C91591   7.497   6.885  10.527 -0.4535  0.4904 -0.7682
  679MOL0     C91592   7.501   6.934  10.377 -0.8873 -0.3288 -0.6607
  679MOL0     C91593   7.413   7.057  10.362 -0.2719  0.0788 -0.9590
  679MOL0     C91594   7.398   7.094  10.217  0.3871  0.4933  0.5294
  679MOL0     C91595   7.390   7.145  10.108 -0.7606  0.1476  0.2406
  679MOL0     C91596   7.427   6.436  10.418 -0.6693  0.1286  1.2127
  679MOL0     C91597   7.325   6.338  10.429  0.8129 -0.0437  0.6513
  679MOL0     H91598   7.026   6.141  10.785 -3.6100  0.1056  1.1044
  679MOL0     H91599   6.840   5.978  10.854 -3.5787 -0.2608 -1.5051
  679MOL0     H91600   6.828   5.709  10.876  0.7046 -0.3461 -1.6006
  679MOL0     H91601   6.682   5.823  10.888 -0.3875  1.5657 -2.3661
  679MOL0     H91602   6.627   5.605  10.972  2.8847 -0.1996 -0.5038
  679MOL0     H91603   6.539   5.661  10.834  0.1030  1.5232  0.5824
  679MOL0     H91604   6.696   5.500  10.683  0.1919 -0.6700 -0.0086
  679MOL0     H91605   6.759   5.444  10.833 -0.6742 -1.4962 -0.7195
  679MOL0     H91606   6.490   5.404  10.904  0.0230 -0.7242 -0.9677
  679MOL0     H91607   6.476   5.406  10.734  2.0024  3.0388 -1.4155
  679MOL0     H91608   6.622   5.249  10.685  0.4186 -1.7443  0.4572
  679MOL0     H91609   6.707   5.244  10.838 -0.1197  2.1123  1.3398
  679MOL0     H91610   6.560   5.033  10.823  0.6652  0.5199 -1.4573
  679MOL0     H91611   6.531   5.151  10.959 -4.1432  3.3740  0.2349
  679MOL0     H91612   6.325   5.221  10.853  0.4934  0.3768  0.9892
  679MOL0     H91613   6.369   5.147  10.693  1.4948  1.5726 -0.1151
  679MOL0     H91614   6.327   4.969  10.948 -1.3617  2.3099  1.3545
  679MOL0     H91615   6.315   4.925  10.780 -0.1590 -1.1175 -0.7304
  679MOL0     H91616   6.160   5.224  10.991  1.8259  2.4085 -5.5250
  679MOL0     H91617   5.875   5.314  10.927 -0.1232  0.5217  2.0366
  679MOL0     H91618   5.774   5.181  10.865  0.0736  4.9685 -1.7812
  679MOL0     H91619   5.698   5.238  11.090 -0.6736  0.0079  0.5050
  679MOL0     H91620   5.871   5.250  11.144 -1.0341  2.2799 -0.6076
  679MOL0     H91621   5.884   5.005  11.154 -1.1529 -2.2983 -0.6632
  679MOL0     H91622   5.740   4.995  11.039 -0.8137  1.3236 -0.5113
  679MOL0     H91623   5.676   4.953  11.297 -0.8081  0.3453  1.9730
  679MOL0     H91624   5.602   5.080  11.214 -0.0357  3.0035  3.6872
  679MOL0     H91625   5.906   5.300  11.441  0.9875 -0.8587 -2.2544
  679MOL0     H91626   6.243   5.256  11.559  0.9064  3.1089 -1.0513
  679MOL0     H91627   6.131   5.391  11.524 -0.9843  0.5212 -1.1454
  679MOL0     H91628   6.140   5.332  11.684  2.1398  1.2090 -0.8667
  679MOL0     H91629   6.257   4.674  11.760 -1.0891  2.3089 -0.6866
  679MOL0     H91630   6.477   4.561  11.782  1.7711 -0.0070  1.8461
  679MOL0     H91631   6.837   4.804  11.836  1.2941 -1.5977 -0.3636
  679MOL0     H91632   6.798   4.761  12.004 -2.6215  1.7741 -0.0246
  679MOL0     H91633   6.913   4.537  11.971 -2.2773 -0.2780 -1.0007
  679MOL0     H91634   6.929   4.581  11.800  0.9941  1.0750  0.0388
  679MOL0     H91635   7.121   4.599  11.981  2.2161  0.9047 -0.4075
  679MOL0     H91636   7.035   4.730  12.041  2.2123 -0.2018  0.4185
  679MOL0     H91637   7.191   4.721  11.789 -2.1690 -3.9315  0.0076
  679MOL0     H91638   7.040   4.810  11.769  0.3532  1.5828  0.9977
  679MOL0     H91639   7.277   4.856  11.954  0.2132  0.7473  0.3272
  679MOL0     H91640   7.130   4.951  11.986  3.8503  4.9027  0.5961
  679MOL0     H91641   7.315   5.066  11.860  1.9652 -2.3066 -1.4915
  679MOL0     H91642   7.328   4.946  11.751  1.0986 -0.9273  1.1035
  679MOL0     H91643   7.077   5.111  11.796 -0.5806  1.6396 -0.8065
  679MOL0     H91644   7.082   4.992  11.667 -2.0926  0.8507  1.5935
  679MOL0     H91645   7.260   5.237  11.688  1.8999 -0.3189 -2.8660
  679MOL0     H91646   7.123   5.218  11.575 -0.3314 -2.8212 -3.3106
  679MOL0     H91647   6.649   4.927  11.916  1.9247 -4.2099  2.0574
  679MOL0     H91648   6.426   5.050  11.847  0.1507  0.5910  1.1169
  679MOL0     H91649   5.971   4.853  11.631 -0.1565 -0.5778 -0.1964
  679MOL0     H91650   5.833   4.892  11.445 -1.3981  0.6951 -0.1119
  679MOL0     H91651   6.822   5.809  10.473 -0.5072  1.3588 -1.4269
  679MOL0     H91652   6.980   5.983  10.380 -3.0742  0.9492 -0.3644
  679MOL0     H91653   7.151   6.495  10.673 -1.3763  0.3594 -1.2558
  679MOL0     H91654   7.320   6.680  10.630 -2.7187  1.5316 -3.0114
  679MOL0     H91655   7.563   6.718  10.651  1.9845  0.2512 -1.5168
  679MOL0     H91656   7.677   6.767  10.531  1.3347 -1.7795  1.8565
  679MOL0     H91657   7.514   6.973  10.589 -3.3539  0.7294 -0.1323
  679MOL0     H91658   7.397   6.852  10.558  1.2188 -0.7795  4.0741
  679MOL0     H91659   7.454   6.855  10.317 -2.1522  1.3403 -1.9887
  679MOL0     H91660   7.601   6.939  10.333 -0.8749  0.5217 -0.5667
  679MOL0     H91661   7.458   7.142  10.414 -2.5461 -1.5669  4.3298
  679MOL0     H91662   7.314   7.053  10.408 -0.5652  5.0181 -0.6360
  679MOL0     H91663   7.373   7.194  10.015 -1.4044  0.4510  0.5159
  679MOL0     H91664   7.510   6.408  10.354 -2.4636 -0.0110 -1.1949
  679MOL0     H91665   7.321   6.247  10.369 -2.2282  1.0851 -1.1029
  680MOL0     O91666   4.455  10.659   0.847  0.4373 -0.1189  0.5408
  680MOL0     C91667   4.506  10.690   0.731 -1.0939  0.2699 -0.5235
  680MOL0     O91668   4.516  10.820   0.683 -0.3934 -0.0305 -0.0839
  680MOL0     C91669   4.463  10.939   0.731 -0.2231 -0.2493  0.2916
  680MOL0     C91670   4.380  10.959   0.846 -0.0092  1.0609 -0.3644
  680MOL0     C91671   4.323  11.087   0.876  0.1417 -0.2833 -1.0805
  680MOL0     C91672   4.340  11.193   0.787 -0.4422  0.0761 -0.3753
  680MOL0     O91673   4.275  11.314   0.801 -0.8646 -0.1491 -0.0413
  680MOL0     C91674   4.297  11.370   0.935 -0.1650  0.1351 -0.1715
  680MOL0     C91675   4.216  11.494   0.943  0.1272 -0.6919 -0.2737
  680MOL0     C91676   4.278  11.612   0.849 -0.0015  0.9781  0.3091
  680MOL0     C91677   4.198  11.745   0.883  0.0384 -0.0766 -0.2929
  680MOL0     C91678   4.231  11.850   0.777  0.1425 -0.0149 -0.2873
  680MOL0     C91679   4.145  11.965   0.818  0.7627  0.2377 -0.3658
  680MOL0     C91680   4.153  12.072   0.703 -0.3818 -0.1487  0.3492
  680MOL0     C91681   4.124  12.214   0.743 -0.4930 -0.7612 -0.1385
  680MOL0     N91682   4.132  12.303   0.630  0.1623  0.2308 -0.5794
  680MOL0     C91683   4.233  12.393   0.605 -0.7639  0.3663  0.9176
  680MOL0     C91684   4.212  12.430   0.475 -0.6412 -0.6773  0.9965
  680MOL0     C91685   4.307  12.496   0.382  0.1267  0.8011  0.0172
  680MOL0     C91686   4.409  12.409   0.309 -0.2331  1.2050 -0.6329
  680MOL0     C91687   4.478  12.298   0.388  0.3120  0.8370  1.1435
  680MOL0     C91688   4.598  12.370   0.453  0.7974  0.1307  0.7668
  680MOL0     O91689   4.675  12.273   0.531 -0.2311 -0.3208  0.1886
  680MOL0     C91690   4.791  12.225   0.485  0.0056 -0.4838 -1.1704
  680MOL0     C91691   4.796  12.104   0.422  0.8082  0.4529 -0.0993
  680MOL0     C91692   4.911  12.035   0.385  0.0353  0.4316  0.6345
  680MOL0     C91693   4.898  11.911   0.307  0.0934  0.3584 -0.1893
  680MOL0     C91694   5.031  12.078   0.431 -0.1117 -0.0795  0.1837
  680MOL0     C91695   5.162  12.018   0.401  0.4331  0.1716 -0.7221
  680MOL0     O91696   5.191  11.991   0.272 -0.2665  0.3256  0.5395
  680MOL0     C91697   5.267  11.881   0.231  0.1535  0.0567 -0.4812
  680MOL0     C91698   5.321  11.778   0.312  0.8306  0.3753  0.5187
  680MOL0     C91699   5.395  11.679   0.245  0.7041  0.5718  0.3319
  680MOL0     C91700   5.410  11.664   0.107 -0.8640 -0.1017 -0.5283
  680MOL0     O91701   5.491  11.572   0.044  0.2280 -0.1737 -0.0611
  680MOL0     C91702   5.583  11.495   0.128  1.2435  0.2671  0.3183
  680MOL0     C91703   5.650  11.410   0.019  0.9560  0.0101 -0.3322
  680MOL0     C91704   5.757  11.323   0.073  0.0103  0.2626  0.7550
  680MOL0     C91705   5.876  11.408   0.127  1.1657  0.2764 -0.0006
  680MOL0     C91706   5.946  11.487   0.016  0.3000 -0.4044 -0.9715
  680MOL0     C91707   5.962  11.403  -0.108 -0.3649 -0.2447  0.2670
  680MOL0     C91708   6.072  11.463  -0.209  0.1653  0.1525 -0.1877
  680MOL0     C91709   6.210  11.505  -0.155 -1.0728  0.6828 -0.4443
  680MOL0    Cl91710   6.325  11.525  -0.287 -0.6230 -0.1530 -0.1873
  680MOL0     C91711   5.329  11.756   0.032 -0.6915  0.6512  0.8766
  680MOL0     C91712   5.267  11.864   0.093  0.4569 -0.3810 -0.5958
  680MOL0     O91713   5.241  12.000   0.494 -0.3277 -0.4933 -0.4619
  680MOL0     C91714   5.024  12.206   0.486 -0.7894 -0.3360  0.6662
  680MOL0     C91715   4.907  12.279   0.523  0.0021 -0.1822  0.7937
  680MOL0     N91716   4.100  12.363   0.424  0.0102  0.3027  0.3986
  680MOL0     N91717   4.062  12.279   0.514  0.4127  0.0724  0.6293
  680MOL0     C91718   4.425  11.177   0.680 -0.5980  0.3980  0.8912
  680MOL0     C91719   4.487  11.052   0.648  1.4757  0.6913 -0.2961
  680MOL0     C91720   4.547  10.579   0.646 -0.3679  0.0329  0.4111
  680MOL0     C91721   4.548  10.450   0.698 -0.0800  0.5341  0.2000
  680MOL0     C91722   4.589  10.339   0.620 -0.3340  0.0078 -0.2205
  680MOL0     C91723   4.632  10.362   0.490  0.4443 -0.9828 -0.0621
  680MOL0     O91724   4.663  10.271   0.394  0.0810 -0.0978 -0.1299
  680MOL0     C91725   4.641  10.132   0.413 -0.1032 -0.5634 -0.1598
  680MOL0     C91726   4.685  10.060   0.287 -1.4580 -0.1345  0.4057
  680MOL0     C91727   4.824  10.064   0.233 -0.6551 -0.8331 -0.1196
  680MOL0     C91728   4.862   9.955   0.122 -0.4761  0.6204 -0.4200
  680MOL0     C91729   4.772   9.977   0.009 -0.3466  0.5301 -0.1833
  680MOL0     C91730   4.682   9.978  -0.080 -0.4881 -0.6155  0.2929
  680MOL0     C91731   4.639  10.493   0.434  0.7110 -0.0390  0.5116
  680MOL0     C91732   4.591  10.597   0.509 -0.4034  0.1783 -1.1045
  680MOL0     H91733   4.355  10.883   0.919 -1.4199  2.0099  0.1880
  680MOL0     H91734   4.255  11.098   0.960 -2.7899 -0.7442 -3.2517
  680MOL0     H91735   4.266  11.296   1.011  1.0524  0.7795  1.0054
  680MOL0     H91736   4.404  11.391   0.946 -0.2065  0.1133  0.3324
  680MOL0     H91737   4.112  11.469   0.920 -0.3958  0.7558  0.3276
  680MOL0     H91738   4.218  11.534   1.045  5.9341  3.9169 -1.6467
  680MOL0     H91739   4.383  11.626   0.877 -0.4612 -1.1847  3.6732
  680MOL0     H91740   4.277  11.594   0.741  2.1788 -0.7064  0.5051
  680MOL0     H91741   4.092  11.716   0.886  0.4901 -1.7953  0.1359
  680MOL0     H91742   4.219  11.782   0.984  0.0092 -0.7027 -0.0543
  680MOL0     H91743   4.335  11.885   0.777  1.0031 -2.4127  0.7672
  680MOL0     H91744   4.208  11.818   0.675 -1.7598  1.0156 -0.2306
  680MOL0     H91745   4.043  11.933   0.840 -0.3340  2.0640 -2.3539
  680MOL0     H91746   4.192  12.007   0.907  2.3640 -0.5535 -0.7946
  680MOL0     H91747   4.252  12.066   0.659 -1.2338 -2.0386 -1.5182
  680MOL0     H91748   4.088  12.045   0.619  2.1936 -0.8573 -1.5117
  680MOL0     H91749   4.177  12.257   0.829 -2.8119  1.3101  0.3472
  680MOL0     H91750   4.018  12.209   0.767 -0.0077  1.2431  2.9724
  680MOL0     H91751   4.301  12.426   0.683 -1.2320  3.7097  0.0683
  680MOL0     H91752   4.248  12.552   0.309 -0.3646  3.1783  2.0679
  680MOL0     H91753   4.368  12.565   0.440  0.5646  0.2715  0.1986
  680MOL0     H91754   4.487  12.460   0.252 -2.0374  2.0146 -2.4818
  680MOL0     H91755   4.339  12.351   0.249  0.4194 -2.4289  1.8157
  680MOL0     H91756   4.511  12.233   0.306 -0.1400  0.6313  1.1234
  680MOL0     H91757   4.405  12.246   0.451  0.9096  1.7087  2.6159
  680MOL0     H91758   4.569  12.452   0.519 -2.6570  1.6906 -2.3194
  680MOL0     H91759   4.650  12.426   0.375  1.4397 -0.6739  0.6044
  680MOL0     H91760   4.704  12.058   0.389  2.3220 -2.3479 -0.7733
  680MOL0     H91761   4.813  11.854   0.344  0.8583  0.4377  1.8022
  680MOL0     H91762   4.860  11.940   0.209 -3.3384  0.8976  1.1934
  680MOL0     H91763   4.991  11.854   0.292 -0.8594 -0.8302 -1.9815
  680MOL0     H91764   5.306  11.789   0.419 -3.0603  0.3101  0.1004
  680MOL0     H91765   5.454  11.607   0.302  1.6071 -1.0342 -2.4311
  680MOL0     H91766   5.647  11.561   0.187  1.9555  1.1589 -1.3640
  680MOL0     H91767   5.522  11.436   0.196  1.7444  0.2440  0.7567
  680MOL0     H91768   5.573  11.342  -0.018 -0.8532 -0.0762  3.2150
  680MOL0     H91769   5.691  11.474  -0.060 -0.3430  0.8173 -0.3697
  680MOL0     H91770   5.792  11.254  -0.004 -0.6931  3.3321 -2.6010
  680MOL0     H91771   5.706  11.266   0.152 -3.4447  1.9034 -0.0712
  680MOL0     H91772   5.832  11.482   0.195  1.5254  2.2709 -1.8103
  680MOL0     H91773   5.950  11.352   0.186  4.0345  4.4221  0.8222
  680MOL0     H91774   6.037  11.528   0.061 -0.6376  2.0882 -1.1300
  680MOL0     H91775   5.893  11.580  -0.010  0.1922 -1.0459 -3.2608
  680MOL0     H91776   6.008  11.306  -0.088  0.2691 -0.2106 -0.8912
  680MOL0     H91777   5.871  11.385  -0.166 -1.7099 -4.2310  3.1790
  680MOL0     H91778   6.028  11.541  -0.272  0.5963 -1.0837 -2.1064
  680MOL0     H91779   6.091  11.389  -0.287  3.3123  0.7967 -0.1711
  680MOL0     H91780   6.251  11.423  -0.096  1.4032  3.3926  1.9752
  680MOL0     H91781   6.211  11.592  -0.088 -0.2530 -1.9407  3.2706
  680MOL0     H91782   5.333  11.743  -0.075  2.4219 -1.5554  1.1228
  680MOL0     H91783   5.213  11.932   0.028  2.4123  1.3515 -0.5045
  680MOL0     H91784   5.116  12.257   0.512 -0.8762 -0.4828  1.2923
  680MOL0     H91785   4.898  12.377   0.570 -1.8845  0.8441 -1.5403
  680MOL0     H91786   4.444  11.256   0.608 -0.5793  3.0136  3.5755
  680MOL0     H91787   4.543  11.033   0.558 -1.6521  2.8812 -2.9351
  680MOL0     H91788   4.519  10.412   0.795  3.4904 -3.7566 -0.0860
  680MOL0     H91789   4.581  10.241   0.667 -1.2044 -1.6064 -3.4639
  680MOL0     H91790   4.702  10.100   0.498  1.2125  0.5003 -0.6809
  680MOL0     H91791   4.533  10.114   0.410 -0.4692  1.4680 -3.0897
  680MOL0     H91792   4.620  10.102   0.210 -0.5127  1.5494  0.4750
  680MOL0     H91793   4.662   9.954   0.298 -0.7850 -0.3047  0.2655
  680MOL0     H91794   4.903  10.054   0.308 -0.1134  3.6847  0.1802
  680MOL0     H91795   4.855  10.166   0.207 -1.1958 -0.7244 -0.3461
  680MOL0     H91796   4.850   9.855   0.165  1.5684 -0.4734 -2.2013
  680MOL0     H91797   4.968   9.969   0.100 -0.3077  0.6068  0.3642
  680MOL0     H91798   4.592   9.977  -0.138 -1.3067 -0.4279  1.5274
  680MOL0     H91799   4.672  10.514   0.333  0.6207  4.6542  1.2385
  680MOL0     H91800   4.600  10.701   0.478 -0.9397 -0.0279 -1.9694
  681MOL0     O91801  10.263   7.626  10.572  0.4188 -0.1969 -0.2553
  681MOL0     C91802  10.374   7.638  10.525 -1.0181 -1.3160  0.0344
  681MOL0     O91803  10.468   7.537  10.493  0.1196  0.9900 -0.6094
  681MOL0     C91804  10.435   7.402  10.510 -0.3028  0.4748 -0.8218
  681MOL0     C91805  10.298   7.349  10.504  0.2795 -0.5044  0.4885
  681MOL0     C91806  10.261   7.221  10.521 -0.2515  0.4559 -0.2721
  681MOL0     C91807  10.369   7.123  10.537 -0.2780  0.3951  0.2259
  681MOL0     O91808  10.357   6.991  10.565 -0.8494  1.0603  0.0946
  681MOL0     C91809  10.234   6.957  10.633 -0.5006  0.0739 -0.0589
  681MOL0     C91810  10.228   6.814  10.690  0.1487  0.1744  0.4351
  681MOL0     C91811  10.118   6.762  10.790 -0.3155 -0.3145 -0.5279
  681MOL0     C91812   9.972   6.805  10.773 -0.6770  1.3263  0.5263
  681MOL0     C91813   9.871   6.707  10.848  0.7942 -0.5572  0.5626
  681MOL0     C91814   9.866   6.722  10.997  0.0399  0.3018  0.2141
  681MOL0     C91815   9.764   6.638  11.071  0.0349  0.3261  0.1365
  681MOL0     C91816   9.801   6.602  11.217 -0.4892  0.2563 -0.2691
  681MOL0     N91817   9.675   6.551  11.284 -0.3091 -0.3161  0.5704
  681MOL0     C91818   9.628   6.427  11.272  0.3141 -0.1802 -0.4227
  681MOL0     C91819   9.503   6.424  11.329  0.2067 -0.2270 -0.2404
  681MOL0     C91820   9.422   6.294  11.341 -0.4051 -0.4933 -0.3646
  681MOL0     C91821   9.330   6.288  11.465  0.1936  0.7890  0.3671
  681MOL0     C91822   9.401   6.277  11.604  0.8429 -0.5015  0.6521
  681MOL0     C91823   9.463   6.143  11.625  1.9659  0.9593 -0.3021
  681MOL0     O91824   9.372   6.029  11.609 -0.1988  0.1480  0.2566
  681MOL0     C91825   9.404   5.905  11.654 -0.7333  0.6314 -0.1461
  681MOL0     C91826   9.540   5.874  11.688  0.2476 -0.6713 -0.1230
  681MOL0     C91827   9.579   5.740  11.740  0.1099 -0.1300 -0.3062
  681MOL0     C91828   9.727   5.706  11.749 -0.1245 -0.3158  0.3067
  681MOL0     C91829   9.476   5.652  11.767 -0.2798  0.2476 -0.6339
  681MOL0     C91830   9.499   5.507  11.818 -0.2346 -0.8128  1.1337
  681MOL0     O91831   9.394   5.442  11.896  0.2657 -0.4645  0.0391
  681MOL0     C91832   9.398   5.466  12.036 -0.0842  0.7228 -0.4873
  681MOL0     C91833   9.302   5.413  12.123  0.3207  0.1110 -0.1684
  681MOL0     C91834   9.296   5.451  12.258  0.8325 -1.0381 -0.7429
  681MOL0     C91835   9.380   5.536  12.322 -0.0986  0.4411  0.7655
  681MOL0     O91836   9.379   5.558  12.456  0.3757  0.4848 -0.4188
  681MOL0     C91837   9.354   5.692  12.508  0.5548  1.4875 -0.2438
  681MOL0     C91838   9.444   5.715  12.628 -1.2420  1.0427 -0.1024
  681MOL0     C91839   9.410   5.609  12.744  0.5604 -0.4837  0.7347
  681MOL0     C91840   9.514   5.618  12.852  0.5526 -1.0100 -0.5011
  681MOL0     C91841   9.501   5.498  12.939 -0.7128 -0.4068  0.2045
  681MOL0     C91842   9.584   5.525  13.068  0.4369 -0.6985  0.7720
  681MOL0     C91843   9.594   5.391  13.144 -0.0044  0.7954 -0.4051
  681MOL0     C91844   9.698   5.411  13.256 -0.1506 -0.4611  0.3249
  681MOL0    Cl91845   9.632   5.504  13.393 -0.3858 -0.0038  0.2031
  681MOL0     C91846   9.480   5.586  12.246 -0.5087 -0.6918  0.4063
  681MOL0     C91847   9.488   5.555  12.101  0.4420 -0.1748 -0.8919
  681MOL0     O91848   9.606   5.454  11.800 -0.5594 -0.3808  0.6814
  681MOL0     C91849   9.342   5.689  11.741  0.2407 -0.7919 -0.3635
  681MOL0     C91850   9.310   5.809  11.676  1.1056  0.0425  0.8773
  681MOL0     N91851   9.470   6.555  11.356  0.5296 -0.4147  0.4347
  681MOL0     N91852   9.571   6.627  11.323  0.2293  0.1158  1.0002
  681MOL0     C91853  10.497   7.174  10.555  0.0001  1.0090 -0.0934
  681MOL0     C91854  10.533   7.306  10.549 -0.0742  0.0978  0.5243
  681MOL0     C91855  10.430   7.778  10.513  0.1958 -0.3489  0.0647
  681MOL0     C91856  10.567   7.792  10.469 -0.3005 -0.0251 -0.1406
  681MOL0     C91857  10.621   7.915  10.457 -0.4304 -0.0490  0.2159
  681MOL0     C91858  10.553   8.033  10.489 -1.1190  0.3214 -0.8962
  681MOL0     O91859  10.610   8.160  10.493 -0.0720  0.0735  0.1096
  681MOL0     C91860  10.721   8.189  10.400 -0.4496  0.0174  0.5014
  681MOL0     C91861  10.797   8.325  10.412 -0.4322  0.0937  0.3105
  681MOL0     C91862  10.886   8.340  10.529 -0.7971 -0.0377  0.5843
  681MOL0     C91863  10.810   8.383  10.651  0.1066  0.4348  0.8084
  681MOL0     C91864  10.912   8.394  10.759  1.2562  0.8880  0.8738
  681MOL0     C91865  10.991   8.416  10.845  1.2554  0.9075 -0.5495
  681MOL0     C91866  10.428   8.009  10.550 -0.1805 -0.7576 -1.1460
  681MOL0     C91867  10.360   7.890  10.568 -0.4171  0.2147 -0.0507
  681MOL0     H91868  10.208   7.409  10.495  0.5063 -0.4542 -2.5167
  681MOL0     H91869  10.160   7.183  10.507  0.6849 -1.5999 -2.0713
  681MOL0     H91870  10.225   7.029  10.715 -0.4004 -0.7669  0.7012
  681MOL0     H91871  10.148   6.958  10.566  0.0127 -0.9311 -0.7412
  681MOL0     H91872  10.215   6.751  10.602  1.5510 -2.2633  1.8626
  681MOL0     H91873  10.324   6.797  10.740  0.3893  0.6756  0.1485
  681MOL0     H91874  10.130   6.655  10.770  4.5441 -0.2983  0.8817
  681MOL0     H91875  10.148   6.779  10.894  0.1725 -1.7448 -0.4015
  681MOL0     H91876   9.946   6.910  10.785  1.5611  1.7479  2.5152
  681MOL0     H91877   9.949   6.779  10.670 -2.9031 -0.2034  1.3310
  681MOL0     H91878   9.775   6.730  10.802  1.7673  0.2978 -1.0959
  681MOL0     H91879   9.905   6.606  10.823 -1.8047 -1.5361  0.5827
  681MOL0     H91880   9.966   6.691  11.028  0.9310 -1.8278 -4.1727
  681MOL0     H91881   9.851   6.828  11.021  4.7153  0.5802  3.1427
  681MOL0     H91882   9.669   6.689  11.052 -2.8311 -4.7140 -0.6669
  681MOL0     H91883   9.752   6.548  11.010 -1.4168  1.9853 -2.2265
  681MOL0     H91884   9.833   6.692  11.271 -3.2917  1.9428 -1.2099
  681MOL0     H91885   9.877   6.526  11.235 -1.8882 -0.7475  1.7430
  681MOL0     H91886   9.688   6.342  11.243  1.4160  0.0742  0.9793
  681MOL0     H91887   9.358   6.303  11.254 -1.1455  0.6056  0.2625
  681MOL0     H91888   9.500   6.218  11.352  2.4452  2.1552 -0.5788
  681MOL0     H91889   9.264   6.202  11.454  1.6707 -0.5676  1.6810
  681MOL0     H91890   9.263   6.373  11.446 -1.5958 -0.7474 -0.4528
  681MOL0     H91891   9.323   6.309  11.674  2.6851  0.6328  2.3151
  681MOL0     H91892   9.483   6.349  11.617  2.8231 -2.4243 -0.5631
  681MOL0     H91893   9.509   6.144  11.724  0.4470  2.0969  0.4331
  681MOL0     H91894   9.544   6.138  11.551  0.2926 -0.0529 -2.1930
  681MOL0     H91895   9.616   5.951  11.681 -1.4343  1.0360 -0.4318
  681MOL0     H91896   9.793   5.791  11.728  2.1975 -1.5103  2.1400
  681MOL0     H91897   9.760   5.680  11.851 -0.6065  0.8799  0.7936
  681MOL0     H91898   9.754   5.624  11.682 -0.5879 -0.8564  0.7703
  681MOL0     H91899   9.222   5.353  12.079  0.2155  0.4875 -0.4956
  681MOL0     H91900   9.229   5.404  12.330 -0.0197  0.6754 -0.3833
  681MOL0     H91901   9.365   5.763  12.425 -3.4349  1.2640 -1.1598
  681MOL0     H91902   9.249   5.717  12.526  0.7861  0.9709  2.1835
  681MOL0     H91903   9.543   5.689  12.590 -0.4393  3.4785  0.1194
  681MOL0     H91904   9.456   5.820  12.657 -3.9803  0.5094  3.6360
  681MOL0     H91905   9.417   5.509  12.700  0.0110 -0.8953  1.5720
  681MOL0     H91906   9.310   5.612  12.786 -0.8547 -0.7599 -2.3236
  681MOL0     H91907   9.614   5.618  12.808  1.0116 -4.3882  0.3091
  681MOL0     H91908   9.501   5.706  12.917 -0.3736 -1.7035  0.2778
  681MOL0     H91909   9.554   5.413  12.894  1.9421 -0.2145  2.6339
  681MOL0     H91910   9.397   5.480  12.966 -0.6333  3.7365  4.5663
  681MOL0     H91911   9.686   5.564  13.056  0.4593 -0.8031  0.6074
  681MOL0     H91912   9.516   5.590  13.124 -2.1351 -0.0863 -2.7397
  681MOL0     H91913   9.626   5.312  13.075  0.4524 -1.8258  2.5164
  681MOL0     H91914   9.499   5.362  13.191 -0.5081  2.7933 -0.1062
  681MOL0     H91915   9.792   5.459  13.225 -0.2889 -0.8052 -0.6540
  681MOL0     H91916   9.734   5.311  13.281  1.6162 -0.7677 -2.8860
  681MOL0     H91917   9.555   5.636  12.306 -0.1056 -1.3250  0.4296
  681MOL0     H91918   9.579   5.597  12.059  1.0227 -1.1930 -0.6808
  681MOL0     H91919   9.256   5.623  11.753  0.1815 -1.0455 -1.9005
  681MOL0     H91920   9.207   5.834  11.651  0.6077 -1.8643  0.8691
  681MOL0     H91921  10.566   7.091  10.565 -1.6078 -0.8034 -2.6594
  681MOL0     H91922  10.633   7.347  10.539  0.1965 -1.0647 -2.7627
  681MOL0     H91923  10.631   7.710  10.438  0.8102  1.5163 -2.1262
  681MOL0     H91924  10.726   7.907  10.433 -0.0650  2.2909  0.8260
  681MOL0     H91925  10.796   8.110  10.415 -0.4026  0.0358  0.3711
  681MOL0     H91926  10.682   8.171  10.299 -0.4979  1.2592  0.2860
  681MOL0     H91927  10.722   8.405  10.404 -3.6644 -2.6653  1.0232
  681MOL0     H91928  10.862   8.346  10.326  0.5237 -0.3275  0.9084
  681MOL0     H91929  10.949   8.426  10.504 -1.1059  0.1497  0.4465
  681MOL0     H91930  10.946   8.255  10.563 -1.3701  0.7721  3.9782
  681MOL0     H91931  10.731   8.310  10.670 -0.9312  1.5115  0.7182
  681MOL0     H91932  10.757   8.479  10.647 -0.0916  0.3009  0.2411
  681MOL0     H91933  11.062   8.424  10.925 -2.0526 -0.3547  2.8467
  681MOL0     H91934  10.366   8.094  10.577  0.2619 -0.8934  0.3896
  681MOL0     H91935  10.262   7.888  10.615  0.6909 -2.3872  2.4210
  682MOL0     O91936   6.539   5.714   4.024 -0.6038  0.3017  0.7969
  682MOL0     C91937   6.608   5.812   4.011 -0.0027 -1.1200  0.6549
  682MOL0     O91938   6.742   5.822   4.043 -0.5776  0.1043  0.1669
  682MOL0     C91939   6.828   5.713   4.027 -0.3591 -0.3128  0.3127
  682MOL0     C91940   6.885   5.691   3.904  0.8073  0.0028  0.7824
  682MOL0     C91941   6.964   5.575   3.881 -0.5975  0.4156  0.0052
  682MOL0     C91942   6.987   5.492   3.989  1.1216  0.6355  0.1017
  682MOL0     O91943   7.071   5.386   3.994 -0.3316  0.2432 -0.2470
  682MOL0     C91944   7.159   5.361   3.885 -0.0707 -0.1861 -0.3248
  682MOL0     C91945   7.253   5.256   3.948 -0.5015 -0.2010  0.7364
  682MOL0     C91946   7.362   5.220   3.844 -1.0277  1.1901  0.2154
  682MOL0     C91947   7.299   5.127   3.722  0.5910 -0.6595 -0.3436
  682MOL0     C91948   7.383   5.140   3.590 -0.9992 -0.2757  0.1515
  682MOL0     C91949   7.312   5.043   3.494  0.0633 -0.8830 -0.1173
  682MOL0     C91950   7.389   5.039   3.359 -0.2734 -0.3129  0.6428
  682MOL0     C91951   7.526   4.989   3.382  0.0937  0.8717  0.5419
  682MOL0     N91952   7.576   4.917   3.261  0.3340  0.6228 -0.5144
  682MOL0     C91953   7.512   4.817   3.200 -0.0223 -0.5574  0.4406
  682MOL0     C91954   7.587   4.782   3.108  0.1741  1.1360  1.3004
  682MOL0     C91955   7.561   4.672   3.012  0.9359 -1.0819  0.4913
  682MOL0     C91956   7.411   4.642   3.002  0.7099  0.5052 -0.0833
  682MOL0     C91957   7.363   4.570   2.878 -0.4632  0.6564  0.4826
  682MOL0     C91958   7.215   4.601   2.862 -0.3699 -0.9560 -0.5802
  682MOL0     O91959   7.133   4.533   2.947 -0.0379 -0.0840 -0.4247
  682MOL0     C91960   7.075   4.593   3.062  0.5546  0.5535  0.8861
  682MOL0     C91961   7.017   4.512   3.161  0.0707  0.2046 -0.4266
  682MOL0     C91962   6.952   4.551   3.278 -0.1227  0.1844  0.3399
  682MOL0     C91963   6.888   4.452   3.363  0.4892  0.1343  0.5749
  682MOL0     C91964   6.968   4.691   3.305 -0.3293  1.2778  0.3946
  682MOL0     C91965   6.936   4.752   3.434 -0.0113  0.3815  0.2866
  682MOL0     O91966   6.888   4.881   3.446  0.5012 -0.3861 -0.4155
  682MOL0     C91967   6.844   4.922   3.573 -0.3543  0.1421 -0.2331
  682MOL0     C91968   6.714   4.913   3.596  0.0866  0.1125  0.4772
  682MOL0     C91969   6.659   4.939   3.720 -0.2016 -0.0930 -0.6532
  682MOL0     C91970   6.739   4.981   3.819 -0.1549  0.6804  0.5661
  682MOL0     O91971   6.677   5.024   3.930  0.4318 -0.5994 -0.3762
  682MOL0     C91972   6.737   5.139   4.006  0.5157 -0.4317 -0.1671
  682MOL0     C91973   6.816   5.090   4.122 -0.5123  1.0664 -0.5102
  682MOL0     C91974   6.725   5.034   4.224  0.5661  0.9184 -0.0799
  682MOL0     C91975   6.795   5.010   4.364 -0.4396 -0.0958 -0.3146
  682MOL0     C91976   6.704   4.950   4.473  0.4430 -0.2957  0.9323
  682MOL0     C91977   6.688   4.798   4.481 -0.9096  0.2670  0.9469
  682MOL0     C91978   6.782   4.729   4.577  0.0544  0.2565  0.6944
  682MOL0     C91979   6.785   4.567   4.557  0.4417 -0.5776  0.2919
  682MOL0    Cl91980   6.864   4.530   4.411 -0.3055  0.4271 -0.4518
  682MOL0     C91981   6.878   4.980   3.802 -0.0224 -1.1907  0.4893
  682MOL0     C91982   6.935   4.955   3.680 -0.0321 -0.7183 -0.2872
  682MOL0     O91983   6.960   4.685   3.534 -0.2686  0.3217 -0.1834
  682MOL0     C91984   7.020   4.777   3.211 -0.6578 -0.3521 -0.1087
  682MOL0     C91985   7.071   4.726   3.091  0.6270 -0.8198 -0.1062
  682MOL0     N91986   7.709   4.842   3.116  0.6014 -0.6896  0.2940
  682MOL0     N91987   7.702   4.926   3.215  0.1967 -0.8881 -0.2001
  682MOL0     C91988   6.927   5.517   4.117  0.0019  0.1120  0.7361
  682MOL0     C91989   6.846   5.630   4.136 -0.2391 -0.0802  0.4439
  682MOL0     C91990   6.545   5.932   3.955 -0.0251  0.3160 -0.4437
  682MOL0     C91991   6.615   6.048   3.901  0.1436  0.4521  0.4826
  682MOL0     C91992   6.539   6.156   3.852 -0.0537 -0.3440 -0.5852
  682MOL0     C91993   6.398   6.153   3.858 -0.6783  0.3616 -0.3597
  682MOL0     O91994   6.332   6.239   3.776 -0.3059  0.3376  0.0519
  682MOL0     C91995   6.191   6.223   3.738 -0.3243  0.1128  0.1759
  682MOL0     C91996   6.153   6.320   3.625 -0.2514  0.0507 -0.5445
  682MOL0     C91997   6.008   6.289   3.592  0.1344 -0.2064 -1.0760
  682MOL0     C91998   5.977   6.379   3.467  0.5901  0.4702  0.1550
  682MOL0     C91999   5.942   6.516   3.508 -0.3852  0.1891 -0.4287
  682MOL0     C92000   5.920   6.634   3.512  0.2193 -0.2908  0.5508
  682MOL0     C92001   6.338   6.043   3.914  0.8710  0.2961  0.7359
  682MOL0     C92002   6.406   5.933   3.957 -0.0609  0.7392 -0.7285
  682MOL0     H92003   6.856   5.759   3.824 -0.5304  0.5687  1.7005
  682MOL0     H92004   7.000   5.554   3.780  0.9692 -1.6159  0.9192
  682MOL0     H92005   7.117   5.320   3.792  0.9075 -2.2554  0.0950
  682MOL0     H92006   7.228   5.444   3.866 -1.1053  0.7009 -0.2972
  682MOL0     H92007   7.300   5.293   4.039 -4.3652  3.3419  1.5888
  682MOL0     H92008   7.191   5.168   3.967  2.3837 -2.4996  0.1864
  682MOL0     H92009   7.414   5.306   3.800  0.7285 -0.9929 -2.3007
  682MOL0     H92010   7.445   5.161   3.884 -1.2281  0.5931 -0.2335
  682MOL0     H92011   7.285   5.021   3.747  5.2691 -1.4094  0.1284
  682MOL0     H92012   7.203   5.170   3.692  0.6722  2.0767  2.7342
  682MOL0     H92013   7.389   5.244   3.556 -2.7113 -0.4680 -0.8781
  682MOL0     H92014   7.485   5.108   3.613 -1.4927 -1.7079  0.4310
  682MOL0     H92015   7.310   4.945   3.542 -2.6928 -0.1198  1.5222
  682MOL0     H92016   7.206   5.055   3.470 -0.7323 -2.2396  2.3375
  682MOL0     H92017   7.338   4.978   3.284 -1.4481  3.2637 -1.7338
  682MOL0     H92018   7.398   5.139   3.315 -0.8434 -1.0712 -1.3213
  682MOL0     H92019   7.535   4.929   3.473  0.8759 -1.0484 -0.7247
  682MOL0     H92020   7.597   5.070   3.401  0.9859  0.1886  0.1608
  682MOL0     H92021   7.411   4.784   3.223 -1.0762  3.0742  1.6420
  682MOL0     H92022   7.597   4.692   2.910 -0.7840 -1.8011 -0.2956
  682MOL0     H92023   7.618   4.583   3.039 -0.8808 -2.3948  0.1928
  682MOL0     H92024   7.347   4.731   3.008 -1.5495 -0.8266 -2.3900
  682MOL0     H92025   7.387   4.579   3.088  0.8528 -1.7060 -1.5804
  682MOL0     H92026   7.372   4.465   2.907 -1.2941  0.8653  1.5558
  682MOL0     H92027   7.424   4.582   2.787  1.8445 -3.1907  1.3189
  682MOL0     H92028   7.179   4.564   2.766 -1.0582 -2.1255  0.0967
  682MOL0     H92029   7.203   4.709   2.862 -1.3275 -0.9291  3.1066
  682MOL0     H92030   7.007   4.408   3.132  1.1266  0.7441 -2.9676
  682MOL0     H92031   6.963   4.407   3.428 -0.3588 -1.0063  0.7970
  682MOL0     H92032   6.814   4.492   3.433  2.1520  2.7998  0.9551
  682MOL0     H92033   6.847   4.380   3.291 -0.5081  2.8975 -1.8041
  682MOL0     H92034   6.640   4.885   3.522 -0.4288 -0.0714  1.0433
  682MOL0     H92035   6.554   4.943   3.746 -0.4202  0.6697 -1.5966
  682MOL0     H92036   6.801   5.196   3.938  0.0899  0.6649  0.3221
  682MOL0     H92037   6.661   5.202   4.054  0.9365 -0.3239  0.3677
  682MOL0     H92038   6.886   5.011   4.095 -2.9100 -1.0338 -0.9598
  682MOL0     H92039   6.870   5.173   4.169 -2.1434  1.5509  0.5783
  682MOL0     H92040   6.687   4.933   4.205 -0.7078  1.0266  1.6208
  682MOL0     H92041   6.633   5.092   4.236  1.2792  1.6092  3.0223
  682MOL0     H92042   6.881   4.944   4.351 -1.5833 -1.4240 -1.3829
  682MOL0     H92043   6.845   5.098   4.408  1.2251 -3.3994  5.5425
  682MOL0     H92044   6.602   4.985   4.455  0.5165  0.2403  1.5545
  682MOL0     H92045   6.732   4.988   4.571  0.7132 -0.5594  0.9570
  682MOL0     H92046   6.587   4.764   4.504 -0.2455 -1.5854  1.3392
  682MOL0     H92047   6.715   4.749   4.386  2.5041 -0.8375  2.3302
  682MOL0     H92048   6.755   4.772   4.674  1.0552  1.0580  0.6379
  682MOL0     H92049   6.883   4.765   4.554  0.6604 -2.8708 -2.3740
  682MOL0     H92050   6.686   4.521   4.546  1.8637 -4.0595  0.7872
  682MOL0     H92051   6.840   4.513   4.635  1.7821  0.0126 -0.2183
  682MOL0     H92052   6.954   5.011   3.873 -0.6883 -0.5881  0.9537
  682MOL0     H92053   7.042   4.972   3.666 -0.3086  1.3903 -0.0666
  682MOL0     H92054   7.032   4.884   3.227  1.0688  0.1604 -3.8451
  682MOL0     H92055   7.126   4.800   3.033  0.2197 -0.7476 -0.4061
  682MOL0     H92056   6.927   5.444   4.197 -2.7634  0.2854  1.0004
  682MOL0     H92057   6.800   5.657   4.230 -0.4110  2.0733 -0.2021
  682MOL0     H92058   6.722   6.055   3.918  0.0478  0.7881  0.9543
  682MOL0     H92059   6.578   6.245   3.804 -3.6751  3.0472  2.0134
  682MOL0     H92060   6.179   6.131   3.681  1.4661  0.4453 -0.8256
  682MOL0     H92061   6.132   6.241   3.828  0.1087  2.6988  0.0188
  682MOL0     H92062   6.221   6.308   3.541  2.7262  0.4684  1.6449
  682MOL0     H92063   6.166   6.423   3.661 -0.1822  0.4449 -1.6539
  682MOL0     H92064   5.933   6.310   3.669 -2.2276  3.2521 -3.9695
  682MOL0     H92065   6.003   6.184   3.563  0.0843 -0.7402  0.7910
  682MOL0     H92066   5.885   6.341   3.421  0.9619 -2.8277  1.8248
  682MOL0     H92067   6.056   6.369   3.392  0.7162 -0.8956  0.4443
  682MOL0     H92068   5.895   6.738   3.521  1.8311  0.0870  1.0541
  682MOL0     H92069   6.232   6.030   3.928  0.0899  1.7410 -2.7582
  682MOL0     H92070   6.342   5.851   3.988 -0.7275  1.6744  0.4471
  683MOL0     O92071   9.349   7.295   2.696  0.9391 -0.0407  0.5033
  683MOL0     C92072   9.426   7.192   2.702 -0.1682 -0.0214 -0.0172
  683MOL0     O92073   9.407   7.068   2.656 -0.7739 -0.0902 -0.3779
  683MOL0     C92074   9.294   7.025   2.598  0.3061 -0.5369 -0.4520
  683MOL0     C92075   9.284   6.881   2.583 -0.9852  0.1975 -0.5915
  683MOL0     C92076   9.171   6.820   2.523  0.4181 -0.3977 -0.4391
  683MOL0     C92077   9.063   6.888   2.490 -0.1648  1.2911 -1.3963
  683MOL0     O92078   8.943   6.837   2.449 -0.2838  0.1914  0.6013
  683MOL0     C92079   8.958   6.742   2.342  0.2636 -0.9671 -0.4979
  683MOL0     C92080   8.889   6.610   2.376  0.4029 -0.1810 -0.7762
  683MOL0     C92081   8.733   6.589   2.358 -0.1916  0.0201  0.0550
  683MOL0     C92082   8.658   6.690   2.455 -0.2714 -0.3571  0.0203
  683MOL0     C92083   8.508   6.703   2.435 -1.1705  0.0624  0.4453
  683MOL0     C92084   8.442   6.753   2.559  0.0856 -0.0368 -0.5264
  683MOL0     C92085   8.308   6.810   2.525  0.6509  0.1298  0.4818
  683MOL0     C92086   8.244   6.853   2.654  0.4245 -0.6318  0.0237
  683MOL0     N92087   8.112   6.923   2.629  0.4970  0.2259 -0.5655
  683MOL0     C92088   8.075   7.043   2.692 -0.5137 -0.2753 -0.0084
  683MOL0     C92089   7.945   7.070   2.657  0.0945  0.4781 -0.3463
  683MOL0     C92090   7.855   7.184   2.707 -0.1514  0.0183 -0.3219
  683MOL0     C92091   7.777   7.261   2.605 -0.6968 -0.7993 -0.6995
  683MOL0     C92092   7.757   7.403   2.653  0.3694 -0.6736 -0.1473
  683MOL0     C92093   7.675   7.488   2.546 -0.0141 -0.2393  0.1435
  683MOL0     O92094   7.662   7.624   2.586 -0.0661  0.2016 -0.0853
  683MOL0     C92095   7.566   7.661   2.677  0.2645  0.5633  0.2810
  683MOL0     C92096   7.471   7.567   2.731  0.2119  0.5874  0.1391
  683MOL0     C92097   7.363   7.608   2.824 -0.5226 -0.4524 -1.4177
  683MOL0     C92098   7.259   7.500   2.860 -0.2132  0.6719 -0.1617
  683MOL0     C92099   7.353   7.744   2.866  0.7832  0.5706 -0.2565
  683MOL0     C92100   7.258   7.786   2.968  0.0858 -0.5718 -0.4359
  683MOL0     O92101   7.200   7.905   2.950  0.2278  0.8211 -0.7568
  683MOL0     C92102   7.145   7.972   3.062 -1.1438  0.1119  0.5873
  683MOL0     C92103   7.179   8.100   3.069 -0.1995 -0.4322 -0.5238
  683MOL0     C92104   7.117   8.185   3.154  0.0854 -0.6880 -0.7695
  683MOL0     C92105   7.033   8.131   3.250 -0.8222  0.3150 -0.3763
  683MOL0     O92106   6.971   8.223   3.335  0.0471 -0.7001  0.7706
  683MOL0     C92107   6.881   8.176   3.432  1.3185  0.9043 -0.4090
  683MOL0     C92108   6.855   8.274   3.549 -0.2828  0.1330  0.6907
  683MOL0     C92109   6.760   8.384   3.504 -1.0906  0.5062  1.0883
  683MOL0     C92110   6.744   8.499   3.601  0.7700  0.1615  0.0080
  683MOL0     C92111   6.872   8.518   3.693 -0.5003  0.3584  0.7457
  683MOL0     C92112   6.902   8.656   3.756 -0.5933  0.7122  0.4783
  683MOL0     C92113   7.016   8.639   3.862 -0.5168  0.1308 -0.0113
  683MOL0     C92114   7.047   8.766   3.942  0.1235  0.7584 -0.5976
  683MOL0    Cl92115   7.165   8.744   4.071 -0.6508 -0.7885 -0.0200
  683MOL0     C92116   6.988   7.993   3.242 -0.8415  0.1874  0.0176
  683MOL0     C92117   7.045   7.917   3.139 -0.1552  0.6294  0.4329
  683MOL0     O92118   7.247   7.713   3.064 -0.6841 -0.5568  0.1451
  683MOL0     C92119   7.442   7.835   2.801 -0.0662 -0.4696 -0.5122
  683MOL0     C92120   7.546   7.791   2.709  0.4598  0.0968  0.7103
  683MOL0     N92121   7.905   6.971   2.573  0.2762  0.7742  0.1155
  683MOL0     N92122   8.006   6.889   2.554 -0.5708 -0.5028  0.6473
  683MOL0     C92123   9.071   7.025   2.506  0.1285  0.2635  0.5109
  683MOL0     C92124   9.179   7.095   2.560  1.0126 -0.5567  0.2846
  683MOL0     C92125   9.559   7.223   2.763 -0.2589 -0.0108  1.2636
  683MOL0     C92126   9.653   7.120   2.778  0.1449 -0.3806  1.2788
  683MOL0     C92127   9.765   7.139   2.858 -0.2619  0.5397 -0.6665
  683MOL0     C92128   9.795   7.268   2.917  1.1264  0.0004  0.3197
  683MOL0     O92129   9.889   7.311   3.002 -0.7807  0.1273  0.4199
  683MOL0     C92130  10.000   7.239   3.041 -0.4556  0.5346 -0.2484
  683MOL0     C92131  10.051   7.297   3.172  1.0494  0.0982 -0.2341
  683MOL0     C92132  10.161   7.208   3.241  0.0080  0.1613  0.0466
  683MOL0     C92133  10.278   7.171   3.146  0.0889 -0.2665  1.0178
  683MOL0     C92134  10.406   7.173   3.225 -0.3234 -0.4538  0.3337
  683MOL0     C92135  10.516   7.157   3.274 -0.1522 -0.0123  0.0905
  683MOL0     C92136   9.703   7.369   2.885 -0.5899  0.1537 -0.1558
  683MOL0     C92137   9.584   7.350   2.814  0.7640 -0.0324 -0.7636
  683MOL0     H92138   9.367   6.813   2.601  1.7580  3.3650 -0.2868
  683MOL0     H92139   9.162   6.712   2.522  3.3263 -0.7688 -2.4867
  683MOL0     H92140   8.909   6.783   2.253 -0.7450  0.1207  0.5311
  683MOL0     H92141   9.064   6.722   2.325  0.0603 -1.1711 -1.6320
  683MOL0     H92142   8.940   6.532   2.319 -0.6763  1.3876 -4.1125
  683MOL0     H92143   8.913   6.591   2.481 -2.6122  0.4849  0.1375
  683MOL0     H92144   8.715   6.610   2.252  0.4878 -0.9274 -0.2684
  683MOL0     H92145   8.709   6.486   2.387  1.2602 -0.0479  1.1645
  683MOL0     H92146   8.686   6.644   2.550 -0.7316  0.3705  0.5180
  683MOL0     H92147   8.721   6.777   2.477 -0.8765 -0.5486  2.8272
  683MOL0     H92148   8.492   6.767   2.348  0.9974 -1.2004 -0.9970
  683MOL0     H92149   8.464   6.604   2.417  0.4541 -1.1341  2.5564
  683MOL0     H92150   8.431   6.669   2.627 -1.9070  0.1213 -0.5969
  683MOL0     H92151   8.511   6.827   2.600  2.6403 -3.9889  3.1437
  683MOL0     H92152   8.313   6.893   2.454 -2.0986 -0.9487 -1.1102
  683MOL0     H92153   8.227   6.747   2.487 -0.4600  1.5738  0.4070
  683MOL0     H92154   8.306   6.923   2.712 -1.0781  0.2021  0.6674
  683MOL0     H92155   8.229   6.759   2.709  2.2355 -1.6181 -1.0494
  683MOL0     H92156   8.141   7.115   2.739  1.2007 -2.5045  1.2077
  683MOL0     H92157   7.785   7.142   2.779 -0.8806  0.1631 -0.9354
  683MOL0     H92158   7.919   7.259   2.754 -1.8129  3.5695 -3.2306
  683MOL0     H92159   7.677   7.221   2.584 -2.1186  1.1015  1.7991
  683MOL0     H92160   7.835   7.274   2.514  1.2166  3.2009  0.8355
  683MOL0     H92161   7.849   7.461   2.656  0.1930 -0.4280  0.9632
  683MOL0     H92162   7.713   7.400   2.753  0.1539  1.8593 -0.0944
  683MOL0     H92163   7.576   7.445   2.530 -0.9495  1.6757  0.5583
  683MOL0     H92164   7.724   7.488   2.448 -1.5133  0.3070 -0.6327
  683MOL0     H92165   7.470   7.462   2.706  1.0452  0.9164 -1.3671
  683MOL0     H92166   7.166   7.558   2.860  1.3976  3.4536  0.9097
  683MOL0     H92167   7.253   7.410   2.799 -1.6241 -2.0616  3.5634
  683MOL0     H92168   7.283   7.465   2.961  1.3827  5.5146  1.4064
  683MOL0     H92169   7.250   8.145   3.001  1.6948 -2.6933 -0.1811
  683MOL0     H92170   7.128   8.293   3.154 -0.5957 -0.6091 -0.2902
  683MOL0     H92171   6.783   8.160   3.386  1.3785  0.0591 -0.2640
  683MOL0     H92172   6.922   8.086   3.478 -2.5091 -0.3552  0.9405
  683MOL0     H92173   6.817   8.223   3.638  0.8116 -0.5635  0.7662
  683MOL0     H92174   6.952   8.304   3.590 -0.0532  0.7979 -0.3008
  683MOL0     H92175   6.669   8.326   3.483  0.7606 -2.5935  1.0282
  683MOL0     H92176   6.794   8.427   3.409  3.5703 -0.4774  2.0551
  683MOL0     H92177   6.735   8.591   3.543 -1.3597 -0.2162 -0.3400
  683MOL0     H92178   6.659   8.481   3.668 -0.1720 -0.1263 -1.2209
  683MOL0     H92179   6.963   8.485   3.642 -1.7033 -2.8926  0.5198
  683MOL0     H92180   6.868   8.449   3.778  1.2454 -2.6409 -1.4284
  683MOL0     H92181   6.924   8.735   3.684 -1.0010 -0.5591 -1.1111
  683MOL0     H92182   6.812   8.680   3.813 -0.8520 -3.4884  2.2229
  683MOL0     H92183   7.101   8.619   3.796 -0.2520  0.9610  0.0674
  683MOL0     H92184   6.999   8.548   3.921 -0.7378 -0.7917 -1.4404
  683MOL0     H92185   6.959   8.804   3.994  1.0333  0.9740  0.8523
  683MOL0     H92186   7.083   8.844   3.875  0.7753  2.0098  1.1330
  683MOL0     H92187   6.913   7.955   3.309  1.7030 -3.2589  1.1743
  683MOL0     H92188   7.008   7.815   3.125 -0.3413  0.5856  1.1993
  683MOL0     H92189   7.434   7.942   2.820 -1.6509 -0.7192  0.4051
  683MOL0     H92190   7.610   7.869   2.667 -0.4781  0.5140  0.0118
  683MOL0     H92191   8.980   7.076   2.476  0.3100 -0.6247 -1.7665
  683MOL0     H92192   9.186   7.202   2.542  3.0248 -0.4656  1.3340
  683MOL0     H92193   9.628   7.023   2.735  0.3052  0.5597 -1.0632
  683MOL0     H92194   9.831   7.054   2.870 -1.6893 -0.4533  0.4715
  683MOL0     H92195   9.966   7.138   3.067 -0.4538  0.6397  0.1643
  683MOL0     H92196  10.081   7.241   2.968  4.7603  3.7846  4.8173
  683MOL0     H92197   9.968   7.312   3.242 -1.4319 -0.3861 -2.8969
  683MOL0     H92198  10.088   7.398   3.157  3.6047 -0.9257 -1.3823
  683MOL0     H92199  10.104   7.118   3.267 -2.0080  1.4901  0.4870
  683MOL0     H92200  10.213   7.248   3.328  3.7848 -2.1847 -0.8923
  683MOL0     H92201  10.289   7.257   3.079  2.0357 -0.9375  0.4189
  683MOL0     H92202  10.270   7.079   3.087  1.1123 -0.7135  1.5673
  683MOL0     H92203  10.614   7.131   3.308 -0.8972 -1.1624  1.4340
  683MOL0     H92204   9.728   7.462   2.934 -1.8809 -1.2187  3.3899
  683MOL0     H92205   9.510   7.427   2.796 -0.1987 -0.9074 -0.6386
  684MOL0     O92206   5.228   6.188   3.626  0.0450  0.3560 -0.1682
  684MOL0     C92207   5.192   6.286   3.555  0.6850 -0.1523 -0.2146
  684MOL0     O92208   5.232   6.413   3.567 -0.3705 -0.9164 -0.2596
  684MOL0     C92209   5.343   6.448   3.658  1.3568 -0.0595  0.8088
  684MOL0     C92210   5.339   6.569   3.720  0.1883 -0.1543 -0.4163
  684MOL0     C92211   5.440   6.601   3.816 -0.5176 -0.3246  0.6906
  684MOL0     C92212   5.557   6.521   3.828 -0.0529  0.6064 -0.2569
  684MOL0     O92213   5.661   6.561   3.901 -0.0909 -0.1791 -0.1517
  684MOL0     C92214   5.652   6.667   3.994  0.1093 -0.0685  0.0807
  684MOL0     C92215   5.724   6.785   3.932 -0.6551 -0.3428 -0.2933
  684MOL0     C92216   5.872   6.745   3.892 -0.0178 -0.5890  0.4376
  684MOL0     C92217   5.955   6.717   4.015  0.0063 -0.6513 -0.6733
  684MOL0     C92218   6.104   6.739   3.995 -0.1450 -0.2620  0.0132
  684MOL0     C92219   6.159   6.650   3.883 -0.5207 -0.5200  0.1420
  684MOL0     C92220   6.307   6.693   3.848  0.3626  0.1392  0.4605
  684MOL0     C92221   6.376   6.585   3.769 -1.2092  0.2328 -0.4517
  684MOL0     N92222   6.516   6.616   3.758 -0.2094  0.8332 -0.3716
  684MOL0     C92223   6.594   6.668   3.655  0.5587 -0.1830  0.3499
  684MOL0     C92224   6.721   6.664   3.704 -0.9106  0.6334 -0.2538
  684MOL0     C92225   6.846   6.728   3.641 -0.7789  0.4449 -0.0456
  684MOL0     C92226   6.882   6.655   3.515  0.7412 -0.8325  0.1420
  684MOL0     C92227   6.961   6.525   3.543 -0.0038 -0.3089  0.6426
  684MOL0     C92228   6.991   6.445   3.418  0.4447 -0.1020  0.4877
  684MOL0     O92229   7.018   6.533   3.305  0.1806 -0.0576  0.1616
  684MOL0     C92230   7.147   6.553   3.267 -0.6640  1.9563 -0.3099
  684MOL0     C92231   7.175   6.565   3.133  0.1346  0.2314  0.4915
  684MOL0     C92232   7.303   6.592   3.089 -0.0979 -0.0743  0.1934
  684MOL0     C92233   7.317   6.591   2.936 -0.2535  0.1104  0.6144
  684MOL0     C92234   7.411   6.600   3.177 -0.5157  0.5154  0.2275
  684MOL0     C92235   7.556   6.614   3.136 -0.7145  1.1716 -0.5655
  684MOL0     O92236   7.597   6.531   3.037  0.5939 -0.6194  0.1654
  684MOL0     C92237   7.723   6.549   2.994 -1.4497  0.3689  0.9094
  684MOL0     C92238   7.827   6.471   3.051 -0.2172  0.0831 -1.0150
  684MOL0     C92239   7.958   6.469   3.004  0.0339  0.7657 -0.0921
  684MOL0     C92240   7.988   6.556   2.900 -0.9986 -0.3801 -1.1549
  684MOL0     O92241   8.109   6.550   2.832 -0.0811  0.2822 -0.8899
  684MOL0     C92242   8.201   6.448   2.872  0.6031  0.8038  0.1439
  684MOL0     C92243   8.307   6.449   2.756 -0.3424 -1.0677  0.1106
  684MOL0     C92244   8.296   6.324   2.671 -0.4821 -0.1521  1.1180
  684MOL0     C92245   8.407   6.333   2.548  0.7059  0.9166  0.2046
  684MOL0     C92246   8.361   6.224   2.452 -0.1310  0.0348  0.3932
  684MOL0     C92247   8.418   6.250   2.306 -0.2606  0.5540  0.2129
  684MOL0     C92248   8.567   6.228   2.290 -0.0275  0.1323  0.0778
  684MOL0     C92249   8.614   6.267   2.146 -0.4779 -0.7733  0.0171
  684MOL0    Cl92250   8.775   6.221   2.091  0.4458 -0.2658  0.0471
  684MOL0     C92251   7.890   6.631   2.840 -0.0991 -0.3480 -0.2024
  684MOL0     C92252   7.765   6.642   2.896  1.0331  1.1882  0.3609
  684MOL0     O92253   7.618   6.712   3.184  0.2052  0.6198 -0.3427
  684MOL0     C92254   7.383   6.600   3.316  0.5206  0.7940 -0.2445
  684MOL0     C92255   7.254   6.582   3.356  0.8320  1.1177  0.0556
  684MOL0     N92256   6.722   6.598   3.827 -0.4870  0.2931 -1.0207
  684MOL0     N92257   6.597   6.565   3.853 -1.1177 -0.7682  0.1979
  684MOL0     C92258   5.553   6.388   3.765 -0.2956 -0.7204  0.2850
  684MOL0     C92259   5.452   6.363   3.667  1.2380  0.2792 -0.1980
  684MOL0     C92260   5.078   6.258   3.461 -0.6890 -0.4348 -0.1748
  684MOL0     C92261   5.039   6.125   3.428 -0.9185  0.3666 -0.3795
  684MOL0     C92262   4.969   6.102   3.306  0.2357  0.0787  0.0181
  684MOL0     C92263   4.912   6.206   3.236  0.8449 -0.9938  0.1560
  684MOL0     O92264   4.826   6.185   3.134  0.0260  0.3130  0.4344
  684MOL0     C92265   4.859   6.253   3.009 -0.2875 -1.3164 -0.1317
  684MOL0     C92266   4.764   6.214   2.897  0.0920 -1.1033  0.2932
  684MOL0     C92267   4.772   6.062   2.864 -0.7081 -0.0607  0.9734
  684MOL0     C92268   4.669   6.022   2.763  0.3540  0.2006  0.0676
  684MOL0     C92269   4.531   6.022   2.817 -0.7880  0.4067 -0.1496
  684MOL0     C92270   4.420   6.013   2.852  0.0508  0.1642 -0.7448
  684MOL0     C92271   4.930   6.337   3.285  0.2114  0.6620 -0.8171
  684MOL0     C92272   5.016   6.359   3.393  0.0711 -0.1508 -0.3541
  684MOL0     H92273   5.244   6.620   3.706  0.6749  1.1783  0.8980
  684MOL0     H92274   5.437   6.701   3.858 -1.2113 -0.8945  2.0910
  684MOL0     H92275   5.551   6.695   4.024  0.0416  1.6129 -1.5582
  684MOL0     H92276   5.688   6.644   4.095  1.0625  1.5887  0.1546
  684MOL0     H92277   5.669   6.813   3.842 -2.1224 -3.9866 -0.6778
  684MOL0     H92278   5.720   6.870   4.001 -0.3216 -0.1052 -0.5646
  684MOL0     H92279   5.882   6.655   3.831 -2.7078 -0.2942 -0.5731
  684MOL0     H92280   5.929   6.829   3.852  3.2728 -2.4235  0.8631
  684MOL0     H92281   5.919   6.787   4.091 -0.9587 -0.4690 -1.2989
  684MOL0     H92282   5.939   6.615   4.052  1.3909 -1.2426 -1.5935
  684MOL0     H92283   6.123   6.844   3.968 -2.1716 -0.0151 -0.6118
  684MOL0     H92284   6.166   6.718   4.082 -2.1860 -0.8518  1.3707
  684MOL0     H92285   6.156   6.548   3.923 -2.8192 -0.2829  0.6812
  684MOL0     H92286   6.094   6.668   3.797 -2.7034 -1.7195  1.4501
  684MOL0     H92287   6.308   6.786   3.791 -1.2291 -0.7724 -1.1387
  684MOL0     H92288   6.363   6.708   3.941 -1.1325 -2.2442  1.8707
  684MOL0     H92289   6.314   6.579   3.679 -0.9362  3.1069 -0.9067
  684MOL0     H92290   6.361   6.492   3.825 -1.8465  1.3812  1.3771
  684MOL0     H92291   6.559   6.711   3.562 -0.1382  1.4160  1.3032
  684MOL0     H92292   6.852   6.834   3.615 -0.6785  0.7531  1.1494
  684MOL0     H92293   6.927   6.705   3.711 -1.1508 -0.0555  0.2308
  684MOL0     H92294   6.914   6.723   3.434 -1.4033  1.4206  1.0642
  684MOL0     H92295   6.785   6.641   3.466 -0.4998  3.4804  0.9094
  684MOL0     H92296   6.891   6.473   3.609 -3.0666  1.5954 -0.8841
  684MOL0     H92297   7.054   6.548   3.596 -0.2135  0.4052  0.7148
  684MOL0     H92298   6.901   6.390   3.391 -0.5747  0.5493  2.3931
  684MOL0     H92299   7.076   6.380   3.443  1.5135  1.3680  0.8139
  684MOL0     H92300   7.094   6.563   3.061  0.4569  1.2045  0.0877
  684MOL0     H92301   7.229   6.632   2.886  1.1107  2.4573 -0.0165
  684MOL0     H92302   7.410   6.637   2.898 -1.1580  0.6116 -1.1143
  684MOL0     H92303   7.326   6.483   2.922  3.8072  0.0913  1.8126
  684MOL0     H92304   7.790   6.424   3.141 -3.8228 -0.6616 -2.7081
  684MOL0     H92305   8.035   6.413   3.056  0.5165  0.5112 -1.0619
  684MOL0     H92306   8.248   6.478   2.967  2.3373  0.6507 -0.6296
  684MOL0     H92307   8.149   6.354   2.892 -1.0269  2.3910  4.6853
  684MOL0     H92308   8.279   6.535   2.693 -2.4269 -0.6843  1.4385
  684MOL0     H92309   8.403   6.472   2.801 -0.0566  0.3586 -1.1207
  684MOL0     H92310   8.192   6.314   2.640  0.3249 -4.7516 -0.9625
  684MOL0     H92311   8.323   6.227   2.715 -1.5703 -1.1746 -0.3455
  684MOL0     H92312   8.402   6.433   2.503 -0.0656  0.3589 -0.9979
  684MOL0     H92313   8.511   6.310   2.574  0.0947 -0.5697  1.5265
  684MOL0     H92314   8.253   6.242   2.458 -0.3964 -1.8329  2.3059
  684MOL0     H92315   8.387   6.122   2.481 -4.6139 -1.4489  0.0033
  684MOL0     H92316   8.373   6.186   2.229  2.4472  0.7850 -1.6914
  684MOL0     H92317   8.378   6.349   2.282  1.8980  1.0615 -1.6205
  684MOL0     H92318   8.594   6.122   2.288  0.9983  0.3890 -0.2222
  684MOL0     H92319   8.626   6.280   2.366  0.4719  0.7488 -0.7155
  684MOL0     H92320   8.598   6.375   2.144 -0.0324 -0.7116 -0.2155
  684MOL0     H92321   8.554   6.228   2.063 -1.1673  2.3703 -1.1260
  684MOL0     H92322   7.915   6.687   2.751  2.6861  0.9412  1.2590
  684MOL0     H92323   7.684   6.703   2.859  0.2398 -0.5228 -0.8804
  684MOL0     H92324   7.468   6.624   3.380 -2.8175  4.7842  3.2807
  684MOL0     H92325   7.231   6.588   3.462  3.2319  1.4973  0.6027
  684MOL0     H92326   5.636   6.319   3.776  2.1221  2.0857  0.8633
  684MOL0     H92327   5.461   6.284   3.593  1.0656 -0.8195  0.9276
  684MOL0     H92328   5.063   6.044   3.496 -3.1529  1.3942  1.7842
  684MOL0     H92329   4.944   6.000   3.277 -2.2890  1.3025 -2.5866
  684MOL0     H92330   4.854   6.362   3.021  1.3722 -1.2754  0.5312
  684MOL0     H92331   4.964   6.234   2.986  1.3766  4.1159  1.5860
  684MOL0     H92332   4.782   6.262   2.800 -0.8448 -3.2510 -1.0139
  684MOL0     H92333   4.661   6.247   2.914  1.0537  1.4615  1.6970
  684MOL0     H92334   4.773   5.998   2.953  0.8932  4.0027  4.2038
  684MOL0     H92335   4.868   6.041   2.818 -0.6537  0.7662  0.6911
  684MOL0     H92336   4.681   5.918   2.734 -0.2224 -0.4243  1.9476
  684MOL0     H92337   4.672   6.096   2.682 -0.0945 -0.1713 -0.2924
  684MOL0     H92338   4.314   6.008   2.856 -0.5540  5.5953 -2.1934
  684MOL0     H92339   4.884   6.420   3.232  1.3541  0.3013 -2.4536
  684MOL0     H92340   5.034   6.460   3.426  2.5697 -0.6405 -0.0364
  685MOL0     O92341   9.317   3.920   9.921 -0.0420  0.4199  0.2152
  685MOL0     C92342   9.387   3.827   9.868 -0.5954 -0.4361 -0.7691
  685MOL0     O92343   9.403   3.702   9.909 -0.4591  0.6825 -0.1034
  685MOL0     C92344   9.359   3.665  10.033  0.2276 -0.5392 -0.5819
  685MOL0     C92345   9.252   3.569  10.035 -1.0262  0.1481  0.1494
  685MOL0     C92346   9.197   3.520  10.157 -1.0135 -0.5520  0.4675
  685MOL0     C92347   9.240   3.582  10.274  0.7574  0.1580 -0.1784
  685MOL0     O92348   9.172   3.532  10.385  0.2638 -0.2103  0.4913
  685MOL0     C92349   9.215   3.579  10.514 -0.0077 -0.8834  0.0341
  685MOL0     C92350   9.131   3.703  10.567 -0.5093  0.2940  0.1011
  685MOL0     C92351   9.147   3.734  10.718 -0.4437  0.3125 -0.1210
  685MOL0     C92352   9.065   3.847  10.777  0.1369  0.2044  0.1386
  685MOL0     C92353   9.080   3.992  10.730  0.9148 -0.5144 -0.2591
  685MOL0     C92354   9.224   4.026  10.711 -0.1182 -0.6040  0.2796
  685MOL0     C92355   9.250   4.159  10.634  0.7917 -0.2922 -0.1762
  685MOL0     C92356   9.391   4.176  10.581  0.0544  0.2247  0.4538
  685MOL0     N92357   9.455   4.303  10.616 -1.1722  1.1329  0.9976
  685MOL0     C92358   9.479   4.345  10.745  0.3142  0.1701  0.0807
  685MOL0     C92359   9.539   4.467  10.739  0.4164  1.5886  0.1870
  685MOL0     C92360   9.611   4.538  10.843  0.1328  0.2120 -0.0467
  685MOL0     C92361   9.545   4.663  10.888  0.2501 -0.1747  0.3575
  685MOL0     C92362   9.561   4.691  11.028 -1.1500 -1.0623 -0.4254
  685MOL0     C92363   9.706   4.745  11.053 -0.5473  0.0606 -0.0514
  685MOL0     O92364   9.757   4.821  10.952 -0.3381 -0.0705  0.3977
  685MOL0     C92365   9.886   4.858  10.927  0.0625  1.3902  0.5261
  685MOL0     C92366   9.996   4.782  10.954  0.2324 -0.3618  0.0673
  685MOL0     C92367  10.117   4.807  10.897  0.5367 -1.2739 -0.5948
  685MOL0     C92368  10.224   4.711  10.931 -0.3596  0.3385  0.2380
  685MOL0     C92369  10.139   4.936  10.829  0.6840  0.5454  0.4327
  685MOL0     C92370  10.271   4.963  10.765  1.0858  0.0773  0.7047
  685MOL0     O92371  10.365   4.858  10.734 -0.3718 -0.0178 -0.5842
  685MOL0     C92372  10.491   4.899  10.712 -0.1018  0.8038  0.1209
  685MOL0     C92373  10.541   4.913  10.580 -0.9827 -0.4018  0.3105
  685MOL0     C92374  10.676   4.939  10.559  0.0626  0.2117  0.4073
  685MOL0     C92375  10.764   4.950  10.669 -0.1854  0.1190  0.2615
  685MOL0     O92376  10.887   5.003  10.632  0.2875  0.6221  0.1715
  685MOL0     C92377  10.978   5.045  10.727  0.5886 -0.8270 -0.1278
  685MOL0     C92378  11.055   5.176  10.694 -0.1171 -0.4543  0.4506
  685MOL0     C92379  10.963   5.296  10.683 -0.5993 -1.0126  0.4577
  685MOL0     C92380  11.035   5.438  10.692  0.4752 -1.0166  0.9950
  685MOL0     C92381  10.973   5.537  10.777  0.2102 -0.1367  0.5402
  685MOL0     C92382  10.847   5.615  10.718 -0.3845 -0.2308  0.1074
  685MOL0     C92383  10.806   5.721  10.821 -0.1878 -1.0267 -0.7053
  685MOL0     C92384  10.673   5.798  10.796 -0.1195  0.4693  0.1619
  685MOL0    Cl92385  10.688   5.870  10.627 -0.8827 -0.0063  0.0248
  685MOL0     C92386  10.722   4.906  10.797  0.6492  0.0808  0.0175
  685MOL0     C92387  10.586   4.874  10.812 -0.0132  0.0506  1.1648
  685MOL0     O92388  10.279   5.080  10.718 -0.1160 -0.1059  0.1017
  685MOL0     C92389  10.033   5.020  10.813  1.6811 -0.3273 -0.2438
  685MOL0     C92390   9.907   4.978  10.859  0.2706  0.9994  0.0313
  685MOL0     N92391   9.547   4.500  10.605 -1.5157 -0.7137 -0.1005
  685MOL0     N92392   9.502   4.404  10.531  0.5624 -0.3102  0.2076
  685MOL0     C92393   9.338   3.681  10.270  0.0504  0.2893 -0.1620
  685MOL0     C92394   9.399   3.722  10.154  0.0499  0.4450  0.5526
  685MOL0     C92395   9.445   3.858   9.729 -1.5605 -0.1260  0.9789
  685MOL0     C92396   9.423   3.983   9.667  1.0641  0.3130 -0.2325
  685MOL0     C92397   9.461   4.007   9.530  0.1297 -0.3085  0.4950
  685MOL0     C92398   9.528   3.909   9.458  0.0697  0.2454 -0.9859
  685MOL0     O92399   9.553   3.930   9.319  0.7011 -0.8986  0.6276
  685MOL0     C92400   9.674   3.869   9.259 -0.4029  0.1226 -0.4019
  685MOL0     C92401   9.807   3.901   9.327 -0.2076 -0.7267  0.7808
  685MOL0     C92402   9.865   4.042   9.313  0.2868 -0.3598 -0.8140
  685MOL0     C92403   9.885   4.099   9.172  0.2489 -0.7318  0.2951
  685MOL0     C92404   9.987   4.023   9.104  0.6515 -0.3945 -0.3279
  685MOL0     C92405  10.063   3.941   9.058  0.0330  0.4045 -1.2891
  685MOL0     C92406   9.569   3.789   9.531 -0.2689  0.6647 -1.0206
  685MOL0     C92407   9.523   3.757   9.660  1.6241  0.1614  0.6158
  685MOL0     H92408   9.214   3.527   9.943 -1.6803  0.0700  0.4503
  685MOL0     H92409   9.125   3.439  10.152 -0.4629 -1.0102 -0.2322
  685MOL0     H92410   9.198   3.490  10.576  2.0008 -2.0687 -1.0063
  685MOL0     H92411   9.323   3.597  10.510 -0.2016  0.8587 -5.4207
  685MOL0     H92412   9.156   3.795  10.514  1.0719 -1.3954 -2.2917
  685MOL0     H92413   9.026   3.677  10.551  0.0500 -2.3851  0.3690
  685MOL0     H92414   9.133   3.639  10.771  1.3429 -0.7716 -1.4416
  685MOL0     H92415   9.252   3.752  10.744 -0.5596  2.2768 -0.8392
  685MOL0     H92416   8.960   3.834  10.750  0.5071  1.6135 -2.3517
  685MOL0     H92417   9.078   3.844  10.885 -0.4261  1.1947  0.2441
  685MOL0     H92418   9.035   4.013  10.633 -3.3382 -0.9620  1.4128
  685MOL0     H92419   9.040   4.060  10.806 -1.1063 -1.4121 -0.4612
  685MOL0     H92420   9.281   4.028  10.805 -1.8769 -0.1959  1.3956
  685MOL0     H92421   9.271   3.948  10.650  0.1911 -1.9118  2.0762
  685MOL0     H92422   9.179   4.179  10.554  2.4134  1.9179 -1.1820
  685MOL0     H92423   9.220   4.239  10.702 -3.1803 -1.6909 -0.0406
  685MOL0     H92424   9.381   4.176  10.472 -5.0788 -3.1064  0.5413
  685MOL0     H92425   9.443   4.083  10.607 -1.5858 -1.1566 -0.8989
  685MOL0     H92426   9.487   4.288  10.838  2.0114 -1.4588 -0.9974
  685MOL0     H92427   9.621   4.464  10.924 -3.0520 -0.7256 -0.3867
  685MOL0     H92428   9.708   4.572  10.806 -0.6531  0.9437 -1.5048
  685MOL0     H92429   9.437   4.652  10.876  0.2845  1.2879 -1.7726
  685MOL0     H92430   9.567   4.735  10.809 -1.2799 -3.0076 -2.9282
  685MOL0     H92431   9.545   4.599  11.086  0.9404 -1.3087 -0.1888
  685MOL0     H92432   9.489   4.763  11.069  1.6666  1.0693  1.1690
  685MOL0     H92433   9.765   4.656  11.078 -0.0372  0.7187  1.1337
  685MOL0     H92434   9.695   4.801  11.146  3.3591  1.1735 -0.0756
  685MOL0     H92435   9.975   4.681  10.988  1.8545 -0.8797 -0.3661
  685MOL0     H92436  10.231   4.634  10.853 -2.7683  2.1317 -1.8924
  685MOL0     H92437  10.321   4.759  10.951 -0.1382  0.1451 -0.3446
  685MOL0     H92438  10.192   4.656  11.020 -0.3474 -2.4756 -1.3756
  685MOL0     H92439  10.473   4.899  10.497 -0.3630 -1.3082 -0.0516
  685MOL0     H92440  10.722   4.959  10.463 -0.3231 -1.6944 -0.2174
  685MOL0     H92441  10.933   5.060  10.825 -2.4188  1.1330 -1.6694
  685MOL0     H92442  11.052   4.964  10.734 -0.5721 -2.1731 -2.2128
  685MOL0     H92443  11.123   5.196  10.777  0.4962  0.5033 -0.2607
  685MOL0     H92444  11.115   5.167  10.603 -3.0217 -1.0353 -1.5782
  685MOL0     H92445  10.908   5.300  10.777  0.3757 -0.0758  0.9991
  685MOL0     H92446  10.887   5.299  10.605 -1.6298  4.6441  1.2532
  685MOL0     H92447  11.141   5.431  10.716  0.0158 -1.6552  3.0154
  685MOL0     H92448  11.043   5.482  10.592  1.6279 -4.1962 -0.4476
  685MOL0     H92449  11.057   5.602  10.801  0.5691 -1.2949  2.6711
  685MOL0     H92450  10.950   5.485  10.870 -2.3785  0.9928  0.6273
  685MOL0     H92451  10.879   5.667  10.627  1.1157 -1.4929 -0.1343
  685MOL0     H92452  10.770   5.541  10.696 -1.4970  1.3471 -1.6576
  685MOL0     H92453  10.890   5.791  10.819 -0.2827 -0.9082 -0.5106
  685MOL0     H92454  10.807   5.674  10.920  1.2874  4.2746  2.1851
  685MOL0     H92455  10.668   5.879  10.869  2.4426  0.2859  0.6302
  685MOL0     H92456  10.590   5.727  10.798 -0.0112  0.3026 -0.7299
  685MOL0     H92457  10.772   4.917  10.893 -1.4275  4.7137  0.8631
  685MOL0     H92458  10.550   4.841  10.909  0.1096 -3.2130  0.2043
  685MOL0     H92459  10.038   5.118  10.767 -1.2322  2.4208  4.4571
  685MOL0     H92460   9.818   5.037  10.839 -1.2877 -1.6956 -1.8252
  685MOL0     H92461   9.370   3.740  10.356 -4.0230 -0.5766  2.1992
  685MOL0     H92462   9.469   3.804  10.158  1.0608 -0.2942 -0.7862
  685MOL0     H92463   9.367   4.066   9.707 -0.0494  1.3742 -3.6412
  685MOL0     H92464   9.431   4.099   9.482 -2.6236 -2.1095 -1.5927
  685MOL0     H92465   9.652   3.762   9.250 -0.3898  0.1596 -0.8742
  685MOL0     H92466   9.687   3.914   9.161  1.3121  3.7081  1.2903
  685MOL0     H92467   9.884   3.835   9.285 -0.3334 -0.6569  0.4368
  685MOL0     H92468   9.783   3.881   9.432 -4.0777 -1.2016 -0.0377
  685MOL0     H92469   9.945   4.055   9.385  0.1853 -0.4241 -0.6876
  685MOL0     H92470   9.789   4.107   9.357  2.0181  0.7989  0.5797
  685MOL0     H92471   9.928   4.200   9.177 -1.6833  0.2759 -1.4955
  685MOL0     H92472   9.796   4.107   9.109  1.4306  1.5511 -1.2280
  685MOL0     H92473  10.140   3.890   9.003 -2.0025 -0.3616 -3.6182
  685MOL0     H92474   9.627   3.711   9.483  4.1910 -0.1320  4.6221
  685MOL0     H92475   9.541   3.661   9.708  1.6249  0.0486  0.3907
  686MOL0     O92476   2.371   4.933   8.800 -0.2893 -0.0053  0.1738
  686MOL0     C92477   2.454   4.845   8.779  0.6569 -0.1983 -0.0846
  686MOL0     O92478   2.494   4.750   8.870 -0.2212  0.4691  0.1822
  686MOL0     C92479   2.454   4.727   9.006 -0.2889 -0.1926  0.7054
  686MOL0     C92480   2.417   4.838   9.092 -0.5778  0.2379  0.2792
  686MOL0     C92481   2.413   4.815   9.233  0.5491 -0.5378 -0.8910
  686MOL0     C92482   2.440   4.679   9.283 -0.5688 -1.1605 -0.7703
  686MOL0     O92483   2.449   4.649   9.414  0.8381 -1.1018  0.7793
  686MOL0     C92484   2.362   4.716   9.508 -1.3941  0.4822  0.6095
  686MOL0     C92485   2.382   4.663   9.646 -0.8283  0.5190 -0.1637
  686MOL0     C92486   2.524   4.636   9.707 -0.1318  0.3763  0.6187
  686MOL0     C92487   2.606   4.770   9.735 -0.5350  1.0442  0.9457
  686MOL0     C92488   2.758   4.739   9.752  0.5474 -0.0792 -0.1882
  686MOL0     C92489   2.772   4.645   9.867  0.4016  0.2821  0.7584
  686MOL0     C92490   2.725   4.705   9.998 -0.1706  0.9293  0.4776
  686MOL0     C92491   2.808   4.653  10.113  0.2936 -0.0626  0.3629
  686MOL0     N92492   2.773   4.521  10.156 -1.0068 -0.1518  0.4599
  686MOL0     C92493   2.652   4.469  10.165 -0.1548 -1.2423  0.5635
  686MOL0     C92494   2.664   4.351  10.238 -0.6337 -0.9644 -0.5853
  686MOL0     C92495   2.555   4.254  10.261 -0.1763  0.2139  0.4173
  686MOL0     C92496   2.495   4.267  10.399  0.3687  0.1887  0.5733
  686MOL0     C92497   2.484   4.412  10.453  0.2814 -0.2443 -0.2371
  686MOL0     C92498   2.389   4.414  10.571 -0.2128 -0.0800  0.0799
  686MOL0     O92499   2.369   4.547  10.624 -0.4005  0.9875  0.8219
  686MOL0     C92500   2.269   4.554  10.715 -0.0958  0.1003 -0.6384
  686MOL0     C92501   2.239   4.467  10.823 -0.1947  0.8186 -0.0063
  686MOL0     C92502   2.144   4.499  10.928  0.4784  0.2167  0.2974
  686MOL0     C92503   2.114   4.393  11.036 -0.3538 -0.2902 -0.0737
  686MOL0     C92504   2.087   4.627  10.922 -0.1691 -0.6219 -0.5777
  686MOL0     C92505   1.981   4.670  11.023  0.5910 -0.9180 -0.9380
  686MOL0     O92506   1.984   4.805  11.041 -0.3259 -0.4648  0.1304
  686MOL0     C92507   1.866   4.868  11.057  1.1104  0.1023  0.7316
  686MOL0     C92508   1.814   4.871  11.187  1.1103 -1.2787  0.6262
  686MOL0     C92509   1.696   4.937  11.214 -0.3155 -0.5088  0.0585
  686MOL0     C92510   1.628   5.007  11.112 -0.4010 -0.4858 -0.4583
  686MOL0     O92511   1.513   5.075  11.147  1.0202  1.3700  0.3940
  686MOL0     C92512   1.394   5.059  11.068  0.3454 -0.1813  0.7710
  686MOL0     C92513   1.280   4.974  11.132 -0.6128  0.1247 -0.2176
  686MOL0     C92514   1.200   5.059  11.228  0.5280 -0.8817 -0.1873
  686MOL0     C92515   1.184   4.997  11.374  0.4005 -0.2158  1.1904
  686MOL0     C92516   1.129   5.096  11.475 -0.0822  1.4311 -0.1419
  686MOL0     C92517   0.967   5.089  11.480 -0.6622  0.6922  0.3864
  686MOL0     C92518   0.915   5.179  11.602 -0.0855  0.7940 -0.1047
  686MOL0     C92519   0.784   5.224  11.568  0.8597 -0.1001 -0.2930
  686MOL0    Cl92520   0.790   5.363  11.453 -0.1567 -0.4763 -0.1316
  686MOL0     C92521   1.687   5.007  10.985 -0.2907 -1.1507  0.6718
  686MOL0     C92522   1.798   4.932  10.954  0.6622  0.2468  1.0031
  686MOL0     O92523   1.892   4.591  11.056  0.3848 -0.0433 -0.0750
  686MOL0     C92524   2.115   4.713  10.817 -1.0284  0.4802  0.3772
  686MOL0     C92525   2.204   4.683  10.716  0.8911  0.5336  0.4416
  686MOL0     N92526   2.793   4.342  10.284 -0.0552 -0.6894  0.4722
  686MOL0     N92527   2.861   4.444  10.232 -0.1075  0.2887  0.0128
  686MOL0     C92528   2.470   4.578   9.193  0.5908  0.3704  0.2961
  686MOL0     C92529   2.466   4.603   9.061 -0.5637 -0.1413  1.3513
  686MOL0     C92530   2.503   4.820   8.644  0.4300 -0.4075 -0.6646
  686MOL0     C92531   2.621   4.747   8.621  0.6760  0.8131 -0.3468
  686MOL0     C92532   2.685   4.751   8.496  0.8590 -0.0667 -0.8763
  686MOL0     C92533   2.643   4.826   8.390  0.8171 -0.2907  1.2400
  686MOL0     O92534   2.724   4.822   8.278  0.3760 -0.3075 -0.9661
  686MOL0     C92535   2.675   4.865   8.148  0.4572 -0.9264 -0.1792
  686MOL0     C92536   2.744   4.804   8.033  0.4481 -0.3560  1.0393
  686MOL0     C92537   2.895   4.819   8.036  0.4783 -0.8489 -0.3577
  686MOL0     C92538   2.956   4.781   7.899  0.0108 -0.4154  0.6756
  686MOL0     C92539   3.097   4.767   7.913  0.1398  0.7224 -0.6133
  686MOL0     C92540   3.210   4.743   7.927 -1.1513  0.7310 -0.3966
  686MOL0     C92541   2.520   4.899   8.407 -0.2105  0.1008 -0.7040
  686MOL0     C92542   2.453   4.893   8.532 -0.0025  0.7695  0.4514
  686MOL0     H92543   2.399   4.938   9.053 -2.3328  0.2812  1.1098
  686MOL0     H92544   2.375   4.892   9.299  0.7316 -1.1789 -0.0251
  686MOL0     H92545   2.395   4.820   9.507  0.1022  0.1118 -2.6828
  686MOL0     H92546   2.258   4.717   9.474 -1.2396  2.9360  0.0732
  686MOL0     H92547   2.315   4.719   9.713 -3.0071 -3.4860  1.3885
  686MOL0     H92548   2.344   4.561   9.648  0.3222  0.0831  1.9987
  686MOL0     H92549   2.494   4.589   9.801  1.5834  4.3299  3.4176
  686MOL0     H92550   2.588   4.562   9.659  0.5681 -0.3593  2.5788
  686MOL0     H92551   2.593   4.849   9.660  0.3593 -0.7731 -1.2062
  686MOL0     H92552   2.568   4.804   9.832  0.1214 -1.9519  2.3690
  686MOL0     H92553   2.793   4.708   9.653  1.1479 -3.0806  0.8652
  686MOL0     H92554   2.806   4.835   9.775  0.3654  0.7989 -3.0323
  686MOL0     H92555   2.731   4.545   9.849 -0.1313 -0.0142  3.2819
  686MOL0     H92556   2.877   4.616   9.878  0.0760 -2.7186 -2.4068
  686MOL0     H92557   2.741   4.812   9.989 -1.7139  1.3724  2.2530
  686MOL0     H92558   2.621   4.692  10.030 -0.5738  3.2394  0.2365
  686MOL0     H92559   2.791   4.724  10.194 -1.3864  0.9090 -0.7696
  686MOL0     H92560   2.915   4.645  10.092  0.5325  4.7724 -1.5954
  686MOL0     H92561   2.555   4.504  10.129  0.0595  0.3528  1.4414
  686MOL0     H92562   2.462   4.277  10.208  1.7332  1.4760 -2.6913
  686MOL0     H92563   2.582   4.152  10.232 -2.2095  0.1755 -1.6168
  686MOL0     H92564   2.572   4.213  10.455  0.6522  1.9645  1.9798
  686MOL0     H92565   2.394   4.227  10.388  0.3945  0.3452 -0.3762
  686MOL0     H92566   2.451   4.483  10.376  0.8854 -0.5254 -0.7679
  686MOL0     H92567   2.587   4.439  10.481  0.4686 -0.5954 -0.5751
  686MOL0     H92568   2.416   4.340  10.647 -2.7894 -0.7065  0.4990
  686MOL0     H92569   2.291   4.378  10.538  0.2231 -4.3201  2.6444
  686MOL0     H92570   2.281   4.367  10.831 -2.5565 -0.2319  0.0051
  686MOL0     H92571   2.098   4.438  11.134 -0.9471  3.9323 -1.8834
  686MOL0     H92572   2.026   4.334  11.005 -0.1397 -1.9385  2.2131
  686MOL0     H92573   2.202   4.328  11.030  0.3836  0.8161 -4.2139
  686MOL0     H92574   1.873   4.834  11.271  0.5416 -2.5870  0.4787
  686MOL0     H92575   1.658   4.933  11.315  0.2499  0.8734  0.3580
  686MOL0     H92576   1.349   5.155  11.040  0.6578 -0.7985 -2.1813
  686MOL0     H92577   1.418   5.007  10.975 -0.5189 -3.6389  2.3375
  686MOL0     H92578   1.206   4.943  11.057  0.9521  2.7046 -3.0651
  686MOL0     H92579   1.324   4.893  11.190  0.1065  0.1625 -0.7043
  686MOL0     H92580   1.104   5.096  11.190  1.5823 -0.3351 -2.4379
  686MOL0     H92581   1.248   5.157  11.229 -0.5195 -0.3545  0.0921
  686MOL0     H92582   1.116   4.911  11.370 -2.0318  1.5814  1.7798
  686MOL0     H92583   1.284   4.964  11.406  1.4273 -0.7305 -2.1461
  686MOL0     H92584   1.167   5.198  11.460  0.2678  1.2622 -0.4078
  686MOL0     H92585   1.170   5.063  11.571  3.8634  1.5859 -1.5982
  686MOL0     H92586   0.924   5.117  11.384 -0.3675  1.3306  0.4384
  686MOL0     H92587   0.931   4.986  11.491  1.8508 -0.0541  2.5919
  686MOL0     H92588   0.985   5.263  11.603  2.5844 -1.2913 -0.3079
  686MOL0     H92589   0.911   5.123  11.695  0.6664 -0.6802 -0.9200
  686MOL0     H92590   0.736   5.272  11.654  0.8937  1.3735 -1.0614
  686MOL0     H92591   0.722   5.146  11.524 -0.3656  1.7520 -2.0246
  686MOL0     H92592   1.648   5.060  10.899  0.4483 -1.1047  0.3590
  686MOL0     H92593   1.845   4.918  10.858 -3.0409 -1.8715 -0.7270
  686MOL0     H92594   2.080   4.815  10.821  0.3244  1.0545 -1.4696
  686MOL0     H92595   2.231   4.756  10.641  2.7825 -1.4927 -0.9790
  686MOL0     H92596   2.479   4.473   9.222 -2.2123 -1.8250 -5.2297
  686MOL0     H92597   2.485   4.515   9.000 -2.9588  0.0520  0.1793
  686MOL0     H92598   2.664   4.680   8.695 -1.1842 -1.7603 -1.4743
  686MOL0     H92599   2.773   4.688   8.488  1.4646  0.4512  1.1572
  686MOL0     H92600   2.572   4.827   8.142  0.6408 -1.5185  0.3680
  686MOL0     H92601   2.679   4.974   8.143 -4.6439 -0.4810 -0.5275
  686MOL0     H92602   2.709   4.851   7.941  5.5482 -2.7965 -2.6445
  686MOL0     H92603   2.727   4.696   8.029  0.9014 -0.3968 -2.2719
  686MOL0     H92604   2.941   4.765   8.119 -0.0991 -1.1310 -0.2173
  686MOL0     H92605   2.923   4.924   8.052 -2.1893 -0.2322  0.8080
  686MOL0     H92606   2.932   4.856   7.823  0.5566  0.4225  1.3133
  686MOL0     H92607   2.920   4.683   7.864 -0.7765  0.3454 -0.7543
  686MOL0     H92608   3.316   4.729   7.941 -1.1701  2.0234  1.3084
  686MOL0     H92609   2.490   4.964   8.326 -0.5759 -0.7006 -1.2258
  686MOL0     H92610   2.367   4.959   8.542 -0.5062  1.1728 -4.2746
  687MOL0     O92611   0.284   9.530  10.385 -0.2804  0.2421 -0.1069
  687MOL0     C92612   0.247   9.508  10.271 -0.0815 -0.0764 -0.2465
  687MOL0     O92613   0.217   9.386  10.222  0.2633 -0.2575 -0.8528
  687MOL0     C92614   0.202   9.279  10.305  0.1862  0.8787  0.4626
  687MOL0     C92615   0.307   9.215  10.368  0.0546 -0.5708  0.5281
  687MOL0     C92616   0.279   9.112  10.459 -0.2323 -0.5649 -1.0954
  687MOL0     C92617   0.152   9.075  10.489  0.2061  0.4020  0.8864
  687MOL0     O92618   0.132   8.972  10.577  0.4290 -0.1502  0.1427
  687MOL0     C92619   0.154   8.834  10.526  0.6898  0.3973  0.9324
  687MOL0     C92620   0.055   8.803  10.409  0.1730 -0.9294 -0.3806
  687MOL0     C92621   0.071   8.669  10.356  0.4266  0.5348  0.3815
  687MOL0     C92622   0.166   8.658  10.225 -0.1000  0.5532  0.3097
  687MOL0     C92623   0.195   8.525  10.158 -0.7265 -0.1075  0.1594
  687MOL0     C92624   0.354   8.519  10.129  0.9572  0.8337 -0.1827
  687MOL0     C92625   0.409   8.379  10.110  0.5624 -0.4928  0.6464
  687MOL0     C92626   0.354   8.284  10.004 -0.3379 -0.5116  0.5027
  687MOL0     N92627   0.406   8.328   9.877 -0.8612 -0.0514 -0.2917
  687MOL0     C92628   0.341   8.418   9.803  0.6312 -1.1508  0.3943
  687MOL0     C92629   0.426   8.446   9.701 -0.8513 -0.3578  0.3713
  687MOL0     C92630   0.410   8.560   9.602  0.3779  0.0157  1.0211
  687MOL0     C92631   0.435   8.513   9.459 -0.7272 -0.3472 -0.2456
  687MOL0     C92632   0.431   8.624   9.358 -0.1691  0.1027  0.1910
  687MOL0     C92633   0.490   8.568   9.225 -0.1991  0.7973 -0.7403
  687MOL0     O92634   0.498   8.680   9.141 -0.6102 -0.7841  0.1545
  687MOL0     C92635   0.412   8.710   9.034  0.0432  0.9681  0.7199
  687MOL0     C92636   0.277   8.669   9.035  0.3292 -0.0154 -0.5866
  687MOL0     C92637   0.183   8.706   8.935 -0.0584 -0.4126  0.0527
  687MOL0     C92638   0.043   8.646   8.945 -0.4335  0.7271 -0.3705
  687MOL0     C92639   0.219   8.801   8.851  0.6851  0.4450  0.8580
  687MOL0     C92640   0.124   8.879   8.767 -1.0115 -1.6333  0.2419
  687MOL0     O92641   0.178   9.003   8.747  0.2165 -0.6330  0.8277
  687MOL0     C92642   0.129   9.116   8.678  0.1872  0.6071  0.1463
  687MOL0     C92643  -0.009   9.120   8.644 -0.2078  0.0226 -0.3004
  687MOL0     C92644  -0.057   9.227   8.563  0.2037 -0.1799 -1.4532
  687MOL0     C92645   0.023   9.327   8.514 -0.6310 -0.3395 -0.0948
  687MOL0     O92646  -0.031   9.427   8.439  0.9203  0.7379  0.2012
  687MOL0     C92647   0.047   9.495   8.344 -0.0915 -0.4854  0.2697
  687MOL0     C92648   0.042   9.650   8.377  0.2837 -0.7668  0.5902
  687MOL0     C92649  -0.057   9.711   8.279 -0.5904 -0.0023  0.0960
  687MOL0     C92650  -0.044   9.863   8.289 -0.2444 -0.4268  0.5618
  687MOL0     C92651  -0.077   9.935   8.427  0.4477 -0.1976  0.0581
  687MOL0     C92652  -0.223   9.907   8.457  0.7314  0.4432 -0.2597
  687MOL0     C92653  -0.250   9.891   8.612  0.3873 -0.4536  0.6406
  687MOL0     C92654  -0.392   9.935   8.635  0.3445 -0.8426  0.1382
  687MOL0    Cl92655  -0.438   9.908   8.809 -0.2797 -0.0741  0.0163
  687MOL0     C92656   0.153   9.339   8.561  1.2528  0.8557  0.4469
  687MOL0     C92657   0.209   9.227   8.627  0.0833  0.2980 -0.2903
  687MOL0     O92658   0.016   8.843   8.735  0.1607  0.1523  0.1773
  687MOL0     C92659   0.363   8.841   8.845  0.4277  0.7123 -0.3138
  687MOL0     C92660   0.456   8.798   8.930  0.8697  0.0983 -0.6690
  687MOL0     N92661   0.529   8.358   9.701  0.1086 -0.2450  0.1125
  687MOL0     N92662   0.524   8.296   9.811  0.3538 -0.0698 -1.0013
  687MOL0     C92663   0.049   9.140  10.429 -0.5027 -0.1034  0.4475
  687MOL0     C92664   0.074   9.242  10.340 -0.5999 -0.8598  0.4011
  687MOL0     C92665   0.225   9.629  10.186  0.0625 -0.7799 -0.4763
  687MOL0     C92666   0.193   9.748  10.238  1.1651 -0.4910  0.0582
  687MOL0     C92667   0.132   9.854  10.158 -0.0248 -0.8583 -0.3807
  687MOL0     C92668   0.102   9.842  10.023 -0.2179  1.1941 -1.0499
  687MOL0     O92669   0.043   9.939   9.953  0.3016 -0.1553 -0.1852
  687MOL0     C92670   0.039   9.921   9.803  0.1541  0.0381 -0.0286
  687MOL0     C92671  -0.033  10.032   9.724 -0.2107  1.3998 -0.9405
  687MOL0     C92672  -0.185  10.025   9.738 -0.0576  0.4982  0.4481
  687MOL0     C92673  -0.241   9.996   9.870  0.4238  0.2942  0.0471
  687MOL0     C92674  -0.393   9.989   9.862 -0.4682 -0.2448 -0.4447
  687MOL0     C92675  -0.517   9.988   9.870  0.2788  0.3507 -0.1552
  687MOL0     C92676   0.124   9.707   9.977 -0.4012 -0.3615 -0.4382
  687MOL0     C92677   0.186   9.612  10.060  0.1826 -0.4687  1.0396
  687MOL0     H92678   0.405   9.250  10.338  0.4412 -2.3940 -0.4423
  687MOL0     H92679   0.353   9.059  10.518 -0.8980 -2.2854 -1.7410
  687MOL0     H92680   0.259   8.822  10.498  0.0408 -0.1486 -1.5408
  687MOL0     H92681   0.142   8.753  10.598  1.3410  0.8566  1.5677
  687MOL0     H92682  -0.041   8.822  10.459 -0.9218  0.8889 -2.9315
  687MOL0     H92683   0.066   8.879  10.332  2.8396 -1.8269 -0.9794
  687MOL0     H92684   0.126   8.607  10.428  1.9964 -0.8720 -1.8820
  687MOL0     H92685  -0.021   8.610  10.345 -0.8037  2.5539 -0.6897
  687MOL0     H92686   0.126   8.718  10.143 -0.2291  0.0990  0.0412
  687MOL0     H92687   0.257   8.711  10.255  0.5876  0.4373 -1.4734
  687MOL0     H92688   0.164   8.455  10.236 -1.0579  0.9220  0.9796
  687MOL0     H92689   0.135   8.519  10.067  0.0817  5.4261 -1.0689
  687MOL0     H92690   0.384   8.585  10.047  4.8758  0.7645  1.0121
  687MOL0     H92691   0.392   8.557  10.225 -0.9804 -3.1439  2.3969
  687MOL0     H92692   0.518   8.375  10.104  0.6729  2.3528 -0.5268
  687MOL0     H92693   0.375   8.329  10.201 -0.7718  0.4714  0.7114
  687MOL0     H92694   0.245   8.284  10.009 -0.3166  1.1585  1.7112
  687MOL0     H92695   0.393   8.187  10.038 -1.4611 -0.3798  2.2628
  687MOL0     H92696   0.247   8.470   9.816  2.7321  2.8734  0.9993
  687MOL0     H92697   0.309   8.600   9.612  0.5590  0.0556  3.1082
  687MOL0     H92698   0.485   8.636   9.626 -0.1475  1.0717 -0.5071
  687MOL0     H92699   0.347   8.454   9.431  0.3721 -1.3767 -1.6582
  687MOL0     H92700   0.530   8.460   9.445 -0.5677  0.0460 -0.6893
  687MOL0     H92701   0.494   8.709   9.385  1.1702 -0.5974 -0.5977
  687MOL0     H92702   0.327   8.651   9.340  0.7043  1.8274 -3.1558
  687MOL0     H92703   0.433   8.492   9.171  3.8466 -1.7679 -1.8441
  687MOL0     H92704   0.591   8.528   9.231  0.1512  1.5598 -1.3631
  687MOL0     H92705   0.242   8.607   9.117 -3.0213 -1.3607 -2.8107
  687MOL0     H92706   0.006   8.603   8.852 -1.5541 -2.8277  1.5545
  687MOL0     H92707   0.039   8.557   9.009 -1.2602 -1.3263 -3.1237
  687MOL0     H92708  -0.028   8.721   8.980 -1.4733 -0.5261  0.2779
  687MOL0     H92709  -0.087   9.053   8.678 -1.1227  0.5995 -1.1882
  687MOL0     H92710  -0.164   9.235   8.549  0.4347  3.0503 -2.1607
  687MOL0     H92711   0.150   9.459   8.332 -0.3261 -0.7250 -1.2643
  687MOL0     H92712  -0.007   9.485   8.249 -1.4280 -2.3763  1.1666
  687MOL0     H92713   0.009   9.665   8.480  2.2056  2.9931  0.8056
  687MOL0     H92714   0.133   9.711   8.385 -2.1476  2.8960  3.1655
  687MOL0     H92715  -0.160   9.676   8.282 -0.0549 -1.7210 -0.1536
  687MOL0     H92716  -0.025   9.690   8.176 -0.4316 -1.4720  0.4310
  687MOL0     H92717   0.055   9.895   8.253  0.5145 -2.3022  0.8533
  687MOL0     H92718  -0.111   9.907   8.214 -3.1320 -1.5197  2.3658
  687MOL0     H92719  -0.049  10.041   8.424 -0.7267  0.1697  1.2503
  687MOL0     H92720  -0.014   9.899   8.508 -3.0656 -0.2900  2.9999
  687MOL0     H92721  -0.295   9.970   8.405  0.2137 -1.2387 -1.7223
  687MOL0     H92722  -0.254   9.813   8.409  1.2678  0.0285  0.1845
  687MOL0     H92723  -0.183   9.953   8.672 -0.3027  1.6905 -0.7262
  687MOL0     H92724  -0.237   9.786   8.643 -2.2016 -1.0935 -0.2101
  687MOL0     H92725  -0.458   9.875   8.571  1.0234 -2.9885  1.3362
  687MOL0     H92726  -0.387  10.042   8.612  3.3649 -1.5214 -3.2189
  687MOL0     H92727   0.208   9.428   8.532 -0.2846  1.8738  0.5166
  687MOL0     H92728   0.313   9.230   8.657  0.1337  1.6779 -0.5137
  687MOL0     H92729   0.384   8.914   8.768  0.2523  0.8420 -0.2414
  687MOL0     H92730   0.555   8.842   8.923  0.6340  0.6934 -0.3458
  687MOL0     H92731  -0.049   9.132  10.474  0.4143 -0.8849  2.4464
  687MOL0     H92732  -0.011   9.302  10.307 -0.6229  0.2207  2.2896
  687MOL0     H92733   0.199   9.761  10.346 -4.7527  2.3676  0.4390
  687MOL0     H92734   0.121   9.940  10.223  1.8924 -1.3935  0.7287
  687MOL0     H92735   0.147   9.921   9.785  0.2439  2.6900  0.1383
  687MOL0     H92736  -0.001   9.826   9.766  2.3287  0.4299 -3.9993
  687MOL0     H92737  -0.014   9.994   9.623 -1.9729 -1.9562 -0.1627
  687MOL0     H92738   0.008  10.131   9.747 -0.0436  0.4134  4.1080
  687MOL0     H92739  -0.226   9.943   9.678 -0.7222 -0.5023  2.2221
  687MOL0     H92740  -0.227  10.119   9.700 -0.5284  0.3837  0.6885
  687MOL0     H92741  -0.207  10.075   9.937  1.9119  1.7358 -2.2896
  687MOL0     H92742  -0.212   9.897   9.909 -1.8468 -0.9423 -1.1834
  687MOL0     H92743  -0.623   9.984   9.879  0.3435 -0.3334  0.4802
  687MOL0     H92744   0.103   9.668   9.878 -1.4975 -3.3377  0.8418
  687MOL0     H92745   0.207   9.516  10.015  0.3523 -0.2450  0.6276
  688MOL0     O92746   1.056   7.836   9.788  1.3582  0.3727 -0.4206
  688MOL0     C92747   0.999   7.726   9.779  0.5902 -1.3710 -1.5869
  688MOL0     O92748   0.890   7.701   9.703 -0.5836  0.0173 -0.4051
  688MOL0     C92749   0.797   7.792   9.651 -0.5723  0.3416  0.5564
  688MOL0     C92750   0.685   7.724   9.587 -0.1194  0.2382  0.4881
  688MOL0     C92751   0.591   7.790   9.522  0.1707 -0.5005  0.4279
  688MOL0     C92752   0.582   7.928   9.543 -0.4339 -1.0577  0.0963
  688MOL0     O92753   0.462   7.987   9.501 -0.5491 -0.2550  0.3159
  688MOL0     C92754   0.445   8.130   9.478 -0.8968 -0.7432 -0.2457
  688MOL0     C92755   0.347   8.141   9.364  0.9467 -0.3508  0.8379
  688MOL0     C92756   0.371   8.074   9.230  0.1913 -0.5310  0.7440
  688MOL0     C92757   0.499   8.118   9.153  0.4173  0.4193  0.1655
  688MOL0     C92758   0.501   8.069   9.014  0.5575  0.6866  0.5553
  688MOL0     C92759   0.414   8.145   8.914  0.3560  1.0313  0.0283
  688MOL0     C92760   0.467   8.293   8.887 -1.1394 -1.1715  1.2800
  688MOL0     C92761   0.368   8.386   8.818  0.5935  0.2383 -0.5153
  688MOL0     N92762   0.303   8.357   8.691 -0.2846 -0.9233  0.3570
  688MOL0     C92763   0.233   8.239   8.670  0.2119 -0.9007 -0.1239
  688MOL0     C92764   0.192   8.245   8.542  1.0008  0.6018 -0.6335
  688MOL0     C92765   0.119   8.135   8.476 -0.3477 -0.2589 -0.3962
  688MOL0     C92766  -0.023   8.182   8.458  0.0799 -0.3871 -1.1556
  688MOL0     C92767  -0.121   8.080   8.399  0.1528  0.4058 -0.5665
  688MOL0     C92768  -0.173   8.128   8.263 -0.1475 -0.6864  0.5901
  688MOL0     O92769  -0.269   8.033   8.212  0.0537 -0.5479  1.2434
  688MOL0     C92770  -0.224   7.913   8.167  0.9364 -0.1180  0.3307
  688MOL0     C92771  -0.316   7.807   8.150  0.0113 -0.8407 -0.1302
  688MOL0     C92772  -0.276   7.683   8.086  0.5728  0.2332 -0.5998
  688MOL0     C92773  -0.383   7.570   8.072  0.2296 -0.5809  0.2148
  688MOL0     C92774  -0.140   7.663   8.039  0.5795  0.1073 -0.7312
  688MOL0     C92775  -0.080   7.536   7.987  0.8730  0.0835 -0.1530
  688MOL0     O92776  -0.149   7.416   8.002 -0.0211 -0.2618  0.1497
  688MOL0     C92777  -0.088   7.308   7.942 -0.2098  0.4159  0.7589
  688MOL0     C92778  -0.113   7.289   7.798 -0.3511  0.4290  0.3065
  688MOL0     C92779  -0.046   7.192   7.728  0.1531  0.9708  0.6629
  688MOL0     C92780   0.033   7.094   7.794 -0.4904 -0.0683 -0.3365
  688MOL0     O92781   0.107   7.002   7.728  0.9536  0.2054 -0.1821
  688MOL0     C92782   0.197   6.904   7.793  0.4913  0.2381  0.3891
  688MOL0     C92783   0.293   6.840   7.686 -0.0795 -0.2575  0.6220
  688MOL0     C92784   0.406   6.759   7.747 -0.0310  1.1231  0.0470
  688MOL0     C92785   0.361   6.658   7.854  0.1998  0.2713 -0.8774
  688MOL0     C92786   0.479   6.582   7.920 -0.1210 -0.2454 -0.1292
  688MOL0     C92787   0.579   6.533   7.817 -0.7911 -1.1882 -0.0627
  688MOL0     C92788   0.695   6.441   7.874 -1.0577  0.1586 -0.1990
  688MOL0     C92789   0.810   6.526   7.933  0.2924 -0.5534  0.4666
  688MOL0    Cl92790   0.873   6.653   7.825 -0.2017 -0.1174 -0.2891
  688MOL0     C92791   0.032   7.100   7.932  0.2813 -1.0165 -1.2604
  688MOL0     C92792  -0.026   7.206   8.004  0.1425  0.0041 -1.5166
  688MOL0     O92793   0.029   7.553   7.928  0.2635  0.4247  0.2971
  688MOL0     C92794  -0.057   7.779   8.046  0.9205  0.1044 -0.3524
  688MOL0     C92795  -0.101   7.900   8.104 -0.2780 -0.4662  0.3031
  688MOL0     N92796   0.244   8.354   8.484 -0.1079 -0.0195  0.2253
  688MOL0     N92797   0.305   8.422   8.567 -0.2010 -0.6577  0.1210
  688MOL0     C92798   0.681   8.001   9.598 -0.8574  0.2433 -0.2407
  688MOL0     C92799   0.795   7.930   9.655  0.1469 -0.3202  0.1647
  688MOL0     C92800   1.066   7.611   9.845  0.5974 -0.7824  0.9362
  688MOL0     C92801   1.200   7.632   9.885 -0.1314 -0.7589 -0.3546
  688MOL0     C92802   1.272   7.525   9.933  0.2912 -0.5177 -0.1471
  688MOL0     C92803   1.214   7.410   9.957  0.0435  0.2146  0.4046
  688MOL0     O92804   1.287   7.293   9.996  0.8842  0.3330 -0.2909
  688MOL0     C92805   1.431   7.291  10.006 -0.3369  0.2571  0.6076
  688MOL0     C92806   1.484   7.155  10.054 -0.3041 -0.1954  0.5333
  688MOL0     C92807   1.450   7.118  10.202  0.4298 -0.9283  0.3857
  688MOL0     C92808   1.533   6.996  10.250  0.1967  0.3887  0.3886
  688MOL0     C92809   1.458   6.902  10.334  0.2548  1.2740  0.0939
  688MOL0     C92810   1.416   6.821  10.415  1.2030  0.5452  1.3856
  688MOL0     C92811   1.077   7.386   9.925  0.1940  0.2011 -0.0494
  688MOL0     C92812   1.005   7.488   9.862  0.5344 -0.6317  0.2805
  688MOL0     H92813   0.684   7.615   9.584 -2.8847  0.2089 -0.5630
  688MOL0     H92814   0.514   7.727   9.477 -0.3552  0.8516 -0.6495
  688MOL0     H92815   0.399   8.177   9.566 -0.3030 -0.7658  0.0816
  688MOL0     H92816   0.537   8.185   9.459 -1.5728  0.0913 -1.1489
  688MOL0     H92817   0.253   8.108   9.409 -0.0880 -0.2688 -1.1231
  688MOL0     H92818   0.322   8.246   9.344  1.8128  0.2184  2.5982
  688MOL0     H92819   0.368   7.966   9.243 -0.2157 -1.0808 -2.9713
  688MOL0     H92820   0.278   8.098   9.178 -1.1465 -0.6118  2.9638
  688MOL0     H92821   0.513   8.226   9.160  2.2508  0.3307 -1.2637
  688MOL0     H92822   0.574   8.059   9.208  0.3607  1.4305  1.3922
  688MOL0     H92823   0.598   8.048   8.967 -0.4172 -1.8885 -0.4605
  688MOL0     H92824   0.459   7.968   9.018 -0.8902  1.1318 -1.7049
  688MOL0     H92825   0.409   8.085   8.823 -1.7141 -2.6166  2.2907
  688MOL0     H92826   0.309   8.154   8.945  1.0101  0.3776  2.7018
  688MOL0     H92827   0.480   8.356   8.975  0.9167  0.8687 -0.3579
  688MOL0     H92828   0.548   8.292   8.813 -1.4295  2.7072  0.7163
  688MOL0     H92829   0.418   8.482   8.802  1.2542 -0.3062 -1.9628
  688MOL0     H92830   0.289   8.410   8.889 -3.2167 -3.6234 -2.9399
  688MOL0     H92831   0.196   8.159   8.735 -4.8145  1.8441  0.9157
  688MOL0     H92832   0.158   8.106   8.379  2.7954  0.8779  0.4050
  688MOL0     H92833   0.109   8.049   8.543  3.1766 -1.0795 -0.7503
  688MOL0     H92834  -0.022   8.270   8.393 -1.2342 -0.8928 -1.8971
  688MOL0     H92835  -0.059   8.212   8.557  3.5585 -0.4615  0.2791
  688MOL0     H92836  -0.208   8.077   8.465 -0.8306  3.1536 -1.6011
  688MOL0     H92837  -0.068   7.985   8.385 -0.2954  0.0419  0.1569
  688MOL0     H92838  -0.092   8.144   8.191  0.4013  1.2715  1.5566
  688MOL0     H92839  -0.219   8.225   8.285 -0.0288 -0.6569  0.7107
  688MOL0     H92840  -0.418   7.826   8.181 -0.2033 -3.6923  1.2337
  688MOL0     H92841  -0.351   7.475   8.117 -0.6328 -1.5785 -1.2059
  688MOL0     H92842  -0.477   7.595   8.121  1.0580  0.7349  1.2025
  688MOL0     H92843  -0.406   7.556   7.966  1.3730  2.7514 -0.5992
  688MOL0     H92844  -0.180   7.361   7.752 -1.6006 -0.4790  0.6427
  688MOL0     H92845  -0.062   7.165   7.624  0.0961 -1.4993  1.2495
  688MOL0     H92846   0.257   6.951   7.871  1.9176 -2.1061  0.8186
  688MOL0     H92847   0.149   6.821   7.847  1.8588  2.1563  5.0747
  688MOL0     H92848   0.231   6.778   7.620  0.2350 -0.5741  0.6170
  688MOL0     H92849   0.336   6.921   7.627  0.8149  0.7813  2.6116
  688MOL0     H92850   0.455   6.841   7.800 -1.1062  0.7402  1.7221
  688MOL0     H92851   0.469   6.713   7.670  0.2788  0.1137  0.8628
  688MOL0     H92852   0.316   6.704   7.942  2.7250 -2.9771  2.4459
  688MOL0     H92853   0.291   6.589   7.806  3.1993 -2.0917 -2.2018
  688MOL0     H92854   0.451   6.491   7.974 -2.6953  0.1602 -0.6686
  688MOL0     H92855   0.532   6.654   7.984  0.8652 -0.3906 -0.7637
  688MOL0     H92856   0.521   6.475   7.745 -1.5219  0.6871 -1.0736
  688MOL0     H92857   0.629   6.618   7.769 -1.2075 -0.4808  0.7190
  688MOL0     H92858   0.733   6.388   7.787 -1.1051 -3.0404  1.5673
  688MOL0     H92859   0.668   6.368   7.952  1.5253  0.1149  0.7484
  688MOL0     H92860   0.885   6.464   7.983 -0.1547 -2.0501 -0.6331
  688MOL0     H92861   0.777   6.588   8.018  4.4018  2.2384  0.3121
  688MOL0     H92862   0.074   7.015   7.985  0.6053 -1.0985 -1.6397
  688MOL0     H92863  -0.024   7.213   8.112 -0.7614 -0.3729 -1.4625
  688MOL0     H92864   0.044   7.772   8.009  0.3481  1.4130 -2.3552
  688MOL0     H92865  -0.035   7.986   8.104 -0.6905 -0.1454  0.9818
  688MOL0     H92866   0.658   8.106   9.614 -5.4778 -0.7514  1.4110
  688MOL0     H92867   0.875   7.989   9.699  0.8557  0.2267 -1.7164
  688MOL0     H92868   1.258   7.718   9.854  1.6685 -2.1035 -0.9228
  688MOL0     H92869   1.379   7.542   9.941  0.0091  0.7162  1.5786
  688MOL0     H92870   1.466   7.304   9.903 -0.9578 -1.5498  0.1263
  688MOL0     H92871   1.466   7.374  10.068 -2.7968  1.4415  0.5741
  688MOL0     H92872   1.593   7.158  10.044 -0.2991 -0.5858  0.4734
  688MOL0     H92873   1.453   7.074   9.988  0.5710  0.8133 -1.1836
  688MOL0     H92874   1.342   7.102  10.196  0.5938 -1.6129 -1.6301
  688MOL0     H92875   1.481   7.202  10.265  2.6369 -1.1615 -0.2862
  688MOL0     H92876   1.617   7.032  10.310 -2.0339  1.0978  3.3361
  688MOL0     H92877   1.580   6.946  10.165  1.0333  5.4920 -2.6045
  688MOL0     H92878   1.377   6.746  10.480 -1.6145  1.3452  0.7721
  688MOL0     H92879   1.036   7.287   9.942 -0.2761  0.4407  0.2103
  688MOL0     H92880   0.905   7.471   9.823  0.6432 -0.3037 -0.1522
  689MOL0     O92881   4.539   0.054   8.573  0.5070  0.7816  0.7126
  689MOL0     C92882   4.436   0.018   8.515  0.6250  0.4189 -0.0085
  689MOL0     O92883   4.337   0.100   8.470 -0.5381  0.2038 -0.0115
  689MOL0     C92884   4.361   0.235   8.459 -0.6704  0.2038  0.2681
  689MOL0     C92885   4.381   0.290   8.326  0.1054  0.7037 -1.2791
  689MOL0     C92886   4.405   0.426   8.308  0.5483  0.1455  0.2656
  689MOL0     C92887   4.408   0.512   8.421  1.0188 -0.3990  0.5199
  689MOL0     O92888   4.424   0.651   8.415 -0.8891 -0.3336  0.2743
  689MOL0     C92889   4.351   0.730   8.322 -0.2688 -0.8064 -0.5077
  689MOL0     C92890   4.381   0.876   8.353  0.9500 -0.4226  0.3464
  689MOL0     C92891   4.518   0.910   8.309 -0.7327  0.3571 -0.7429
  689MOL0     C92892   4.630   0.900   8.421 -0.7457  0.1272  1.0523
  689MOL0     C92893   4.744   0.978   8.352 -0.3490 -0.4540 -0.5362
  689MOL0     C92894   4.804   1.069   8.465 -0.0197  0.0648 -0.3117
  689MOL0     C92895   4.882   1.182   8.393  0.2902  0.0934  0.8346
  689MOL0     C92896   4.960   1.277   8.492  0.4915  0.1503  0.8090
  689MOL0     N92897   5.076   1.209   8.548  0.2928 -0.2765  0.4180
  689MOL0     C92898   5.205   1.217   8.511 -0.1884  0.9023 -0.0225
  689MOL0     C92899   5.277   1.144   8.606  0.6598 -0.4623  0.8237
  689MOL0     C92900   5.420   1.156   8.642 -0.9750  0.4565  0.9315
  689MOL0     C92901   5.523   1.156   8.522 -1.0014 -0.3962 -0.0718
  689MOL0     C92902   5.671   1.133   8.578  0.2697 -0.2355 -0.1512
  689MOL0     C92903   5.777   1.213   8.501 -0.2536 -0.7204  0.0329
  689MOL0     O92904   5.783   1.155   8.359 -0.4214  0.6465  0.5760
  689MOL0     C92905   5.848   1.221   8.258 -0.3260 -0.3860  0.5565
  689MOL0     C92906   5.960   1.300   8.283 -0.6045  0.4205  0.4777
  689MOL0     C92907   6.014   1.383   8.178 -0.1179  0.8830  0.0406
  689MOL0     C92908   6.124   1.470   8.225 -0.5480  0.0918 -0.1375
  689MOL0     C92909   5.975   1.358   8.043 -0.8915  0.1778  0.0543
  689MOL0     C92910   6.039   1.417   7.921  0.1929  0.1246  0.4304
  689MOL0     O92911   5.954   1.450   7.823 -0.7424  1.1187 -0.0156
  689MOL0     C92912   5.992   1.532   7.713 -0.3704  1.0337 -0.5018
  689MOL0     C92913   5.946   1.499   7.581 -0.3546  0.5033  0.0551
  689MOL0     C92914   5.984   1.583   7.476 -0.4416 -0.7205 -0.4728
  689MOL0     C92915   6.073   1.692   7.494 -1.5008 -0.2713  0.0243
  689MOL0     O92916   6.130   1.762   7.398 -0.2135  0.6798 -0.6410
  689MOL0     C92917   6.265   1.717   7.362  0.6444  0.6306 -0.2209
  689MOL0     C92918   6.314   1.798   7.247  0.1736 -0.1906 -0.3901
  689MOL0     C92919   6.293   1.956   7.254 -0.0096  0.1995  0.1420
  689MOL0     C92920   6.344   2.041   7.135 -0.2824  0.7191 -0.1015
  689MOL0     C92921   6.373   2.185   7.181  0.3931  0.7940 -0.2869
  689MOL0     C92922   6.377   2.275   7.052 -0.4892  0.9875  0.6572
  689MOL0     C92923   6.372   2.426   7.069  0.0460  0.0394 -1.0669
  689MOL0     C92924   6.260   2.511   7.013 -0.0978 -0.0367 -0.1276
  689MOL0    Cl92925   6.320   2.563   6.853  0.2095 -0.1319  0.3959
  689MOL0     C92926   6.113   1.733   7.625  0.0479  0.2575 -0.8519
  689MOL0     C92927   6.061   1.657   7.734  0.5742  0.0872  0.5826
  689MOL0     O92928   6.151   1.462   7.929 -0.1402 -0.1018 -0.1223
  689MOL0     C92929   5.870   1.279   8.020  2.1802  0.1065  0.3922
  689MOL0     C92930   5.805   1.204   8.126 -0.0790  1.0295  0.3518
  689MOL0     N92931   5.190   1.086   8.692  1.0450 -0.1564 -0.1009
  689MOL0     N92932   5.066   1.140   8.665 -0.1940 -0.0751 -0.1725
  689MOL0     C92933   4.413   0.449   8.543  0.4596  0.4686 -0.0533
  689MOL0     C92934   4.386   0.319   8.568  0.1096  0.4012 -0.2265
  689MOL0     C92935   4.411  -0.128   8.535 -0.0701  0.6813 -0.1433
  689MOL0     C92936   4.465  -0.213   8.636 -0.6983  0.3877 -0.5051
  689MOL0     C92937   4.430  -0.347   8.630  0.7416 -0.1148 -0.8427
  689MOL0     C92938   4.349  -0.415   8.533 -0.1874 -0.3129 -0.5686
  689MOL0     O92939   4.320  -0.552   8.532 -0.4543 -0.2181  0.6715
  689MOL0     C92940   4.352  -0.640   8.640 -0.5117  0.2547  0.5822
  689MOL0     C92941   4.261  -0.759   8.623  0.4462  0.2261  0.4900
  689MOL0     C92942   4.245  -0.826   8.770  0.5848 -0.2458  0.5742
  689MOL0     C92943   4.147  -0.945   8.759  0.6714  0.3473  0.1237
  689MOL0     C92944   4.098  -0.996   8.886  0.2065 -0.7705  0.1183
  689MOL0     C92945   4.086  -1.050   8.992 -0.4310 -0.1236 -0.8246
  689MOL0     C92946   4.307  -0.330   8.427  0.3273 -0.7141  0.0736
  689MOL0     C92947   4.331  -0.196   8.442 -0.0853  0.4125  0.3259
  689MOL0     H92948   4.366   0.220   8.245 -2.6379  0.8142 -0.9500
  689MOL0     H92949   4.407   0.472   8.209  0.6362 -2.7057 -1.1583
  689MOL0     H92950   4.381   0.701   8.221 -4.4236  0.4521 -2.3126
  689MOL0     H92951   4.244   0.720   8.343 -1.2138  3.8781 -1.9370
  689MOL0     H92952   4.306   0.943   8.310  0.6699 -0.0983  1.3244
  689MOL0     H92953   4.375   0.889   8.461 -0.1033 -2.3719  0.5633
  689MOL0     H92954   4.546   0.845   8.226  0.2245 -0.1759 -0.0174
  689MOL0     H92955   4.497   1.005   8.260 -3.2943  1.3997  2.0630
  689MOL0     H92956   4.595   0.955   8.509  1.7561  4.3666 -0.2987
  689MOL0     H92957   4.664   0.798   8.441 -1.7244  0.1241  2.9710
  689MOL0     H92958   4.811   0.910   8.300 -1.6349 -0.6276 -2.0270
  689MOL0     H92959   4.712   1.043   8.270  2.1699  1.7215  0.0477
  689MOL0     H92960   4.744   1.122   8.539  2.3182  3.8816 -0.8307
  689MOL0     H92961   4.869   1.004   8.524 -1.9870 -4.0336 -2.3065
  689MOL0     H92962   4.956   1.142   8.322 -0.6058  2.2221 -1.4492
  689MOL0     H92963   4.820   1.252   8.336  0.6898 -0.8391 -0.8070
  689MOL0     H92964   4.887   1.292   8.571  0.9826 -1.2121  1.5678
  689MOL0     H92965   4.984   1.372   8.444  1.5579 -0.3870  0.2237
  689MOL0     H92966   5.249   1.280   8.434  4.4084 -1.3917  0.3336
  689MOL0     H92967   5.419   1.255   8.688 -3.2423 -0.4427  3.0243
  689MOL0     H92968   5.458   1.082   8.712 -0.7050  1.1990  1.5804
  689MOL0     H92969   5.529   1.236   8.447 -1.0572 -1.5294 -1.3201
  689MOL0     H92970   5.493   1.064   8.472 -2.3886 -0.1741  0.2939
  689MOL0     H92971   5.705   1.029   8.566 -0.7012 -0.4095 -1.6787
  689MOL0     H92972   5.680   1.185   8.673 -1.4825  6.0985 -2.8961
  689MOL0     H92973   5.874   1.208   8.551  0.0946  0.6628 -0.4648
  689MOL0     H92974   5.764   1.319   8.479 -3.2223 -0.9522  0.3420
  689MOL0     H92975   6.021   1.297   8.373  2.1328 -1.1977 -1.2946
  689MOL0     H92976   6.140   1.464   8.333  0.7891  2.1135 -0.1581
  689MOL0     H92977   6.214   1.478   8.163 -1.3059  1.0585 -1.1565
  689MOL0     H92978   6.080   1.568   8.204 -3.8664 -1.6070 -2.0461
  689MOL0     H92979   5.887   1.412   7.552  1.0828 -1.1438  1.8012
  689MOL0     H92980   5.963   1.556   7.373 -1.3707 -0.3874 -0.3816
  689MOL0     H92981   6.333   1.717   7.448  0.2942  0.1419  0.0646
  689MOL0     H92982   6.268   1.612   7.331 -2.7896  0.5925 -0.8036
  689MOL0     H92983   6.420   1.771   7.241 -0.4304 -2.9904  0.2964
  689MOL0     H92984   6.265   1.768   7.154  1.6383  3.2676 -2.4582
  689MOL0     H92985   6.339   1.981   7.350 -0.7438  1.4691  0.1866
  689MOL0     H92986   6.186   1.977   7.260 -0.0855 -0.5421  1.7474
  689MOL0     H92987   6.445   2.000   7.125 -1.1534 -1.7222  0.1833
  689MOL0     H92988   6.282   2.023   7.047 -0.4706  0.4084  0.0880
  689MOL0     H92989   6.462   2.199   7.242  2.1295 -0.5332 -2.3443
  689MOL0     H92990   6.285   2.214   7.238 -3.7081 -4.1139 -3.2646
  689MOL0     H92991   6.468   2.253   6.996  0.4953  1.4080  2.0532
  689MOL0     H92992   6.294   2.252   6.984  0.0622  2.8178 -0.7137
  689MOL0     H92993   6.464   2.478   7.041  0.1103  1.0458  0.8424
  689MOL0     H92994   6.375   2.442   7.177 -0.3375 -2.0614 -0.7068
  689MOL0     H92995   6.249   2.598   7.078  0.3529  0.8139 -1.1564
  689MOL0     H92996   6.163   2.464   6.997 -0.9914  1.1427  1.4848
  689MOL0     H92997   6.180   1.817   7.642 -0.8412  0.7146  0.6128
  689MOL0     H92998   6.098   1.680   7.834  0.2293 -0.5262  0.8557
  689MOL0     H92999   5.818   1.262   7.927  0.6860 -0.5207  1.2928
  689MOL0     H93000   5.715   1.143   8.122 -0.0145  0.8526  1.4327
  689MOL0     H93001   4.410   0.514   8.630 -2.0417  0.3789 -0.0040
  689MOL0     H93002   4.386   0.281   8.670  1.5546 -1.3350 -0.8191
  689MOL0     H93003   4.540  -0.173   8.703 -0.6386 -1.5327  0.6480
  689MOL0     H93004   4.466  -0.415   8.707 -2.6114 -1.7605 -0.5344
  689MOL0     H93005   4.457  -0.668   8.627  0.6880  3.9416  1.2751
  689MOL0     H93006   4.335  -0.580   8.730  0.5381  2.6157 -0.7024
  689MOL0     H93007   4.301  -0.842   8.563  0.1142 -1.3348  2.3377
  689MOL0     H93008   4.167  -0.724   8.581 -0.5487 -2.2503  0.5057
  689MOL0     H93009   4.202  -0.762   8.848 -1.0790 -0.6466  0.0265
  689MOL0     H93010   4.336  -0.869   8.810  0.4314 -0.0550  1.1352
  689MOL0     H93011   4.205  -1.026   8.714  0.9025 -0.0272  1.0871
  689MOL0     H93012   4.062  -0.924   8.693  3.7642 -3.3720 -5.9123
  689MOL0     H93013   4.085  -1.106   9.084 -1.6274  0.2587 -0.5836
  689MOL0     H93014   4.258  -0.376   8.341  2.1068 -0.7101 -1.0065
  689MOL0     H93015   4.288  -0.142   8.357  2.6639  1.3402 -0.5905
  690MOL0     O93016  10.669   1.429   2.076  0.0153 -0.1229 -0.5138
  690MOL0     C93017  10.740   1.325   2.067  0.1093 -0.0779  0.2104
  690MOL0     O93018  10.706   1.192   2.080  0.2540 -0.1596  0.1691
  690MOL0     C93019  10.581   1.157   2.127  0.7499  0.3085 -0.0481
  690MOL0     C93020  10.461   1.230   2.144 -0.5109 -0.4164 -0.3970
  690MOL0     C93021  10.345   1.170   2.187  0.7003 -0.8646  1.4831
  690MOL0     C93022  10.338   1.027   2.197 -0.8142  0.1809 -0.3474
  690MOL0     O93023  10.231   0.951   2.246  1.0668  0.1841  1.0788
  690MOL0     C93024  10.108   0.990   2.177 -0.5236 -0.9174  0.3614
  690MOL0     C93025   9.986   0.920   2.250 -0.3680  0.4240  1.0011
  690MOL0     C93026   9.973   0.986   2.393 -0.0750 -0.9341  0.2294
  690MOL0     C93027   9.848   0.922   2.465 -0.3691  0.1563 -0.5761
  690MOL0     C93028   9.712   0.983   2.435  1.0014 -0.0325  0.2907
  690MOL0     C93029   9.620   0.933   2.542  0.1964  0.1318  0.5874
  690MOL0     C93030   9.475   0.978   2.538  0.1161 -0.4689 -0.3254
  690MOL0     C93031   9.403   0.900   2.436 -0.7985 -0.0335  0.5038
  690MOL0     N93032   9.275   0.959   2.408 -0.7316  0.3997  0.1404
  690MOL0     C93033   9.226   0.973   2.285 -0.3072 -0.1841  0.8250
  690MOL0     C93034   9.109   1.035   2.293 -1.2585 -0.8299 -0.7578
  690MOL0     C93035   9.002   1.046   2.187 -1.0284  0.5973  0.2197
  690MOL0     C93036   8.947   1.182   2.158 -0.4273  0.5884 -0.5719
  690MOL0     C93037   9.063   1.257   2.104 -0.4630  0.2830  0.8475
  690MOL0     C93038   9.001   1.386   2.050 -0.2090  0.7135 -0.0367
  690MOL0     O93039   8.965   1.380   1.909 -0.0315  0.2859  0.2016
  690MOL0     C93040   8.922   1.483   1.833  0.1018 -1.0850  0.2117
  690MOL0     C93041   8.929   1.621   1.879  0.7831  0.6520 -0.1206
  690MOL0     C93042   8.884   1.724   1.802  0.7122 -1.5408  0.7351
  690MOL0     C93043   8.887   1.854   1.871  0.1937 -0.5822  0.0105
  690MOL0     C93044   8.828   1.696   1.684 -0.0865 -0.5791  0.3107
  690MOL0     C93045   8.750   1.800   1.614 -0.4074 -0.2429  0.9687
  690MOL0     O93046   8.615   1.784   1.594 -0.1431  0.9684  0.4210
  690MOL0     C93047   8.563   1.856   1.488  0.9558 -0.5087 -0.2636
  690MOL0     C93048   8.518   1.988   1.507  0.7480 -0.7218 -0.1329
  690MOL0     C93049   8.444   2.056   1.405  0.2050 -0.1178 -1.4461
  690MOL0     C93050   8.416   1.993   1.283 -0.1154 -0.0153  0.3077
  690MOL0     O93051   8.344   2.043   1.180  0.2029 -0.8753  0.4033
  690MOL0     C93052   8.328   2.189   1.171 -0.5825  0.9241 -0.2820
  690MOL0     C93053   8.463   2.264   1.147  0.6667 -0.7124  0.6008
  690MOL0     C93054   8.424   2.405   1.085  0.8568  0.3530 -0.0127
  690MOL0     C93055   8.542   2.480   1.023 -0.1718  0.0079 -0.6509
  690MOL0     C93056   8.493   2.614   0.966  0.1783  0.4632 -0.2094
  690MOL0     C93057   8.593   2.664   0.871  0.0647 -0.9709  0.8929
  690MOL0     C93058   8.514   2.772   0.772 -0.4248  0.8524 -0.6614
  690MOL0     C93059   8.602   2.843   0.666 -0.0541 -0.3834  0.0448
  690MOL0    Cl93060   8.747   2.924   0.746  0.0536 -0.3875  0.2393
  690MOL0     C93061   8.475   1.865   1.255 -0.5003  0.4063  0.1224
  690MOL0     C93062   8.543   1.795   1.365 -0.0674  0.8401  0.3886
  690MOL0     O93063   8.812   1.896   1.572  1.1203  0.0284  0.8236
  690MOL0     C93064   8.830   1.570   1.629 -0.8192 -0.1094 -0.1771
  690MOL0     C93065   8.873   1.457   1.706 -0.0114  0.1610  0.9008
  690MOL0     N93066   9.084   1.058   2.430  0.7436  0.0549  0.3129
  690MOL0     N93067   9.185   1.015   2.496 -0.9363  0.5100  0.1392
  690MOL0     C93068  10.452   0.954   2.158  0.2742  0.1562  0.1268
  690MOL0     C93069  10.569   1.012   2.135 -1.2281 -1.1640 -1.3122
  690MOL0     C93070  10.877   1.333   1.984  0.7108  0.4107  0.1191
  690MOL0     C93071  10.974   1.227   1.982 -0.7672  0.5302 -0.5167
  690MOL0     C93072  11.087   1.239   1.909 -0.6228 -0.7886  0.3862
  690MOL0     C93073  11.115   1.359   1.832 -0.5215  0.0818 -0.3951
  690MOL0     O93074  11.205   1.373   1.733 -0.8207  0.2412 -0.0378
  690MOL0     C93075  11.309   1.271   1.737 -0.5220 -1.1110 -0.1127
  690MOL0     C93076  11.410   1.305   1.629 -0.0038  0.0366  0.0203
  690MOL0     C93077  11.361   1.297   1.485  0.6159  1.0355  0.0882
  690MOL0     C93078  11.280   1.424   1.451 -0.7718  0.2508 -0.6940
  690MOL0     C93079  11.285   1.440   1.305 -0.8040  1.4700 -0.5394
  690MOL0     C93080  11.287   1.456   1.187 -0.8917 -0.7980  0.4859
  690MOL0     C93081  11.020   1.455   1.841 -0.3230 -0.1474  0.8466
  690MOL0     C93082  10.907   1.450   1.908 -0.0606 -0.0777 -0.1272
  690MOL0     H93083  10.464   1.335   2.115  1.3584  0.2579  1.9092
  690MOL0     H93084  10.275   1.236   2.237  2.2335 -1.1162  4.1452
  690MOL0     H93085  10.092   1.098   2.165 -0.0073 -0.6549  1.8116
  690MOL0     H93086  10.115   0.957   2.073  3.5007  0.0248  0.1526
  690MOL0     H93087   9.896   0.924   2.188  0.6475 -6.0567 -1.7998
  690MOL0     H93088  10.009   0.813   2.258 -0.1827  0.6112  3.9292
  690MOL0     H93089  10.069   0.978   2.444  0.9172  5.3361  0.0960
  690MOL0     H93090   9.946   1.092   2.389 -4.8592 -1.9746 -1.9413
  690MOL0     H93091   9.851   0.817   2.432 -4.2286 -0.6393  1.1036
  690MOL0     H93092   9.865   0.933   2.572  2.4654  0.9087 -1.0161
  690MOL0     H93093   9.716   1.090   2.454 -1.9466  0.0868  0.7305
  690MOL0     H93094   9.669   0.965   2.336 -1.5211  2.1935  0.8785
  690MOL0     H93095   9.611   0.824   2.541  2.2830 -0.0785 -0.6620
  690MOL0     H93096   9.658   0.953   2.642 -0.3830  1.2375  0.5928
  690MOL0     H93097   9.435   0.969   2.639 -0.2962  0.8821 -0.3346
  690MOL0     H93098   9.480   1.086   2.518 -0.7015  0.3936  3.4104
  690MOL0     H93099   9.375   0.804   2.482  0.1323 -0.6086 -0.0910
  690MOL0     H93100   9.454   0.890   2.340  1.0772 -3.2167  1.6394
  690MOL0     H93101   9.275   0.917   2.206 -1.4884 -2.7784  1.8015
  690MOL0     H93102   9.039   1.011   2.090  1.3901  1.7157  0.6869
  690MOL0     H93103   8.915   0.990   2.224  0.8123 -3.3176 -0.8322
  690MOL0     H93104   8.908   1.223   2.252 -0.7177  1.2154 -0.9638
  690MOL0     H93105   8.866   1.187   2.085 -1.5976 -1.6627  0.4616
  690MOL0     H93106   9.096   1.205   2.014 -1.6233  0.8486  0.0750
  690MOL0     H93107   9.147   1.266   2.173 -1.2742 -1.2149  2.1000
  690MOL0     H93108   9.084   1.457   2.051  0.1851  0.2519  0.9884
  690MOL0     H93109   8.922   1.427   2.113 -2.6715 -2.2610 -0.9375
  690MOL0     H93110   8.965   1.645   1.979 -1.1712  1.6516  0.3769
  690MOL0     H93111   8.989   1.887   1.850  0.1131  0.3528  1.0323
  690MOL0     H93112   8.826   1.929   1.819  1.8610 -0.1685 -1.4440
  690MOL0     H93113   8.865   1.849   1.978 -4.9274 -4.8176 -0.7831
  690MOL0     H93114   8.528   2.033   1.605  1.0705 -1.5813  0.2336
  690MOL0     H93115   8.405   2.158   1.413  1.7536  0.5909 -2.4864
  690MOL0     H93116   8.261   2.187   1.085  1.1208 -3.9637 -1.8230
  690MOL0     H93117   8.273   2.241   1.250  0.1851  1.8787 -0.3532
  690MOL0     H93118   8.504   2.273   1.248 -1.8486  1.0656  1.5455
  690MOL0     H93119   8.527   2.207   1.079  2.1773 -0.1775  1.5087
  690MOL0     H93120   8.366   2.476   1.145  2.2928  1.9530 -0.4428
  690MOL0     H93121   8.348   2.384   1.009 -1.0992  0.2768  1.8756
  690MOL0     H93122   8.613   2.507   1.101  2.8447 -1.0383 -2.8608
  690MOL0     H93123   8.595   2.422   0.947  0.9487  2.7464 -2.1352
  690MOL0     H93124   8.467   2.686   1.044  1.7478  2.6256 -1.5732
  690MOL0     H93125   8.401   2.591   0.911 -1.0421  0.4414  1.7551
  690MOL0     H93126   8.678   2.707   0.924  2.5267 -3.1711 -1.0036
  690MOL0     H93127   8.627   2.580   0.810 -2.1995 -0.9433 -0.5250
  690MOL0     H93128   8.457   2.840   0.836  0.9697  2.9039 -1.4983
  690MOL0     H93129   8.441   2.711   0.717 -0.5470 -2.1007  2.4373
  690MOL0     H93130   8.539   2.922   0.623  0.1981  1.3294  2.5876
  690MOL0     H93131   8.646   2.766   0.602  2.4645  0.4937  0.6269
  690MOL0     H93132   8.463   1.808   1.164 -0.5202 -0.7519  0.8426
  690MOL0     H93133   8.568   1.690   1.353 -0.0672  0.8775  0.0405
  690MOL0     H93134   8.788   1.556   1.530 -1.0831 -3.6554  0.2769
  690MOL0     H93135   8.872   1.357   1.666 -0.3080  0.8043 -0.7466
  690MOL0     H93136  10.441   0.846   2.155 -0.9762  0.1646  2.5553
  690MOL0     H93137  10.661   0.956   2.129 -0.7536 -0.8075  1.4083
  690MOL0     H93138  10.963   1.137   2.042 -1.2921  0.0682 -1.2881
  690MOL0     H93139  11.154   1.153   1.915  0.0197 -0.5396 -2.1334
  690MOL0     H93140  11.372   1.266   1.827 -2.1600  1.6368  1.3257
  690MOL0     H93141  11.276   1.169   1.716  1.1968 -1.4535 -1.3895
  690MOL0     H93142  11.491   1.231   1.631 -2.7602 -3.4755 -3.3170
  690MOL0     H93143  11.456   1.403   1.648  0.2709  0.0185 -0.5420
  690MOL0     H93144  11.291   1.214   1.488  0.6998  0.9854  1.1926
  690MOL0     H93145  11.442   1.271   1.416  3.0625  0.7912  2.8523
  690MOL0     H93146  11.313   1.516   1.501 -0.9330 -1.6396  3.3042
  690MOL0     H93147  11.175   1.409   1.479 -1.1058  1.9986 -0.9259
  690MOL0     H93148  11.283   1.479   1.082 -0.5185 -1.0231  0.4216
  690MOL0     H93149  11.050   1.541   1.783 -1.2929  1.8608  3.1462
  690MOL0     H93150  10.841   1.535   1.923  1.9290  1.4286  0.4799
  691MOL0     O93151  10.738   5.264   3.355  0.3468  0.0120  0.1761
  691MOL0     C93152  10.846   5.221   3.321  0.2905 -0.5627 -0.5558
  691MOL0     O93153  10.974   5.257   3.366  0.1928 -1.1089 -0.4898
  691MOL0     C93154  10.984   5.356   3.460  1.1192 -0.4485 -0.6469
  691MOL0     C93155  11.051   5.334   3.579 -0.0767  0.6027 -0.4188
  691MOL0     C93156  11.060   5.430   3.677  0.4060 -1.1051  0.2368
  691MOL0     C93157  10.992   5.554   3.671 -0.9601 -0.4748  0.7328
  691MOL0     O93158  10.994   5.655   3.766  0.3905  0.0592 -0.1003
  691MOL0     C93159  11.069   5.631   3.885  0.3707 -0.3460  0.3343
  691MOL0     C93160  11.032   5.738   3.977 -0.1216 -0.7665  0.1444
  691MOL0     C93161  11.088   5.724   4.123 -0.5410 -0.1740  0.6821
  691MOL0     C93162  11.193   5.838   4.169  1.0242  0.3779 -0.0114
  691MOL0     C93163  11.173   5.878   4.310  0.3801 -0.2253 -0.2312
  691MOL0     C93164  11.275   5.971   4.366  0.0223 -1.0115 -0.5922
  691MOL0     C93165  11.257   6.000   4.515 -0.4392  0.1902 -0.5157
  691MOL0     C93166  11.276   5.878   4.610 -1.1951  0.2763 -1.0250
  691MOL0     N93167  11.167   5.881   4.708  0.1477  0.5241  0.1166
  691MOL0     C93168  11.125   6.000   4.768 -0.0828 -0.0872 -0.1853
  691MOL0     C93169  11.004   5.968   4.831 -0.1443  0.3927 -0.4888
  691MOL0     C93170  10.922   6.061   4.919  0.8490  0.7918  0.1410
  691MOL0     C93171  10.811   6.124   4.832  0.9134  0.0527  0.7455
  691MOL0     C93172  10.688   6.022   4.809 -0.5138  0.3552 -0.7656
  691MOL0     C93173  10.601   6.014   4.928  0.1711 -0.7294  0.1495
  691MOL0     O93174  10.503   6.119   4.931  0.1854 -0.2646 -0.0964
  691MOL0     C93175  10.398   6.094   5.024  0.4177  0.7223  0.6637
  691MOL0     C93176  10.293   6.186   5.010  0.0011  0.2584 -0.8210
  691MOL0     C93177  10.185   6.190   5.101  1.3411  0.2821  0.4473
  691MOL0     C93178  10.087   6.302   5.097  0.6514  0.0647  0.9617
  691MOL0     C93179  10.180   6.093   5.207 -0.3782 -0.4464  0.6647
  691MOL0     C93180  10.061   6.075   5.304  0.2147  0.8891  0.7649
  691MOL0     O93181  10.039   5.951   5.366  0.1008  0.0379  0.0877
  691MOL0     C93182   9.939   5.931   5.461 -0.0951  0.8881  0.5222
  691MOL0     C93183   9.955   5.988   5.590 -0.2418  0.0417 -0.5178
  691MOL0     C93184   9.847   5.998   5.681 -0.2569  0.3899 -1.3002
  691MOL0     C93185   9.723   5.958   5.646  0.1257  0.2763  1.7059
  691MOL0     O93186   9.616   5.986   5.729  0.6472  0.5535  0.2204
  691MOL0     C93187   9.570   6.112   5.779  0.2505  0.3121 -0.6538
  691MOL0     C93188   9.455   6.177   5.697  0.2616 -0.0622  0.1901
  691MOL0     C93189   9.506   6.223   5.555 -0.1291 -0.3956 -0.6070
  691MOL0     C93190   9.425   6.328   5.484  0.8748 -0.4164  0.0710
  691MOL0     C93191   9.280   6.292   5.461  0.1828 -1.0022  0.4798
  691MOL0     C93192   9.191   6.398   5.372  0.2754 -0.2559 -0.0439
  691MOL0     C93193   9.055   6.341   5.320 -0.3015 -0.5540 -1.0876
  691MOL0     C93194   8.973   6.435   5.233 -0.1277 -0.3904 -0.2243
  691MOL0    Cl93195   8.911   6.580   5.317  0.1249 -0.1773 -0.1236
  691MOL0     C93196   9.696   5.903   5.522 -0.2920 -0.5793  0.1685
  691MOL0     C93197   9.805   5.885   5.430 -0.7640 -0.0643 -0.5055
  691MOL0     O93198   9.990   6.171   5.321 -0.3655  0.1939  0.5485
  691MOL0     C93199  10.275   5.995   5.217 -0.4708  0.8596  0.2246
  691MOL0     C93200  10.382   5.995   5.121  0.7540 -0.1861  0.5822
  691MOL0     N93201  10.979   5.834   4.808  1.2157  0.0478  0.2712
  691MOL0     N93202  11.080   5.783   4.737  0.0354  0.1557 -0.3122
  691MOL0     C93203  10.925   5.576   3.552  0.7469  0.0869  0.0261
  691MOL0     C93204  10.920   5.482   3.448  0.0615 -0.0166 -0.0632
  691MOL0     C93205  10.844   5.125   3.216 -0.6389  0.4962  0.5660
  691MOL0     C93206  10.964   5.068   3.159 -0.5493  0.4637 -0.1498
  691MOL0     C93207  10.954   5.010   3.035  0.2632  0.3246 -0.3027
  691MOL0     C93208  10.838   4.982   2.973  0.9281  0.1117  0.1246
  691MOL0     O93209  10.808   4.918   2.856 -0.1060  0.2874 -0.1320
  691MOL0     C93210  10.913   4.828   2.812  0.4616  0.2188  0.2058
  691MOL0     C93211  10.857   4.702   2.743 -0.4670 -0.3706 -0.3603
  691MOL0     C93212  10.812   4.593   2.845  0.2185  0.7883 -0.9584
  691MOL0     C93213  10.709   4.623   2.957 -0.1689 -0.1792 -0.2195
  691MOL0     C93214  10.667   4.505   3.036  0.9220  0.1202  0.3954
  691MOL0     C93215  10.633   4.416   3.115 -0.6655  0.0364  0.1532
  691MOL0     C93216  10.719   5.018   3.037 -0.0911 -0.3967  0.5559
  691MOL0     C93217  10.722   5.092   3.153 -1.0859 -0.4911 -0.0087
  691MOL0     H93218  11.099   5.238   3.591 -2.7607 -0.7054  0.5126
  691MOL0     H93219  11.111   5.402   3.769 -2.0671 -0.0542  2.0574
  691MOL0     H93220  11.027   5.541   3.931  0.2105  0.4873  1.9045
  691MOL0     H93221  11.174   5.626   3.858 -0.2811  1.0844 -3.0729
  691MOL0     H93222  11.072   5.828   3.931  0.8601 -1.9159 -1.3458
  691MOL0     H93223  10.923   5.741   3.991 -0.2573 -1.4378 -0.6846
  691MOL0     H93224  11.003   5.739   4.191  0.9941  0.6375  2.5153
  691MOL0     H93225  11.142   5.629   4.137 -1.8418 -1.0268  0.1228
  691MOL0     H93226  11.291   5.789   4.160 -0.0238 -1.5282 -2.1933
  691MOL0     H93227  11.199   5.918   4.094  1.4606 -1.2897 -1.8468
  691MOL0     H93228  11.080   5.932   4.329  0.4302 -1.0688  3.0444
  691MOL0     H93229  11.168   5.797   4.383  1.3689  0.0685  0.1761
  691MOL0     H93230  11.375   5.927   4.359  0.0820 -1.1212  0.7951
  691MOL0     H93231  11.277   6.063   4.307 -2.7598 -0.8575 -0.6022
  691MOL0     H93232  11.337   6.071   4.540  1.3336 -1.4943 -1.1071
  691MOL0     H93233  11.159   6.047   4.526 -1.5139 -1.5872 -1.9463
  691MOL0     H93234  11.365   5.888   4.672 -2.1146 -0.4223  0.4716
  691MOL0     H93235  11.291   5.779   4.565 -0.7262 -0.5449  0.8313
  691MOL0     H93236  11.169   6.100   4.767  0.2811 -0.1571 -3.1673
  691MOL0     H93237  10.886   6.000   5.002  1.2495  0.2736 -0.0585
  691MOL0     H93238  10.968   6.150   4.963 -2.1461  1.4586  2.1530
  691MOL0     H93239  10.855   6.157   4.737  0.0988 -0.3502  0.2154
  691MOL0     H93240  10.782   6.218   4.881 -0.0292  0.5554 -0.7043
  691MOL0     H93241  10.733   5.924   4.789 -2.5363 -1.0286  1.0255
  691MOL0     H93242  10.617   6.045   4.729 -2.1771  0.7763  0.7799
  691MOL0     H93243  10.664   6.013   5.018  0.0703 -5.8721  0.4801
  691MOL0     H93244  10.555   5.916   4.911  0.7727 -0.9319 -0.3168
  691MOL0     H93245  10.309   6.251   4.925  4.5751 -0.6055 -0.8801
  691MOL0     H93246   9.987   6.263   5.072  0.2697  0.0841  2.3623
  691MOL0     H93247  10.089   6.355   5.192  0.4872 -1.5906  1.9408
  691MOL0     H93248  10.111   6.382   5.026  0.4816  1.9301  2.9181
  691MOL0     H93249  10.050   6.039   5.606  1.2460 -2.6807  0.0261
  691MOL0     H93250   9.869   6.035   5.781 -3.9575  1.5031 -0.7516
  691MOL0     H93251   9.516   6.097   5.873  0.0084  2.3367 -0.4338
  691MOL0     H93252   9.640   6.192   5.804 -2.6059  1.8892  3.0851
  691MOL0     H93253   9.385   6.095   5.676  0.8422 -0.3866 -0.5288
  691MOL0     H93254   9.402   6.258   5.749 -2.9940 -2.1880  0.5246
  691MOL0     H93255   9.497   6.141   5.482 -0.3891 -0.8852 -0.0361
  691MOL0     H93256   9.606   6.262   5.574 -0.4904 -0.8057  2.7297
  691MOL0     H93257   9.441   6.425   5.530 -2.1400  0.5256 -0.6175
  691MOL0     H93258   9.472   6.341   5.385  0.2449  1.3059 -0.0326
  691MOL0     H93259   9.231   6.284   5.558 -2.6440  0.3299 -0.7054
  691MOL0     H93260   9.275   6.191   5.418  1.4735 -1.2348  0.8381
  691MOL0     H93261   9.166   6.484   5.435  0.8602 -0.9769  1.1927
  691MOL0     H93262   9.256   6.433   5.290  0.1264 -0.0445 -0.0736
  691MOL0     H93263   8.986   6.322   5.402  0.8547 -0.6374 -0.1001
  691MOL0     H93264   9.073   6.247   5.266  1.4176  0.2873 -2.0861
  691MOL0     H93265   8.881   6.378   5.220 -0.3543 -0.7037  2.2578
  691MOL0     H93266   9.029   6.463   5.144 -1.5294 -1.9295 -1.6512
  691MOL0     H93267   9.592   5.875   5.508 -0.9299 -0.1708  3.3195
  691MOL0     H93268   9.774   5.835   5.339 -0.4087 -0.7216 -0.2757
  691MOL0     H93269  10.272   5.918   5.293 -2.9209 -0.3196 -0.9729
  691MOL0     H93270  10.447   5.909   5.139 -2.7155 -2.9279  1.0638
  691MOL0     H93271  10.873   5.671   3.556  2.5713  1.2346 -1.6923
  691MOL0     H93272  10.863   5.504   3.358 -1.6051 -0.8501  0.7554
  691MOL0     H93273  11.059   5.097   3.203 -1.5101  0.7993  1.8111
  691MOL0     H93274  11.043   4.981   2.980 -1.4242  0.2618 -3.2313
  691MOL0     H93275  10.965   4.890   2.739  1.6884 -0.9537  0.0427
  691MOL0     H93276  10.988   4.792   2.882  1.9546 -2.4911 -2.5475
  691MOL0     H93277  10.937   4.656   2.684  1.1938  0.7359  0.9078
  691MOL0     H93278  10.781   4.729   2.669  0.3569  1.4422 -0.6190
  691MOL0     H93279  10.901   4.582   2.909 -2.2256  1.2049  2.8692
  691MOL0     H93280  10.786   4.502   2.790  0.0287  1.0058 -1.2296
  691MOL0     H93281  10.622   4.669   2.908  1.4854  3.5778  0.0151
  691MOL0     H93282  10.757   4.705   3.010  0.4054  0.3798 -1.5642
  691MOL0     H93283  10.600   4.347   3.190 -2.7536  2.3863  1.5179
  691MOL0     H93284  10.629   4.994   2.982 -0.7881 -1.4233  2.0722
  691MOL0     H93285  10.629   5.122   3.201 -1.3546 -2.8319  1.0519
  692MOL0     O93286   1.807   5.897   1.510  0.2479 -0.6886 -0.1779
  692MOL0     C93287   1.715   5.918   1.588 -0.5320  0.0054  0.5917
  692MOL0     O93288   1.704   6.039   1.661  0.0469 -0.8653  1.1762
  692MOL0     C93289   1.785   6.151   1.642  1.0394 -1.4659 -0.4069
  692MOL0     C93290   1.718   6.279   1.663  0.1168  0.2031 -0.4970
  692MOL0     C93291   1.791   6.392   1.661 -0.0887  0.2191  0.1665
  692MOL0     C93292   1.930   6.383   1.639 -0.5278  0.6478  0.7037
  692MOL0     O93293   2.008   6.493   1.647 -0.4385  0.4011 -0.8482
  692MOL0     C93294   2.086   6.509   1.525  0.5094  0.3320  0.4280
  692MOL0     C93295   2.046   6.636   1.445  0.2983  1.2670 -1.4283
  692MOL0     C93296   1.894   6.649   1.430 -0.2181 -0.4830  0.0215
  692MOL0     C93297   1.847   6.787   1.415  0.1155  0.2993 -0.7612
  692MOL0     C93298   1.726   6.786   1.319 -0.2523  0.0774 -0.6008
  692MOL0     C93299   1.680   6.931   1.308 -0.2424  0.7053 -0.0656
  692MOL0     C93300   1.570   6.929   1.196 -0.7305  1.0246 -0.8709
  692MOL0     C93301   1.630   6.892   1.067 -0.3654  0.2071  0.0590
  692MOL0     N93302   1.524   6.892   0.969  0.7954 -0.6958  0.4321
  692MOL0     C93303   1.481   6.779   0.893 -0.9560 -1.1245  0.2484
  692MOL0     C93304   1.376   6.840   0.830  0.4632  1.1831  0.0947
  692MOL0     C93305   1.278   6.781   0.739 -0.6804 -0.0091 -0.4004
  692MOL0     C93306   1.177   6.862   0.671  0.3879 -0.4844  0.4565
  692MOL0     C93307   1.070   6.908   0.764 -0.2247  0.3110 -1.0733
  692MOL0     C93308   0.970   6.790   0.802 -0.1617 -0.1296  0.0715
  692MOL0     O93309   0.866   6.839   0.893  0.1452  0.4494  0.3431
  692MOL0     C93310   0.769   6.737   0.934 -1.1882 -0.2085 -0.2004
  692MOL0     C93311   0.646   6.790   0.949  0.7915  0.3577 -0.7111
  692MOL0     C93312   0.537   6.709   0.992 -0.9750  0.3433 -0.6644
  692MOL0     C93313   0.407   6.774   1.023  0.2447 -0.8169 -0.5884
  692MOL0     C93314   0.566   6.572   1.021  0.3792  0.4010 -0.9309
  692MOL0     C93315   0.466   6.469   1.072  1.1351  0.2226 -1.2622
  692MOL0     O93316   0.510   6.353   1.122 -0.3372  0.2911 -0.0567
  692MOL0     C93317   0.410   6.268   1.161  1.0163 -0.3497  0.4163
  692MOL0     C93318   0.376   6.150   1.098  0.9115 -0.1148  0.1907
  692MOL0     C93319   0.273   6.067   1.150 -0.0813  0.4725  0.5287
  692MOL0     C93320   0.203   6.094   1.261  0.7886  0.5698 -0.2599
  692MOL0     O93321   0.111   5.996   1.306  0.8109 -0.0998 -1.0679
  692MOL0     C93322   0.025   6.025   1.422  0.6033 -0.2225 -0.5930
  692MOL0     C93323   0.098   5.992   1.544 -0.1144 -0.2953  0.6988
  692MOL0     C93324   0.016   6.026   1.672  0.2573  0.1042 -0.1449
  692MOL0     C93325   0.095   6.004   1.808  0.1900  0.1243  0.1406
  692MOL0     C93326   0.025   6.056   1.925  0.8036  1.6246  1.0874
  692MOL0     C93327   0.102   6.058   2.065  0.1673  0.0477  0.0138
  692MOL0     C93328   0.112   5.913   2.119  0.8945 -0.7381 -0.5260
  692MOL0     C93329  -0.010   5.849   2.174  0.1802  0.2565  0.0381
  692MOL0    Cl93330  -0.064   5.953   2.309  0.4595  0.3163 -0.5142
  692MOL0     C93331   0.225   6.220   1.324  0.2464 -0.4199 -0.8196
  692MOL0     C93332   0.337   6.302   1.275  0.2410 -0.4161 -0.3496
  692MOL0     O93333   0.345   6.504   1.065  0.3006 -0.5185 -0.6043
  692MOL0     C93334   0.696   6.528   1.009  0.7424  0.9176  0.2233
  692MOL0     C93335   0.797   6.604   0.961  0.8250  0.1362 -0.6488
  692MOL0     N93336   1.350   6.971   0.873 -0.4732 -0.1801 -0.0235
  692MOL0     N93337   1.456   7.011   0.934 -0.5294  0.3966  0.1088
  692MOL0     C93338   1.995   6.255   1.620  0.2869 -0.1423  0.1643
  692MOL0     C93339   1.922   6.142   1.626 -0.2118 -0.8055  0.8703
  692MOL0     C93340   1.612   5.815   1.613  0.1019 -0.1502  0.0851
  692MOL0     C93341   1.515   5.846   1.709  0.1597  0.6620 -0.1608
  692MOL0     C93342   1.414   5.757   1.731 -0.1779  0.8669  0.6119
  692MOL0     C93343   1.380   5.643   1.654 -1.0741 -0.4340  0.3448
  692MOL0     O93344   1.288   5.560   1.707  0.1695  0.0011 -0.4830
  692MOL0     C93345   1.260   5.443   1.636 -0.4723 -0.0426  0.0536
  692MOL0     C93346   1.178   5.353   1.712  0.4015 -0.2042  0.7775
  692MOL0     C93347   1.039   5.408   1.750  0.7430 -0.8736  0.4447
  692MOL0     C93348   0.951   5.442   1.629 -0.1444 -0.2797 -1.0319
  692MOL0     C93349   0.816   5.462   1.678  0.1066  0.1402 -0.6959
  692MOL0     C93350   0.696   5.457   1.715 -0.5642 -0.0475 -0.1158
  692MOL0     C93351   1.474   5.619   1.554  0.2503 -0.9143  0.1443
  692MOL0     C93352   1.594   5.700   1.539  0.6123 -0.6016 -0.6771
  692MOL0     H93353   1.611   6.279   1.683  0.4701  1.3842  1.7621
  692MOL0     H93354   1.739   6.488   1.656 -0.5541  0.0470  1.2578
  692MOL0     H93355   2.193   6.525   1.537  0.2986  3.7480 -1.1695
  692MOL0     H93356   2.071   6.432   1.450  2.5806  0.5739 -0.2858
  692MOL0     H93357   2.086   6.720   1.502  1.4740 -0.3640  0.2513
  692MOL0     H93358   2.098   6.619   1.350  1.4489 -0.2895 -0.5536
  692MOL0     H93359   1.875   6.593   1.337 -1.3172 -0.1597  0.0342
  692MOL0     H93360   1.829   6.600   1.504 -2.1569 -0.0702 -1.3221
  692MOL0     H93361   1.828   6.822   1.517  3.0574  0.9638 -0.3669
  692MOL0     H93362   1.922   6.856   1.376  0.4282  0.5374  0.2422
  692MOL0     H93363   1.773   6.742   1.231 -1.1653 -1.6391 -0.2621
  692MOL0     H93364   1.648   6.717   1.351  2.1289 -2.6514 -0.2607
  692MOL0     H93365   1.631   6.962   1.400 -3.2311 -1.3768 -0.8087
  692MOL0     H93366   1.768   6.990   1.280  0.6248  0.0190  1.1551
  692MOL0     H93367   1.486   6.865   1.224  0.8000 -0.1299  1.3649
  692MOL0     H93368   1.526   7.029   1.187 -0.7588  0.8521 -3.1613
  692MOL0     H93369   1.676   6.792   1.062  3.1695  1.7167 -0.4371
  692MOL0     H93370   1.721   6.946   1.040  0.9311 -0.7582  2.1958
  692MOL0     H93371   1.505   6.673   0.896 -1.6589 -1.3045 -0.0620
  692MOL0     H93372   1.345   6.730   0.668  1.6187  2.3053 -0.0558
  692MOL0     H93373   1.218   6.705   0.790 -0.7915 -1.5421 -2.6391
  692MOL0     H93374   1.131   6.805   0.590  1.5824 -4.4350  2.3282
  692MOL0     H93375   1.226   6.954   0.638  4.3891 -1.2731  3.5590
  692MOL0     H93376   1.019   6.995   0.721  0.8724  1.2970 -0.4407
  692MOL0     H93377   1.112   6.937   0.861  0.9094  1.6634 -1.9322
  692MOL0     H93378   1.033   6.720   0.858 -0.8732 -0.9258 -0.1074
  692MOL0     H93379   0.922   6.736   0.719 -2.2705 -0.7364  1.5856
  692MOL0     H93380   0.618   6.894   0.937  0.5927  0.4056  0.0662
  692MOL0     H93381   0.381   6.786   1.128  3.0661 -0.3602  0.1583
  692MOL0     H93382   0.403   6.881   0.997 -0.5881  0.7400  4.7960
  692MOL0     H93383   0.319   6.737   0.970 -0.4701 -0.9434  0.6736
  692MOL0     H93384   0.419   6.130   1.001 -2.4261 -2.1744 -1.0163
  692MOL0     H93385   0.260   5.971   1.100  0.4498 -0.0930  1.4412
  692MOL0     H93386  -0.012   6.128   1.424 -0.2778 -0.5375  0.5519
  692MOL0     H93387  -0.071   5.973   1.418 -1.5208  3.3072  0.3633
  692MOL0     H93388   0.127   5.886   1.538 -0.9514 -0.5431  0.9381
  692MOL0     H93389   0.194   6.044   1.552  2.2721 -4.0090 -0.8750
  692MOL0     H93390  -0.076   5.968   1.681  0.9957 -1.0554  0.2163
  692MOL0     H93391  -0.031   6.124   1.677 -1.4183 -0.6778  0.0462
  692MOL0     H93392   0.114   5.896   1.817 -1.4636 -0.1542  0.6244
  692MOL0     H93393   0.195   6.048   1.809  0.2403  0.2399 -2.5649
  692MOL0     H93394  -0.065   5.998   1.946 -0.3929  2.0709 -2.1698
  692MOL0     H93395  -0.013   6.158   1.922 -1.3789  0.8651  0.5718
  692MOL0     H93396   0.206   6.092   2.059  0.3451 -0.3543  0.7099
  692MOL0     H93397   0.059   6.123   2.141 -0.0139 -3.6839  3.4457
  692MOL0     H93398   0.197   5.899   2.187  0.7555  0.2585 -0.1303
  692MOL0     H93399   0.148   5.847   2.040 -0.7074 -0.8251 -1.2232
  692MOL0     H93400   0.015   5.749   2.211  2.2355 -0.3997 -2.8296
  692MOL0     H93401  -0.084   5.839   2.094 -0.1157  3.3350 -0.1767
  692MOL0     H93402   0.172   6.252   1.413 -0.9782  0.0837 -1.7026
  692MOL0     H93403   0.371   6.393   1.325 -2.0631 -0.1990  0.9888
  692MOL0     H93404   0.725   6.424   1.023  1.5884  1.1287  0.0699
  692MOL0     H93405   0.890   6.555   0.934  1.5168 -0.5437  2.5086
  692MOL0     H93406   2.103   6.260   1.617  0.4817  1.5456  4.0014
  692MOL0     H93407   1.975   6.048   1.635  0.2858 -0.5710  0.4646
  692MOL0     H93408   1.509   5.943   1.757 -2.0257  0.2918  0.4715
  692MOL0     H93409   1.345   5.759   1.814 -0.7022  0.1288  0.2003
  692MOL0     H93410   1.213   5.478   1.544 -1.8470 -1.6554  0.0886
  692MOL0     H93411   1.352   5.389   1.614 -1.3256 -0.6942 -2.2240
  692MOL0     H93412   1.227   5.321   1.805  0.5416 -1.9126  0.1468
  692MOL0     H93413   1.160   5.272   1.641 -4.1262  2.3252 -1.3693
  692MOL0     H93414   1.052   5.490   1.821 -1.3315 -0.8407  0.8480
  692MOL0     H93415   0.985   5.333   1.808 -2.1416 -0.1814 -1.1551
  692MOL0     H93416   0.949   5.356   1.561 -1.1822 -0.3966 -0.8727
  692MOL0     H93417   0.994   5.527   1.575  1.1186 -1.7929 -2.4987
  692MOL0     H93418   0.593   5.438   1.737 -0.6404  2.1794  1.8819
  692MOL0     H93419   1.456   5.528   1.498 -0.1134  2.0497 -5.3081
  692MOL0     H93420   1.670   5.676   1.465 -1.7737  0.7110 -3.7722
  693MOL0     O93421   0.050   0.098   0.481 -0.7339 -0.3205 -0.8362
  693MOL0     C93422   0.165   0.150   0.476  0.5383  0.9113  0.0744
  693MOL0     O93423   0.271   0.115   0.555 -0.2333  0.5899 -0.6620
  693MOL0     C93424   0.256  -0.008   0.629 -0.9641  0.2248  0.3821
  693MOL0     C93425   0.292  -0.014   0.768  0.2239 -0.4842  0.0519
  693MOL0     C93426   0.290  -0.130   0.847  0.5348  0.0463 -0.8181
  693MOL0     C93427   0.247  -0.250   0.796 -0.9056  0.4537  0.2417
  693MOL0     O93428   0.243  -0.369   0.864  0.1067  0.0453 -0.7116
  693MOL0     C93429   0.298  -0.363   1.005 -0.7650  0.5034  0.4031
  693MOL0     C93430   0.302  -0.495   1.066 -0.1813 -0.6608 -0.5778
  693MOL0     C93431   0.403  -0.595   0.993  0.4025 -0.7420 -0.3666
  693MOL0     C93432   0.366  -0.744   0.986 -0.5321  0.1092 -0.4748
  693MOL0     C93433   0.469  -0.815   0.876  0.8342  0.1552 -1.3590
  693MOL0     C93434   0.403  -0.822   0.730  0.4258 -0.2208  0.5002
  693MOL0     C93435   0.497  -0.844   0.606  0.0280 -0.4217 -0.2904
  693MOL0     C93436   0.605  -0.727   0.589 -0.6341 -0.7891  0.7153
  693MOL0     N93437   0.576  -0.580   0.596 -0.1199  0.6704  0.6813
  693MOL0     C93438   0.659  -0.489   0.643 -0.1949 -0.0884 -0.3147
  693MOL0     C93439   0.597  -0.367   0.631  0.3371 -0.6208  0.5016
  693MOL0     C93440   0.666  -0.243   0.678  0.4523 -0.0200  0.2281
  693MOL0     C93441   0.757  -0.178   0.577 -0.8264  0.3630  0.5375
  693MOL0     C93442   0.673  -0.091   0.483  0.2532  0.0708 -0.9357
  693MOL0     C93443   0.643   0.052   0.531  0.0294  0.7433 -1.2778
  693MOL0     O93444   0.728   0.149   0.481 -0.5352  0.1519  0.2110
  693MOL0     C93445   0.704   0.279   0.515 -0.6102  0.4080 -0.8416
  693MOL0     C93446   0.588   0.325   0.578  0.8711 -0.0838 -0.5027
  693MOL0     C93447   0.556   0.459   0.598 -0.4611  0.8075  0.5342
  693MOL0     C93448   0.421   0.487   0.660  0.1788  0.9109  0.9053
  693MOL0     C93449   0.660   0.556   0.569  0.0897  0.1081 -0.7079
  693MOL0     C93450   0.653   0.709   0.592  0.0388  0.6423  0.2078
  693MOL0     O93451   0.782   0.769   0.598 -0.3948  0.2441  0.2826
  693MOL0     C93452   0.794   0.905   0.576 -0.0632 -0.3834 -1.2912
  693MOL0     C93453   0.814   0.955   0.443  0.1389 -0.0057  1.3319
  693MOL0     C93454   0.841   1.089   0.415  0.5412  0.6825  1.3592
  693MOL0     C93455   0.810   1.184   0.505 -0.8097 -0.0800  0.3929
  693MOL0     O93456   0.821   1.321   0.471  0.2754 -0.0811 -0.2157
  693MOL0     C93457   0.822   1.417   0.574 -0.6672  0.4847 -0.2269
  693MOL0     C93458   0.896   1.554   0.535  1.4812  1.0521 -0.1452
  693MOL0     C93459   0.812   1.637   0.434 -0.4920  0.3145  0.9332
  693MOL0     C93460   0.849   1.627   0.291  0.3917 -0.4887 -0.1899
  693MOL0     C93461   0.777   1.735   0.204 -0.3002 -1.4866 -0.4140
  693MOL0     C93462   0.810   1.713   0.055  0.4551  0.7174 -0.4232
  693MOL0     C93463   0.757   1.817  -0.043 -0.2720  0.0709  0.7021
  693MOL0     C93464   0.782   1.956   0.007  0.2458 -0.0494  0.5457
  693MOL0    Cl93465   0.708   2.056  -0.119 -0.2206  0.1858 -0.8284
  693MOL0     C93466   0.768   1.140   0.638 -0.3830 -0.1640  0.7231
  693MOL0     C93467   0.770   1.002   0.674  0.4380 -0.0153  0.8031
  693MOL0     O93468   0.545   0.775   0.578 -0.1624  0.5688 -0.8218
  693MOL0     C93469   0.780   0.502   0.508 -0.2980 -0.0913  0.4688
  693MOL0     C93470   0.790   0.370   0.480 -0.1082  0.7128  0.1640
  693MOL0     N93471   0.477  -0.388   0.571 -1.1511 -0.1052  0.7909
  693MOL0     N93472   0.477  -0.514   0.533  0.0323 -0.0928 -0.2709
  693MOL0     C93473   0.199  -0.241   0.659 -0.0968 -0.2541  0.3750
  693MOL0     C93474   0.201  -0.129   0.579  0.4797 -0.6346  0.1015
  693MOL0     C93475   0.172   0.277   0.397 -0.9966  0.1810 -0.5314
  693MOL0     C93476   0.291   0.345   0.391 -0.8301 -0.5572  1.2288
  693MOL0     C93477   0.314   0.465   0.325 -0.2709 -0.3915  0.8234
  693MOL0     C93478   0.207   0.504   0.246 -0.9725 -0.5168  0.4038
  693MOL0     O93479   0.220   0.618   0.161 -0.1063  0.2158 -0.4260
  693MOL0     C93480   0.183   0.747   0.215 -0.0502 -0.8896 -0.0388
  693MOL0     C93481   0.279   0.863   0.171 -0.2301  0.8085 -0.1188
  693MOL0     C93482   0.288   0.876   0.024  0.3397 -0.2498  0.0540
  693MOL0     C93483   0.334   1.015   0.000  0.0221  0.4012 -0.2118
  693MOL0     C93484   0.227   1.119   0.029 -0.7437 -0.7179  0.5530
  693MOL0     C93485   0.149   1.208   0.051 -0.1171 -0.0038 -0.0793
  693MOL0     C93486   0.084   0.434   0.237  0.6404 -0.3467  0.5282
  693MOL0     C93487   0.060   0.320   0.324  0.9942 -0.2281  0.1264
  693MOL0     H93488   0.314   0.086   0.802 -4.9597  1.7195 -1.9922
  693MOL0     H93489   0.337  -0.123   0.944  2.1921 -1.7328 -1.4257
  693MOL0     H93490   0.402  -0.331   0.993  1.1440 -4.4902  1.2642
  693MOL0     H93491   0.257  -0.300   1.084  3.1392  0.0952  3.0767
  693MOL0     H93492   0.317  -0.475   1.172 -2.2927  0.3614 -0.4210
  693MOL0     H93493   0.203  -0.541   1.072  0.4703 -2.4042 -2.1828
  693MOL0     H93494   0.426  -0.555   0.894  0.9082 -2.2640 -0.9103
  693MOL0     H93495   0.498  -0.597   1.048  0.5469  0.2293 -0.5776
  693MOL0     H93496   0.378  -0.791   1.084  1.9652  3.0392  0.7917
  693MOL0     H93497   0.259  -0.752   0.965 -0.8636  2.8841 -0.1579
  693MOL0     H93498   0.570  -0.773   0.876  1.3361 -0.5692  3.2946
  693MOL0     H93499   0.493  -0.916   0.912  2.6459  0.6272 -1.1668
  693MOL0     H93500   0.336  -0.908   0.744 -0.3390  0.0410 -1.1982
  693MOL0     H93501   0.350  -0.728   0.714  0.0065 -0.0072  2.8422
  693MOL0     H93502   0.554  -0.937   0.612  0.6944  0.0921  3.1227
  693MOL0     H93503   0.433  -0.845   0.517 -1.5273  2.6332  0.6445
  693MOL0     H93504   0.655  -0.758   0.497 -0.5972 -1.4601  0.9581
  693MOL0     H93505   0.679  -0.749   0.666  3.1125 -0.3349 -2.4231
  693MOL0     H93506   0.752  -0.508   0.697 -0.9573  2.7995  2.3065
  693MOL0     H93507   0.591  -0.171   0.711 -0.9037 -1.3101  0.0823
  693MOL0     H93508   0.727  -0.264   0.767  0.6908 -0.9610 -0.1480
  693MOL0     H93509   0.808  -0.247   0.510 -0.2442  2.6632 -1.5265
  693MOL0     H93510   0.826  -0.114   0.633  0.1358  1.4509 -1.7704
  693MOL0     H93511   0.576  -0.140   0.467  1.1301 -1.4338 -1.9478
  693MOL0     H93512   0.728  -0.072   0.390  0.1759  3.3451 -0.4243
  693MOL0     H93513   0.659   0.044   0.639  1.6533  2.1551 -1.3872
  693MOL0     H93514   0.540   0.067   0.497 -1.6225 -1.3564  2.2177
  693MOL0     H93515   0.511   0.261   0.618  0.5398 -0.0500 -1.0821
  693MOL0     H93516   0.377   0.573   0.609 -0.1535  1.0907  1.4770
  693MOL0     H93517   0.351   0.404   0.658 -1.3719  2.1706  0.8000
  693MOL0     H93518   0.447   0.521   0.761 -0.9568 -0.0768  1.5423
  693MOL0     H93519   0.833   0.883   0.364  1.5209  2.8836 -1.1616
  693MOL0     H93520   0.874   1.118   0.316 -2.5084 -0.8540 -0.2428
  693MOL0     H93521   0.721   1.439   0.611 -0.9698  0.8651 -1.2577
  693MOL0     H93522   0.883   1.379   0.657 -2.1971 -0.0580  0.6934
  693MOL0     H93523   0.895   1.608   0.630 -0.9493  0.9067 -0.0175
  693MOL0     H93524   0.995   1.532   0.495  1.2817 -3.8389  1.3347
  693MOL0     H93525   0.831   1.743   0.455 -0.4997  0.2042  1.5158
  693MOL0     H93526   0.707   1.612   0.453  0.4045 -5.9067 -0.2982
  693MOL0     H93527   0.957   1.626   0.279  0.3947 -2.2883 -0.2382
  693MOL0     H93528   0.799   1.536   0.256 -0.1190  0.6790 -2.7352
  693MOL0     H93529   0.816   1.828   0.246 -2.8568 -0.7609  0.5679
  693MOL0     H93530   0.671   1.746   0.231  0.5429  0.7873  2.4273
  693MOL0     H93531   0.919   1.704   0.058  0.3234 -0.7170  1.2236
  693MOL0     H93532   0.768   1.615   0.031  0.5781  0.7508 -0.7880
  693MOL0     H93533   0.661   1.813  -0.094 -0.6842 -2.7550  1.5104
  693MOL0     H93534   0.816   1.791  -0.131  0.8294  1.0592  1.1198
  693MOL0     H93535   0.886   1.984   0.025  0.8019 -0.5064 -1.6334
  693MOL0     H93536   0.714   1.973   0.091 -1.4348 -1.3148 -0.4761
  693MOL0     H93537   0.741   1.218   0.707  1.7251 -0.1423  1.6082
  693MOL0     H93538   0.741   0.968   0.773 -0.3674 -2.8432 -0.3207
  693MOL0     H93539   0.864   0.561   0.472 -1.4067  0.0909 -2.0483
  693MOL0     H93540   0.879   0.338   0.428 -1.4119  1.0550 -2.4494
  693MOL0     H93541   0.136  -0.315   0.611 -0.5695  0.4740 -0.1471
  693MOL0     H93542   0.177  -0.134   0.473  1.2859 -0.7061 -0.0778
  693MOL0     H93543   0.374   0.297   0.442  2.2664  0.5418 -2.3051
  693MOL0     H93544   0.403   0.527   0.329  0.7721 -1.8058  0.3765
  693MOL0     H93545   0.090   0.767   0.162  1.4116  1.3745 -1.9740
  693MOL0     H93546   0.182   0.741   0.325  0.5294 -0.8407 -0.0257
  693MOL0     H93547   0.379   0.855   0.213  0.2142  2.1331 -0.8714
  693MOL0     H93548   0.243   0.948   0.230 -0.9084  0.9302 -0.6976
  693MOL0     H93549   0.194   0.861  -0.030  0.8019  2.3749 -1.6673
  693MOL0     H93550   0.355   0.801  -0.018  1.5470 -0.1791  1.7446
  693MOL0     H93551   0.368   1.018  -0.104  1.7974 -0.0777  0.3250
  693MOL0     H93552   0.417   1.037   0.068 -0.2039  0.2422  0.1239
  693MOL0     H93553   0.085   1.289   0.079 -3.4035 -2.6266  0.5933
  693MOL0     H93554   0.008   0.469   0.168  2.0604  0.6092 -0.6106
  693MOL0     H93555  -0.036   0.271   0.336  0.3282  1.4511  2.5029
  694MOL0     O93556   2.258   8.082   4.330  0.4337  0.3212 -0.1961
  694MOL0     C93557   2.195   8.041   4.227  0.5082  0.1354  0.6124
  694MOL0     O93558   2.108   8.110   4.148  0.2344 -0.6072 -0.5169
  694MOL0     C93559   2.094   8.246   4.174  0.2083 -0.0107  0.4792
  694MOL0     C93560   2.200   8.329   4.142  0.1825  0.0880 -0.7742
  694MOL0     C93561   2.196   8.466   4.184 -0.7479 -0.9265 -1.3880
  694MOL0     C93562   2.080   8.522   4.233 -0.6859  0.6614 -0.2191
  694MOL0     O93563   2.076   8.657   4.250  0.4504 -0.2171  0.4524
  694MOL0     C93564   1.962   8.722   4.184 -0.1170  0.2669 -0.6988
  694MOL0     C93565   1.975   8.748   4.030  0.1607  0.5568 -0.0308
  694MOL0     C93566   2.106   8.794   3.977  0.8077 -0.4419  0.2119
  694MOL0     C93567   2.120   8.785   3.829  0.4378  0.7312 -0.5691
  694MOL0     C93568   2.247   8.846   3.779  0.3515 -0.6952 -0.9981
  694MOL0     C93569   2.255   8.855   3.636  0.5868 -0.0197  0.6131
  694MOL0     C93570   2.397   8.908   3.596  0.0791  0.2182 -0.0724
  694MOL0     C93571   2.411   8.986   3.470 -0.2515 -0.1320  0.6503
  694MOL0     N93572   2.345   8.927   3.354 -0.4326  0.9055  0.5148
  694MOL0     C93573   2.227   8.982   3.305  0.5588  0.3993 -0.9216
  694MOL0     C93574   2.204   8.902   3.196  0.4872  0.3383  1.2633
  694MOL0     C93575   2.072   8.907   3.117 -0.3703 -0.9185 -0.4077
  694MOL0     C93576   2.021   8.765   3.094  0.3467 -1.1837 -0.0598
  694MOL0     C93577   1.882   8.753   3.021  0.2685  0.0264 -0.4678
  694MOL0     C93578   1.868   8.614   2.943  0.2257 -0.1793 -0.3038
  694MOL0     O93579   1.753   8.597   2.864  1.2055  0.3619  0.1825
  694MOL0     C93580   1.737   8.665   2.749  1.2279 -0.3297 -0.3880
  694MOL0     C93581   1.836   8.741   2.686  0.1922  0.0612 -0.5387
  694MOL0     C93582   1.834   8.784   2.555  0.6098  0.5123 -0.4949
  694MOL0     C93583   1.969   8.835   2.489  0.3137 -0.7117  0.4253
  694MOL0     C93584   1.710   8.771   2.483  0.7001  0.3389  0.4697
  694MOL0     C93585   1.695   8.825   2.354  0.1299 -1.4859  0.0647
  694MOL0     O93586   1.587   8.790   2.286  0.1591  0.4681 -0.4239
  694MOL0     C93587   1.546   8.874   2.181  0.3934 -0.4642  0.6937
  694MOL0     C93588   1.546   8.823   2.053 -0.6237 -0.2842 -0.1254
  694MOL0     C93589   1.529   8.905   1.939  0.2569 -0.5132 -0.7928
  694MOL0     C93590   1.525   9.049   1.953  0.3573  0.3866  1.0270
  694MOL0     O93591   1.525   9.137   1.846  0.1339  0.2352  0.4819
  694MOL0     C93592   1.636   9.137   1.765  0.2219  0.1156  0.0553
  694MOL0     C93593   1.617   9.251   1.661 -0.1099  0.1801  0.3893
  694MOL0     C93594   1.481   9.290   1.592  0.0629  0.8830 -0.4292
  694MOL0     C93595   1.495   9.393   1.485 -0.1005  0.6943 -0.1785
  694MOL0     C93596   1.366   9.425   1.415 -0.9921  0.4444 -0.1042
  694MOL0     C93597   1.371   9.526   1.304  0.7233 -0.0476  0.4135
  694MOL0     C93598   1.443   9.659   1.325 -0.2719  0.5987 -0.1027
  694MOL0     C93599   1.468   9.741   1.197  0.4222 -0.0875  0.9975
  694MOL0    Cl93600   1.560   9.881   1.239 -0.4973  0.3549 -0.8808
  694MOL0     C93601   1.524   9.104   2.081  0.1915  0.1100  0.5730
  694MOL0     C93602   1.529   9.018   2.193  0.0917 -0.7097 -0.1906
  694MOL0     O93603   1.778   8.906   2.312  0.1726  0.2492  0.6659
  694MOL0     C93604   1.605   8.706   2.551  0.3460 -0.6468  0.9068
  694MOL0     C93605   1.616   8.651   2.677 -0.4038 -0.0248  0.8043
  694MOL0     N93606   2.318   8.827   3.168  0.7164 -0.2880  0.1326
  694MOL0     N93607   2.396   8.831   3.267  0.3290 -0.4099 -0.0777
  694MOL0     C93608   1.973   8.435   4.262 -0.1354 -0.6291 -1.6077
  694MOL0     C93609   1.976   8.299   4.237  0.2298  0.0392  0.7688
  694MOL0     C93610   2.193   7.891   4.228  0.7525 -1.3080 -0.4178
  694MOL0     C93611   2.281   7.817   4.305 -0.3152 -0.4669  0.1047
  694MOL0     C93612   2.276   7.677   4.298  0.2811  0.8718 -0.0330
  694MOL0     C93613   2.188   7.613   4.214  0.0812 -0.1591  0.0327
  694MOL0     O93614   2.193   7.471   4.206 -0.9064 -0.6085 -0.2041
  694MOL0     C93615   2.129   7.422   4.089 -0.5934  0.4680 -0.0780
  694MOL0     C93616   1.988   7.385   4.103 -0.2693 -0.5672 -0.4049
  694MOL0     C93617   1.969   7.269   4.206  0.0909 -0.5510  0.0522
  694MOL0     C93618   1.853   7.287   4.295  0.5813  0.4868 -0.9565
  694MOL0     C93619   1.847   7.184   4.392 -0.1357  0.5157  0.2971
  694MOL0     C93620   1.815   7.086   4.458  0.1096  0.4758 -0.4349
  694MOL0     C93621   2.099   7.693   4.129 -0.8111  0.2839 -0.0878
  694MOL0     C93622   2.104   7.828   4.133  0.3833  1.2127  0.3173
  694MOL0     H93623   2.290   8.292   4.093 -1.8532 -3.1234 -2.4095
  694MOL0     H93624   2.288   8.522   4.167 -0.9758 -0.8153 -2.3302
  694MOL0     H93625   1.866   8.669   4.192 -1.0619  1.6607 -2.1920
  694MOL0     H93626   1.942   8.818   4.231 -4.3630 -0.6087 -0.3166
  694MOL0     H93627   1.933   8.663   3.975  2.8246 -1.1368  0.3566
  694MOL0     H93628   1.923   8.841   4.007 -3.2002 -1.3343 -0.7058
  694MOL0     H93629   2.101   8.902   3.995 -0.7491 -0.8989  3.0817
  694MOL0     H93630   2.193   8.737   4.012  0.0948 -0.5638  1.8673
  694MOL0     H93631   2.112   8.681   3.796 -0.4466  0.0341  1.6436
  694MOL0     H93632   2.038   8.844   3.787 -2.1524 -1.0041  1.6794
  694MOL0     H93633   2.249   8.949   3.817 -1.5088 -2.0330  3.4288
  694MOL0     H93634   2.333   8.786   3.813  0.5713 -1.0869 -2.2157
  694MOL0     H93635   2.230   8.754   3.604 -1.9848  0.7152  0.0520
  694MOL0     H93636   2.179   8.914   3.584 -0.3097 -1.6136  0.0592
  694MOL0     H93637   2.430   8.966   3.682 -1.5859  0.4882  0.4273
  694MOL0     H93638   2.470   8.827   3.595  0.0796  0.1900  0.9361
  694MOL0     H93639   2.512   9.000   3.430 -1.6185  3.0752 -2.2000
  694MOL0     H93640   2.361   9.083   3.484 -1.3630 -0.5344 -0.3857
  694MOL0     H93641   2.160   9.053   3.353 -0.6344 -0.0858 -1.8042
  694MOL0     H93642   2.004   8.976   3.168  1.8690 -0.1648  1.7581
  694MOL0     H93643   2.101   8.967   3.030  0.8595  1.5735  1.5599
  694MOL0     H93644   2.014   8.704   3.184  0.9486 -2.1594 -0.6527
  694MOL0     H93645   2.097   8.729   3.024 -1.3097  3.1488 -4.7688
  694MOL0     H93646   1.889   8.845   2.962  2.2739  2.8786  3.6868
  694MOL0     H93647   1.800   8.759   3.093  0.2112  1.2026 -0.6096
  694MOL0     H93648   1.861   8.543   3.026 -1.0157 -0.1694 -0.3794
  694MOL0     H93649   1.950   8.597   2.873  0.8086  0.2456  0.2673
  694MOL0     H93650   1.931   8.766   2.731  0.3455 -2.4389  0.6939
  694MOL0     H93651   1.968   8.942   2.467  0.6646 -0.5582  1.1103
  694MOL0     H93652   2.040   8.819   2.571  1.5083 -2.2629 -0.8640
  694MOL0     H93653   1.988   8.775   2.400 -0.1379  2.5783 -2.1008
  694MOL0     H93654   1.551   8.716   2.035 -1.0876 -0.0319 -1.9651
  694MOL0     H93655   1.531   8.864   1.839  0.3036 -0.8634 -0.6516
  694MOL0     H93656   1.730   9.149   1.819 -2.2624  2.0503  4.4300
  694MOL0     H93657   1.635   9.047   1.703  0.1536  1.2571 -1.6920
  694MOL0     H93658   1.672   9.337   1.702  0.9695 -0.6021  0.6319
  694MOL0     H93659   1.691   9.218   1.587 -0.8427  0.7903 -0.6345
  694MOL0     H93660   1.407   9.318   1.668 -1.3562  0.7993 -1.7425
  694MOL0     H93661   1.445   9.198   1.545  0.6492  0.4643 -0.0819
  694MOL0     H93662   1.526   9.492   1.519  0.3539  0.7558 -0.7528
  694MOL0     H93663   1.570   9.341   1.424 -0.2621 -1.8574  1.6310
  694MOL0     H93664   1.284   9.455   1.480 -1.3659 -0.0363 -0.3509
  694MOL0     H93665   1.333   9.333   1.367  0.8316  0.6748 -1.9464
  694MOL0     H93666   1.401   9.474   1.212  1.6110  3.7390 -1.6460
  694MOL0     H93667   1.263   9.538   1.288  0.1961 -3.5592  0.4430
  694MOL0     H93668   1.539   9.638   1.374 -2.0679 -5.0510  1.7111
  694MOL0     H93669   1.381   9.720   1.391 -2.7762 -1.6225 -0.2334
  694MOL0     H93670   1.374   9.785   1.162 -0.1815 -1.1907  1.1769
  694MOL0     H93671   1.508   9.682   1.114 -0.0345  0.5546  0.3179
  694MOL0     H93672   1.519   9.207   2.114  1.1277 -0.5203  2.9517
  694MOL0     H93673   1.540   9.057   2.294  2.2153 -0.0166 -0.6353
  694MOL0     H93674   1.507   8.696   2.505  0.3923 -2.4232  1.0983
  694MOL0     H93675   1.530   8.590   2.705 -0.9836  1.0543  1.4450
  694MOL0     H93676   1.892   8.489   4.308  3.2293  0.9106  3.3055
  694MOL0     H93677   1.893   8.231   4.251  0.4345 -0.4690 -0.3707
  694MOL0     H93678   2.356   7.862   4.370 -2.2094 -2.6190  4.1642
  694MOL0     H93679   2.353   7.628   4.355 -2.5271 -0.9559  2.4907
  694MOL0     H93680   2.153   7.464   3.991  0.5850 -1.6962 -0.7674
  694MOL0     H93681   2.176   7.324   4.084 -2.6575 -0.5490 -0.9901
  694MOL0     H93682   1.952   7.341   4.009  3.0790 -2.1270 -1.1122
  694MOL0     H93683   1.922   7.462   4.145 -1.6036 -2.0080  0.2365
  694MOL0     H93684   2.055   7.271   4.274 -0.4102  0.3592  0.6852
  694MOL0     H93685   1.974   7.174   4.152 -1.5215 -0.2316 -0.6965
  694MOL0     H93686   1.758   7.273   4.244 -1.5388 -0.5223  2.9024
  694MOL0     H93687   1.857   7.386   4.341  2.0281 -0.7794  1.8748
  694MOL0     H93688   1.783   7.003   4.518 -0.3259  0.8418 -0.1577
  694MOL0     H93689   2.027   7.656   4.056 -0.8103  1.7326 -0.8503
  694MOL0     H93690   2.031   7.879   4.070 -1.4405  0.4054  1.6850
  695MOL0     O93691   7.512   2.508  10.677 -0.0109 -0.4574  0.7047
  695MOL0     C93692   7.525   2.625  10.629  0.5208 -0.5393 -1.2024
  695MOL0     O93693   7.643   2.687  10.605  0.8264  0.3223  0.0954
  695MOL0     C93694   7.754   2.617  10.634 -0.0535  0.2184 -0.5038
  695MOL0     C93695   7.802   2.533  10.538 -0.1538  0.0332  0.3171
  695MOL0     C93696   7.915   2.456  10.557  0.7315  0.7137  0.1691
  695MOL0     C93697   7.987   2.474  10.679  0.2887  0.9099  0.6454
  695MOL0     O93698   8.103   2.410  10.694  0.2843  0.2278 -0.0152
  695MOL0     C93699   8.071   2.265  10.713 -0.3256 -0.0309  0.4163
  695MOL0     C93700   8.114   2.174  10.603 -1.6557  0.3234 -0.8258
  695MOL0     C93701   8.267   2.179  10.585 -0.2363  0.9080  0.2091
  695MOL0     C93702   8.324   2.087  10.476 -0.7198 -0.3499  0.7918
  695MOL0     C93703   8.477   2.102  10.451 -0.7299  0.3647  0.8411
  695MOL0     C93704   8.510   2.226  10.364 -0.3640 -0.8287  0.1405
  695MOL0     C93705   8.655   2.240  10.324  0.0313 -0.1459 -0.0915
  695MOL0     C93706   8.682   2.397  10.300 -0.7108 -0.1587 -0.5304
  695MOL0     N93707   8.610   2.446  10.183  0.7108  0.1919  0.7695
  695MOL0     C93708   8.568   2.385  10.070  0.0809  0.3133 -0.2737
  695MOL0     C93709   8.518   2.483   9.986 -0.2192  0.5414  0.6684
  695MOL0     C93710   8.461   2.455   9.851  0.0119 -0.0161  1.0990
  695MOL0     C93711   8.345   2.363   9.858  0.4195  1.8304  0.0090
  695MOL0     C93712   8.300   2.291   9.725  0.1154 -0.0254 -0.3198
  695MOL0     C93713   8.320   2.379   9.601  0.0080  0.6237  0.7161
  695MOL0     O93714   8.255   2.309   9.499 -0.3110  0.1458  0.0408
  695MOL0     C93715   8.257   2.382   9.379 -0.8803 -0.1532  0.2388
  695MOL0     C93716   8.164   2.484   9.377 -0.4552  0.1142 -1.0460
  695MOL0     C93717   8.143   2.551   9.254 -0.2184 -0.5237 -0.6874
  695MOL0     C93718   8.048   2.666   9.277  1.0546 -0.4423 -0.5062
  695MOL0     C93719   8.219   2.510   9.134  0.7037 -1.0107 -0.6384
  695MOL0     C93720   8.194   2.565   8.995  1.1529 -0.0817  0.1988
  695MOL0     O93721   8.226   2.490   8.884 -0.1381 -0.6721  0.3987
  695MOL0     C93722   8.235   2.544   8.757 -0.9822 -0.2811 -0.4291
  695MOL0     C93723   8.267   2.675   8.729 -0.1269  0.1875 -0.1167
  695MOL0     C93724   8.307   2.711   8.598 -0.4052 -0.1680  0.4980
  695MOL0     C93725   8.289   2.617   8.492 -0.2456  0.0374 -0.5738
  695MOL0     O93726   8.321   2.670   8.368  0.0441  0.2127 -0.2703
  695MOL0     C93727   8.247   2.621   8.260 -0.3788 -0.3029  0.7024
  695MOL0     C93728   8.281   2.700   8.126 -0.4884 -0.6801  0.6233
  695MOL0     C93729   8.163   2.682   8.029 -0.4983 -0.9260 -0.2827
  695MOL0     C93730   8.160   2.819   7.941 -0.4150  0.4547 -0.4909
  695MOL0     C93731   8.023   2.862   7.894  0.0925 -0.1324  0.3222
  695MOL0     C93732   8.033   2.995   7.817 -0.4411 -0.8065  0.1826
  695MOL0     C93733   7.897   3.064   7.782 -0.4692 -0.6798  0.4869
  695MOL0     C93734   7.820   3.030   7.657 -0.4160  0.1456  0.0352
  695MOL0    Cl93735   7.881   3.124   7.509 -0.2316  0.1192  0.4046
  695MOL0     C93736   8.240   2.486   8.518 -0.0132  0.0868  1.1981
  695MOL0     C93737   8.217   2.457   8.657  0.2506  0.1968 -0.0759
  695MOL0     O93738   8.157   2.681   8.994  0.2278 -0.1392  0.5965
  695MOL0     C93739   8.307   2.403   9.142 -0.0316 -0.3562 -0.8978
  695MOL0     C93740   8.325   2.338   9.263  0.0041  0.2577 -0.2206
  695MOL0     N93741   8.528   2.604  10.050 -0.9447  0.1637  0.4337
  695MOL0     N93742   8.574   2.578  10.169  0.8729  0.4688 -0.4999
  695MOL0     C93743   7.947   2.565  10.769  0.2825 -0.6143 -0.0387
  695MOL0     C93744   7.823   2.632  10.753  0.5925  0.6820 -0.9490
  695MOL0     C93745   7.406   2.690  10.581  0.4469  0.4497 -0.5521
  695MOL0     C93746   7.277   2.643  10.613  0.3822  0.5017  0.7099
  695MOL0     C93747   7.155   2.689  10.568 -0.5494  0.5829  1.0083
  695MOL0     C93748   7.163   2.795  10.483  0.2164  0.0927 -0.1331
  695MOL0     O93749   7.057   2.849  10.420  0.0771  0.0171 -0.4209
  695MOL0     C93750   6.922   2.843  10.480  0.5891 -0.0896 -0.0267
  695MOL0     C93751   6.836   2.972  10.474  1.3240 -0.5477  0.2158
  695MOL0     C93752   6.683   2.925  10.490 -0.5010 -0.5028  0.2574
  695MOL0     C93753   6.602   3.035  10.551  0.3888 -0.5005 -0.0605
  695MOL0     C93754   6.460   2.986  10.558 -1.2323 -0.4811  0.2460
  695MOL0     C93755   6.342   2.946  10.566  0.5773  0.9835 -0.3426
  695MOL0     C93756   7.287   2.851  10.455  0.1856  0.9039  0.5433
  695MOL0     C93757   7.409   2.798  10.495  0.7392 -0.1086 -0.5920
  695MOL0     H93758   7.744   2.544  10.447 -5.8599 -3.4336  2.9979
  695MOL0     H93759   7.952   2.400  10.471  3.1527  6.2150 -2.9138
  695MOL0     H93760   8.139   2.256  10.798 -0.3463 -1.2575  0.3216
  695MOL0     H93761   7.974   2.244  10.761 -2.1223  1.9426 -2.1050
  695MOL0     H93762   8.092   2.072  10.636  2.2425  0.0542  1.5893
  695MOL0     H93763   8.062   2.178  10.507  0.4291 -2.9780 -2.2881
  695MOL0     H93764   8.304   2.281  10.567  0.6107  0.3468 -1.3449
  695MOL0     H93765   8.322   2.148  10.675  2.3103  2.4654 -0.6986
  695MOL0     H93766   8.297   1.982  10.492 -1.9428 -0.1962 -0.1274
  695MOL0     H93767   8.268   2.107  10.384  0.3757  0.3434  0.2595
  695MOL0     H93768   8.533   2.106  10.545  2.1047  1.7782 -0.7729
  695MOL0     H93769   8.513   2.007  10.410  0.2234  0.5932  1.1211
  695MOL0     H93770   8.449   2.228  10.274 -2.5927  2.0075  1.5303
  695MOL0     H93771   8.479   2.315  10.421  0.3396  0.7201 -1.7979
  695MOL0     H93772   8.712   2.209  10.412 -0.2748  1.2374  0.6225
  695MOL0     H93773   8.678   2.179  10.237  0.9501  1.8784 -1.3411
  695MOL0     H93774   8.788   2.408  10.277 -0.3459 -1.6643  0.3062
  695MOL0     H93775   8.659   2.454  10.391 -1.2779 -0.6700 -0.3424
  695MOL0     H93776   8.574   2.278  10.052 -2.9058 -0.5563  2.8314
  695MOL0     H93777   8.416   2.543   9.805  0.7838 -1.4966 -2.9309
  695MOL0     H93778   8.537   2.414   9.784 -2.3247 -2.1333 -0.3991
  695MOL0     H93779   8.259   2.424   9.887 -0.1824  0.1068  2.1219
  695MOL0     H93780   8.364   2.297   9.943 -0.8610  2.1498  0.5762
  695MOL0     H93781   8.191   2.283   9.736  0.3456 -0.0827  2.7299
  695MOL0     H93782   8.351   2.195   9.719  0.8003  0.2706  0.5584
  695MOL0     H93783   8.425   2.397   9.579 -0.0319 -0.2416 -0.2591
  695MOL0     H93784   8.269   2.474   9.619  1.8339  1.8133 -0.1486
  695MOL0     H93785   8.115   2.515   9.469 -1.4957 -2.5547 -0.5958
  695MOL0     H93786   7.945   2.640   9.305 -0.3122  3.0209 -1.8650
  695MOL0     H93787   8.082   2.733   9.356  1.4617  1.8623 -2.5193
  695MOL0     H93788   8.042   2.737   9.195  1.6023 -2.1632 -2.0989
  695MOL0     H93789   8.280   2.752   8.805 -0.9062  0.6441 -0.4334
  695MOL0     H93790   8.360   2.800   8.564  0.2534 -0.7757 -0.1042
  695MOL0     H93791   8.267   2.516   8.241  4.1693  0.9288 -2.9254
  695MOL0     H93792   8.139   2.616   8.279 -0.2665  0.0863  1.5051
  695MOL0     H93793   8.294   2.807   8.147  2.0881 -0.4821 -1.4130
  695MOL0     H93794   8.369   2.657   8.077  0.1510  0.4154  0.7796
  695MOL0     H93795   8.071   2.694   8.087  0.6284 -1.6947  1.7659
  695MOL0     H93796   8.163   2.583   7.984  0.7527 -1.2686  0.4231
  695MOL0     H93797   8.199   2.906   7.996 -2.6306  2.1905 -1.5254
  695MOL0     H93798   8.221   2.787   7.856  0.1072  0.1044  0.0010
  695MOL0     H93799   7.965   2.873   7.986  2.9621 -1.6032  2.4360
  695MOL0     H93800   7.983   2.784   7.829  3.0936 -0.5610 -1.1779
  695MOL0     H93801   8.081   3.064   7.886 -2.4575  1.4829 -0.5436
  695MOL0     H93802   8.092   2.996   7.725 -3.0308 -1.8869 -1.6213
  695MOL0     H93803   7.913   3.172   7.777 -1.5082 -0.5119  0.6508
  695MOL0     H93804   7.831   3.033   7.864 -1.0713  1.9258  1.1033
  695MOL0     H93805   7.713   3.050   7.671 -1.3949 -3.9675 -0.2927
  695MOL0     H93806   7.832   2.925   7.629  1.9037  0.4802 -0.4238
  695MOL0     H93807   8.214   2.422   8.434 -0.6742 -0.5613  1.8899
  695MOL0     H93808   8.179   2.362   8.694 -0.7024  0.9566  0.9655
  695MOL0     H93809   8.350   2.370   9.048  3.5317  0.5359  0.2435
  695MOL0     H93810   8.405   2.265   9.267  0.0424  0.2866 -0.4711
  695MOL0     H93811   8.004   2.592  10.858 -0.4998 -0.3792  0.4073
  695MOL0     H93812   7.797   2.703  10.831  0.6473  1.6905 -1.8307
  695MOL0     H93813   7.261   2.553  10.672 -2.6830  2.1143  2.5818
  695MOL0     H93814   7.069   2.630  10.599  0.7979 -1.8962  0.3327
  695MOL0     H93815   6.876   2.764  10.422  1.1334 -0.0894 -0.4664
  695MOL0     H93816   6.919   2.822  10.588 -0.3243 -0.4088 -0.1042
  695MOL0     H93817   6.852   3.033  10.384 -1.1170  0.7739  0.5845
  695MOL0     H93818   6.866   3.042  10.553 -2.0084  3.2876 -1.5425
  695MOL0     H93819   6.685   2.842  10.561 -2.6175 -1.8011 -1.0701
  695MOL0     H93820   6.641   2.887  10.396 -0.4672 -2.0718  0.8433
  695MOL0     H93821   6.604   3.126  10.489 -0.2788 -0.5778 -0.2073
  695MOL0     H93822   6.636   3.050  10.653 -1.3622  1.2994  0.3209
  695MOL0     H93823   6.250   2.894  10.582  0.9067  0.8678  1.3829
  695MOL0     H93824   7.275   2.939  10.394 -3.4127  0.7423  0.8012
  695MOL0     H93825   7.500   2.854  10.474  0.2736 -0.3253 -3.5620
  696MOL0     O93826   6.481   3.591   7.851  0.1021  0.6529  0.1341
  696MOL0     C93827   6.362   3.599   7.878  0.1951  0.2998  0.3561
  696MOL0     O93828   6.311   3.705   7.929 -0.3096 -0.7574  0.0932
  696MOL0     C93829   6.384   3.820   7.968 -1.8076 -0.2508  0.0338
  696MOL0     C93830   6.329   3.895   8.070 -0.8318  0.9767 -0.0399
  696MOL0     C93831   6.387   4.009   8.124 -0.0865  0.4333  0.0842
  696MOL0     C93832   6.506   4.053   8.069  0.9647  0.5013 -0.4000
  696MOL0     O93833   6.565   4.176   8.117  0.0801  0.6254  0.8312
  696MOL0     C93834   6.659   4.153   8.228  0.7160  0.2664  0.4567
  696MOL0     C93835   6.746   4.275   8.259 -0.8320  0.0743  0.0432
  696MOL0     C93836   6.853   4.296   8.152  0.7211  0.1697  0.1306
  696MOL0     C93837   6.914   4.429   8.174  0.7413 -0.3441  0.6724
  696MOL0     C93838   7.000   4.474   8.061 -0.4657  0.4729  0.1762
  696MOL0     C93839   6.945   4.490   7.915  0.5805  1.4743  0.6959
  696MOL0     C93840   6.835   4.605   7.913 -1.4132  0.1529 -0.9449
  696MOL0     C93841   6.693   4.559   7.953 -0.2322  1.1241  0.4830
  696MOL0     N93842   6.619   4.486   7.849 -0.2682 -0.5149 -0.1736
  696MOL0     C93843   6.636   4.351   7.816  0.1613  0.5252 -1.2279
  696MOL0     C93844   6.581   4.328   7.700  0.5720 -0.0526  1.0079
  696MOL0     C93845   6.595   4.194   7.619 -0.6180 -0.7852 -0.4312
  696MOL0     C93846   6.475   4.099   7.641  0.3168 -0.1439 -0.7539
  696MOL0     C93847   6.485   3.968   7.559  0.8416  0.3095  0.1640
  696MOL0     C93848   6.615   3.875   7.568 -0.1156  0.5275 -0.4184
  696MOL0     O93849   6.596   3.757   7.483  0.3197 -0.3279  0.8026
  696MOL0     C93850   6.641   3.634   7.515 -0.0305  0.7362 -0.0091
  696MOL0     C93851   6.747   3.595   7.605  0.4405 -0.3393 -1.1324
  696MOL0     C93852   6.773   3.459   7.634  0.8652  0.0609 -0.2613
  696MOL0     C93853   6.882   3.433   7.735 -0.6752 -0.1879 -0.3029
  696MOL0     C93854   6.690   3.357   7.578 -0.1875  0.8004  0.2426
  696MOL0     C93855   6.694   3.211   7.613 -0.6631  0.0445  0.8882
  696MOL0     O93856   6.796   3.163   7.693  0.0967 -0.8516 -0.9475
  696MOL0     C93857   6.811   3.028   7.708 -0.9143  0.0680  0.2579
  696MOL0     C93858   6.802   2.964   7.831 -0.0887 -0.1295  0.5103
  696MOL0     C93859   6.827   2.828   7.853 -0.4040 -0.3943 -0.0011
  696MOL0     C93860   6.872   2.746   7.750 -0.5346 -0.3085  1.3018
  696MOL0     O93861   6.875   2.613   7.750  0.2182 -0.4621 -0.2164
  696MOL0     C93862   6.942   2.552   7.857 -0.5456 -0.0514  1.1996
  696MOL0     C93863   6.929   2.395   7.852 -0.2916 -0.1266  0.5857
  696MOL0     C93864   6.970   2.344   7.992 -1.0563  0.5820 -1.2070
  696MOL0     C93865   6.947   2.191   8.000 -0.1442 -0.4915  0.4671
  696MOL0     C93866   6.970   2.147   8.145 -0.7863  0.4987  0.4665
  696MOL0     C93867   6.974   1.991   8.155 -0.5494  0.8073 -1.1101
  696MOL0     C93868   6.965   1.942   8.299 -0.6830  0.0655 -0.4324
  696MOL0     C93869   6.911   1.802   8.300 -0.4093  0.7873 -0.5383
  696MOL0    Cl93870   6.889   1.741   8.460 -0.1555  0.2829  0.0410
  696MOL0     C93871   6.893   2.818   7.625  0.1375  0.0949 -0.0187
  696MOL0     C93872   6.866   2.949   7.607 -0.7080 -0.7247  1.5615
  696MOL0     O93873   6.606   3.133   7.564  0.3999  0.5272 -0.3353
  696MOL0     C93874   6.583   3.400   7.496  0.3495 -0.7766 -0.2684
  696MOL0     C93875   6.558   3.536   7.466 -0.7545 -0.2789  0.3383
  696MOL0     N93876   6.529   4.451   7.657 -0.2513  0.0896 -0.7784
  696MOL0     N93877   6.548   4.541   7.750 -0.4407  0.1441 -0.9373
  696MOL0     C93878   6.571   3.972   7.969 -0.5504 -0.3070 -0.9677
  696MOL0     C93879   6.518   3.862   7.930  0.2780 -0.5991  0.5764
  696MOL0     C93880   6.273   3.496   7.819  0.0426  1.2287 -0.3166
  696MOL0     C93881   6.318   3.399   7.743 -0.4107 -0.5283  0.4754
  696MOL0     C93882   6.241   3.300   7.681  0.0849  0.3846 -0.0124
  696MOL0     C93883   6.100   3.301   7.699 -0.2217 -0.1086  0.7343
  696MOL0     O93884   6.015   3.203   7.635 -0.5660  0.7387  0.4805
  696MOL0     C93885   6.053   3.092   7.542 -0.3248  0.0419  0.7848
  696MOL0     C93886   6.113   2.976   7.612 -0.2512 -0.6999 -1.1814
  696MOL0     C93887   6.141   2.861   7.515  0.0315 -0.0852  0.2307
  696MOL0     C93888   6.214   2.748   7.593 -0.7108  0.0374 -0.2547
  696MOL0     C93889   6.236   2.625   7.517 -0.6518  0.7473  0.7409
  696MOL0     C93890   6.240   2.517   7.455  1.0073  0.1871 -0.2142
  696MOL0     C93891   6.049   3.399   7.787 -0.5863  0.3725  0.3215
  696MOL0     C93892   6.134   3.492   7.844 -0.0076  0.6364  0.1244
  696MOL0     H93893   6.239   3.865   8.122 -0.4140 -2.4460 -0.9856
  696MOL0     H93894   6.332   4.081   8.183 -1.2695 -0.4040  0.0186
  696MOL0     H93895   6.604   4.145   8.322 -0.7394 -0.5547 -0.4292
  696MOL0     H93896   6.710   4.057   8.216 -3.0197 -1.9545  0.9483
  696MOL0     H93897   6.681   4.358   8.288 -3.4744 -1.2048 -1.7941
  696MOL0     H93898   6.797   4.237   8.348 -1.0891 -1.5026 -0.4464
  696MOL0     H93899   6.932   4.220   8.153 -0.9154 -1.6192 -0.5380
  696MOL0     H93900   6.807   4.289   8.053  1.6839  0.0951 -0.3244
  696MOL0     H93901   6.835   4.505   8.186 -0.2072 -1.4497  1.6964
  696MOL0     H93902   6.974   4.428   8.265  1.4811 -0.0687  0.1915
  696MOL0     H93903   7.069   4.555   8.087  1.6930 -0.3422 -2.4747
  696MOL0     H93904   7.067   4.390   8.044 -0.4383  0.6012 -0.4036
  696MOL0     H93905   7.031   4.506   7.849  0.5686  2.2703  0.8559
  696MOL0     H93906   6.883   4.404   7.888 -2.2687  4.1793 -2.2784
  696MOL0     H93907   6.865   4.689   7.977 -0.1730  1.3381 -2.9683
  696MOL0     H93908   6.842   4.650   7.813  4.1551 -2.1391 -1.9873
  696MOL0     H93909   6.631   4.650   7.956 -0.2559  1.1109  3.2562
  696MOL0     H93910   6.686   4.506   8.049  0.8736 -0.3904 -0.2372
  696MOL0     H93911   6.681   4.277   7.882 -3.4321  1.6336  3.0138
  696MOL0     H93912   6.606   4.213   7.511  1.7567 -1.2229 -0.3143
  696MOL0     H93913   6.687   4.140   7.642 -1.3324 -2.6557 -1.7171
  696MOL0     H93914   6.383   4.156   7.625  2.3105  3.8727  0.4833
  696MOL0     H93915   6.469   4.069   7.746  1.5873  4.2148  0.8072
  696MOL0     H93916   6.489   3.994   7.453  1.1697 -2.1410 -0.4906
  696MOL0     H93917   6.386   3.928   7.582 -0.1144  2.5552  0.2598
  696MOL0     H93918   6.630   3.828   7.665  1.0495  0.8312 -0.4382
  696MOL0     H93919   6.702   3.927   7.527 -1.4147  1.1709 -2.5978
  696MOL0     H93920   6.798   3.674   7.659  1.8807  0.1363 -3.1102
  696MOL0     H93921   6.958   3.360   7.704  0.2330 -0.1256  1.6751
  696MOL0     H93922   6.943   3.521   7.755  0.9615 -0.9768 -1.5307
  696MOL0     H93923   6.839   3.403   7.831 -0.4509  2.2862  0.6310
  696MOL0     H93924   6.743   3.016   7.907 -0.2175 -0.2608  0.5016
  696MOL0     H93925   6.803   2.775   7.944  2.0760  0.7587  1.4145
  696MOL0     H93926   7.046   2.588   7.857 -0.3268 -0.4678 -1.5992
  696MOL0     H93927   6.910   2.591   7.955 -0.1018  2.7240  0.3375
  696MOL0     H93928   6.824   2.376   7.827 -0.5087  2.1103 -0.4441
  696MOL0     H93929   6.993   2.356   7.773  1.6465 -1.9400  2.8938
  696MOL0     H93930   6.914   2.388   8.076  2.2564  1.4899  0.7243
  696MOL0     H93931   7.075   2.366   8.011 -1.6038  1.6905  0.8733
  696MOL0     H93932   6.844   2.174   7.969  0.5110  0.0453 -2.3043
  696MOL0     H93933   6.999   2.124   7.931 -2.8691  0.5557 -2.8981
  696MOL0     H93934   6.888   2.186   8.206  0.0186 -0.8538  2.5326
  696MOL0     H93935   7.072   2.170   8.179  0.7843  1.3978 -4.1026
  696MOL0     H93936   6.882   1.965   8.102 -0.3751  2.7098 -2.4441
  696MOL0     H93937   7.052   1.936   8.103 -2.4272 -4.7080  1.2402
  696MOL0     H93938   6.904   2.010   8.359  0.3956  0.3409  0.3974
  696MOL0     H93939   7.067   1.950   8.340  0.0207  1.6091 -2.3486
  696MOL0     H93940   6.977   1.734   8.245  1.0985  3.1339 -1.7712
  696MOL0     H93941   6.815   1.793   8.248 -0.2843 -1.6882 -0.4763
  696MOL0     H93942   6.928   2.760   7.541 -0.1246 -1.1956  0.7361
  696MOL0     H93943   6.869   3.002   7.512  2.9335 -0.5413  1.6469
  696MOL0     H93944   6.502   3.333   7.470 -2.1777  1.9637 -0.0332
  696MOL0     H93945   6.476   3.550   7.396  1.6934 -0.5998 -2.8051
  696MOL0     H93946   6.672   3.999   7.940  0.3636 -3.2780 -0.8938
  696MOL0     H93947   6.580   3.799   7.867 -1.9809 -2.5321  0.1538
  696MOL0     H93948   6.424   3.386   7.726 -0.3286  0.5275  0.0961
  696MOL0     H93949   6.285   3.242   7.600 -0.8286 -1.5136  0.7870
  696MOL0     H93950   5.966   3.055   7.487 -1.3492 -2.4784  3.8439
  696MOL0     H93951   6.128   3.129   7.471  0.6401 -2.0609  0.6472
  696MOL0     H93952   6.053   2.934   7.694  1.1394 -0.6865 -0.1337
  696MOL0     H93953   6.206   3.008   7.659 -0.8069 -0.5448 -0.1670
  696MOL0     H93954   6.215   2.882   7.437  1.1201 -4.3679 -0.1045
  696MOL0     H93955   6.051   2.815   7.474  2.1967 -3.0470 -1.5450
  696MOL0     H93956   6.149   2.727   7.678 -2.3937  1.6876 -1.0726
  696MOL0     H93957   6.314   2.781   7.624 -0.7050 -0.6039  0.4261
  696MOL0     H93958   6.232   2.427   7.398 -0.6380 -0.9336  1.6133
  696MOL0     H93959   5.941   3.403   7.793 -0.5445  3.7197  1.0588
  696MOL0     H93960   6.090   3.561   7.915 -1.9770 -0.5922  0.1683
  697MOL0     O93961   1.991   7.371   4.835  0.2783  0.0932  0.2543
  697MOL0     C93962   2.030   7.306   4.741 -0.1482 -0.4571  0.2812
  697MOL0     O93963   2.032   7.344   4.613  0.9887 -0.5823  0.1758
  697MOL0     C93964   1.991   7.472   4.587 -0.9753 -0.5437 -0.1547
  697MOL0     C93965   2.083   7.567   4.548 -0.1982 -1.0989 -0.6760
  697MOL0     C93966   2.053   7.700   4.530  0.3386  1.2763  0.2024
  697MOL0     C93967   1.916   7.734   4.533  0.4053  0.0253 -0.1381
  697MOL0     O93968   1.862   7.854   4.507  0.1782 -0.3682 -0.0296
  697MOL0     C93969   1.930   7.972   4.543  0.0672  0.4334  0.0226
  697MOL0     C93970   1.814   8.079   4.564 -0.0197  0.2842  0.3995
  697MOL0     C93971   1.751   8.066   4.711  0.6291  0.1332  0.6430
  697MOL0     C93972   1.659   7.940   4.743 -0.7561  0.7207  0.2010
  697MOL0     C93973   1.610   7.935   4.889  0.6327  0.3552  0.1500
  697MOL0     C93974   1.525   8.063   4.938  0.5154 -0.1044  1.0361
  697MOL0     C93975   1.491   8.068   5.091 -0.5846 -0.4984  0.3068
  697MOL0     C93976   1.605   8.064   5.186  0.7060 -0.1664  0.6262
  697MOL0     N93977   1.676   8.190   5.209 -0.2210  0.3512  0.2682
  697MOL0     C93978   1.701   8.283   5.108 -0.3372 -0.8142 -1.0876
  697MOL0     C93979   1.816   8.331   5.149  0.0001 -0.3619 -0.2439
  697MOL0     C93980   1.890   8.445   5.083  0.5475  0.0537  0.5314
  697MOL0     C93981   1.816   8.572   5.108  0.8804 -1.1956 -0.7420
  697MOL0     C93982   1.876   8.698   5.053 -0.8663 -0.5841 -0.4805
  697MOL0     C93983   2.004   8.751   5.110 -0.3414  0.8838  0.6807
  697MOL0     O93984   2.026   8.886   5.056 -0.4375 -0.4072 -0.0365
  697MOL0     C93985   2.127   8.963   5.120  0.4237  0.3132  0.2086
  697MOL0     C93986   2.220   8.922   5.207 -0.7965 -1.5803  0.4277
  697MOL0     C93987   2.309   9.011   5.265 -0.1348 -0.4781 -0.1230
  697MOL0     C93988   2.407   8.958   5.358 -0.6207  0.1188 -0.6470
  697MOL0     C93989   2.309   9.149   5.224  0.7092 -0.0163  0.3418
  697MOL0     C93990   2.407   9.247   5.255 -1.0642 -0.1586  0.1645
  697MOL0     O93991   2.355   9.359   5.298  0.1192  0.3360  0.1117
  697MOL0     C93992   2.434   9.467   5.335  0.5380  0.3647  0.9726
  697MOL0     C93993   2.547   9.458   5.418  0.0027 -0.5042 -0.0617
  697MOL0     C93994   2.630   9.568   5.453  0.1706  0.1496  0.6312
  697MOL0     C93995   2.604   9.688   5.398 -0.0982 -0.2658  0.2824
  697MOL0     O93996   2.693   9.796   5.424 -0.1241 -0.3392  0.6812
  697MOL0     C93997   2.774   9.790   5.550 -0.4506 -0.7883  0.8017
  697MOL0     C93998   2.819   9.929   5.579 -0.7403  1.0328 -0.2405
  697MOL0     C93999   2.910   9.933   5.708 -0.1061 -0.2332  0.5505
  697MOL0     C94000   2.931  10.076   5.748 -0.5117  0.1386  0.2230
  697MOL0     C94001   2.984  10.081   5.903  0.4981 -0.4372  0.7468
  697MOL0     C94002   3.104   9.988   5.920 -0.2059  0.3562 -1.1297
  697MOL0     C94003   3.137   9.979   6.064 -0.2999 -0.4476 -0.1398
  697MOL0     C94004   3.273   9.915   6.088 -0.8657  0.8241  0.9118
  697MOL0    Cl94005   3.311   9.931   6.264 -0.1548 -0.0636  0.5360
  697MOL0     C94006   2.495   9.704   5.314  0.9366  0.0421  0.3442
  697MOL0     C94007   2.408   9.595   5.284  0.0975 -0.7210  0.5431
  697MOL0     O94008   2.525   9.215   5.245 -0.5427 -0.5969 -0.6212
  697MOL0     C94009   2.210   9.198   5.133  0.8150  0.7248 -0.9301
  697MOL0     C94010   2.122   9.097   5.082 -0.5573 -0.1027 -0.6413
  697MOL0     N94011   1.861   8.274   5.269 -0.1968 -0.0556  0.2193
  697MOL0     N94012   1.769   8.192   5.309 -0.6903 -1.1406 -0.3610
  697MOL0     C94013   1.823   7.636   4.561  0.1280  0.0901 -0.5239
  697MOL0     C94014   1.858   7.504   4.593 -0.0717  0.5122 -0.2936
  697MOL0     C94015   2.073   7.166   4.765 -0.2617  0.3970 -0.6372
  697MOL0     C94016   2.101   7.128   4.899 -0.3328  0.0485  0.1765
  697MOL0     C94017   2.147   6.997   4.925  0.2836 -0.7519 -0.8465
  697MOL0     C94018   2.153   6.906   4.826  0.6509  1.2990  0.6043
  697MOL0     O94019   2.180   6.777   4.862  0.7303  0.8334 -0.0710
  697MOL0     C94020   2.081   6.719   4.943 -1.0629  0.1430  0.6819
  697MOL0     C94021   2.108   6.569   4.967  0.0235 -0.2716 -0.6568
  697MOL0     C94022   2.222   6.552   5.063  0.1799  1.0022 -0.1932
  697MOL0     C94023   2.236   6.408   5.118  0.6941  0.8443 -0.8298
  697MOL0     C94024   2.138   6.378   5.229 -0.0645  0.7222 -0.6379
  697MOL0     C94025   2.061   6.375   5.322  0.1785 -0.5620  0.8677
  697MOL0     C94026   2.144   6.948   4.689 -0.1998  0.0910 -0.1827
  697MOL0     C94027   2.101   7.077   4.662 -0.1061  0.0086 -0.5353
  697MOL0     H94028   2.189   7.545   4.545  0.2812  0.3511  1.9208
  697MOL0     H94029   2.135   7.770   4.516  0.8677  0.7371  0.5512
  697MOL0     H94030   1.982   7.956   4.638 -0.5930 -2.1210  0.0280
  697MOL0     H94031   1.993   8.007   4.461 -2.5438 -0.6117 -2.6063
  697MOL0     H94032   1.867   8.173   4.542  0.7807  0.0688  1.3661
  697MOL0     H94033   1.732   8.071   4.491  0.5164  0.1665 -0.2018
  697MOL0     H94034   1.822   8.083   4.793  0.0875 -0.1625  1.1781
  697MOL0     H94035   1.671   8.139   4.698  0.9546  0.2407 -1.0057
  697MOL0     H94036   1.581   7.942   4.667 -2.0069  0.3838  1.4314
  697MOL0     H94037   1.722   7.851   4.736  0.4995  1.1357  3.9308
  697MOL0     H94038   1.556   7.841   4.899 -1.3232  0.8008 -4.1034
  697MOL0     H94039   1.702   7.941   4.948 -0.6422  0.6006  2.1903
  697MOL0     H94040   1.587   8.147   4.906 -0.4529  0.1244 -0.2811
  697MOL0     H94041   1.435   8.072   4.878  2.0817  1.2329 -1.2656
  697MOL0     H94042   1.431   8.158   5.104  1.5260  1.0163  0.1283
  697MOL0     H94043   1.431   7.979   5.105 -0.7780 -0.2336  1.1937
  697MOL0     H94044   1.671   7.985   5.148 -3.0929 -3.1168 -0.4882
  697MOL0     H94045   1.569   8.033   5.284 -1.5839  5.6536  2.0266
  697MOL0     H94046   1.637   8.316   5.027 -0.6668  1.8405  0.1404
  697MOL0     H94047   1.994   8.448   5.117  0.2712 -2.1395  1.7050
  697MOL0     H94048   1.904   8.430   4.976 -0.3670 -0.3287  0.4576
  697MOL0     H94049   1.815   8.580   5.217 -1.6076 -0.5144 -0.7649
  697MOL0     H94050   1.711   8.566   5.081  0.3422 -3.4531  1.5319
  697MOL0     H94051   1.799   8.770   5.084  1.0415  0.9885  0.8493
  697MOL0     H94052   1.885   8.696   4.944  1.8638 -0.7226 -0.3167
  697MOL0     H94053   2.082   8.678   5.087 -0.0992  0.9142  1.3810
  697MOL0     H94054   2.010   8.745   5.219  2.0617  1.1806  0.6199
  697MOL0     H94055   2.209   8.824   5.253 -3.1251 -1.4677  0.2397
  697MOL0     H94056   2.462   9.032   5.417  0.1863 -2.5123  2.1632
  697MOL0     H94057   2.358   8.880   5.417  1.1831 -1.1778 -0.7963
  697MOL0     H94058   2.486   8.908   5.301  1.8439  1.4535  1.3913
  697MOL0     H94059   2.583   9.359   5.446 -1.3200 -1.2969 -1.0202
  697MOL0     H94060   2.717   9.553   5.515  2.0773 -0.4203 -2.0299
  697MOL0     H94061   2.725   9.764   5.644  3.4012  2.4578  4.1202
  697MOL0     H94062   2.865   9.731   5.534  1.8630  2.5173  0.6497
  697MOL0     H94063   2.875   9.960   5.491  1.8027 -3.1640 -0.3655
  697MOL0     H94064   2.732   9.991   5.604  0.1612  1.9832  0.6386
  697MOL0     H94065   3.004   9.880   5.693  1.2607  2.7529 -2.9734
  697MOL0     H94066   2.865   9.887   5.796  0.7146 -3.2226 -0.4715
  697MOL0     H94067   3.010  10.115   5.682 -0.5006  2.7359  1.6380
  697MOL0     H94068   2.846  10.144   5.736 -0.4421 -0.1583 -2.7699
  697MOL0     H94069   2.898  10.056   5.965  1.1247  0.5301  2.0427
  697MOL0     H94070   3.018  10.180   5.934  1.7071 -0.9095  1.0056
  697MOL0     H94071   3.078   9.884   5.896 -0.1918 -0.5378  2.2160
  697MOL0     H94072   3.190  10.032   5.869  1.7319  1.5477  2.8120
  697MOL0     H94073   3.056   9.918   6.104 -2.6498  0.6005 -2.8787
  697MOL0     H94074   3.143  10.081   6.104 -1.6446  0.2332 -1.5429
  697MOL0     H94075   3.349   9.971   6.032 -1.0405 -0.7465 -0.9931
  697MOL0     H94076   3.283   9.811   6.058 -0.3184  1.2485 -0.4171
  697MOL0     H94077   2.472   9.799   5.267  2.6140  0.0434 -0.5424
  697MOL0     H94078   2.325   9.618   5.218  2.1231 -0.6727 -2.1145
  697MOL0     H94079   2.184   9.292   5.085 -0.8596 -2.0498 -6.3508
  697MOL0     H94080   2.035   9.137   5.030 -0.7715  2.0778  1.1875
  697MOL0     H94081   1.720   7.668   4.547 -0.1117 -0.8720 -1.0993
  697MOL0     H94082   1.794   7.420   4.617 -0.7270  1.2263  0.5248
  697MOL0     H94083   2.074   7.189   4.985  0.6535  0.2624  0.3432
  697MOL0     H94084   2.163   6.984   5.032 -1.1180  0.3674 -0.4555
  697MOL0     H94085   2.082   6.777   5.036 -3.7565  1.9870 -0.3102
  697MOL0     H94086   1.981   6.721   4.899 -2.4038  1.0781  3.5304
  697MOL0     H94087   2.152   6.526   4.876  0.3518 -1.4694  0.0531
  697MOL0     H94088   2.019   6.512   4.994  0.6891 -1.4345 -0.8200
  697MOL0     H94089   2.201   6.610   5.154 -0.8326 -0.1293  0.3217
  697MOL0     H94090   2.321   6.560   5.017  2.0293 -0.0215  3.1948
  697MOL0     H94091   2.327   6.392   5.176 -0.4616 -2.0237  0.3723
  697MOL0     H94092   2.229   6.333   5.038  0.8779  0.3867 -0.4219
  697MOL0     H94093   1.989   6.356   5.400 -2.0723 -2.1056 -1.4422
  697MOL0     H94094   2.159   6.868   4.616  3.3545 -1.6437  2.1479
  697MOL0     H94095   2.088   7.098   4.556  0.2343  2.5876 -0.1294
  698MOL0     O94096   6.714   1.209   2.936 -0.4570 -0.1017  0.0223
  698MOL0     C94097   6.622   1.129   2.973  0.1222 -0.6626 -0.1060
  698MOL0     O94098   6.608   1.001   2.928 -0.5446 -0.1122 -0.3730
  698MOL0     C94099   6.713   0.941   2.866 -0.1762  1.2776  0.8968
  698MOL0     C94100   6.704   0.904   2.730  0.3384 -0.1492 -0.1071
  698MOL0     C94101   6.797   0.819   2.663 -0.1810  0.4761 -0.3225
  698MOL0     C94102   6.906   0.759   2.729 -0.3019 -0.5584 -0.1227
  698MOL0     O94103   7.008   0.687   2.663  0.1943  0.9492 -0.5265
  698MOL0     C94104   6.975   0.639   2.530 -0.9651 -0.8343 -0.3212
  698MOL0     C94105   7.009   0.750   2.426 -0.5995  0.4753  0.6039
  698MOL0     C94106   7.165   0.773   2.411  0.3217 -0.5768 -1.4536
  698MOL0     C94107   7.197   0.858   2.284 -0.4045  0.4246 -0.5792
  698MOL0     C94108   7.341   0.854   2.250  0.6781  0.4780  0.0691
  698MOL0     C94109   7.441   0.891   2.365  0.5137  0.4785  0.2297
  698MOL0     C94110   7.584   0.933   2.324  0.5238 -0.8003 -0.6409
  698MOL0     C94111   7.655   0.824   2.242  0.1913 -0.0862  0.1433
  698MOL0     N94112   7.800   0.867   2.242  0.8541  0.2994  0.6444
  698MOL0     C94113   7.902   0.813   2.307 -0.2946 -0.2204  0.6248
  698MOL0     C94114   8.012   0.894   2.277  1.1959 -0.9741 -0.6092
  698MOL0     C94115   8.152   0.874   2.338  0.0529  0.0085 -0.2434
  698MOL0     C94116   8.250   0.806   2.238 -0.4189  0.9197 -0.4195
  698MOL0     C94117   8.251   0.648   2.262 -0.0901 -0.1884 -0.0924
  698MOL0     C94118   8.121   0.574   2.245 -0.0584 -0.2758  0.0833
  698MOL0     O94119   8.049   0.612   2.126 -0.6144  0.1907  0.2496
  698MOL0     C94120   7.926   0.553   2.115  1.0097 -0.1128 -0.0518
  698MOL0     C94121   7.830   0.615   2.039  0.6181 -0.0641 -0.0151
  698MOL0     C94122   7.693   0.572   2.023 -0.2643 -0.0258 -0.4437
  698MOL0     C94123   7.602   0.631   1.913 -0.4168 -0.3241  0.4175
  698MOL0     C94124   7.650   0.465   2.118 -0.5524  0.6078 -0.0340
  698MOL0     C94125   7.500   0.414   2.116 -1.1056 -0.4075 -0.6896
  698MOL0     O94126   7.401   0.484   2.057  0.3276 -0.4157 -0.3897
  698MOL0     C94127   7.270   0.470   2.102 -0.3148  0.2935  0.1663
  698MOL0     C94128   7.236   0.432   2.230 -0.3395 -0.0886  0.4778
  698MOL0     C94129   7.107   0.409   2.272 -0.1212  0.3436 -0.2743
  698MOL0     C94130   6.997   0.421   2.186  0.5496 -0.1732 -1.1788
  698MOL0     O94131   6.867   0.403   2.230 -0.5736  0.2568  0.5481
  698MOL0     C94132   6.756   0.463   2.159  0.9998 -0.4723  0.0271
  698MOL0     C94133   6.624   0.419   2.225 -0.0321 -0.7560 -0.4934
  698MOL0     C94134   6.599   0.497   2.353  0.0547 -0.6123  0.0525
  698MOL0     C94135   6.512   0.624   2.329 -0.0234 -0.3063 -0.9579
  698MOL0     C94136   6.467   0.691   2.460  0.6380  0.1574 -0.4479
  698MOL0     C94137   6.402   0.831   2.435 -0.1638 -0.0113 -0.4828
  698MOL0     C94138   6.481   0.929   2.359  0.1831 -0.3498  0.5164
  698MOL0     C94139   6.441   1.073   2.390  0.2889  0.6934 -0.0990
  698MOL0    Cl94140   6.276   1.115   2.338 -0.2042  0.0266 -0.0589
  698MOL0     C94141   7.023   0.469   2.063 -0.3383  0.1435  0.4067
  698MOL0     C94142   7.154   0.487   2.016 -0.5855  0.3747  0.6609
  698MOL0     O94143   7.489   0.304   2.169  0.1124  0.6245  0.6773
  698MOL0     C94144   7.740   0.409   2.201 -0.6870  0.3505  0.9534
  698MOL0     C94145   7.874   0.451   2.200  0.2603 -0.3633  0.0292
  698MOL0     N94146   7.978   0.996   2.190 -0.1266 -0.8314 -0.3731
  698MOL0     N94147   7.846   0.978   2.174  0.2628  0.0565  0.1912
  698MOL0     C94148   6.909   0.788   2.868 -1.1487 -0.4005  0.3793
  698MOL0     C94149   6.823   0.879   2.935  0.4825 -0.2962  0.0956
  698MOL0     C94150   6.509   1.191   3.050 -0.4646 -0.3680  0.5550
  698MOL0     C94151   6.515   1.330   3.086 -0.0409  0.7460 -0.4272
  698MOL0     C94152   6.419   1.385   3.171  0.5537  0.5425 -0.5908
  698MOL0     C94153   6.312   1.309   3.212  0.4961  0.3505 -0.6356
  698MOL0     O94154   6.219   1.348   3.311 -0.0144  0.8748  0.4092
  698MOL0     C94155   6.166   1.475   3.310  0.6534 -0.0610 -0.4152
  698MOL0     C94156   6.012   1.472   3.258 -0.3449 -0.0241  0.0436
  698MOL0     C94157   5.976   1.600   3.189  0.0618 -0.9467 -0.2033
  698MOL0     C94158   5.936   1.575   3.036  0.0412  1.0560  0.5671
  698MOL0     C94159   6.054   1.562   2.951  0.1720 -1.0737 -0.1765
  698MOL0     C94160   6.157   1.528   2.894 -0.1661 -0.3098 -0.5627
  698MOL0     C94161   6.291   1.179   3.163 -0.2889 -0.5191 -0.0705
  698MOL0     C94162   6.391   1.122   3.087  0.3370 -0.1984  0.6714
  698MOL0     H94163   6.624   0.936   2.663  0.9228  0.7632 -0.3894
  698MOL0     H94164   6.778   0.788   2.561  1.3042 -0.3933 -0.3627
  698MOL0     H94165   7.040   0.555   2.504  2.6054  2.1254 -1.7710
  698MOL0     H94166   6.877   0.591   2.523  0.3852 -3.7486 -0.7366
  698MOL0     H94167   6.973   0.710   2.331  0.0657  0.6967  0.2539
  698MOL0     H94168   6.955   0.841   2.456 -2.9574 -1.3055  2.1383
  698MOL0     H94169   7.206   0.823   2.499  2.3980 -4.1968 -0.1630
  698MOL0     H94170   7.218   0.678   2.402  1.3426 -0.5737  2.5587
  698MOL0     H94171   7.146   0.819   2.196  0.2058  2.4266 -1.9120
  698MOL0     H94172   7.167   0.962   2.303 -1.7146  0.4965 -2.7632
  698MOL0     H94173   7.358   0.748   2.226  0.1041  0.7163 -1.5275
  698MOL0     H94174   7.358   0.918   2.163 -0.6167  0.8199  0.0563
  698MOL0     H94175   7.402   0.972   2.428 -0.3739 -1.0990  1.8021
  698MOL0     H94176   7.444   0.813   2.442  0.7287 -0.2254 -0.4759
  698MOL0     H94177   7.581   1.025   2.265  1.4273 -0.9927 -1.0069
  698MOL0     H94178   7.638   0.955   2.417 -1.1997 -0.7416  0.3709
  698MOL0     H94179   7.614   0.830   2.140  0.5267  1.3641  0.0770
  698MOL0     H94180   7.644   0.718   2.265  0.2543 -0.2444 -0.5103
  698MOL0     H94181   7.885   0.723   2.364 -1.2711 -0.2061  0.3776
  698MOL0     H94182   8.204   0.963   2.375 -0.3096 -0.0194  0.3485
  698MOL0     H94183   8.146   0.813   2.429  1.6853 -1.2004 -0.8895
  698MOL0     H94184   8.344   0.853   2.270 -0.7878  2.3865 -1.3546
  698MOL0     H94185   8.220   0.834   2.136 -3.4458  0.5946  0.3049
  698MOL0     H94186   8.294   0.637   2.362 -4.2877 -1.4746  1.7633
  698MOL0     H94187   8.315   0.599   2.188 -0.5761  0.2941 -0.8489
  698MOL0     H94188   8.047   0.605   2.320 -0.0404  1.1273 -0.4657
  698MOL0     H94189   8.132   0.467   2.268 -1.0824 -0.3371  0.3685
  698MOL0     H94190   7.855   0.703   1.979  3.3546  0.4319  1.6740
  698MOL0     H94191   7.541   0.702   1.970  1.9173  1.0117  1.3839
  698MOL0     H94192   7.658   0.694   1.843  0.1306 -3.1318 -1.8455
  698MOL0     H94193   7.542   0.554   1.864  2.6784 -1.7695 -1.4414
  698MOL0     H94194   7.311   0.412   2.306 -1.5299  0.4902  1.8538
  698MOL0     H94195   7.081   0.378   2.373  0.0096 -2.4640 -1.0322
  698MOL0     H94196   6.758   0.572   2.169 -0.9614 -0.4782  0.9356
  698MOL0     H94197   6.742   0.435   2.054 -2.9171  0.6831  0.1013
  698MOL0     H94198   6.541   0.431   2.156  1.4571  0.5649 -2.1685
  698MOL0     H94199   6.638   0.313   2.245  0.9295 -0.7826 -1.2662
  698MOL0     H94200   6.688   0.534   2.406  0.3323  1.2192 -1.5817
  698MOL0     H94201   6.557   0.422   2.420  3.3341 -1.1020  1.7996
  698MOL0     H94202   6.569   0.705   2.280 -1.9607  2.3163  0.8593
  698MOL0     H94203   6.426   0.602   2.265 -1.0572 -1.5037  0.7564
  698MOL0     H94204   6.549   0.704   2.532  2.3689  0.2556 -2.3418
  698MOL0     H94205   6.392   0.621   2.498 -1.1132  0.9604 -2.2664
  698MOL0     H94206   6.306   0.810   2.385 -0.6877 -2.4402  1.3945
  698MOL0     H94207   6.372   0.869   2.533 -0.8244 -3.4272  0.7839
  698MOL0     H94208   6.489   0.920   2.251  2.1949 -2.0642  0.7273
  698MOL0     H94209   6.581   0.921   2.403  0.3371  0.4655  0.3213
  698MOL0     H94210   6.513   1.145   2.350  2.7262 -2.1483 -1.1940
  698MOL0     H94211   6.453   1.088   2.497 -4.7101 -1.1210  1.0069
  698MOL0     H94212   6.946   0.498   1.993 -2.1550 -0.5744  2.0195
  698MOL0     H94213   7.167   0.515   1.912  0.6780 -0.2912  0.6145
  698MOL0     H94214   7.703   0.324   2.258 -5.4540  1.2875 -0.3881
  698MOL0     H94215   7.936   0.404   2.275 -4.2246  1.2376  5.4594
  698MOL0     H94216   6.991   0.745   2.924 -0.2126  0.5678 -0.2241
  698MOL0     H94217   6.827   0.905   3.041 -3.8829 -0.7363  0.5461
  698MOL0     H94218   6.609   1.383   3.070  0.4543  1.1095  2.9195
  698MOL0     H94219   6.434   1.484   3.214  0.7217  0.6656 -0.9337
  698MOL0     H94220   6.191   1.509   3.411  3.3054 -1.6733 -0.4184
  698MOL0     H94221   6.213   1.543   3.238 -0.4944  2.8635  1.4020
  698MOL0     H94222   5.956   1.445   3.348  2.3683 -1.1192  1.5086
  698MOL0     H94223   6.002   1.386   3.192  1.7722  0.6569 -1.2725
  698MOL0     H94224   6.070   1.657   3.199  1.9562 -3.9476  0.3453
  698MOL0     H94225   5.890   1.650   3.234  1.5076 -0.6695  2.4365
  698MOL0     H94226   5.878   1.662   3.005  1.4080  1.0967 -2.2276
  698MOL0     H94227   5.866   1.496   3.008 -0.8217  1.5603  1.2406
  698MOL0     H94228   6.236   1.504   2.826 -1.1541 -1.8103 -1.2265
  698MOL0     H94229   6.210   1.119   3.201  2.1948 -1.8979  3.6169
  698MOL0     H94230   6.387   1.022   3.046  1.0342  0.5211 -1.2649
  699MOL0     O94231   1.817   1.345   4.198  0.3492  0.1810  0.5663
  699MOL0     C94232   1.752   1.438   4.155 -0.2016  0.4294  1.0487
  699MOL0     O94233   1.701   1.537   4.228  0.3758  0.6417 -0.4117
  699MOL0     C94234   1.614   1.498   4.331  0.8057 -0.3209  0.2345
  699MOL0     C94235   1.580   1.606   4.415  0.6592 -0.2373  0.2157
  699MOL0     C94236   1.486   1.595   4.507 -0.7181  0.9807 -0.2784
  699MOL0     C94237   1.434   1.467   4.539  0.3031 -0.0851  0.6324
  699MOL0     O94238   1.346   1.454   4.646  0.3542 -0.2595  0.3970
  699MOL0     C94239   1.266   1.337   4.662 -0.4859  0.2513  0.4294
  699MOL0     C94240   1.336   1.230   4.763  1.3091 -0.5519  0.1748
  699MOL0     C94241   1.221   1.164   4.850 -0.0210 -0.8320 -0.2247
  699MOL0     C94242   1.156   1.260   4.949 -0.6616 -0.8316 -0.3684
  699MOL0     C94243   1.090   1.191   5.064 -0.5192  0.5706  0.3623
  699MOL0     C94244   0.999   1.078   5.003  0.0685 -0.0888 -0.4603
  699MOL0     C94245   0.905   1.013   5.114  0.7521 -0.4378 -0.4405
  699MOL0     C94246   0.857   0.869   5.095  0.6038 -1.7492 -0.4995
  699MOL0     N94247   0.957   0.783   5.166  0.3709 -1.1090  0.3032
  699MOL0     C94248   0.953   0.753   5.298 -0.1050 -0.3667  0.0919
  699MOL0     C94249   1.074   0.699   5.329  0.6176  0.1326  1.0989
  699MOL0     C94250   1.112   0.680   5.473  0.1374  0.0022  1.2371
  699MOL0     C94251   1.034   0.563   5.542  0.2204 -0.3286 -0.2354
  699MOL0     C94252   1.056   0.414   5.500  0.6379 -0.0354  0.7630
  699MOL0     C94253   0.982   0.322   5.595 -0.3376 -0.2800 -0.4671
  699MOL0     O94254   1.058   0.270   5.705  0.3945 -0.3988  0.4933
  699MOL0     C94255   1.080   0.135   5.721  0.0982  0.7675  0.0319
  699MOL0     C94256   0.974   0.041   5.703 -0.1521  0.3250  0.6179
  699MOL0     C94257   1.001  -0.095   5.724 -1.1189  0.2295 -0.3296
  699MOL0     C94258   0.908  -0.205   5.673 -0.0640 -0.8008  0.1499
  699MOL0     C94259   1.135  -0.132   5.773 -0.0131 -0.5207  0.0792
  699MOL0     C94260   1.180  -0.271   5.783 -0.7503  0.8885  0.4430
  699MOL0     O94261   1.204  -0.337   5.903  0.2748 -0.1929  0.3449
  699MOL0     C94262   1.166  -0.268   6.023 -0.3888 -1.1536 -0.8700
  699MOL0     C94263   1.260  -0.181   6.089  0.7931 -0.3870 -0.7811
  699MOL0     C94264   1.217  -0.102   6.206 -0.1026  0.1999  0.9239
  699MOL0     C94265   1.085  -0.113   6.249  0.6620  0.4175 -0.0280
  699MOL0     O94266   1.041  -0.043   6.358 -0.7105  0.1516 -0.0130
  699MOL0     C94267   0.907   0.022   6.360  0.1623  0.2865 -0.0973
  699MOL0     C94268   0.897   0.138   6.257 -0.0877  0.7556 -0.2140
  699MOL0     C94269   0.930   0.265   6.329 -0.9189 -1.3230  0.6941
  699MOL0     C94270   0.930   0.385   6.227 -0.2096 -0.5249  0.1321
  699MOL0     C94271   0.799   0.413   6.154 -0.1760 -0.9325 -0.6381
  699MOL0     C94272   0.773   0.553   6.087 -0.2694  0.2729 -0.1956
  699MOL0     C94273   0.862   0.570   5.963 -0.0455 -0.1659  0.3729
  699MOL0     C94274   0.837   0.702   5.887  0.6127  0.9086 -0.3699
  699MOL0    Cl94275   0.888   0.837   5.987 -0.3257 -0.1122  0.5873
  699MOL0     C94276   0.997  -0.193   6.175 -0.5574 -0.4097 -0.4467
  699MOL0     C94277   1.039  -0.278   6.071  0.3734  0.9944 -0.5267
  699MOL0     O94278   1.200  -0.317   5.666  0.3815  0.6834 -0.1700
  699MOL0     C94279   1.235  -0.038   5.776  0.0031 -0.4976 -0.8731
  699MOL0     C94280   1.208   0.100   5.751 -0.0577 -0.8962 -0.2982
  699MOL0     N94281   1.155   0.715   5.215 -0.0748 -0.0560  0.3212
  699MOL0     N94282   1.085   0.760   5.120  0.6747 -0.0348 -0.3839
  699MOL0     C94283   1.473   1.352   4.465 -0.4296  0.6191  0.3922
  699MOL0     C94284   1.567   1.370   4.360  0.8591 -0.8525  0.8099
  699MOL0     C94285   1.760   1.467   4.011  0.3909 -0.0212 -0.6670
  699MOL0     C94286   1.883   1.451   3.938  0.0345 -0.2303 -0.1277
  699MOL0     C94287   1.897   1.481   3.807  1.7928 -1.0358 -1.2869
  699MOL0     C94288   1.788   1.537   3.741 -0.4614 -0.3081  0.4980
  699MOL0     O94289   1.812   1.566   3.613  0.5599  0.8841  0.4353
  699MOL0     C94290   1.753   1.683   3.562 -0.3821  0.2800  0.1061
  699MOL0     C94291   1.841   1.729   3.446 -0.2783  0.5715 -0.5095
  699MOL0     C94292   1.821   1.640   3.318  0.3781 -0.6598 -0.8272
  699MOL0     C94293   1.683   1.677   3.254  0.4226  0.9377  0.9512
  699MOL0     C94294   1.702   1.814   3.204  0.0339 -0.1259 -0.0425
  699MOL0     C94295   1.723   1.921   3.170  0.2953  0.1157  0.0515
  699MOL0     C94296   1.674   1.566   3.810  1.9612 -0.2427 -0.5552
  699MOL0     C94297   1.665   1.538   3.949 -0.4158 -1.4759  0.4188
  699MOL0     H94298   1.625   1.700   4.384  3.2947 -2.4400 -3.3235
  699MOL0     H94299   1.447   1.689   4.546 -3.0900  0.4733 -1.2132
  699MOL0     H94300   1.176   1.377   4.710  0.9596  2.7924  1.2158
  699MOL0     H94301   1.237   1.293   4.566  2.0759 -1.1453  0.1963
  699MOL0     H94302   1.396   1.159   4.706  2.8007 -0.3315  1.4033
  699MOL0     H94303   1.395   1.286   4.837  0.8953 -2.2931  1.9132
  699MOL0     H94304   1.141   1.128   4.785 -0.2818  0.3310 -0.5669
  699MOL0     H94305   1.273   1.090   4.912  1.8822  1.1709  0.7049
  699MOL0     H94306   1.238   1.325   4.980 -1.0570 -0.1442 -0.7301
  699MOL0     H94307   1.080   1.309   4.887 -2.3024 -3.6609 -0.7772
  699MOL0     H94308   1.159   1.147   5.136 -1.8416 -1.8910  0.2381
  699MOL0     H94309   1.028   1.270   5.108 -1.5745 -0.3400  0.5538
  699MOL0     H94310   0.936   1.109   4.919  0.8387  1.5211 -0.4703
  699MOL0     H94311   1.068   0.999   4.972  1.0434  0.7606 -0.4829
  699MOL0     H94312   0.957   1.028   5.209 -0.5981 -0.1499  0.2815
  699MOL0     H94313   0.814   1.073   5.124  1.3691  0.3313  0.8755
  699MOL0     H94314   0.830   0.854   4.990 -4.9256 -2.3768  0.7301
  699MOL0     H94315   0.760   0.845   5.140 -0.0636  1.1243 -0.2323
  699MOL0     H94316   0.876   0.778   5.371  1.2276 -0.4218  1.5699
  699MOL0     H94317   1.216   0.648   5.475  0.3392  0.4960 -0.2160
  699MOL0     H94318   1.098   0.778   5.520  0.6775 -0.4080  2.2872
  699MOL0     H94319   0.928   0.586   5.554  0.6170  1.0232  0.9381
  699MOL0     H94320   1.081   0.565   5.641 -0.3103  0.2942  0.0083
  699MOL0     H94321   1.161   0.385   5.510  1.0259 -0.9325 -3.7902
  699MOL0     H94322   1.006   0.404   5.404 -1.2839  0.9309  1.6045
  699MOL0     H94323   0.950   0.241   5.528 -1.2664  0.7210 -1.2489
  699MOL0     H94324   0.895   0.374   5.635  0.0375 -1.2709  1.7872
  699MOL0     H94325   0.874   0.068   5.673  0.3931  0.9491 -0.7090
  699MOL0     H94326   0.899  -0.287   5.744 -1.0197 -2.0742 -1.3713
  699MOL0     H94327   0.815  -0.153   5.649  0.6052  0.1204 -0.5354
  699MOL0     H94328   0.940  -0.251   5.579 -2.2327 -3.0586  0.4048
  699MOL0     H94329   1.362  -0.169   6.055 -0.0244 -0.9739 -3.8110
  699MOL0     H94330   1.285  -0.030   6.250  0.5190 -0.6161  1.3220
  699MOL0     H94331   0.818  -0.037   6.341  0.0622  0.6710 -0.8499
  699MOL0     H94332   0.891   0.058   6.463 -0.1920 -1.0114  0.3136
  699MOL0     H94333   0.967   0.137   6.173  0.1970  0.7867  0.0215
  699MOL0     H94334   0.794   0.145   6.223 -1.1997  0.3760  2.7432
  699MOL0     H94335   1.035   0.261   6.358 -0.2940 -1.2563 -1.3498
  699MOL0     H94336   0.860   0.288   6.409  1.9779  1.8521  2.5737
  699MOL0     H94337   0.959   0.474   6.284  0.7019  2.4725 -4.4490
  699MOL0     H94338   1.015   0.366   6.160  0.4850  2.7122 -0.0730
  699MOL0     H94339   0.725   0.379   6.228  1.9403 -0.9690  1.5809
  699MOL0     H94340   0.803   0.355   6.061  1.3098  0.7153 -1.6630
  699MOL0     H94341   0.666   0.567   6.069 -0.7411  1.4970  2.9665
  699MOL0     H94342   0.798   0.630   6.160  0.2543 -0.2600  0.1904
  699MOL0     H94343   0.829   0.489   5.897  1.3961  0.3991 -1.1084
  699MOL0     H94344   0.970   0.573   5.982  0.4737 -0.3549 -2.1986
  699MOL0     H94345   0.731   0.705   5.860  0.8581  1.6760 -1.2895
  699MOL0     H94346   0.889   0.714   5.792 -0.2274 -0.9076 -1.0947
  699MOL0     H94347   0.891  -0.199   6.193 -0.8803  0.9986 -1.6933
  699MOL0     H94348   0.966  -0.348   6.032 -0.0139  0.7249  0.6360
  699MOL0     H94349   1.335  -0.073   5.801  0.7235  1.0489 -1.4594
  699MOL0     H94350   1.278   0.182   5.767 -1.2826  0.2959 -0.7979
  699MOL0     H94351   1.431   1.253   4.478 -3.3968  1.7654  0.2895
  699MOL0     H94352   1.579   1.291   4.286 -0.4353  0.9902 -1.4964
  699MOL0     H94353   1.971   1.408   3.983  3.5751  1.8335 -4.3196
  699MOL0     H94354   1.988   1.466   3.749  2.6932  0.2169 -0.2353
  699MOL0     H94355   1.650   1.676   3.528  0.2488 -2.6379 -1.5059
  699MOL0     H94356   1.741   1.763   3.637  2.0472  2.0511 -1.2546
  699MOL0     H94357   1.944   1.722   3.482 -0.2672 -3.6466 -0.8576
  699MOL0     H94358   1.822   1.833   3.417 -1.3029 -0.1588 -2.6833
  699MOL0     H94359   1.830   1.534   3.344  1.7351 -1.2577 -3.4727
  699MOL0     H94360   1.905   1.675   3.258  0.4282  3.1623  1.1419
  699MOL0     H94361   1.599   1.671   3.324 -0.1913 -0.6806  0.1186
  699MOL0     H94362   1.666   1.597   3.182 -0.2913 -0.7357  2.8825
  699MOL0     H94363   1.747   2.023   3.148 -2.5916  0.3342 -2.8048
  699MOL0     H94364   1.585   1.595   3.755  2.2041  1.5406 -0.0776
  699MOL0     H94365   1.582   1.577   4.006 -1.2504 -0.4590 -1.3878
  700MOL0     O94366   1.452   7.386   5.778 -0.3372  0.0065 -0.0698
  700MOL0     C94367   1.481   7.505   5.764  0.8153 -0.8195 -0.6675
  700MOL0     O94368   1.413   7.596   5.697  0.3551 -0.5147 -1.0124
  700MOL0     C94369   1.274   7.584   5.695 -0.1039  0.5790 -0.0137
  700MOL0     C94370   1.205   7.581   5.575  0.0496 -0.4622  0.4189
  700MOL0     C94371   1.070   7.603   5.570  0.7445 -0.4809  0.4763
  700MOL0     C94372   0.998   7.576   5.686 -0.2291 -0.3965  0.9261
  700MOL0     O94373   0.869   7.553   5.694 -0.0237  0.5270 -0.0090
  700MOL0     C94374   0.787   7.570   5.572  0.1966  0.2965  0.4477
  700MOL0     C94375   0.640   7.592   5.605  0.6259  0.2151 -0.3151
  700MOL0     C94376   0.560   7.615   5.472 -0.1081 -0.0215  0.8667
  700MOL0     C94377   0.417   7.660   5.486  0.2440 -0.5705 -0.0852
  700MOL0     C94378   0.343   7.680   5.366  0.2299  0.1144  1.3070
  700MOL0     C94379   0.210   7.733   5.382  0.4591  0.9335  0.1090
  700MOL0     C94380   0.095   7.642   5.340 -0.5490  0.1359  0.3186
  700MOL0     C94381  -0.035   7.714   5.357  0.4085 -0.2465  0.2212
  700MOL0     N94382  -0.036   7.836   5.285 -0.4727  0.6714  0.1392
  700MOL0     C94383  -0.027   7.966   5.345 -0.4250  1.1081 -0.1891
  700MOL0     C94384  -0.069   8.054   5.243  0.2553 -1.0824  0.4110
  700MOL0     C94385  -0.073   8.203   5.245  0.9053  0.5218  0.2938
  700MOL0     C94386   0.062   8.251   5.210 -0.7189 -0.1649 -0.1142
  700MOL0     C94387   0.165   8.227   5.326 -0.0051  1.1145  0.7527
  700MOL0     C94388   0.280   8.312   5.334 -1.6100 -1.1783  0.4361
  700MOL0     O94389   0.374   8.283   5.220  0.6158 -0.3236 -0.3927
  700MOL0     C94390   0.493   8.217   5.255  0.4274 -0.5616  0.2617
  700MOL0     C94391   0.618   8.290   5.283  0.1135 -0.3453 -0.4742
  700MOL0     C94392   0.738   8.227   5.311  0.0222 -0.2016  0.0012
  700MOL0     C94393   0.847   8.323   5.355  0.0661  0.4467 -0.4101
  700MOL0     C94394   0.749   8.087   5.286 -0.3964  0.4707  0.3326
  700MOL0     C94395   0.874   8.009   5.279 -0.2472 -0.3741  0.2409
  700MOL0     O94396   0.875   7.914   5.186 -0.7596  0.2305  0.0905
  700MOL0     C94397   0.985   7.820   5.168  1.1546 -0.2736  0.3486
  700MOL0     C94398   0.945   7.681   5.160 -0.2908 -0.4390  0.0560
  700MOL0     C94399   1.050   7.587   5.152  1.0660  0.2623 -0.3334
  700MOL0     C94400   1.184   7.620   5.167 -0.2634 -0.6048  0.6496
  700MOL0     O94401   1.285   7.532   5.164  0.3244  0.2801 -0.2961
  700MOL0     C94402   1.278   7.388   5.139  0.0428 -0.4192  0.3245
  700MOL0     C94403   1.255   7.357   4.999  0.1561 -0.0496  1.0171
  700MOL0     C94404   1.236   7.201   4.982 -0.1641 -0.9219 -0.5919
  700MOL0     C94405   1.357   7.116   5.031 -0.5095  0.0214  0.3115
  700MOL0     C94406   1.494   7.152   4.963  0.7649 -0.0077 -1.1674
  700MOL0     C94407   1.480   7.149   4.809 -0.4978 -0.3743  0.0802
  700MOL0     C94408   1.622   7.172   4.739 -0.1835 -0.5677 -0.2843
  700MOL0     C94409   1.734   7.085   4.779 -1.2898 -0.5083  1.3441
  700MOL0    Cl94410   1.683   6.912   4.787 -0.3136  0.1697 -0.3706
  700MOL0     C94411   1.220   7.758   5.170  1.2743  0.0214 -1.1618
  700MOL0     C94412   1.121   7.860   5.176 -0.6968  0.7271  0.8197
  700MOL0     O94413   0.969   8.035   5.362 -0.0579 -0.4253  0.0567
  700MOL0     C94414   0.626   8.013   5.260 -0.7309  0.3106 -0.5371
  700MOL0     C94415   0.506   8.077   5.246  0.2709 -0.1724 -0.1874
  700MOL0     N94416  -0.088   7.978   5.126 -1.0507  0.0119  0.3023
  700MOL0     N94417  -0.069   7.856   5.153 -0.6575  0.2899  0.2475
  700MOL0     C94418   1.058   7.573   5.806  0.3705 -0.0530 -0.2385
  700MOL0     C94419   1.197   7.567   5.815  0.2830 -0.4703  0.7725
  700MOL0     C94420   1.609   7.537   5.827 -0.8241 -1.7824 -0.0949
  700MOL0     C94421   1.661   7.676   5.834  1.0353  0.6985 -0.0748
  700MOL0     C94422   1.798   7.694   5.868  0.4391 -0.2165 -0.8981
  700MOL0     C94423   1.876   7.589   5.895 -0.6152  0.4019 -0.1319
  700MOL0     O94424   2.011   7.608   5.915 -0.1160 -0.3462 -0.1617
  700MOL0     C94425   2.093   7.536   5.823 -0.1187 -0.2868  0.3382
  700MOL0     C94426   2.194   7.643   5.782  0.3280  0.1354  0.7035
  700MOL0     C94427   2.278   7.694   5.903 -0.2147  0.4647 -0.2683
  700MOL0     C94428   2.251   7.844   5.923 -0.5925 -0.2511  0.2738
  700MOL0     C94429   2.351   7.902   6.014  0.1857 -0.5055 -0.9760
  700MOL0     C94430   2.436   7.945   6.093  0.2801 -0.7289 -0.2292
  700MOL0     C94431   1.821   7.462   5.901 -0.6759  0.9422  0.8045
  700MOL0     C94432   1.691   7.434   5.871 -0.7369 -0.1389 -0.2078
  700MOL0     H94433   1.251   7.569   5.477  0.4179 -1.2167  0.6817
  700MOL0     H94434   1.023   7.611   5.472 -0.4805  2.5244  1.2064
  700MOL0     H94435   0.810   7.661   5.516  1.5451 -1.3012 -1.7556
  700MOL0     H94436   0.801   7.489   5.500 -0.9610  1.7248 -1.4935
  700MOL0     H94437   0.594   7.506   5.654 -2.1042  0.5612 -2.0575
  700MOL0     H94438   0.640   7.685   5.664  0.6154  0.3835 -0.5789
  700MOL0     H94439   0.596   7.694   5.406 -3.1647  0.7045 -0.1011
  700MOL0     H94440   0.571   7.521   5.417 -1.9108  0.4310 -0.3381
  700MOL0     H94441   0.354   7.592   5.545  0.0461 -1.0128 -0.8056
  700MOL0     H94442   0.425   7.760   5.531  1.5596 -0.4554 -0.5095
  700MOL0     H94443   0.391   7.751   5.299  0.0363  1.2051  2.3011
  700MOL0     H94444   0.339   7.588   5.306  3.5081 -0.3571  1.6585
  700MOL0     H94445   0.197   7.753   5.488 -2.0358 -3.7022  0.9278
  700MOL0     H94446   0.201   7.829   5.331  0.7820  0.1698 -1.4754
  700MOL0     H94447   0.093   7.592   5.242 -0.8224 -0.9584  0.8686
  700MOL0     H94448   0.086   7.554   5.405 -1.8768  0.2615  0.3138
  700MOL0     H94449  -0.054   7.727   5.464  0.9048 -0.7758  0.3761
  700MOL0     H94450  -0.112   7.650   5.312  1.8050 -2.7879  1.2766
  700MOL0     H94451  -0.013   7.994   5.449 -2.2184 -0.8185  0.6399
  700MOL0     H94452  -0.135   8.249   5.168  1.6139  0.6652 -0.2013
  700MOL0     H94453  -0.099   8.250   5.340  0.9546  1.5758 -0.1942
  700MOL0     H94454   0.050   8.358   5.188 -2.9919  0.5292  3.5876
  700MOL0     H94455   0.109   8.209   5.121  1.3453 -0.3231  0.9789
  700MOL0     H94456   0.215   8.132   5.305  1.5297  1.6417  1.8258
  700MOL0     H94457   0.100   8.224   5.414 -0.4624 -2.6837  0.4586
  700MOL0     H94458   0.335   8.278   5.422 -0.0574 -0.0466 -0.0639
  700MOL0     H94459   0.251   8.418   5.335  1.1960 -0.3356 -0.3253
  700MOL0     H94460   0.607   8.396   5.305  2.7969 -0.2512  0.7243
  700MOL0     H94461   0.803   8.410   5.404 -0.5304  0.3503 -0.7666
  700MOL0     H94462   0.905   8.278   5.436  1.8445  1.3671 -1.1137
  700MOL0     H94463   0.922   8.345   5.278  0.4988 -1.0591 -0.4576
  700MOL0     H94464   0.839   7.660   5.156 -0.4377  0.1723  0.5930
  700MOL0     H94465   1.031   7.481   5.162  1.5969  0.3094  1.6644
  700MOL0     H94466   1.368   7.334   5.172 -0.4422  0.0155  2.5474
  700MOL0     H94467   1.209   7.335   5.206  0.1654 -0.3286  0.5262
  700MOL0     H94468   1.166   7.402   4.954  0.5634 -0.6781 -0.4901
  700MOL0     H94469   1.348   7.391   4.953 -0.3906 -1.3328 -1.2433
  700MOL0     H94470   1.219   7.179   4.876  0.0432 -0.5336 -0.7069
  700MOL0     H94471   1.148   7.160   5.033 -0.7178 -1.2630 -1.7899
  700MOL0     H94472   1.363   7.121   5.140 -2.2002  1.5749  0.3828
  700MOL0     H94473   1.348   7.009   5.009 -2.1996  0.3574 -0.7889
  700MOL0     H94474   1.570   7.089   5.011 -1.1569 -3.3451 -2.1838
  700MOL0     H94475   1.518   7.255   4.993  0.7560 -0.4248  0.3616
  700MOL0     H94476   1.446   7.052   4.773  3.6029 -2.3744  0.9693
  700MOL0     H94477   1.420   7.239   4.789  4.9049  4.1666  1.6198
  700MOL0     H94478   1.658   7.275   4.750  1.4966 -1.1631 -0.0297
  700MOL0     H94479   1.601   7.149   4.634  2.1298 -3.8369 -0.1607
  700MOL0     H94480   1.783   7.111   4.873  0.6879  4.0892 -0.6630
  700MOL0     H94481   1.815   7.098   4.706 -2.3051 -0.2519  0.2368
  700MOL0     H94482   1.325   7.784   5.179  0.2442  4.2810  3.4172
  700MOL0     H94483   1.149   7.965   5.183 -0.8955  0.9256 -1.0068
  700MOL0     H94484   0.635   7.905   5.256  1.6789  0.4233 -4.4770
  700MOL0     H94485   0.417   8.022   5.216  0.6721 -2.4900  2.5346
  700MOL0     H94486   0.991   7.566   5.891 -0.6187  2.4115 -0.7114
  700MOL0     H94487   1.253   7.550   5.907  0.5262 -2.5777  0.2757
  700MOL0     H94488   1.592   7.753   5.801  1.8812  0.9774 -1.2539
  700MOL0     H94489   1.840   7.794   5.862 -0.1999  0.2469  1.4039
  700MOL0     H94490   2.130   7.440   5.861 -3.0600 -2.6995 -2.3023
  700MOL0     H94491   2.039   7.517   5.730  1.3276 -0.5068 -0.4941
  700MOL0     H94492   2.139   7.721   5.727 -1.5371  0.1727  2.4765
  700MOL0     H94493   2.256   7.603   5.702 -2.3008 -1.0775 -0.8676
  700MOL0     H94494   2.386   7.690   5.882 -0.2421 -0.2226 -0.3073
  700MOL0     H94495   2.257   7.631   5.990  2.3260  0.9311  0.7778
  700MOL0     H94496   2.148   7.859   5.958 -0.5095 -1.5980  1.1869
  700MOL0     H94497   2.260   7.906   5.834 -0.2123  1.7496  1.6381
  700MOL0     H94498   2.510   7.990   6.157 -0.7349 -0.4675  0.8081
  700MOL0     H94499   1.888   7.379   5.920  0.2530  1.7240  1.0355
  700MOL0     H94500   1.674   7.327   5.877  1.6923 -0.6656 -1.2645
  701MOL0     O94501   1.212   3.027   7.318 -0.6630  0.4341  0.8605
  701MOL0     C94502   1.249   3.058   7.434  0.0292  0.3513  0.4457
  701MOL0     O94503   1.254   3.188   7.478  0.3116  0.1892 -0.2413
  701MOL0     C94504   1.195   3.294   7.409  0.4641 -1.3144 -0.0862
  701MOL0     C94505   1.254   3.425   7.418 -0.4949 -0.3779 -0.1809
  701MOL0     C94506   1.212   3.532   7.330  0.0929  1.1854 -0.6635
  701MOL0     C94507   1.086   3.516   7.258 -1.2157 -0.7084 -0.8591
  701MOL0     O94508   1.021   3.617   7.194  0.4158  0.3747 -1.1428
  701MOL0     C94509   1.082   3.753   7.193  0.8188 -0.0569 -0.4406
  701MOL0     C94510   1.015   3.852   7.107  1.0100  0.2894  0.5546
  701MOL0     C94511   1.014   3.995   7.166 -0.1860  0.2165  0.1609
  701MOL0     C94512   1.145   4.066   7.148 -0.2545 -0.2570  0.5610
  701MOL0     C94513   1.149   4.201   7.214  1.3159 -0.0256  0.1489
  701MOL0     C94514   1.255   4.297   7.173 -0.0222  0.4257 -0.3222
  701MOL0     C94515   1.261   4.408   7.277 -0.9317 -0.4689  1.0026
  701MOL0     C94516   1.342   4.376   7.410 -0.3936 -0.8615 -0.1314
  701MOL0     N94517   1.329   4.476   7.502  0.9527 -0.4421 -0.6028
  701MOL0     C94518   1.213   4.494   7.575  0.2414  0.1014  0.5891
  701MOL0     C94519   1.258   4.559   7.680 -0.9054  0.5457 -0.2216
  701MOL0     C94520   1.168   4.582   7.792  0.0640  0.0713 -0.5475
  701MOL0     C94521   1.119   4.455   7.857  0.5903 -0.2090 -0.8139
  701MOL0     C94522   1.020   4.484   7.978  0.1131 -0.0618  0.4968
  701MOL0     C94523   0.951   4.357   8.022 -0.1707 -0.4759 -0.1514
  701MOL0     O94524   0.869   4.407   8.128 -0.3045 -0.7467  0.1991
  701MOL0     C94525   0.745   4.353   8.157 -0.1073 -1.2462 -0.0445
  701MOL0     C94526   0.702   4.381   8.286  0.9424 -0.2819 -0.0190
  701MOL0     C94527   0.583   4.327   8.338 -0.0478  0.1484  0.9965
  701MOL0     C94528   0.550   4.347   8.487 -0.7807  0.7578 -0.5625
  701MOL0     C94529   0.502   4.248   8.257 -0.2919 -0.6942  0.4586
  701MOL0     C94530   0.380   4.176   8.306 -0.0939  0.6429  0.8610
  701MOL0     O94531   0.394   4.075   8.402  0.0558 -0.7471 -0.1335
  701MOL0     C94532   0.303   4.057   8.499  0.7494 -0.9859 -0.3202
  701MOL0     C94533   0.327   3.938   8.566  0.3675 -0.0611  0.5985
  701MOL0     C94534   0.262   3.902   8.678  0.7478 -0.3281  0.0979
  701MOL0     C94535   0.158   3.985   8.722 -0.3431 -0.7574  0.2649
  701MOL0     O94536   0.093   3.955   8.836  0.4479  1.1321  0.4552
  701MOL0     C94537   0.090   4.043   8.945 -0.2056  0.3377  0.3962
  701MOL0     C94538   0.106   3.970   9.073  0.8461  0.3775 -0.1564
  701MOL0     C94539   0.249   3.931   9.094 -0.1620  0.0137  0.4115
  701MOL0     C94540   0.264   3.847   9.224  0.3511 -1.1597 -0.0223
  701MOL0     C94541   0.421   3.830   9.243  0.6548 -0.1853 -0.4119
  701MOL0     C94542   0.458   3.779   9.384  0.5473 -0.4315  0.2659
  701MOL0     C94543   0.444   3.896   9.493  0.2676 -0.7360  0.0465
  701MOL0     C94544   0.480   3.863   9.638 -0.0038 -0.0458  0.0142
  701MOL0    Cl94545   0.657   3.827   9.672  0.0353  0.4825  0.3809
  701MOL0     C94546   0.123   4.098   8.634 -0.3714  0.2084  0.3066
  701MOL0     C94547   0.190   4.131   8.521  0.3678  0.0697  0.7565
  701MOL0     O94548   0.275   4.215   8.254  0.0188 -0.4055 -0.0172
  701MOL0     C94549   0.536   4.229   8.115  0.0010  0.1121  0.8222
  701MOL0     C94550   0.661   4.282   8.077  0.6640 -0.3314  0.0986
  701MOL0     N94551   1.394   4.594   7.665  0.3250  0.5998 -0.9797
  701MOL0     N94552   1.432   4.531   7.560  0.1125  0.1024 -0.0296
  701MOL0     C94553   1.029   3.388   7.254 -0.4950  0.6361  0.4963
  701MOL0     C94554   1.078   3.280   7.331 -0.1797  0.4746 -0.1772
  701MOL0     C94555   1.316   2.961   7.526  0.0967  0.2765  0.1398
  701MOL0     C94556   1.384   2.850   7.471  0.6871  1.0361 -1.5757
  701MOL0     C94557   1.464   2.768   7.545  0.1856  0.3212  0.1613
  701MOL0     C94558   1.499   2.799   7.676  0.7992 -0.4606 -0.4271
  701MOL0     O94559   1.577   2.711   7.741 -0.0728 -0.5910 -0.1069
  701MOL0     C94560   1.686   2.769   7.825 -0.2441 -0.9672  0.4228
  701MOL0     C94561   1.806   2.807   7.745  0.2789  1.4480  0.6727
  701MOL0     C94562   1.938   2.830   7.821  0.0024  0.4718  0.4559
  701MOL0     C94563   2.057   2.855   7.741 -0.2562  0.4770  0.0650
  701MOL0     C94564   2.159   2.911   7.838 -0.3293 -0.5081 -0.7677
  701MOL0     C94565   2.239   2.976   7.907  0.4660  0.4735  1.0250
  701MOL0     C94566   1.425   2.907   7.734 -0.6652  0.7935  0.5837
  701MOL0     C94567   1.339   2.989   7.660 -0.7500 -0.8112  0.9098
  701MOL0     H94568   1.342   3.422   7.483  1.0144  4.4738 -1.6177
  701MOL0     H94569   1.275   3.619   7.320  1.0578  0.6601  0.6485
  701MOL0     H94570   1.076   3.786   7.297 -2.0202  1.4731 -1.0096
  701MOL0     H94571   1.186   3.747   7.159  1.1274 -0.3612  0.5312
  701MOL0     H94572   1.061   3.849   7.008 -1.8376 -0.8893 -0.8391
  701MOL0     H94573   0.911   3.822   7.094  0.1652  2.6578  1.4055
  701MOL0     H94574   0.941   4.059   7.114 -0.1730  1.1647  1.2716
  701MOL0     H94575   0.996   3.998   7.274 -0.6160  3.1294  0.1048
  701MOL0     H94576   1.231   4.015   7.194  0.1990  0.4036  0.4521
  701MOL0     H94577   1.158   4.084   7.041  1.8545 -2.0772  0.4517
  701MOL0     H94578   1.049   4.245   7.207  0.8563 -0.6714  2.0055
  701MOL0     H94579   1.148   4.176   7.320 -3.6254  3.7642  1.3725
  701MOL0     H94580   1.354   4.252   7.169  0.0742  0.7122 -2.5666
  701MOL0     H94581   1.240   4.341   7.073 -3.0912  0.5600  0.1038
  701MOL0     H94582   1.314   4.496   7.237  0.7097 -1.1731  1.5331
  701MOL0     H94583   1.157   4.438   7.290 -1.1808 -1.0122  0.2806
  701MOL0     H94584   1.448   4.367   7.385 -0.5111 -0.6559 -0.7286
  701MOL0     H94585   1.309   4.280   7.452 -3.4056 -1.0333 -2.4888
  701MOL0     H94586   1.119   4.438   7.573 -0.0064  0.5331 -0.2749
  701MOL0     H94587   1.229   4.624   7.872 -0.7639 -0.3783  0.3338
  701MOL0     H94588   1.092   4.651   7.754  0.1943 -0.6989 -2.2855
  701MOL0     H94589   1.207   4.399   7.891  0.8062 -1.1382 -2.7357
  701MOL0     H94590   1.071   4.397   7.778  3.6712 -2.0168 -1.5545
  701MOL0     H94591   0.936   4.549   7.950 -0.8186 -1.5694 -0.2931
  701MOL0     H94592   1.079   4.528   8.059  1.5248 -1.0841  0.0499
  701MOL0     H94593   1.025   4.281   8.051 -0.8381 -0.3470  2.0592
  701MOL0     H94594   0.889   4.308   7.947 -0.8223  1.1718 -0.7316
  701MOL0     H94595   0.762   4.449   8.345 -2.1335  3.4848 -0.8521
  701MOL0     H94596   0.581   4.256   8.540  0.7295 -0.6548 -3.5889
  701MOL0     H94597   0.609   4.434   8.518 -3.7625  2.0005  2.2133
  701MOL0     H94598   0.443   4.367   8.499 -0.6167  1.1117  0.3614
  701MOL0     H94599   0.409   3.870   8.543 -1.1317 -0.7995 -3.2660
  701MOL0     H94600   0.293   3.819   8.741  0.3808  1.9952  3.6589
  701MOL0     H94601   0.173   4.110   8.922 -1.4570  1.2465 -1.7649
  701MOL0     H94602  -0.007   4.092   8.929 -0.9380 -1.8292 -2.8226
  701MOL0     H94603   0.078   4.049   9.144  0.5815  0.6732 -0.5827
  701MOL0     H94604   0.041   3.885   9.092 -0.6415  1.6457  0.6857
  701MOL0     H94605   0.313   4.020   9.088  1.6696 -1.0823  2.2999
  701MOL0     H94606   0.278   3.858   9.018  0.1758  1.7960 -1.2626
  701MOL0     H94607   0.236   3.923   9.297  1.3671 -1.3937  0.6401
  701MOL0     H94608   0.199   3.759   9.226 -0.1495 -0.8647 -1.7793
  701MOL0     H94609   0.476   3.921   9.216 -1.8378  1.9538  1.1768
  701MOL0     H94610   0.463   3.751   9.180 -0.5107 -0.2698 -1.1214
  701MOL0     H94611   0.406   3.686   9.411  0.8729 -1.0044 -1.0162
  701MOL0     H94612   0.563   3.748   9.391  1.4933  2.3895 -0.1517
  701MOL0     H94613   0.342   3.935   9.488  0.4010 -0.2683  0.8099
  701MOL0     H94614   0.509   3.981   9.468  2.1811 -2.0577  0.3368
  701MOL0     H94615   0.431   3.767   9.659 -1.4843  0.4888 -0.8273
  701MOL0     H94616   0.462   3.952   9.699  2.2706 -0.7405  1.8671
  701MOL0     H94617   0.040   4.168   8.644  0.5099  1.6486 -1.6860
  701MOL0     H94618   0.170   4.226   8.472 -0.1690  0.8365  2.3805
  701MOL0     H94619   0.473   4.182   8.041 -0.0419 -3.2064  2.7519
  701MOL0     H94620   0.679   4.285   7.970 -0.7994 -0.9568 -0.1860
  701MOL0     H94621   0.937   3.373   7.198  1.4409 -1.8008 -2.3721
  701MOL0     H94622   1.030   3.184   7.317  2.2401 -1.3443  2.6241
  701MOL0     H94623   1.369   2.833   7.365  1.4168  0.9298 -1.6662
  701MOL0     H94624   1.514   2.680   7.507 -0.7867  0.5389 -1.6936
  701MOL0     H94625   1.653   2.856   7.882  0.4992 -2.4032  3.2293
  701MOL0     H94626   1.731   2.699   7.895  1.7301 -1.3849 -1.1800
  701MOL0     H94627   1.775   2.900   7.697  1.6383  0.1440 -3.1040
  701MOL0     H94628   1.813   2.732   7.666 -1.5419  1.7289  0.1946
  701MOL0     H94629   1.945   2.742   7.885  1.2907  2.3110  2.9918
  701MOL0     H94630   1.935   2.912   7.893  3.1414  0.4553  0.7427
  701MOL0     H94631   2.043   2.915   7.651 -1.0768 -0.5240 -0.4967
  701MOL0     H94632   2.091   2.759   7.702 -1.5678  0.3686 -0.8833
  701MOL0     H94633   2.324   3.030   7.943  1.5495  1.3569 -2.4811
  701MOL0     H94634   1.438   2.930   7.839  0.3108 -0.2186  0.7034
  701MOL0     H94635   1.298   3.081   7.702 -1.5669  0.0851 -1.6538
  702MOL0     O94636   5.696   2.925   1.386 -0.7179  0.0643 -0.3102
  702MOL0     C94637   5.589   2.935   1.439  0.4547 -0.1458  1.6528
  702MOL0     O94638   5.514   3.050   1.441 -0.2930 -0.0478  0.5128
  702MOL0     C94639   5.564   3.164   1.384 -0.4609 -0.1006  0.7577
  702MOL0     C94640   5.623   3.177   1.258 -0.3850  1.2209  0.5692
  702MOL0     C94641   5.685   3.292   1.202  0.4928  0.3727 -0.2476
  702MOL0     C94642   5.701   3.402   1.275 -0.3764 -0.6356 -0.4068
  702MOL0     O94643   5.778   3.506   1.234 -0.0357 -0.5279  0.3565
  702MOL0     C94644   5.764   3.569   1.107 -1.3525  0.3674 -0.7316
  702MOL0     C94645   5.851   3.699   1.125  0.9548  0.0608  0.0945
  702MOL0     C94646   5.866   3.770   1.000 -0.0397  0.2520  0.2781
  702MOL0     C94647   5.958   3.890   1.021 -0.7888 -0.1067  0.6584
  702MOL0     C94648   5.953   3.984   0.895 -0.3771  0.4374 -0.0800
  702MOL0     C94649   6.008   4.120   0.926 -0.5791 -0.3049 -0.6099
  702MOL0     C94650   6.161   4.125   0.947  0.4434 -0.7207 -0.3625
  702MOL0     C94651   6.243   4.068   0.822  0.3517  0.1622 -0.2055
  702MOL0     N94652   6.390   4.100   0.812  0.2462  0.5811 -0.5660
  702MOL0     C94653   6.446   4.234   0.825  1.5449  0.3725  0.0148
  702MOL0     C94654   6.574   4.214   0.802  0.8869 -0.5700 -0.6855
  702MOL0     C94655   6.673   4.321   0.839  0.8687 -0.1265 -0.9681
  702MOL0     C94656   6.767   4.354   0.724 -0.0200  0.2726  0.0061
  702MOL0     C94657   6.886   4.448   0.766 -0.2645  0.6702 -0.5977
  702MOL0     C94658   6.857   4.595   0.813 -0.8105  0.5185  0.2318
  702MOL0     O94659   6.901   4.685   0.719  0.3735 -0.2310  0.3399
  702MOL0     C94660   6.992   4.779   0.758 -0.2828  0.4599 -0.5947
  702MOL0     C94661   6.965   4.908   0.710  0.2650  0.1031 -0.4254
  702MOL0     C94662   7.052   5.017   0.734  0.3743  0.0837 -0.1619
  702MOL0     C94663   7.040   5.145   0.655  0.4011 -0.6866  0.0279
  702MOL0     C94664   7.169   4.992   0.819  0.4432 -0.4503  1.4020
  702MOL0     C94665   7.269   5.091   0.859 -0.5020  0.7214 -0.2661
  702MOL0     O94666   7.211   5.213   0.863  0.1752 -0.0419  0.2118
  702MOL0     C94667   7.300   5.313   0.881 -0.4220  0.0844 -0.0182
  702MOL0     C94668   7.284   5.386   0.996  0.0043 -0.3904  0.3420
  702MOL0     C94669   7.374   5.477   1.047 -0.9414 -0.1516  0.1226
  702MOL0     C94670   7.497   5.511   0.975  0.6694 -0.1978  0.5138
  702MOL0     O94671   7.601   5.590   1.007 -0.5383  0.1988  0.0497
  702MOL0     C94672   7.556   5.723   1.050  0.4629 -0.5624  0.2615
  702MOL0     C94673   7.654   5.835   1.082 -0.3334 -0.0906  0.0481
  702MOL0     C94674   7.594   5.967   1.130 -0.8381 -0.3167  0.8488
  702MOL0     C94675   7.696   6.085   1.128  0.2070  1.4729  0.4372
  702MOL0     C94676   7.625   6.200   1.213  0.8048 -0.0325  0.1541
  702MOL0     C94677   7.728   6.319   1.229  0.5909 -0.2205 -0.0404
  702MOL0     C94678   7.871   6.279   1.285 -0.3196 -0.8037 -0.2584
  702MOL0     C94679   7.957   6.400   1.332  0.1074  0.1943  0.1591
  702MOL0    Cl94680   8.108   6.323   1.405  0.2989  0.3188  0.4183
  702MOL0     C94681   7.506   5.434   0.854 -1.1464 -0.4665  0.2019
  702MOL0     C94682   7.415   5.338   0.809  0.4090  0.5219  0.2893
  702MOL0     O94683   7.391   5.061   0.886 -0.7514  0.8232 -0.5726
  702MOL0     C94684   7.183   4.871   0.879 -0.5687 -0.2559 -0.0854
  702MOL0     C94685   7.102   4.761   0.837 -0.7006 -0.5502 -0.4499
  702MOL0     N94686   6.609   4.086   0.782 -1.1509 -0.4025  0.3931
  702MOL0     N94687   6.497   4.024   0.794  1.4016 -0.5008 -0.1958
  702MOL0     C94688   5.647   3.393   1.408  0.0914 -0.3920  0.2367
  702MOL0     C94689   5.586   3.278   1.458 -0.3672  0.0829 -0.2938
  702MOL0     C94690   5.530   2.819   1.508  0.1604 -0.6116 -0.0229
  702MOL0     C94691   5.401   2.830   1.558  0.1392  0.8140 -1.0521
  702MOL0     C94692   5.346   2.726   1.644 -1.3759 -0.9173  0.3941
  702MOL0     C94693   5.423   2.606   1.679  1.0827 -0.6560 -0.4284
  702MOL0     O94694   5.378   2.508   1.758 -0.1462  0.3394 -0.1838
  702MOL0     C94695   5.262   2.529   1.851  0.0745 -0.0570 -0.0828
  702MOL0     C94696   5.318   2.621   1.958 -0.3806  0.2024  0.4451
  702MOL0     C94697   5.234   2.593   2.092  0.6087 -0.5514  0.5697
  702MOL0     C94698   5.319   2.627   2.212 -0.3792 -0.1296 -0.1743
  702MOL0     C94699   5.332   2.773   2.216 -0.5969  0.3975 -0.0597
  702MOL0     C94700   5.355   2.891   2.231 -0.9977  0.1393  0.0670
  702MOL0     C94701   5.552   2.604   1.632 -0.5848  0.7090 -0.4971
  702MOL0     C94702   5.600   2.703   1.539 -0.7675 -0.3616  0.8942
  702MOL0     H94703   5.640   3.080   1.212  0.2290  0.1804  2.7981
  702MOL0     H94704   5.727   3.289   1.102  0.8355  0.2074 -0.0984
  702MOL0     H94705   5.787   3.504   1.022 -3.5775 -0.2413 -0.9241
  702MOL0     H94706   5.656   3.580   1.096 -1.5546 -2.4656 -2.5463
  702MOL0     H94707   5.796   3.760   1.197 -2.2264 -2.2370 -0.1782
  702MOL0     H94708   5.951   3.681   1.166  0.8956  0.4609  0.4256
  702MOL0     H94709   5.908   3.704   0.923 -1.0088 -0.2090  0.1210
  702MOL0     H94710   5.762   3.791   0.976 -0.2017 -1.0618 -0.2674
  702MOL0     H94711   5.918   3.943   1.109 -3.4637 -1.1869  0.1915
  702MOL0     H94712   6.057   3.846   1.036 -0.8987 -2.5383 -4.1113
  702MOL0     H94713   5.995   3.927   0.812  0.3817 -0.6145  0.9810
  702MOL0     H94714   5.852   3.999   0.858  0.1203  3.3351 -0.5444
  702MOL0     H94715   5.969   4.183   0.845 -2.2630 -0.1461  0.2699
  702MOL0     H94716   5.961   4.149   1.020  3.2437  5.3798 -0.0080
  702MOL0     H94717   6.183   4.227   0.983 -2.2729 -0.5752  1.1697
  702MOL0     H94718   6.185   4.061   1.032 -2.0751 -2.1286 -0.6185
  702MOL0     H94719   6.192   4.112   0.735  1.2388 -0.3161 -0.9838
  702MOL0     H94720   6.226   3.960   0.809 -2.9726  0.3867  1.2718
  702MOL0     H94721   6.408   4.332   0.853 -2.8521 -0.6497 -1.6730
  702MOL0     H94722   6.629   4.411   0.881  1.8031 -1.6343  3.7903
  702MOL0     H94723   6.727   4.269   0.918 -2.7174 -0.5169  1.4430
  702MOL0     H94724   6.711   4.377   0.633 -1.5095 -0.5442  0.6896
  702MOL0     H94725   6.813   4.259   0.695  0.2508  0.8285 -1.5002
  702MOL0     H94726   6.959   4.450   0.685 -0.4409  0.7979 -0.7527
  702MOL0     H94727   6.935   4.399   0.851 -0.6971 -1.3569 -1.4531
  702MOL0     H94728   6.906   4.611   0.909  3.2614 -3.2878 -0.8553
  702MOL0     H94729   6.750   4.609   0.834 -0.6286  1.3957  0.6068
  702MOL0     H94730   6.875   4.925   0.652 -0.5508  0.6439  0.9495
  702MOL0     H94731   6.993   5.112   0.562 -0.0040  0.3003 -0.1309
  702MOL0     H94732   6.975   5.218   0.705  0.3005 -1.3561  0.9019
  702MOL0     H94733   7.132   5.200   0.637 -0.1303 -0.1531 -1.1994
  702MOL0     H94734   7.192   5.381   1.054 -0.1618  2.9388  0.5615
  702MOL0     H94735   7.351   5.533   1.137 -0.0792 -1.2682  1.0608
  702MOL0     H94736   7.492   5.753   0.967 -0.0218 -1.6512  0.2203
  702MOL0     H94737   7.493   5.708   1.138 -1.1825 -3.1416 -1.2304
  702MOL0     H94738   7.723   5.804   1.160 -1.8348 -2.4318  0.5278
  702MOL0     H94739   7.718   5.850   0.994  0.3578 -1.6178  0.2668
  702MOL0     H94740   7.554   5.946   1.230  0.8481  0.8243  1.8142
  702MOL0     H94741   7.517   5.997   1.059 -2.9451  0.8090  3.4285
  702MOL0     H94742   7.783   6.038   1.173 -0.6855  0.9049  1.6322
  702MOL0     H94743   7.730   6.117   1.029 -1.2068  1.5798 -0.0393
  702MOL0     H94744   7.577   6.175   1.308 -1.8263  2.3363 -0.4209
  702MOL0     H94745   7.538   6.243   1.162 -1.9461  0.8326  4.9388
  702MOL0     H94746   7.735   6.368   1.132 -3.0415  0.9099  0.1242
  702MOL0     H94747   7.687   6.393   1.298  2.6438 -0.3648  1.4519
  702MOL0     H94748   7.924   6.231   1.202  0.8511 -0.6705  0.4020
  702MOL0     H94749   7.854   6.212   1.370 -3.7706  0.1753 -0.0140
  702MOL0     H94750   7.902   6.457   1.407  0.3362  0.2015  0.3241
  702MOL0     H94751   7.986   6.464   1.247 -1.8775  1.4994  0.4156
  702MOL0     H94752   7.592   5.448   0.789 -1.5967  0.0516 -0.2943
  702MOL0     H94753   7.445   5.280   0.723  2.8090  0.2413  1.2238
  702MOL0     H94754   7.269   4.860   0.945 -1.4631  1.9942  1.5628
  702MOL0     H94755   7.123   4.664   0.880 -1.0234 -0.4411 -0.0482
  702MOL0     H94756   5.681   3.475   1.471  3.8900 -1.7520  0.2208
  702MOL0     H94757   5.552   3.269   1.561  1.9909 -0.3140  0.5128
  702MOL0     H94758   5.344   2.917   1.529 -1.0273 -0.6037 -3.3357
  702MOL0     H94759   5.243   2.733   1.677 -1.4885 -0.2584 -0.0632
  702MOL0     H94760   5.177   2.580   1.805  0.2729 -1.7920 -2.5345
  702MOL0     H94761   5.237   2.429   1.887  2.5178 -0.0556  1.9255
  702MOL0     H94762   5.302   2.728   1.941  3.4775  1.0335  1.1170
  702MOL0     H94763   5.424   2.598   1.973 -0.0567 -0.1247 -2.0437
  702MOL0     H94764   5.204   2.490   2.112  2.0088 -0.7703  1.7266
  702MOL0     H94765   5.139   2.647   2.084 -1.4869 -3.4807  3.1624
  702MOL0     H94766   5.413   2.572   2.208 -1.3386 -1.7772 -1.7360
  702MOL0     H94767   5.258   2.586   2.293  0.0952  0.8178  0.6887
  702MOL0     H94768   5.399   2.989   2.239  1.9393 -0.8703 -1.8738
  702MOL0     H94769   5.621   2.529   1.669 -2.9429 -0.4138  2.0416
  702MOL0     H94770   5.698   2.693   1.492 -1.7697  1.5898 -1.8328
  703MOL0     O94771   2.238   8.375   1.679 -0.2396 -0.4897 -0.0920
  703MOL0     C94772   2.339   8.448   1.659  0.6822 -0.0024  0.8904
  703MOL0     O94773   2.454   8.449   1.732  0.1722 -0.5422  0.2054
  703MOL0     C94774   2.483   8.344   1.822 -0.0373 -0.4982 -0.2477
  703MOL0     C94775   2.388   8.269   1.890 -0.3243 -1.3827 -0.7526
  703MOL0     C94776   2.434   8.167   1.979  0.4245  0.4915  0.6281
  703MOL0     C94777   2.572   8.139   1.996 -0.4111 -0.5260  0.8710
  703MOL0     O94778   2.624   8.053   2.091  0.3697 -0.6668 -0.1608
  703MOL0     C94779   2.563   8.044   2.226  0.8676  0.4789  1.5486
  703MOL0     C94780   2.635   7.937   2.305 -0.6106 -0.6500  0.7332
  703MOL0     C94781   2.634   7.932   2.456 -0.1345 -0.2119 -0.2133
  703MOL0     C94782   2.527   8.020   2.526 -0.8901  0.0169 -0.3422
  703MOL0     C94783   2.533   8.029   2.676 -0.1850  0.3544 -0.1956
  703MOL0     C94784   2.640   8.126   2.713  0.0704 -0.1911  0.1312
  703MOL0     C94785   2.667   8.143   2.869 -0.3520  0.7135 -0.2620
  703MOL0     C94786   2.666   8.015   2.949 -0.2710  0.8348 -0.1948
  703MOL0     N94787   2.785   7.936   2.919  0.6875 -0.5706 -0.8787
  703MOL0     C94788   2.904   7.955   2.979 -1.9417 -0.5381  0.0048
  703MOL0     C94789   2.973   7.846   2.959  0.2441  1.0281  0.4278
  703MOL0     C94790   3.119   7.825   3.011  0.0541  0.3244  1.4593
  703MOL0     C94791   3.134   7.720   3.128 -0.1274 -0.1967 -0.6763
  703MOL0     C94792   3.280   7.710   3.161 -0.2967  0.1542 -0.1312
  703MOL0     C94793   3.295   7.635   3.300 -0.2187 -0.9356  0.4803
  703MOL0     O94794   3.272   7.738   3.400 -0.8421  0.7185 -0.0617
  703MOL0     C94795   3.379   7.767   3.480 -0.1443 -0.2488 -0.4799
  703MOL0     C94796   3.497   7.826   3.436  0.1820  0.1741 -0.5575
  703MOL0     C94797   3.618   7.830   3.513  0.3823 -0.5119 -0.4439
  703MOL0     C94798   3.730   7.904   3.447 -0.3681 -1.0084  0.3145
  703MOL0     C94799   3.616   7.789   3.648  0.2255 -0.6432 -0.5691
  703MOL0     C94800   3.731   7.805   3.744  0.5920 -0.1697 -0.6185
  703MOL0     O94801   3.725   7.764   3.876 -0.6019 -0.0695 -0.5486
  703MOL0     C94802   3.746   7.863   3.974  0.3560 -0.4900  0.7843
  703MOL0     C94803   3.739   8.004   3.965 -0.6610  0.0557  0.1991
  703MOL0     C94804   3.731   8.080   4.076 -0.5174  0.4338  0.0568
  703MOL0     C94805   3.780   8.027   4.202 -0.1671  0.7030 -0.8874
  703MOL0     O94806   3.806   8.114   4.307 -1.3580  0.5142  0.2281
  703MOL0     C94807   3.813   8.075   4.447  1.0344 -0.3579  0.6747
  703MOL0     C94808   3.889   8.178   4.530  0.2497 -0.9650 -0.8708
  703MOL0     C94809   3.889   8.138   4.678 -0.4355 -0.3126 -0.2205
  703MOL0     C94810   3.944   8.238   4.784 -0.3840  0.5769  0.2897
  703MOL0     C94811   4.102   8.246   4.791  0.8208 -0.3193  0.2150
  703MOL0     C94812   4.169   8.363   4.847  0.2690  0.1377  0.2637
  703MOL0     C94813   4.325   8.348   4.824  0.3978 -1.0867 -0.4611
  703MOL0     C94814   4.419   8.451   4.884  0.9704  0.4195  0.4121
  703MOL0    Cl94815   4.391   8.609   4.799 -0.3251  0.1757 -0.1830
  703MOL0     C94816   3.804   7.890   4.205  0.1853  0.0193  0.1978
  703MOL0     C94817   3.777   7.812   4.095 -0.2379  0.3971 -0.1041
  703MOL0     O94818   3.811   7.882   3.703  0.4048 -0.2581  0.7049
  703MOL0     C94819   3.494   7.717   3.690 -0.4176 -0.2921  0.1236
  703MOL0     C94820   3.387   7.703   3.596 -0.5923 -0.1316 -0.2339
  703MOL0     N94821   2.890   7.748   2.898  0.1656  0.0553 -0.3800
  703MOL0     N94822   2.782   7.812   2.864  0.1468 -0.4424  0.1042
  703MOL0     C94823   2.658   8.206   1.914 -0.1909 -0.4358 -0.9325
  703MOL0     C94824   2.613   8.301   1.829  0.0678  0.3873 -0.3218
  703MOL0     C94825   2.328   8.568   1.557  0.5017 -0.2565 -0.0760
  703MOL0     C94826   2.198   8.602   1.516 -0.1509 -0.2792 -0.0878
  703MOL0     C94827   2.177   8.714   1.433  0.0014 -0.2141 -0.2718
  703MOL0     C94828   2.288   8.793   1.398  0.0863 -0.5196 -0.4388
  703MOL0     O94829   2.267   8.907   1.310 -0.5907  0.5823  0.9825
  703MOL0     C94830   2.275   9.029   1.376  0.2306  0.6343  1.0726
  703MOL0     C94831   2.185   9.054   1.496 -0.8526  0.1731 -0.0372
  703MOL0     C94832   2.043   9.022   1.470  0.0033  0.0675 -0.4415
  703MOL0     C94833   1.959   9.146   1.437  1.4076 -1.1712 -0.2524
  703MOL0     C94834   1.833   9.117   1.376  0.2803  0.2047 -0.0762
  703MOL0     C94835   1.729   9.081   1.332 -0.7355 -0.4565  0.6800
  703MOL0     C94836   2.416   8.768   1.453 -0.3812  0.0307  0.4709
  703MOL0     C94837   2.438   8.650   1.519 -1.3583  0.1132  0.6315
  703MOL0     H94838   2.282   8.291   1.884 -0.4400 -1.4607  0.7069
  703MOL0     H94839   2.350   8.104   2.004 -2.0699  1.8637 -3.3516
  703MOL0     H94840   2.577   8.141   2.274 -0.4223  1.1709  0.5972
  703MOL0     H94841   2.458   8.014   2.213  1.0448  0.5524 -0.4685
  703MOL0     H94842   2.592   7.842   2.271 -2.2521 -0.0257  0.9719
  703MOL0     H94843   2.740   7.956   2.281  0.3291 -1.6554  3.6433
  703MOL0     H94844   2.621   7.825   2.477  3.4850 -1.2136 -2.1363
  703MOL0     H94845   2.730   7.961   2.501 -0.2419  1.5185 -1.0334
  703MOL0     H94846   2.542   8.122   2.490 -3.0128  0.0974 -1.1363
  703MOL0     H94847   2.431   7.983   2.490 -0.6670  0.3312 -1.2805
  703MOL0     H94848   2.437   8.065   2.715 -0.2159 -1.7914  1.9912
  703MOL0     H94849   2.543   7.927   2.714 -1.8547 -1.2421 -3.5790
  703MOL0     H94850   2.737   8.105   2.668  0.7131  1.5381  0.6360
  703MOL0     H94851   2.609   8.223   2.672  3.7715  1.2884  0.5048
  703MOL0     H94852   2.759   8.199   2.886  0.6191 -1.1960  1.0824
  703MOL0     H94853   2.586   8.206   2.907 -0.0838  1.9773 -1.6929
  703MOL0     H94854   2.583   7.947   2.929  0.5524  0.2324 -1.7248
  703MOL0     H94855   2.655   8.047   3.053 -1.9449  0.8270 -0.3422
  703MOL0     H94856   2.952   8.043   3.019  0.6144 -1.9277  0.2204
  703MOL0     H94857   3.175   7.797   2.921 -2.9186  6.1053 -2.8219
  703MOL0     H94858   3.142   7.923   3.056 -1.2249  0.0832  2.7093
  703MOL0     H94859   3.092   7.624   3.096 -1.4578 -0.0280  0.4809
  703MOL0     H94860   3.076   7.746   3.216  1.0666  2.3151 -0.5397
  703MOL0     H94861   3.318   7.813   3.169 -0.8452  0.3767 -0.3363
  703MOL0     H94862   3.340   7.655   3.089 -2.0024 -0.0281 -1.4620
  703MOL0     H94863   3.397   7.595   3.308  0.0565 -0.9643 -2.2637
  703MOL0     H94864   3.219   7.556   3.296 -1.0087 -0.1445 -2.0821
  703MOL0     H94865   3.499   7.871   3.337 -3.9831 -1.6140 -1.6452
  703MOL0     H94866   3.726   7.921   3.339 -2.3856 -0.9235  0.3741
  703MOL0     H94867   3.739   8.005   3.487 -1.6152 -0.2557 -1.2178
  703MOL0     H94868   3.819   7.842   3.462  1.8471  2.1031  0.8670
  703MOL0     H94869   3.720   8.048   3.868 -0.8578  2.0479  1.0938
  703MOL0     H94870   3.722   8.188   4.085  2.0396  0.6248  1.4803
  703MOL0     H94871   3.709   8.065   4.478  0.4918  0.2844 -0.8380
  703MOL0     H94872   3.871   7.983   4.459  1.6284  0.0227  0.7978
  703MOL0     H94873   3.996   8.181   4.508  0.3394  0.5060 -0.2908
  703MOL0     H94874   3.847   8.279   4.530  0.8668 -0.6763  0.7864
  703MOL0     H94875   3.931   8.037   4.679 -0.5396 -0.3924 -1.7260
  703MOL0     H94876   3.785   8.123   4.708 -0.6038  2.9142  1.2825
  703MOL0     H94877   3.895   8.334   4.764 -1.2249  0.1566  0.2523
  703MOL0     H94878   3.910   8.191   4.877 -3.3560  0.8729 -0.5408
  703MOL0     H94879   4.143   8.230   4.691  1.1586 -4.9132  0.8859
  703MOL0     H94880   4.128   8.156   4.847 -2.7846 -1.5773  0.1603
  703MOL0     H94881   4.120   8.459   4.829 -0.0030 -0.0659 -0.1147
  703MOL0     H94882   4.145   8.360   4.953 -4.3455  0.2781 -0.5585
  703MOL0     H94883   4.346   8.331   4.718 -0.0530 -0.2068 -0.6992
  703MOL0     H94884   4.343   8.255   4.879  1.3280  1.4786  4.0421
  703MOL0     H94885   4.523   8.417   4.873 -0.2946 -4.1630  0.4594
  703MOL0     H94886   4.383   8.457   4.987 -2.8678 -2.3797 -0.5413
  703MOL0     H94887   3.851   7.837   4.287  1.1802 -2.2309 -1.7067
  703MOL0     H94888   3.791   7.705   4.107  3.0765  0.7854  0.2277
  703MOL0     H94889   3.483   7.665   3.784 -0.6596 -1.2107 -0.3964
  703MOL0     H94890   3.306   7.639   3.631 -1.2966  0.4713 -0.7196
  703MOL0     H94891   2.765   8.195   1.925 -0.3696 -1.0367  0.3682
  703MOL0     H94892   2.687   8.348   1.765  1.3367 -0.7392  0.2703
  703MOL0     H94893   2.104   8.552   1.537 -1.6681  2.1999 -0.6824
  703MOL0     H94894   2.072   8.727   1.410  0.2151 -0.3815 -1.3716
  703MOL0     H94895   2.379   9.042   1.407  0.9935  1.1084 -1.4233
  703MOL0     H94896   2.242   9.105   1.304 -2.5844 -0.5515  0.9837
  703MOL0     H94897   2.199   9.160   1.520  2.6007  0.5679 -2.9293
  703MOL0     H94898   2.222   8.994   1.579  4.0863  0.2080 -1.9042
  703MOL0     H94899   1.999   8.969   1.555  0.3013  4.5798  2.9091
  703MOL0     H94900   2.030   8.954   1.385 -0.5688  0.8309 -0.9786
  703MOL0     H94901   2.006   9.201   1.355 -0.7032  0.3585 -0.5198
  703MOL0     H94902   1.944   9.201   1.531 -2.5352 -0.2200 -1.2215
  703MOL0     H94903   1.639   9.056   1.279 -0.7565  0.4228  0.2775
  703MOL0     H94904   2.499   8.829   1.420  1.8401 -1.8918  2.0946
  703MOL0     H94905   2.536   8.621   1.555 -1.2852 -0.1814  0.2059
  704MOL0     O94906   6.498  11.163  11.178 -0.2231  0.4724 -0.9919
  704MOL0     C94907   6.495  11.067  11.255  0.6090  0.0893  0.0411
  704MOL0     O94908   6.582  10.969  11.261  0.5111 -0.5205 -0.6089
  704MOL0     C94909   6.713  11.013  11.243  0.1455  0.2455 -0.1739
  704MOL0     C94910   6.796  10.931  11.165 -0.2771  0.4752  0.0004
  704MOL0     C94911   6.934  10.958  11.148 -0.0532 -1.0360 -0.8876
  704MOL0     C94912   6.993  11.075  11.194  0.2492  0.2595 -0.5578
  704MOL0     O94913   7.112  11.106  11.144  0.0814  0.1072 -0.0682
  704MOL0     C94914   7.201  11.178  11.224  0.1122 -0.5264 -0.7940
  704MOL0     C94915   7.333  11.095  11.224 -0.0652  0.4560 -0.1343
  704MOL0     C94916   7.440  11.174  11.316 -0.4709  0.0615 -0.0019
  704MOL0     C94917   7.412  11.161  11.459  0.2825  0.5022 -0.3195
  704MOL0     C94918   7.482  11.277  11.538  0.8566 -0.7371 -0.4531
  704MOL0     C94919   7.463  11.244  11.697 -0.1173  0.4857  0.5810
  704MOL0     C94920   7.511  11.347  11.807  0.5517  0.4172 -0.3840
  704MOL0     C94921   7.400  11.453  11.837  0.0077 -0.5129 -0.0009
  704MOL0     N94922   7.458  11.576  11.882  0.4722 -0.5373 -0.4229
  704MOL0     C94923   7.530  11.668  11.803  0.4020  0.2220 -0.6573
  704MOL0     C94924   7.582  11.744  11.902 -0.9995 -0.6886 -0.7259
  704MOL0     C94925   7.673  11.865  11.896  1.2021  0.4519 -0.1656
  704MOL0     C94926   7.762  11.867  12.021  0.1928  0.5387 -0.9853
  704MOL0     C94927   7.870  11.957  12.009 -0.2189 -0.9512  0.2251
  704MOL0     C94928   7.961  11.976  12.132 -0.2279  0.3042 -0.3513
  704MOL0     O94929   8.036  12.095  12.106  0.5019 -0.2832  0.3600
  704MOL0     C94930   8.124  12.144  12.205  0.5951 -0.1611  0.8617
  704MOL0     C94931   8.196  12.260  12.169  0.2812  0.1160 -0.5631
  704MOL0     C94932   8.281  12.332  12.247  0.9511 -0.0335 -0.4682
  704MOL0     C94933   8.353  12.460  12.197  0.3878  0.0865 -0.1564
  704MOL0     C94934   8.307  12.277  12.377 -0.7286  0.3731  0.4808
  704MOL0     C94935   8.409  12.327  12.466  0.4990 -0.2850 -0.4213
  704MOL0     O94936   8.370  12.348  12.593  0.1352 -0.3268  0.4246
  704MOL0     C94937   8.444  12.411  12.688  0.0692 -0.9819  0.8091
  704MOL0     C94938   8.570  12.474  12.674  0.6958  0.3880  0.1787
  704MOL0     C94939   8.619  12.563  12.776 -0.1233 -0.0500  1.2823
  704MOL0     C94940   8.557  12.567  12.903  0.8086  0.7106  0.6382
  704MOL0     O94941   8.601  12.633  13.006 -0.2882  0.9457 -0.8289
  704MOL0     C94942   8.628  12.773  12.990 -0.0284  0.6814 -0.2438
  704MOL0     C94943   8.491  12.846  13.003 -0.6697 -0.2418 -0.1538
  704MOL0     C94944   8.470  12.874  13.159 -0.8276 -0.1131 -0.1708
  704MOL0     C94945   8.325  12.867  13.187 -0.4161 -0.2605  0.1391
  704MOL0     C94946   8.301  12.890  13.335 -0.1806 -0.4197  0.7529
  704MOL0     C94947   8.157  12.939  13.365  0.0076  0.4024  0.5558
  704MOL0     C94948   8.060  12.843  13.299  0.5609 -0.0399 -0.2961
  704MOL0     C94949   7.928  12.839  13.364  0.3425 -0.0338 -0.2292
  704MOL0    Cl94950   7.936  12.815  13.546  0.3370 -0.1170  0.2527
  704MOL0     C94951   8.438  12.496  12.922  0.6335  0.2982 -0.0064
  704MOL0     C94952   8.384  12.428  12.810  0.3448 -1.2208 -0.3811
  704MOL0     O94953   8.526  12.345  12.429 -0.3635  0.4098  0.4747
  704MOL0     C94954   8.246  12.157  12.410  0.5191 -0.0366 -0.0784
  704MOL0     C94955   8.147  12.085  12.332 -0.7985 -0.3958 -0.0348
  704MOL0     N94956   7.548  11.698  12.032  0.1915 -0.4085 -0.2140
  704MOL0     N94957   7.481  11.596  12.018 -0.3659 -0.1439  0.9281
  704MOL0     C94958   6.909  11.162  11.270 -0.1558 -0.2890  0.4300
  704MOL0     C94959   6.781  11.128  11.296  0.6530  0.1611  0.0631
  704MOL0     C94960   6.358  11.049  11.315 -0.0225  1.4802 -0.5902
  704MOL0     C94961   6.251  11.138  11.285 -0.7012 -0.0513 -0.3308
  704MOL0     C94962   6.126  11.100  11.323  0.1458 -0.1411 -0.1650
  704MOL0     C94963   6.099  10.981  11.395 -0.1750  0.1727 -0.2960
  704MOL0     O94964   5.962  10.958  11.424  0.4447 -0.2319  0.7752
  704MOL0     C94965   5.914  10.909  11.552 -0.7123 -0.9132 -0.3450
  704MOL0     C94966   5.959  11.001  11.661 -0.5634  0.5648 -0.5822
  704MOL0     C94967   5.892  10.954  11.786  0.1842 -0.1650  0.4692
  704MOL0     C94968   5.892  11.064  11.892  0.0960  0.0840  0.2789
  704MOL0     C94969   6.025  11.117  11.912  0.4569 -0.2231 -0.2554
  704MOL0     C94970   6.135  11.164  11.934  0.3296 -0.7194 -0.0374
  704MOL0     C94971   6.205  10.906  11.431  1.3865  0.5600 -0.2803
  704MOL0     C94972   6.334  10.937  11.388  0.3603 -0.0321  0.2165
  704MOL0     H94973   6.750  10.843  11.122  1.8707  0.5973 -2.8714
  704MOL0     H94974   6.996  10.891  11.089  1.3527 -0.3640 -0.2331
  704MOL0     H94975   7.216  11.276  11.177  1.5901 -0.7034 -0.7558
  704MOL0     H94976   7.158  11.194  11.323  0.3049  3.6726 -1.1931
  704MOL0     H94977   7.312  11.000  11.273  0.3290  0.2448 -0.3717
  704MOL0     H94978   7.369  11.074  11.123 -1.0998 -0.7818 -0.2718
  704MOL0     H94979   7.540  11.139  11.289  0.6290  2.7527  0.2048
  704MOL0     H94980   7.441  11.280  11.285 -2.3334  0.0586 -0.1959
  704MOL0     H94981   7.306  11.160  11.486 -0.8945 -2.5242 -4.1343
  704MOL0     H94982   7.463  11.072  11.499  1.2657  1.1628 -0.0643
  704MOL0     H94983   7.590  11.275  11.522  0.8910 -1.9755 -0.1434
  704MOL0     H94984   7.434  11.374  11.522 -0.5139 -0.2436  4.6188
  704MOL0     H94985   7.362  11.216  11.725  0.3030 -1.4804  0.2558
  704MOL0     H94986   7.518  11.150  11.711 -1.7911 -0.3875  1.5595
  704MOL0     H94987   7.550  11.296  11.895  2.3254  1.2916 -0.6169
  704MOL0     H94988   7.599  11.402  11.771  0.1688  1.6820  0.5352
  704MOL0     H94989   7.329  11.415  11.911  1.5535 -1.6875  0.9394
  704MOL0     H94990   7.356  11.478  11.739  0.7631  2.0179  0.2267
  704MOL0     H94991   7.528  11.675  11.694 -0.6242 -3.3226 -1.0002
  704MOL0     H94992   7.735  11.862  11.806  0.8949  1.0759 -0.4084
  704MOL0     H94993   7.611  11.953  11.876  0.2395 -0.7097 -2.7825
  704MOL0     H94994   7.808  11.768  12.027 -0.3544  0.3115 -0.3361
  704MOL0     H94995   7.716  11.893  12.117 -0.6736  0.0146 -1.2506
  704MOL0     H94996   7.829  12.057  11.998 -1.9075 -1.6728 -0.2898
  704MOL0     H94997   7.931  11.919  11.925  1.0796  0.7324  0.3455
  704MOL0     H94998   8.029  11.891  12.138  0.1077  0.6116  0.4723
  704MOL0     H94999   7.904  11.979  12.225 -3.1692  4.0252 -2.0058
  704MOL0     H95000   8.168  12.287  12.067  2.6814 -0.3321 -1.4123
  704MOL0     H95001   8.319  12.492  12.097  4.0972  0.1560 -1.5341
  704MOL0     H95002   8.339  12.538  12.272  0.9240  0.4996 -0.4805
  704MOL0     H95003   8.459  12.442  12.181  0.0021 -1.0210 -1.8216
  704MOL0     H95004   8.635  12.467  12.587 -0.1516  0.4042 -0.4754
  704MOL0     H95005   8.712  12.618  12.767  0.4142 -1.1846 -1.1706
  704MOL0     H95006   8.687  12.803  13.077 -0.0926  0.1388 -0.0122
  704MOL0     H95007   8.662  12.811  12.893  0.1128 -1.0221 -0.9006
  704MOL0     H95008   8.491  12.943  12.953  1.5806  0.0131  0.2489
  704MOL0     H95009   8.408  12.785  12.965 -1.4991  0.5431  0.3499
  704MOL0     H95010   8.511  12.974  13.180  1.2012 -0.3882 -2.4261
  704MOL0     H95011   8.522  12.804  13.224 -2.2340 -4.2587 -3.0884
  704MOL0     H95012   8.269  12.938  13.125  2.2414  0.3442 -1.7530
  704MOL0     H95013   8.285  12.771  13.155  1.2459 -1.2570  0.8775
  704MOL0     H95014   8.368  12.974  13.355  1.9287 -2.1617  1.4330
  704MOL0     H95015   8.322  12.798  13.390  0.4969 -1.5466 -1.2520
  704MOL0     H95016   8.157  12.950  13.474 -5.1942  2.4314  0.6464
  704MOL0     H95017   8.135  13.040  13.327  3.9376  1.7166  1.2797
  704MOL0     H95018   8.117  12.750  13.300  2.6220  1.1219  1.6737
  704MOL0     H95019   8.035  12.892  13.204  0.5993  1.2484  0.3324
  704MOL0     H95020   7.874  12.758  13.315  1.3242 -0.2321 -1.0126
  704MOL0     H95021   7.872  12.927  13.335 -0.2553  0.4419  2.1393
  704MOL0     H95022   8.380  12.506  13.013 -1.1519 -2.5913 -0.6860
  704MOL0     H95023   8.284  12.389  12.823  0.9825 -2.4655  0.9887
  704MOL0     H95024   8.259  12.107  12.505 -2.2393  0.7131  0.8080
  704MOL0     H95025   8.109  11.993  12.373  0.8705 -0.5837  1.2246
  704MOL0     H95026   6.939  11.263  11.296  2.7133 -0.5985 -1.2885
  704MOL0     H95027   6.711  11.191  11.350  0.5059  0.1972 -0.1669
  704MOL0     H95028   6.265  11.219  11.215  1.5400  0.8620  1.0848
  704MOL0     H95029   6.046  11.160  11.279  0.2177 -0.7115 -1.0968
  704MOL0     H95030   5.805  10.913  11.553 -0.7339 -1.3094 -0.9636
  704MOL0     H95031   5.952  10.809  11.570 -2.1811 -1.7887 -1.7885
  704MOL0     H95032   5.920  11.100  11.640  2.1916  2.2991  1.6671
  704MOL0     H95033   6.068  11.008  11.668 -0.2583 -2.2685 -1.0824
  704MOL0     H95034   5.930  10.854  11.810  0.4265 -0.5203 -1.3013
  704MOL0     H95035   5.788  10.927  11.768  0.1137  0.9671 -1.0495
  704MOL0     H95036   5.845  11.031  11.985  1.4826 -0.7398  0.7138
  704MOL0     H95037   5.825  11.144  11.859 -1.2308  0.1089  2.7849
  704MOL0     H95038   6.237  11.196  11.949 -0.1798  0.3719  1.2317
  704MOL0     H95039   6.179  10.818  11.488  3.2677 -0.1764 -0.5207
  704MOL0     H95040   6.420  10.879  11.419  2.3755  1.4239 -2.2661
  705MOL0     O95041   1.970   2.880  10.414  1.3058  1.1933 -0.4129
  705MOL0     C95042   1.906   2.969  10.363  0.7660 -0.0276 -0.0142
  705MOL0     O95043   1.957   3.081  10.303 -0.7790 -0.1372 -0.3624
  705MOL0     C95044   2.095   3.112  10.307  1.7569 -0.6092  0.1516
  705MOL0     C95045   2.142   3.219  10.231 -0.0762 -1.1191  0.6999
  705MOL0     C95046   2.276   3.260  10.229 -0.0536  0.7115  0.4226
  705MOL0     C95047   2.367   3.199  10.307  0.1695  0.2787  0.4986
  705MOL0     O95048   2.496   3.240  10.299 -0.7513  0.1418 -0.6659
  705MOL0     C95049   2.560   3.230  10.166  0.0587  0.4077 -0.0058
  705MOL0     C95050   2.704   3.200  10.175  1.0512 -0.7011 -0.2353
  705MOL0     C95051   2.732   3.080  10.271  0.1559 -0.1025  0.2181
  705MOL0     C95052   2.881   3.078  10.317  0.6782 -0.2793 -0.8510
  705MOL0     C95053   2.975   2.985  10.227  0.3294  0.7123 -1.3823
  705MOL0     C95054   2.974   3.033  10.082 -0.1058  0.4219  0.5093
  705MOL0     C95055   3.106   2.999  10.010  0.7383 -1.0963 -0.0538
  705MOL0     C95056   3.097   2.987   9.860  0.4339 -0.5049  0.1807
  705MOL0     N95057   3.090   3.123   9.797  0.6792 -0.2987 -0.1314
  705MOL0     C95058   2.987   3.218   9.811  0.0830  1.2559 -0.8076
  705MOL0     C95059   3.043   3.338   9.794  1.1777  0.7767  0.8902
  705MOL0     C95060   2.970   3.471   9.795 -0.1122 -0.0658  0.0349
  705MOL0     C95061   2.989   3.529   9.938  0.0339 -0.2342 -0.2855
  705MOL0     C95062   2.922   3.662   9.936  0.0309 -0.0254  0.2647
  705MOL0     C95063   2.772   3.666   9.878  0.8763  1.0520 -0.5908
  705MOL0     O95064   2.715   3.552   9.945  0.1374 -0.0190  0.3846
  705MOL0     C95065   2.577   3.569   9.962 -0.0299  1.0389 -0.8050
  705MOL0     C95066   2.522   3.625  10.088 -0.3391  0.6708 -0.4512
  705MOL0     C95067   2.384   3.659  10.103 -0.5161  0.6110 -1.0289
  705MOL0     C95068   2.356   3.725  10.248  0.1301 -0.2892  0.5717
  705MOL0     C95069   2.288   3.616  10.006 -0.5977 -0.2067  1.1842
  705MOL0     C95070   2.137   3.639   9.996  0.7667  0.1306  0.0575
  705MOL0     O95071   2.093   3.710  10.109 -0.0975  0.1787  0.4593
  705MOL0     C95072   1.969   3.779  10.108 -0.5288  0.7695  0.8660
  705MOL0     C95073   1.893   3.821   9.989 -0.3812  0.5178 -0.2542
  705MOL0     C95074   1.764   3.864  10.006  0.5160 -0.7005  0.6423
  705MOL0     C95075   1.713   3.890  10.136  0.7054  0.3404 -0.4882
  705MOL0     O95076   1.595   3.947  10.168  0.2873  0.5549 -0.3590
  705MOL0     C95077   1.506   3.989  10.065  0.1053 -0.2231  0.9167
  705MOL0     C95078   1.536   4.125  10.001  0.2405  0.5241  0.1824
  705MOL0     C95079   1.509   4.245  10.093 -0.3111  0.5354 -0.1094
  705MOL0     C95080   1.454   4.353   9.994 -0.7622  0.8863 -0.2127
  705MOL0     C95081   1.396   4.486  10.054 -0.3970  0.9061 -0.8434
  705MOL0     C95082   1.499   4.575  10.116  1.1984  0.3022 -0.2257
  705MOL0     C95083   1.443   4.705  10.173  0.5197  0.1046 -1.0982
  705MOL0     C95084   1.547   4.786  10.245 -0.7433  0.0956  0.1198
  705MOL0    Cl95085   1.582   4.911  10.122 -0.7976  0.4921 -0.3273
  705MOL0     C95086   1.786   3.847  10.248  0.5069  0.9330  0.0401
  705MOL0     C95087   1.915   3.790  10.231  0.6732 -0.9300 -0.2056
  705MOL0     O95088   2.075   3.605   9.891  0.3924 -0.4541  0.5950
  705MOL0     C95089   2.345   3.568   9.884  0.2152  0.8222 -0.8594
  705MOL0     C95090   2.477   3.540   9.863 -0.4942 -0.3785 -0.0477
  705MOL0     N95091   3.170   3.322   9.760 -0.4588 -0.3869 -0.7024
  705MOL0     N95092   3.201   3.196   9.764  0.1052 -0.0901  0.0510
  705MOL0     C95093   2.333   3.098  10.389 -0.3700  0.6018  0.6040
  705MOL0     C95094   2.199   3.048  10.381 -0.4439  0.2557  0.2394
  705MOL0     C95095   1.756   2.967  10.371  0.3090 -0.8638 -0.1976
  705MOL0     C95096   1.676   3.012  10.259  0.2491  0.0940  0.1241
  705MOL0     C95097   1.537   2.976  10.255 -0.5093 -0.3209 -0.0330
  705MOL0     C95098   1.477   2.923  10.372 -0.9844  0.1001 -0.5384
  705MOL0     O95099   1.342   2.915  10.380  0.3417  0.2967 -0.0504
  705MOL0     C95100   1.271   2.899  10.507 -0.0171 -0.5486  0.7896
  705MOL0     C95101   1.149   2.980  10.526  0.7820  0.1330 -0.2433
  705MOL0     C95102   1.074   2.999  10.393 -0.0443 -0.1463  1.4720
  705MOL0     C95103   0.928   3.008  10.415  0.1342  0.2836  0.4702
  705MOL0     C95104   0.874   2.881  10.479 -1.1213 -0.0737  0.6082
  705MOL0     C95105   0.835   2.774  10.533  0.0601 -0.2550 -0.2623
  705MOL0     C95106   1.558   2.879  10.478  0.2584 -0.6736 -0.3184
  705MOL0     C95107   1.696   2.894  10.467 -0.2388 -0.2072 -0.5198
  705MOL0     H95108   2.067   3.261  10.165  0.8024 -2.0891 -0.9825
  705MOL0     H95109   2.297   3.332  10.151 -0.2417  0.1744 -0.1326
  705MOL0     H95110   2.507   3.150  10.113 -2.3861  1.2827  0.9758
  705MOL0     H95111   2.550   3.316  10.100  2.3251  0.6492 -0.1298
  705MOL0     H95112   2.742   3.172  10.076 -2.9027 -0.6795 -1.9440
  705MOL0     H95113   2.759   3.287  10.214  2.5249 -0.3937 -2.7537
  705MOL0     H95114   2.686   3.070  10.370  0.0650 -2.5486 -0.0049
  705MOL0     H95115   2.717   2.985  10.218  0.5514  0.0376 -0.1473
  705MOL0     H95116   2.932   3.176  10.320 -0.5683  0.4080  2.3884
  705MOL0     H95117   2.882   3.048  10.422 -3.7811  0.6423 -0.3433
  705MOL0     H95118   3.078   2.980  10.264  0.0988  0.3951 -0.7768
  705MOL0     H95119   2.946   2.880  10.230  0.4333  0.7064 -0.0703
  705MOL0     H95120   2.892   2.975  10.040 -0.1653  0.7459  0.1728
  705MOL0     H95121   2.947   3.138  10.066 -1.6432 -0.1673 -1.0758
  705MOL0     H95122   3.183   3.075  10.025  1.5809 -1.6891 -1.1875
  705MOL0     H95123   3.142   2.901  10.045  3.0243 -0.0319  0.7844
  705MOL0     H95124   3.005   2.931   9.840  1.6923 -3.1480  1.3215
  705MOL0     H95125   3.189   2.942   9.822  0.8545  1.0284 -0.6786
  705MOL0     H95126   2.883   3.208   9.842  0.9706 -1.3117  1.8548
  705MOL0     H95127   3.018   3.535   9.721  1.1107 -0.6919  0.2606
  705MOL0     H95128   2.869   3.441   9.763  0.2099 -0.5595 -0.5372
  705MOL0     H95129   3.090   3.544   9.977 -1.2809  1.4181  2.8568
  705MOL0     H95130   2.935   3.472  10.014 -2.0208  2.1925  0.2185
  705MOL0     H95131   2.984   3.732   9.881 -1.2183  1.1875  0.3480
  705MOL0     H95132   2.922   3.687  10.043 -0.3978 -2.8130  1.0185
  705MOL0     H95133   2.774   3.651   9.769  1.8677 -5.6991 -0.0853
  705MOL0     H95134   2.718   3.760   9.891 -1.4440  0.0301 -2.0413
  705MOL0     H95135   2.590   3.648  10.169 -0.9572 -1.0316  0.5824
  705MOL0     H95136   2.299   3.818  10.248  0.8784  0.1818  1.4459
  705MOL0     H95137   2.291   3.647  10.290  0.0598 -1.2163 -1.1648
  705MOL0     H95138   2.448   3.745  10.303  2.1727 -1.6099 -2.1093
  705MOL0     H95139   1.937   3.799   9.892  1.1055 -2.4875  0.9618
  705MOL0     H95140   1.704   3.885   9.919  2.4787 -1.1870 -0.8911
  705MOL0     H95141   1.505   3.919   9.980  0.7692 -0.0923  0.7947
  705MOL0     H95142   1.409   3.988  10.116  1.0640 -1.5702  2.8290
  705MOL0     H95143   1.640   4.127   9.966  0.7484  3.9645  1.4808
  705MOL0     H95144   1.474   4.132   9.910  3.2344 -1.6516 -2.2544
  705MOL0     H95145   1.607   4.267  10.137  1.1816 -1.3986 -2.2340
  705MOL0     H95146   1.442   4.224  10.176  0.3761  2.4663  0.9820
  705MOL0     H95147   1.528   4.375   9.917 -1.5445 -0.8230 -1.5220
  705MOL0     H95148   1.374   4.302   9.940 -2.3483  0.5469  2.2783
  705MOL0     H95149   1.314   4.459  10.121 -0.7198  0.6032 -1.3489
  705MOL0     H95150   1.352   4.540   9.970 -3.6992 -0.0786  0.1004
  705MOL0     H95151   1.540   4.512  10.195 -3.9137 -2.4566  0.6954
  705MOL0     H95152   1.571   4.607  10.040 -0.7093  2.4140 -1.2735
  705MOL0     H95153   1.373   4.678  10.252  0.6150 -4.3251 -2.2585
  705MOL0     H95154   1.395   4.765  10.095 -3.4759 -0.1428  0.9139
  705MOL0     H95155   1.630   4.718  10.264 -0.5659  1.0173  3.4742
  705MOL0     H95156   1.512   4.830  10.339  0.6222 -0.1561  0.7793
  705MOL0     H95157   1.743   3.856  10.347 -1.3897  0.4371 -0.6920
  705MOL0     H95158   1.965   3.758  10.322  1.9848  1.7865  0.1205
  705MOL0     H95159   2.283   3.516   9.811  0.7748 -1.5354  0.2471
  705MOL0     H95160   2.511   3.498   9.769  3.2139  2.0063  0.0081
  705MOL0     H95161   2.418   3.061  10.447 -1.4327 -1.8391  0.7230
  705MOL0     H95162   2.183   2.961  10.444  0.5114 -0.2065 -0.1440
  705MOL0     H95163   1.719   3.065  10.174  1.5008 -3.0382 -1.3570
  705MOL0     H95164   1.478   3.001  10.167 -0.3989  1.9866  0.4950
  705MOL0     H95165   1.242   2.793  10.507 -2.4327  0.0522  0.5505
  705MOL0     H95166   1.331   2.913  10.597 -2.7043  2.0136  2.3658
  705MOL0     H95167   1.186   3.075  10.565  1.4425  0.1553 -0.8991
  705MOL0     H95168   1.098   2.933  10.611  0.3166  3.0377  1.2153
  705MOL0     H95169   1.099   2.918  10.323 -2.4102 -2.3216  2.9717
  705MOL0     H95170   1.108   3.093  10.350 -1.1542 -0.0826  0.6995
  705MOL0     H95171   0.894   3.021  10.311  0.2832 -0.2693  0.3478
  705MOL0     H95172   0.890   3.093  10.472 -2.6372 -0.5064 -0.0794
  705MOL0     H95173   0.805   2.681  10.577 -0.8741  0.7096  1.2172
  705MOL0     H95174   1.523   2.831  10.568 -0.0332 -1.3226 -0.7743
  705MOL0     H95175   1.752   2.865  10.555  0.1818 -0.7123 -0.9472
  706MOL0     O95176   1.541   9.309  10.309 -0.5615  0.1522 -0.3286
  706MOL0     C95177   1.460   9.225  10.339 -0.6084  0.4207 -0.5154
  706MOL0     O95178   1.363   9.240  10.437 -0.2373 -0.4600 -0.9627
  706MOL0     C95179   1.351   9.369  10.481  0.3255 -0.5229  0.2539
  706MOL0     C95180   1.441   9.448  10.548 -0.0921  0.7450 -0.7167
  706MOL0     C95181   1.393   9.559  10.617  0.6784 -0.8063  0.2412
  706MOL0     C95182   1.255   9.602  10.601  0.5351 -1.3025 -0.0639
  706MOL0     O95183   1.209   9.722  10.652 -0.2189 -0.8910  0.8989
  706MOL0     C95184   1.166   9.816  10.550 -0.4631 -0.4743 -0.4510
  706MOL0     C95185   1.018   9.853  10.564 -0.2521 -0.2870  0.4165
  706MOL0     C95186   1.001   9.911  10.697  0.8469 -0.0580 -0.6325
  706MOL0     C95187   0.874   9.996  10.704  0.4972 -0.6648  0.0604
  706MOL0     C95188   0.892  10.096  10.815 -0.4127 -0.1267 -0.9246
  706MOL0     C95189   0.766  10.166  10.869 -0.1332  0.8857 -0.2394
  706MOL0     C95190   0.706  10.253  10.769 -0.8368 -1.2658  0.4068
  706MOL0     C95191   0.607  10.353  10.822  0.3844 -0.4787 -0.4339
  706MOL0     N95192   0.477  10.287  10.862 -0.2551 -0.2054 -0.0322
  706MOL0     C95193   0.451  10.208  10.971  0.1505 -0.7622  0.3212
  706MOL0     C95194   0.320  10.200  10.960 -0.2177  1.1950  0.2259
  706MOL0     C95195   0.233  10.130  11.065  0.9582  0.2687  0.5465
  706MOL0     C95196   0.107  10.216  11.101 -0.5211  0.1727  0.2598
  706MOL0     C95197   0.142  10.356  11.165  0.7670 -0.3529 -0.2872
  706MOL0     C95198   0.014  10.433  11.199  0.5525  0.0370 -0.1445
  706MOL0     O95199   0.042  10.546  11.270 -0.1563  0.0054 -0.2225
  706MOL0     C95200  -0.064  10.614  11.339 -0.0872  0.1231 -0.3417
  706MOL0     C95201  -0.196  10.571  11.368 -0.1486 -0.6309  0.0750
  706MOL0     C95202  -0.288  10.647  11.445  0.5310 -0.9546  0.4121
  706MOL0     C95203  -0.417  10.587  11.480  0.1024 -0.1647 -0.7305
  706MOL0     C95204  -0.248  10.784  11.467  0.1930  0.2552 -1.2112
  706MOL0     C95205  -0.342  10.890  11.534  0.0447 -0.3875  0.0737
  706MOL0     O95206  -0.295  10.984  11.620  0.1656 -0.7366 -0.1113
  706MOL0     C95207  -0.388  11.068  11.684 -0.0774  0.8275  0.6798
  706MOL0     C95208  -0.379  11.075  11.825  0.0388 -0.1901 -0.2155
  706MOL0     C95209  -0.461  11.148  11.889 -0.2887 -0.1458 -0.6194
  706MOL0     C95210  -0.555  11.219  11.821  0.1355  0.1177  0.2101
  706MOL0     O95211  -0.649  11.278  11.896  0.5513  0.2962  0.1866
  706MOL0     C95212  -0.615  11.346  12.018  0.3277  0.8647  0.6983
  706MOL0     C95213  -0.701  11.471  12.037 -0.7595  0.2504 -0.9181
  706MOL0     C95214  -0.716  11.556  11.911 -0.0438  0.8583 -0.4313
  706MOL0     C95215  -0.790  11.688  11.936 -0.8910  0.8558  0.4767
  706MOL0     C95216  -0.812  11.775  11.807  0.1832  0.3208  0.3850
  706MOL0     C95217  -0.928  11.734  11.728  0.9041 -0.5058 -0.7777
  706MOL0     C95218  -1.009  11.858  11.677  0.6038  0.1755  0.3594
  706MOL0     C95219  -1.141  11.804  11.628  0.5557  0.2935  0.3773
  706MOL0    Cl95220  -1.240  11.943  11.605  0.0880 -0.1701  0.4239
  706MOL0     C95221  -0.565  11.226  11.684 -0.8934  0.0004 -0.5261
  706MOL0     C95222  -0.480  11.144  11.612  0.8694 -0.0683  0.5124
  706MOL0     O95223  -0.462  10.886  11.488 -0.3150  0.2906  0.7083
  706MOL0     C95224  -0.118  10.823  11.442 -0.6582 -0.2055  0.2281
  706MOL0     C95225  -0.033  10.747  11.369 -0.0992  0.0330 -0.3180
  706MOL0     N95226   0.267  10.247  10.849  0.1953 -0.0702 -0.1619
  706MOL0     N95227   0.360  10.301  10.787 -0.1931 -0.2462 -0.3994
  706MOL0     C95228   1.162   9.521  10.523  0.9755 -0.3322 -0.2099
  706MOL0     C95229   1.215   9.410  10.460  0.1127  0.4171  0.3861
  706MOL0     C95230   1.482   9.109  10.263  0.5548  0.4242  0.2371
  706MOL0     C95231   1.420   8.990  10.308  0.1872 -0.3966 -0.4992
  706MOL0     C95232   1.423   8.864  10.224 -0.1124 -0.4737 -0.1641
  706MOL0     C95233   1.497   8.867  10.105  0.8307 -0.0348 -0.7380
  706MOL0     O95234   1.483   8.746  10.043 -0.3728 -0.3596 -0.3026
  706MOL0     C95235   1.585   8.704   9.949 -1.0099 -0.6705 -0.2999
  706MOL0     C95236   1.623   8.558   9.978 -0.1580  0.0325 -0.3934
  706MOL0     C95237   1.515   8.452   9.948  0.6763  0.8377 -0.2962
  706MOL0     C95238   1.380   8.454  10.034  0.9731 -0.3301  0.1287
  706MOL0     C95239   1.390   8.366  10.145 -0.9989  0.9241 -0.5364
  706MOL0     C95240   1.412   8.279  10.235  0.7196  0.4927 -0.0124
  706MOL0     C95241   1.545   8.986  10.066  0.3172 -0.7587  0.2588
  706MOL0     C95242   1.548   9.104  10.138  0.1697  0.4487  0.3306
  706MOL0     H95243   1.543   9.430  10.581  0.0372  2.2953 -0.2124
  706MOL0     H95244   1.467   9.623  10.665  2.0329 -0.0505 -2.6494
  706MOL0     H95245   1.233   9.901  10.562 -0.9320  0.0163 -1.2218
  706MOL0     H95246   1.182   9.774  10.450  0.0641 -1.8189  0.1615
  706MOL0     H95247   1.012   9.928  10.485  0.3785  0.4551  1.0546
  706MOL0     H95248   0.966   9.758  10.550  1.2995 -1.0057 -0.7102
  706MOL0     H95249   0.990   9.830  10.771 -0.4267  0.6083 -0.0623
  706MOL0     H95250   1.085   9.972  10.730  0.7756 -1.3447  2.2827
  706MOL0     H95251   0.857  10.057  10.614 -0.4602  3.4677  2.7819
  706MOL0     H95252   0.786   9.931  10.710  0.2708 -0.3855 -0.1964
  706MOL0     H95253   0.943  10.042  10.896 -1.2209 -1.2628 -1.1404
  706MOL0     H95254   0.951  10.180  10.779  0.1439  0.0311  0.3039
  706MOL0     H95255   0.697  10.092  10.908 -0.6721  1.5782  0.1536
  706MOL0     H95256   0.797  10.214  10.963  1.3836 -1.5531  0.5883
  706MOL0     H95257   0.778  10.313  10.712 -3.3471  0.9131 -0.6703
  706MOL0     H95258   0.661  10.199  10.685  0.5077 -0.8811 -0.6163
  706MOL0     H95259   0.590  10.421  10.738  3.3799 -0.3391 -1.0472
  706MOL0     H95260   0.654  10.413  10.900  0.5239  0.4766 -1.2259
  706MOL0     H95261   0.516  10.174  11.051  3.5284 -1.1202 -2.3581
  706MOL0     H95262   0.206  10.031  11.029 -0.4180  1.1129 -0.8635
  706MOL0     H95263   0.295  10.105  11.152  1.0197  0.0895  0.4513
  706MOL0     H95264   0.041  10.171  11.176 -0.2768  1.6029  1.4001
  706MOL0     H95265   0.029  10.225  11.024 -2.7688 -0.5806  2.3220
  706MOL0     H95266   0.196  10.420  11.095  1.3726 -2.5001 -1.8969
  706MOL0     H95267   0.201  10.349  11.256 -0.0067  1.5267  0.4074
  706MOL0     H95268  -0.038  10.354  11.253  2.6448 -0.9190  0.5694
  706MOL0     H95269  -0.029  10.459  11.101  2.3118 -0.2405 -1.0351
  706MOL0     H95270  -0.225  10.478  11.319  0.0662  0.1755 -1.6436
  706MOL0     H95271  -0.402  10.485  11.516  3.1117  0.9998  1.8659
  706MOL0     H95272  -0.467  10.646  11.558 -1.0205 -0.5866 -1.1100
  706MOL0     H95273  -0.476  10.588  11.388  0.5778  1.2217 -1.0496
  706MOL0     H95274  -0.311  11.013  11.883 -3.3377 -3.0124  1.0571
  706MOL0     H95275  -0.467  11.146  11.997  0.0209  3.6683 -0.3958
  706MOL0     H95276  -0.616  11.274  12.100 -0.6929 -1.9502 -1.5967
  706MOL0     H95277  -0.513  11.378  11.994 -0.7833  2.5166 -2.4440
  706MOL0     H95278  -0.794  11.443  12.088 -0.1456 -0.7842 -0.3253
  706MOL0     H95279  -0.649  11.534  12.109 -0.4953 -0.1625 -0.7479
  706MOL0     H95280  -0.772  11.500  11.836  3.3112 -1.0984 -1.6577
  706MOL0     H95281  -0.618  11.576  11.869  1.7939 -1.7128  2.2200
  706MOL0     H95282  -0.879  11.656  11.990 -0.4178  0.4275  1.0133
  706MOL0     H95283  -0.727  11.743  12.005  1.8366 -2.1874  0.6590
  706MOL0     H95284  -0.717  11.783  11.754  1.4411  4.2938  2.8200
  706MOL0     H95285  -0.831  11.876  11.845 -0.9609 -0.9241  3.4169
  706MOL0     H95286  -0.906  11.662  11.649  3.0698  0.7269 -1.3657
  706MOL0     H95287  -0.992  11.684  11.801  0.2479  2.1845  0.6487
  706MOL0     H95288  -0.956  11.894  11.589 -1.4358 -2.9615 -2.4040
  706MOL0     H95289  -1.021  11.932  11.756 -0.5548 -2.5179  2.9162
  706MOL0     H95290  -1.193  11.738  11.697 -0.2891 -1.7628 -2.0739
  706MOL0     H95291  -1.134  11.749  11.534 -2.4946 -1.9038  1.2732
  706MOL0     H95292  -0.638  11.293  11.639  1.2754  3.5867  0.9235
  706MOL0     H95293  -0.498  11.138  11.506 -0.0990 -1.1328  0.7188
  706MOL0     H95294  -0.089  10.925  11.468  0.7325 -0.6236  0.3769
  706MOL0     H95295   0.065  10.787  11.345 -0.4532  1.0936 -0.0733
  706MOL0     H95296   1.055   9.539  10.521  1.0846  0.4552 -2.8659
  706MOL0     H95297   1.154   9.343  10.400 -1.5145  1.0776  1.2237
  706MOL0     H95298   1.386   8.985  10.411  1.0087 -3.5176 -0.2743
  706MOL0     H95299   1.383   8.770  10.260  0.2966 -0.5160  0.1900
  706MOL0     H95300   1.543   8.718   9.849  0.2413 -0.4978 -0.8160
  706MOL0     H95301   1.679   8.758   9.963  1.2676 -4.4969  0.7517
  706MOL0     H95302   1.641   8.551  10.086 -0.7656  2.1662 -0.1117
  706MOL0     H95303   1.718   8.547   9.925  1.2186  0.4399  1.8303
  706MOL0     H95304   1.563   8.353   9.947 -1.7296 -0.4124 -0.1251
  706MOL0     H95305   1.477   8.477   9.849  3.1971 -1.0974 -1.8791
  706MOL0     H95306   1.295   8.410   9.982  0.5104  1.4900 -0.7255
  706MOL0     H95307   1.356   8.556  10.065 -1.9046  0.0106 -2.7138
  706MOL0     H95308   1.424   8.204  10.311 -0.5936 -0.7837 -1.0186
  706MOL0     H95309   1.604   8.978   9.975 -1.7214 -1.0944 -1.1082
  706MOL0     H95310   1.587   9.196  10.097 -0.6316 -0.0326 -1.6369
  707MOL0     O95311   8.224   8.615   6.744 -0.2066 -0.1019 -0.9340
  707MOL0     C95312   8.132   8.687   6.708 -0.9757 -0.5142 -0.3893
  707MOL0     O95313   8.048   8.747   6.801 -0.3118  0.5271  1.0585
  707MOL0     C95314   8.024   8.678   6.912 -0.0650  0.9766  0.5853
  707MOL0     C95315   7.972   8.557   6.932  0.4099  0.1800 -0.1013
  707MOL0     C95316   7.935   8.523   7.062  0.2483  1.1989 -0.6082
  707MOL0     C95317   7.957   8.609   7.175  0.4819 -0.6590  0.4895
  707MOL0     O95318   7.901   8.583   7.297  0.1781  0.1172  0.2926
  707MOL0     C95319   7.959   8.488   7.390  0.5500  0.2666  0.7490
  707MOL0     C95320   7.949   8.522   7.535 -1.4882  0.4440  0.6260
  707MOL0     C95321   8.051   8.433   7.614 -0.0020 -0.2373  0.2023
  707MOL0     C95322   8.078   8.511   7.745  0.8179 -0.1068 -0.9123
  707MOL0     C95323   8.206   8.472   7.821  0.8934  0.9576  0.5393
  707MOL0     C95324   8.226   8.535   7.953 -0.2697  0.6864 -0.0592
  707MOL0     C95325   8.351   8.490   8.032  1.2996  0.1288 -0.3741
  707MOL0     C95326   8.372   8.585   8.152  0.3228  0.2455  0.2211
  707MOL0     N95327   8.509   8.574   8.215 -0.5274  0.1541 -0.8459
  707MOL0     C95328   8.573   8.665   8.295 -1.3962 -0.5014 -0.4833
  707MOL0     C95329   8.704   8.628   8.304 -0.1080  0.3412  0.0378
  707MOL0     C95330   8.819   8.691   8.372 -0.3511  0.1881  0.4392
  707MOL0     C95331   8.796   8.784   8.497 -0.3940  0.1935 -0.0229
  707MOL0     C95332   8.910   8.879   8.534  0.1742 -0.3903  0.2267
  707MOL0     C95333   9.026   8.805   8.591  0.6267  0.1474 -0.2824
  707MOL0     O95334   9.154   8.881   8.596  0.5948 -0.4389  0.4524
  707MOL0     C95335   9.219   8.908   8.484  0.4662 -0.4403  0.5377
  707MOL0     C95336   9.326   8.992   8.498 -0.4120  0.2026 -0.1170
  707MOL0     C95337   9.403   9.038   8.385  0.1016  0.1324 -0.3108
  707MOL0     C95338   9.519   9.131   8.404 -0.7996  1.5012 -0.1387
  707MOL0     C95339   9.368   8.983   8.252 -0.3565  0.5667 -0.1715
  707MOL0     C95340   9.452   9.022   8.133 -0.8657  0.6471 -0.1058
  707MOL0     O95341   9.495   9.151   8.118 -0.1298 -0.4041 -0.9887
  707MOL0     C95342   9.580   9.177   8.024 -0.1720 -0.5475  0.8161
  707MOL0     C95343   9.553   9.176   7.888 -0.7151 -0.0444  1.1467
  707MOL0     C95344   9.642   9.185   7.799 -0.4135 -0.1205  1.6233
  707MOL0     C95345   9.780   9.210   7.827  0.5205  0.3646  0.3589
  707MOL0     O95346   9.876   9.249   7.737 -0.6665 -0.1753 -0.4227
  707MOL0     C95347   9.828   9.315   7.613 -0.0493 -0.3080  0.2395
  707MOL0     C95348   9.817   9.216   7.504  0.0346 -0.0918  0.4141
  707MOL0     C95349   9.719   9.257   7.385  0.3795  0.0122  0.8016
  707MOL0     C95350   9.784   9.363   7.297 -0.6337  0.6620  0.2440
  707MOL0     C95351   9.698   9.389   7.176 -0.0573  0.4403 -0.5274
  707MOL0     C95352   9.774   9.489   7.083  0.2488  0.3974 -0.6659
  707MOL0     C95353   9.731   9.483   6.933  0.8621 -0.3498  0.4707
  707MOL0     C95354   9.775   9.599   6.836  0.1009 -0.5913  0.0445
  707MOL0    Cl95355   9.659   9.612   6.707 -0.0850 -0.1862 -0.0270
  707MOL0     C95356   9.812   9.217   7.963  0.1504 -0.0454  0.5986
  707MOL0     C95357   9.714   9.198   8.054  0.1335  0.2075 -0.4954
  707MOL0     O95358   9.476   8.931   8.051  0.0506 -0.2014 -0.2201
  707MOL0     C95359   9.253   8.893   8.241  0.5525  0.5894  0.3118
  707MOL0     C95360   9.181   8.855   8.357  0.1213 -0.2761 -0.0768
  707MOL0     N95361   8.723   8.510   8.235  0.7966  0.5052  0.1805
  707MOL0     N95362   8.607   8.480   8.189 -0.3688 -0.1119 -0.6936
  707MOL0     C95363   8.012   8.729   7.150 -0.3769 -0.3973  0.7257
  707MOL0     C95364   8.055   8.764   7.020  0.4399 -0.4322 -0.7625
  707MOL0     C95365   8.125   8.743   6.572  0.8310 -0.3536  0.4836
  707MOL0     C95366   8.239   8.726   6.481  0.5721 -0.4263 -0.9598
  707MOL0     C95367   8.223   8.745   6.346 -2.0610  0.2004 -0.0618
  707MOL0     C95368   8.102   8.790   6.292  0.6622 -0.5226  1.5373
  707MOL0     O95369   8.092   8.816   6.150  0.0566  0.7347 -0.0882
  707MOL0     C95370   7.969   8.776   6.092  0.1342  0.0584 -0.4958
  707MOL0     C95371   7.862   8.883   6.072  0.3385 -0.2152 -0.4281
  707MOL0     C95372   7.918   9.016   6.009  0.1063  0.6938 -0.4261
  707MOL0     C95373   7.809   9.106   5.947 -1.0265  0.2064 -0.5623
  707MOL0     C95374   7.848   9.249   5.952  0.3313  0.6657  0.2962
  707MOL0     C95375   7.866   9.361   5.990  0.4096 -0.7348  1.1536
  707MOL0     C95376   7.995   8.809   6.381  0.5979  0.8295 -0.4889
  707MOL0     C95377   8.010   8.793   6.519  0.2358  0.1070 -0.2277
  707MOL0     H95378   7.945   8.491   6.851  1.3075 -0.2328 -0.0660
  707MOL0     H95379   7.871   8.436   7.074  1.1754  0.6016  0.1680
  707MOL0     H95380   7.911   8.391   7.376 -2.3513  1.2196  2.9156
  707MOL0     H95381   8.065   8.474   7.366  0.8773 -1.4210  2.9008
  707MOL0     H95382   7.977   8.626   7.553  5.6468 -0.3670 -2.3761
  707MOL0     H95383   7.849   8.509   7.578 -0.8089 -0.0416  2.1206
  707MOL0     H95384   8.005   8.336   7.632  2.1873 -1.5534 -0.8156
  707MOL0     H95385   8.148   8.424   7.563 -1.3853  0.0651 -2.7122
  707MOL0     H95386   8.091   8.617   7.719 -1.5388 -0.0177 -2.0160
  707MOL0     H95387   7.982   8.500   7.797 -0.1948  3.7951 -1.6211
  707MOL0     H95388   8.201   8.364   7.842 -3.4160  0.5942 -1.3823
  707MOL0     H95389   8.296   8.485   7.760 -0.1507  0.3117 -1.2011
  707MOL0     H95390   8.238   8.639   7.921  2.5006  0.2683 -0.6113
  707MOL0     H95391   8.140   8.517   8.018  1.7338 -1.3275  2.2000
  707MOL0     H95392   8.329   8.384   8.043 -3.5305  0.6044 -2.6449
  707MOL0     H95393   8.441   8.506   7.971  0.8010  1.8350 -0.7120
  707MOL0     H95394   8.292   8.557   8.221 -0.0074 -2.5511 -1.1647
  707MOL0     H95395   8.345   8.688   8.126 -1.2883  0.2559  1.6844
  707MOL0     H95396   8.532   8.749   8.350  3.4646  2.1917 -0.4701
  707MOL0     H95397   8.889   8.610   8.393 -1.3726 -1.6187 -2.5614
  707MOL0     H95398   8.872   8.759   8.306 -0.0498  0.1721  0.6639
  707MOL0     H95399   8.769   8.719   8.581  1.9015 -4.8526 -2.7747
  707MOL0     H95400   8.714   8.849   8.463 -0.8125  0.5700  1.6047
  707MOL0     H95401   8.867   8.941   8.613  2.1996 -0.3618  1.3808
  707MOL0     H95402   8.944   8.941   8.451 -3.1877  2.0267  0.4275
  707MOL0     H95403   9.045   8.712   8.538 -0.1441 -0.1433 -0.0623
  707MOL0     H95404   8.986   8.777   8.689  0.4205 -0.8348 -0.6361
  707MOL0     H95405   9.369   9.037   8.587 -0.4395 -0.3454  0.1809
  707MOL0     H95406   9.602   9.104   8.339 -1.7189  4.3040 -2.7527
  707MOL0     H95407   9.491   9.231   8.367 -3.9033 -0.1124 -2.6981
  707MOL0     H95408   9.548   9.140   8.509 -3.3275  0.5919  0.7254
  707MOL0     H95409   9.451   9.157   7.856 -0.8418  1.8790  0.2509
  707MOL0     H95410   9.620   9.170   7.693  4.0014 -2.4376  0.8145
  707MOL0     H95411   9.734   9.369   7.627  0.8908  1.3200  0.6391
  707MOL0     H95412   9.909   9.386   7.589  3.7465 -3.7227  1.8222
  707MOL0     H95413   9.909   9.181   7.455 -0.8103 -1.9804  0.0843
  707MOL0     H95414   9.772   9.124   7.543  2.0353 -0.9419  0.8752
  707MOL0     H95415   9.626   9.303   7.420 -0.7462 -1.9463  0.5094
  707MOL0     H95416   9.688   9.172   7.323 -0.0802 -0.5769  1.8117
  707MOL0     H95417   9.795   9.453   7.358  0.1578  0.1513  0.8919
  707MOL0     H95418   9.882   9.321   7.270 -2.0791 -1.6656 -1.7973
  707MOL0     H95419   9.604   9.419   7.223  1.7865  1.1921  3.0433
  707MOL0     H95420   9.670   9.292   7.134  0.9989 -0.3271  0.4691
  707MOL0     H95421   9.780   9.590   7.125  0.4984  0.2376 -0.3115
  707MOL0     H95422   9.880   9.463   7.083 -0.3620 -2.5243  0.5153
  707MOL0     H95423   9.623   9.497   6.924  1.0628  1.8525  1.0650
  707MOL0     H95424   9.754   9.389   6.882  2.5248 -0.1304  0.7887
  707MOL0     H95425   9.872   9.567   6.795  0.2979  0.8009 -0.6506
  707MOL0     H95426   9.785   9.697   6.883 -2.2958  0.5379 -1.6197
  707MOL0     H95427   9.906   9.251   8.005 -0.2418  2.9953 -0.7809
  707MOL0     H95428   9.751   9.204   8.156  2.2492 -0.9490 -1.1159
  707MOL0     H95429   9.229   8.845   8.146  2.0452 -2.1300  1.2042
  707MOL0     H95430   9.092   8.793   8.351 -0.3648  0.5114 -1.6239
  707MOL0     H95431   8.019   8.808   7.223 -2.2735  1.7175 -1.2255
  707MOL0     H95432   8.100   8.859   6.994  2.2376 -0.9990  0.1102
  707MOL0     H95433   8.336   8.725   6.530 -0.2731  3.5105  1.2565
  707MOL0     H95434   8.304   8.730   6.276 -0.5138  1.3418  1.4205
  707MOL0     H95435   7.975   8.741   5.989 -2.1515  3.1303 -1.8239
  707MOL0     H95436   7.925   8.699   6.156  0.1436 -0.6351 -1.3081
  707MOL0     H95437   7.814   8.909   6.167  1.4876  0.3324  0.0313
  707MOL0     H95438   7.776   8.840   6.019 -1.7170  0.2520  2.2985
  707MOL0     H95439   7.997   8.983   5.941 -1.8854  0.3688 -2.7661
  707MOL0     H95440   7.970   9.071   6.088 -0.9279 -2.5944  2.7794
  707MOL0     H95441   7.724   9.101   6.015 -2.5298 -0.9963 -2.4491
  707MOL0     H95442   7.784   9.073   5.846 -1.1929  1.3429 -0.9047
  707MOL0     H95443   7.879   9.464   6.015 -1.7522 -0.4196  1.2240
  707MOL0     H95444   7.899   8.839   6.340 -0.1582 -1.1135 -0.2333
  707MOL0     H95445   7.919   8.809   6.576 -0.4848 -0.1006 -1.2964
  708MOL0     O95446   5.849   0.268   0.512  0.6635  0.0795  0.1356
  708MOL0     C95447   5.841   0.149   0.510  0.1097 -0.4657 -0.2683
  708MOL0     O95448   5.937   0.060   0.480 -0.2617  0.5462  0.5898
  708MOL0     C95449   6.057   0.114   0.431  0.1694 -0.7354 -0.8839
  708MOL0     C95450   6.052   0.188   0.313 -0.6545  0.3965  0.0945
  708MOL0     C95451   6.170   0.253   0.265 -0.1779  0.4096 -0.2325
  708MOL0     C95452   6.290   0.241   0.342  0.1967 -0.4365  1.2101
  708MOL0     O95453   6.402   0.302   0.288 -0.2186 -0.6370  0.7846
  708MOL0     C95454   6.426   0.294   0.143  0.0839  0.3606  0.6767
  708MOL0     C95455   6.574   0.302   0.102  0.2018  0.2660  0.5558
  708MOL0     C95456   6.639   0.433   0.151 -0.5054 -0.1997 -0.0303
  708MOL0     C95457   6.786   0.450   0.092  0.6612  0.1234 -0.2979
  708MOL0     C95458   6.825   0.602   0.064 -0.0626 -0.2115  0.2767
  708MOL0     C95459   6.853   0.699   0.184 -0.8945 -0.2240 -0.2117
  708MOL0     C95460   6.937   0.649   0.304 -0.4790 -0.4515 -1.1796
  708MOL0     C95461   6.954   0.758   0.417  0.4320  0.9446 -0.5852
  708MOL0     N95462   6.821   0.793   0.472 -0.2112 -0.1733 -0.4091
  708MOL0     C95463   6.748   0.731   0.563 -0.7013  1.0819  0.0043
  708MOL0     C95464   6.650   0.818   0.594 -1.7654  0.8089 -0.4672
  708MOL0     C95465   6.529   0.785   0.686  0.2911 -0.2211 -0.5554
  708MOL0     C95466   6.401   0.732   0.616  0.4255 -0.0990 -0.6407
  708MOL0     C95467   6.422   0.604   0.527 -1.0770  0.6928  0.6555
  708MOL0     C95468   6.458   0.474   0.610 -0.9245  1.1608  0.7054
  708MOL0     O95469   6.596   0.448   0.622 -0.6605  0.3088 -0.1057
  708MOL0     C95470   6.636   0.333   0.689  0.5126  0.1422 -0.0877
  708MOL0     C95471   6.549   0.243   0.764  0.1742 -0.5155  0.6278
  708MOL0     C95472   6.607   0.139   0.841 -0.1420 -1.4533  0.1029
  708MOL0     C95473   6.514   0.026   0.880  0.3687 -0.0304 -0.6170
  708MOL0     C95474   6.740   0.120   0.847 -0.5729 -0.2491  0.1230
  708MOL0     C95475   6.804   0.035   0.944  0.0342  0.5619  0.5420
  708MOL0     O95476   6.733  -0.022   1.056 -1.0023  0.2437  0.0390
  708MOL0     C95477   6.777  -0.118   1.136 -0.0148  0.5564 -0.5906
  708MOL0     C95478   6.810  -0.250   1.096 -0.4659  0.5488  0.1498
  708MOL0     C95479   6.833  -0.356   1.196 -0.1572 -1.1485  0.0645
  708MOL0     C95480   6.843  -0.320   1.335  0.5800 -0.0958 -0.2624
  708MOL0     O95481   6.897  -0.409   1.420 -0.0279  0.0487 -0.1528
  708MOL0     C95482   7.012  -0.362   1.494  0.2300 -0.0850 -0.9143
  708MOL0     C95483   7.080  -0.484   1.554 -0.7670  0.5862 -0.1182
  708MOL0     C95484   7.182  -0.449   1.672  0.8267  0.5157 -0.0213
  708MOL0     C95485   7.313  -0.407   1.612 -0.4457 -0.9463  0.5046
  708MOL0     C95486   7.390  -0.317   1.701  0.5353 -0.0773  1.0717
  708MOL0     C95487   7.459  -0.403   1.795 -1.0535  1.4237  0.5219
  708MOL0     C95488   7.560  -0.318   1.884  0.4134  0.0261  0.4376
  708MOL0     C95489   7.627  -0.386   2.004  0.8035 -0.1052  0.8700
  708MOL0    Cl95490   7.761  -0.468   1.945  0.0166 -0.2953 -0.2053
  708MOL0     C95491   6.808  -0.193   1.369 -0.0500 -0.1098 -0.1347
  708MOL0     C95492   6.778  -0.098   1.275  0.9626 -0.5899 -0.7591
  708MOL0     O95493   6.919  -0.002   0.912 -0.4474  0.1743 -0.0755
  708MOL0     C95494   6.816   0.198   0.758 -0.1190 -0.5659 -0.1060
  708MOL0     C95495   6.769   0.306   0.683  1.0589 -0.5454 -0.5254
  708MOL0     N95496   6.672   0.938   0.519  1.2965 -0.3627  0.0603
  708MOL0     N95497   6.775   0.916   0.452 -0.5865  0.8401  0.2426
  708MOL0     C95498   6.290   0.166   0.460 -0.4966  0.4410 -0.9034
  708MOL0     C95499   6.171   0.100   0.508 -0.0180 -0.1373 -0.8188
  708MOL0     C95500   5.707   0.088   0.526  0.2757  0.4421 -0.4516
  708MOL0     C95501   5.597   0.163   0.580 -0.7191  0.1262  0.5494
  708MOL0     C95502   5.474   0.103   0.613  0.0077 -0.1656 -0.0647
  708MOL0     C95503   5.458  -0.031   0.590 -0.5037  0.1408  0.2970
  708MOL0     O95504   5.336  -0.096   0.607 -0.0547 -0.5053  0.5788
  708MOL0     C95505   5.281  -0.088   0.741  0.3907  0.5993 -0.3800
  708MOL0     C95506   5.200  -0.216   0.760  0.1949  0.1677 -0.3176
  708MOL0     C95507   5.102  -0.215   0.874  0.7050 -0.2996  0.0856
  708MOL0     C95508   5.151  -0.204   1.012 -0.0492  0.1148 -0.0738
  708MOL0     C95509   5.234  -0.313   1.054 -0.0607 -0.4053 -0.3250
  708MOL0     C95510   5.303  -0.391   1.104 -0.3199  0.4249  0.3769
  708MOL0     C95511   5.562  -0.110   0.533  0.2567 -0.5374  0.0104
  708MOL0     C95512   5.682  -0.051   0.508 -0.1100 -0.2579 -0.2255
  708MOL0     H95513   5.954   0.197   0.267 -0.7964  0.0675  0.3282
  708MOL0     H95514   6.158   0.306   0.171  0.6524 -0.3369 -0.7689
  708MOL0     H95515   6.397   0.194   0.111 -1.8366 -0.8603  5.3293
  708MOL0     H95516   6.365   0.364   0.085 -1.1441 -1.2689 -0.0669
  708MOL0     H95517   6.629   0.219   0.148 -0.2414 -0.0905  0.4542
  708MOL0     H95518   6.574   0.279  -0.005  1.2112 -1.8460  0.9535
  708MOL0     H95519   6.563   0.505   0.119 -2.0117 -0.1902  3.1789
  708MOL0     H95520   6.637   0.442   0.260 -0.2039 -0.4341 -0.0059
  708MOL0     H95521   6.846   0.385   0.157 -1.4933 -1.1391  0.5490
  708MOL0     H95522   6.793   0.388   0.002  0.9371 -2.3052  1.2838
  708MOL0     H95523   6.918   0.615   0.007  0.0999  2.2632  0.9630
  708MOL0     H95524   6.752   0.649  -0.002 -0.3446 -4.1090 -2.5107
  708MOL0     H95525   6.908   0.772   0.124  0.3238 -1.9042 -1.2116
  708MOL0     H95526   6.763   0.746   0.224  0.0626  2.1779 -0.6996
  708MOL0     H95527   6.873   0.567   0.337 -1.0661 -0.1837 -1.6285
  708MOL0     H95528   7.029   0.599   0.273  1.6865  2.2558  0.4003
  708MOL0     H95529   7.015   0.843   0.387 -0.7690  3.0992  2.5472
  708MOL0     H95530   7.014   0.701   0.489 -0.8718 -3.1483 -2.4216
  708MOL0     H95531   6.770   0.627   0.583  0.9916  1.1402 -1.3008
  708MOL0     H95532   6.568   0.712   0.759  1.0298 -0.8708 -1.5745
  708MOL0     H95533   6.500   0.882   0.727 -1.4798 -1.1083  0.4530
  708MOL0     H95534   6.354   0.805   0.549 -3.7404 -1.6990  0.2372
  708MOL0     H95535   6.324   0.715   0.692  0.9258 -1.6324 -0.4656
  708MOL0     H95536   6.503   0.625   0.456 -0.6005  0.1119  1.0224
  708MOL0     H95537   6.328   0.591   0.473 -2.1348  2.2019  2.0267
  708MOL0     H95538   6.411   0.392   0.556 -0.6065  0.6564  1.1824
  708MOL0     H95539   6.419   0.472   0.713 -0.5583 -3.2258  0.9669
  708MOL0     H95540   6.443   0.265   0.758 -0.1906 -2.3276 -0.6577
  708MOL0     H95541   6.570  -0.067   0.893  1.3747  0.8610  2.0305
  708MOL0     H95542   6.470   0.039   0.978  1.0670 -0.2753 -0.2618
  708MOL0     H95543   6.438  -0.001   0.806 -1.3663 -3.1866  2.0977
  708MOL0     H95544   6.814  -0.288   0.994 -1.1555 -1.7327  0.9054
  708MOL0     H95545   6.843  -0.458   1.161  0.0532 -0.8524 -0.7677
  708MOL0     H95546   7.088  -0.318   1.428 -0.3291 -1.2097 -2.3649
  708MOL0     H95547   6.979  -0.284   1.563 -1.8183 -0.7185 -1.1057
  708MOL0     H95548   7.004  -0.543   1.606 -0.9980  0.7597 -0.2571
  708MOL0     H95549   7.124  -0.547   1.475 -3.4638 -0.8686 -0.5719
  708MOL0     H95550   7.195  -0.545   1.722 -2.4082 -0.2957 -0.5448
  708MOL0     H95551   7.126  -0.371   1.724 -2.9193  0.4440 -3.4207
  708MOL0     H95552   7.375  -0.489   1.575  0.7456  0.2373 -0.1711
  708MOL0     H95553   7.300  -0.346   1.523  2.0080 -0.7121  0.2373
  708MOL0     H95554   7.330  -0.235   1.740 -2.7815 -2.1734  0.7761
  708MOL0     H95555   7.470  -0.275   1.639 -1.2641  2.7166  0.5015
  708MOL0     H95556   7.387  -0.445   1.866 -0.8114 -0.1503 -0.1443
  708MOL0     H95557   7.520  -0.482   1.750 -0.1684  3.2402 -1.6644
  708MOL0     H95558   7.486  -0.254   1.933 -0.7406 -0.2679 -0.8726
  708MOL0     H95559   7.629  -0.266   1.817 -0.3237 -0.3002 -0.5851
  708MOL0     H95560   7.561  -0.453   2.060  1.2091 -3.0776 -1.9308
  708MOL0     H95561   7.666  -0.306   2.068 -1.5261  1.8376 -0.0021
  708MOL0     H95562   6.810  -0.158   1.472 -0.1668  1.7406 -0.7355
  708MOL0     H95563   6.756   0.002   1.310  0.1178 -1.6465  1.9459
  708MOL0     H95564   6.923   0.196   0.741 -0.0176  2.5788 -0.5991
  708MOL0     H95565   6.834   0.368   0.622  1.1393  0.0389  0.1469
  708MOL0     H95566   6.387   0.162   0.507 -1.1692 -0.2030  0.4894
  708MOL0     H95567   6.174   0.049   0.604 -0.4595  0.0977 -0.6773
  708MOL0     H95568   5.622   0.265   0.607  0.4171 -0.5454  2.2303
  708MOL0     H95569   5.393   0.151   0.667 -0.9162 -1.9383  0.1765
  708MOL0     H95570   5.364  -0.070   0.810  0.6828  1.4944 -0.9402
  708MOL0     H95571   5.224   0.004   0.728  4.3589  3.1151 -2.1094
  708MOL0     H95572   5.271  -0.292   0.794 -1.9616 -1.5280  0.6452
  708MOL0     H95573   5.150  -0.244   0.667 -1.3110 -0.6312  0.6969
  708MOL0     H95574   5.038  -0.304   0.873  0.6884 -0.2962  0.6061
  708MOL0     H95575   5.029  -0.136   0.857  0.4162 -0.8018 -1.1172
  708MOL0     H95576   5.063  -0.189   1.076  0.5433  0.3217  0.7030
  708MOL0     H95577   5.212  -0.114   1.005  2.0671 -1.3084 -0.8207
  708MOL0     H95578   5.344  -0.468   1.166 -0.9810  0.1050  0.4200
  708MOL0     H95579   5.557  -0.218   0.523 -1.5143 -0.3748 -1.2596
  708MOL0     H95580   5.763  -0.115   0.472 -0.9032 -1.3582 -0.1020
  709MOL0     O95581   8.214   3.884   5.664 -0.6654 -0.5894 -0.0743
  709MOL0     C95582   8.116   3.952   5.638 -0.3242 -0.3370 -0.6532
  709MOL0     O95583   7.988   3.906   5.617 -0.1650  0.0337  0.9111
  709MOL0     C95584   7.959   3.775   5.610  0.0679  0.2430 -0.0295
  709MOL0     C95585   7.950   3.703   5.730 -0.2705 -0.2549  0.0653
  709MOL0     C95586   7.897   3.568   5.722 -0.2132  0.0709  0.7507
  709MOL0     C95587   7.857   3.504   5.596 -0.0865 -0.1334 -0.1337
  709MOL0     O95588   7.788   3.381   5.599  0.1705  0.2605 -0.1765
  709MOL0     C95589   7.826   3.295   5.497 -0.5897 -0.2547 -0.6209
  709MOL0     C95590   7.804   3.146   5.537  0.2467  0.2357  1.7271
  709MOL0     C95591   7.870   3.117   5.674  0.1621 -0.3578  0.6921
  709MOL0     C95592   7.884   2.964   5.694 -0.3829 -0.2775  0.8326
  709MOL0     C95593   7.954   2.942   5.833  0.8594 -0.4838  0.0137
  709MOL0     C95594   8.109   2.935   5.812 -0.2768  0.4484  0.2474
  709MOL0     C95595   8.205   2.865   5.910 -0.6886  0.0825 -0.2508
  709MOL0     C95596   8.358   2.853   5.854  0.2462  1.9384  0.2649
  709MOL0     N95597   8.411   2.974   5.788  0.4968 -0.0299 -0.1554
  709MOL0     C95598   8.450   3.099   5.847  0.7383  0.9150 -0.0842
  709MOL0     C95599   8.467   3.179   5.737 -0.7999  0.1149 -0.0638
  709MOL0     C95600   8.516   3.330   5.725  0.2500  0.0889 -0.3763
  709MOL0     C95601   8.399   3.426   5.684 -0.9729  0.7989  0.2091
  709MOL0     C95602   8.310   3.373   5.575 -0.8524 -0.2767 -0.3701
  709MOL0     C95603   8.242   3.486   5.494  0.0017  0.3744 -0.4472
  709MOL0     O95604   8.166   3.423   5.387  0.8269  0.0442  0.4521
  709MOL0     C95605   8.124   3.499   5.283  0.0469  0.2202  0.2297
  709MOL0     C95606   8.149   3.635   5.262  1.0145 -0.7290  0.2888
  709MOL0     C95607   8.075   3.702   5.162  0.0277  1.5361 -0.4655
  709MOL0     C95608   8.071   3.846   5.147 -0.4967  0.2807  0.7041
  709MOL0     C95609   7.997   3.627   5.071 -0.3810 -0.0804  0.2697
  709MOL0     C95610   7.922   3.687   4.957  0.6938  0.6698 -0.5727
  709MOL0     O95611   7.898   3.597   4.849  0.3120  0.7758  0.5788
  709MOL0     C95612   7.799   3.617   4.752  0.6183  0.1114 -0.2955
  709MOL0     C95613   7.731   3.736   4.707  0.7424  0.3620 -0.6584
  709MOL0     C95614   7.608   3.728   4.633 -0.4022  0.0685 -0.3028
  709MOL0     C95615   7.560   3.603   4.581  0.5520 -0.8095 -0.8289
  709MOL0     O95616   7.449   3.608   4.496 -0.1171  0.0238 -0.2357
  709MOL0     C95617   7.377   3.487   4.469  0.2935 -0.3222  0.5088
  709MOL0     C95618   7.262   3.452   4.577 -0.0526  0.5449 -0.5383
  709MOL0     C95619   7.190   3.580   4.603  0.1088 -0.2474  0.6024
  709MOL0     C95620   7.068   3.545   4.700  0.7466 -0.0611 -0.1359
  709MOL0     C95621   6.962   3.667   4.697  0.5436  1.0176 -0.1308
  709MOL0     C95622   7.025   3.799   4.752  0.2941  0.4120  0.5312
  709MOL0     C95623   7.069   3.803   4.902 -0.3193 -0.0246  0.5670
  709MOL0     C95624   6.975   3.747   5.009 -0.3086  0.8907  0.2140
  709MOL0    Cl95625   6.825   3.842   4.988 -0.2597  0.3509 -0.4874
  709MOL0     C95626   7.626   3.487   4.614  0.1609  0.2041 -0.7810
  709MOL0     C95627   7.746   3.492   4.697 -0.1934  0.2965  0.3851
  709MOL0     O95628   7.861   3.797   4.978  0.3612  0.5660  0.3703
  709MOL0     C95629   7.990   3.492   5.078  0.7717  1.3866  0.1024
  709MOL0     C95630   8.045   3.434   5.185 -0.9805  1.4833  0.0549
  709MOL0     N95631   8.467   3.098   5.626 -0.0976  0.2366 -0.3992
  709MOL0     N95632   8.420   2.984   5.652  0.1292  0.4309  0.3169
  709MOL0     C95633   7.866   3.593   5.472 -0.2646  1.3521 -0.2101
  709MOL0     C95634   7.934   3.713   5.490  0.4928 -0.2773  0.7163
  709MOL0     C95635   8.148   4.094   5.601 -0.1143  0.2583 -0.1904
  709MOL0     C95636   8.274   4.131   5.550  0.8685 -0.0638  0.3684
  709MOL0     C95637   8.278   4.259   5.497 -0.9149 -1.5241 -0.2234
  709MOL0     C95638   8.180   4.358   5.507  0.3869 -0.5739 -0.2312
  709MOL0     O95639   8.184   4.492   5.460  0.0996  0.5672 -0.7844
  709MOL0     C95640   8.263   4.523   5.342 -0.7604  0.0783  0.1506
  709MOL0     C95641   8.380   4.619   5.375  0.6675 -0.9880 -0.2868
  709MOL0     C95642   8.357   4.742   5.465  0.9146  0.1477  0.0949
  709MOL0     C95643   8.330   4.870   5.389 -0.8614 -1.2289  0.1337
  709MOL0     C95644   8.449   4.910   5.303  0.0096  0.6549  0.5913
  709MOL0     C95645   8.540   4.942   5.233  0.0471 -0.0307  0.2861
  709MOL0     C95646   8.068   4.315   5.580  0.0671 -0.3272 -0.0159
  709MOL0     C95647   8.046   4.188   5.621  0.0030  1.0442  0.1588
  709MOL0     H95648   7.968   3.758   5.821  2.8228  0.0191 -0.6085
  709MOL0     H95649   7.894   3.501   5.807  0.4782 -2.4316 -1.0403
  709MOL0     H95650   7.791   3.321   5.397 -0.4475  0.1806 -0.5619
  709MOL0     H95651   7.935   3.303   5.485 -0.6482 -0.7585 -1.5791
  709MOL0     H95652   7.699   3.115   5.541  0.6234 -2.0606 -1.6662
  709MOL0     H95653   7.851   3.082   5.462  1.1302  3.3067 -0.5717
  709MOL0     H95654   7.972   3.156   5.667  0.8083 -2.0174  0.5371
  709MOL0     H95655   7.808   3.159   5.753 -0.7146 -1.2117  0.4748
  709MOL0     H95656   7.783   2.922   5.686 -0.9316  1.3789 -3.2407
  709MOL0     H95657   7.938   2.920   5.610 -2.9788  1.0278 -1.7061
  709MOL0     H95658   7.926   3.022   5.903  0.7282 -0.9740  0.5311
  709MOL0     H95659   7.913   2.855   5.884  1.9172 -0.1907  1.4434
  709MOL0     H95660   8.130   2.879   5.721  0.3535  2.1121 -0.6674
  709MOL0     H95661   8.138   3.040   5.800 -0.5120  0.4488 -0.3545
  709MOL0     H95662   8.200   2.914   6.007 -0.8174 -0.8572  0.2324
  709MOL0     H95663   8.162   2.765   5.922 -2.5277  0.5638 -2.1778
  709MOL0     H95664   8.350   2.771   5.781 -1.6499  1.6416  0.7591
  709MOL0     H95665   8.421   2.828   5.940 -2.1250 -0.4100  1.4588
  709MOL0     H95666   8.456   3.125   5.952  2.8120 -3.0414  0.9758
  709MOL0     H95667   8.554   3.371   5.819  3.6051  0.5193 -1.8100
  709MOL0     H95668   8.597   3.336   5.652 -0.0922 -3.8065 -1.2725
  709MOL0     H95669   8.455   3.515   5.654  4.9457 -2.4932 -0.0748
  709MOL0     H95670   8.329   3.439   5.767 -3.8367 -1.4530 -1.6473
  709MOL0     H95671   8.248   3.290   5.610 -0.1026 -0.5152  0.4126
  709MOL0     H95672   8.382   3.342   5.499 -1.5629 -0.6661 -0.9010
  709MOL0     H95673   8.322   3.554   5.462 -0.0082  0.1272 -1.0214
  709MOL0     H95674   8.180   3.541   5.564 -0.3286 -1.6875  0.9683
  709MOL0     H95675   8.198   3.697   5.337 -0.7398  2.8495 -1.2680
  709MOL0     H95676   7.977   3.878   5.194 -0.5833  1.8837 -0.4540
  709MOL0     H95677   8.157   3.900   5.189 -0.2208 -0.9983  1.8408
  709MOL0     H95678   8.076   3.877   5.042 -1.0703  1.7669  1.0930
  709MOL0     H95679   7.773   3.832   4.732  0.2841  0.6266 -0.8954
  709MOL0     H95680   7.549   3.816   4.610 -4.5957 -2.4994 -0.4053
  709MOL0     H95681   7.332   3.497   4.370 -1.0455  0.4817  1.1794
  709MOL0     H95682   7.445   3.404   4.445  1.0735  0.6933 -0.9002
  709MOL0     H95683   7.190   3.373   4.554 -1.4409  1.4183  0.6118
  709MOL0     H95684   7.314   3.420   4.667 -0.4222 -1.7754 -1.0849
  709MOL0     H95685   7.141   3.614   4.511 -3.5346 -0.3715  2.3097
  709MOL0     H95686   7.256   3.649   4.657  1.5873 -1.9560  1.0715
  709MOL0     H95687   7.015   3.453   4.674  0.2093 -0.3737  1.8505
  709MOL0     H95688   7.104   3.522   4.801  2.6552 -4.9635 -1.6036
  709MOL0     H95689   6.877   3.625   4.752  1.0577  1.6481  1.1871
  709MOL0     H95690   6.927   3.695   4.598 -0.9338 -0.3658 -0.0568
  709MOL0     H95691   7.111   3.833   4.694 -0.5511  2.3330  0.3338
  709MOL0     H95692   6.954   3.882   4.749  0.6851  0.8142  1.8584
  709MOL0     H95693   7.092   3.908   4.923 -3.4718  0.6582  0.9713
  709MOL0     H95694   7.161   3.743   4.906 -0.3842 -0.0707  1.5638
  709MOL0     H95695   7.016   3.758   5.110 -1.9121  1.3589  0.8523
  709MOL0     H95696   6.960   3.639   4.999  1.1455  0.2666  3.4787
  709MOL0     H95697   7.599   3.387   4.580 -0.7753  0.6497 -1.3859
  709MOL0     H95698   7.791   3.397   4.724  0.4913  0.2209 -0.9564
  709MOL0     H95699   7.939   3.423   5.011  2.6457  1.2162 -1.2161
  709MOL0     H95700   8.044   3.325   5.186  2.3950  1.3381  1.3142
  709MOL0     H95701   7.814   3.568   5.381  1.3273  2.6295 -1.5339
  709MOL0     H95702   7.954   3.776   5.403  0.6867  3.0348  2.9873
  709MOL0     H95703   8.353   4.057   5.544  0.1237 -1.0842  2.1829
  709MOL0     H95704   8.364   4.283   5.436 -0.7971  0.1619  0.5627
  709MOL0     H95705   8.296   4.434   5.287 -1.7699  1.3404 -2.6588
  709MOL0     H95706   8.197   4.570   5.270 -1.0024 -1.7348 -0.8609
  709MOL0     H95707   8.419   4.653   5.279 -2.6477 -1.0041 -1.7659
  709MOL0     H95708   8.456   4.561   5.429  1.9875  0.9898  0.1036
  709MOL0     H95709   8.447   4.748   5.527  1.6133 -0.2298 -0.8526
  709MOL0     H95710   8.271   4.730   5.532 -0.1830 -2.8469 -1.6736
  709MOL0     H95711   8.311   4.953   5.458  0.7452 -0.7591  0.0523
  709MOL0     H95712   8.239   4.853   5.331 -0.7365  1.4879 -0.9900
  709MOL0     H95713   8.616   4.965   5.161 -2.1897  0.9764 -1.8918
  709MOL0     H95714   7.990   4.385   5.610 -1.3393 -1.5872 -0.6227
  709MOL0     H95715   7.949   4.162   5.662  0.3587  1.1110  1.0657
  710MOL0     O95716   5.091   1.681   1.480  0.6847  0.1920 -0.0250
  710MOL0     C95717   5.084   1.802   1.488  0.8311  0.7862 -0.5634
  710MOL0     O95718   5.048   1.898   1.398 -0.7562 -0.2288  0.2665
  710MOL0     C95719   5.004   1.861   1.278  0.5215  0.2750  0.2567
  710MOL0     C95720   4.877   1.888   1.218  1.0421  0.2643 -0.4732
  710MOL0     C95721   4.844   1.861   1.084  0.6164  0.5210  0.2106
  710MOL0     C95722   4.936   1.789   0.999  0.2906 -0.2759 -0.9931
  710MOL0     O95723   4.896   1.777   0.865 -0.6353 -0.2696  0.1439
  710MOL0     C95724   4.982   1.715   0.775 -0.1849  1.2330  0.3685
  710MOL0     C95725   4.909   1.690   0.647  0.5118 -0.8133  0.5649
  710MOL0     C95726   5.005   1.672   0.530 -0.0832 -0.2250  0.4153
  710MOL0     C95727   4.948   1.629   0.401 -0.7944  1.3035  0.2717
  710MOL0     C95728   4.897   1.480   0.410 -0.4492 -0.2657  0.6911
  710MOL0     C95729   5.013   1.384   0.390 -0.0450 -0.1927 -0.9697
  710MOL0     C95730   4.953   1.245   0.338 -0.9570 -0.3945 -0.5904
  710MOL0     C95731   4.930   1.156   0.456  0.2697  0.1822 -0.0030
  710MOL0     N95732   4.796   1.162   0.525  0.5340 -0.4806  0.2454
  710MOL0     C95733   4.777   1.104   0.652 -0.2316 -0.4873 -0.1641
  710MOL0     C95734   4.646   1.109   0.677 -0.8648 -0.3102  0.2637
  710MOL0     C95735   4.571   1.053   0.788  0.1098 -0.8332 -0.5554
  710MOL0     C95736   4.580   1.157   0.894  0.0060  0.5664 -1.3455
  710MOL0     C95737   4.571   1.109   1.039  0.0615 -0.0935 -0.1345
  710MOL0     C95738   4.434   1.066   1.086  0.3089 -0.0647  0.6970
  710MOL0     O95739   4.435   0.999   1.214 -0.1644 -1.5457 -0.2552
  710MOL0     C95740   4.395   0.866   1.210  0.1039  0.6362  0.5752
  710MOL0     C95741   4.269   0.824   1.252  0.2352 -0.3137 -0.2247
  710MOL0     C95742   4.252   0.683   1.266 -0.3510 -0.5210 -0.5302
  710MOL0     C95743   4.121   0.616   1.299 -1.0862  0.6902  0.2673
  710MOL0     C95744   4.367   0.590   1.248  0.1297 -0.3052 -1.8607
  710MOL0     C95745   4.355   0.436   1.274 -0.2017 -0.1877 -0.0678
  710MOL0     O95746   4.298   0.394   1.390  0.0013 -0.9868 -0.3323
  710MOL0     C95747   4.229   0.275   1.394  0.6626 -0.4387  0.3185
  710MOL0     C95748   4.151   0.260   1.512  0.1845 -0.6490 -0.4625
  710MOL0     C95749   4.065   0.150   1.535  0.4139  0.3140 -0.3974
  710MOL0     C95750   4.063   0.042   1.444 -0.6605  0.6824 -0.7711
  710MOL0     O95751   3.997  -0.072   1.463  0.1895 -0.5736 -0.1041
  710MOL0     C95752   3.954  -0.101   1.596 -0.5859  1.1175  0.0563
  710MOL0     C95753   3.980  -0.252   1.638  0.4319 -0.4206  0.5830
  710MOL0     C95754   4.126  -0.286   1.629 -0.5338  1.2227 -0.4830
  710MOL0     C95755   4.179  -0.390   1.732  0.7252  0.3756 -0.9021
  710MOL0     C95756   4.324  -0.417   1.713 -0.0879  0.2066  1.0364
  710MOL0     C95757   4.410  -0.288   1.762 -0.3681  0.9506  1.1442
  710MOL0     C95758   4.411  -0.271   1.915 -0.2185 -0.5551  0.5039
  710MOL0     C95759   4.473  -0.131   1.937  0.4462 -0.0951 -0.5284
  710MOL0    Cl95760   4.646  -0.133   1.909  0.1784 -0.0894 -0.2361
  710MOL0     C95761   4.133   0.059   1.322 -0.6510  0.7355  0.8700
  710MOL0     C95762   4.207   0.182   1.297 -0.8229 -0.3396  0.3251
  710MOL0     O95763   4.396   0.360   1.185  0.1289  0.2352 -0.3821
  710MOL0     C95764   4.488   0.643   1.194  0.0459 -0.6443 -0.1239
  710MOL0     C95765   4.493   0.779   1.162  0.0449 -0.2450  0.1560
  710MOL0     N95766   4.583   1.154   0.570  0.4465  0.4974 -0.1168
  710MOL0     N95767   4.678   1.185   0.481  0.2492 -0.5486  0.5669
  710MOL0     C95768   5.060   1.757   1.062  1.0015 -0.2580  0.1294
  710MOL0     C95769   5.091   1.783   1.199  0.1594 -0.2606  1.2399
  710MOL0     C95770   5.146   1.856   1.612  0.3980 -0.3956  0.4320
  710MOL0     C95771   5.103   1.977   1.670  0.1580  1.2542 -0.2607
  710MOL0     C95772   5.171   2.025   1.786 -0.4541 -0.4483 -0.5447
  710MOL0     C95773   5.275   1.956   1.838 -0.7138  0.3242 -0.4295
  710MOL0     O95774   5.356   2.007   1.943 -0.3177 -0.1666  0.2846
  710MOL0     C95775   5.316   2.116   2.024 -0.9129  0.0121 -0.2292
  710MOL0     C95776   5.435   2.145   2.114  0.4569 -0.6162 -0.5603
  710MOL0     C95777   5.403   2.133   2.263  0.3883  0.2776 -0.7538
  710MOL0     C95778   5.531   2.161   2.352 -0.2023 -0.6113  0.7594
  710MOL0     C95779   5.515   2.294   2.413  0.2628 -0.0862 -0.0997
  710MOL0     C95780   5.503   2.401   2.461  0.7511  0.5186  0.6718
  710MOL0     C95781   5.313   1.834   1.780 -0.2353 -0.7814 -0.0727
  710MOL0     C95782   5.243   1.784   1.671  0.3645 -0.5394  0.9500
  710MOL0     H95783   4.799   1.935   1.278  0.2256 -3.1645  1.4271
  710MOL0     H95784   4.754   1.891   1.032  2.2242  1.6690 -2.1184
  710MOL0     H95785   5.078   1.768   0.766 -0.3921  1.3830 -1.2723
  710MOL0     H95786   5.014   1.614   0.803 -0.8088  1.4252  1.8340
  710MOL0     H95787   4.848   1.601   0.664 -1.0625  0.6251  3.0470
  710MOL0     H95788   4.841   1.771   0.623  0.8926 -1.0832 -1.6642
  710MOL0     H95789   5.061   1.766   0.525 -2.1617  1.0411 -3.1854
  710MOL0     H95790   5.072   1.591   0.560 -1.4249 -1.3193  0.5457
  710MOL0     H95791   4.874   1.701   0.364  1.6770  2.3912 -3.1141
  710MOL0     H95792   5.023   1.646   0.323 -0.2838  4.7096  1.3372
  710MOL0     H95793   4.853   1.453   0.506  0.6986  1.1948  1.6566
  710MOL0     H95794   4.821   1.454   0.335  2.2988 -4.6913 -0.9583
  710MOL0     H95795   5.078   1.418   0.309  0.5690 -3.3517 -1.9271
  710MOL0     H95796   5.087   1.377   0.471  2.4530  1.0671 -2.9922
  710MOL0     H95797   4.859   1.260   0.285 -1.0759  1.3572  0.0609
  710MOL0     H95798   5.033   1.195   0.281  0.8115 -0.2698  1.6332
  710MOL0     H95799   5.010   1.138   0.529 -1.2915 -1.6862  1.3543
  710MOL0     H95800   4.934   1.055   0.415  0.1204 -0.8685  2.3739
  710MOL0     H95801   4.862   1.066   0.709  0.8283  0.2804 -1.1878
  710MOL0     H95802   4.471   1.036   0.747  0.0591 -1.3119 -0.2438
  710MOL0     H95803   4.614   0.957   0.820  1.4864  0.5193  1.9653
  710MOL0     H95804   4.496   1.227   0.887 -1.9122 -1.1028  2.2254
  710MOL0     H95805   4.671   1.217   0.891  0.4142  0.0838  0.2250
  710MOL0     H95806   4.616   1.180   1.109 -2.4560  1.4238  0.0521
  710MOL0     H95807   4.635   1.020   1.043  1.3345  0.8236  0.7595
  710MOL0     H95808   4.392   1.004   1.006  4.5096 -0.8468 -1.1985
  710MOL0     H95809   4.384   1.162   1.104  2.2672  1.4845 -1.3939
  710MOL0     H95810   4.184   0.881   1.286 -0.0130 -1.9285  2.0559
  710MOL0     H95811   4.144   0.559   1.389  0.3237  0.9818  0.1278
  710MOL0     H95812   4.039   0.685   1.320 -1.0741  0.8219 -0.0983
  710MOL0     H95813   4.099   0.538   1.226 -0.2965 -1.2590  2.0317
  710MOL0     H95814   4.163   0.339   1.586  0.0282  1.5166 -2.6169
  710MOL0     H95815   4.007   0.166   1.625  1.3294  0.0595  0.2496
  710MOL0     H95816   4.003  -0.044   1.675  4.2983 -0.7874 -1.2144
  710MOL0     H95817   3.846  -0.087   1.595 -0.7987  0.1925  2.6074
  710MOL0     H95818   3.935  -0.261   1.738  1.0924  0.2812  0.9534
  710MOL0     H95819   3.925  -0.324   1.577  1.3504  0.5271 -1.4679
  710MOL0     H95820   4.180  -0.193   1.648 -0.2057  0.6858  1.3874
  710MOL0     H95821   4.156  -0.310   1.526 -0.5343 -0.5146 -0.1088
  710MOL0     H95822   4.156  -0.358   1.834 -1.3215 -1.0354 -0.8611
  710MOL0     H95823   4.129  -0.486   1.723  0.8935  0.4055 -2.4604
  710MOL0     H95824   4.337  -0.431   1.605 -2.4918  1.1051  0.5658
  710MOL0     H95825   4.366  -0.504   1.765 -1.1085 -0.4877  0.7275
  710MOL0     H95826   4.514  -0.293   1.727 -0.6235  2.1918  0.1216
  710MOL0     H95827   4.371  -0.199   1.712  0.0619  0.8520  0.6229
  710MOL0     H95828   4.472  -0.343   1.970  1.8208  2.0789  1.9576
  710MOL0     H95829   4.312  -0.256   1.957  0.9882  2.0203  2.7775
  710MOL0     H95830   4.453  -0.108   2.042  0.7200 -0.3977 -0.4091
  710MOL0     H95831   4.430  -0.055   1.872  0.7287  0.4491 -0.0854
  710MOL0     H95832   4.145  -0.024   1.253 -1.7077  3.3525 -2.7973
  710MOL0     H95833   4.250   0.197   1.198  2.9811  1.9806  2.0864
  710MOL0     H95834   4.574   0.584   1.165 -0.1573 -1.2957  0.5722
  710MOL0     H95835   4.584   0.827   1.126 -1.5256  4.8312  2.0002
  710MOL0     H95836   5.133   1.705   1.001 -0.9476 -1.0425 -1.6615
  710MOL0     H95837   5.191   1.751   1.228  0.1793 -1.2980  0.1283
  710MOL0     H95838   5.028   2.033   1.615 -1.2858  1.4605  1.8063
  710MOL0     H95839   5.137   2.120   1.826 -2.7411  0.5001 -4.1957
  710MOL0     H95840   5.292   2.196   1.953 -1.6293  1.4873  1.5963
  710MOL0     H95841   5.231   2.092   2.087  0.5214 -0.6405  1.5442
  710MOL0     H95842   5.470   2.246   2.092  0.0387 -0.0767  1.1120
  710MOL0     H95843   5.520   2.080   2.092  1.8759 -0.4472  3.5595
  710MOL0     H95844   5.372   2.028   2.273  0.0660  0.5132  1.0768
  710MOL0     H95845   5.322   2.197   2.298 -1.5016 -0.2907 -3.7187
  710MOL0     H95846   5.615   2.153   2.283 -2.6102 -5.3283 -2.2071
  710MOL0     H95847   5.531   2.081   2.427 -1.7529 -3.1384 -1.7020
  710MOL0     H95848   5.504   2.494   2.515  0.4980  0.6955  0.3738
  710MOL0     H95849   5.389   1.778   1.834 -0.8079 -1.8618 -0.3525
  710MOL0     H95850   5.284   1.686   1.645 -0.3293 -0.7018  0.4365
  711MOL0     O95851   1.997   3.578  10.798  0.4675  0.4915  0.0402
  711MOL0     C95852   1.964   3.607  10.685 -1.5555  0.2696  0.9167
  711MOL0     O95853   2.051   3.601  10.575 -0.6633  0.0735  0.1314
  711MOL0     C95854   2.188   3.607  10.588 -0.1543  0.4765  1.0317
  711MOL0     C95855   2.239   3.718  10.654 -0.5961 -0.2694  0.2578
  711MOL0     C95856   2.373   3.742  10.657  0.2615  0.4578  0.3116
  711MOL0     C95857   2.460   3.646  10.596  0.4951  0.2781  0.6647
  711MOL0     O95858   2.600   3.659  10.586 -0.9698 -0.5366 -0.1121
  711MOL0     C95859   2.658   3.788  10.609  0.0097  0.5300  0.4663
  711MOL0     C95860   2.757   3.820  10.497 -0.4734 -0.2250  0.0592
  711MOL0     C95861   2.870   3.718  10.478  0.2450  0.8052 -0.1503
  711MOL0     C95862   2.945   3.675  10.604 -0.4234 -0.9424  0.9529
  711MOL0     C95863   3.050   3.792  10.645 -0.2275  0.5110 -0.4095
  711MOL0     C95864   3.052   3.825  10.796 -0.4351  0.3882  1.1179
  711MOL0     C95865   3.133   3.722  10.870 -0.1440  1.0751  0.0237
  711MOL0     C95866   3.118   3.724  11.018  0.1314  0.0671 -1.1191
  711MOL0     N95867   3.214   3.639  11.085 -0.2407  0.5429  0.1597
  711MOL0     C95868   3.342   3.677  11.120  0.5846 -0.5885  0.0969
  711MOL0     C95869   3.387   3.574  11.187 -0.8071  0.3168  0.8145
  711MOL0     C95870   3.522   3.570  11.244 -0.2165 -0.1974  0.4473
  711MOL0     C95871   3.580   3.700  11.307  0.6957  0.2279 -0.6747
  711MOL0     C95872   3.715   3.663  11.372  0.4964 -0.3286 -0.2084
  711MOL0     C95873   3.783   3.784  11.422  0.5737  0.4569  0.1094
  711MOL0     O95874   3.895   3.760  11.503  0.4200  0.5309 -0.0166
  711MOL0     C95875   4.024   3.738  11.467 -0.2386 -0.5245  0.8261
  711MOL0     C95876   4.128   3.768  11.557  0.4662 -0.1466  0.2160
  711MOL0     C95877   4.268   3.755  11.533  0.1736  0.3387  0.9077
  711MOL0     C95878   4.360   3.795  11.641 -0.4080 -0.1923 -0.6265
  711MOL0     C95879   4.311   3.708  11.406  1.0420  0.3310 -0.2602
  711MOL0     C95880   4.459   3.691  11.365 -0.3112  0.4088  0.2543
  711MOL0     O95881   4.489   3.636  11.240  1.3995  0.3467 -0.5155
  711MOL0     C95882   4.610   3.654  11.174  0.6566 -0.7091  0.6780
  711MOL0     C95883   4.740   3.628  11.232 -0.4278  0.2341  0.3117
  711MOL0     C95884   4.852   3.662  11.149 -0.7895  0.6517 -1.0527
  711MOL0     C95885   4.837   3.691  11.013  0.1606  0.7064 -0.9444
  711MOL0     O95886   4.946   3.691  10.925  0.2302  0.6249 -0.3371
  711MOL0     C95887   5.068   3.741  10.970 -0.6388  0.5292 -0.5831
  711MOL0     C95888   5.159   3.620  10.994  0.5530  0.2498 -0.9467
  711MOL0     C95889   5.204   3.538  10.880 -0.3460  0.1717 -0.2811
  711MOL0     C95890   5.323   3.435  10.908  0.2847 -0.5378  0.2616
  711MOL0     C95891   5.382   3.387  10.773 -0.0357 -0.7635  0.4283
  711MOL0     C95892   5.478   3.271  10.766 -0.2405  0.0662 -0.2240
  711MOL0     C95893   5.592   3.277  10.859 -0.1998 -0.8799 -0.0591
  711MOL0     C95894   5.564   3.259  11.008 -0.1389 -0.2217 -0.5048
  711MOL0    Cl95895   5.573   3.081  11.050  0.0269 -0.1685 -0.0496
  711MOL0     C95896   4.709   3.708  10.963 -0.0361 -0.4512 -0.4994
  711MOL0     C95897   4.598   3.691  11.037  1.1402  1.1845  0.2562
  711MOL0     O95898   4.546   3.726  11.441  0.2865 -0.6453  0.4847
  711MOL0     C95899   4.212   3.699  11.311 -0.1975  0.4454  0.0299
  711MOL0     C95900   4.074   3.710  11.335  0.2372 -0.0424 -1.5073
  711MOL0     N95901   3.289   3.479  11.205  0.1833  0.1461  0.1808
  711MOL0     N95902   3.181   3.521  11.148 -0.1751 -0.4596  0.6455
  711MOL0     C95903   2.411   3.532  10.534 -0.1676 -0.8524 -0.1377
  711MOL0     C95904   2.269   3.510  10.533 -1.5470  1.6804 -0.1882
  711MOL0     C95905   1.829   3.654  10.639 -0.4218  0.4393  0.6850
  711MOL0     C95906   1.780   3.618  10.512  0.8139  1.2714 -0.5552
  711MOL0     C95907   1.656   3.664  10.471 -0.0515 -0.0445  0.4655
  711MOL0     C95908   1.577   3.741  10.553 -0.0571 -0.4934 -0.0335
  711MOL0     O95909   1.462   3.802  10.505 -0.1256 -0.1384 -0.5000
  711MOL0     C95910   1.394   3.733  10.398  0.0332 -0.5121 -0.7969
  711MOL0     C95911   1.247   3.768  10.386 -0.3006 -0.1691 -0.3657
  711MOL0     C95912   1.226   3.909  10.344  1.8110 -0.6150  1.3576
  711MOL0     C95913   1.116   3.979  10.428 -0.2911  0.0892 -0.8346
  711MOL0     C95914   0.984   3.946  10.397  0.4354 -0.3171  0.6688
  711MOL0     C95915   0.873   3.902  10.379 -0.1140 -0.0467 -0.0248
  711MOL0     C95916   1.633   3.791  10.679  1.1477 -0.0197  0.3886
  711MOL0     C95917   1.759   3.744  10.718  0.5166  0.6243  0.0883
  711MOL0     H95918   2.168   3.797  10.679 -2.0991 -0.1040 -3.7518
  711MOL0     H95919   2.408   3.836  10.697  1.6067 -0.7129  2.0661
  711MOL0     H95920   2.584   3.868  10.602  0.0443  0.5041 -0.4157
  711MOL0     H95921   2.704   3.792  10.708  0.0785  0.7361  0.4266
  711MOL0     H95922   2.710   3.845  10.402 -3.8805 -1.8477  1.1584
  711MOL0     H95923   2.806   3.917  10.512 -0.9848  0.1522 -0.6268
  711MOL0     H95924   2.821   3.624  10.452 -0.6757  0.6217  2.0649
  711MOL0     H95925   2.940   3.743  10.398  0.9577  1.5137  0.6708
  711MOL0     H95926   2.876   3.658  10.687 -2.0442  0.7733  0.0363
  711MOL0     H95927   3.000   3.581  10.596  1.9264  0.4785 -1.3010
  711MOL0     H95928   3.155   3.766  10.628  0.4213 -0.3280  3.7682
  711MOL0     H95929   3.030   3.886  10.592  1.0783 -0.8844 -3.6338
  711MOL0     H95930   3.098   3.918  10.831  0.8813 -0.1199  0.7810
  711MOL0     H95931   2.951   3.808  10.836 -1.1126  1.6916  0.0252
  711MOL0     H95932   3.083   3.628  10.846 -1.0932  1.4776  0.4110
  711MOL0     H95933   3.234   3.691  10.840 -0.0595 -0.9806  2.1982
  711MOL0     H95934   3.025   3.672  11.043  0.4371 -0.6663 -1.4644
  711MOL0     H95935   3.118   3.826  11.057 -0.7627 -1.1366  2.3307
  711MOL0     H95936   3.401   3.763  11.093  0.7668 -0.2668  1.4549
  711MOL0     H95937   3.529   3.498  11.326  1.4793 -0.6556 -0.0576
  711MOL0     H95938   3.586   3.524  11.168 -4.2128 -2.2574 -2.0378
  711MOL0     H95939   3.504   3.732  11.379  0.7866 -0.5124 -0.2445
  711MOL0     H95940   3.607   3.772  11.228  0.9365  0.4735 -0.3732
  711MOL0     H95941   3.785   3.622  11.299  0.7559  3.5863 -2.4380
  711MOL0     H95942   3.688   3.605  11.461  2.9631 -2.3064 -0.6431
  711MOL0     H95943   3.712   3.841  11.482 -0.7530 -0.9702 -0.0230
  711MOL0     H95944   3.803   3.848  11.336 -3.0941 -1.1915 -2.2438
  711MOL0     H95945   4.082   3.791  11.652  0.4694  0.0275  0.1768
  711MOL0     H95946   4.422   3.714  11.680  1.1778 -0.4678 -3.4058
  711MOL0     H95947   4.418   3.878  11.599 -0.6679  0.7740  0.8680
  711MOL0     H95948   4.291   3.823  11.721 -2.3873 -3.3679 -1.0668
  711MOL0     H95949   4.745   3.590  11.333 -0.9466  3.2667  1.5689
  711MOL0     H95950   4.952   3.646  11.190 -0.7805  0.2399 -1.2265
  711MOL0     H95951   5.116   3.804  10.894  1.4657 -0.8363 -0.4654
  711MOL0     H95952   5.051   3.803  11.058 -2.7779 -0.9802  0.1277
  711MOL0     H95953   5.236   3.662  11.059 -0.5435 -2.2465  2.2576
  711MOL0     H95954   5.105   3.548  11.056 -0.0701 -0.4815 -2.2857
  711MOL0     H95955   5.218   3.607  10.796  4.0188  1.6211  1.3178
  711MOL0     H95956   5.118   3.473  10.861  0.2210 -0.4032 -0.9804
  711MOL0     H95957   5.397   3.502  10.953 -1.6425  1.9872 -0.1285
  711MOL0     H95958   5.282   3.355  10.972  2.2607 -0.7965  1.2826
  711MOL0     H95959   5.437   3.475  10.737  0.9469 -0.5454  2.3237
  711MOL0     H95960   5.308   3.366  10.696  1.1716  1.0920 -1.3657
  711MOL0     H95961   5.426   3.175  10.775 -0.8931  0.3479 -0.8224
  711MOL0     H95962   5.518   3.270  10.664 -0.8160  0.8567 -0.4674
  711MOL0     H95963   5.647   3.370  10.844 -1.5219  1.2144  5.5012
  711MOL0     H95964   5.652   3.191  10.828 -1.0370 -1.4975 -0.0168
  711MOL0     H95965   5.465   3.287  11.044 -0.0487 -1.4020  0.7377
  711MOL0     H95966   5.641   3.313  11.064  1.1866  0.6163 -2.9499
  711MOL0     H95967   4.701   3.737  10.858  0.9076  2.6365  0.1890
  711MOL0     H95968   4.502   3.727  11.000  1.1709  1.1130  0.1060
  711MOL0     H95969   4.234   3.665  11.211 -1.4830  2.7942 -1.1288
  711MOL0     H95970   4.001   3.682  11.259  0.7052  0.4024 -2.1353
  711MOL0     H95971   2.477   3.457  10.493 -1.4942 -0.8532 -2.4212
  711MOL0     H95972   2.221   3.423  10.489 -4.7137  2.9594  0.5107
  711MOL0     H95973   1.836   3.569  10.433 -0.2285 -1.7497  0.4373
  711MOL0     H95974   1.631   3.641  10.368  1.4336  0.3050  0.0002
  711MOL0     H95975   1.443   3.763  10.305 -0.4134  1.2510 -0.4983
  711MOL0     H95976   1.393   3.624  10.412 -5.5875 -0.9182 -1.6947
  711MOL0     H95977   1.215   3.757  10.490  4.8813  0.1262  1.5599
  711MOL0     H95978   1.182   3.709  10.321 -3.1048  1.0569  1.1951
  711MOL0     H95979   1.212   3.910  10.235 -0.1330 -5.6007  1.2808
  711MOL0     H95980   1.316   3.969  10.355  1.4436  1.2538 -3.4386
  711MOL0     H95981   1.123   4.087  10.410 -0.5440  0.6099  1.8011
  711MOL0     H95982   1.138   3.967  10.534  0.8561 -1.3728 -1.2070
  711MOL0     H95983   0.773   3.863  10.374 -0.5671  0.7918  1.5076
  711MOL0     H95984   1.598   3.881  10.729  3.5293  0.8898  0.5386
  711MOL0     H95985   1.792   3.777  10.816 -4.2562 -0.7885  2.5061
  712MOL0     O95986   8.934   8.838   4.043  0.1333 -0.1954 -0.2567
  712MOL0     C95987   8.929   8.856   4.160  0.3798 -0.1108 -0.1946
  712MOL0     O95988   8.822   8.813   4.237  0.4995  0.0516  0.0411
  712MOL0     C95989   8.776   8.679   4.228  0.0966  0.3557  0.1684
  712MOL0     C95990   8.671   8.665   4.311  0.2475 -0.5119 -0.6459
  712MOL0     C95991   8.604   8.544   4.315 -0.4130 -0.1476  0.0028
  712MOL0     C95992   8.635   8.440   4.233 -0.3292 -0.4353 -0.9469
  712MOL0     O95993   8.564   8.328   4.264 -0.2352 -0.5916  0.3951
  712MOL0     C95994   8.559   8.219   4.172 -0.3960 -1.1096 -1.0370
  712MOL0     C95995   8.446   8.117   4.212 -0.4834 -0.0251  0.1385
  712MOL0     C95996   8.311   8.183   4.240 -0.7688 -0.2892 -1.2731
  712MOL0     C95997   8.246   8.247   4.125 -0.5119  0.9957 -0.8008
  712MOL0     C95998   8.148   8.356   4.168 -0.1953 -0.0131  0.3534
  712MOL0     C95999   8.216   8.472   4.259  0.1317  0.1243 -0.1279
  712MOL0     C96000   8.160   8.617   4.228 -0.7483 -0.3333  1.0568
  712MOL0     C96001   8.254   8.700   4.134 -0.2603 -1.5405 -0.1804
  712MOL0     N96002   8.292   8.608   4.028  0.7504  0.5025  0.4151
  712MOL0     C96003   8.417   8.591   3.983 -0.6414 -0.5304  0.1380
  712MOL0     C96004   8.408   8.548   3.856 -0.8247 -0.3979  0.1376
  712MOL0     C96005   8.523   8.523   3.771  0.2019  0.9150 -0.8048
  712MOL0     C96006   8.517   8.599   3.638 -0.6765  0.1252 -0.4293
  712MOL0     C96007   8.532   8.746   3.673 -0.6656 -0.0234 -0.2847
  712MOL0     C96008   8.547   8.814   3.530 -0.1106  0.4862  0.1883
  712MOL0     O96009   8.537   8.959   3.544  0.0489  0.6897  0.4317
  712MOL0     C96010   8.647   9.035   3.560 -0.7233 -0.4259 -0.6802
  712MOL0     C96011   8.636   9.171   3.537 -0.8482  0.0140  0.1990
  712MOL0     C96012   8.746   9.257   3.526 -0.5886  0.5479  0.9241
  712MOL0     C96013   8.714   9.402   3.482  0.6908 -0.5584 -0.0744
  712MOL0     C96014   8.875   9.218   3.577  0.6239  0.7059 -0.3256
  712MOL0     C96015   8.997   9.303   3.607  0.4957 -0.4446  0.4901
  712MOL0     O96016   8.977   9.438   3.626  0.1704  0.9638 -0.2230
  712MOL0     C96017   9.086   9.515   3.605  0.1555 -0.1313  0.3000
  712MOL0     C96018   9.161   9.572   3.711 -0.3194 -0.8167 -0.1845
  712MOL0     C96019   9.272   9.648   3.686  0.3507 -0.5065 -0.1175
  712MOL0     C96020   9.323   9.656   3.554 -0.4935  0.0428 -1.0741
  712MOL0     O96021   9.446   9.693   3.512 -0.2927 -0.6673  0.1829
  712MOL0     C96022   9.550   9.696   3.608  1.1148 -0.8042 -0.4498
  712MOL0     C96023   9.686   9.722   3.534 -0.0649  0.8591 -0.0334
  712MOL0     C96024   9.810   9.749   3.621  0.4005 -0.5365  0.2467
  712MOL0     C96025   9.932   9.778   3.524  0.1271  0.6750 -0.1238
  712MOL0     C96026   9.992   9.644   3.475 -0.4001  0.3455 -0.5654
  712MOL0     C96027  10.126   9.666   3.402  0.6461  0.0547 -0.3712
  712MOL0     C96028  10.191   9.543   3.326 -0.6202  0.1236  0.0685
  712MOL0     C96029  10.336   9.573   3.288 -0.9243  0.0242  0.0258
  712MOL0    Cl96030  10.427   9.415   3.252  0.6253  0.0752  0.0629
  712MOL0     C96031   9.234   9.621   3.454  0.8309 -0.0581  0.3623
  712MOL0     C96032   9.108   9.564   3.475 -0.5847 -0.6755 -0.0564
  712MOL0     O96033   9.099   9.246   3.641 -0.1513 -0.3339  0.2296
  712MOL0     C96034   8.885   9.072   3.612  0.4010  0.3288  0.1582
  712MOL0     C96035   8.775   8.986   3.607  1.2049  0.0422 -0.5061
  712MOL0     N96036   8.271   8.531   3.828 -0.8373 -0.2545 -0.6571
  712MOL0     N96037   8.198   8.576   3.933 -0.1963  0.2503 -0.4301
  712MOL0     C96038   8.743   8.446   4.147 -0.1760 -0.6599  0.4622
  712MOL0     C96039   8.816   8.572   4.135  0.5544  0.7392 -1.1826
  712MOL0     C96040   9.028   8.934   4.233 -0.1631  0.0189  1.1038
  712MOL0     C96041   9.158   8.922   4.182  0.5006  0.0408 -0.1235
  712MOL0     C96042   9.259   8.999   4.242  0.3509  0.0426  0.0037
  712MOL0     C96043   9.235   9.076   4.360 -0.4156  0.0497  0.0111
  712MOL0     O96044   9.328   9.153   4.423 -0.5126  0.2665  0.5341
  712MOL0     C96045   9.468   9.176   4.383  0.1443  0.9934  0.0078
  712MOL0     C96046   9.535   9.258   4.490 -0.0776  0.0807  0.1788
  712MOL0     C96047   9.686   9.288   4.474 -0.0282  0.0710  0.0163
  712MOL0     C96048   9.731   9.393   4.372  0.8421  0.0966 -0.3620
  712MOL0     C96049   9.873   9.384   4.352  0.7550 -0.3481  0.3410
  712MOL0     C96050   9.994   9.378   4.343 -0.0861 -0.1634 -0.7048
  712MOL0     C96051   9.104   9.077   4.401  0.9992  0.0832 -0.1315
  712MOL0     C96052   8.994   9.013   4.333 -0.2632 -0.0740 -0.1036
  712MOL0     H96053   8.636   8.741   4.381  1.9649  2.0720 -2.4009
  712MOL0     H96054   8.519   8.541   4.382 -1.9629 -0.3896 -1.9106
  712MOL0     H96055   8.544   8.268   4.075 -2.2805 -0.8873 -0.6811
  712MOL0     H96056   8.653   8.166   4.189 -0.6560 -1.9688 -2.1216
  712MOL0     H96057   8.438   8.055   4.122 -0.4052  0.5304 -0.2549
  712MOL0     H96058   8.474   8.049   4.292 -4.0374 -1.8601  0.0460
  712MOL0     H96059   8.249   8.098   4.269  0.3556 -1.3642 -1.9141
  712MOL0     H96060   8.323   8.241   4.332  2.6685  1.6016 -2.7006
  712MOL0     H96061   8.324   8.305   4.074  3.2689 -1.0949  2.0840
  712MOL0     H96062   8.203   8.173   4.057  0.3984 -2.4676  2.0766
  712MOL0     H96063   8.100   8.398   4.079 -2.7692 -4.6698 -0.7857
  712MOL0     H96064   8.065   8.310   4.224 -2.6678  1.5178 -1.8189
  712MOL0     H96065   8.187   8.456   4.363  0.8534 -3.8435 -0.3652
  712MOL0     H96066   8.325   8.487   4.253  0.6522 -2.0027  2.1950
  712MOL0     H96067   8.059   8.613   4.186  0.7900 -2.7889 -2.9079
  712MOL0     H96068   8.143   8.664   4.326 -0.9462  0.5626  0.6028
  712MOL0     H96069   8.337   8.729   4.199 -1.3492 -1.4053  1.2029
  712MOL0     H96070   8.210   8.790   4.089  1.9197 -1.1629 -1.7267
  712MOL0     H96071   8.511   8.609   4.033  1.8430 -4.1492 -2.7136
  712MOL0     H96072   8.616   8.548   3.823 -2.4246  2.9357  3.4987
  712MOL0     H96073   8.518   8.414   3.759  1.8904 -0.0420  4.4494
  712MOL0     H96074   8.421   8.572   3.594 -2.3305  2.2804  1.6373
  712MOL0     H96075   8.597   8.550   3.582 -1.5909  0.1688 -1.8135
  712MOL0     H96076   8.620   8.773   3.731 -0.9132 -0.4125  0.2840
  712MOL0     H96077   8.441   8.779   3.724 -0.4561  1.4812 -0.8519
  712MOL0     H96078   8.470   8.782   3.460  0.5798 -1.4287  0.2532
  712MOL0     H96079   8.645   8.799   3.482 -0.7166  2.4994 -1.8684
  712MOL0     H96080   8.543   9.216   3.506  0.0513  3.8240  2.4406
  712MOL0     H96081   8.670   9.416   3.383 -0.5011 -1.8726  0.2416
  712MOL0     H96082   8.656   9.453   3.559  0.3716 -3.5167  1.7967
  712MOL0     H96083   8.802   9.466   3.471 -0.4868  1.5963  2.1058
  712MOL0     H96084   9.131   9.564   3.815  0.5460  1.5480  0.3016
  712MOL0     H96085   9.336   9.688   3.765  0.4471  0.5803 -0.7242
  712MOL0     H96086   9.526   9.776   3.678  0.3851 -0.5610 -0.9722
  712MOL0     H96087   9.561   9.599   3.658  1.9789 -1.3806 -1.6973
  712MOL0     H96088   9.709   9.630   3.479  0.4739  2.2259 -2.1914
  712MOL0     H96089   9.679   9.800   3.458  3.5186  2.3602  0.9629
  712MOL0     H96090   9.825   9.659   3.682 -0.4256  0.1029  1.4213
  712MOL0     H96091   9.784   9.833   3.685 -0.0391 -0.5450  0.0828
  712MOL0     H96092   9.892   9.841   3.444 -3.7328 -0.6120  0.5355
  712MOL0     H96093  10.009   9.835   3.577  0.5090  2.5121 -2.4804
  712MOL0     H96094   9.936   9.579   3.407  1.2495  0.3352 -2.0001
  712MOL0     H96095   9.994   9.584   3.566 -2.1240 -0.4983 -1.0412
  712MOL0     H96096  10.114   9.754   3.338  0.5984  0.7202  0.5439
  712MOL0     H96097  10.195   9.694   3.482  1.7165  0.9089 -1.5551
  712MOL0     H96098  10.134   9.505   3.241  0.9813  0.8192 -1.3635
  712MOL0     H96099  10.194   9.458   3.395  3.7492 -0.5752 -0.6888
  712MOL0     H96100  10.388   9.612   3.376  0.7290  2.3038 -1.8428
  712MOL0     H96101  10.340   9.632   3.196 -0.3724  0.5697  0.3977
  712MOL0     H96102   9.261   9.636   3.350  0.7284 -1.5434  0.0901
  712MOL0     H96103   9.026   9.552   3.405 -0.1276  0.3370 -0.7751
  712MOL0     H96104   8.962   9.017   3.665 -0.4702 -1.9779 -0.8425
  712MOL0     H96105   8.788   8.879   3.618 -2.2946 -0.3542  1.1199
  712MOL0     H96106   8.774   8.365   4.082  1.0173  1.5292 -1.8725
  712MOL0     H96107   8.901   8.588   4.070  0.4016  2.1001 -1.0662
  712MOL0     H96108   9.184   8.862   4.096  0.1259 -0.3311  0.0199
  712MOL0     H96109   9.359   9.009   4.202  0.1694  0.0257 -0.4623
  712MOL0     H96110   9.497   9.070   4.377 -4.6083 -0.4368 -3.2869
  712MOL0     H96111   9.486   9.226   4.287  0.7499  0.0167 -0.4124
  712MOL0     H96112   9.538   9.204   4.585  1.8917 -1.5389 -0.7330
  712MOL0     H96113   9.478   9.352   4.491  0.3111  0.4450 -2.8647
  712MOL0     H96114   9.724   9.193   4.436  0.5055 -0.6304  2.1624
  712MOL0     H96115   9.727   9.315   4.571  2.2162  0.0658 -0.8828
  712MOL0     H96116   9.704   9.487   4.421  1.2054  1.6007 -2.9011
  712MOL0     H96117   9.665   9.384   4.285 -0.5166  0.7521  0.5629
  712MOL0     H96118  10.099   9.393   4.351 -0.5634  3.9239  0.1475
  712MOL0     H96119   9.077   9.131   4.491  0.8762 -0.8254  0.3954
  712MOL0     H96120   8.891   9.010   4.369  0.5381 -1.1472  2.3424
  713MOL0     O96121   3.842   7.551   5.644 -0.7019 -0.1962  0.1070
  713MOL0     C96122   3.905   7.582   5.741  0.0166 -0.9501  0.5796
  713MOL0     O96123   3.931   7.505   5.853 -0.2174  0.2328  0.2889
  713MOL0     C96124   3.878   7.378   5.863  1.9360  0.5117 -0.2977
  713MOL0     C96125   3.830   7.339   5.995 -0.3646  0.6318  0.1070
  713MOL0     C96126   3.800   7.202   6.028  0.1277  0.3370 -0.1487
  713MOL0     C96127   3.783   7.118   5.923  0.6915  1.2964 -0.1084
  713MOL0     O96128   3.756   6.983   5.928 -0.0021  0.0343  0.1412
  713MOL0     C96129   3.772   6.917   6.052  0.3722  0.1638  0.4681
  713MOL0     C96130   3.756   6.764   6.024 -0.3465  0.0905 -0.1943
  713MOL0     C96131   3.847   6.694   5.919 -0.8239  0.7948  1.0719
  713MOL0     C96132   3.996   6.707   5.952  0.0600  0.3392  0.0572
  713MOL0     C96133   4.055   6.588   6.027 -0.0966 -0.0956 -0.1789
  713MOL0     C96134   4.071   6.461   5.946 -1.0727  0.6864  0.2082
  713MOL0     C96135   4.195   6.373   5.990  0.5847  0.2324  0.7089
  713MOL0     C96136   4.196   6.331   6.131 -0.2021  0.7465 -0.0149
  713MOL0     N96137   4.058   6.299   6.160 -1.2999  0.1339 -0.0092
  713MOL0     C96138   3.981   6.194   6.109  0.1880 -0.6157  0.2800
  713MOL0     C96139   3.868   6.187   6.184  0.3717 -0.2659  0.4440
  713MOL0     C96140   3.742   6.113   6.157 -0.0112  0.2462  0.7034
  713MOL0     C96141   3.667   6.190   6.038 -0.5376 -0.2006  1.1612
  713MOL0     C96142   3.625   6.340   6.064  0.1159  0.2030  0.1182
  713MOL0     C96143   3.503   6.358   6.157 -0.9642  0.7412 -0.2626
  713MOL0     O96144   3.433   6.477   6.125 -0.0777 -0.1189  0.0267
  713MOL0     C96145   3.455   6.603   6.186  0.7014 -0.0314  0.1029
  713MOL0     C96146   3.559   6.628   6.279 -0.2396  0.0093  0.4237
  713MOL0     C96147   3.578   6.749   6.347  0.4503  0.2943 -0.4052
  713MOL0     C96148   3.687   6.765   6.451 -0.5107  0.2985  0.7852
  713MOL0     C96149   3.491   6.860   6.314 -0.1808 -0.2567 -0.7487
  713MOL0     C96150   3.503   6.996   6.368  1.0632  0.2761  0.5370
  713MOL0     O96151   3.471   7.089   6.279 -0.0378  0.1220  0.0996
  713MOL0     C96152   3.502   7.218   6.303 -0.2791 -0.6645 -0.6143
  713MOL0     C96153   3.617   7.269   6.369 -1.0881 -0.0313 -0.1428
  713MOL0     C96154   3.646   7.402   6.364 -0.1385  0.1502 -1.1677
  713MOL0     C96155   3.570   7.491   6.296  0.3362 -0.3004  0.5581
  713MOL0     O96156   3.589   7.623   6.287  0.7096 -0.1431 -0.1270
  713MOL0     C96157   3.649   7.682   6.401 -0.5460  1.1400  0.4500
  713MOL0     C96158   3.795   7.711   6.363  0.6408  0.5766 -0.5331
  713MOL0     C96159   3.867   7.756   6.488 -0.4040  0.3536  0.6545
  713MOL0     C96160   3.948   7.884   6.457  0.8472  0.7999  0.0292
  713MOL0     C96161   4.049   7.931   6.564  0.1853 -0.0826  0.2053
  713MOL0     C96162   4.065   8.085   6.560 -0.4829 -0.0940 -0.8658
  713MOL0     C96163   4.124   8.113   6.423 -0.4416 -0.3817  0.7765
  713MOL0     C96164   4.166   8.254   6.410  0.6063 -0.4291  0.5111
  713MOL0    Cl96165   4.306   8.296   6.499 -0.1667 -0.4636 -0.0872
  713MOL0     C96166   3.457   7.448   6.236  0.1632  0.7867  0.2366
  713MOL0     C96167   3.426   7.313   6.242 -0.6732  0.0312 -0.1502
  713MOL0     O96168   3.550   7.020   6.474  0.8677  0.6808 -0.3439
  713MOL0     C96169   3.388   6.839   6.214 -0.6300  0.5536 -0.6590
  713MOL0     C96170   3.378   6.712   6.155  0.0359  0.2831  0.5539
  713MOL0     N96171   3.873   6.294   6.267 -0.6211 -0.7275  1.0186
  713MOL0     N96172   3.980   6.355   6.251 -0.1969  0.0936 -0.4451
  713MOL0     C96173   3.823   7.150   5.790  0.3357 -1.4526  0.0097
  713MOL0     C96174   3.861   7.280   5.759 -1.1129  0.7151 -1.1591
  713MOL0     C96175   3.948   7.722   5.754 -1.1717 -0.2441  0.6297
  713MOL0     C96176   3.973   7.789   5.631  0.1295  0.1383 -0.9439
  713MOL0     C96177   4.034   7.918   5.637  0.3334 -0.1963 -0.7379
  713MOL0     C96178   4.076   7.976   5.759  0.4779 -0.0668 -0.0259
  713MOL0     O96179   4.155   8.091   5.753 -0.6913 -0.0075  0.0195
  713MOL0     C96180   4.218   8.131   5.881 -0.6201  0.8866  0.6980
  713MOL0     C96181   4.275   8.266   5.868  0.1370 -0.1808  0.5992
  713MOL0     C96182   4.371   8.304   5.986  1.5358 -1.0490 -0.5420
  713MOL0     C96183   4.465   8.425   5.971  0.8722 -0.4878  0.4302
  713MOL0     C96184   4.402   8.554   5.947  1.2426  0.0842  0.9255
  713MOL0     C96185   4.354   8.661   5.923  0.1127  0.2843 -0.2232
  713MOL0     C96186   4.043   7.911   5.878  0.1737  0.2879  0.6684
  713MOL0     C96187   3.972   7.790   5.878  0.0757 -0.1119 -0.7882
  713MOL0     H96188   3.838   7.420   6.066  1.4886  1.6613 -1.1892
  713MOL0     H96189   3.776   7.171   6.130 -0.1014  1.2619  0.0885
  713MOL0     H96190   3.875   6.941   6.082  1.7121 -3.0463 -1.1329
  713MOL0     H96191   3.700   6.947   6.129 -0.0963  2.8033 -0.8740
  713MOL0     H96192   3.781   6.710   6.116  1.7068  1.7398  0.2778
  713MOL0     H96193   3.650   6.752   5.998 -0.2236 -3.4075  0.3973
  713MOL0     H96194   3.817   6.596   5.880  0.2429  1.3112 -1.1663
  713MOL0     H96195   3.840   6.751   5.826 -0.1066 -0.6683  0.0977
  713MOL0     H96196   4.052   6.712   5.858 -0.5179 -0.4635 -0.3428
  713MOL0     H96197   4.024   6.795   6.010  2.9496  1.8696 -3.2365
  713MOL0     H96198   4.145   6.627   6.075  0.1961 -1.3509  0.3313
  713MOL0     H96199   3.986   6.566   6.109  0.8274  0.6413  0.8187
  713MOL0     H96200   3.971   6.418   5.936 -2.6794  3.5177  2.5778
  713MOL0     H96201   4.083   6.476   5.838 -1.4908 -0.3940 -0.0107
  713MOL0     H96202   4.201   6.281   5.932 -1.3441 -0.9349  2.2613
  713MOL0     H96203   4.276   6.440   5.960  0.6870  0.8714  2.3082
  713MOL0     H96204   4.227   6.406   6.205  0.1450 -1.0016  1.6871
  713MOL0     H96205   4.261   6.249   6.161  0.8082  1.4548 -0.2179
  713MOL0     H96206   4.004   6.116   6.036  2.9707  0.8402 -0.5540
  713MOL0     H96207   3.742   6.005   6.140  0.5762  0.1124  1.4774
  713MOL0     H96208   3.679   6.130   6.245  0.4611  1.3368  0.8428
  713MOL0     H96209   3.573   6.150   6.000  0.6227 -0.8949 -1.2011
  713MOL0     H96210   3.739   6.194   5.955 -1.8314  0.6433  0.0320
  713MOL0     H96211   3.588   6.386   5.972 -0.6223  3.0569  1.7293
  713MOL0     H96212   3.706   6.399   6.106 -0.6669  0.8928  0.6618
  713MOL0     H96213   3.544   6.360   6.259 -4.5504  0.2355  1.3568
  713MOL0     H96214   3.430   6.279   6.138 -2.6435  2.2911 -0.5755
  713MOL0     H96215   3.633   6.552   6.303  0.1335  0.1236 -0.3477
  713MOL0     H96216   3.640   6.773   6.550 -4.3782  1.5917 -0.9735
  713MOL0     H96217   3.753   6.678   6.453 -2.1516 -1.0022  0.3112
  713MOL0     H96218   3.744   6.858   6.447  1.2578 -0.7907 -1.1877
  713MOL0     H96219   3.686   7.203   6.419 -1.1092 -2.4242 -3.0238
  713MOL0     H96220   3.738   7.433   6.411 -0.3269  1.1292 -1.4190
  713MOL0     H96221   3.592   7.772   6.424 -1.2938  1.9142 -3.7355
  713MOL0     H96222   3.653   7.612   6.485  0.0649  0.2086 -0.3309
  713MOL0     H96223   3.836   7.615   6.331  0.7507 -0.5988  2.7284
  713MOL0     H96224   3.801   7.795   6.293 -1.0277  1.2351  0.0554
  713MOL0     H96225   3.930   7.675   6.526 -2.0558 -0.9678  0.6760
  713MOL0     H96226   3.793   7.796   6.558 -1.9178  0.2829 -0.8487
  713MOL0     H96227   4.004   7.864   6.365 -1.0612  0.1014 -1.0461
  713MOL0     H96228   3.869   7.954   6.429 -0.9571 -1.8266 -1.9978
  713MOL0     H96229   4.150   7.890   6.559 -0.0198 -1.3747  3.9424
  713MOL0     H96230   4.012   7.912   6.665  1.8170  2.1431  1.3396
  713MOL0     H96231   3.965   8.129   6.560 -0.3161  1.2255  5.5102
  713MOL0     H96232   4.139   8.112   6.636 -0.4985  0.2849 -0.9815
  713MOL0     H96233   4.052   8.089   6.344 -0.4621 -2.7718  1.4509
  713MOL0     H96234   4.216   8.057   6.403 -0.3886  0.1288 -0.5291
  713MOL0     H96235   4.081   8.320   6.429 -0.8415 -1.8087 -0.9445
  713MOL0     H96236   4.190   8.283   6.307 -1.8695 -0.0600 -0.0345
  713MOL0     H96237   3.383   7.514   6.192 -0.1049 -0.0754 -0.6414
  713MOL0     H96238   3.334   7.266   6.212 -2.5682  3.3583 -0.1031
  713MOL0     H96239   3.333   6.924   6.175 -0.5599  0.9934  0.1777
  713MOL0     H96240   3.306   6.698   6.075  1.7628  1.6674 -1.3519
  713MOL0     H96241   3.830   7.069   5.719 -1.4481 -0.9072 -0.8535
  713MOL0     H96242   3.910   7.303   5.665  2.0640  0.6336  0.3481
  713MOL0     H96243   3.945   7.736   5.540  1.6037 -0.5384 -1.0214
  713MOL0     H96244   4.070   7.975   5.551 -0.7145  3.9699  1.3351
  713MOL0     H96245   4.144   8.142   5.961 -0.5125  1.9725  0.6630
  713MOL0     H96246   4.288   8.052   5.910  0.8595  0.1566 -4.0039
  713MOL0     H96247   4.200   8.345   5.860  0.5721  0.2607  0.8450
  713MOL0     H96248   4.331   8.264   5.774 -1.3686 -0.9503 -0.3233
  713MOL0     H96249   4.430   8.214   6.008 -1.6232 -2.3134  4.0346
  713MOL0     H96250   4.303   8.327   6.068 -0.4826  2.9465 -3.0414
  713MOL0     H96251   4.530   8.404   5.886  1.1913 -1.9072  0.9907
  713MOL0     H96252   4.546   8.422   6.045  2.1810 -2.0523 -0.9836
  713MOL0     H96253   4.301   8.751   5.901  0.3603  0.9388  1.6919
  713MOL0     H96254   4.062   7.941   5.981 -0.7165 -2.0729  1.6038
  713MOL0     H96255   3.953   7.747   5.975 -3.4911  0.6005 -1.0534
  714MOL0     O96256   8.669   2.961   7.522 -0.8752 -0.2175 -0.2265
  714MOL0     C96257   8.588   2.925   7.610  0.8246 -0.6017 -0.3364
  714MOL0     O96258   8.457   2.896   7.584  0.6207  0.0422 -0.0174
  714MOL0     C96259   8.408   2.910   7.454 -0.7018 -0.0481 -0.1501
  714MOL0     C96260   8.297   3.001   7.442  0.3464  0.4907  0.1803
  714MOL0     C96261   8.243   3.032   7.314  1.0443  0.2013  1.0626
  714MOL0     C96262   8.281   2.963   7.200  0.3385  0.5175  0.3643
  714MOL0     O96263   8.202   2.989   7.091  0.0578 -0.0059 -0.3561
  714MOL0     C96264   8.279   3.003   6.973 -0.1463 -0.9137  0.2589
  714MOL0     C96265   8.331   3.140   6.948 -0.2574  0.2230 -0.1098
  714MOL0     C96266   8.228   3.240   6.909 -0.5451 -0.0283  1.0043
  714MOL0     C96267   8.294   3.362   6.847  0.3032 -0.6406  0.0482
  714MOL0     C96268   8.186   3.464   6.805 -0.5113 -0.1353  0.0426
  714MOL0     C96269   8.248   3.602   6.773 -0.3223 -0.2069  0.0870
  714MOL0     C96270   8.137   3.694   6.710 -0.2675 -0.3301  0.2962
  714MOL0     C96271   8.124   3.693   6.554 -0.0674  0.1927  1.2073
  714MOL0     N96272   8.023   3.784   6.492  0.0712 -0.0019 -0.1389
  714MOL0     C96273   7.911   3.836   6.554  0.3967 -0.2172 -0.5280
  714MOL0     C96274   7.843   3.907   6.455 -0.7189  0.2412  0.2600
  714MOL0     C96275   7.707   3.980   6.476 -0.1031 -0.0705 -0.7956
  714MOL0     C96276   7.700   4.101   6.569  0.6051 -1.7074 -0.0170
  714MOL0     C96277   7.769   4.231   6.512 -0.4606 -0.4422 -0.5720
  714MOL0     C96278   7.926   4.221   6.502 -0.0647  0.4037  0.0878
  714MOL0     O96279   8.000   4.172   6.620  0.0165 -0.2106 -0.1551
  714MOL0     C96280   8.129   4.118   6.620  0.2101  0.5751  0.0035
  714MOL0     C96281   8.209   4.105   6.736  0.3050 -0.4431  0.5156
  714MOL0     C96282   8.342   4.052   6.752  0.3550 -0.0436 -0.5369
  714MOL0     C96283   8.401   4.037   6.887 -0.2188  0.9067  0.0225
  714MOL0     C96284   8.406   4.012   6.625  0.4238 -0.1265  0.2120
  714MOL0     C96285   8.533   3.934   6.620 -0.8253 -0.1091 -0.2228
  714MOL0     O96286   8.639   3.986   6.550  0.2513  0.0515 -0.7738
  714MOL0     C96287   8.632   4.120   6.539 -0.1326 -1.7059  0.4192
  714MOL0     C96288   8.580   4.183   6.418  0.6283 -0.2184  0.3314
  714MOL0     C96289   8.556   4.322   6.417  0.1902  0.1370 -0.0093
  714MOL0     C96290   8.596   4.401   6.523 -0.5500 -0.7433  0.2093
  714MOL0     O96291   8.548   4.528   6.522 -0.1617  0.1197 -0.0240
  714MOL0     C96292   8.637   4.637   6.537  0.3268  1.1276  0.4874
  714MOL0     C96293   8.636   4.724   6.421 -1.1885 -0.5840 -0.1117
  714MOL0     C96294   8.711   4.859   6.434  0.2089 -0.4225 -0.1915
  714MOL0     C96295   8.731   4.920   6.299  0.8309 -0.7499  0.4756
  714MOL0     C96296   8.801   5.058   6.312 -0.1612  0.1097  0.3499
  714MOL0     C96297   8.706   5.176   6.345 -0.3456  0.2027  0.4272
  714MOL0     C96298   8.773   5.288   6.428 -0.0708  0.2296 -0.6972
  714MOL0     C96299   8.680   5.398   6.478  0.4541  0.4188 -0.1991
  714MOL0    Cl96300   8.779   5.515   6.566  0.3445 -0.0278 -0.1083
  714MOL0     C96301   8.648   4.345   6.636 -0.4470  0.0697  0.1568
  714MOL0     C96302   8.669   4.207   6.641  0.0140  0.7390 -0.1323
  714MOL0     O96303   8.519   3.819   6.648  0.7759 -0.5920  0.8937
  714MOL0     C96304   8.324   4.015   6.509  0.0033  0.6683 -0.7273
  714MOL0     C96305   8.194   4.070   6.502 -0.1522  0.1474  0.0313
  714MOL0     N96306   7.912   3.887   6.339 -0.3786  0.1516 -0.1052
  714MOL0     N96307   8.018   3.814   6.358  0.1066 -1.5501 -0.5937
  714MOL0     C96308   8.389   2.870   7.214 -0.4472 -0.3203  0.0460
  714MOL0     C96309   8.458   2.854   7.340  0.3185  0.8248 -1.4007
  714MOL0     C96310   8.628   2.925   7.755  0.0230  0.2837 -0.8206
  714MOL0     C96311   8.751   2.967   7.795  0.4600 -0.0875 -0.8728
  714MOL0     C96312   8.788   2.964   7.930  0.4134  0.1265 -1.0950
  714MOL0     C96313   8.695   2.936   8.040  0.3032 -0.5595  0.5485
  714MOL0     O96314   8.721   2.955   8.176 -0.9111  0.3891  0.9697
  714MOL0     C96315   8.851   2.949   8.234 -0.4421 -0.2453  1.1842
  714MOL0     C96316   8.847   2.984   8.376 -0.3452 -1.3834 -0.1628
  714MOL0     C96317   8.781   2.878   8.464 -0.1509 -0.5320  0.8989
  714MOL0     C96318   8.714   2.931   8.598  0.2674 -0.1760 -0.0825
  714MOL0     C96319   8.639   3.056   8.583 -0.3274 -0.2053  0.0935
  714MOL0     C96320   8.589   3.168   8.583 -0.3564  0.2951 -0.6619
  714MOL0     C96321   8.567   2.903   7.999  0.0709 -0.3693  1.2349
  714MOL0     C96322   8.538   2.891   7.859  0.2407 -1.1607  0.0123
  714MOL0     H96323   8.253   3.061   7.521  1.8933  3.4574 -1.0756
  714MOL0     H96324   8.179   3.117   7.293  0.4114  0.2709  3.0477
  714MOL0     H96325   8.366   2.937   6.977 -0.2134 -0.9454  2.5892
  714MOL0     H96326   8.213   2.988   6.888 -3.6034 -0.3021  2.6336
  714MOL0     H96327   8.385   3.175   7.037  3.3509 -0.0966 -1.9602
  714MOL0     H96328   8.415   3.131   6.879 -1.1368  0.2578 -1.2093
  714MOL0     H96329   8.177   3.198   6.822 -0.0654 -1.2545  1.3025
  714MOL0     H96330   8.158   3.267   6.989  0.9088  0.5118  2.1478
  714MOL0     H96331   8.365   3.408   6.917 -0.3679 -0.7363  0.8078
  714MOL0     H96332   8.342   3.321   6.758 -1.1588 -5.3118  1.1566
  714MOL0     H96333   8.141   3.427   6.712 -1.5408  2.8515 -0.7477
  714MOL0     H96334   8.103   3.486   6.873 -0.6414  0.8600 -0.4289
  714MOL0     H96335   8.268   3.644   6.872 -3.5600 -2.8096  2.0931
  714MOL0     H96336   8.339   3.613   6.714 -0.1145 -0.1518  0.4108
  714MOL0     H96337   8.035   3.669   6.743  0.6558 -1.5190  2.4760
  714MOL0     H96338   8.162   3.795   6.743  4.6329 -0.8989 -1.0085
  714MOL0     H96339   8.107   3.586   6.535 -0.8615 -0.5122  5.1759
  714MOL0     H96340   8.222   3.717   6.512 -1.0794  1.1699 -0.7494
  714MOL0     H96341   7.882   3.835   6.659  2.8812  0.6130  0.2494
  714MOL0     H96342   7.661   4.009   6.381 -0.3644 -2.2177 -1.3704
  714MOL0     H96343   7.638   3.906   6.517  1.9316 -2.6688 -1.7500
  714MOL0     H96344   7.745   4.084   6.667 -0.2999 -0.0341  0.7267
  714MOL0     H96345   7.596   4.127   6.588  0.5184 -1.9635 -0.1374
  714MOL0     H96346   7.752   4.312   6.584  1.0454  0.2451 -0.9596
  714MOL0     H96347   7.729   4.262   6.415 -1.3344  0.2222 -0.0215
  714MOL0     H96348   7.973   4.318   6.486  1.9019 -0.0665  2.4609
  714MOL0     H96349   7.953   4.148   6.425 -0.4230  1.3577 -0.9672
  714MOL0     H96350   8.164   4.141   6.829  2.2243  2.4843  0.4410
  714MOL0     H96351   8.499   4.084   6.890 -0.2138  0.8518  1.3083
  714MOL0     H96352   8.343   4.089   6.964 -1.0245  2.3632 -1.5083
  714MOL0     H96353   8.421   3.936   6.925 -1.7247  0.3478 -0.5705
  714MOL0     H96354   8.548   4.133   6.327 -0.9322  4.8848 -2.2923
  714MOL0     H96355   8.512   4.379   6.336 -0.9030  0.4084  0.7477
  714MOL0     H96356   8.604   4.709   6.613  2.9738  1.9121  1.0295
  714MOL0     H96357   8.737   4.601   6.567  0.9180  1.9463 -0.4631
  714MOL0     H96358   8.675   4.677   6.330  3.1884  2.1059  0.0793
  714MOL0     H96359   8.531   4.747   6.401 -1.7206 -1.6242  1.3012
  714MOL0     H96360   8.809   4.858   6.482 -0.9794  0.1355  2.3873
  714MOL0     H96361   8.652   4.927   6.496 -0.0033  0.0664 -0.9160
  714MOL0     H96362   8.792   4.850   6.241  1.6264 -1.6917  2.3591
  714MOL0     H96363   8.632   4.928   6.254  0.6533 -1.2140  0.7827
  714MOL0     H96364   8.872   5.082   6.232 -1.9902  2.6699 -0.6198
  714MOL0     H96365   8.856   5.063   6.407  0.2449  0.9627  0.0796
  714MOL0     H96366   8.657   5.214   6.256  0.5340 -3.1769 -1.6971
  714MOL0     H96367   8.629   5.145   6.416  0.5916 -3.2048  0.1330
  714MOL0     H96368   8.847   5.324   6.357 -1.9345 -1.5582 -3.7925
  714MOL0     H96369   8.831   5.245   6.510 -1.2816 -0.7635 -0.3249
  714MOL0     H96370   8.599   5.371   6.547  0.6097  1.1437  0.2807
  714MOL0     H96371   8.633   5.439   6.389 -0.3859  2.0071  0.9187
  714MOL0     H96372   8.675   4.408   6.720  2.7687 -1.0728  0.1488
  714MOL0     H96373   8.714   4.158   6.726 -0.8852 -3.4308 -1.8399
  714MOL0     H96374   8.367   3.985   6.414  0.9041  4.5286 -1.7305
  714MOL0     H96375   8.154   4.061   6.402  1.2105  4.1098 -1.0576
  714MOL0     H96376   8.423   2.813   7.128  1.5028  2.7862 -1.4454
  714MOL0     H96377   8.547   2.791   7.345 -0.4798 -0.2517  0.6005
  714MOL0     H96378   8.827   2.992   7.722 -0.8559  0.6397 -2.0430
  714MOL0     H96379   8.878   3.011   7.968 -1.0674  0.2445  2.6983
  714MOL0     H96380   8.875   2.845   8.207  0.6052  0.2418  0.1977
  714MOL0     H96381   8.928   3.013   8.190 -1.9915  2.0013  1.5759
  714MOL0     H96382   8.803   3.084   8.379  0.6048 -0.9372 -0.6031
  714MOL0     H96383   8.947   3.002   8.417 -0.9309  1.1099  0.3419
  714MOL0     H96384   8.854   2.804   8.500 -0.5791  0.0784  3.1969
  714MOL0     H96385   8.702   2.825   8.410 -0.5067  0.7443  0.1321
  714MOL0     H96386   8.795   2.941   8.671  0.9359  0.7263 -0.9173
  714MOL0     H96387   8.643   2.854   8.628 -3.2384  2.6304 -0.3943
  714MOL0     H96388   8.561   3.270   8.566  0.7876  0.6399 -0.6048
  714MOL0     H96389   8.477   2.904   8.061 -1.4681  1.5965 -0.8617
  714MOL0     H96390   8.437   2.876   7.822 -0.0219 -0.8845  0.6135
  715MOL0     O96391   2.673   9.139   1.768  0.7298  0.3307  0.5721
  715MOL0     C96392   2.700   9.124   1.649 -0.1005 -1.2205  0.4828
  715MOL0     O96393   2.689   9.222   1.555  0.9163 -0.0041  0.8522
  715MOL0     C96394   2.633   9.334   1.596 -0.2144  0.0940  0.0865
  715MOL0     C96395   2.507   9.359   1.541 -0.0969  0.5413 -0.6814
  715MOL0     C96396   2.445   9.481   1.582 -0.0061 -0.7856 -0.2419
  715MOL0     C96397   2.495   9.563   1.691 -0.5303  0.2882 -0.7569
  715MOL0     O96398   2.437   9.677   1.743  0.8780  0.3415  0.9482
  715MOL0     C96399   2.291   9.688   1.741 -0.5517  0.5156 -0.6651
  715MOL0     C96400   2.239   9.711   1.878 -0.0517  0.6017 -0.0991
  715MOL0     C96401   2.289   9.610   1.984  0.0080  0.3672 -1.3589
  715MOL0     C96402   2.211   9.624   2.110  0.3785 -1.0477 -0.1698
  715MOL0     C96403   2.231   9.510   2.200  0.0716  0.1115 -0.6073
  715MOL0     C96404   2.171   9.519   2.338 -0.3358  0.5777 -0.0591
  715MOL0     C96405   2.215   9.406   2.414 -0.2958  0.3945 -0.4201
  715MOL0     C96406   2.134   9.276   2.412  0.1864  0.7638  0.2958
  715MOL0     N96407   2.183   9.173   2.505 -1.1025 -0.5440 -0.0435
  715MOL0     C96408   2.302   9.101   2.503 -0.3219 -0.4111 -0.4201
  715MOL0     C96409   2.296   9.040   2.618 -1.1541  0.8463 -0.3953
  715MOL0     C96410   2.404   8.947   2.678  0.8350 -0.1101  0.6211
  715MOL0     C96411   2.366   8.800   2.683  0.4097  0.7388  0.7980
  715MOL0     C96412   2.268   8.753   2.788 -0.4985  0.7403  0.9612
  715MOL0     C96413   2.252   8.599   2.810 -0.2971 -0.0266 -1.0121
  715MOL0     O96414   2.164   8.546   2.714  0.5995 -0.8156  0.0650
  715MOL0     C96415   2.125   8.416   2.746 -1.3095 -1.0007 -0.5147
  715MOL0     C96416   2.004   8.382   2.711  0.5597  1.0156  0.2519
  715MOL0     C96417   1.950   8.256   2.727  1.0369  0.1816  0.2976
  715MOL0     C96418   1.798   8.238   2.700  0.0470 -0.0849  0.1871
  715MOL0     C96419   2.031   8.151   2.773 -0.5465 -0.1039 -1.1422
  715MOL0     C96420   1.982   8.014   2.797 -0.1184  0.1153  0.5789
  715MOL0     O96421   2.061   7.924   2.736 -0.2922 -0.0255  0.6481
  715MOL0     C96422   2.016   7.794   2.729 -0.1334  0.4284 -0.4611
  715MOL0     C96423   1.905   7.751   2.662 -0.6389 -0.8255 -0.4983
  715MOL0     C96424   1.867   7.619   2.681 -0.2480 -0.5947 -0.1604
  715MOL0     C96425   1.933   7.516   2.753 -0.1845 -0.2376 -1.1459
  715MOL0     O96426   1.899   7.384   2.750 -0.1245  0.4057 -0.8924
  715MOL0     C96427   2.013   7.285   2.746  0.6230  0.4303 -0.8790
  715MOL0     C96428   1.951   7.147   2.709  0.6699  0.0484  0.0929
  715MOL0     C96429   1.834   7.113   2.808 -0.2897 -0.5748 -0.3452
  715MOL0     C96430   1.760   6.986   2.752 -0.5566  0.6562  1.4395
  715MOL0     C96431   1.675   6.928   2.867  0.3828  1.1843 -0.4984
  715MOL0     C96432   1.749   6.880   2.989 -1.1736  0.8069  0.1867
  715MOL0     C96433   1.666   6.795   3.085  0.0748  0.2441 -0.3556
  715MOL0     C96434   1.661   6.649   3.031  0.0674  0.5524 -0.6943
  715MOL0    Cl96435   1.524   6.553   3.117  0.0347  0.5452  0.4686
  715MOL0     C96436   2.058   7.562   2.807  0.3032  0.2343  0.7798
  715MOL0     C96437   2.097   7.696   2.791 -0.6532  0.9028  0.2499
  715MOL0     O96438   1.886   7.988   2.869  1.0432 -0.7898  1.0127
  715MOL0     C96439   2.161   8.189   2.809 -0.6825 -0.0516  0.3021
  715MOL0     C96440   2.214   8.319   2.799  0.4001  0.0790  0.1693
  715MOL0     N96441   2.177   9.078   2.685 -0.3916 -0.7461 -1.0647
  715MOL0     N96442   2.112   9.157   2.620 -0.3506  0.1973  0.7140
  715MOL0     C96443   2.615   9.523   1.748  0.5289 -0.7740  0.7925
  715MOL0     C96444   2.685   9.413   1.697  0.2513 -0.0963 -0.3255
  715MOL0     C96445   2.744   8.991   1.618 -0.5429  0.8418  1.0083
  715MOL0     C96446   2.732   8.882   1.709  0.3013  0.8863  0.4086
  715MOL0     C96447   2.787   8.756   1.671  0.3712  0.6705 -0.3516
  715MOL0     C96448   2.855   8.740   1.550 -0.0234  0.0440  1.5052
  715MOL0     O96449   2.895   8.617   1.511 -0.2931  0.0824 -0.0494
  715MOL0     C96450   2.836   8.572   1.390  0.2347 -1.3903  0.4031
  715MOL0     C96451   2.851   8.426   1.371  1.1076  0.6487 -0.5623
  715MOL0     C96452   2.745   8.342   1.452  0.4259 -0.6983  0.5247
  715MOL0     C96453   2.619   8.320   1.369  0.0239 -1.0021 -0.7868
  715MOL0     C96454   2.546   8.238   1.465  0.3124 -0.2265 -0.3412
  715MOL0     C96455   2.475   8.154   1.518  0.1739 -0.0177 -0.6237
  715MOL0     C96456   2.872   8.852   1.466  0.4221  0.0480  0.2040
  715MOL0     C96457   2.812   8.972   1.499  0.7369  1.0776  0.3342
  715MOL0     H96458   2.461   9.296   1.466  2.9333  0.8200 -2.9495
  715MOL0     H96459   2.350   9.504   1.535 -1.4506 -1.4036  2.1887
  715MOL0     H96460   2.267   9.779   1.686 -1.7072 -0.2680 -1.4881
  715MOL0     H96461   2.241   9.601   1.698  1.5587 -0.0685 -2.0775
  715MOL0     H96462   2.275   9.810   1.905 -0.1868  2.0214 -4.4548
  715MOL0     H96463   2.130   9.702   1.878  0.0894 -2.4771  1.1413
  715MOL0     H96464   2.303   9.508   1.946  0.0185  0.3184 -1.2224
  715MOL0     H96465   2.395   9.632   1.997 -0.0754  1.0437 -1.7412
  715MOL0     H96466   2.239   9.718   2.158  3.5350 -0.8068 -2.1837
  715MOL0     H96467   2.105   9.637   2.086  0.6721 -0.5825 -1.2712
  715MOL0     H96468   2.183   9.417   2.168  0.5763 -0.1976 -0.4697
  715MOL0     H96469   2.339   9.491   2.206  0.5224  2.4126 -0.4904
  715MOL0     H96470   2.182   9.617   2.385  2.7901  0.1869  0.2421
  715MOL0     H96471   2.063   9.518   2.319 -0.8769 -3.9458  1.9250
  715MOL0     H96472   2.320   9.387   2.389 -1.1778 -2.6234 -2.2186
  715MOL0     H96473   2.234   9.431   2.519  0.2622 -0.5666 -0.2759
  715MOL0     H96474   2.138   9.235   2.311  0.6903 -0.3407  0.7469
  715MOL0     H96475   2.033   9.309   2.441 -0.0818  0.2371 -0.0226
  715MOL0     H96476   2.379   9.107   2.427  1.5484  1.4075  1.4736
  715MOL0     H96477   2.494   8.958   2.617  0.5723 -1.2483  0.0119
  715MOL0     H96478   2.426   8.975   2.781 -2.1064 -1.8917  1.8528
  715MOL0     H96479   2.460   8.753   2.713  0.7408  1.7505  1.3848
  715MOL0     H96480   2.333   8.768   2.584 -1.3607 -0.2894  1.6760
  715MOL0     H96481   2.170   8.796   2.764 -0.2226  0.7721 -0.1745
  715MOL0     H96482   2.296   8.803   2.881  0.0804  1.1591  0.5755
  715MOL0     H96483   2.223   8.585   2.914  0.4296  0.2567 -0.7644
  715MOL0     H96484   2.347   8.547   2.798  0.5028  0.1549  3.0707
  715MOL0     H96485   1.936   8.459   2.676 -1.9838  1.0973  4.5801
  715MOL0     H96486   1.772   8.191   2.605 -4.3361 -1.4490  1.7970
  715MOL0     H96487   1.761   8.163   2.770 -2.3990  0.5465 -0.3583
  715MOL0     H96488   1.727   8.320   2.706 -0.8413 -0.5918 -2.4548
  715MOL0     H96489   1.852   7.830   2.609  1.6409  1.3574  0.2898
  715MOL0     H96490   1.776   7.595   2.627 -1.1544  2.9226 -0.4737
  715MOL0     H96491   2.082   7.327   2.672  1.1064  2.1705  0.4879
  715MOL0     H96492   2.061   7.277   2.844 -0.0910  2.1968 -0.3390
  715MOL0     H96493   1.901   7.158   2.612  2.6829 -1.0746 -1.1321
  715MOL0     H96494   2.040   7.085   2.700  1.9154  2.0575 -3.9463
  715MOL0     H96495   1.758   7.189   2.824 -0.1836 -0.6323  0.4705
  715MOL0     H96496   1.893   7.089   2.897  2.9357 -2.3073 -2.7161
  715MOL0     H96497   1.692   7.013   2.672  0.0158  1.9810  1.3722
  715MOL0     H96498   1.838   6.912   2.726  0.1208  1.1805  1.9332
  715MOL0     H96499   1.604   6.853   2.829  1.1932  1.2955 -2.3501
  715MOL0     H96500   1.618   7.015   2.898  0.5106  0.4107  2.1302
  715MOL0     H96501   1.844   6.830   2.965 -0.2194  2.6706 -0.1602
  715MOL0     H96502   1.790   6.968   3.039  1.9603  0.0487 -0.7577
  715MOL0     H96503   1.562   6.826   3.099 -0.0257  0.5915 -1.7318
  715MOL0     H96504   1.714   6.790   3.183 -2.0174 -1.1914  0.6675
  715MOL0     H96505   1.758   6.600   3.042  0.1896  0.8021 -0.6581
  715MOL0     H96506   1.647   6.648   2.922  0.6246  1.9722 -0.8072
  715MOL0     H96507   2.130   7.496   2.855 -1.2232 -2.1378  0.0083
  715MOL0     H96508   2.192   7.718   2.838 -0.0705  0.8927 -0.8901
  715MOL0     H96509   2.223   8.113   2.856  1.1741  0.9587 -0.4017
  715MOL0     H96510   2.317   8.309   2.833  0.2543  1.0106  0.9240
  715MOL0     H96511   2.661   9.593   1.818  0.9620  0.1563 -0.4009
  715MOL0     H96512   2.784   9.378   1.726  1.0927  1.4510 -1.1510
  715MOL0     H96513   2.687   8.898   1.807 -0.7648 -1.3760  0.3753
  715MOL0     H96514   2.796   8.677   1.745  0.9792 -2.2968 -3.3635
  715MOL0     H96515   2.730   8.596   1.395  0.5183  0.0361  5.7352
  715MOL0     H96516   2.884   8.630   1.310  1.2074 -3.3658 -0.5167
  715MOL0     H96517   2.948   8.396   1.410  0.3931 -3.7905 -1.6114
  715MOL0     H96518   2.845   8.414   1.262 -1.9493  0.7081 -0.5086
  715MOL0     H96519   2.718   8.385   1.549 -0.9981 -2.3036  0.8963
  715MOL0     H96520   2.798   8.251   1.481 -0.5704 -1.0107  1.4693
  715MOL0     H96521   2.640   8.280   1.269  2.9896  2.5330 -1.7874
  715MOL0     H96522   2.563   8.413   1.356  2.1692  0.4978  0.2453
  715MOL0     H96523   2.410   8.074   1.548  0.6074  0.2103  1.0140
  715MOL0     H96524   2.933   8.859   1.377 -1.1724  2.4564 -0.8113
  715MOL0     H96525   2.815   9.052   1.426  1.1486 -0.7447 -1.7356
  716MOL0     O96526   1.453   5.981   9.432 -1.4234  0.7496 -0.8426
  716MOL0     C96527   1.473   5.862   9.444 -0.5221 -0.5883 -0.4835
  716MOL0     O96528   1.598   5.800   9.456 -0.8272 -0.8166  0.5868
  716MOL0     C96529   1.709   5.880   9.503 -0.1731  0.1194  0.5649
  716MOL0     C96530   1.717   5.926   9.635 -0.3450  0.5587 -0.2820
  716MOL0     C96531   1.827   6.000   9.678 -0.2058  0.1047  0.0647
  716MOL0     C96532   1.922   6.042   9.598 -0.9944  0.1987 -0.3244
  716MOL0     O96533   2.017   6.133   9.632 -0.4478  0.0108 -0.4585
  716MOL0     C96534   2.072   6.138   9.771 -0.4780 -0.0010  0.5853
  716MOL0     C96535   2.200   6.056   9.791 -0.3118  0.2201  1.0041
  716MOL0     C96536   2.278   6.089   9.929 -1.2442 -0.6860 -0.1749
  716MOL0     C96537   2.384   6.197   9.924 -0.6535 -0.8230 -0.1720
  716MOL0     C96538   2.478   6.190  10.045  0.5648 -0.1505  0.5969
  716MOL0     C96539   2.606   6.271  10.023 -0.1723 -0.1102 -0.1336
  716MOL0     C96540   2.689   6.296  10.154  0.1150  0.1396  0.3063
  716MOL0     C96541   2.746   6.161  10.200 -0.4717 -0.1878 -0.0517
  716MOL0     N96542   2.860   6.151  10.303  0.1832 -1.0088 -0.1849
  716MOL0     C96543   2.890   6.243  10.406  0.6022 -0.1939 -0.5269
  716MOL0     C96544   3.018   6.216  10.437  0.2157  0.3722 -0.1235
  716MOL0     C96545   3.109   6.298  10.524 -0.2725 -0.0106 -0.0015
  716MOL0     C96546   3.120   6.262  10.675  0.2902 -0.4685 -0.2624
  716MOL0     C96547   2.990   6.273  10.763 -0.7091 -0.0594 -0.4325
  716MOL0     C96548   2.917   6.405  10.727 -0.2284 -0.1319 -0.5707
  716MOL0     O96549   2.803   6.399  10.813 -0.1658  0.4263  0.2624
  716MOL0     C96550   2.793   6.481  10.928 -0.3650  0.0863  0.6139
  716MOL0     C96551   2.662   6.488  10.986 -0.6178  0.5398  0.0308
  716MOL0     C96552   2.634   6.552  11.111 -0.6834  0.1571 -0.2767
  716MOL0     C96553   2.485   6.549  11.144 -0.2415 -0.5809  0.6683
  716MOL0     C96554   2.741   6.610  11.187 -0.4165  0.1995  0.3541
  716MOL0     C96555   2.722   6.689  11.311  0.3609 -0.2226  0.0612
  716MOL0     O96556   2.828   6.725  11.390 -1.2042 -0.0742  0.3369
  716MOL0     C96557   2.823   6.761  11.514 -0.3258 -0.2435 -0.2680
  716MOL0     C96558   2.778   6.889  11.542  0.5968 -0.1567  0.1931
  716MOL0     C96559   2.784   6.926  11.679 -0.0200  0.2195 -0.5467
  716MOL0     C96560   2.819   6.839  11.779 -0.5062  0.4860 -0.4634
  716MOL0     O96561   2.822   6.878  11.909  0.2904  0.0673 -0.6316
  716MOL0     C96562   2.693   6.886  11.964 -0.4890  0.0453 -0.1427
  716MOL0     C96563   2.664   6.771  12.063 -0.5711 -0.4788 -0.3694
  716MOL0     C96564   2.777   6.779  12.176  0.1768  0.0883  0.2121
  716MOL0     C96565   2.740   6.700  12.305  0.2907 -0.8442  0.1082
  716MOL0     C96566   2.853   6.714  12.411 -0.3488 -0.5332  0.4760
  716MOL0     C96567   2.847   6.613  12.524  0.0436  0.5614  0.3316
  716MOL0     C96568   2.959   6.636  12.626 -0.4925 -0.9591 -0.3095
  716MOL0     C96569   2.923   6.754  12.714 -0.7452 -0.4623 -0.4282
  716MOL0    Cl96570   2.823   6.717  12.850 -0.1622 -0.0573  0.1490
  716MOL0     C96571   2.870   6.713  11.738  0.3500  0.1399 -0.8840
  716MOL0     C96572   2.879   6.677  11.609  0.5741 -0.4647 -0.0414
  716MOL0     O96573   2.607   6.734  11.333 -0.0825  0.5981  0.1187
  716MOL0     C96574   2.875   6.594  11.133 -0.2245  0.0072  0.4809
  716MOL0     C96575   2.909   6.529  11.006  0.7119 -0.2440 -0.2629
  716MOL0     N96576   3.069   6.106  10.360 -0.0533  0.0202 -0.4929
  716MOL0     N96577   2.971   6.078  10.275 -0.4489  0.1190 -0.0944
  716MOL0     C96578   1.923   5.996   9.466 -0.0111  0.8712 -0.1292
  716MOL0     C96579   1.813   5.917   9.420 -0.0409 -0.7815  0.1265
  716MOL0     C96580   1.342   5.795   9.464 -0.3403 -0.5201 -0.0397
  716MOL0     C96581   1.342   5.680   9.540 -0.1448  0.4836  0.1106
  716MOL0     C96582   1.224   5.601   9.565  0.2231  0.7838  0.7210
  716MOL0     C96583   1.100   5.661   9.537 -0.3548  0.5977  0.3040
  716MOL0     O96584   0.978   5.624   9.583  0.6848  0.7945  0.0494
  716MOL0     C96585   0.958   5.490   9.646 -0.2644 -1.1058 -0.7909
  716MOL0     C96586   0.947   5.375   9.547  0.1198 -0.8572 -0.5783
  716MOL0     C96587   0.934   5.241   9.620  0.4271 -0.1824  0.4145
  716MOL0     C96588   0.811   5.216   9.706 -0.1166  0.2737 -0.0354
  716MOL0     C96589   0.820   5.092   9.783 -0.6357 -0.7883  0.1630
  716MOL0     C96590   0.855   4.992   9.835  0.4743 -1.0751  0.2587
  716MOL0     C96591   1.103   5.773   9.455 -0.7438 -0.1279  0.1251
  716MOL0     C96592   1.220   5.846   9.419 -0.7379  0.3652 -0.3708
  716MOL0     H96593   1.631   5.902   9.697  2.0767 -1.3563  2.5925
  716MOL0     H96594   1.808   6.043   9.776  0.9766  0.4939  0.1414
  716MOL0     H96595   2.095   6.241   9.801 -2.2015  0.0763  1.7880
  716MOL0     H96596   1.992   6.108   9.839 -1.6092 -1.6533 -1.3648
  716MOL0     H96597   2.159   5.954   9.788 -1.2629  0.5883  1.2359
  716MOL0     H96598   2.270   6.074   9.709 -0.7902  0.1113  0.5604
  716MOL0     H96599   2.195   6.121   9.993  0.5221 -3.1145  3.6962
  716MOL0     H96600   2.321   5.994   9.963 -0.3292 -0.6076 -1.0938
  716MOL0     H96601   2.444   6.158   9.841 -0.2659 -0.7303  0.0626
  716MOL0     H96602   2.322   6.286   9.911 -3.9502 -2.9023  0.1598
  716MOL0     H96603   2.422   6.224  10.133 -2.6933  0.0635 -1.4073
  716MOL0     H96604   2.515   6.088  10.059 -1.4273 -0.8650  0.9606
  716MOL0     H96605   2.661   6.217   9.945 -1.1302 -0.6997 -0.4291
  716MOL0     H96606   2.584   6.368   9.978  2.0948 -0.6440 -2.6430
  716MOL0     H96607   2.783   6.350  10.140  2.0317 -3.1906 -0.5605
  716MOL0     H96608   2.634   6.351  10.231  2.4256  0.1440  2.0512
  716MOL0     H96609   2.765   6.103  10.109 -2.5519 -0.0710 -0.5971
  716MOL0     H96610   2.666   6.117  10.260 -1.5985  0.2771 -1.1709
  716MOL0     H96611   2.839   6.328  10.448 -4.7150 -4.3482  2.8174
  716MOL0     H96612   3.211   6.292  10.486 -0.0435  2.6134 -0.0065
  716MOL0     H96613   3.081   6.404  10.524 -0.2097  0.0317  1.5060
  716MOL0     H96614   3.190   6.338  10.711 -1.7904  1.8724 -0.8757
  716MOL0     H96615   3.165   6.163  10.687  1.5905 -0.1746 -2.2561
  716MOL0     H96616   3.016   6.270  10.869 -5.5266 -0.3476  0.9505
  716MOL0     H96617   2.932   6.182  10.742 -0.5700  0.0809 -1.4569
  716MOL0     H96618   2.870   6.397  10.628  1.2776 -0.6592 -1.2710
  716MOL0     H96619   2.977   6.496  10.734 -0.8997  0.2395  0.5410
  716MOL0     H96620   2.586   6.446  10.920 -2.1916  1.0179  1.4636
  716MOL0     H96621   2.448   6.456  11.189 -2.5367 -0.0646 -0.0188
  716MOL0     H96622   2.444   6.624  11.212  0.2685  1.1537 -0.8486
  716MOL0     H96623   2.427   6.570  11.053 -0.0924  0.4514  0.8065
  716MOL0     H96624   2.752   6.958  11.462 -2.6401 -2.0591 -0.5688
  716MOL0     H96625   2.745   7.023  11.709 -2.0186 -1.2886  2.2217
  716MOL0     H96626   2.680   6.978  12.022 -3.2011  0.1804 -0.8055
  716MOL0     H96627   2.620   6.889  11.882  2.8589  1.1003 -3.3438
  716MOL0     H96628   2.562   6.784  12.100 -0.0631  1.0781  0.5613
  716MOL0     H96629   2.678   6.676  12.009  1.7954  0.2994 -1.2502
  716MOL0     H96630   2.801   6.879  12.212 -1.1995  0.1606  0.9825
  716MOL0     H96631   2.872   6.735  12.144 -0.9119 -1.4968 -0.9745
  716MOL0     H96632   2.647   6.741  12.345 -0.7102 -1.3786 -1.5678
  716MOL0     H96633   2.720   6.593  12.297  0.7145 -0.8273 -1.6500
  716MOL0     H96634   2.852   6.816  12.452 -1.1350  0.4885 -1.9174
  716MOL0     H96635   2.952   6.705  12.365  0.4219 -0.5641  2.0466
  716MOL0     H96636   2.756   6.629  12.583 -0.5029  2.9081 -0.9991
  716MOL0     H96637   2.851   6.516  12.473 -0.0721  0.4927  0.4531
  716MOL0     H96638   3.054   6.649  12.572 -1.0393  0.8609 -0.9078
  716MOL0     H96639   2.988   6.552  12.690  0.6877 -0.6400 -0.3982
  716MOL0     H96640   2.876   6.839  12.665  1.1184  1.7966  1.4610
  716MOL0     H96641   3.009   6.809  12.755 -2.0529  0.1763  1.6439
  716MOL0     H96642   2.891   6.642  11.818  1.2763  0.6656 -0.6459
  716MOL0     H96643   2.897   6.576  11.575 -2.0365 -1.9565  2.5110
  716MOL0     H96644   2.951   6.631  11.201  1.1715 -2.0626  0.1152
  716MOL0     H96645   3.011   6.506  10.976  1.6009  2.6760  0.1712
  716MOL0     H96646   1.988   6.037   9.390 -2.1899 -1.2922 -3.4475
  716MOL0     H96647   1.806   5.907   9.312 -1.1437  4.4296 -0.5445
  716MOL0     H96648   1.438   5.632   9.553 -0.2332 -0.4964 -2.3784
  716MOL0     H96649   1.226   5.513   9.629 -1.4930 -2.4370 -3.2357
  716MOL0     H96650   1.035   5.472   9.722  1.5051  0.0653 -2.2185
  716MOL0     H96651   0.864   5.484   9.701 -1.5379 -3.8574 -3.0402
  716MOL0     H96652   1.033   5.371   9.480  0.8251  0.0257  0.2497
  716MOL0     H96653   0.857   5.396   9.488 -0.1079 -2.4830 -0.8626
  716MOL0     H96654   1.025   5.234   9.680  0.8062  2.1668  0.2068
  716MOL0     H96655   0.945   5.162   9.546 -1.3322 -1.2970  1.2616
  716MOL0     H96656   0.719   5.215   9.646 -0.1785  1.4790  0.0202
  716MOL0     H96657   0.802   5.297   9.778  1.1747 -0.2914  0.7953
  716MOL0     H96658   0.885   4.911   9.899 -2.4082 -1.1512  1.6530
  716MOL0     H96659   1.014   5.823   9.417  0.7938  2.7260  0.0299
  716MOL0     H96660   1.213   5.941   9.366 -1.9211  1.0799  1.0225
  717MOL0     O96661   0.481  11.546   7.645 -0.1672  0.0661  0.6523
  717MOL0     C96662   0.417  11.637   7.589 -0.0475 -0.4016 -0.3702
  717MOL0     O96663   0.428  11.670   7.459  0.1472  0.0403  0.0641
  717MOL0     C96664   0.503  11.591   7.381  0.4366 -0.8912 -0.0301
  717MOL0     C96665   0.640  11.585   7.407  0.7352 -1.3286  0.5081
  717MOL0     C96666   0.724  11.511   7.319 -0.4501  0.0504  0.4041
  717MOL0     C96667   0.671  11.436   7.207  0.3431  0.6103  0.1066
  717MOL0     O96668   0.756  11.351   7.140 -0.7151 -0.2066  0.0062
  717MOL0     C96669   0.740  11.335   6.996  0.4434 -1.6976  0.3023
  717MOL0     C96670   0.871  11.317   6.922 -0.1576  0.5423  0.3788
  717MOL0     C96671   0.829  11.281   6.780 -0.9720 -0.7304 -0.8281
  717MOL0     C96672   0.937  11.325   6.685  0.1517 -0.3848 -0.5751
  717MOL0     C96673   0.895  11.246   6.550  0.5634 -0.5409 -0.0660
  717MOL0     C96674   0.946  11.097   6.543 -1.3055 -0.5160  0.6096
  717MOL0     C96675   0.948  11.033   6.402 -0.0200 -0.9528 -0.1416
  717MOL0     C96676   0.976  10.883   6.412  0.1445  0.2329  0.2993
  717MOL0     N96677   0.937  10.811   6.292  0.6473  0.0891 -0.2214
  717MOL0     C96678   1.008  10.804   6.176  0.0721  0.2101  0.1048
  717MOL0     C96679   0.929  10.751   6.088 -0.1252  0.9710  0.2783
  717MOL0     C96680   0.975  10.721   5.953 -1.0192  0.8061 -0.8214
  717MOL0     C96681   0.919  10.818   5.848 -1.3541  0.0063  0.8001
  717MOL0     C96682   0.986  10.785   5.711 -0.3867  0.7099  0.2534
  717MOL0     C96683   0.919  10.846   5.597 -0.1650 -0.4700  0.7984
  717MOL0     O96684   0.919  10.988   5.605  0.0342  0.4468  0.5281
  717MOL0     C96685   0.948  11.052   5.483 -0.8438  1.4367 -0.6201
  717MOL0     C96686   0.847  11.095   5.407  0.1414 -0.9980 -0.0730
  717MOL0     C96687   0.875  11.169   5.291  0.4572  0.3467 -0.2234
  717MOL0     C96688   0.754  11.223   5.227 -0.2868 -0.9343  0.7534
  717MOL0     C96689   1.009  11.172   5.240 -0.0168  0.5386 -0.4717
  717MOL0     C96690   1.047  11.252   5.121 -0.0633  0.7756  0.3125
  717MOL0     O96691   1.184  11.285   5.112 -0.1917 -0.4546 -0.8124
  717MOL0     C96692   1.240  11.310   4.993  0.0199  0.2355 -0.2263
  717MOL0     C96693   1.217  11.257   4.871 -0.2113  0.1431  0.3235
  717MOL0     C96694   1.279  11.285   4.758  0.0628 -0.4837  0.5628
  717MOL0     C96695   1.371  11.389   4.752  0.9872  0.5885 -0.0698
  717MOL0     O96696   1.438  11.415   4.633 -1.3225 -0.2703 -0.4846
  717MOL0     C96697   1.346  11.442   4.525  0.1751 -0.2467 -0.1025
  717MOL0     C96698   1.398  11.515   4.396 -0.0780 -0.7476 -0.1279
  717MOL0     C96699   1.483  11.638   4.419 -0.6288 -0.8513 -0.1229
  717MOL0     C96700   1.621  11.617   4.365 -0.3043 -0.4946  0.3029
  717MOL0     C96701   1.703  11.740   4.416 -0.6737 -0.0103  0.6449
  717MOL0     C96702   1.852  11.735   4.381 -0.8407  0.7145  0.0715
  717MOL0     C96703   1.861  11.789   4.231 -0.8992  0.9211  0.5944
  717MOL0     C96704   2.017  11.773   4.194 -0.6386  0.1606 -0.2381
  717MOL0    Cl96705   2.068  11.839   4.040  0.3162  0.1061 -0.1686
  717MOL0     C96706   1.392  11.453   4.877 -0.1212  0.1507  0.3307
  717MOL0     C96707   1.338  11.403   5.001 -0.2954 -0.0150  0.2160
  717MOL0     O96708   0.964  11.283   5.039  0.1911  1.0458 -0.2499
  717MOL0     C96709   1.107  11.100   5.312  0.3957 -0.5469 -0.0887
  717MOL0     C96710   1.077  11.048   5.438 -0.6251  0.1919  0.7437
  717MOL0     N96711   0.816  10.714   6.155  0.1903  0.3189 -0.5995
  717MOL0     N96712   0.824  10.746   6.283  0.6323 -0.3940  0.1582
  717MOL0     C96713   0.531  11.443   7.192 -0.4006 -0.7819  0.5577
  717MOL0     C96714   0.449  11.523   7.274 -0.3028 -0.5980 -0.1734
  717MOL0     C96715   0.317  11.723   7.671 -0.5504  0.4158  0.1404
  717MOL0     C96716   0.231  11.812   7.614 -0.1236  0.8735  0.6680
  717MOL0     C96717   0.155  11.897   7.693  0.2178  0.6953 -0.8098
  717MOL0     C96718   0.163  11.892   7.835  0.0201  0.3345  0.2168
  717MOL0     O96719   0.102  11.997   7.901 -0.4658  0.1672 -0.6080
  717MOL0     C96720   0.115  11.995   8.045  0.0323 -0.3500  0.4863
  717MOL0     C96721   0.055  12.131   8.099  0.3629 -0.4698 -0.3524
  717MOL0     C96722   0.137  12.256   8.061 -0.8437  0.6955  0.5173
  717MOL0     C96723   0.089  12.371   8.146  0.9678 -0.5154 -1.0260
  717MOL0     C96724   0.186  12.476   8.119  0.4118  0.4760 -0.4625
  717MOL0     C96725   0.250  12.574   8.090  0.3151 -2.2580  0.4845
  717MOL0     C96726   0.235  11.791   7.894 -0.5073 -0.6186 -0.1578
  717MOL0     C96727   0.315  11.709   7.811  0.0633 -0.3543  0.3262
  717MOL0     H96728   0.686  11.645   7.484  0.3184  1.1494 -1.0544
  717MOL0     H96729   0.832  11.528   7.322  0.0700 -2.8925  2.1245
  717MOL0     H96730   0.667  11.254   6.995 -0.7498 -0.6510 -0.0568
  717MOL0     H96731   0.696  11.430   6.965  0.7399 -1.8596 -0.6531
  717MOL0     H96732   0.933  11.406   6.936  2.7883 -1.2458 -0.4820
  717MOL0     H96733   0.921  11.232   6.970 -0.2305  0.2548 -0.0480
  717MOL0     H96734   0.808  11.173   6.781  4.3994 -2.1075 -0.5689
  717MOL0     H96735   0.732  11.328   6.761  0.8993  3.7197 -0.5856
  717MOL0     H96736   0.924  11.431   6.666 -4.8473 -0.2090  2.1892
  717MOL0     H96737   1.035  11.309   6.732  1.0589 -0.1606 -2.2992
  717MOL0     H96738   0.790  11.238   6.521  1.0799  3.2187 -3.9793
  717MOL0     H96739   0.952  11.305   6.477  0.3454  3.2481  2.5571
  717MOL0     H96740   1.043  11.097   6.592 -1.0731  1.0750  0.2118
  717MOL0     H96741   0.879  11.037   6.606 -1.1877 -0.0383  1.1948
  717MOL0     H96742   0.850  11.065   6.364  0.9748  1.4897 -0.8524
  717MOL0     H96743   1.017  11.088   6.337 -0.7354 -0.6373 -0.6541
  717MOL0     H96744   0.928  10.829   6.494  1.2104 -0.8981  0.2084
  717MOL0     H96745   1.083  10.859   6.414  0.6417  1.9529  5.1187
  717MOL0     H96746   1.108  10.841   6.155  1.2927 -2.9784 -0.2924
  717MOL0     H96747   1.083  10.717   5.940 -1.2352 -1.3006 -2.5619
  717MOL0     H96748   0.942  10.620   5.927 -2.2199  0.8310  0.4718
  717MOL0     H96749   0.941  10.920   5.884  1.4389 -1.3540  3.4146
  717MOL0     H96750   0.813  10.794   5.839 -0.9515 -1.5174 -0.3056
  717MOL0     H96751   0.998  10.677   5.706 -0.3611  0.6199  1.6892
  717MOL0     H96752   1.085  10.831   5.714 -1.4621  3.4666 -1.8973
  717MOL0     H96753   0.813  10.824   5.607 -0.6925  0.9525 -1.0544
  717MOL0     H96754   0.958  10.803   5.504  0.5229  1.3128  0.2163
  717MOL0     H96755   0.746  11.090   5.446  1.0356 -1.9234  2.2440
  717MOL0     H96756   0.770  11.330   5.213 -0.1700 -1.0080  0.2894
  717MOL0     H96757   0.734  11.183   5.127 -2.2882 -0.2580  0.8259
  717MOL0     H96758   0.663  11.197   5.283 -1.2888 -0.2652 -0.4872
  717MOL0     H96759   1.144  11.177   4.873  3.2093 -3.2265  1.5070
  717MOL0     H96760   1.263  11.229   4.667  0.7050 -1.3814  0.9860
  717MOL0     H96761   1.309  11.351   4.478 -0.3138 -0.0842 -0.0399
  717MOL0     H96762   1.264  11.500   4.569 -0.1008  0.4029 -1.4233
  717MOL0     H96763   1.444  11.444   4.327  1.7955  0.3500 -0.0563
  717MOL0     H96764   1.310  11.531   4.332  0.5390  0.9652 -0.6045
  717MOL0     H96765   1.486  11.651   4.528 -1.4522 -0.8809 -0.0906
  717MOL0     H96766   1.429  11.722   4.374 -2.4366 -1.0235  1.5677
  717MOL0     H96767   1.659  11.522   4.403  1.4385  1.0465  2.7174
  717MOL0     H96768   1.617  11.622   4.255  2.1185 -2.1769  0.0514
  717MOL0     H96769   1.687  11.756   4.523 -3.0064 -0.6610  0.4634
  717MOL0     H96770   1.661  11.833   4.377 -2.4523  0.9345  4.2837
  717MOL0     H96771   1.912  11.803   4.442 -0.3950  0.6392 -0.2768
  717MOL0     H96772   1.897  11.636   4.397  0.3845  0.8851 -1.8851
  717MOL0     H96773   1.835  11.895   4.236  1.1009  1.3798  2.8156
  717MOL0     H96774   1.794  11.733   4.164 -0.6213  1.9815 -0.6038
  717MOL0     H96775   2.041  11.667   4.182 -1.0910 -0.1462  1.3789
  717MOL0     H96776   2.085  11.809   4.271  0.3468 -1.3983 -0.3353
  717MOL0     H96777   1.465  11.530   4.900  0.5007 -0.8796  1.9963
  717MOL0     H96778   1.354  11.451   5.097  0.4283 -0.7425  0.4652
  717MOL0     H96779   1.209  11.093   5.276 -0.6816 -3.4675 -3.0854
  717MOL0     H96780   1.157  11.016   5.505 -0.1472 -3.8404 -1.4015
  717MOL0     H96781   0.492  11.387   7.107  0.7663 -1.4654  0.4510
  717MOL0     H96782   0.343  11.529   7.253 -0.4741  1.0325  0.9967
  717MOL0     H96783   0.222  11.824   7.506 -1.5734 -0.2166  0.6411
  717MOL0     H96784   0.095  11.971   7.642 -2.5734 -0.8227  0.0555
  717MOL0     H96785   0.047  11.917   8.081  1.6648 -0.1823  4.4772
  717MOL0     H96786   0.208  11.963   8.094  0.4539  0.5199  0.2877
  717MOL0     H96787   0.055  12.116   8.207 -2.1624 -3.1852 -0.6028
  717MOL0     H96788  -0.050  12.140   8.068  0.8309  0.6568 -1.7058
  717MOL0     H96789   0.134  12.267   7.953 -0.8624 -1.3550  0.2674
  717MOL0     H96790   0.242  12.233   8.080 -0.3117  2.6363  0.1072
  717MOL0     H96791   0.075  12.358   8.253 -2.3805 -1.7249 -1.5052
  717MOL0     H96792  -0.012  12.390   8.107 -0.2218  1.4717  2.5730
  717MOL0     H96793   0.301  12.660   8.050 -0.2312 -1.7471  0.8736
  717MOL0     H96794   0.231  11.774   8.001  2.2770  1.2257  0.3308
  717MOL0     H96795   0.390  11.639   7.848  3.0404 -1.3020 -6.1532
  718MOL0     O96796   8.175   2.255  11.314 -0.1651  0.6344 -0.1498
  718MOL0     C96797   8.158   2.260  11.432  1.1541 -0.0934  0.2239
  718MOL0     O96798   8.243   2.320  11.523 -0.2155  0.2285 -0.2316
  718MOL0     C96799   8.358   2.385  11.485  0.2163 -0.0598  0.4022
  718MOL0     C96800   8.443   2.322  11.389  0.0860 -0.7279  1.4747
  718MOL0     C96801   8.543   2.404  11.326 -0.1925 -0.0218 -0.4245
  718MOL0     C96802   8.564   2.536  11.354 -0.0569 -0.1915 -1.0579
  718MOL0     O96803   8.666   2.611  11.297  0.8184  0.4833 -0.7911
  718MOL0     C96804   8.627   2.747  11.250  0.1635  0.6184  0.6988
  718MOL0     C96805   8.686   2.782  11.116  0.6442 -0.4677 -0.4215
  718MOL0     C96806   8.842   2.816  11.127 -0.1673 -0.1581 -0.7941
  718MOL0     C96807   8.908   2.871  11.012  0.1466 -1.4913 -0.4058
  718MOL0     C96808   8.921   2.765  10.903 -0.4237  0.3472 -1.0030
  718MOL0     C96809   8.791   2.760  10.811  0.1075 -0.0208 -0.0931
  718MOL0     C96810   8.816   2.708  10.671  0.0345  0.4023  0.6433
  718MOL0     C96811   8.861   2.563  10.661 -0.0843 -0.2657 -0.1514
  718MOL0     N96812   8.766   2.465  10.721 -0.0234  0.0605  1.4717
  718MOL0     C96813   8.781   2.408  10.844  0.7340 -0.5220  0.0677
  718MOL0     C96814   8.693   2.305  10.846 -0.6103  0.6761 -0.7809
  718MOL0     C96815   8.658   2.219  10.965 -0.5158 -0.1516  0.2411
  718MOL0     C96816   8.607   2.087  10.916 -1.0016  0.0142  0.5385
  718MOL0     C96817   8.693   2.010  10.820 -0.5055 -0.3027 -0.0086
  718MOL0     C96818   8.682   1.852  10.853 -0.2120 -0.3511  0.3228
  718MOL0     O96819   8.753   1.824  10.974  0.6708 -0.8618  0.1325
  718MOL0     C96820   8.787   1.691  11.004 -0.1659  1.0518 -0.4965
  718MOL0     C96821   8.756   1.576  10.924 -0.0832 -0.0236  0.3588
  718MOL0     C96822   8.787   1.452  10.955 -0.3150  0.1550 -0.9837
  718MOL0     C96823   8.752   1.339  10.863 -0.0448 -0.6500  0.4151
  718MOL0     C96824   8.871   1.434  11.074 -0.6883  0.5246 -0.6434
  718MOL0     C96825   8.895   1.303  11.122 -0.0115 -0.0139  0.3761
  718MOL0     O96826   8.790   1.232  11.141 -0.7997  0.1861  0.0907
  718MOL0     C96827   8.793   1.116  11.223 -0.3797 -0.3555  1.0030
  718MOL0     C96828   8.829   0.996  11.159  1.1468  0.3429 -0.5682
  718MOL0     C96829   8.843   0.887  11.236 -0.4268  0.1252  0.8233
  718MOL0     C96830   8.831   0.883  11.374 -0.3647  0.0490  0.1148
  718MOL0     O96831   8.849   0.762  11.438 -0.2026  0.0987 -0.2871
  718MOL0     C96832   8.894   0.765  11.575  0.8967 -0.5143 -1.2374
  718MOL0     C96833   8.953   0.635  11.626  0.3495 -0.1220 -0.3903
  718MOL0     C96834   8.847   0.526  11.627  0.7676 -0.6319 -0.8762
  718MOL0     C96835   8.869   0.416  11.730 -0.0187  0.1460 -0.1181
  718MOL0     C96836   8.796   0.284  11.716  1.3730 -0.3678 -0.4268
  718MOL0     C96837   8.791   0.208  11.856 -0.0585  0.4301 -0.1261
  718MOL0     C96838   8.755   0.057  11.847 -0.1317 -0.3826 -0.1404
  718MOL0     C96839   8.758  -0.002  11.989 -0.5651  0.4538  0.2063
  718MOL0    Cl96840   8.926  -0.012  12.039  0.1734  0.0918 -0.0887
  718MOL0     C96841   8.800   1.008  11.437 -0.0787 -0.5586 -0.9115
  718MOL0     C96842   8.784   1.131  11.364  0.5523 -0.4554 -0.2081
  718MOL0     O96843   9.006   1.280  11.167 -0.6568  0.7482  1.1806
  718MOL0     C96844   8.903   1.537  11.157 -0.4786  0.1512  0.4090
  718MOL0     C96845   8.873   1.663  11.108 -0.2666 -0.5995 -0.0542
  718MOL0     N96846   8.618   2.306  10.725 -0.5658 -0.6974  0.2158
  718MOL0     N96847   8.661   2.395  10.657 -0.2841 -0.1203  0.4499
  718MOL0     C96848   8.476   2.590  11.457 -0.0621 -0.3842 -0.8376
  718MOL0     C96849   8.381   2.513  11.528  0.2380  0.6416 -0.6425
  718MOL0     C96850   8.025   2.206  11.484  0.1216 -0.5553 -0.0007
  718MOL0     C96851   7.989   2.226  11.616  0.3317 -0.4021 -0.8277
  718MOL0     C96852   7.860   2.184  11.650  0.2246 -1.1279 -0.0217
  718MOL0     C96853   7.769   2.123  11.566 -1.0325  0.4457 -0.5672
  718MOL0     O96854   7.652   2.087  11.629  0.0225  0.0242 -0.3971
  718MOL0     C96855   7.529   2.084  11.543  0.0875 -0.3682 -0.4053
  718MOL0     C96856   7.394   2.106  11.628  0.0662 -0.1426  0.5394
  718MOL0     C96857   7.359   1.996  11.725 -0.6426  0.3147 -0.3886
  718MOL0     C96858   7.369   2.035  11.870  0.9542 -0.0852 -0.4044
  718MOL0     C96859   7.325   1.935  11.965  0.7309  0.1945  0.5805
  718MOL0     C96860   7.279   1.843  12.039  0.7373  0.4367  0.4930
  718MOL0     C96861   7.814   2.103  11.437 -0.9005  0.6992  0.5415
  718MOL0     C96862   7.935   2.143  11.391  0.4923  0.3020 -0.1471
  718MOL0     H96863   8.432   2.221  11.349  1.0456  1.1236 -4.5289
  718MOL0     H96864   8.618   2.372  11.254  0.6737 -0.1878  0.5376
  718MOL0     H96865   8.518   2.758  11.248 -0.2271 -2.4529 -0.7017
  718MOL0     H96866   8.661   2.824  11.320  0.0560  0.0852  1.3576
  718MOL0     H96867   8.653   2.709  11.042  1.0899  0.8621 -1.9718
  718MOL0     H96868   8.637   2.873  11.080  2.2211 -0.2916 -2.2622
  718MOL0     H96869   8.871   2.877  11.212  1.9886  0.6995 -2.0596
  718MOL0     H96870   8.891   2.719  11.136 -1.1669 -1.1469 -4.2885
  718MOL0     H96871   8.854   2.963  10.985  1.9171  0.1007  1.1789
  718MOL0     H96872   9.007   2.906  11.042 -0.4778  0.1619 -0.1561
  718MOL0     H96873   9.017   2.783  10.854  1.7131 -0.6463  2.4984
  718MOL0     H96874   8.934   2.666  10.949 -2.9492  0.2006 -0.4615
  718MOL0     H96875   8.723   2.684  10.851  0.4392  0.2353  0.9864
  718MOL0     H96876   8.743   2.858  10.812  1.6715  0.7866  1.6211
  718MOL0     H96877   8.731   2.724  10.604  0.0801  2.9271  1.0879
  718MOL0     H96878   8.891   2.773  10.625  2.5243 -3.2759 -1.0082
  718MOL0     H96879   8.966   2.544  10.685 -0.1877 -1.6660 -0.6693
  718MOL0     H96880   8.852   2.538  10.555 -2.2660 -1.1083  0.1595
  718MOL0     H96881   8.848   2.427  10.927  1.1817  1.3078 -0.6606
  718MOL0     H96882   8.738   2.210  11.040 -3.0192 -0.8211  3.0047
  718MOL0     H96883   8.576   2.267  11.019  0.1309 -1.1158  2.1837
  718MOL0     H96884   8.508   2.091  10.868  0.1860 -3.8534 -2.8847
  718MOL0     H96885   8.597   2.032  11.009  0.5326  0.0733  0.7517
  718MOL0     H96886   8.798   2.041  10.827 -0.0253 -1.9636  0.7040
  718MOL0     H96887   8.655   2.022  10.718 -4.3205 -2.1028  1.0295
  718MOL0     H96888   8.731   1.800  10.771  0.7802  0.7911  0.1556
  718MOL0     H96889   8.578   1.821  10.867  1.0812 -4.1514  3.5455
  718MOL0     H96890   8.709   1.593  10.828  1.5004 -1.3107 -0.6988
  718MOL0     H96891   8.647   1.363  10.840 -0.8329 -2.8845  1.3518
  718MOL0     H96892   8.811   1.341  10.771 -3.0639 -1.2090 -1.6906
  718MOL0     H96893   8.750   1.238  10.906  0.6598 -0.7293  0.2657
  718MOL0     H96894   8.844   1.004  11.052  0.3453 -2.4689 -0.9588
  718MOL0     H96895   8.874   0.793  11.192  1.9689 -0.2556  3.0086
  718MOL0     H96896   8.973   0.840  11.573  2.1699 -1.7378  0.4858
  718MOL0     H96897   8.811   0.787  11.643  0.9264 -1.1681 -0.9806
  718MOL0     H96898   9.043   0.602  11.572  2.0185  1.7003  1.1187
  718MOL0     H96899   8.970   0.651  11.733 -0.4770 -0.1756 -0.2465
  718MOL0     H96900   8.823   0.487  11.528 -3.1181 -0.7218 -0.0820
  718MOL0     H96901   8.746   0.566  11.638  0.7736 -0.1047 -2.5275
  718MOL0     H96902   8.976   0.396  11.730 -0.0340  0.0719  0.0321
  718MOL0     H96903   8.852   0.450  11.832 -1.5725  0.9169 -0.5929
  718MOL0     H96904   8.838   0.214  11.644 -0.5693 -3.2507  1.0318
  718MOL0     H96905   8.700   0.319  11.677  1.2661  0.2156  0.3151
  718MOL0     H96906   8.884   0.223  11.911  0.7553  0.4408 -1.4419
  718MOL0     H96907   8.717   0.249  11.925 -0.3662 -3.9960  2.5746
  718MOL0     H96908   8.838   0.022  11.784  3.6121  0.3905  3.9126
  718MOL0     H96909   8.657   0.028  11.807 -0.5304  0.3469  0.2972
  718MOL0     H96910   8.711  -0.101  11.990  0.8307 -0.2816 -1.2074
  718MOL0     H96911   8.690   0.051  12.056 -0.0901  0.9708  0.2907
  718MOL0     H96912   8.789   1.001  11.545 -0.2053 -0.0597 -0.8918
  718MOL0     H96913   8.790   1.229  11.409 -4.0980  0.0515 -0.2548
  718MOL0     H96914   8.961   1.521  11.247  0.3787  1.0859  0.0380
  718MOL0     H96915   8.895   1.743  11.178 -2.2202 -2.4430  2.8371
  718MOL0     H96916   8.476   2.695  11.485 -0.0877 -0.8150  0.9035
  718MOL0     H96917   8.321   2.549  11.611  0.7685  0.5230 -0.2063
  718MOL0     H96918   8.054   2.267  11.693  2.1204 -2.9724 -0.8379
  718MOL0     H96919   7.824   2.180  11.752 -0.5965 -1.8856 -0.3253
  718MOL0     H96920   7.554   2.144  11.455 -4.1168  0.2656 -1.3703
  718MOL0     H96921   7.504   1.989  11.495 -7.3761  0.9032 -0.2608
  718MOL0     H96922   7.314   2.118  11.555  2.2061  1.0309 -1.7546
  718MOL0     H96923   7.394   2.204  11.676  0.2467  0.9698 -1.6004
  718MOL0     H96924   7.433   1.916  11.712 -1.5304 -0.3109 -1.9191
  718MOL0     H96925   7.260   1.957  11.701 -1.1039 -0.2930  2.2414
  718MOL0     H96926   7.300   2.118  11.883  0.0668 -0.8992  0.1931
  718MOL0     H96927   7.469   2.068  11.902 -0.4841  3.5531  0.8161
  718MOL0     H96928   7.230   1.761  12.088 -0.1445  0.2729 -0.6242
  718MOL0     H96929   7.749   2.032  11.386 -0.6520 -0.2442  1.5050
  718MOL0     H96930   7.948   2.144  11.283  3.9210 -1.0329  0.1171
  719MOL0     O96931   5.304   5.944  10.022 -0.8440 -0.3257 -0.1666
  719MOL0     C96932   5.305   5.853  10.102 -0.7218 -0.4465 -0.3467
  719MOL0     O96933   5.369   5.857  10.229 -0.1757  0.4991  0.0102
  719MOL0     C96934   5.433   5.966  10.266  0.7016 -0.0073  0.9082
  719MOL0     C96935   5.562   5.990  10.212 -0.1608 -0.0090  0.0176
  719MOL0     C96936   5.630   6.112  10.254  0.4861  0.7175  0.7308
  719MOL0     C96937   5.579   6.204  10.338  0.2092  0.5089  0.0367
  719MOL0     O96938   5.657   6.308  10.379 -0.2260 -0.1035 -1.1677
  719MOL0     C96939   5.591   6.431  10.418 -0.3272  0.5760 -0.0281
  719MOL0     C96940   5.688   6.537  10.368  1.0850 -0.3910  0.4227
  719MOL0     C96941   5.814   6.559  10.456 -0.9241  0.2124  0.5268
  719MOL0     C96942   5.935   6.477  10.420  0.4344  0.3378  0.3261
  719MOL0     C96943   6.048   6.508  10.513  0.4257 -0.0404 -0.4096
  719MOL0     C96944   6.168   6.412  10.480  0.7572  0.6348  0.5584
  719MOL0     C96945   6.246   6.449  10.352  0.3048  0.3250 -0.0334
  719MOL0     C96946   6.352   6.341  10.295  0.5329 -0.3240 -0.3291
  719MOL0     N96947   6.289   6.283  10.172 -1.0887 -0.2150  1.0860
  719MOL0     C96948   6.168   6.204  10.173 -0.1965 -0.4821 -0.6495
  719MOL0     C96949   6.188   6.121  10.073 -0.0094 -0.4817 -0.0190
  719MOL0     C96950   6.099   6.012  10.030 -0.1697  0.2980 -0.4625
  719MOL0     C96951   6.072   6.036   9.886 -0.0686 -0.1656 -0.4301
  719MOL0     C96952   5.970   5.946   9.818  0.0708 -0.4906  0.3424
  719MOL0     C96953   5.913   6.003   9.686  0.0681  0.0433  0.5617
  719MOL0     O96954   5.803   5.916   9.642  0.2417  0.3812  0.0931
  719MOL0     C96955   5.821   5.826   9.541 -1.1352 -0.0475 -1.1678
  719MOL0     C96956   5.817   5.856   9.399 -0.0821  0.2669 -0.3189
  719MOL0     C96957   5.828   5.752   9.308 -0.1287  0.6657  0.0493
  719MOL0     C96958   5.799   5.767   9.161 -0.3601  0.0608  0.1927
  719MOL0     C96959   5.876   5.635   9.355 -1.3903 -0.4598 -0.6498
  719MOL0     C96960   5.910   5.520   9.264  0.1226 -0.1440 -0.2111
  719MOL0     O96961   6.038   5.491   9.251  0.2210  0.8863  0.9142
  719MOL0     C96962   6.091   5.372   9.201  0.8135 -0.1144  0.3504
  719MOL0     C96963   6.228   5.362   9.171  0.2702 -0.2247  0.2602
  719MOL0     C96964   6.285   5.252   9.110  0.2855  1.3665  0.5288
  719MOL0     C96965   6.210   5.129   9.088  0.5051  0.4340  0.0587
  719MOL0     O96966   6.242   5.014   9.009 -0.5327  0.7511  0.6968
  719MOL0     C96967   6.381   4.994   8.962  0.0107 -0.7298  0.6812
  719MOL0     C96968   6.409   5.089   8.841 -0.6725 -0.8078  0.2222
  719MOL0     C96969   6.332   5.028   8.726 -0.4775 -0.7675 -0.6345
  719MOL0     C96970   6.402   4.899   8.682 -0.8983 -0.3394 -0.1975
  719MOL0     C96971   6.374   4.866   8.533  0.4066 -0.7115  1.1520
  719MOL0     C96972   6.236   4.808   8.505  0.4359 -0.2567  0.3994
  719MOL0     C96973   6.117   4.903   8.475  0.2607  0.3364 -0.0356
  719MOL0     C96974   5.993   4.843   8.402 -0.1602 -0.5944  0.1668
  719MOL0    Cl96975   5.993   4.682   8.333 -0.0032 -0.0513  0.1054
  719MOL0     C96976   6.069   5.133   9.122 -0.1495  0.0534 -0.0595
  719MOL0     C96977   6.023   5.250   9.183 -0.5482  0.5567  1.1373
  719MOL0     O96978   5.817   5.453   9.221 -0.4126 -0.2404  0.1738
  719MOL0     C96979   5.896   5.603   9.489 -0.2467 -0.1312  0.4671
  719MOL0     C96980   5.864   5.700   9.576  0.6675  0.0591  0.0913
  719MOL0     N96981   6.306   6.158  10.012 -0.1478  0.6479  0.3569
  719MOL0     N96982   6.364   6.267  10.062 -0.5348 -0.2388 -0.4900
  719MOL0     C96983   5.459   6.167  10.408  0.1998 -0.3637  0.9007
  719MOL0     C96984   5.381   6.053  10.355  0.0452 -1.2153 -0.8087
  719MOL0     C96985   5.239   5.722  10.051 -0.4227 -0.0064 -1.4069
  719MOL0     C96986   5.180   5.708   9.911 -1.2477  0.5945 -0.2029
  719MOL0     C96987   5.110   5.587   9.880 -0.8404 -1.8724  0.9148
  719MOL0     C96988   5.117   5.481   9.958 -0.4906  0.7008 -0.1905
  719MOL0     O96989   5.055   5.363   9.909 -0.4629  0.7938  0.0368
  719MOL0     C96990   5.082   5.249   9.989 -0.2177  0.0814  0.1044
  719MOL0     C96991   5.026   5.123   9.924 -0.1096  0.3138 -0.9636
  719MOL0     C96992   4.898   5.141   9.849 -0.4079  0.0325  0.4130
  719MOL0     C96993   4.849   5.002   9.811 -1.1356 -0.2113  0.0394
  719MOL0     C96994   4.742   5.018   9.713  0.5600  0.2288  0.6648
  719MOL0     C96995   4.668   5.045   9.616  0.3133 -0.0374 -0.1144
  719MOL0     C96996   5.170   5.484  10.084 -0.1056  0.4560  0.2487
  719MOL0     C96997   5.226   5.607  10.130  0.2516 -0.1639  0.0393
  719MOL0     H96998   5.611   5.940  10.129  0.4003  2.7550 -1.4456
  719MOL0     H96999   5.713   6.146  10.192  0.2923 -0.7808 -0.4237
  719MOL0     H97000   5.487   6.427  10.385 -0.5142  0.8323  0.5160
  719MOL0     H97001   5.583   6.426  10.527 -1.7096 -3.0103 -0.1258
  719MOL0     H97002   5.714   6.509  10.266 -0.9028 -2.3771  0.3906
  719MOL0     H97003   5.630   6.630  10.375  3.2260  1.0249  0.1074
  719MOL0     H97004   5.842   6.661  10.431 -2.1067  1.0646  2.4002
  719MOL0     H97005   5.782   6.556  10.561  1.6312  1.1321  1.4092
  719MOL0     H97006   5.913   6.370  10.429  0.1093  0.4630  1.1414
  719MOL0     H97007   5.959   6.507  10.318 -0.9800  0.9991  0.1677
  719MOL0     H97008   6.089   6.609  10.505  1.5004 -0.3951  0.4466
  719MOL0     H97009   6.013   6.494  10.616  0.3809 -0.8398 -0.5313
  719MOL0     H97010   6.229   6.419  10.571 -0.7730 -0.3971  1.7255
  719MOL0     H97011   6.143   6.305  10.474  2.6623  0.1984 -0.4479
  719MOL0     H97012   6.182   6.467  10.265 -0.7651 -0.9121  0.4570
  719MOL0     H97013   6.295   6.545  10.373 -4.5500  4.1606 -3.8800
  719MOL0     H97014   6.377   6.260  10.365 -3.4384 -0.9204  0.6366
  719MOL0     H97015   6.448   6.383  10.261  0.8201 -1.7171 -1.3477
  719MOL0     H97016   6.096   6.197  10.253 -0.1926  4.2280  0.0640
  719MOL0     H97017   6.147   5.914  10.033  2.2125  1.1826 -3.9634
  719MOL0     H97018   5.999   6.006  10.074 -0.4315 -6.0454 -1.0500
  719MOL0     H97019   6.167   6.007   9.839 -0.4214 -0.0261 -1.2391
  719MOL0     H97020   6.046   6.141   9.868  2.7299  0.5996 -0.5142
  719MOL0     H97021   5.884   5.934   9.884 -4.8695 -2.4123 -5.5201
  719MOL0     H97022   6.008   5.846   9.795 -1.3311 -0.6912 -1.3360
  719MOL0     H97023   5.999   6.004   9.618 -1.2574 -1.1472 -1.2194
  719MOL0     H97024   5.871   6.099   9.716 -1.9816 -0.2590 -1.1338
  719MOL0     H97025   5.788   5.956   9.368 -0.4882  0.2942  0.1334
  719MOL0     H97026   5.761   5.671   9.127  2.8076 -1.7495  1.3290
  719MOL0     H97027   5.728   5.849   9.144  1.5689  1.9171  0.5737
  719MOL0     H97028   5.890   5.789   9.104  0.3293 -0.5042  1.0424
  719MOL0     H97029   6.290   5.450   9.161 -1.8130  1.3098  0.0083
  719MOL0     H97030   6.392   5.238   9.096 -0.0082 -1.9799  0.7242
  719MOL0     H97031   6.451   5.019   9.042  0.4726  4.3983 -0.9512
  719MOL0     H97032   6.403   4.891   8.934 -0.2922 -0.7777  0.6139
  719MOL0     H97033   6.365   5.188   8.859 -0.7886 -0.5358 -1.3987
  719MOL0     H97034   6.512   5.098   8.805 -0.1746  0.9462  1.9347
  719MOL0     H97035   6.320   5.104   8.648 -1.9873  1.9793  2.0681
  719MOL0     H97036   6.234   4.999   8.765  0.6710 -3.5106  0.4549
  719MOL0     H97037   6.510   4.901   8.698 -0.6323 -0.5423 -1.7855
  719MOL0     H97038   6.348   4.823   8.739 -2.5917  0.5352 -0.5864
  719MOL0     H97039   6.440   4.782   8.508 -1.0230 -1.2803 -1.0470
  719MOL0     H97040   6.383   4.960   8.477  3.3130 -2.0567 -0.9069
  719MOL0     H97041   6.238   4.747   8.414 -4.3784 -0.5286  0.2231
  719MOL0     H97042   6.211   4.741   8.588  1.4346 -0.6988  0.3531
  719MOL0     H97043   6.151   4.990   8.419  1.1931 -0.2100 -0.3236
  719MOL0     H97044   6.068   4.926   8.570 -1.8103 -3.5692  0.0395
  719MOL0     H97045   5.974   4.910   8.317  2.0551 -1.7713 -1.3927
  719MOL0     H97046   5.919   4.850   8.482  0.8005  1.2743  0.9714
  719MOL0     H97047   6.003   5.048   9.107 -1.3129  1.0520 -0.7848
  719MOL0     H97048   5.920   5.241   9.216 -0.6769 -0.0901  0.5794
  719MOL0     H97049   5.948   5.513   9.519 -0.2529 -0.4272 -0.3800
  719MOL0     H97050   5.870   5.670   9.680  0.1852 -1.6686 -0.3322
  719MOL0     H97051   5.420   6.239  10.479 -1.4072  0.9919 -1.2401
  719MOL0     H97052   5.286   6.054  10.408  0.6880  2.7601  0.5991
  719MOL0     H97053   5.183   5.790   9.841  2.2692  1.8091  1.1606
  719MOL0     H97054   5.047   5.577   9.792  0.6057 -0.2907 -0.3685
  719MOL0     H97055   5.189   5.233  10.000 -0.2220  0.3684  0.5503
  719MOL0     H97056   5.046   5.255  10.092 -1.3787 -2.3198 -0.0713
  719MOL0     H97057   5.016   5.048  10.003 -2.3836 -0.5054 -1.9270
  719MOL0     H97058   5.092   5.084   9.846  0.7428  0.3978 -0.2935
  719MOL0     H97059   4.911   5.206   9.761 -0.7715 -1.4084 -0.7426
  719MOL0     H97060   4.828   5.181   9.923  1.2169 -0.4997  2.3027
  719MOL0     H97061   4.808   4.947   9.896 -3.4129 -2.0378 -2.1047
  719MOL0     H97062   4.928   4.939   9.770 -0.8311 -0.7142  1.3509
  719MOL0     H97063   4.602   5.076   9.536 -3.2348 -4.8035  0.4774
  719MOL0     H97064   5.162   5.403  10.156 -1.9514  1.9393  1.8123
  719MOL0     H97065   5.254   5.613  10.234 -0.7334 -0.3259  0.3188
  720MOL0     O97066   6.049   5.016   3.065  0.6402 -0.1495 -0.0657
  720MOL0     C97067   6.104   5.058   2.963 -0.0945 -0.2020 -0.4123
  720MOL0     O97068   6.226   5.118   2.962 -0.0298 -0.0951 -0.6395
  720MOL0     C97069   6.277   5.188   3.067  0.5726 -0.1056 -0.9566
  720MOL0     C97070   6.200   5.253   3.164  0.3860 -0.3453  0.8783
  720MOL0     C97071   6.250   5.334   3.258 -0.9460  0.7668  0.2221
  720MOL0     C97072   6.382   5.361   3.271  0.2191 -0.3133  0.6553
  720MOL0     O97073   6.437   5.441   3.365 -0.5009  0.4597 -0.6642
  720MOL0     C97074   6.372   5.558   3.402 -0.4521  0.2508 -0.5714
  720MOL0     C97075   6.379   5.672   3.309  0.7359 -0.5296  0.9915
  720MOL0     C97076   6.524   5.703   3.257 -1.6112  0.4565  1.0005
  720MOL0     C97077   6.527   5.824   3.161 -0.1062  1.1186  0.1177
  720MOL0     C97078   6.448   5.787   3.032 -0.4692 -0.6871 -1.0331
  720MOL0     C97079   6.453   5.900   2.929 -0.6454  0.8993 -0.2568
  720MOL0     C97080   6.363   5.864   2.808  0.7097 -0.2640 -0.3011
  720MOL0     C97081   6.332   5.987   2.722  0.2680  0.6823  0.0858
  720MOL0     N97082   6.279   5.956   2.594 -0.0178  0.2008 -0.6827
  720MOL0     C97083   6.172   5.876   2.564 -0.3678 -0.8569  0.9320
  720MOL0     C97084   6.162   5.889   2.432  0.6579  0.5159  0.4167
  720MOL0     C97085   6.065   5.824   2.342  0.2077 -0.6395  0.5607
  720MOL0     C97086   6.070   5.673   2.353  0.2770  0.7714 -0.2912
  720MOL0     C97087   5.963   5.598   2.264 -0.1979 -0.4026 -0.0703
  720MOL0     C97088   5.970   5.451   2.298 -0.5064 -0.3644 -0.5488
  720MOL0     O97089   5.924   5.413   2.427 -0.2490  0.7877  0.0274
  720MOL0     C97090   5.790   5.390   2.433 -0.2910  1.3055  0.8676
  720MOL0     C97091   5.737   5.277   2.361 -0.3351 -0.6300 -0.5168
  720MOL0     C97092   5.603   5.247   2.362 -1.2452 -0.4810 -0.3454
  720MOL0     C97093   5.576   5.125   2.286 -0.4697 -0.8539  0.6692
  720MOL0     C97094   5.506   5.343   2.417 -0.5116  0.3510 -1.0703
  720MOL0     C97095   5.364   5.328   2.380 -0.6547 -0.0850 -0.5145
  720MOL0     O97096   5.297   5.445   2.366 -0.5454 -0.9694  0.3065
  720MOL0     C97097   5.163   5.448   2.342 -0.9807 -0.0739  0.4664
  720MOL0     C97098   5.098   5.382   2.235 -0.9529 -0.1307 -0.1747
  720MOL0     C97099   4.962   5.378   2.228  1.0404  0.2522  0.3126
  720MOL0     C97100   4.883   5.461   2.305  0.8447 -0.9780 -0.5490
  720MOL0     O97101   4.751   5.481   2.278  0.2956 -0.2093 -0.4174
  720MOL0     C97102   4.683   5.407   2.184  0.7921  0.5294 -0.2800
  720MOL0     C97103   4.537   5.454   2.196  0.1230 -1.0340  0.0424
  720MOL0     C97104   4.462   5.369   2.093 -1.4102  0.4577  0.7072
  720MOL0     C97105   4.306   5.378   2.124 -0.2539  0.6468 -0.2492
  720MOL0     C97106   4.210   5.325   2.010 -0.8307  0.1769  0.7237
  720MOL0     C97107   4.215   5.431   1.895  0.5694 -0.0895  0.5336
  720MOL0     C97108   4.103   5.405   1.785 -0.9779  0.4583 -1.0191
  720MOL0     C97109   4.124   5.497   1.664 -0.0866  0.1479  0.3954
  720MOL0    Cl97110   4.073   5.670   1.678 -0.3030 -0.2899  0.3996
  720MOL0     C97111   4.947   5.545   2.394  0.0114 -0.4726  0.4525
  720MOL0     C97112   5.086   5.542   2.411 -0.1797  0.3799 -0.7879
  720MOL0     O97113   5.316   5.212   2.372 -0.8083 -1.0205  0.4026
  720MOL0     C97114   5.554   5.455   2.486 -1.0181 -1.0035  0.6800
  720MOL0     C97115   5.689   5.479   2.487  0.0506  0.2745  0.5961
  720MOL0     N97116   6.251   5.984   2.388 -0.5278  0.2489  0.3317
  720MOL0     N97117   6.342   5.998   2.479 -0.4871 -0.0420  0.5724
  720MOL0     C97118   6.464   5.308   3.172 -0.2841  0.7641 -0.1708
  720MOL0     C97119   6.408   5.225   3.073 -0.5729 -0.4003  0.6971
  720MOL0     C97120   6.046   5.026   2.830 -0.1076  0.8039 -0.8371
  720MOL0     C97121   6.090   5.102   2.722 -0.3870  0.6711  0.0097
  720MOL0     C97122   6.036   5.093   2.590 -0.0193  0.7736  1.0474
  720MOL0     C97123   5.929   5.006   2.572 -1.1122 -0.3846  0.3974
  720MOL0     O97124   5.870   4.998   2.444 -0.2921 -0.0799 -0.0482
  720MOL0     C97125   5.943   4.898   2.367 -0.7099  0.3163 -0.4944
  720MOL0     C97126   5.876   4.810   2.261  0.0375  0.7127  1.1937
  720MOL0     C97127   5.782   4.701   2.293  0.4542 -0.9721 -0.2823
  720MOL0     C97128   5.725   4.608   2.182  0.5448  0.6281  0.6556
  720MOL0     C97129   5.819   4.512   2.125  0.4310 -0.5946  0.7770
  720MOL0     C97130   5.886   4.437   2.069 -0.9097  0.0278  0.1525
  720MOL0     C97131   5.878   4.933   2.682 -0.8309  0.0177  0.5924
  720MOL0     C97132   5.939   4.937   2.807  0.3707  0.3224 -0.4600
  720MOL0     H97133   6.092   5.247   3.167  0.0765  2.6149 -0.2827
  720MOL0     H97134   6.174   5.384   3.317  0.6523  3.3518  0.2528
  720MOL0     H97135   6.265   5.541   3.413 -0.5162  0.0683 -1.3751
  720MOL0     H97136   6.429   5.575   3.494 -0.8167 -2.5034  0.2427
  720MOL0     H97137   6.313   5.654   3.224  0.4798  2.1607  0.5329
  720MOL0     H97138   6.335   5.761   3.356  0.1544 -0.1819 -0.1712
  720MOL0     H97139   6.589   5.738   3.337 -0.5145 -1.1355  0.8485
  720MOL0     H97140   6.567   5.612   3.216  1.5500  2.5288 -0.6758
  720MOL0     H97141   6.487   5.908   3.219 -0.3925 -0.0469  1.6510
  720MOL0     H97142   6.630   5.844   3.129  0.1084  0.7583  0.5851
  720MOL0     H97143   6.490   5.694   2.993  0.3574 -0.5694 -0.4650
  720MOL0     H97144   6.343   5.770   3.059 -0.2287  1.5331  1.7617
  720MOL0     H97145   6.426   5.999   2.965 -0.3348  0.8859  0.0211
  720MOL0     H97146   6.557   5.922   2.905 -0.5450  0.1746 -0.5304
  720MOL0     H97147   6.415   5.792   2.743 -1.2662 -3.4217  1.4198
  720MOL0     H97148   6.269   5.818   2.837  0.2923  1.3450  0.9924
  720MOL0     H97149   6.421   6.049   2.704 -0.0405  1.1789  0.2283
  720MOL0     H97150   6.258   6.054   2.769  0.2956  0.8088 -0.0490
  720MOL0     H97151   6.122   5.802   2.625  1.6212 -2.2405  0.9750
  720MOL0     H97152   5.964   5.863   2.354  0.6819  1.4953 -1.6200
  720MOL0     H97153   6.093   5.840   2.237 -0.0223 -0.3685  0.5381
  720MOL0     H97154   6.057   5.652   2.459  1.5230  0.6823 -0.1377
  720MOL0     H97155   6.169   5.636   2.323  0.2343  3.2379 -4.2913
  720MOL0     H97156   5.993   5.623   2.161  0.3211 -1.2187 -0.1258
  720MOL0     H97157   5.858   5.628   2.274  1.0350  4.5708  0.5782
  720MOL0     H97158   6.073   5.416   2.287 -0.9392 -1.2154 -2.1253
  720MOL0     H97159   5.911   5.395   2.226 -1.4948  0.1532 -0.1548
  720MOL0     H97160   5.817   5.228   2.307  1.2401  1.1107  0.1531
  720MOL0     H97161   5.491   5.148   2.221  0.9668  2.8781 -0.1792
  720MOL0     H97162   5.656   5.104   2.214 -1.8555  0.8148 -1.4740
  720MOL0     H97163   5.540   5.046   2.351  1.9776  0.0696  3.3841
  720MOL0     H97164   5.157   5.327   2.162  0.4681 -1.6737  2.0074
  720MOL0     H97165   4.914   5.310   2.158  0.3854  0.7085  0.3121
  720MOL0     H97166   4.716   5.427   2.082 -0.2873  3.7818 -0.0855
  720MOL0     H97167   4.702   5.300   2.199 -0.0778  0.7668  3.6091
  720MOL0     H97168   4.491   5.438   2.294  0.7569 -0.9978  0.3487
  720MOL0     H97169   4.535   5.560   2.169  1.2913 -1.2833 -1.1410
  720MOL0     H97170   4.496   5.266   2.104 -2.6155 -0.1756 -0.9558
  720MOL0     H97171   4.487   5.393   1.990 -1.0956  0.4060  0.7723
  720MOL0     H97172   4.298   5.316   2.215 -2.0624  0.6593 -0.3588
  720MOL0     H97173   4.282   5.482   2.145  0.7808  0.7160  0.6570
  720MOL0     H97174   4.112   5.324   2.058 -1.1840 -1.4591  0.0547
  720MOL0     H97175   4.248   5.229   1.972 -0.7752 -0.5376  2.4891
  720MOL0     H97176   4.181   5.527   1.934 -3.5704 -0.6244 -1.2533
  720MOL0     H97177   4.315   5.446   1.853 -0.2339  2.8280 -0.6203
  720MOL0     H97178   4.003   5.390   1.827 -0.5369  0.2211 -0.0477
  720MOL0     H97179   4.134   5.311   1.739 -0.0225  1.1784 -1.9083
  720MOL0     H97180   4.078   5.454   1.575  1.1379 -1.9463  0.6805
  720MOL0     H97181   4.230   5.492   1.639  0.1221 -1.7184  1.3823
  720MOL0     H97182   4.878   5.613   2.443 -2.7960 -1.8437 -1.3180
  720MOL0     H97183   5.137   5.596   2.491 -0.7172 -2.9558  2.0269
  720MOL0     H97184   5.499   5.542   2.521  2.2300  1.8536 -0.7033
  720MOL0     H97185   5.728   5.567   2.537 -0.0635  0.0526  1.0735
  720MOL0     H97186   6.571   5.328   3.169 -0.3206  0.7997 -1.5632
  720MOL0     H97187   6.484   5.179   3.011 -0.3127 -1.0777  1.5033
  720MOL0     H97188   6.164   5.178   2.742  0.0557  1.1203 -2.8557
  720MOL0     H97189   6.070   5.157   2.509 -1.1087 -1.7040 -1.5385
  720MOL0     H97190   6.018   4.966   2.327 -1.0124  0.2327 -1.2336
  720MOL0     H97191   5.994   4.829   2.436  0.5502  1.6679 -0.0314
  720MOL0     H97192   5.952   4.763   2.198 -2.1491 -2.3916  0.6326
  720MOL0     H97193   5.802   4.878   2.218 -0.4002  0.6363  1.8201
  720MOL0     H97194   5.696   4.752   2.336 -1.4812 -3.2748 -1.2083
  720MOL0     H97195   5.834   4.646   2.373  2.1955 -0.4598 -1.0123
  720MOL0     H97196   5.680   4.678   2.111  0.3471  0.9576  1.0947
  720MOL0     H97197   5.637   4.562   2.227  0.2082 -0.0573 -0.6794
  720MOL0     H97198   5.949   4.367   2.017  1.2892  1.9279  0.0944
  720MOL0     H97199   5.788   4.877   2.659 -1.4220  1.4017 -0.6271
  720MOL0     H97200   5.901   4.905   2.903 -1.7177  2.6673 -0.3987
  721MOL0     O97201   2.672   8.098  10.245  0.8502 -0.5420 -0.2076
  721MOL0     C97202   2.644   8.168  10.146  0.0804 -0.1277  0.0067
  721MOL0     O97203   2.615   8.126  10.018  0.3284  0.4356 -0.2940
  721MOL0     C97204   2.624   7.987   9.995 -0.9945  0.4586 -0.7856
  721MOL0     C97205   2.526   7.902  10.049  0.5616  0.2684  0.4203
  721MOL0     C97206   2.545   7.764  10.038  0.8079  0.2806 -0.3708
  721MOL0     C97207   2.643   7.705   9.965 -0.7482  0.1352  0.3119
  721MOL0     O97208   2.648   7.567   9.956  0.2750  0.0489  0.3772
  721MOL0     C97209   2.738   7.500   9.876 -0.3671 -0.3387  0.4948
  721MOL0     C97210   2.685   7.515   9.727  0.1801 -0.0052  1.6137
  721MOL0     C97211   2.775   7.436   9.632  0.7522  0.3869 -0.3523
  721MOL0     C97212   2.732   7.436   9.485 -0.3625  0.8197 -0.3975
  721MOL0     C97213   2.815   7.369   9.377  0.7819  0.0800 -0.1905
  721MOL0     C97214   2.957   7.352   9.408 -0.3089 -0.4769 -0.2533
  721MOL0     C97215   3.039   7.263   9.306  0.6418 -0.6240 -0.1654
  721MOL0     C97216   3.183   7.233   9.343  0.5191 -0.0326 -0.0610
  721MOL0     N97217   3.271   7.338   9.285  0.6738 -0.4497 -0.0003
  721MOL0     C97218   3.313   7.346   9.156  0.6684  0.0998  0.6689
  721MOL0     C97219   3.384   7.456   9.164 -0.2903  0.3301  0.1608
  721MOL0     C97220   3.429   7.543   9.045  1.1509 -0.3670 -0.5453
  721MOL0     C97221   3.584   7.553   9.022  0.6937 -0.3520  0.1423
  721MOL0     C97222   3.618   7.663   8.909 -0.4987  0.5722 -0.2906
  721MOL0     C97223   3.762   7.638   8.849  0.2218  1.6904  0.5397
  721MOL0     O97224   3.864   7.633   8.945 -0.0504 -0.0060 -0.1321
  721MOL0     C97225   3.971   7.563   8.904  0.4731 -0.1198  0.1848
  721MOL0     C97226   4.047   7.590   8.787  1.0058  0.8003  0.0075
  721MOL0     C97227   4.168   7.523   8.762  0.2036  1.0092 -0.0569
  721MOL0     C97228   4.242   7.555   8.640 -0.3469  0.5914 -0.0117
  721MOL0     C97229   4.213   7.421   8.853 -1.1744 -0.0436 -0.0354
  721MOL0     C97230   4.341   7.351   8.841 -0.8858 -0.4162  0.8189
  721MOL0     O97231   4.447   7.396   8.762  0.8154 -0.5487 -0.2148
  721MOL0     C97232   4.532   7.310   8.706  0.8674 -0.9591  0.3916
  721MOL0     C97233   4.493   7.183   8.640 -0.9434  0.4356 -0.0166
  721MOL0     C97234   4.588   7.114   8.560  0.2300 -0.4291 -1.0581
  721MOL0     C97235   4.711   7.159   8.540 -0.2579 -0.2850  0.4453
  721MOL0     O97236   4.786   7.074   8.468  0.4680  0.8023  1.0776
  721MOL0     C97237   4.898   7.124   8.392 -0.0667  0.9443 -0.5346
  721MOL0     C97238   4.986   7.014   8.338 -0.2668 -0.5917 -0.1666
  721MOL0     C97239   5.094   7.072   8.238 -0.2131  0.1028 -0.7727
  721MOL0     C97240   5.177   6.962   8.177 -1.2046 -0.8005  0.5159
  721MOL0     C97241   5.313   7.003   8.114 -0.9830 -0.0075 -0.3860
  721MOL0     C97242   5.313   7.124   8.018 -0.7268 -0.9111 -0.4153
  721MOL0     C97243   5.270   7.100   7.880 -0.1197 -0.7193  0.2895
  721MOL0     C97244   5.292   7.221   7.788  0.0278 -0.3679 -0.4534
  721MOL0    Cl97245   5.184   7.345   7.846  0.3898  0.0099  0.2828
  721MOL0     C97246   4.750   7.277   8.602  0.1293 -0.0144  0.1173
  721MOL0     C97247   4.661   7.349   8.681  0.1666  0.3558 -0.5155
  721MOL0     O97248   4.347   7.247   8.901  0.2591 -0.3755 -0.1159
  721MOL0     C97249   4.142   7.408   8.975  0.2175  0.1780 -0.2185
  721MOL0     C97250   4.023   7.473   9.001 -0.3722 -0.4656  0.6199
  721MOL0     N97251   3.398   7.496   9.289 -0.4358  0.1287 -0.7496
  721MOL0     N97252   3.322   7.427   9.365 -0.0460  0.1925 -0.1718
  721MOL0     C97253   2.738   7.792   9.906  0.7086 -0.0651 -0.6736
  721MOL0     C97254   2.730   7.929   9.914  0.8637 -0.0975 -0.6996
  721MOL0     C97255   2.642   8.314  10.172 -0.7576 -0.0449 -0.9785
  721MOL0     C97256   2.676   8.370  10.296  0.1933  0.0647 -0.7952
  721MOL0     C97257   2.710   8.502  10.315  0.5558 -0.2777 -0.1668
  721MOL0     C97258   2.714   8.588  10.204 -0.9704  0.7536 -0.6564
  721MOL0     O97259   2.755   8.717  10.226 -0.2985 -0.2051 -0.6213
  721MOL0     C97260   2.831   8.788  10.126 -0.5941 -0.2136  0.6884
  721MOL0     C97261   2.913   8.896  10.182 -0.6320  0.7366 -0.5267
  721MOL0     C97262   3.044   8.850  10.249  0.0113  0.6886 -0.1229
  721MOL0     C97263   3.064   8.904  10.390 -0.7837  0.4795 -0.0122
  721MOL0     C97264   2.968   8.844  10.490 -0.0704 -0.2334  0.5046
  721MOL0     C97265   2.913   8.785  10.581 -0.6716  0.3213  0.2029
  721MOL0     C97266   2.669   8.536  10.077  0.4003 -0.4862 -0.1454
  721MOL0     C97267   2.620   8.405  10.067  0.9164 -0.0456  0.8920
  721MOL0     H97268   2.450   7.952  10.109  3.0175  3.8385  0.8328
  721MOL0     H97269   2.476   7.700  10.091  0.8231  1.1495  0.7469
  721MOL0     H97270   2.841   7.539   9.879 -1.0982  2.4355 -2.9070
  721MOL0     H97271   2.741   7.393   9.894  0.7573 -0.7105 -1.5711
  721MOL0     H97272   2.583   7.477   9.724  0.0706  0.3064 -1.6425
  721MOL0     H97273   2.681   7.613   9.679  0.3722 -0.0911  1.4196
  721MOL0     H97274   2.878   7.472   9.639  1.1904 -1.0836  1.7948
  721MOL0     H97275   2.779   7.331   9.663 -3.4371  0.2628  0.3400
  721MOL0     H97276   2.630   7.398   9.477 -0.2099  0.6782 -2.1985
  721MOL0     H97277   2.747   7.541   9.458 -2.4929  0.7170 -2.2904
  721MOL0     H97278   2.772   7.270   9.359  0.6634  0.3615 -1.5576
  721MOL0     H97279   2.801   7.426   9.285  2.0295 -0.2814 -0.6188
  721MOL0     H97280   3.005   7.449   9.426  0.3479 -1.3926  4.0102
  721MOL0     H97281   2.967   7.303   9.506  4.6341 -0.1479 -0.3717
  721MOL0     H97282   2.997   7.162   9.296 -1.5597  0.3939 -2.5416
  721MOL0     H97283   3.031   7.310   9.207 -2.4068 -0.0412  0.2638
  721MOL0     H97284   3.214   7.139   9.296  1.2914  0.2347 -0.1103
  721MOL0     H97285   3.195   7.215   9.450 -0.4479 -2.7619 -0.3463
  721MOL0     H97286   3.272   7.293   9.071 -0.7309  4.4232 -1.5944
  721MOL0     H97287   3.386   7.500   8.954 -2.1931 -3.2477  2.1203
  721MOL0     H97288   3.385   7.643   9.055 -3.4414 -1.7929 -3.5350
  721MOL0     H97289   3.638   7.464   8.990  2.1281  0.7346 -0.5246
  721MOL0     H97290   3.625   7.581   9.119  0.0509 -3.6284  1.5186
  721MOL0     H97291   3.618   7.760   8.960 -4.2546  0.5216  0.0765
  721MOL0     H97292   3.544   7.688   8.833 -2.5450  4.3225  2.6093
  721MOL0     H97293   3.777   7.717   8.775  1.3743  2.2984  1.3884
  721MOL0     H97294   3.743   7.549   8.787  1.9289  3.2874 -2.4735
  721MOL0     H97295   3.999   7.660   8.720 -1.6677 -0.2131  0.7265
  721MOL0     H97296   4.349   7.535   8.624  0.3052  2.1202  2.0130
  721MOL0     H97297   4.204   7.496   8.556  2.0487 -1.1613  0.0090
  721MOL0     H97298   4.225   7.662   8.633  0.0956  0.6691  0.0728
  721MOL0     H97299   4.394   7.139   8.643 -1.6050  1.5263 -2.8574
  721MOL0     H97300   4.566   7.024   8.503  1.0744 -0.9850 -0.5197
  721MOL0     H97301   4.859   7.187   8.311  0.3012  0.3819 -1.1532
  721MOL0     H97302   4.967   7.189   8.448  0.0178  2.4576 -2.3094
  721MOL0     H97303   5.032   6.942   8.407 -1.8158 -3.0750 -1.5577
  721MOL0     H97304   4.923   6.954   8.270  0.9561 -0.3807 -1.5383
  721MOL0     H97305   5.169   7.123   8.299  0.7232 -3.6894  1.5779
  721MOL0     H97306   5.038   7.132   8.166 -4.8517 -3.4526 -0.5922
  721MOL0     H97307   5.206   6.881   8.245  2.6939 -0.4584 -0.5016
  721MOL0     H97308   5.120   6.915   8.097 -2.7283 -0.6647  1.4786
  721MOL0     H97309   5.341   6.916   8.055 -1.1230 -0.2092 -0.1554
  721MOL0     H97310   5.388   7.011   8.193 -1.5562  5.3169 -0.0140
  721MOL0     H97311   5.262   7.209   8.064 -0.6352 -0.2464 -1.5089
  721MOL0     H97312   5.417   7.160   8.017 -0.7882 -0.6301  0.9149
  721MOL0     H97313   5.166   7.070   7.890  0.0212 -1.8655 -1.4340
  721MOL0     H97314   5.323   7.012   7.843  1.2677 -0.6107  1.8922
  721MOL0     H97315   5.269   7.179   7.689  1.0444 -0.7423 -0.5422
  721MOL0     H97316   5.394   7.257   7.801  0.5194 -1.8902  0.2072
  721MOL0     H97317   4.852   7.309   8.580  0.1281  0.9259  1.3805
  721MOL0     H97318   4.688   7.448   8.715 -2.5446  1.4289 -1.2065
  721MOL0     H97319   4.171   7.337   9.052  1.0900  2.4958  1.7524
  721MOL0     H97320   3.960   7.461   9.088  0.1613 -0.9314  0.9501
  721MOL0     H97321   2.829   7.757   9.859  1.3267  0.7916 -0.1380
  721MOL0     H97322   2.808   7.997   9.881  1.0663  0.2926  0.5294
  721MOL0     H97323   2.687   8.299  10.377 -2.9465  0.5207  0.1558
  721MOL0     H97324   2.750   8.540  10.409  1.1891 -1.2515 -0.0181
  721MOL0     H97325   2.886   8.712  10.070 -0.9750  0.2033 -0.2691
  721MOL0     H97326   2.759   8.831  10.056  0.3887 -0.3017 -0.4047
  721MOL0     H97327   2.845   8.953  10.246  3.1904  3.3336  1.5804
  721MOL0     H97328   2.936   8.962  10.098 -0.4704 -1.6806 -2.5106
  721MOL0     H97329   3.123   8.903  10.195  1.0942 -0.0872  0.6730
  721MOL0     H97330   3.054   8.742  10.231 -2.2411  0.1740  1.3683
  721MOL0     H97331   3.057   9.013  10.382 -3.4440  0.7347  3.3586
  721MOL0     H97332   3.167   8.882  10.421 -0.7908  0.2541 -0.1483
  721MOL0     H97333   2.868   8.762  10.676  0.6331 -0.7796  0.5957
  721MOL0     H97334   2.673   8.602   9.990 -1.0359  1.0271  0.8561
  721MOL0     H97335   2.581   8.358   9.976  2.1187  0.6007  0.0132
  722MOL0     O97336  10.800   9.610   7.585 -0.2847  0.6808 -0.1221
  722MOL0     C97337  10.764   9.653   7.692 -0.0332  0.4613  0.5892
  722MOL0     O97338  10.777   9.597   7.804 -0.2906  0.0577 -0.9818
  722MOL0     C97339  10.786   9.456   7.816  1.0706  0.5262  1.0009
  722MOL0     C97340  10.721   9.366   7.726  0.0992  0.6591 -0.5009
  722MOL0     C97341  10.746   9.227   7.733  0.6304 -0.2551 -0.4330
  722MOL0     C97342  10.830   9.180   7.833  0.2100 -0.1852  1.1292
  722MOL0     O97343  10.845   9.048   7.835 -0.4920  1.0979 -0.1785
  722MOL0     C97344  10.767   8.987   7.939 -0.0126  0.3681  0.4679
  722MOL0     C97345  10.716   8.847   7.884 -0.1195  0.5108 -0.1460
  722MOL0     C97346  10.841   8.753   7.898  0.1211  0.0918 -0.0227
  722MOL0     C97347  10.807   8.610   7.857  0.1014  0.6131  0.8799
  722MOL0     C97348  10.912   8.503   7.887 -0.7962  0.9627 -0.6370
  722MOL0     C97349  11.027   8.540   7.803  0.7454 -0.9441 -0.1782
  722MOL0     C97350  11.131   8.432   7.844 -0.1507  0.6008  0.8758
  722MOL0     C97351  11.268   8.454   7.783 -0.5669  0.2529  0.6334
  722MOL0     N97352  11.367   8.385   7.873 -0.2585 -0.7199  0.7584
  722MOL0     C97353  11.439   8.461   7.964 -0.0663  1.2118 -0.3957
  722MOL0     C97354  11.541   8.379   8.006  0.5867  0.4870 -0.6277
  722MOL0     C97355  11.652   8.432   8.093  0.4674  0.2465 -0.0956
  722MOL0     C97356  11.745   8.541   8.039  0.2261  0.2575  0.3944
  722MOL0     C97357  11.858   8.567   8.147 -0.3124 -0.5559  0.0992
  722MOL0     C97358  11.961   8.674   8.091  0.1351  0.4550 -0.5237
  722MOL0     O97359  12.010   8.738   8.210 -0.1540  0.2794 -0.3643
  722MOL0     C97360  12.129   8.812   8.223  0.2399 -0.8245  0.5346
  722MOL0     C97361  12.219   8.819   8.112 -0.1662 -0.2617  0.2520
  722MOL0     C97362  12.347   8.871   8.128 -0.4446 -1.2709 -1.0915
  722MOL0     C97363  12.432   8.889   8.009  0.7852 -0.1109 -0.3647
  722MOL0     C97364  12.382   8.938   8.250 -0.1169 -0.0490  0.4810
  722MOL0     C97365  12.515   8.988   8.279 -0.8428  0.6652  0.6414
  722MOL0     O97366  12.618   8.970   8.189 -0.3273 -1.2893  0.3629
  722MOL0     C97367  12.746   9.006   8.223 -0.2196  0.1134 -0.3092
  722MOL0     C97368  12.808   8.953   8.333  1.2813  0.8076 -0.6766
  722MOL0     C97369  12.947   8.969   8.342  0.3303 -0.2532  0.4127
  722MOL0     C97370  13.030   9.032   8.247 -0.0186 -0.0034 -0.1388
  722MOL0     O97371  13.167   9.035   8.263 -0.5762  0.1079  0.4905
  722MOL0     C97372  13.244   9.003   8.138  0.4302  0.4636 -0.3977
  722MOL0     C97373  13.386   8.960   8.184  1.2624 -0.1752 -0.2165
  722MOL0     C97374  13.475   9.075   8.206 -0.5985 -1.1672  0.2196
  722MOL0     C97375  13.619   9.009   8.238 -0.0402 -0.3385  0.3427
  722MOL0     C97376  13.730   9.111   8.286  1.0587 -0.3105  0.1269
  722MOL0     C97377  13.866   9.031   8.293  0.3864  0.7110 -0.7734
  722MOL0     C97378  13.972   9.106   8.367  0.2932 -0.4019 -0.9695
  722MOL0     C97379  14.046   9.201   8.280 -0.3468  0.3651  0.0357
  722MOL0    Cl97380  13.952   9.350   8.245 -0.1918 -0.6033  0.3542
  722MOL0     C97381  12.956   9.092   8.142  0.4370  0.5086  0.6017
  722MOL0     C97382  12.820   9.071   8.127 -0.3356 -0.4297  0.0619
  722MOL0     O97383  12.535   9.035   8.383  0.0816  0.3242  0.1391
  722MOL0     C97384  12.285   8.938   8.354 -0.2595 -0.8397  0.0400
  722MOL0     C97385  12.166   8.876   8.341  0.0578  0.3935  0.6319
  722MOL0     N97386  11.528   8.255   7.938 -0.9574 -0.2028  0.6510
  722MOL0     N97387  11.423   8.259   7.859 -0.4054  0.8666 -0.7471
  722MOL0     C97388  10.889   9.270   7.924  0.1393 -0.6373  0.1480
  722MOL0     C97389  10.869   9.411   7.922  0.2962  0.4392  0.5850
  722MOL0     C97390  10.692   9.780   7.699  0.0280  0.2067  0.1840
  722MOL0     C97391  10.653   9.836   7.827 -1.4105  1.0699  1.0517
  722MOL0     C97392  10.592   9.955   7.839 -0.1343 -0.6254 -0.0595
  722MOL0     C97393  10.562  10.029   7.726  0.5341 -0.7428 -1.0509
  722MOL0     O97394  10.490  10.144   7.730  0.4185 -0.2886  1.0196
  722MOL0     C97395  10.366  10.141   7.809 -0.8136  0.4167 -0.2774
  722MOL0     C97396  10.246  10.101   7.719  0.2022 -0.5259 -1.3256
  722MOL0     C97397  10.247   9.946   7.706 -0.3883  0.3548  0.8454
  722MOL0     C97398  10.210   9.858   7.829  0.9307 -0.5605 -0.0809
  722MOL0     C97399  10.230   9.722   7.807 -0.2433 -0.2988  0.8422
  722MOL0     C97400  10.242   9.601   7.773  0.7417  0.0320  0.2842
  722MOL0     C97401  10.592   9.984   7.600 -0.1788  0.3998 -0.9128
  722MOL0     C97402  10.656   9.851   7.585  0.1518  0.1505  0.0683
  722MOL0     H97403  10.665   9.398   7.638  0.9764 -1.0135 -1.7190
  722MOL0     H97404  10.706   9.163   7.655  1.7353  1.7769 -2.8206
  722MOL0     H97405  10.818   8.967   8.034 -2.3117 -2.2529  1.3025
  722MOL0     H97406  10.677   9.047   7.948 -0.2365  0.4114 -1.5137
  722MOL0     H97407  10.649   8.801   7.957  1.5411 -2.1257 -0.1458
  722MOL0     H97408  10.682   8.836   7.781  3.5706 -0.0899 -1.4603
  722MOL0     H97409  10.913   8.794   7.826  1.5563  0.5356  1.6057
  722MOL0     H97410  10.883   8.747   7.999  2.6794 -1.7917 -1.0987
  722MOL0     H97411  10.715   8.570   7.901  0.5506  2.0737  3.2685
  722MOL0     H97412  10.775   8.603   7.752  0.5823  2.7109  0.5432
  722MOL0     H97413  10.935   8.510   7.994  0.7363  1.5123 -0.9759
  722MOL0     H97414  10.871   8.402   7.878  0.1572 -0.0335  3.8299
  722MOL0     H97415  11.004   8.526   7.697 -1.1399 -4.7917  0.5311
  722MOL0     H97416  11.064   8.641   7.823  2.0275 -1.2065 -1.0855
  722MOL0     H97417  11.141   8.447   7.952 -0.6600 -1.6303  1.2757
  722MOL0     H97418  11.093   8.330   7.837 -1.0235  0.9880 -4.4800
  722MOL0     H97419  11.268   8.563   7.770 -0.1281  0.4779  2.2540
  722MOL0     H97420  11.284   8.405   7.687  4.2006  0.6721  0.9853
  722MOL0     H97421  11.415   8.563   7.991  1.3519  1.9865 -1.8896
  722MOL0     H97422  11.616   8.467   8.191 -0.1413 -1.9457  0.5276
  722MOL0     H97423  11.712   8.343   8.114  0.6435  0.6765  1.3214
  722MOL0     H97424  11.688   8.634   8.022 -1.2894 -0.6590  0.2381
  722MOL0     H97425  11.795   8.501   7.951 -1.1386  1.0261 -0.7837
  722MOL0     H97426  11.905   8.472   8.172 -0.3939  0.3446  4.2678
  722MOL0     H97427  11.826   8.600   8.246  2.4696 -2.2282  1.6828
  722MOL0     H97428  11.903   8.750   8.037 -1.0757 -0.7289 -0.9318
  722MOL0     H97429  12.023   8.624   8.016 -1.8555 -1.3058 -1.0660
  722MOL0     H97430  12.181   8.777   8.019  0.7045  0.1893 -0.3201
  722MOL0     H97431  12.466   8.992   7.994  2.4205 -0.9218 -2.8008
  722MOL0     H97432  12.519   8.823   8.011  0.3866 -0.6640  2.4948
  722MOL0     H97433  12.369   8.864   7.923 -0.6179  2.2067 -0.1039
  722MOL0     H97434  12.766   8.915   8.426  1.1368 -0.6092 -1.2947
  722MOL0     H97435  12.998   8.924   8.426  2.3536 -1.3865 -1.3008
  722MOL0     H97436  13.188   8.921   8.092 -1.4994 -0.0057  2.4513
  722MOL0     H97437  13.250   9.087   8.069  0.1110  2.5613  2.0072
  722MOL0     H97438  13.382   8.910   8.282  4.4910  1.5426  0.9630
  722MOL0     H97439  13.431   8.893   8.111 -0.6640 -1.4174 -0.3235
  722MOL0     H97440  13.450   9.139   8.291  2.7719  0.7786 -0.0718
  722MOL0     H97441  13.486   9.140   8.119  0.1347 -2.2055 -0.4729
  722MOL0     H97442  13.610   8.929   8.311  4.5887 -1.1649  0.3517
  722MOL0     H97443  13.652   8.970   8.141 -0.7117 -2.3045  0.8710
  722MOL0     H97444  13.705   9.174   8.372  1.0122  2.6017 -1.8870
  722MOL0     H97445  13.759   9.186   8.212  1.3997 -1.3739 -0.8473
  722MOL0     H97446  13.850   8.938   8.348 -0.0721  1.3583  0.2168
  722MOL0     H97447  13.900   9.018   8.190  1.2522  2.3490 -0.7391
  722MOL0     H97448  14.047   9.036   8.405  2.3245  0.8881 -2.4215
  722MOL0     H97449  13.922   9.168   8.442  3.1991 -1.2995  1.9640
  722MOL0     H97450  14.072   9.163   8.181 -0.3274  1.2763 -0.3205
  722MOL0     H97451  14.131   9.222   8.346 -1.5723  3.4207  0.8124
  722MOL0     H97452  13.009   9.142   8.062  0.9192 -0.3357  0.3845
  722MOL0     H97453  12.767   9.097   8.036 -1.0258 -0.7038  0.3776
  722MOL0     H97454  12.289   8.973   8.457 -0.5380 -2.4043  0.6167
  722MOL0     H97455  12.094   8.876   8.422 -1.1112 -2.9474 -0.2677
  722MOL0     H97456  10.951   9.232   8.004 -0.7578  1.4328  1.9481
  722MOL0     H97457  10.900   9.476   8.004  0.7162 -0.6610  1.3307
  722MOL0     H97458  10.663   9.772   7.915 -0.3915 -2.0510 -1.1683
  722MOL0     H97459  10.561   9.982   7.939  1.2565 -3.3579  1.1867
  722MOL0     H97460  10.367  10.077   7.897 -3.0129 -1.0821 -1.2328
  722MOL0     H97461  10.348  10.234   7.864 -2.4820  0.4935 -0.8819
  722MOL0     H97462  10.259  10.154   7.624 -0.0962  0.5851 -0.7664
  722MOL0     H97463  10.158  10.130   7.777  0.8016 -1.6295  0.1741
  722MOL0     H97464  10.337   9.904   7.659  0.2923  0.9150  1.6019
  722MOL0     H97465  10.164   9.920   7.640 -1.9113 -2.0549  3.4633
  722MOL0     H97466  10.101   9.867   7.834  0.7918 -2.2740  0.4799
  722MOL0     H97467  10.260   9.888   7.921 -1.2531  1.4188  0.5736
  722MOL0     H97468  10.251   9.498   7.743  2.1970 -0.2287  1.4727
  722MOL0     H97469  10.583  10.043   7.509  1.8981 -1.0742 -2.1621
  722MOL0     H97470  10.681   9.809   7.489  0.3921 -0.4640  0.3904
  723MOL0     O97471   6.285   1.496   9.991  0.0589  0.4757 -0.1651
  723MOL0     C97472   6.182   1.431   9.989  0.4477  0.3515  0.2705
  723MOL0     O97473   6.166   1.305  10.042 -0.2922  0.1552  0.4838
  723MOL0     C97474   6.264   1.213  10.040 -0.8407 -0.4607 -0.0425
  723MOL0     C97475   6.374   1.214  10.133 -0.2173  0.2266  0.4857
  723MOL0     C97476   6.462   1.104  10.127  0.2048 -0.1461 -0.6190
  723MOL0     C97477   6.449   1.010  10.028  0.8645 -0.3164  0.2834
  723MOL0     O97478   6.534   0.905  10.013  0.2398  0.2157 -0.5473
  723MOL0     C97479   6.674   0.938  10.049 -1.3605  0.1110 -0.2141
  723MOL0     C97480   6.763   0.826   9.984  0.3774 -0.1656 -1.0009
  723MOL0     C97481   6.916   0.834  10.010  0.0367 -0.0372  0.8258
  723MOL0     C97482   6.972   0.981  10.000 -0.6313  0.1359 -0.5910
  723MOL0     C97483   7.128   1.006   9.998  0.5216 -0.1509 -0.9914
  723MOL0     C97484   7.183   1.133   9.935 -0.0892 -0.1860  0.7806
  723MOL0     C97485   7.189   1.247  10.040 -0.4706  0.0076 -0.1517
  723MOL0     C97486   7.276   1.358   9.979  0.1684 -0.0224 -0.8709
  723MOL0     N97487   7.271   1.472  10.075 -0.1896  0.7047  1.0870
  723MOL0     C97488   7.163   1.537  10.121  0.3488 -0.2301 -0.3210
  723MOL0     C97489   7.207   1.602  10.233  0.3847 -0.4248  0.0525
  723MOL0     C97490   7.129   1.689  10.336  1.1282 -0.3351  0.4747
  723MOL0     C97491   7.101   1.619  10.472 -0.0642 -0.7627 -0.4821
  723MOL0     C97492   7.015   1.694  10.578  0.1226 -0.2612 -0.4657
  723MOL0     C97493   7.023   1.610  10.704 -0.0316 -0.5185  0.3597
  723MOL0     O97494   7.154   1.630  10.760 -0.6856 -0.2693  0.2162
  723MOL0     C97495   7.191   1.561  10.871  0.5745  0.7382 -0.1960
  723MOL0     C97496   7.091   1.483  10.948 -0.7724 -0.2916 -0.2628
  723MOL0     C97497   7.128   1.405  11.061 -1.3827  0.0148  0.1930
  723MOL0     C97498   7.025   1.337  11.137 -0.2978  0.4423 -0.1198
  723MOL0     C97499   7.269   1.395  11.092 -0.0162  1.0939 -0.4985
  723MOL0     C97500   7.324   1.304  11.199 -0.8656 -0.7145  0.2103
  723MOL0     O97501   7.449   1.343  11.241  0.5183 -0.3661 -0.7911
  723MOL0     C97502   7.505   1.291  11.356 -0.6050  0.3643  0.4233
  723MOL0     C97503   7.562   1.389  11.444  0.7618 -0.0578 -0.4169
  723MOL0     C97504   7.612   1.357  11.571 -0.6103  0.0154  0.3533
  723MOL0     C97505   7.619   1.227  11.616  0.2337  1.2067 -0.2997
  723MOL0     O97506   7.653   1.206  11.753 -0.2891  0.2240  1.0106
  723MOL0     C97507   7.678   1.071  11.790 -0.1296 -0.1905 -0.3177
  723MOL0     C97508   7.820   1.034  11.745 -0.0179  0.7524 -0.0519
  723MOL0     C97509   7.925   1.116  11.820  0.0471  0.2712 -1.3908
  723MOL0     C97510   8.060   1.037  11.832  0.5534  0.2300  0.9476
  723MOL0     C97511   8.177   1.129  11.877 -0.0547 -0.1400 -0.0270
  723MOL0     C97512   8.151   1.193  12.021  0.1874 -0.3081 -0.0983
  723MOL0     C97513   8.261   1.281  12.061 -0.1048 -0.1187  0.3268
  723MOL0     C97514   8.220   1.377  12.175  0.1101 -0.1255  0.1139
  723MOL0    Cl97515   8.150   1.288  12.324 -0.7976  0.0904  0.1267
  723MOL0     C97516   7.584   1.124  11.525  0.0168  0.0035 -0.3972
  723MOL0     C97517   7.527   1.157  11.395  0.2349  0.8699  0.2258
  723MOL0     O97518   7.260   1.209  11.248  0.1093  0.2834 -0.0683
  723MOL0     C97519   7.357   1.467  11.012 -0.3955 -0.4481 -0.3133
  723MOL0     C97520   7.322   1.546  10.906 -0.2186  0.5813  1.0878
  723MOL0     N97521   7.339   1.569  10.249  0.1530 -0.5100 -0.1162
  723MOL0     N97522   7.375   1.505  10.143 -0.3535  0.4908  0.4326
  723MOL0     C97523   6.348   1.012   9.943  0.3565  0.1169  0.3411
  723MOL0     C97524   6.264   1.123   9.937 -0.8311  0.6481 -0.8134
  723MOL0     C97525   6.061   1.508   9.955 -0.0901 -0.1964 -0.1856
  723MOL0     C97526   6.045   1.648   9.977  0.6325  0.1444 -0.8875
  723MOL0     C97527   5.929   1.713   9.941 -1.3296  0.2716  0.3361
  723MOL0     C97528   5.819   1.646   9.910  0.1998  0.3203 -0.3892
  723MOL0     O97529   5.695   1.704   9.872  0.7588 -0.2229  0.4993
  723MOL0     C97530   5.619   1.781   9.957  0.2259 -0.0788 -0.8681
  723MOL0     C97531   5.620   1.924   9.908  0.4766  0.0282 -0.5011
  723MOL0     C97532   5.572   1.952   9.765 -0.3253  0.5685 -0.0538
  723MOL0     C97533   5.435   1.880   9.733  0.3443 -0.7451  0.2925
  723MOL0     C97534   5.412   1.908   9.591  0.5582  0.6014  0.1746
  723MOL0     C97535   5.375   1.940   9.482  0.3037 -0.2285 -0.9537
  723MOL0     C97536   5.816   1.507   9.901 -0.6111  0.2829  0.8376
  723MOL0     C97537   5.935   1.439   9.923  1.0598 -0.5446  0.0537
  723MOL0     H97538   6.377   1.287  10.214  2.2103 -0.3909  1.0511
  723MOL0     H97539   6.546   1.104  10.196  1.5374 -0.0267 -2.1767
  723MOL0     H97540   6.706   1.027   9.994 -0.0168 -0.9915 -1.2927
  723MOL0     H97541   6.691   0.940  10.157 -4.6292 -1.4063  0.4658
  723MOL0     H97542   6.730   0.739  10.040  0.6103  2.4588  3.7192
  723MOL0     H97543   6.747   0.815   9.876 -2.0112 -2.0567 -0.5166
  723MOL0     H97544   6.955   0.787  10.101  1.1210  0.6749  0.7512
  723MOL0     H97545   6.955   0.770   9.931 -0.2422 -2.7328  2.7161
  723MOL0     H97546   6.917   1.037   9.923  0.3698  3.9317  1.2060
  723MOL0     H97547   6.952   1.026  10.098 -1.1915 -2.6133  0.6429
  723MOL0     H97548   7.179   0.982  10.092 -3.2660 -3.2525  0.5763
  723MOL0     H97549   7.155   0.924   9.930  2.1613  0.9832 -1.7824
  723MOL0     H97550   7.285   1.108   9.904  0.1886  2.8384 -1.1436
  723MOL0     H97551   7.126   1.157   9.845 -2.0484 -1.6097  1.5545
  723MOL0     H97552   7.084   1.267  10.062 -0.4453 -1.5096  1.6147
  723MOL0     H97553   7.237   1.219  10.135  1.6271 -2.2458 -1.7719
  723MOL0     H97554   7.240   1.379   9.878 -0.0427 -1.5827 -1.1352
  723MOL0     H97555   7.375   1.314   9.960 -0.6701 -0.1952 -6.6019
  723MOL0     H97556   7.063   1.531  10.078  0.1643  2.2334 -0.3430
  723MOL0     H97557   7.192   1.777  10.354  2.4815 -0.7963 -1.7153
  723MOL0     H97558   7.033   1.728  10.301  1.1182  2.2027  2.9295
  723MOL0     H97559   7.199   1.607  10.520 -0.1825  3.8600  1.3697
  723MOL0     H97560   7.062   1.520  10.446 -1.0781  0.3554 -3.7061
  723MOL0     H97561   6.910   1.693  10.549 -0.5241 -2.1183  1.6360
  723MOL0     H97562   7.048   1.796  10.601  2.2628 -0.7782 -1.0071
  723MOL0     H97563   7.006   1.504  10.679 -2.9012  0.0703 -0.5983
  723MOL0     H97564   6.952   1.658  10.772  2.1269  3.1661  0.2789
  723MOL0     H97565   6.989   1.500  10.913 -0.5631 -1.6799 -1.6646
  723MOL0     H97566   6.930   1.390  11.126 -0.5654  0.0667  0.3298
  723MOL0     H97567   7.014   1.232  11.109 -0.8193  1.4101 -4.2009
  723MOL0     H97568   7.031   1.346  11.246 -1.6261 -1.2083  0.1340
  723MOL0     H97569   7.541   1.492  11.414 -0.7446 -0.7245 -1.7817
  723MOL0     H97570   7.653   1.438  11.630  1.8672 -1.3264  0.6095
  723MOL0     H97571   7.679   1.071  11.899  2.2579 -0.9700 -0.2785
  723MOL0     H97572   7.605   0.996  11.757  0.5580 -0.2204 -1.8783
  723MOL0     H97573   7.846   0.930  11.763 -1.8781  0.1587 -0.6070
  723MOL0     H97574   7.832   1.056  11.639  1.4778 -0.3760 -0.1473
  723MOL0     H97575   7.890   1.133  11.923  1.7268  0.6529 -0.8599
  723MOL0     H97576   7.935   1.219  11.784  0.6754  2.7968  4.7956
  723MOL0     H97577   8.060   0.946  11.893  0.2835 -1.2883 -1.2149
  723MOL0     H97578   8.081   1.003  11.730  2.0391  0.3831  1.1792
  723MOL0     H97579   8.181   1.210  11.804  1.1255  2.2436  2.4529
  723MOL0     H97580   8.264   1.064  11.872  0.3933  0.5776 -2.7262
  723MOL0     H97581   8.058   1.248  12.008 -0.8329 -2.2546 -1.4990
  723MOL0     H97582   8.144   1.109  12.092 -3.0592  1.4264  1.8602
  723MOL0     H97583   8.313   1.343  11.988 -0.5308  1.5689  1.3845
  723MOL0     H97584   8.333   1.225  12.122  2.2416  0.5083 -1.7174
  723MOL0     H97585   8.149   1.451  12.137  1.2864  0.6000 -0.7261
  723MOL0     H97586   8.313   1.421  12.212 -0.0495 -0.6345  1.1531
  723MOL0     H97587   7.589   1.020  11.558  0.2155  1.2432  4.0926
  723MOL0     H97588   7.483   1.082  11.331  1.4871 -0.2076  0.5931
  723MOL0     H97589   7.464   1.460  11.029 -0.5814  0.4749  1.5354
  723MOL0     H97590   7.393   1.617  10.865 -1.3553  1.4958  0.6417
  723MOL0     H97591   6.341   0.926   9.877  1.7586 -0.7845  1.3266
  723MOL0     H97592   6.180   1.127   9.868  0.4872  0.4478 -2.4951
  723MOL0     H97593   6.126   1.708  10.018  0.4540  0.4754 -1.0146
  723MOL0     H97594   5.925   1.821   9.944  1.3395  0.6745 -3.3456
  723MOL0     H97595   5.519   1.738   9.948  1.4367 -2.8869 -1.9058
  723MOL0     H97596   5.660   1.766  10.057 -0.0729 -0.8029 -0.8468
  723MOL0     H97597   5.715   1.978   9.911  0.9053 -0.6916  2.1856
  723MOL0     H97598   5.553   1.985   9.970  2.4367  0.3969  1.3594
  723MOL0     H97599   5.650   1.927   9.693  0.3558 -0.7981  1.1103
  723MOL0     H97600   5.553   2.059   9.751  3.2185  1.0481 -2.7627
  723MOL0     H97601   5.355   1.925   9.792 -3.1565 -0.4810 -4.0790
  723MOL0     H97602   5.442   1.771   9.744  0.3112 -0.9113 -1.0867
  723MOL0     H97603   5.349   1.949   9.379  2.4302  0.5946 -1.4681
  723MOL0     H97604   5.719   1.469   9.871 -0.5218  1.8159 -1.7531
  723MOL0     H97605   5.929   1.331   9.921  0.1987 -0.5111  0.4202
  724MOL0     O97606   3.138   7.609   6.048 -0.0882  0.7542 -0.7595
  724MOL0     C97607   3.235   7.633   5.976 -0.4384  0.6524  0.0725
  724MOL0     O97608   3.290   7.758   5.958 -0.0604  0.2943  0.6804
  724MOL0     C97609   3.250   7.869   6.027 -0.9090 -1.0237  0.5148
  724MOL0     C97610   3.319   7.905   6.145  1.2320  0.3591  0.6729
  724MOL0     C97611   3.288   8.026   6.205 -0.3293 -0.3058 -0.0251
  724MOL0     C97612   3.199   8.118   6.145  0.5194  1.2533  0.2301
  724MOL0     O97613   3.188   8.234   6.221  0.1137 -0.0480  0.3493
  724MOL0     C97614   3.080   8.325   6.191  0.1234 -0.3943  0.4484
  724MOL0     C97615   2.936   8.307   6.231  0.3987  0.1340  1.2632
  724MOL0     C97616   2.931   8.280   6.384 -0.5430  0.5439  0.2813
  724MOL0     C97617   2.786   8.226   6.411 -0.6235 -0.0063  0.1749
  724MOL0     C97618   2.814   8.074   6.409  0.2866 -0.3745 -1.1011
  724MOL0     C97619   2.693   7.983   6.454 -0.1874 -0.3404 -0.7289
  724MOL0     C97620   2.745   7.830   6.475 -0.5893  1.1112  1.0733
  724MOL0     C97621   2.751   7.750   6.344  0.0818  0.1482 -0.4618
  724MOL0     N97622   2.803   7.615   6.367  0.3107  0.3612 -0.5445
  724MOL0     C97623   2.907   7.570   6.295 -0.9815 -1.1323 -0.4317
  724MOL0     C97624   2.909   7.438   6.307  0.0245 -0.0261 -0.0874
  724MOL0     C97625   3.018   7.347   6.257 -0.5900 -0.2179  0.2597
  724MOL0     C97626   3.005   7.190   6.270 -0.0680  0.1045 -0.2727
  724MOL0     C97627   3.079   7.136   6.397  0.0227  0.0105  0.4508
  724MOL0     C97628   3.063   6.984   6.396  0.1524  0.2021  1.0443
  724MOL0     O97629   3.120   6.947   6.521  0.2428 -0.5769  0.2240
  724MOL0     C97630   3.160   6.819   6.521 -0.7190  0.1170 -0.3105
  724MOL0     C97631   3.124   6.714   6.426  0.0585 -0.5710 -0.4530
  724MOL0     C97632   3.177   6.584   6.427 -0.7370 -0.0835  0.1918
  724MOL0     C97633   3.115   6.471   6.338 -0.0426 -1.0705  0.0919
  724MOL0     C97634   3.276   6.552   6.522 -0.5014  0.6184 -0.4572
  724MOL0     C97635   3.355   6.428   6.540  0.8012  0.7208 -0.3266
  724MOL0     O97636   3.457   6.427   6.635  0.4379 -0.4268 -0.4069
  724MOL0     C97637   3.551   6.330   6.645 -0.0792  0.3887  0.6084
  724MOL0     C97638   3.518   6.206   6.703 -0.4986  0.1258  0.2808
  724MOL0     C97639   3.615   6.101   6.713  0.3077  0.4284 -0.5196
  724MOL0     C97640   3.745   6.128   6.671  0.0744  0.9695 -0.1712
  724MOL0     O97641   3.829   6.021   6.666  0.1887  0.1175  0.1988
  724MOL0     C97642   3.962   6.040   6.719  0.2434  0.5212  0.7512
  724MOL0     C97643   3.985   6.082   6.869 -0.1551  0.2647 -0.5602
  724MOL0     C97644   4.005   5.954   6.957 -0.4815  1.0419  0.9762
  724MOL0     C97645   3.868   5.887   6.998  0.9874 -0.8828  0.1954
  724MOL0     C97646   3.883   5.776   7.104 -0.5004  0.5492  0.7919
  724MOL0     C97647   3.753   5.685   7.119 -0.1647  0.7486  1.1054
  724MOL0     C97648   3.780   5.550   7.184  0.5020  0.9106 -1.0319
  724MOL0     C97649   3.866   5.568   7.315  0.0102 -0.6194  0.1364
  724MOL0    Cl97650   3.845   5.433   7.419 -0.0692 -0.1253  0.5188
  724MOL0     C97651   3.774   6.243   6.597 -0.4825  0.1382  0.2073
  724MOL0     C97652   3.683   6.342   6.588  0.5574  0.5658 -0.1656
  724MOL0     O97653   3.326   6.337   6.467  0.0011 -0.6597  0.1348
  724MOL0     C97654   3.309   6.661   6.612 -0.5981  0.4334 -0.1479
  724MOL0     C97655   3.244   6.784   6.626  0.3864  0.6198 -0.2057
  724MOL0     N97656   2.798   7.391   6.384 -0.6822 -0.2177  0.1624
  724MOL0     N97657   2.729   7.506   6.408 -0.2520  0.3720  0.1594
  724MOL0     C97658   3.116   8.081   6.036 -0.3649  0.6641 -0.4759
  724MOL0     C97659   3.145   7.956   5.981 -0.5429 -0.0991  0.4145
  724MOL0     C97660   3.277   7.520   5.884 -0.1529  0.0378  0.4915
  724MOL0     C97661   3.200   7.403   5.866 -0.9170 -0.3074  0.5394
  724MOL0     C97662   3.247   7.305   5.785 -0.4026  0.4635  0.3393
  724MOL0     C97663   3.370   7.317   5.710 -0.9289  0.3930 -0.6324
  724MOL0     O97664   3.416   7.206   5.632 -0.2473 -0.6537  0.5960
  724MOL0     C97665   3.551   7.182   5.618  0.4422 -0.6984  0.7260
  724MOL0     C97666   3.587   7.160   5.465 -0.0480 -0.2646 -0.5558
  724MOL0     C97667   3.654   7.284   5.406  0.0231  0.4529  0.4135
  724MOL0     C97668   3.683   7.272   5.247 -0.3965  0.1217 -1.0725
  724MOL0     C97669   3.720   7.399   5.188 -0.8999  0.3950 -1.0417
  724MOL0     C97670   3.759   7.514   5.161 -0.1763 -0.6514  0.6520
  724MOL0     C97671   3.439   7.438   5.715 -0.4027 -0.5511  0.2741
  724MOL0     C97672   3.406   7.533   5.813 -1.0379  0.1568  0.0240
  724MOL0     H97673   3.395   7.843   6.192 -0.0392 -3.6329 -2.0095
  724MOL0     H97674   3.348   8.063   6.287 -0.8460 -0.3850  0.4015
  724MOL0     H97675   3.100   8.415   6.249 -2.9780 -0.6903  2.1557
  724MOL0     H97676   3.089   8.352   6.085 -1.3212  0.5114  0.5387
  724MOL0     H97677   2.887   8.404   6.218  0.1160 -0.2414 -0.7659
  724MOL0     H97678   2.894   8.232   6.164  2.7247 -3.2254  3.2426
  724MOL0     H97679   3.013   8.212   6.409  0.2262  1.7423  1.1544
  724MOL0     H97680   2.964   8.371   6.434 -0.1659  1.4581 -1.5437
  724MOL0     H97681   2.752   8.254   6.511 -3.1300  1.6568 -1.0384
  724MOL0     H97682   2.707   8.256   6.341  0.4653  3.5752  0.2804
  724MOL0     H97683   2.844   8.029   6.314 -0.0721 -1.3396 -0.7714
  724MOL0     H97684   2.896   8.061   6.480 -0.0691  1.6448 -0.2711
  724MOL0     H97685   2.655   8.013   6.552 -1.6131 -3.2898 -0.2726
  724MOL0     H97686   2.609   7.979   6.384 -2.7016 -1.4283  2.1244
  724MOL0     H97687   2.845   7.833   6.520 -0.7603  0.5769  1.4964
  724MOL0     H97688   2.676   7.776   6.539 -4.6015 -1.8997 -4.8235
  724MOL0     H97689   2.805   7.802   6.264  0.9701 -0.5439 -0.3307
  724MOL0     H97690   2.648   7.738   6.310  0.6841 -3.1643 -1.5107
  724MOL0     H97691   2.975   7.630   6.235  1.5859 -1.2635  2.0981
  724MOL0     H97692   3.026   7.354   6.148  0.9649 -4.0084 -0.0262
  724MOL0     H97693   3.101   7.392   6.313 -1.1178 -1.0423  1.7547
  724MOL0     H97694   3.043   7.145   6.178 -3.0493 -1.4466 -0.8530
  724MOL0     H97695   2.902   7.155   6.271  1.8049 -6.8954 -0.1913
  724MOL0     H97696   3.035   7.179   6.487 -2.0448  0.0306 -0.5174
  724MOL0     H97697   3.183   7.168   6.384 -0.1920  1.3713  1.8539
  724MOL0     H97698   3.118   6.948   6.309  0.3992 -0.7851  1.5933
  724MOL0     H97699   2.957   6.961   6.386  0.1274  1.2773 -2.4075
  724MOL0     H97700   3.038   6.740   6.365  0.1011 -3.8358 -2.1426
  724MOL0     H97701   3.186   6.435   6.263  2.8650  1.5735  1.3067
  724MOL0     H97702   3.083   6.386   6.399 -1.6718  0.9437  2.2231
  724MOL0     H97703   3.031   6.522   6.291 -0.0492  1.5272  2.6052
  724MOL0     H97704   3.415   6.186   6.731  0.1969 -3.6443  0.6708
  724MOL0     H97705   3.599   6.001   6.753  0.3125  0.3140 -0.8068
  724MOL0     H97706   4.011   5.944   6.701  1.5458  1.5450 -1.6275
  724MOL0     H97707   4.008   6.115   6.655  0.1740  0.0728  0.1622
  724MOL0     H97708   4.066   6.155   6.876 -1.2276  1.3799  1.0364
  724MOL0     H97709   3.904   6.139   6.916 -0.6876 -1.6946  1.0652
  724MOL0     H97710   4.074   5.974   7.040  0.2721  1.5087  0.2574
  724MOL0     H97711   4.050   5.882   6.888 -0.9580  1.4696  0.2026
  724MOL0     H97712   3.791   5.957   7.031  0.1375 -2.4993  1.8155
  724MOL0     H97713   3.818   5.836   6.915 -0.8477  1.2416 -0.0928
  724MOL0     H97714   3.924   5.810   7.199  1.8231 -1.4003  0.5807
  724MOL0     H97715   3.956   5.703   7.069 -0.6780  0.4274  0.6663
  724MOL0     H97716   3.678   5.740   7.177  0.1580  3.0379 -0.5086
  724MOL0     H97717   3.718   5.672   7.016  0.3414 -3.1345  1.2694
  724MOL0     H97718   3.836   5.490   7.112 -0.6086  0.9409 -1.9463
  724MOL0     H97719   3.683   5.510   7.215  2.5861 -3.2097  1.0830
  724MOL0     H97720   3.836   5.654   7.376 -2.4202  0.4137 -2.3228
  724MOL0     H97721   3.972   5.574   7.291 -0.1178  1.8242 -0.0321
  724MOL0     H97722   3.873   6.244   6.552 -0.5758 -2.6839 -0.2838
  724MOL0     H97723   3.704   6.435   6.538 -0.8317  0.2585 -1.3965
  724MOL0     H97724   3.389   6.655   6.685 -0.0980  2.0496 -0.5249
  724MOL0     H97725   3.281   6.851   6.702  1.9486 -0.3849 -0.0413
  724MOL0     H97726   3.042   8.151   5.999 -0.5757  2.8782  3.5296
  724MOL0     H97727   3.087   7.923   5.896 -0.8497  0.4123  0.4181
  724MOL0     H97728   3.114   7.382   5.929  1.2479 -2.8686  2.9333
  724MOL0     H97729   3.197   7.209   5.787 -1.4449  0.9437 -0.7574
  724MOL0     H97730   3.622   7.260   5.647  1.8792 -1.2934 -0.9627
  724MOL0     H97731   3.580   7.096   5.679 -0.4772 -1.4282  0.1603
  724MOL0     H97732   3.497   7.145   5.406  0.0426  2.0237 -1.4057
  724MOL0     H97733   3.657   7.077   5.451 -3.1555 -2.7249 -2.7226
  724MOL0     H97734   3.752   7.293   5.453  1.1696 -4.0532 -0.6289
  724MOL0     H97735   3.588   7.371   5.411  1.3982  1.8220 -2.5760
  724MOL0     H97736   3.590   7.235   5.203 -0.5587 -3.6125  1.9103
  724MOL0     H97737   3.747   7.187   5.225  0.1043  1.2592 -4.8064
  724MOL0     H97738   3.773   7.610   5.116 -0.2707 -0.2245  1.5182
  724MOL0     H97739   3.536   7.444   5.666 -2.5207 -3.1011 -4.9632
  724MOL0     H97740   3.475   7.615   5.830  0.7798 -1.6451  1.7089
  725MOL0     O97741   4.425   2.258   8.222  0.2064  0.4089 -0.7824
  725MOL0     C97742   4.490   2.350   8.263 -0.3754 -1.0754 -0.5129
  725MOL0     O97743   4.535   2.460   8.189  0.5584  0.0849 -0.3255
  725MOL0     C97744   4.479   2.475   8.069 -0.3497 -0.7131  0.2514
  725MOL0     C97745   4.346   2.501   8.062 -0.0199 -0.6300 -0.7421
  725MOL0     C97746   4.269   2.518   7.943 -0.6163  0.2087 -0.5175
  725MOL0     C97747   4.341   2.506   7.820 -0.3387  0.5433  0.8421
  725MOL0     O97748   4.271   2.528   7.708 -0.1185 -0.3518  0.1683
  725MOL0     C97749   4.298   2.437   7.600 -0.6910  0.6117 -0.0636
  725MOL0     C97750   4.192   2.461   7.489 -0.4313 -0.4711  0.3532
  725MOL0     C97751   4.176   2.617   7.460 -0.6457 -0.2856 -0.0158
  725MOL0     C97752   4.304   2.668   7.367  0.4653 -0.0786  0.0791
  725MOL0     C97753   4.262   2.802   7.310 -0.2168  0.2096 -0.1277
  725MOL0     C97754   4.264   2.919   7.412  0.2371  1.2168  0.3824
  725MOL0     C97755   4.240   3.054   7.348 -0.3075 -0.6716 -0.1713
  725MOL0     C97756   4.093   3.091   7.349  0.0058 -0.5282 -0.0511
  725MOL0     N97757   4.067   3.173   7.232 -0.7871 -0.8436 -0.6212
  725MOL0     C97758   4.125   3.296   7.198 -0.3793  0.0653 -0.7948
  725MOL0     C97759   4.060   3.320   7.078 -0.1770  0.6699 -0.7368
  725MOL0     C97760   4.086   3.445   7.001 -0.8016  0.1996  0.3047
  725MOL0     C97761   4.118   3.429   6.846  0.4560 -0.0266 -0.8986
  725MOL0     C97762   4.271   3.399   6.813  0.2250 -0.4180  0.4080
  725MOL0     C97763   4.316   3.269   6.869  0.5314  1.0612 -0.8352
  725MOL0     O97764   4.379   3.279   7.004  0.1347 -0.1879 -0.0672
  725MOL0     C97765   4.445   3.169   7.050 -0.6556  1.3767 -0.0099
  725MOL0     C97766   4.509   3.174   7.171  0.1166 -0.7398 -0.0575
  725MOL0     C97767   4.574   3.066   7.229 -0.3531 -0.2659 -1.4578
  725MOL0     C97768   4.620   3.084   7.371 -0.5956  0.3285 -0.0093
  725MOL0     C97769   4.584   2.941   7.163  0.2478 -0.5117  0.3900
  725MOL0     C97770   4.666   2.822   7.217  0.3387 -0.4691 -0.2279
  725MOL0     O97771   4.766   2.839   7.302  0.2022  0.5015 -0.3682
  725MOL0     C97772   4.791   2.739   7.393 -0.1050 -0.1149 -0.6096
  725MOL0     C97773   4.866   2.630   7.343  0.5905  0.5444  1.0471
  725MOL0     C97774   4.905   2.519   7.421 -0.6073 -0.0986 -0.1211
  725MOL0     C97775   4.857   2.510   7.552 -0.9380  0.2527 -0.2605
  725MOL0     O97776   4.882   2.405   7.633  0.5047  0.3425 -0.1570
  725MOL0     C97777   4.934   2.281   7.577  0.7476  0.5942  0.4987
  725MOL0     C97778   4.927   2.164   7.684  0.7676  0.7656  0.3831
  725MOL0     C97779   5.022   2.194   7.807  0.5783  0.0140 -0.0703
  725MOL0     C97780   4.991   2.088   7.920  0.3783 -0.0682  1.2491
  725MOL0     C97781   5.021   2.141   8.056  0.4390  0.1254  0.1312
  725MOL0     C97782   4.907   2.226   8.100 -0.0827 -0.8078  0.8673
  725MOL0     C97783   4.929   2.292   8.239  1.0373 -0.7986  1.0883
  725MOL0     C97784   4.970   2.202   8.351 -0.3467 -0.3757  0.0571
  725MOL0    Cl97785   5.043   2.291   8.487  0.1369 -0.2627  0.0002
  725MOL0     C97786   4.768   2.612   7.590 -1.5583  1.2405 -0.8160
  725MOL0     C97787   4.737   2.726   7.517 -0.6512 -0.7629  0.6471
  725MOL0     O97788   4.637   2.720   7.161  0.5541  0.7115  0.1090
  725MOL0     C97789   4.519   2.932   7.042  1.0677  0.8461 -0.1678
  725MOL0     C97790   4.449   3.042   6.992 -0.1488 -0.3113 -0.2773
  725MOL0     N97791   3.962   3.231   7.056  0.0669 -0.0910  0.4041
  725MOL0     N97792   3.962   3.150   7.151  0.8512  0.3404 -0.7118
  725MOL0     C97793   4.480   2.482   7.814 -0.0282 -0.8038  0.0587
  725MOL0     C97794   4.549   2.468   7.944  0.3360 -0.0722  0.8792
  725MOL0     C97795   4.554   2.334   8.389 -0.1485  0.0249  0.1470
  725MOL0     C97796   4.555   2.210   8.444  0.6862  0.4972  0.0625
  725MOL0     C97797   4.606   2.178   8.575  0.7914 -0.6067  0.4829
  725MOL0     C97798   4.662   2.277   8.654 -0.6769 -0.0806 -0.2991
  725MOL0     O97799   4.705   2.254   8.777  0.0694  0.4144 -0.2747
  725MOL0     C97800   4.626   2.166   8.862  0.6061  0.2242 -0.0884
  725MOL0     C97801   4.657   2.191   9.007  0.5177 -0.9898  0.0329
  725MOL0     C97802   4.563   2.106   9.100 -1.0587  0.2251 -0.6228
  725MOL0     C97803   4.569   2.140   9.254 -0.3383 -1.2962 -0.4730
  725MOL0     C97804   4.616   2.277   9.289 -0.2582  0.5659  1.7129
  725MOL0     C97805   4.669   2.382   9.314 -0.7026  0.0739 -0.1584
  725MOL0     C97806   4.669   2.403   8.590 -0.1561 -0.2794 -0.6555
  725MOL0     C97807   4.603   2.441   8.471 -0.2691 -0.1668  0.2879
  725MOL0     H97808   4.296   2.521   8.157 -0.5087 -2.8909 -0.4701
  725MOL0     H97809   4.163   2.535   7.957 -0.3402  0.1749  2.1177
  725MOL0     H97810   4.402   2.440   7.564 -1.0030 -0.0189 -1.0664
  725MOL0     H97811   4.277   2.334   7.630 -2.0803  0.3202 -1.8942
  725MOL0     H97812   4.212   2.416   7.391  0.8399  1.0009 -0.0905
  725MOL0     H97813   4.095   2.423   7.523 -2.8610  1.9832 -3.0696
  725MOL0     H97814   4.084   2.634   7.404  0.8713  1.0620 -2.2357
  725MOL0     H97815   4.177   2.669   7.557  1.3429 -2.8551  1.4743
  725MOL0     H97816   4.395   2.673   7.426  1.6714 -0.1787 -1.6840
  725MOL0     H97817   4.327   2.592   7.291 -1.7071 -0.2975 -0.4398
  725MOL0     H97818   4.335   2.823   7.231  3.9287 -0.7244  3.1033
  725MOL0     H97819   4.162   2.790   7.268 -0.0664 -1.1608 -0.1463
  725MOL0     H97820   4.192   2.898   7.491  0.7812 -0.3707  0.4969
  725MOL0     H97821   4.362   2.906   7.460  1.3607 -0.5341 -2.1569
  725MOL0     H97822   4.295   3.135   7.397  0.1558 -0.8991 -0.3070
  725MOL0     H97823   4.281   3.051   7.247  3.6178  0.5200  1.1665
  725MOL0     H97824   4.063   3.127   7.447 -0.3652 -2.6019  0.6446
  725MOL0     H97825   4.040   2.998   7.323  0.9191 -1.1467  0.2353
  725MOL0     H97826   4.198   3.361   7.245 -2.4660  2.6024 -0.8222
  725MOL0     H97827   3.997   3.506   7.022 -0.3029  0.0316  3.3283
  725MOL0     H97828   4.168   3.494   7.053 -0.2050 -0.6426  0.1816
  725MOL0     H97829   4.091   3.526   6.803  0.7197  0.6417  0.3996
  725MOL0     H97830   4.051   3.353   6.804  1.4685 -1.0635 -0.6825
  725MOL0     H97831   4.347   3.470   6.847  3.5971 -2.5281 -2.1188
  725MOL0     H97832   4.272   3.389   6.704  1.1191 -1.9628  0.5294
  725MOL0     H97833   4.382   3.231   6.790 -1.3170 -1.9913 -1.0876
  725MOL0     H97834   4.228   3.205   6.879  0.8971  0.3827 -1.8377
  725MOL0     H97835   4.500   3.271   7.218  0.4276 -0.4683 -0.5537
  725MOL0     H97836   4.590   3.182   7.408 -1.0977  1.6507 -3.5618
  725MOL0     H97837   4.578   3.018   7.447 -1.8680  2.8807  1.6492
  725MOL0     H97838   4.729   3.075   7.370 -0.3663  2.3656 -2.1462
  725MOL0     H97839   4.896   2.619   7.240 -4.8932 -1.5445 -0.7194
  725MOL0     H97840   4.984   2.453   7.385 -2.6743 -1.6783 -1.9913
  725MOL0     H97841   4.876   2.262   7.486  1.0909  0.8815  0.2165
  725MOL0     H97842   5.034   2.282   7.533 -0.3417  0.3018 -2.1876
  725MOL0     H97843   4.823   2.166   7.718 -0.1224  0.9370 -2.0728
  725MOL0     H97844   4.950   2.065   7.642 -0.6754  0.4660  0.2160
  725MOL0     H97845   4.995   2.294   7.843 -1.2242 -0.1169 -0.9366
  725MOL0     H97846   5.126   2.187   7.774 -0.0812 -1.5487 -1.9615
  725MOL0     H97847   4.887   2.053   7.924  0.0693  0.4339 -1.0440
  725MOL0     H97848   5.051   1.998   7.908 -1.0998 -1.7290  4.7970
  725MOL0     H97849   5.118   2.190   8.067  1.3946 -1.3258 -1.4498
  725MOL0     H97850   5.032   2.058   8.126  0.1013 -0.4584 -0.4967
  725MOL0     H97851   4.875   2.304   8.030 -0.8433 -1.9868 -0.1319
  725MOL0     H97852   4.816   2.167   8.111 -0.9547  0.7380  2.4428
  725MOL0     H97853   4.838   2.349   8.259 -0.5176 -1.1518 -3.7445
  725MOL0     H97854   5.008   2.359   8.203 -1.7190  1.7109 -0.7297
  725MOL0     H97855   5.038   2.120   8.324 -0.1812 -1.8416  4.1788
  725MOL0     H97856   4.883   2.160   8.402 -0.7320  2.5068  2.0603
  725MOL0     H97857   4.749   2.596   7.696  4.3335 -1.7167  0.2254
  725MOL0     H97858   4.683   2.806   7.568 -1.0823 -0.9168  0.4330
  725MOL0     H97859   4.496   2.833   7.003  0.2105  2.1698 -3.2982
  725MOL0     H97860   4.403   3.022   6.896 -0.0441 -2.1701  0.0306
  725MOL0     H97861   4.544   2.476   7.726 -3.8530 -1.4779 -2.9591
  725MOL0     H97862   4.656   2.472   7.931  0.1242  2.7651 -0.9422
  725MOL0     H97863   4.502   2.123   8.404  1.1434 -0.2239  0.9794
  725MOL0     H97864   4.598   2.078   8.616  1.2567 -0.3713  1.1590
  725MOL0     H97865   4.520   2.187   8.851  0.3065 -0.2521  1.6032
  725MOL0     H97866   4.637   2.064   8.827 -1.6804 -0.5728  1.3036
  725MOL0     H97867   4.623   2.293   9.024 -0.0633 -1.1317 -0.2616
  725MOL0     H97868   4.764   2.190   9.028  0.9161 -2.3628 -1.7763
  725MOL0     H97869   4.598   2.006   9.078 -0.8874  0.3705 -1.0075
  725MOL0     H97870   4.460   2.118   9.066 -1.2787  1.1909  0.2953
  725MOL0     H97871   4.649   2.072   9.287 -0.9021 -1.9633 -0.4676
  725MOL0     H97872   4.469   2.135   9.298 -0.3695  1.5532 -0.0214
  725MOL0     H97873   4.710   2.473   9.353 -0.7492  0.4527 -0.9751
  725MOL0     H97874   4.725   2.471   8.653 -0.0640 -1.7523  0.9307
  725MOL0     H97875   4.571   2.540   8.442 -1.2582 -0.7502 -0.6579
  726MOL0     O97876   8.112   4.500  10.783 -0.0976 -0.0042  0.3587
  726MOL0     C97877   8.141   4.474  10.900  0.2667 -0.4241  1.2988
  726MOL0     O97878   8.224   4.366  10.928  0.3297  0.6117  0.3717
  726MOL0     C97879   8.268   4.282  10.823 -0.1844  0.0268  1.0242
  726MOL0     C97880   8.189   4.195  10.770 -0.2203  0.4168  0.2130
  726MOL0     C97881   8.225   4.108  10.667  0.5976  0.8927  0.3129
  726MOL0     C97882   8.350   4.134  10.604 -0.4870 -0.4271 -0.9647
  726MOL0     O97883   8.396   4.063  10.497  0.3235  0.6192 -0.0839
  726MOL0     C97884   8.476   4.116  10.398  0.3313  0.2657 -0.2981
  726MOL0     C97885   8.514   4.012  10.293  0.0446  0.8164 -0.0227
  726MOL0     C97886   8.398   3.974  10.208  0.4041  0.5308  0.3611
  726MOL0     C97887   8.360   3.818  10.219  0.6724  0.1653  0.2563
  726MOL0     C97888   8.220   3.795  10.155 -0.1023 -0.1645 -0.4073
  726MOL0     C97889   8.116   3.772  10.266 -0.6292 -0.4730  0.0626
  726MOL0     C97890   7.984   3.717  10.223 -0.4214  0.5715  0.6246
  726MOL0     C97891   7.892   3.827  10.199 -0.4044 -0.1770 -0.6754
  726MOL0     N97892   7.749   3.789  10.184  0.6864 -1.2224 -0.5397
  726MOL0     C97893   7.650   3.780  10.285 -0.6073 -0.0834 -0.4156
  726MOL0     C97894   7.552   3.716  10.225 -0.3403 -0.1479  0.8928
  726MOL0     C97895   7.434   3.653  10.291  0.4533  0.6209  0.2487
  726MOL0     C97896   7.299   3.689  10.226 -0.3385 -0.1976 -0.2720
  726MOL0     C97897   7.251   3.841  10.225  0.5936 -0.3833  0.0318
  726MOL0     C97898   7.129   3.870  10.142  0.4367 -0.1767 -0.7027
  726MOL0     O97899   7.061   3.984  10.199 -0.1015 -0.2112  0.0809
  726MOL0     C97900   6.932   4.024  10.152 -0.0995 -0.1781 -0.1058
  726MOL0     C97901   6.870   4.131  10.211  0.5164  0.2310 -0.1086
  726MOL0     C97902   6.749   4.186  10.173 -0.3405 -0.5455  0.9057
  726MOL0     C97903   6.687   4.297  10.244  0.4725 -0.5024 -0.3566
  726MOL0     C97904   6.684   4.110  10.075 -1.1737 -0.5861  0.2281
  726MOL0     C97905   6.543   4.138  10.031  0.3713  0.1602  0.2978
  726MOL0     O97906   6.438   4.049  10.040  0.2647  0.2783  0.3474
  726MOL0     C97907   6.317   4.078   9.984  0.4435 -0.1826  0.1379
  726MOL0     C97908   6.220   4.131  10.063  1.5288 -0.4027 -0.6896
  726MOL0     C97909   6.088   4.164  10.009 -0.7751  0.1651 -1.2316
  726MOL0     C97910   6.054   4.121   9.883 -0.4298  0.7033  0.5702
  726MOL0     O97911   5.930   4.128   9.825  0.0606  0.5446  1.3634
  726MOL0     C97912   5.854   4.236   9.869  0.0705 -0.2553 -0.3301
  726MOL0     C97913   5.754   4.289   9.766  0.2259 -0.8602 -0.0485
  726MOL0     C97914   5.641   4.187   9.743  0.8690  0.9242 -0.2509
  726MOL0     C97915   5.504   4.250   9.699 -1.2083  0.1110 -1.0679
  726MOL0     C97916   5.392   4.142   9.691 -0.5322 -0.2292 -0.3821
  726MOL0     C97917   5.327   4.128   9.834 -0.1150  0.9473  0.4766
  726MOL0     C97918   5.244   4.005   9.833 -1.0590  0.5094  0.7261
  726MOL0     C97919   5.194   3.969   9.972  0.6470  1.0372 -0.0233
  726MOL0    Cl97920   5.107   4.107  10.041 -0.6706  0.2971  0.2572
  726MOL0     C97921   6.157   4.071   9.804  1.0409  0.1658 -0.0911
  726MOL0     C97922   6.279   4.045   9.853  0.1258 -0.0404 -0.1076
  726MOL0     O97923   6.537   4.248   9.977  0.7605 -0.5572 -0.7460
  726MOL0     C97924   6.739   3.998  10.010  0.2437  0.5741  0.0035
  726MOL0     C97925   6.867   3.959  10.055 -0.1996 -0.9457 -0.1832
  726MOL0     N97926   7.584   3.712  10.083 -0.4567 -0.2666 -0.6169
  726MOL0     N97927   7.708   3.723  10.079 -0.2713 -1.1940  0.2717
  726MOL0     C97928   8.432   4.234  10.658 -0.2467 -0.9160 -0.1068
  726MOL0     C97929   8.391   4.310  10.767  0.7534 -0.0256 -0.0710
  726MOL0     C97930   8.097   4.568  11.000  0.2890 -0.3757  0.2095
  726MOL0     C97931   8.067   4.702  10.970  0.2022 -0.3095 -0.1133
  726MOL0     C97932   8.039   4.793  11.073 -0.6586 -0.2321 -0.5847
  726MOL0     C97933   8.056   4.757  11.212 -0.2473  0.5521 -0.7216
  726MOL0     O97934   8.054   4.859  11.301 -0.3668  0.1956 -0.7303
  726MOL0     C97935   8.073   4.827  11.440 -0.6425 -0.6292  0.1721
  726MOL0     C97936   8.067   4.956  11.534  0.0548 -0.5557  0.1419
  726MOL0     C97937   7.975   4.955  11.657  0.7700 -0.4612  0.6693
  726MOL0     C97938   8.042   4.849  11.752 -0.8287 -0.3432 -0.1033
  726MOL0     C97939   7.994   4.863  11.887 -0.2693 -0.2407 -0.5017
  726MOL0     C97940   7.953   4.874  12.004  0.2406 -0.3831 -0.9482
  726MOL0     C97941   8.069   4.626  11.245 -0.2805  0.4304  0.6446
  726MOL0     C97942   8.097   4.536  11.139  0.4437 -1.3911 -0.9670
  726MOL0     H97943   8.088   4.180  10.808 -1.4345 -0.9170 -3.1204
  726MOL0     H97944   8.163   4.027  10.630 -0.7103  1.5836  0.8789
  726MOL0     H97945   8.423   4.197  10.348  1.4555  1.2846  0.1167
  726MOL0     H97946   8.566   4.164  10.438 -0.6413  1.3134  0.7062
  726MOL0     H97947   8.606   4.040  10.242  0.8225  0.9860  1.4195
  726MOL0     H97948   8.547   3.923  10.347 -0.2479  0.9524  0.3814
  726MOL0     H97949   8.312   4.042  10.212  0.3473  0.3889  1.9934
  726MOL0     H97950   8.426   3.990  10.103 -0.2747 -2.6098 -0.3859
  726MOL0     H97951   8.439   3.764  10.167  0.1542  0.2745 -0.6712
  726MOL0     H97952   8.363   3.791  10.325 -1.4762 -0.6609  0.1524
  726MOL0     H97953   8.203   3.868  10.074  1.1387  2.8588  1.8552
  726MOL0     H97954   8.224   3.704  10.095  0.7423 -2.5778  3.0107
  726MOL0     H97955   8.165   3.688  10.316 -1.7366 -0.9600  0.3760
  726MOL0     H97956   8.104   3.846  10.345 -2.2729  0.9266 -1.4015
  726MOL0     H97957   7.995   3.655  10.133  1.4509  1.9195 -0.1417
  726MOL0     H97958   7.946   3.648  10.298  0.7608 -1.2918 -0.4249
  726MOL0     H97959   7.927   3.879  10.109  1.2725 -0.7018 -0.3521
  726MOL0     H97960   7.904   3.889  10.288 -2.8427 -0.5077 -0.0340
  726MOL0     H97961   7.662   3.809  10.389  1.8597  1.8888 -1.1250
  726MOL0     H97962   7.436   3.544  10.301 -0.2925  0.5247 -0.5372
  726MOL0     H97963   7.422   3.688  10.395  1.1984  0.6740  0.3181
  726MOL0     H97964   7.212   3.637  10.266  0.9069  0.4492  3.7342
  726MOL0     H97965   7.312   3.656  10.122  0.2724 -1.7763  0.2887
  726MOL0     H97966   7.328   3.904  10.180  1.7673 -0.5587  1.6995
  726MOL0     H97967   7.247   3.884  10.325  3.4266 -0.2890  0.1987
  726MOL0     H97968   7.055   3.789  10.144 -0.6170  0.7782 -0.2797
  726MOL0     H97969   7.164   3.893  10.041  2.1788  0.3071 -0.0278
  726MOL0     H97970   6.930   4.174  10.290 -2.3956  5.1492 -0.1599
  726MOL0     H97971   6.647   4.362  10.166 -1.3812 -1.2605 -0.1111
  726MOL0     H97972   6.606   4.265  10.311  2.9262 -3.4081  1.4698
  726MOL0     H97973   6.763   4.358  10.294 -0.1575 -2.0891  2.8208
  726MOL0     H97974   6.247   4.155  10.165 -3.2606  1.3183  0.4418
  726MOL0     H97975   6.009   4.209  10.068  0.0455  0.4926 -0.3641
  726MOL0     H97976   5.813   4.225   9.970  0.1009  1.1267 -0.1407
  726MOL0     H97977   5.925   4.319   9.882  0.3314 -0.3804 -0.9143
  726MOL0     H97978   5.721   4.388   9.799  1.9040 -0.0345 -0.7455
  726MOL0     H97979   5.820   4.306   9.681  2.3644 -0.6245  1.5666
  726MOL0     H97980   5.627   4.123   9.832  1.2106  1.9467  0.5599
  726MOL0     H97981   5.677   4.113   9.671  1.0853 -0.4464  1.2036
  726MOL0     H97982   5.471   4.321   9.776 -0.4302  2.0592 -2.4433
  726MOL0     H97983   5.520   4.317   9.614  2.4685  2.7070  1.3571
  726MOL0     H97984   5.430   4.047   9.653 -0.9669 -0.8849  0.8020
  726MOL0     H97985   5.326   4.172   9.609 -0.3497 -1.4644 -1.0008
  726MOL0     H97986   5.394   4.127   9.920  1.7588  0.7847 -0.8979
  726MOL0     H97987   5.260   4.211   9.858  1.3117  2.4959 -0.5987
  726MOL0     H97988   5.299   3.916   9.802 -3.0869 -0.8956  0.9390
  726MOL0     H97989   5.156   4.022   9.771 -0.0906 -1.2290 -1.2449
  726MOL0     H97990   5.285   3.961  10.032 -1.1234  0.5981  2.8199
  726MOL0     H97991   5.140   3.873   9.976 -0.9834  1.9354  2.9377
  726MOL0     H97992   6.136   4.030   9.706  1.0845 -0.1538  0.0336
  726MOL0     H97993   6.351   4.012   9.778  0.7557 -1.6275  1.1507
  726MOL0     H97994   6.686   3.926   9.948  1.2829 -0.1593 -0.0579
  726MOL0     H97995   6.917   3.871  10.016  3.9632  0.1602  2.0613
  726MOL0     H97996   8.536   4.246  10.630  0.3473 -1.8790  1.5389
  726MOL0     H97997   8.447   4.394  10.806 -0.8126  1.4071 -0.7953
  726MOL0     H97998   8.048   4.744  10.872 -3.7469  2.1842  1.4733
  726MOL0     H97999   8.011   4.896  11.055  1.2461  0.4668  0.2199
  726MOL0     H98000   8.000   4.753  11.474 -0.8813 -1.8568 -2.6957
  726MOL0     H98001   8.164   4.767  11.448 -1.6374 -2.2694 -0.4055
  726MOL0     H98002   8.019   5.030  11.470  1.2923 -0.5133 -0.7777
  726MOL0     H98003   8.168   4.981  11.568 -0.7294 -1.4847  3.5730
  726MOL0     H98004   7.882   4.915  11.615  2.4724 -3.2564 -0.7690
  726MOL0     H98005   7.965   5.056  11.697  0.4691 -0.9158  1.7981
  726MOL0     H98006   8.148   4.871  11.767 -0.7218 -1.2750  0.6598
  726MOL0     H98007   8.034   4.743  11.723 -0.5496 -0.0233 -1.3978
  726MOL0     H98008   7.918   4.882  12.105 -1.7910  0.7748 -1.6725
  726MOL0     H98009   8.058   4.589  11.346 -0.4034  0.3903  0.6166
  726MOL0     H98010   8.111   4.430  11.160  0.6753 -1.2799 -0.5377
  727MOL0     O98011   2.620  10.642   9.215  0.8110  0.6597 -0.0046
  727MOL0     C98012   2.581  10.610   9.332  0.0557 -0.4358  1.1216
  727MOL0     O98013   2.635  10.671   9.443  0.2548  0.3488 -0.3863
  727MOL0     C98014   2.727  10.772   9.430 -0.2891  0.6827  0.9203
  727MOL0     C98015   2.861  10.739   9.456  1.0412 -0.1769  0.3425
  727MOL0     C98016   2.961  10.834   9.444  0.7486 -0.4523 -0.0712
  727MOL0     C98017   2.940  10.961   9.398  0.3273 -0.2355 -0.9531
  727MOL0     O98018   3.050  11.034   9.358 -0.6991 -0.5019 -0.4278
  727MOL0     C98019   3.102  11.089   9.479  0.3250 -0.2423 -0.5007
  727MOL0     C98020   3.183  11.206   9.431 -0.4866  0.3409  0.8816
  727MOL0     C98021   3.264  11.266   9.549  0.5504 -0.1700  0.1540
  727MOL0     C98022   3.369  11.180   9.615 -0.1448 -0.0822  0.9732
  727MOL0     C98023   3.467  11.264   9.694  0.4525  0.2057 -0.1768
  727MOL0     C98024   3.550  11.163   9.784  1.3891 -0.1069  0.8889
  727MOL0     C98025   3.608  11.260   9.898 -0.3965  0.8975 -0.5283
  727MOL0     C98026   3.493  11.313   9.989 -0.0665  1.1576 -0.2918
  727MOL0     N98027   3.541  11.352  10.129  0.1008  0.5917  0.8441
  727MOL0     C98028   3.663  11.395  10.162 -1.0749  0.6044 -0.2959
  727MOL0     C98029   3.670  11.420  10.295  1.0567 -0.4614  0.6826
  727MOL0     C98030   3.791  11.457  10.382  0.1927  0.7697 -0.2867
  727MOL0     C98031   3.837  11.595  10.376  0.4594  0.4192  0.4109
  727MOL0     C98032   3.977  11.611  10.447  0.1399  0.3365 -0.3231
  727MOL0     C98033   4.034  11.751  10.447 -1.4970  0.6052 -0.4031
  727MOL0     O98034   4.150  11.742  10.520 -0.3340  0.1540  0.2146
  727MOL0     C98035   4.240  11.854  10.516 -0.3708  0.0892  0.9837
  727MOL0     C98036   4.365  11.847  10.588 -0.3745 -0.8830 -0.1103
  727MOL0     C98037   4.460  11.951  10.590 -0.8434 -0.0036 -0.7372
  727MOL0     C98038   4.573  11.925  10.679  0.5933  0.1876  0.2174
  727MOL0     C98039   4.434  12.065  10.512 -0.2701  0.3170  0.1319
  727MOL0     C98040   4.537  12.171  10.507 -0.7088 -0.6954  0.2957
  727MOL0     O98041   4.610  12.197  10.627  0.4805 -0.5357 -0.1505
  727MOL0     C98042   4.682  12.314  10.633 -0.3177  0.1362  0.1788
  727MOL0     C98043   4.820  12.300  10.627  0.0925  0.2328 -0.6764
  727MOL0     C98044   4.894  12.421  10.603  0.0512  0.5663 -0.2298
  727MOL0     C98045   4.832  12.549  10.611 -0.0952  0.0067 -0.2166
  727MOL0     O98046   4.889  12.668  10.581 -0.1636  0.1634 -0.4504
  727MOL0     C98047   5.021  12.684  10.648 -0.3562  1.0347 -0.4673
  727MOL0     C98048   5.080  12.824  10.636 -0.4790  0.1972  0.0622
  727MOL0     C98049   5.002  12.942  10.682 -0.3327 -0.1421 -0.7362
  727MOL0     C98050   4.933  13.022  10.572 -0.3770 -0.4351 -0.4825
  727MOL0     C98051   4.819  13.111  10.627 -0.0270 -0.1662  0.7385
  727MOL0     C98052   4.892  13.224  10.715 -0.0665  0.8110 -0.2005
  727MOL0     C98053   4.810  13.353  10.743  0.4502  0.0424 -0.7004
  727MOL0     C98054   4.671  13.310  10.796  0.4150  0.7118 -0.3061
  727MOL0    Cl98055   4.678  13.182  10.920 -0.6499 -0.1819  0.1421
  727MOL0     C98056   4.694  12.552  10.628 -0.2886  0.2714  0.1652
  727MOL0     C98057   4.619  12.439  10.628 -1.3000 -0.0575 -1.0132
  727MOL0     O98058   4.538  12.245  10.407  0.1041 -0.3289  0.9733
  727MOL0     C98059   4.310  12.081  10.442  0.3476 -0.0961  0.6933
  727MOL0     C98060   4.222  11.977  10.439  0.5426 -0.0112 -0.7805
  727MOL0     N98061   3.554  11.377  10.340  0.1948 -0.2924 -0.5391
  727MOL0     N98062   3.476  11.326  10.241 -0.7007 -0.5860  0.2385
  727MOL0     C98063   2.809  10.998   9.371  0.0247  0.1261 -0.0626
  727MOL0     C98064   2.699  10.913   9.395 -0.4405 -0.0586 -1.1962
  727MOL0     C98065   2.459  10.528   9.336 -0.0436 -0.1839 -0.0243
  727MOL0     C98066   2.402  10.489   9.458 -0.1934 -0.5303 -0.2650
  727MOL0     C98067   2.293  10.403   9.460  0.0118  0.7731 -0.1756
  727MOL0     C98068   2.238  10.355   9.342 -0.4469  0.5305  0.5914
  727MOL0     O98069   2.128  10.269   9.335 -0.1079  0.5507 -0.1517
  727MOL0     C98070   2.009  10.330   9.379  0.3510  1.4315 -1.3627
  727MOL0     C98071   1.892  10.291   9.303  0.3149  0.0986 -0.1921
  727MOL0     C98072   1.759  10.358   9.361  0.1435  0.1256  0.3579
  727MOL0     C98073   1.740  10.507   9.317 -0.9120  0.3085 -0.2452
  727MOL0     C98074   1.709  10.528   9.175 -0.3520 -0.0452  0.2461
  727MOL0     C98075   1.689  10.525   9.058  0.2721 -0.1663  0.2237
  727MOL0     C98076   2.287  10.394   9.217 -0.1958  0.1139  0.4200
  727MOL0     C98077   2.393  10.492   9.214  0.0439 -0.6047 -0.5010
  727MOL0     H98078   2.872  10.633   9.476 -1.5297 -0.9285 -1.6615
  727MOL0     H98079   3.065  10.807   9.461  0.1632 -1.8587  1.6558
  727MOL0     H98080   3.022  11.122   9.545  0.7728 -1.8672  0.9361
  727MOL0     H98081   3.168  11.015   9.526  0.9584  0.6899  0.1102
  727MOL0     H98082   3.247  11.186   9.344 -1.8874  1.6847 -0.5327
  727MOL0     H98083   3.117  11.284   9.393 -1.9970 -1.2958  0.0227
  727MOL0     H98084   3.331  11.342   9.508  2.7180 -3.0736 -2.0977
  727MOL0     H98085   3.198  11.316   9.621 -2.3862 -1.0986 -1.6946
  727MOL0     H98086   3.335  11.093   9.671 -0.9845  0.1422  0.8334
  727MOL0     H98087   3.418  11.131   9.531 -3.4306 -5.6600  1.8504
  727MOL0     H98088   3.518  11.336   9.630  1.5789 -0.4592 -0.0603
  727MOL0     H98089   3.400  11.316   9.764 -1.7019 -2.0913 -0.3940
  727MOL0     H98090   3.495  11.078   9.826 -0.1538  0.6242  0.4209
  727MOL0     H98091   3.631  11.118   9.725  0.8459 -0.2015  0.2040
  727MOL0     H98092   3.671  11.193   9.956 -3.3460 -3.1745 -1.6140
  727MOL0     H98093   3.661  11.345   9.854 -1.4702  1.7043 -0.3117
  727MOL0     H98094   3.411  11.243  10.006  1.1179  0.0199  1.0175
  727MOL0     H98095   3.453  11.407   9.949  0.9014  2.6846  2.1431
  727MOL0     H98096   3.747  11.415  10.096 -0.7442 -0.3246 -0.1675
  727MOL0     H98097   3.757  11.441  10.484 -2.4860 -2.1729 -1.4788
  727MOL0     H98098   3.875  11.390  10.361  0.0775 -0.1439  1.9143
  727MOL0     H98099   3.758  11.656  10.421 -1.7440 -1.5910 -0.5292
  727MOL0     H98100   3.849  11.623  10.270  2.4000  0.3274  0.5708
  727MOL0     H98101   4.041  11.544  10.389 -1.0572  0.5041 -1.9327
  727MOL0     H98102   3.960  11.576  10.549 -2.8669 -0.8315 -1.1036
  727MOL0     H98103   3.955  11.812  10.492 -1.4556  0.7016 -0.4615
  727MOL0     H98104   4.057  11.797  10.351 -1.7347 -1.9326 -1.7616
  727MOL0     H98105   4.366  11.753  10.641  0.9110 -0.7661  0.0953
  727MOL0     H98106   4.662  11.981  10.649  0.2903  2.2288  2.7680
  727MOL0     H98107   4.565  11.963  10.781 -0.4740 -0.7978  0.5289
  727MOL0     H98108   4.581  11.816  10.689 -2.5396 -0.6409 -3.5580
  727MOL0     H98109   4.871  12.205  10.631  0.1784  0.3175  1.9199
  727MOL0     H98110   4.998  12.405  10.578  0.4438 -0.7137  1.9871
  727MOL0     H98111   5.020  12.651  10.752  6.3670  2.2699  0.4352
  727MOL0     H98112   5.097  12.613  10.615 -3.3212 -4.3369  2.7992
  727MOL0     H98113   5.181  12.815  10.677  0.3605 -3.6786 -2.2707
  727MOL0     H98114   5.118  12.848  10.536  3.5118 -0.2074  1.2989
  727MOL0     H98115   5.064  13.002  10.749 -0.4803 -1.8405  1.0063
  727MOL0     H98116   4.919  12.900  10.739  0.7410 -2.2601 -0.6151
  727MOL0     H98117   5.004  13.074  10.508  2.2660  1.0622  3.2842
  727MOL0     H98118   4.893  12.943  10.508  0.3102  0.9424 -2.7462
  727MOL0     H98119   4.734  13.052  10.663 -1.3561 -1.6917 -4.0771
  727MOL0     H98120   4.777  13.163  10.540  1.1848  1.3186  1.0084
  727MOL0     H98121   4.927  13.196  10.815  0.8608  0.3601 -0.6342
  727MOL0     H98122   4.975  13.263  10.656 -0.7480  1.2065 -0.9191
  727MOL0     H98123   4.800  13.405  10.648  0.6019 -0.2994 -0.9019
  727MOL0     H98124   4.860  13.421  10.814  0.2319 -2.1081  1.6742
  727MOL0     H98125   4.617  13.256  10.718  1.9894 -2.0215  0.3554
  727MOL0     H98126   4.626  13.402  10.833  1.7738  1.0244  0.6425
  727MOL0     H98127   4.634  12.642  10.627 -1.6152 -0.5694  0.9586
  727MOL0     H98128   4.512  12.453  10.633 -1.2346  0.0354  0.8886
  727MOL0     H98129   4.317  12.164  10.373  1.8252 -2.8032 -2.7036
  727MOL0     H98130   4.128  11.985  10.386 -0.5918 -2.2255  0.7555
  727MOL0     H98131   2.786  11.094   9.326  0.1008 -0.6242 -1.7859
  727MOL0     H98132   2.597  10.950   9.385  0.4305  1.9918 -3.4113
  727MOL0     H98133   2.445  10.533   9.547 -0.9290 -3.7047  1.8101
  727MOL0     H98134   2.261  10.362   9.555 -0.3355 -2.0663 -1.4263
  727MOL0     H98135   1.997  10.302   9.485  2.7448  1.2427 -1.0904
  727MOL0     H98136   2.020  10.438   9.366 -3.9066  1.8790 -2.6083
  727MOL0     H98137   1.873  10.185   9.324 -3.1272  0.8538  1.1893
  727MOL0     H98138   1.905  10.320   9.198 -0.2628  3.0161  0.4611
  727MOL0     H98139   1.771  10.344   9.469 -0.3417 -2.5586  0.1249
  727MOL0     H98140   1.670  10.301   9.335  0.3518 -1.4053  2.6691
  727MOL0     H98141   1.829  10.567   9.342 -1.0804  0.4111  0.1206
  727MOL0     H98142   1.668  10.566   9.375 -0.0124 -1.6197  3.1076
  727MOL0     H98143   1.674  10.539   8.953 -1.2145  1.6667  0.6376
  727MOL0     H98144   2.265  10.341   9.125  1.6411  0.4646 -0.2576
  727MOL0     H98145   2.430  10.529   9.119  0.1187  1.7620  0.3805
  728MOL0     O98146   4.414  10.402   2.403 -0.2369 -0.6272  0.2046
  728MOL0     C98147   4.339  10.466   2.473  0.2552 -0.3490  0.1452
  728MOL0     O98148   4.371  10.524   2.595 -0.0924 -0.1431  0.2420
  728MOL0     C98149   4.499  10.524   2.656  0.0238  0.4354 -0.5722
  728MOL0     C98150   4.588  10.416   2.642  1.0633  0.2928  0.2379
  728MOL0     C98151   4.711  10.421   2.704 -0.1235  0.0168 -0.5091
  728MOL0     C98152   4.747  10.539   2.764 -0.6042 -0.2468 -1.2743
  728MOL0     O98153   4.871  10.535   2.818 -0.4778 -0.7899 -0.1904
  728MOL0     C98154   4.926  10.654   2.868 -0.3892 -0.4067  0.8750
  728MOL0     C98155   4.950  10.768   2.767  0.1030  0.6067  0.5701
  728MOL0     C98156   5.031  10.889   2.829 -0.0281 -0.0004 -0.5375
  728MOL0     C98157   5.055  11.006   2.729 -0.2220  0.3491  0.1120
  728MOL0     C98158   5.073  11.143   2.793  0.7636  0.1652  0.0465
  728MOL0     C98159   5.206  11.167   2.871  0.3870  0.2214 -0.0674
  728MOL0     C98160   5.333  11.193   2.786  0.1376 -0.1025 -0.2240
  728MOL0     C98161   5.327  11.308   2.684 -0.0476  0.2559  0.5468
  728MOL0     N98162   5.296  11.438   2.748  0.7463 -0.0941  0.5189
  728MOL0     C98163   5.180  11.479   2.810 -0.0984 -0.3513 -0.1063
  728MOL0     C98164   5.213  11.604   2.849 -0.5043  0.5875  1.4923
  728MOL0     C98165   5.117  11.675   2.948  0.4506  0.5951 -0.1126
  728MOL0     C98166   5.013  11.772   2.890 -0.5272 -0.3238 -0.0121
  728MOL0     C98167   4.945  11.854   2.993 -0.9001 -0.5588  0.8927
  728MOL0     C98168   4.881  11.971   2.923 -0.0378 -0.1622  0.3272
  728MOL0     O98169   4.776  12.022   3.001  0.3844  0.0153 -0.0159
  728MOL0     C98170   4.769  12.156   2.990  0.1628 -0.0031 -0.5786
  728MOL0     C98171   4.738  12.235   3.104 -0.3086 -0.3592 -0.7532
  728MOL0     C98172   4.724  12.380   3.096  0.7233 -0.0929 -0.6914
  728MOL0     C98173   4.689  12.446   3.233  0.0147  0.3874  0.0686
  728MOL0     C98174   4.735  12.444   2.969 -0.0524 -0.6500  0.9354
  728MOL0     C98175   4.723  12.596   2.948  0.6415 -0.1161 -0.1187
  728MOL0     O98176   4.748  12.649   2.826  0.2000  0.3570 -0.9767
  728MOL0     C98177   4.752  12.784   2.812  0.3687  0.4268  0.3584
  728MOL0     C98178   4.646  12.844   2.752  0.2089 -0.3939 -0.5242
  728MOL0     C98179   4.665  12.975   2.710 -0.7720 -0.0256 -0.5032
  728MOL0     C98180   4.773  13.049   2.747  0.4819  0.6944 -0.2234
  728MOL0     O98181   4.780  13.172   2.686 -0.0152 -0.3033 -0.4684
  728MOL0     C98182   4.888  13.251   2.721  0.4242  0.4292 -0.1266
  728MOL0     C98183   4.882  13.372   2.625 -0.6357  0.2499  0.2536
  728MOL0     C98184   5.012  13.452   2.613 -0.5545 -0.9018  0.9636
  728MOL0     C98185   5.019  13.561   2.723 -0.0089 -0.7112  0.4481
  728MOL0     C98186   5.159  13.635   2.714 -0.2337  0.5926 -0.8555
  728MOL0     C98187   5.181  13.751   2.816 -0.8418  0.7487 -0.8841
  728MOL0     C98188   5.325  13.818   2.776  0.2617 -0.1919 -0.1047
  728MOL0     C98189   5.447  13.733   2.826  1.1220  0.0368  0.4621
  728MOL0    Cl98190   5.584  13.840   2.852  0.1550 -0.2147 -0.4706
  728MOL0     C98191   4.881  12.987   2.818 -0.2378  0.1284 -0.0195
  728MOL0     C98192   4.868  12.854   2.847 -0.5015 -0.4634  0.9157
  728MOL0     O98193   4.677  12.663   3.043  0.3797 -0.2438 -0.4215
  728MOL0     C98194   4.750  12.362   2.858  0.1183 -0.6460  0.1499
  728MOL0     C98195   4.776  12.226   2.866 -0.2806 -0.0055 -0.5684
  728MOL0     N98196   5.331  11.653   2.789 -0.2055  0.2764  0.0402
  728MOL0     N98197   5.383  11.546   2.744  0.1851 -0.2563 -0.3016
  728MOL0     C98198   4.654  10.648   2.792  0.0141  0.6078  1.3027
  728MOL0     C98199   4.526  10.629   2.739 -0.2377  0.1587 -0.0553
  728MOL0     C98200   4.203  10.466   2.422  0.8302  0.7691 -0.0115
  728MOL0     C98201   4.178  10.410   2.289  0.2864 -0.1892  0.3074
  728MOL0     C98202   4.048  10.400   2.246  0.3560 -0.0546 -0.9910
  728MOL0     C98203   3.937  10.437   2.326  0.0473 -0.3708  0.7034
  728MOL0     O98204   3.812  10.422   2.275 -0.5821 -0.3829 -0.6612
  728MOL0     C98205   3.721  10.349   2.351 -0.1792  0.0672 -0.3920
  728MOL0     C98206   3.686  10.229   2.264  0.0942  0.3598 -0.2407
  728MOL0     C98207   3.802  10.153   2.195 -0.7152  1.0278  0.4973
  728MOL0     C98208   3.759  10.045   2.102 -0.4674 -0.3902 -0.6384
  728MOL0     C98209   3.867   9.949   2.087  0.0630  0.1781 -0.3509
  728MOL0     C98210   3.950   9.860   2.072  0.1301 -0.2229 -0.4852
  728MOL0     C98211   3.963  10.479   2.456 -0.3755 -0.1008 -0.0849
  728MOL0     C98212   4.094  10.496   2.504  0.8751  0.3215  0.0054
  728MOL0     H98213   4.560  10.326   2.588 -1.0980  1.2456 -0.3386
  728MOL0     H98214   4.765  10.326   2.706 -0.1689 -0.0545  3.0691
  728MOL0     H98215   4.872  10.703   2.950  0.7502  0.9655  0.8622
  728MOL0     H98216   5.020  10.631   2.920 -1.9814 -2.0534  3.2155
  728MOL0     H98217   5.002  10.723   2.682 -0.8962 -1.6317  1.0744
  728MOL0     H98218   4.856  10.794   2.718  0.1021 -2.5756 -1.4021
  728MOL0     H98219   4.969  10.919   2.913  0.2406 -0.5208 -0.1488
  728MOL0     H98220   5.134  10.876   2.865  1.1213  3.7778 -1.9427
  728MOL0     H98221   5.142  10.984   2.666 -0.5795 -0.5364 -0.0911
  728MOL0     H98222   4.967  11.014   2.664 -1.0458  1.5096  1.3397
  728MOL0     H98223   5.049  11.218   2.717  1.7092  0.5281  0.0995
  728MOL0     H98224   4.988  11.144   2.862  1.5503 -1.3002  1.0716
  728MOL0     H98225   5.206  11.247   2.946 -1.7133  0.7577 -0.5571
  728MOL0     H98226   5.221  11.070   2.920  0.3349  0.6778  0.8800
  728MOL0     H98227   5.417  11.206   2.855  0.9117 -0.9094 -0.9863
  728MOL0     H98228   5.349  11.101   2.730  0.3548 -0.3555  0.2490
  728MOL0     H98229   5.247  11.292   2.612  1.2436  0.6675 -1.0470
  728MOL0     H98230   5.416  11.307   2.620 -0.8855 -0.6022 -0.6335
  728MOL0     H98231   5.093  11.421   2.839 -1.0237  2.2206  2.8388
  728MOL0     H98232   5.052  11.596   2.987  0.6671  0.4101 -0.1252
  728MOL0     H98233   5.187  11.723   3.018  0.3469 -0.2162  0.5633
  728MOL0     H98234   4.939  11.720   2.828 -1.0145 -0.3463  0.5833
  728MOL0     H98235   5.065  11.837   2.819 -0.4825  1.3574  1.5045
  728MOL0     H98236   5.010  11.888   3.075 -2.2608 -0.8600  2.1277
  728MOL0     H98237   4.861  11.800   3.037 -3.8451  0.1091 -3.3595
  728MOL0     H98238   4.853  11.952   2.820  2.6085  0.8020 -0.6667
  728MOL0     H98239   4.964  12.039   2.899  1.7204 -2.4371 -0.4694
  728MOL0     H98240   4.709  12.175   3.191 -1.4936 -0.1765 -1.0079
  728MOL0     H98241   4.781  12.494   3.269  1.3795  0.0443 -2.6651
  728MOL0     H98242   4.605  12.514   3.215 -0.9345 -1.0144 -1.0411
  728MOL0     H98243   4.662  12.375   3.311 -1.9760  0.9085 -0.0835
  728MOL0     H98244   4.558  12.787   2.726 -0.3651  0.7519 -1.1558
  728MOL0     H98245   4.582  13.022   2.659 -1.4382  0.2929  0.8303
  728MOL0     H98246   4.888  13.277   2.827  2.3479 -1.5090  0.4297
  728MOL0     H98247   4.985  13.201   2.713  0.3216  0.1999  0.0458
  728MOL0     H98248   4.869  13.337   2.522  4.2401  0.7361 -0.7924
  728MOL0     H98249   4.796  13.436   2.645 -0.6084  0.9845 -1.6845
  728MOL0     H98250   5.005  13.508   2.519 -0.3731 -0.4090  1.2412
  728MOL0     H98251   5.098  13.386   2.603  1.0046  1.1664 -0.1423
  728MOL0     H98252   4.941  13.634   2.698  2.2665  1.6649 -0.0783
  728MOL0     H98253   5.004  13.522   2.825  0.1871 -0.9133  0.4016
  728MOL0     H98254   5.179  13.669   2.612  3.1140  1.8418  0.0969
  728MOL0     H98255   5.230  13.554   2.733  0.3923  1.4616  0.6272
  728MOL0     H98256   5.099  13.823   2.807 -0.2854  1.5036 -0.0759
  728MOL0     H98257   5.187  13.716   2.919  2.4391  0.1153 -1.1754
  728MOL0     H98258   5.342  13.909   2.835 -0.5429 -1.4006  2.1533
  728MOL0     H98259   5.331  13.852   2.673 -0.7502  0.3231 -0.0041
  728MOL0     H98260   5.456  13.653   2.751 -2.1511  2.1877 -2.5876
  728MOL0     H98261   5.420  13.679   2.917 -0.9033 -0.7245 -0.5071
  728MOL0     H98262   4.978  13.029   2.843 -0.5153 -0.7123  2.8880
  728MOL0     H98263   4.943  12.797   2.900 -2.0596 -1.8338  1.7315
  728MOL0     H98264   4.738  12.409   2.761  0.0225  2.4947  1.5621
  728MOL0     H98265   4.790  12.160   2.781  2.3231 -2.7266  1.7535
  728MOL0     H98266   4.681  10.737   2.848 -0.4692  0.7833  1.2594
  728MOL0     H98267   4.451  10.707   2.748  1.3265  1.7745 -0.4638
  728MOL0     H98268   4.259  10.377   2.225  0.5485 -0.3884  0.7376
  728MOL0     H98269   4.016  10.375   2.145  2.0636  1.6919 -2.0167
  728MOL0     H98270   3.765  10.303   2.440 -2.3801 -0.8226  0.3322
  728MOL0     H98271   3.631  10.403   2.382 -0.1200 -0.8375  1.5571
  728MOL0     H98272   3.620  10.284   2.196 -1.4037  0.9237  1.5818
  728MOL0     H98273   3.623  10.157   2.317  1.0675  0.0645  0.5531
  728MOL0     H98274   3.858  10.112   2.280 -4.1993 -0.0863  2.4447
  728MOL0     H98275   3.868  10.222   2.141  0.4148  0.0755  0.6320
  728MOL0     H98276   3.734  10.084   2.003 -0.8621 -0.4286 -0.5583
  728MOL0     H98277   3.668   9.999   2.142 -0.0847 -1.7385 -1.2698
  728MOL0     H98278   4.014   9.776   2.060  0.5083 -0.3315  1.8422
  728MOL0     H98279   3.875  10.501   2.515 -0.4971 -0.5384 -0.0956
  728MOL0     H98280   4.090  10.531   2.607 -2.7986 -0.8461  0.4135
  729MOL0     O98281   3.474   1.042   9.674 -1.4381  0.4132 -0.8739
  729MOL0     C98282   3.365   1.059   9.734  0.0258  0.6685 -0.5597
  729MOL0     O98283   3.241   1.075   9.669  0.6478 -0.3255  0.2552
  729MOL0     C98284   3.242   1.061   9.532  0.2518  0.0512  0.3588
  729MOL0     C98285   3.240   1.163   9.438  0.1511  0.2097 -0.1839
  729MOL0     C98286   3.217   1.138   9.300 -0.1954 -0.2690 -0.9207
  729MOL0     C98287   3.191   1.006   9.264  0.2009 -0.0344  0.3516
  729MOL0     O98288   3.161   0.985   9.133 -0.4714 -0.5221 -1.0713
  729MOL0     C98289   3.280   0.970   9.054  0.0744  0.0113  0.0888
  729MOL0     C98290   3.270   0.880   8.931 -0.7059  0.7084 -0.7655
  729MOL0     C98291   3.126   0.857   8.896 -1.0263  0.0324 -0.2788
  729MOL0     C98292   3.116   0.790   8.759  0.2226 -0.9881  1.9034
  729MOL0     C98293   2.969   0.751   8.736 -0.2184 -0.3611  0.2710
  729MOL0     C98294   2.959   0.648   8.627  0.2316  0.8645 -0.2806
  729MOL0     C98295   2.814   0.590   8.617 -0.0672  0.3525  0.4407
  729MOL0     C98296   2.738   0.651   8.496  0.1910 -0.0030 -0.2440
  729MOL0     N98297   2.600   0.591   8.472 -0.2670 -0.3127 -0.3801
  729MOL0     C98298   2.482   0.653   8.494 -0.4253 -0.2259  0.2999
  729MOL0     C98299   2.380   0.575   8.442  0.9472 -0.7942  0.1285
  729MOL0     C98300   2.228   0.602   8.452 -0.0567 -0.6278  0.2375
  729MOL0     C98301   2.185   0.699   8.350  0.0670  0.6756  0.3351
  729MOL0     C98302   2.233   0.672   8.204  0.6506  0.4708  0.2195
  729MOL0     C98303   2.164   0.555   8.129  0.6700 -0.8735  0.0474
  729MOL0     O98304   2.162   0.559   7.994 -0.3998 -0.4533  0.3332
  729MOL0     C98305   2.291   0.541   7.928 -0.2417 -0.1701  0.8994
  729MOL0     C98306   2.411   0.505   7.992  0.4977 -1.0643  0.6434
  729MOL0     C98307   2.535   0.512   7.927  0.0134 -0.5572 -0.2291
  729MOL0     C98308   2.659   0.472   8.009 -0.6171  0.1294  0.4720
  729MOL0     C98309   2.539   0.535   7.787  1.2524 -0.5412 -0.5828
  729MOL0     C98310   2.660   0.529   7.699  0.0327  0.5088  1.2669
  729MOL0     O98311   2.652   0.586   7.573 -0.2409  1.2952  0.5191
  729MOL0     C98312   2.764   0.582   7.489 -0.2291 -1.3800 -0.7177
  729MOL0     C98313   2.861   0.479   7.483  0.5166  0.0412 -0.5378
  729MOL0     C98314   2.953   0.489   7.378  0.0722 -0.3077 -0.1858
  729MOL0     C98315   2.955   0.598   7.289  0.6019 -0.4858  0.2897
  729MOL0     O98316   3.060   0.610   7.203 -0.7709 -0.7826 -0.4427
  729MOL0     C98317   3.080   0.723   7.116  0.2029 -0.1037 -0.4279
  729MOL0     C98318   3.176   0.653   7.017  0.8032 -0.2372  0.5542
  729MOL0     C98319   3.226   0.757   6.909 -0.8747  1.0132  0.1107
  729MOL0     C98320   3.305   0.703   6.780 -0.6570  0.8732 -0.2392
  729MOL0     C98321   3.371   0.808   6.690 -0.4290  0.0995  0.8835
  729MOL0     C98322   3.434   0.742   6.567  1.2331  0.2653  0.3802
  729MOL0     C98323   3.564   0.809   6.522  0.3474  0.5772  0.8133
  729MOL0     C98324   3.620   0.713   6.420  0.7015  0.3276  0.3053
  729MOL0    Cl98325   3.708   0.824   6.302 -0.0527  0.3426 -0.4792
  729MOL0     C98326   2.861   0.698   7.300  0.3321  0.4844  0.7227
  729MOL0     C98327   2.767   0.696   7.398  0.6808  0.5423 -0.4854
  729MOL0     O98328   2.764   0.492   7.743 -0.9765 -0.6091 -0.8472
  729MOL0     C98329   2.424   0.590   7.729  0.1561  0.2591 -0.5057
  729MOL0     C98330   2.300   0.589   7.802  0.6098  0.4387  1.1496
  729MOL0     N98331   2.442   0.459   8.403  0.4267 -0.7599 -0.1870
  729MOL0     N98332   2.576   0.479   8.405 -0.3036  0.2413  0.2208
  729MOL0     C98333   3.186   0.900   9.355 -0.9784  0.3573  0.6999
  729MOL0     C98334   3.218   0.925   9.488 -0.2822 -0.0016 -0.1618
  729MOL0     C98335   3.357   1.067   9.879 -0.1608  0.6457  0.4166
  729MOL0     C98336   3.452   1.009   9.968 -0.0307  1.0667 -0.0698
  729MOL0     C98337   3.439   1.018  10.109 -1.1943 -0.6591  0.2812
  729MOL0     C98338   3.326   1.080  10.160  0.1386  0.0694 -1.0011
  729MOL0     O98339   3.316   1.071  10.287 -0.4618 -0.2176 -0.0435
  729MOL0     C98340   3.193   1.089  10.351 -0.0916  0.2128 -0.1632
  729MOL0     C98341   3.229   1.091  10.499 -0.0761 -0.0294 -0.1154
  729MOL0     C98342   3.111   1.176  10.567 -0.0758 -0.5438  0.0238
  729MOL0     C98343   2.986   1.107  10.557  0.1253 -0.6589  0.1507
  729MOL0     C98344   2.874   1.187  10.608  0.7797 -0.1914 -0.0832
  729MOL0     C98345   2.781   1.258  10.628  0.1499  0.6659  0.4395
  729MOL0     C98346   3.226   1.131  10.077 -0.4642 -0.2311  0.2155
  729MOL0     C98347   3.244   1.132   9.936 -0.4189 -0.2308 -0.8891
  729MOL0     H98348   3.239   1.264   9.477  1.3758 -0.2766  1.2152
  729MOL0     H98349   3.217   1.223   9.232  3.6277  1.1616  0.5445
  729MOL0     H98350   3.321   1.071   9.040  2.6287 -0.5510  2.5893
  729MOL0     H98351   3.358   0.925   9.117  0.9833 -0.3028 -1.2259
  729MOL0     H98352   3.324   0.922   8.846 -1.0304 -0.4148 -1.5384
  729MOL0     H98353   3.316   0.782   8.941  0.5994  1.0681 -2.6776
  729MOL0     H98354   3.075   0.794   8.970 -0.6066  0.9899  0.8656
  729MOL0     H98355   3.072   0.951   8.908 -0.3455  0.2646  1.1855
  729MOL0     H98356   3.145   0.858   8.678 -3.5052 -2.3539 -0.8176
  729MOL0     H98357   3.182   0.703   8.766  0.4397 -0.9402  0.6836
  729MOL0     H98358   2.921   0.707   8.824  0.2279 -1.0627  0.1721
  729MOL0     H98359   2.920   0.843   8.705  2.5292  1.9451  2.1838
  729MOL0     H98360   2.990   0.688   8.530 -0.3904  0.1562 -0.7801
  729MOL0     H98361   3.037   0.572   8.642  0.0310 -0.0602 -3.1836
  729MOL0     H98362   2.817   0.482   8.600 -0.0972  0.8217 -3.3095
  729MOL0     H98363   2.748   0.609   8.702 -0.4610  0.7505  0.0502
  729MOL0     H98364   2.800   0.625   8.410  0.3856 -1.5890  0.3389
  729MOL0     H98365   2.739   0.759   8.514 -0.5079 -0.1360  0.6375
  729MOL0     H98366   2.473   0.741   8.557 -0.1964 -1.5808  2.3099
  729MOL0     H98367   2.185   0.504   8.428  0.4475 -0.2295 -2.6329
  729MOL0     H98368   2.189   0.631   8.550 -0.5479 -2.1016  0.5116
  729MOL0     H98369   2.205   0.803   8.378 -0.9424  1.3704 -1.3749
  729MOL0     H98370   2.077   0.688   8.341 -0.1067 -4.1934  4.0801
  729MOL0     H98371   2.342   0.665   8.211  0.4541 -1.6329  2.4766
  729MOL0     H98372   2.198   0.760   8.150 -0.2568  0.8756  1.4288
  729MOL0     H98373   2.060   0.556   8.164  1.0909 -0.1788  1.3254
  729MOL0     H98374   2.203   0.456   8.158  2.8595  0.4787  2.0980
  729MOL0     H98375   2.415   0.487   8.099 -0.5461  1.1069  1.1122
  729MOL0     H98376   2.730   0.410   7.953 -1.7173  0.2576 -1.1301
  729MOL0     H98377   2.715   0.563   8.032  0.9044 -0.5645 -0.3543
  729MOL0     H98378   2.629   0.418   8.100 -2.1761  0.3695  0.1287
  729MOL0     H98379   2.863   0.391   7.546 -3.0311 -0.4961 -0.9897
  729MOL0     H98380   3.030   0.416   7.355 -0.7473 -1.2585  0.0217
  729MOL0     H98381   2.991   0.762   7.066 -1.4135  0.1281  2.4175
  729MOL0     H98382   3.135   0.810   7.155  2.0669 -0.7790 -1.3898
  729MOL0     H98383   3.256   0.604   7.073  0.8320  0.8287  1.4926
  729MOL0     H98384   3.120   0.565   6.985  1.1683 -0.9729  1.8477
  729MOL0     H98385   3.298   0.824   6.956  2.7878 -0.2467 -3.0976
  729MOL0     H98386   3.138   0.811   6.873 -0.0802  0.7912 -2.3883
  729MOL0     H98387   3.385   0.634   6.811 -1.5795 -0.5152 -0.8552
  729MOL0     H98388   3.240   0.633   6.728  1.6906 -1.8668  0.2385
  729MOL0     H98389   3.438   0.855   6.762  0.6674 -1.3756  0.8871
  729MOL0     H98390   3.288   0.872   6.660 -1.1008 -0.4224  1.5892
  729MOL0     H98391   3.454   0.638   6.595  1.1002  0.1597  0.0902
  729MOL0     H98392   3.370   0.744   6.478  1.5107  1.2889  0.1893
  729MOL0     H98393   3.638   0.821   6.602  3.9286 -2.1587 -1.7612
  729MOL0     H98394   3.541   0.903   6.471 -1.8146 -1.2585 -1.9045
  729MOL0     H98395   3.535   0.669   6.367  1.4322  1.7800 -2.2347
  729MOL0     H98396   3.684   0.630   6.452 -3.9422 -2.9925  1.9852
  729MOL0     H98397   2.859   0.786   7.238  2.3777  0.3667  0.4233
  729MOL0     H98398   2.698   0.779   7.398  1.6574  1.4729  2.1388
  729MOL0     H98399   2.422   0.606   7.621  1.3493 -1.7981 -0.8989
  729MOL0     H98400   2.202   0.617   7.766  0.3867 -2.4010 -0.7046
  729MOL0     H98401   3.161   0.799   9.323  0.7952 -0.1033  0.6486
  729MOL0     H98402   3.232   0.851   9.566  1.8365 -2.3084 -2.5628
  729MOL0     H98403   3.532   0.956   9.917  1.4316 -0.1823  3.1977
  729MOL0     H98404   3.519   0.973  10.167 -0.6195  1.7507  1.5082
  729MOL0     H98405   3.146   1.182  10.317  1.5448 -0.0532 -3.5971
  729MOL0     H98406   3.123   1.006  10.334  1.8779 -1.6361  0.2638
  729MOL0     H98407   3.324   1.138  10.525  0.7705 -2.4135  1.4415
  729MOL0     H98408   3.237   0.988  10.535  1.9746 -0.1748 -0.8543
  729MOL0     H98409   3.101   1.277  10.524  1.6188 -0.7486 -0.9474
  729MOL0     H98410   3.125   1.189  10.675 -1.4449 -2.4974  0.4786
  729MOL0     H98411   2.988   1.009  10.605 -0.3944 -1.2195 -0.9470
  729MOL0     H98412   2.966   1.078  10.454 -0.7241 -0.3833  0.2348
  729MOL0     H98413   2.701   1.329  10.626 -1.8602 -1.4497  1.1190
  729MOL0     H98414   3.139   1.190  10.104  0.1587  0.1318  1.5363
  729MOL0     H98415   3.190   1.194   9.866  0.5992  0.5997 -0.9710
  730MOL0     O98416   4.653   9.452   7.213 -0.3301  1.1211  0.0990
  730MOL0     C98417   4.613   9.332   7.194  0.1117  0.1994  0.4328
  730MOL0     O98418   4.577   9.236   7.294 -0.3761 -0.8834  0.0614
  730MOL0     C98419   4.594   9.291   7.417  0.6079  0.1238  0.0276
  730MOL0     C98420   4.704   9.255   7.496 -0.6849 -0.5278  0.7639
  730MOL0     C98421   4.734   9.321   7.612 -0.7527 -0.0480 -0.8328
  730MOL0     C98422   4.652   9.427   7.648  0.2604 -0.1670  0.0629
  730MOL0     O98423   4.703   9.506   7.746 -0.2268 -0.3463  0.6202
  730MOL0     C98424   4.616   9.545   7.846  0.4208  0.0667  0.1079
  730MOL0     C98425   4.686   9.520   7.987  0.6015  0.4361  0.2837
  730MOL0     C98426   4.718   9.361   7.994 -0.1725  0.2688 -0.5257
  730MOL0     C98427   4.720   9.305   8.138 -0.5357  0.7851  0.0607
  730MOL0     C98428   4.790   9.171   8.143 -1.0461  0.2788  0.1347
  730MOL0     C98429   4.948   9.198   8.133  0.0682  0.3942  0.0044
  730MOL0     C98430   5.013   9.202   8.275 -0.4261 -0.5235  0.2183
  730MOL0     C98431   5.160   9.257   8.260 -0.0656  0.6145 -0.3829
  730MOL0     N98432   5.238   9.200   8.150 -0.4476  0.4769  0.0697
  730MOL0     C98433   5.293   9.074   8.148  0.4378 -0.0829  0.2703
  730MOL0     C98434   5.358   9.077   8.030  0.0143  0.6321 -1.0360
  730MOL0     C98435   5.437   8.968   7.981 -0.1372  0.2219 -0.0686
  730MOL0     C98436   5.376   8.891   7.857 -0.0316  0.3924  0.1248
  730MOL0     C98437   5.252   8.818   7.889 -0.8430  0.1186  0.1366
  730MOL0     C98438   5.181   8.720   7.799 -0.2174 -0.7092  0.7339
  730MOL0     O98439   5.108   8.773   7.689 -0.3776 -0.0884 -0.0081
  730MOL0     C98440   4.972   8.801   7.711  0.6631  0.4281 -0.0591
  730MOL0     C98441   4.884   8.703   7.668  0.6372  0.3895  0.0040
  730MOL0     C98442   4.744   8.726   7.674 -0.0641  0.2588  0.0726
  730MOL0     C98443   4.653   8.611   7.640  0.0319 -0.0647 -0.7106
  730MOL0     C98444   4.695   8.851   7.720  1.6607 -0.3875 -0.8558
  730MOL0     C98445   4.543   8.891   7.737  0.5264  0.9906  0.0824
  730MOL0     O98446   4.514   9.022   7.760 -0.5239  1.3650 -0.1521
  730MOL0     C98447   4.389   9.034   7.809 -0.4664 -0.0514  0.4953
  730MOL0     C98448   4.357   9.023   7.945 -0.0355 -0.2148  0.2112
  730MOL0     C98449   4.227   9.070   7.995 -0.5676 -0.8996 -0.1318
  730MOL0     C98450   4.145   9.135   7.911  0.0690 -0.5141 -0.7522
  730MOL0     O98451   4.034   9.204   7.960  0.2389 -0.1688  0.0218
  730MOL0     C98452   4.023   9.247   8.097  0.4949 -1.1473  0.0424
  730MOL0     C98453   4.052   9.390   8.106 -0.2645  0.1886 -0.5609
  730MOL0     C98454   3.926   9.464   8.047  0.3517  1.5709 -0.5966
  730MOL0     C98455   3.950   9.610   8.024 -0.7547 -0.4358 -0.9281
  730MOL0     C98456   3.827   9.682   7.954  0.1654  0.1960 -0.1365
  730MOL0     C98457   3.854   9.756   7.828  0.4469  0.1609 -1.0335
  730MOL0     C98458   3.896   9.659   7.703  0.3540 -0.0137 -0.1311
  730MOL0     C98459   3.777   9.556   7.677 -0.2048  0.2866 -0.2923
  730MOL0    Cl98460   3.804   9.493   7.499 -0.1353  0.2831  0.1550
  730MOL0     C98461   4.176   9.150   7.774 -0.8942 -0.2036 -0.3277
  730MOL0     C98462   4.303   9.111   7.723  0.2793  0.4970 -0.3281
  730MOL0     O98463   4.457   8.802   7.712  0.3636 -0.5304 -0.4733
  730MOL0     C98464   4.793   8.954   7.756  0.2918  0.0923 -0.1777
  730MOL0     C98465   4.926   8.931   7.748 -0.0810  0.2448  0.8384
  730MOL0     N98466   5.342   9.198   7.963 -0.7145  0.5460  0.2231
  730MOL0     N98467   5.282   9.278   8.042  0.6144  0.6820 -1.7024
  730MOL0     C98468   4.542   9.463   7.568  0.6986 -0.4125 -0.7261
  730MOL0     C98469   4.513   9.392   7.455 -0.2544 -1.3316  0.6489
  730MOL0     C98470   4.606   9.295   7.045 -0.8786 -0.2529  0.0279
  730MOL0     C98471   4.643   9.385   6.941  0.9568 -0.9517 -0.0190
  730MOL0     C98472   4.646   9.343   6.806  0.5143  1.2430  0.0080
  730MOL0     C98473   4.613   9.209   6.773  0.4465 -0.4583 -0.2715
  730MOL0     O98474   4.624   9.164   6.647  0.1497  0.0450  0.4004
  730MOL0     C98475   4.500   9.110   6.610 -0.0450  0.0189  0.8591
  730MOL0     C98476   4.501   9.070   6.455  0.1081  0.5040  0.2532
  730MOL0     C98477   4.370   9.008   6.398 -1.0269 -0.2268  0.1272
  730MOL0     C98478   4.308   8.897   6.489 -0.6995  0.3926  0.0694
  730MOL0     C98479   4.390   8.785   6.497  0.2311 -0.5092  1.0855
  730MOL0     C98480   4.449   8.676   6.516  1.0275  0.4305  0.2692
  730MOL0     C98481   4.590   9.123   6.883  0.8646  0.4600 -0.1861
  730MOL0     C98482   4.579   9.166   7.013 -0.3236  0.1040  0.5011
  730MOL0     H98483   4.771   9.178   7.460 -0.4956  0.5249 -1.2446
  730MOL0     H98484   4.815   9.275   7.667 -0.6079 -0.2885 -1.2426
  730MOL0     H98485   4.605   9.652   7.824  0.4012 -0.0113 -0.2626
  730MOL0     H98486   4.520   9.492   7.847  0.2515  0.2744 -1.9216
  730MOL0     H98487   4.778   9.579   7.997  2.0980 -1.3087 -2.0721
  730MOL0     H98488   4.616   9.552   8.065 -2.7218 -1.4737 -1.6557
  730MOL0     H98489   4.646   9.297   7.941  2.0754 -0.0004 -3.5196
  730MOL0     H98490   4.815   9.360   7.944 -1.0799 -0.1698 -2.3812
  730MOL0     H98491   4.775   9.381   8.194  0.8049  0.2808 -0.5306
  730MOL0     H98492   4.616   9.306   8.173 -0.4155  1.6715  0.4145
  730MOL0     H98493   4.782   9.122   8.241  6.6166  1.0769  1.8019
  730MOL0     H98494   4.752   9.110   8.060 -1.8448  2.3256 -1.0733
  730MOL0     H98495   4.994   9.131   8.060 -3.2700 -1.0769 -0.9463
  730MOL0     H98496   4.957   9.295   8.083  0.6489 -0.1685 -1.0364
  730MOL0     H98497   4.947   9.272   8.327 -0.9889  1.1127 -2.4885
  730MOL0     H98498   5.012   9.102   8.320  0.9577 -0.5315  0.2488
  730MOL0     H98499   5.218   9.244   8.351 -3.2857 -2.2277  1.4961
  730MOL0     H98500   5.163   9.364   8.238 -0.0367  0.4485 -1.2446
  730MOL0     H98501   5.297   8.999   8.226  3.6449 -0.0104  0.2824
  730MOL0     H98502   5.530   9.003   7.936 -0.6022  0.3349 -0.9547
  730MOL0     H98503   5.465   8.913   8.071  3.2252  1.8235  0.0254
  730MOL0     H98504   5.458   8.825   7.826  1.1132  1.0326  1.6448
  730MOL0     H98505   5.350   8.955   7.772 -0.0528 -0.3871 -0.4657
  730MOL0     H98506   5.182   8.902   7.900  1.8889  2.6114 -0.0908
  730MOL0     H98507   5.247   8.772   7.988 -0.1124 -0.9391 -0.3052
  730MOL0     H98508   5.111   8.672   7.868 -1.8676  2.6812  1.5886
  730MOL0     H98509   5.270   8.662   7.770  0.0462  0.2787 -0.4899
  730MOL0     H98510   4.929   8.604   7.665  3.5635  1.4774  2.4809
  730MOL0     H98511   4.704   8.543   7.572 -0.1951 -2.0119  0.9761
  730MOL0     H98512   4.622   8.561   7.732  0.7157  2.4412  0.9934
  730MOL0     H98513   4.558   8.638   7.594 -1.7658 -2.8721  1.0698
  730MOL0     H98514   4.427   8.965   8.005 -1.7341 -0.0717  2.5023
  730MOL0     H98515   4.210   9.062   8.102 -2.3503 -4.5768 -0.5432
  730MOL0     H98516   3.925   9.230   8.142 -1.0133  3.3196 -1.0385
  730MOL0     H98517   4.099   9.203   8.162  1.2923 -0.2704 -0.2662
  730MOL0     H98518   4.049   9.425   8.209  4.4136  2.1882 -0.8409
  730MOL0     H98519   4.150   9.412   8.062  0.3765 -3.1936 -1.1028
  730MOL0     H98520   3.838   9.448   8.110  3.7728  0.4543  4.4592
  730MOL0     H98521   3.905   9.420   7.949 -1.8839  0.4627  0.3014
  730MOL0     H98522   3.960   9.661   8.120 -1.4595 -1.0264 -0.5251
  730MOL0     H98523   4.042   9.629   7.969 -0.2096  2.5509  0.7939
  730MOL0     H98524   3.788   9.757   8.024 -0.8376  0.1619 -0.6584
  730MOL0     H98525   3.755   9.603   7.934 -0.3732 -0.9083  4.7753
  730MOL0     H98526   3.760   9.808   7.806  1.3386  2.6517  0.5826
  730MOL0     H98527   3.941   9.819   7.849 -0.1962  0.6137  0.3718
  730MOL0     H98528   3.989   9.612   7.734  0.3552 -0.9734 -1.4895
  730MOL0     H98529   3.907   9.728   7.619  2.6549 -1.1158 -0.8226
  730MOL0     H98530   3.676   9.597   7.684 -0.5288 -0.2515 -1.5362
  730MOL0     H98531   3.792   9.475   7.750  1.4088 -1.4563 -2.4399
  730MOL0     H98532   4.098   9.199   7.718 -0.7954 -2.0000 -2.1332
  730MOL0     H98533   4.313   9.113   7.615 -5.8462  3.1411 -1.2294
  730MOL0     H98534   4.757   9.053   7.783  0.9913  0.3923 -0.3030
  730MOL0     H98535   4.999   9.010   7.763 -0.6016  1.0385 -0.6073
  730MOL0     H98536   4.469   9.539   7.594  1.4711 -0.7231  2.7391
  730MOL0     H98537   4.432   9.423   7.390  2.3142 -0.8403 -2.5649
  730MOL0     H98538   4.659   9.489   6.968  2.2805 -0.5970 -1.9852
  730MOL0     H98539   4.669   9.420   6.732 -2.2708  0.8293 -1.4392
  730MOL0     H98540   4.479   9.015   6.659  2.6021 -1.2022 -0.1695
  730MOL0     H98541   4.417   9.177   6.635 -1.6515 -1.1560 -1.0613
  730MOL0     H98542   4.576   8.991   6.452  0.2783  0.5720  1.9190
  730MOL0     H98543   4.535   9.156   6.397  1.1828  2.4461  3.4762
  730MOL0     H98544   4.402   8.970   6.301 -0.9469 -0.6809  0.3312
  730MOL0     H98545   4.307   9.098   6.390 -0.4997  0.1006 -0.4763
  730MOL0     H98546   4.211   8.861   6.453 -0.4491 -1.2112  0.8876
  730MOL0     H98547   4.292   8.922   6.594 -1.9611  0.9817 -0.2421
  730MOL0     H98548   4.502   8.583   6.516 -3.6120 -2.5973  2.3478
  730MOL0     H98549   4.568   9.019   6.862 -0.2550  0.4223  1.0906
  730MOL0     H98550   4.534   9.099   7.086  1.8825 -3.1517 -0.8996
  731MOL0     O98551  10.437   9.833   0.745 -0.3611  0.1788  0.0695
  731MOL0     C98552  10.454   9.820   0.865 -0.2212 -0.8895 -0.1785
  731MOL0     O98553  10.411   9.723   0.945 -0.1788 -0.4519  0.6878
  731MOL0     C98554  10.352   9.620   0.874  0.2436 -0.6347 -0.2152
  731MOL0     C98555  10.211   9.609   0.877  0.4276  0.0170  0.9103
  731MOL0     C98556  10.154   9.517   0.787  0.1016 -1.6326 -0.3756
  731MOL0     C98557  10.234   9.428   0.718  0.7606 -0.3190 -1.0335
  731MOL0     O98558  10.184   9.320   0.650 -0.6938 -0.4918  0.0476
  731MOL0     C98559  10.050   9.332   0.594 -0.7565  0.7114 -0.0034
  731MOL0     C98560  10.053   9.447   0.493  0.4420  0.0878 -0.8303
  731MOL0     C98561  10.129   9.414   0.365  0.1087  0.0482  0.5092
  731MOL0     C98562  10.145   9.544   0.283  0.1398 -0.2654  1.4062
  731MOL0     C98563  10.003   9.580   0.225  0.4733 -0.5619  0.5405
  731MOL0     C98564  10.006   9.656   0.090 -0.0368  0.3807  0.2739
  731MOL0     C98565   9.868   9.666   0.020 -0.1377  0.2149  0.0947
  731MOL0     C98566   9.876   9.749  -0.097  0.9239 -0.3203  0.3238
  731MOL0     N98567   9.971   9.688  -0.197  0.0648  0.3386  0.2299
  731MOL0     C98568   9.943   9.569  -0.268  0.0173 -1.4408  0.5083
  731MOL0     C98569  10.067   9.544  -0.325 -0.2889  0.5666 -0.1976
  731MOL0     C98570  10.102   9.414  -0.395 -0.2338  0.2868 -0.0548
  731MOL0     C98571  10.216   9.415  -0.506 -0.6260 -1.5495  0.8203
  731MOL0     C98572  10.150   9.420  -0.642  0.7768 -0.3738 -0.0550
  731MOL0     C98573  10.249   9.431  -0.756  0.6734  0.6892  0.5491
  731MOL0     O98574  10.185   9.458  -0.884  0.0043 -0.3774  0.4976
  731MOL0     C98575  10.173   9.385  -0.994  0.1960 -0.3359  0.5662
  731MOL0     C98576  10.108   9.435  -1.108  0.8216 -0.1168 -1.2457
  731MOL0     C98577  10.073   9.355  -1.211 -0.3517  0.2591  0.2066
  731MOL0     C98578   9.993   9.407  -1.324  0.0684 -0.1598 -0.6913
  731MOL0     C98579  10.112   9.217  -1.212  0.5432  0.1750  0.4462
  731MOL0     C98580  10.074   9.112  -1.307 -0.2013 -0.2675  0.1707
  731MOL0     O98581  10.066   8.986  -1.265 -0.0755 -0.0060  0.6456
  731MOL0     C98582  10.012   8.890  -1.343  0.7049  0.3144  0.1866
  731MOL0     C98583  10.100   8.782  -1.369  0.3357  0.0862 -0.1794
  731MOL0     C98584  10.067   8.673  -1.449  0.1652 -0.3917 -0.0597
  731MOL0     C98585   9.934   8.667  -1.487  0.3276  0.0263 -0.1704
  731MOL0     O98586   9.903   8.561  -1.575  0.2083  0.8876 -0.0313
  731MOL0     C98587   9.760   8.539  -1.608  0.1462 -0.3551 -0.8034
  731MOL0     C98588   9.757   8.417  -1.695  0.3120  0.1795 -0.2015
  731MOL0     C98589   9.816   8.296  -1.628  0.0553 -0.1634 -0.2541
  731MOL0     C98590   9.790   8.174  -1.720 -0.7028 -0.1172 -0.1889
  731MOL0     C98591   9.853   8.050  -1.646 -0.0893  0.4468 -0.0723
  731MOL0     C98592   9.829   7.915  -1.720  1.3290 -0.4269  0.0619
  731MOL0     C98593   9.886   7.794  -1.641  0.4007 -0.3002  0.3960
  731MOL0     C98594   9.812   7.762  -1.515  0.7843  0.2073 -0.2381
  731MOL0    Cl98595   9.645   7.710  -1.561 -0.4677 -0.0402 -0.2315
  731MOL0     C98596   9.848   8.779  -1.475  0.0195 -0.2219  0.4960
  731MOL0     C98597   9.880   8.889  -1.398  0.1309  0.2270 -1.1062
  731MOL0     O98598  10.046   9.152  -1.415 -0.1596  0.3074  0.3169
  731MOL0     C98599  10.187   9.165  -1.103  0.1376 -0.5434 -0.8447
  731MOL0     C98600  10.218   9.251  -0.999  0.7180  0.4393  0.4065
  731MOL0     N98601  10.159   9.648  -0.293  0.8495 -0.0668  0.0126
  731MOL0     N98602  10.096   9.733  -0.222  0.0930 -0.6572 -0.6217
  731MOL0     C98603  10.367   9.446   0.718 -0.0560  0.3366 -0.1229
  731MOL0     C98604  10.435   9.532   0.804  0.1382  0.6943 -0.2074
  731MOL0     C98605  10.530   9.928   0.941 -0.3672 -0.4537  0.6353
  731MOL0     C98606  10.532   9.922   1.082  0.2641  0.0218  0.5127
  731MOL0     C98607  10.592  10.024   1.153 -0.1943  0.6382  0.2768
  731MOL0     C98608  10.645  10.132   1.084  0.4210 -0.7798  0.7377
  731MOL0     O98609  10.689  10.245   1.159 -0.4420  0.3006  0.6273
  731MOL0     C98610  10.715  10.228   1.300 -0.5150  0.5835  0.3493
  731MOL0     C98611  10.817  10.331   1.350 -0.8983  0.1255 -0.0087
  731MOL0     C98612  10.826  10.335   1.504 -0.0934  0.4591 -0.1288
  731MOL0     C98613  10.918  10.437   1.576  0.6086  0.5215 -0.6953
  731MOL0     C98614  10.868  10.574   1.579 -0.0920  0.8136 -0.2345
  731MOL0     C98615  10.824  10.684   1.568 -0.1948 -0.6812 -0.7397
  731MOL0     C98616  10.650  10.137   0.943  0.4227 -0.3531  0.0665
  731MOL0     C98617  10.592  10.036   0.870 -0.8569  0.1551 -0.6110
  731MOL0     H98618  10.172   9.683   0.945  0.1604 -1.1128  2.0234
  731MOL0     H98619  10.046   9.509   0.791  0.0202 -2.7885 -3.1372
  731MOL0     H98620  10.009   9.244   0.543  4.1569 -1.2310 -1.2238
  731MOL0     H98621   9.974   9.350   0.670 -0.5889  3.6468 -0.4116
  731MOL0     H98622   9.954   9.472   0.455 -0.3488 -1.0210  0.3913
  731MOL0     H98623  10.090   9.539   0.540 -3.9728  1.1988  1.0172
  731MOL0     H98624  10.230   9.375   0.377 -0.4274 -1.5388  0.1953
  731MOL0     H98625  10.070   9.344   0.303 -1.0446  2.3977 -1.2085
  731MOL0     H98626  10.173   9.636   0.336  0.2685 -0.2400  1.2940
  731MOL0     H98627  10.214   9.543   0.198  1.2774  2.7595  2.1621
  731MOL0     H98628   9.947   9.488   0.205  2.5240 -1.2089 -3.2099
  731MOL0     H98629   9.937   9.637   0.291  2.3392 -0.4918  2.4639
  731MOL0     H98630  10.057   9.752   0.107 -1.1662  0.6017  2.9171
  731MOL0     H98631  10.066   9.596   0.022  2.1639  1.7349  0.9154
  731MOL0     H98632   9.843   9.567  -0.018 -1.4015  0.2854  0.7116
  731MOL0     H98633   9.787   9.693   0.088  0.2219  4.0927 -0.8047
  731MOL0     H98634   9.907   9.850  -0.070  0.5367  0.2490 -1.2603
  731MOL0     H98635   9.779   9.752  -0.146  0.6368 -0.1267  0.8981
  731MOL0     H98636   9.844   9.524  -0.274 -1.5963  1.9245 -0.1116
  731MOL0     H98637  10.127   9.349  -0.310 -1.4979 -4.2867 -2.7889
  731MOL0     H98638  10.019   9.359  -0.441 -1.5746  3.2027 -1.3451
  731MOL0     H98639  10.276   9.323  -0.502  1.5661 -0.2863 -0.6547
  731MOL0     H98640  10.289   9.495  -0.488 -3.0247  1.6741 -2.4177
  731MOL0     H98641  10.088   9.510  -0.634  1.1661 -0.2716  3.7596
  731MOL0     H98642  10.082   9.335  -0.651  0.3813 -0.4739  2.9874
  731MOL0     H98643  10.304   9.336  -0.754 -1.2210 -0.4388  2.0116
  731MOL0     H98644  10.319   9.511  -0.730 -0.2480  1.5323  0.4973
  731MOL0     H98645  10.062   9.533  -1.104  0.0402 -0.4875 -0.5519
  731MOL0     H98646  10.066   9.420  -1.405  0.8334 -2.2957 -0.4052
  731MOL0     H98647   9.918   9.335  -1.357  0.2155  0.1614 -1.7677
  731MOL0     H98648   9.948   9.506  -1.310 -0.5728 -0.2934 -1.7178
  731MOL0     H98649  10.204   8.790  -1.338  0.2845 -2.7638  0.9635
  731MOL0     H98650  10.130   8.586  -1.462 -2.6167 -2.7065  0.9215
  731MOL0     H98651   9.701   8.514  -1.519  1.5043 -1.7180 -0.2340
  731MOL0     H98652   9.730   8.628  -1.663 -0.2202  1.2365  1.8131
  731MOL0     H98653   9.652   8.400  -1.721 -0.1466  2.4499  0.0147
  731MOL0     H98654   9.820   8.426  -1.785  2.2538 -1.4400  0.9095
  731MOL0     H98655   9.787   8.295  -1.522  0.9215  0.6940  0.0107
  731MOL0     H98656   9.924   8.310  -1.623  0.4543 -3.1038  1.3383
  731MOL0     H98657   9.682   8.170  -1.736 -0.7437  0.3502 -0.0145
  731MOL0     H98658   9.839   8.197  -1.815 -0.9881  2.1000  0.1670
  731MOL0     H98659   9.810   8.036  -1.546  1.6673  1.1760  0.8123
  731MOL0     H98660   9.961   8.062  -1.639 -0.0790  1.9434 -1.9524
  731MOL0     H98661   9.720   7.914  -1.719  1.3002  1.0721  0.0418
  731MOL0     H98662   9.862   7.912  -1.825 -2.4260  1.7766 -1.3782
  731MOL0     H98663   9.995   7.801  -1.637  0.6831 -2.1118 -1.8573
  731MOL0     H98664   9.865   7.712  -1.710  2.6582 -2.4076  2.0504
  731MOL0     H98665   9.822   7.844  -1.444 -1.3902 -0.5591  1.0580
  731MOL0     H98666   9.863   7.687  -1.452  1.3680  3.3340  3.3793
  731MOL0     H98667   9.753   8.780  -1.527 -0.1824  1.6270  0.8279
  731MOL0     H98668   9.825   8.981  -1.383 -1.4816 -0.5101 -2.2505
  731MOL0     H98669  10.216   9.061  -1.095 -0.0556 -0.5888 -0.7222
  731MOL0     H98670  10.261   9.208  -0.908 -0.0416 -1.4772 -0.0966
  731MOL0     H98671  10.421   9.381   0.650 -0.2687 -2.1478  1.9165
  731MOL0     H98672  10.543   9.535   0.812  0.2525 -1.5831 -0.1975
  731MOL0     H98673  10.496   9.833   1.133  0.4359 -1.7357 -2.2087
  731MOL0     H98674  10.572  10.026   1.259 -2.2136  1.1509 -0.0609
  731MOL0     H98675  10.622  10.241   1.356 -1.3578  1.3442 -1.1535
  731MOL0     H98676  10.749  10.128   1.327  2.2029  1.1256 -0.7703
  731MOL0     H98677  10.802  10.436   1.322  2.4723  1.0352  1.1462
  731MOL0     H98678  10.905  10.299   1.295 -0.1235 -2.5057  2.5153
  731MOL0     H98679  10.860  10.232   1.524 -3.3461 -0.6590  0.2372
  731MOL0     H98680  10.731  10.333   1.557  0.2915  0.3313  0.5756
  731MOL0     H98681  11.009  10.413   1.521  0.1013 -2.5515 -0.3605
  731MOL0     H98682  10.932  10.394   1.675 -0.5881 -0.1204 -0.7846
  731MOL0     H98683  10.798  10.781   1.530  0.1121  0.4697  1.7954
  731MOL0     H98684  10.698  10.212   0.881  2.0151  0.5700  2.2580
  731MOL0     H98685  10.595  10.025   0.762 -0.4016  0.5074 -0.6375
  732MOL0     O98686  10.534   5.501  11.115  0.5270 -0.1135 -0.7286
  732MOL0     C98687  10.589   5.391  11.119 -0.8252  0.1212  0.5078
  732MOL0     O98688  10.528   5.266  11.107 -0.2024 -0.2472 -0.3707
  732MOL0     C98689  10.391   5.246  11.139 -0.8119  0.9203  0.4372
  732MOL0     C98690  10.302   5.338  11.190  0.4445 -0.5722 -0.6493
  732MOL0     C98691  10.167   5.308  11.200 -0.3154  0.5518 -0.3314
  732MOL0     C98692  10.120   5.184  11.173 -0.1237  0.0398  0.3331
  732MOL0     O98693   9.994   5.150  11.209  1.1847 -0.1292  0.1998
  732MOL0     C98694   9.924   5.205  11.323  0.6341  0.3863  0.8515
  732MOL0     C98695   9.778   5.157  11.321 -0.5755  0.1260 -0.3105
  732MOL0     C98696   9.710   5.163  11.187 -0.4960  0.3986  0.3139
  732MOL0     C98697   9.568   5.108  11.197  0.8815  0.0341 -0.3686
  732MOL0     C98698   9.487   5.186  11.089 -0.6023 -0.8022 -0.2603
  732MOL0     C98699   9.509   5.141  10.947  0.2037  0.9387 -0.0444
  732MOL0     C98700   9.431   5.007  10.909  0.3351  0.3250  0.8068
  732MOL0     C98701   9.296   5.021  10.860  0.3559 -0.3408  0.2053
  732MOL0     N98702   9.243   4.902  10.799 -0.0100  0.0069  0.5484
  732MOL0     C98703   9.249   4.856  10.668  0.4959  0.2884  0.8067
  732MOL0     C98704   9.193   4.735  10.666  0.1605 -0.3497 -0.3621
  732MOL0     C98705   9.190   4.651  10.545 -0.1478  0.2631  0.6612
  732MOL0     C98706   9.125   4.504  10.556  0.1345 -0.6427  0.9699
  732MOL0     C98707   9.139   4.438  10.427  0.2009 -0.2102  0.0431
  732MOL0     C98708   9.033   4.471  10.314  0.0874  0.9147 -0.2208
  732MOL0     O98709   8.900   4.448  10.369  0.7206  0.0291  0.7171
  732MOL0     C98710   8.794   4.454  10.286  0.8246 -0.0421  0.0263
  732MOL0     C98711   8.814   4.468  10.143  0.0578  0.2665 -0.1147
  732MOL0     C98712   8.708   4.464  10.049  0.1186  0.3414 -0.0809
  732MOL0     C98713   8.756   4.457   9.907 -0.5827 -0.1509 -0.9252
  732MOL0     C98714   8.580   4.439  10.098  0.2209 -0.3176  0.5475
  732MOL0     C98715   8.458   4.420  10.013  0.2888 -0.2074  0.2101
  732MOL0     O98716   8.366   4.336  10.062 -0.3363 -0.6636 -0.1451
  732MOL0     C98717   8.249   4.297   9.990  0.3321  0.1972 -0.4577
  732MOL0     C98718   8.233   4.306   9.860  0.2597  1.4326  0.8459
  732MOL0     C98719   8.104   4.292   9.795 -0.0450  0.1391  0.1098
  732MOL0     C98720   7.991   4.257   9.865  0.1841 -0.0108  0.5131
  732MOL0     O98721   7.877   4.234   9.789 -0.0035 -0.0928  0.3216
  732MOL0     C98722   7.759   4.291   9.858  0.1408 -0.4475 -0.1819
  732MOL0     C98723   7.673   4.363   9.762  0.3448  0.0843  0.0359
  732MOL0     C98724   7.732   4.489   9.709  0.2659 -0.1625  0.3368
  732MOL0     C98725   7.701   4.613   9.782 -0.1082  0.6078 -0.2519
  732MOL0     C98726   7.754   4.738   9.722 -0.1739 -0.6401 -0.5894
  732MOL0     C98727   7.697   4.792   9.597  0.1691  0.3271 -0.4227
  732MOL0     C98728   7.788   4.763   9.478 -0.6221 -0.0870  0.6791
  732MOL0     C98729   7.763   4.839   9.350  0.3379 -0.5194  0.4787
  732MOL0    Cl98730   7.776   5.021   9.370 -0.3467  0.0697  0.4139
  732MOL0     C98731   8.011   4.240  10.005  0.8216 -0.0787 -0.6604
  732MOL0     C98732   8.140   4.262  10.066 -0.7063  0.3900  0.8384
  732MOL0     O98733   8.449   4.489   9.915 -0.1649 -0.1957  0.3745
  732MOL0     C98734   8.555   4.426  10.242 -0.3640 -0.2829 -0.2702
  732MOL0     C98735   8.666   4.438  10.333 -0.7468  0.2405  0.0206
  732MOL0     N98736   9.153   4.703  10.795 -0.5464 -0.2743  0.4146
  732MOL0     N98737   9.178   4.806  10.872 -0.3733  0.7544 -0.1876
  732MOL0     C98738  10.202   5.095  11.124  0.2902 -0.2294 -0.2538
  732MOL0     C98739  10.339   5.120  11.104  0.2765  0.0672 -0.1465
  732MOL0     C98740  10.739   5.382  11.108  1.0007  0.6849  1.1211
  732MOL0     C98741  10.816   5.499  11.125  0.6857 -0.2111  0.2182
  732MOL0     C98742  10.956   5.494  11.116 -0.0527  0.9085  0.1190
  732MOL0     C98743  11.021   5.368  11.101  0.1629  0.2046  0.2885
  732MOL0     O98744  11.157   5.341  11.100  0.6052 -0.6244  0.6104
  732MOL0     C98745  11.231   5.451  11.165  0.2764 -1.1492  0.4348
  732MOL0     C98746  11.380   5.431  11.173 -0.8381  0.2700 -0.5730
  732MOL0     C98747  11.410   5.328  11.281 -0.0674  1.1502 -0.9106
  732MOL0     C98748  11.556   5.292  11.264 -0.5896 -0.3438  0.6237
  732MOL0     C98749  11.615   5.248  11.384  0.1594 -0.1069 -0.5944
  732MOL0     C98750  11.648   5.215  11.492  0.7325 -0.1012 -0.0660
  732MOL0     C98751  10.945   5.251  11.095  0.6910  0.2231  0.9433
  732MOL0     C98752  10.801   5.253  11.085 -0.4957 -0.1846  0.6226
  732MOL0     H98753  10.335   5.432  11.232 -2.7746  0.1306  0.5596
  732MOL0     H98754  10.110   5.383  11.254  0.5306  0.5659  0.5755
  732MOL0     H98755   9.973   5.169  11.413 -3.9202 -5.5030  1.5403
  732MOL0     H98756   9.910   5.312  11.338  0.6589  0.7436 -1.3433
  732MOL0     H98757   9.772   5.059  11.368 -1.8114  0.1549 -0.3713
  732MOL0     H98758   9.713   5.215  11.387 -1.1514 -1.9304  1.0156
  732MOL0     H98759   9.723   5.266  11.154  0.6082  0.3464  0.5326
  732MOL0     H98760   9.772   5.100  11.122  0.3804  1.3600  0.1874
  732MOL0     H98761   9.560   4.999  11.190 -0.2378 -0.2776  3.6400
  732MOL0     H98762   9.519   5.119  11.294  2.0765 -1.7983  0.4975
  732MOL0     H98763   9.380   5.191  11.108 -0.4357 -1.7136  1.1186
  732MOL0     H98764   9.535   5.283  11.103  1.2783 -1.7168  0.0504
  732MOL0     H98765   9.472   5.216  10.877 -3.0735 -0.3244  0.1554
  732MOL0     H98766   9.616   5.127  10.930  0.0785 -1.2254  0.6366
  732MOL0     H98767   9.495   4.970  10.829 -0.9979  0.5437 -0.3901
  732MOL0     H98768   9.416   4.937  10.992 -1.0685  1.8839  1.9490
  732MOL0     H98769   9.295   5.101  10.786 -2.9562 -0.2640  0.1907
  732MOL0     H98770   9.229   5.055  10.940 -1.1756  1.7940 -1.8659
  732MOL0     H98771   9.288   4.905  10.579 -0.2962 -1.3749 -0.5069
  732MOL0     H98772   9.133   4.711  10.474  1.1389  3.6488  2.3076
  732MOL0     H98773   9.299   4.650  10.531 -0.0520  0.3988  1.3860
  732MOL0     H98774   9.021   4.499  10.590 -0.2888  1.9511  0.2962
  732MOL0     H98775   9.180   4.453  10.635  0.8747  0.5072  1.2227
  732MOL0     H98776   9.140   4.329  10.441  1.0022 -0.3197 -0.7660
  732MOL0     H98777   9.236   4.449  10.379 -0.5702  2.0514 -1.1603
  732MOL0     H98778   9.041   4.402  10.230 -3.1641  0.8569 -0.6111
  732MOL0     H98779   9.048   4.571  10.272 -1.2886  0.7921 -1.0893
  732MOL0     H98780   8.909   4.491  10.095 -0.7530  4.5422 -0.0597
  732MOL0     H98781   8.831   4.379   9.893 -0.2126  0.2799 -1.3799
  732MOL0     H98782   8.670   4.429   9.844 -2.7168  0.8654  1.3567
  732MOL0     H98783   8.792   4.558   9.885  1.4007 -1.0169 -1.8105
  732MOL0     H98784   8.318   4.320   9.793 -0.3257  0.5394 -0.1131
  732MOL0     H98785   8.092   4.298   9.687 -0.7198 -3.8159 -0.1907
  732MOL0     H98786   7.695   4.210   9.894  0.7139 -0.1393  1.6525
  732MOL0     H98787   7.781   4.359   9.941 -0.1898 -1.4394  0.7426
  732MOL0     H98788   7.656   4.301   9.674  2.6501  3.7360 -3.3137
  732MOL0     H98789   7.580   4.390   9.814 -1.5129 -0.8193 -2.6206
  732MOL0     H98790   7.717   4.499   9.602  1.7425 -1.2209 -0.0020
  732MOL0     H98791   7.841   4.482   9.700  0.1139  0.2473 -3.3328
  732MOL0     H98792   7.592   4.623   9.791  0.0526  1.2382  1.3608
  732MOL0     H98793   7.741   4.608   9.884 -2.4186  2.1009  0.8267
  732MOL0     H98794   7.861   4.720   9.709 -0.2760 -0.8988 -1.1031
  732MOL0     H98795   7.744   4.812   9.802 -1.7521 -2.4337  0.9687
  732MOL0     H98796   7.599   4.747   9.578  0.5278  0.3914 -2.7916
  732MOL0     H98797   7.681   4.900   9.598  2.4608  0.7340 -1.6232
  732MOL0     H98798   7.780   4.657   9.450  0.1426  0.3485 -1.3333
  732MOL0     H98799   7.894   4.776   9.499 -0.0625 -4.1151  1.0950
  732MOL0     H98800   7.664   4.826   9.306  1.1045  0.5408 -1.6920
  732MOL0     H98801   7.834   4.795   9.279  0.3607 -0.6303  0.5688
  732MOL0     H98802   7.934   4.193  10.067  0.2367  1.5526 -0.1043
  732MOL0     H98803   8.153   4.261  10.174  1.3555  3.7048  0.7619
  732MOL0     H98804   8.456   4.418  10.284 -0.8141  0.6543 -1.0982
  732MOL0     H98805   8.657   4.433  10.441 -0.4848  0.2588  0.0442
  732MOL0     H98806  10.160   4.997  11.103  0.8633  0.1626 -3.7923
  732MOL0     H98807  10.412   5.050  11.063  2.4091  1.4071  1.1605
  732MOL0     H98808  10.768   5.595  11.142 -0.6660 -0.7480 -0.4009
  732MOL0     H98809  11.004   5.591  11.119  1.3827  0.1974  1.3112
  732MOL0     H98810  11.231   5.529  11.089 -0.4080 -1.4721  0.0977
  732MOL0     H98811  11.203   5.492  11.262  1.4469  3.7344 -1.0020
  732MOL0     H98812  11.425   5.523  11.208  0.3764 -0.9078  1.0668
  732MOL0     H98813  11.417   5.402  11.074 -0.5992  1.2305 -0.7756
  732MOL0     H98814  11.352   5.235  11.276  0.9893  0.5405 -2.0773
  732MOL0     H98815  11.402   5.380  11.377  0.7646  1.1871 -0.8589
  732MOL0     H98816  11.621   5.375  11.235  1.0947 -2.2445 -1.3675
  732MOL0     H98817  11.551   5.216  11.186  3.5085  0.2681 -0.4878
  732MOL0     H98818  11.661   5.179  11.592 -2.7843  0.2155  0.6319
  732MOL0     H98819  11.004   5.161  11.080  1.1729  0.7721 -0.6109
  732MOL0     H98820  10.741   5.163  11.073  0.1423 -0.3643 -1.5506
  733MOL0     O98821  11.478   9.498   2.393 -0.0926 -0.2473 -0.2657
  733MOL0     C98822  11.414   9.447   2.293 -0.4907 -0.0709  0.5363
  733MOL0     O98823  11.454   9.349   2.210  0.3694  0.3670 -0.6233
  733MOL0     C98824  11.578   9.284   2.203 -0.7190  0.2783 -0.0023
  733MOL0     C98825  11.681   9.316   2.286 -0.7199 -0.7075  0.1272
  733MOL0     C98826  11.811   9.256   2.271  0.0209 -0.0412 -0.2832
  733MOL0     C98827  11.843   9.166   2.177 -0.7745  0.2957  0.1865
  733MOL0     O98828  11.976   9.116   2.176 -0.1669  0.0047  0.2162
  733MOL0     C98829  12.027   9.096   2.045 -0.3828 -1.0527 -0.0755
  733MOL0     C98830  12.180   9.117   2.041  0.2974  0.0137 -0.7189
  733MOL0     C98831  12.243   9.018   2.152  0.3638 -0.8181  0.3930
  733MOL0     C98832  12.206   8.869   2.141  0.7333  0.1001 -0.0608
  733MOL0     C98833  12.320   8.788   2.191 -0.0119  1.0683  0.9580
  733MOL0     C98834  12.285   8.640   2.233  0.4740 -0.2928 -0.0248
  733MOL0     C98835  12.214   8.567   2.123  0.6820 -0.3039  0.2317
  733MOL0     C98836  12.184   8.419   2.149 -0.0123  0.9473 -0.1818
  733MOL0     N98837  12.297   8.352   2.205 -0.8992  0.3764  0.0315
  733MOL0     C98838  12.307   8.296   2.330 -0.2679 -0.6306 -0.5597
  733MOL0     C98839  12.431   8.241   2.337 -0.1717  0.5553 -0.7513
  733MOL0     C98840  12.488   8.145   2.443  0.1428 -0.6440  1.0563
  733MOL0     C98841  12.453   8.176   2.588  0.4485  0.2664  0.9329
  733MOL0     C98842  12.524   8.068   2.673  0.4919  0.0252  0.8749
  733MOL0     C98843  12.548   8.126   2.808 -0.0828 -0.0145 -0.7017
  733MOL0     O98844  12.427   8.137   2.878  0.0581  0.6460  0.1855
  733MOL0     C98845  12.420   8.247   2.965  0.0832  0.2828  0.2155
  733MOL0     C98846  12.390   8.376   2.919  0.8294  0.5406 -0.4297
  733MOL0     C98847  12.392   8.485   3.004  0.0787  0.7190 -0.8272
  733MOL0     C98848  12.367   8.625   2.946  0.0803  0.4627 -0.0566
  733MOL0     C98849  12.416   8.461   3.139  0.7584 -0.3601  0.0749
  733MOL0     C98850  12.421   8.574   3.242  0.1033 -0.3679 -0.0441
  733MOL0     O98851  12.362   8.686   3.205 -0.1558 -0.6006 -0.1176
  733MOL0     C98852  12.370   8.797   3.274 -1.1579 -0.1110  0.7203
  733MOL0     C98853  12.403   8.920   3.218 -0.2053 -0.5438  0.8239
  733MOL0     C98854  12.432   9.036   3.272 -0.2590  0.1082 -0.0020
  733MOL0     C98855  12.422   9.044   3.413  0.0442  0.1443  0.4763
  733MOL0     O98856  12.415   9.163   3.482  0.0655  0.6559  0.2949
  733MOL0     C98857  12.543   9.232   3.496  0.6583  0.7005 -0.2284
  733MOL0     C98858  12.548   9.318   3.625 -0.9460  0.9123 -0.2386
  733MOL0     C98859  12.427   9.415   3.634  0.4279  0.0166  0.0436
  733MOL0     C98860  12.372   9.419   3.771 -0.3015 -0.5135  0.0907
  733MOL0     C98861  12.267   9.525   3.784  0.1670 -0.7130  0.9813
  733MOL0     C98862  12.204   9.535   3.917  0.5503 -0.5635 -0.9954
  733MOL0     C98863  12.064   9.614   3.925 -0.0190  0.3792  0.2400
  733MOL0     C98864  12.028   9.679   4.052 -0.3273  0.3073  0.3160
  733MOL0    Cl98865  12.033   9.581   4.203 -0.1769  0.0302 -0.1897
  733MOL0     C98866  12.384   8.926   3.484  0.2146 -1.1066  0.0778
  733MOL0     C98867  12.351   8.807   3.411 -0.0265  0.4244 -0.1088
  733MOL0     O98868  12.485   8.560   3.346 -0.0106 -0.8209  0.1399
  733MOL0     C98869  12.450   8.338   3.182 -0.1813 -0.4421  0.4681
  733MOL0     C98870  12.453   8.234   3.098 -0.7911 -0.5399 -0.8495
  733MOL0     N98871  12.503   8.282   2.230  0.6623  0.6190 -0.5822
  733MOL0     N98872  12.423   8.346   2.154  0.2787 -0.6944  1.0500
  733MOL0     C98873  11.743   9.139   2.089  0.2683 -0.2351  0.2093
  733MOL0     C98874  11.610   9.193   2.100 -0.4455 -0.1026  0.5400
  733MOL0     C98875  11.293   9.521   2.249 -0.7211  0.0806  0.7713
  733MOL0     C98876  11.259   9.520   2.111 -0.1738  0.4912  0.8776
  733MOL0     C98877  11.141   9.585   2.070  0.3639  0.0605 -0.6550
  733MOL0     C98878  11.071   9.670   2.153  0.1695 -0.3781 -0.1078
  733MOL0     O98879  10.963   9.732   2.103  0.3324  0.3871  0.4388
  733MOL0     C98880  10.847   9.762   2.187 -0.0014  0.3717  0.6699
  733MOL0     C98881  10.722   9.775   2.093 -0.5624  0.0063 -0.7847
  733MOL0     C98882  10.732   9.901   2.005  0.6130  0.0686  0.2875
  733MOL0     C98883  10.601   9.941   1.920 -0.2420  0.5213 -0.6775
  733MOL0     C98884  10.602   9.838   1.809 -0.7353 -1.0819 -0.0444
  733MOL0     C98885  10.594   9.760   1.723 -0.7688  0.1446  0.3065
  733MOL0     C98886  11.112   9.685   2.289 -0.0180  0.1227 -0.3538
  733MOL0     C98887  11.217   9.604   2.341  0.1251 -0.2803  0.4499
  733MOL0     H98888  11.674   9.380   2.373  2.9342 -0.2744  0.2550
  733MOL0     H98889  11.898   9.277   2.332  1.0667 -2.6413 -0.7576
  733MOL0     H98890  12.010   8.999   2.000 -2.0994 -0.0560 -1.6900
  733MOL0     H98891  11.992   9.180   1.984  0.0162 -1.0423 -0.2957
  733MOL0     H98892  12.226   9.086   1.947  0.8912  0.1692 -0.4860
  733MOL0     H98893  12.204   9.219   2.073 -1.1645  0.1189  0.1437
  733MOL0     H98894  12.352   9.028   2.146  0.2022  2.3331  0.9303
  733MOL0     H98895  12.224   9.062   2.250 -2.0688 -0.8893  0.0115
  733MOL0     H98896  12.117   8.846   2.199  1.5374  0.1350  1.2284
  733MOL0     H98897  12.173   8.842   2.040  0.4512  0.2337 -0.0024
  733MOL0     H98898  12.406   8.799   2.123  2.5287 -2.4678  3.2485
  733MOL0     H98899  12.365   8.833   2.280  5.0758  2.5958 -1.9638
  733MOL0     H98900  12.382   8.601   2.264  0.7890  1.4105  1.2868
  733MOL0     H98901  12.217   8.631   2.319  2.4802 -2.2874  1.4882
  733MOL0     H98902  12.118   8.616   2.105  0.8297 -1.1725 -3.7754
  733MOL0     H98903  12.275   8.576   2.033  0.9074  1.7850  0.5557
  733MOL0     H98904  12.151   8.373   2.056 -1.3895 -0.2925  0.8621
  733MOL0     H98905  12.110   8.404   2.229  1.2462  3.5094  1.5817
  733MOL0     H98906  12.227   8.283   2.403 -0.5363 -0.1529 -0.7593
  733MOL0     H98907  12.447   8.047   2.419 -0.9763 -0.8410  3.4857
  733MOL0     H98908  12.597   8.138   2.432  0.0506 -0.3325 -0.3200
  733MOL0     H98909  12.345   8.175   2.605  0.1052 -1.9080 -0.8733
  733MOL0     H98910  12.487   8.279   2.605  0.9156 -0.3235  4.0397
  733MOL0     H98911  12.622   8.044   2.631 -1.7068 -4.6936 -2.2945
  733MOL0     H98912  12.463   7.979   2.687  1.7988 -0.7106  2.1753
  733MOL0     H98913  12.592   8.225   2.792 -2.0832  0.6349 -2.8000
  733MOL0     H98914  12.607   8.065   2.876 -3.6118  0.1506  2.8571
  733MOL0     H98915  12.347   8.389   2.821 -1.0589 -0.0002  0.2908
  733MOL0     H98916  12.455   8.690   2.955  0.9751 -0.6273 -0.5981
  733MOL0     H98917  12.360   8.607   2.838  0.8363  1.0722 -0.2197
  733MOL0     H98918  12.275   8.673   2.978  0.0426 -0.4557  1.2858
  733MOL0     H98919  12.403   8.922   3.109 -0.3521  2.8122  0.7833
  733MOL0     H98920  12.454   9.124   3.212  3.3145 -2.0914 -2.2975
  733MOL0     H98921  12.626   9.161   3.493 -0.0033 -0.2310  1.6243
  733MOL0     H98922  12.552   9.289   3.403 -0.7703  0.5281 -0.5026
  733MOL0     H98923  12.545   9.249   3.709 -0.0454  2.5936  1.2415
  733MOL0     H98924  12.643   9.370   3.608 -0.1190 -0.1340  0.9915
  733MOL0     H98925  12.345   9.381   3.570  1.3177  1.9937 -2.3496
  733MOL0     H98926  12.468   9.509   3.594 -2.3120  1.3106  0.0700
  733MOL0     H98927  12.336   9.318   3.792  3.5649 -2.0893  0.0412
  733MOL0     H98928  12.448   9.435   3.848 -2.6983  0.8072  2.3074
  733MOL0     H98929  12.199   9.533   3.699  1.1355  3.4099  0.3535
  733MOL0     H98930  12.322   9.620   3.776 -0.7528 -0.0414  2.2616
  733MOL0     H98931  12.190   9.435   3.957 -0.0363 -0.8421 -1.8586
  733MOL0     H98932  12.268   9.590   3.986 -1.2104 -2.0477  2.0251
  733MOL0     H98933  11.992   9.533   3.913  1.2023 -0.7905  0.5695
  733MOL0     H98934  12.058   9.692   3.849 -3.4959  1.7774  1.7319
  733MOL0     H98935  11.925   9.716   4.047 -1.9279 -3.0417  3.1776
  733MOL0     H98936  12.097   9.763   4.060  2.4132 -1.6789 -0.7688
  733MOL0     H98937  12.369   8.918   3.592 -1.8405  0.9866  0.0177
  733MOL0     H98938  12.329   8.722   3.474  1.4632  1.3159  1.7436
  733MOL0     H98939  12.470   8.314   3.286 -0.6115  0.5901  0.8040
  733MOL0     H98940  12.480   8.136   3.135 -0.1269 -0.5828 -1.4213
  733MOL0     H98941  11.774   9.068   2.013  1.7015  1.3545 -0.7611
  733MOL0     H98942  11.537   9.162   2.027  0.1185  0.5666 -0.3384
  733MOL0     H98943  11.322   9.472   2.037 -0.2867  0.6727  0.6639
  733MOL0     H98944  11.130   9.577   1.963 -1.1084  0.0971 -0.5268
  733MOL0     H98945  10.825   9.685   2.261 -0.8993  0.8041  0.8747
  733MOL0     H98946  10.863   9.858   2.238 -1.3132  1.1133 -0.2175
  733MOL0     H98947  10.630   9.788   2.149  0.9788 -1.0892  2.2236
  733MOL0     H98948  10.718   9.686   2.028 -1.3565 -0.7425  0.2608
  733MOL0     H98949  10.810   9.884   1.930 -1.2528 -0.7797 -1.5815
  733MOL0     H98950  10.752   9.977   2.080  2.5100 -3.7958  4.0938
  733MOL0     H98951  10.622  10.043   1.886  1.0398  0.4715 -0.1000
  733MOL0     H98952  10.514   9.926   1.984  0.3488 -5.0193 -0.6777
  733MOL0     H98953  10.582   9.694   1.640 -1.5504 -0.7404  1.0971
  733MOL0     H98954  11.057   9.759   2.347 -3.4963 -1.7880 -0.9482
  733MOL0     H98955  11.260   9.600   2.441  3.2271 -1.4560 -0.7838
  734MOL0     O98956   0.875   5.880   2.239 -1.1020 -0.8578 -0.2783
  734MOL0     C98957   0.911   5.805   2.144 -0.5437 -0.6831 -0.6861
  734MOL0     O98958   0.901   5.666   2.135  0.4295  0.2219  0.3211
  734MOL0     C98959   0.881   5.591   2.246  0.3158  0.5972  0.2455
  734MOL0     C98960   0.795   5.484   2.247  0.3554  0.0869  0.4730
  734MOL0     C98961   0.779   5.400   2.359 -0.9478  0.1622  0.6764
  734MOL0     C98962   0.863   5.408   2.464  0.2465  0.4859 -0.2500
  734MOL0     O98963   0.864   5.305   2.557 -0.4521 -0.9748 -0.4583
  734MOL0     C98964   1.002   5.263   2.587 -1.0623  0.2511 -0.8167
  734MOL0     C98965   0.962   5.138   2.660  0.2606 -0.2872 -0.0360
  734MOL0     C98966   1.095   5.061   2.699 -0.8481 -0.1725 -0.1728
  734MOL0     C98967   1.167   5.108   2.822 -0.4698 -0.2581 -0.3847
  734MOL0     C98968   1.296   5.039   2.863  1.4445 -0.2265 -0.2413
  734MOL0     C98969   1.271   4.891   2.894  0.0134  0.1595 -0.1162
  734MOL0     C98970   1.415   4.827   2.933  0.2163 -0.5643  1.0501
  734MOL0     C98971   1.412   4.669   2.936  0.9723 -0.0141  0.5353
  734MOL0     N98972   1.545   4.619   2.948 -0.1590 -0.8598  0.5954
  734MOL0     C98973   1.598   4.512   2.880 -0.1348  1.4413 -0.4906
  734MOL0     C98974   1.716   4.492   2.929  0.4300 -0.0065 -0.3023
  734MOL0     C98975   1.818   4.387   2.880 -0.0778 -0.2907  0.3159
  734MOL0     C98976   1.787   4.244   2.903  0.2219 -0.5899  0.3274
  734MOL0     C98977   1.765   4.211   3.048  0.2279  0.3999 -0.0512
  734MOL0     C98978   1.760   4.058   3.073  0.7712  0.5541  0.0921
  734MOL0     O98979   1.780   4.036   3.213 -0.1441 -0.0769 -0.3651
  734MOL0     C98980   1.907   4.036   3.270 -0.0054 -0.3679  0.0469
  734MOL0     C98981   2.029   4.057   3.193  0.2418  1.0973 -0.2106
  734MOL0     C98982   2.160   4.041   3.255  0.5581 -0.3814  0.5457
  734MOL0     C98983   2.272   4.049   3.152 -1.2597 -1.0833 -0.2316
  734MOL0     C98984   2.161   3.973   3.377 -0.0296  0.7317 -0.0276
  734MOL0     C98985   2.292   3.910   3.422 -0.6633 -0.0963 -0.0784
  734MOL0     O98986   2.414   3.963   3.373 -0.0821  0.3215  0.5654
  734MOL0     C98987   2.534   3.896   3.397  1.4352 -0.2728 -0.2967
  734MOL0     C98988   2.569   3.866   3.535  0.1885  0.1376  0.6895
  734MOL0     C98989   2.682   3.790   3.555  0.5213 -0.1193  0.8400
  734MOL0     C98990   2.768   3.749   3.447 -1.0164  0.7789 -0.2582
  734MOL0     O98991   2.890   3.687   3.494 -1.1410  0.3536 -0.5126
  734MOL0     C98992   2.964   3.599   3.402 -0.0721 -0.0007 -0.0156
  734MOL0     C98993   3.098   3.569   3.471  0.3758  0.8398 -0.7170
  734MOL0     C98994   3.196   3.534   3.360  0.4495 -0.0490  0.3864
  734MOL0     C98995   3.342   3.488   3.410  0.6625 -0.3206  0.1586
  734MOL0     C98996   3.434   3.459   3.302 -0.4219 -0.6551  0.4122
  734MOL0     C98997   3.416   3.317   3.240 -0.7349  0.2948 -0.5798
  734MOL0     C98998   3.460   3.198   3.334  0.5081  0.3800  1.3663
  734MOL0     C98999   3.478   3.061   3.257 -0.5150 -0.6101 -0.1092
  734MOL0    Cl99000   3.503   2.922   3.384  0.8023  0.1836  0.1462
  734MOL0     C99001   2.740   3.789   3.316 -0.4361 -0.4523 -0.3544
  734MOL0     C99002   2.617   3.854   3.292 -0.0318  0.6228 -0.0119
  734MOL0     O99003   2.286   3.800   3.476 -0.1431  0.0320  0.0199
  734MOL0     C99004   2.042   3.955   3.450 -0.1038 -0.1730 -0.8472
  734MOL0     C99005   1.918   3.993   3.401  0.9485  0.2840 -0.1503
  734MOL0     N99006   1.731   4.575   3.042  0.1717 -0.5198  0.3006
  734MOL0     N99007   1.632   4.655   3.046  0.3189  0.9006 -0.7816
  734MOL0     C99008   0.950   5.519   2.467 -0.2325  1.1493 -0.1648
  734MOL0     C99009   0.956   5.613   2.361  0.3779 -0.1071 -0.2854
  734MOL0     C99010   0.985   5.872   2.035 -0.9035 -0.4501  0.1960
  734MOL0     C99011   1.022   5.792   1.924 -0.0831 -0.2231 -0.3380
  734MOL0     C99012   1.078   5.858   1.815  0.5596  0.1320  0.1530
  734MOL0     C99013   1.101   5.996   1.799 -0.3654  0.2225 -0.0741
  734MOL0     O99014   1.163   6.050   1.685  0.3218 -0.4208  0.1325
  734MOL0     C99015   1.082   6.094   1.582 -0.0382 -1.0680  0.4135
  734MOL0     C99016   1.152   6.196   1.487 -0.1292  0.6185  0.4036
  734MOL0     C99017   1.274   6.149   1.405  0.3412 -0.5039 -0.7937
  734MOL0     C99018   1.393   6.078   1.469  0.8891  0.1463  0.0341
  734MOL0     C99019   1.491   6.039   1.361 -0.6507  0.6023 -0.5943
  734MOL0     C99020   1.565   5.985   1.280  0.3450 -0.3142  0.1661
  734MOL0     C99021   1.070   6.067   1.923  0.5784 -0.5051 -0.8312
  734MOL0     C99022   1.022   6.011   2.044 -0.0061  0.0251  0.4364
  734MOL0     H99023   0.743   5.465   2.154  1.9884 -1.6682 -0.1577
  734MOL0     H99024   0.712   5.315   2.351 -3.4576  2.1474 -1.3644
  734MOL0     H99025   1.063   5.231   2.502 -1.7741 -0.3116 -1.1395
  734MOL0     H99026   1.055   5.335   2.649 -0.8376 -0.3402 -0.3176
  734MOL0     H99027   0.909   5.152   2.755  1.8238 -1.7018  1.0946
  734MOL0     H99028   0.904   5.069   2.598  1.9045 -0.7653 -1.1002
  734MOL0     H99029   1.088   4.953   2.710 -3.6271 -0.2474 -1.9080
  734MOL0     H99030   1.168   5.084   2.621  0.3287  3.4408  1.7336
  734MOL0     H99031   1.198   5.210   2.800  0.2023 -0.9212 -2.7657
  734MOL0     H99032   1.091   5.107   2.901 -0.9290 -2.6101 -0.7663
  734MOL0     H99033   1.369   5.039   2.782  0.1456 -1.1351 -1.4632
  734MOL0     H99034   1.344   5.088   2.948 -1.2603  1.2619  0.5548
  734MOL0     H99035   1.204   4.875   2.979 -0.7416 -0.0486 -0.7407
  734MOL0     H99036   1.228   4.837   2.808  2.3891  1.1069 -2.0149
  734MOL0     H99037   1.488   4.858   2.857  0.6071  1.5424  2.2125
  734MOL0     H99038   1.449   4.869   3.028 -3.0267 -0.0224  2.1140
  734MOL0     H99039   1.371   4.623   2.846  0.0980 -2.2190  1.9834
  734MOL0     H99040   1.363   4.643   3.030  2.4593  0.0248  1.3401
  734MOL0     H99041   1.550   4.465   2.794 -1.2882  1.0735  0.3408
  734MOL0     H99042   1.844   4.412   2.777  1.7944  1.9276  1.2420
  734MOL0     H99043   1.907   4.415   2.937 -0.4373 -2.2874  1.9778
  734MOL0     H99044   1.876   4.196   2.864  0.5185  0.6062 -0.5439
  734MOL0     H99045   1.703   4.198   2.850 -0.3656 -1.3784  1.8773
  734MOL0     H99046   1.667   4.246   3.082  1.6773  0.7968  4.2534
  734MOL0     H99047   1.845   4.251   3.110 -0.4412 -0.0741  1.1494
  734MOL0     H99048   1.829   4.002   3.010 -2.0246 -2.0827 -0.8914
  734MOL0     H99049   1.656   4.030   3.052  0.0236 -0.5620  4.3069
  734MOL0     H99050   2.035   4.084   3.088  2.1932  1.7523  0.0236
  734MOL0     H99051   2.319   3.955   3.122  0.3444 -0.0190 -1.2437
  734MOL0     H99052   2.247   4.100   3.058  2.0078  1.4742  0.1109
  734MOL0     H99053   2.351   4.113   3.194  0.2138  2.1932 -6.5631
  734MOL0     H99054   2.495   3.875   3.615  0.5564  0.4132  1.0045
  734MOL0     H99055   2.703   3.745   3.652  1.6179 -1.4027  0.0449
  734MOL0     H99056   2.923   3.501   3.375 -2.0820  0.7391  0.1829
  734MOL0     H99057   2.970   3.645   3.303 -1.2728 -2.4913 -1.3685
  734MOL0     H99058   3.139   3.653   3.528 -0.2920  0.2958  0.6126
  734MOL0     H99059   3.089   3.483   3.537  3.6924  1.6027  0.9414
  734MOL0     H99060   3.209   3.625   3.301 -0.8373 -0.1353 -0.0635
  734MOL0     H99061   3.152   3.453   3.301 -1.9711  2.0158 -0.8144
  734MOL0     H99062   3.380   3.556   3.488 -0.1165 -0.3624  0.5850
  734MOL0     H99063   3.338   3.397   3.471  2.2883 -1.8460 -1.8729
  734MOL0     H99064   3.535   3.460   3.345 -0.8992  1.8935  1.6716
  734MOL0     H99065   3.434   3.517   3.210  1.5742 -0.0434  0.7459
  734MOL0     H99066   3.310   3.308   3.211 -0.6430  0.2917 -0.9200
  734MOL0     H99067   3.482   3.320   3.153 -2.4267  1.9800 -1.8951
  734MOL0     H99068   3.377   3.187   3.405 -1.1660 -1.7305 -0.7496
  734MOL0     H99069   3.550   3.210   3.395  1.9607 -0.5693 -0.5139
  734MOL0     H99070   3.557   3.068   3.183  0.3984  1.1039  0.9625
  734MOL0     H99071   3.384   3.032   3.208 -1.5564  1.6853  0.3836
  734MOL0     H99072   2.801   3.751   3.234  0.5848 -0.0999  0.2269
  734MOL0     H99073   2.588   3.892   3.194  3.4305  2.4404 -0.4871
  734MOL0     H99074   2.055   3.916   3.550 -2.0426  0.0948 -0.4594
  734MOL0     H99075   1.832   3.998   3.466 -1.1902 -0.3036 -2.7621
  734MOL0     H99076   1.014   5.552   2.549  0.6070  2.5753 -1.3281
  734MOL0     H99077   1.020   5.701   2.363 -1.9479  1.6988 -0.2810
  734MOL0     H99078   0.985   5.690   1.922 -0.7950  0.0028  0.6058
  734MOL0     H99079   1.092   5.803   1.723  3.1324  4.0060 -2.0616
  734MOL0     H99080   1.037   6.015   1.521 -3.2563  2.0253 -1.5894
  734MOL0     H99081   1.000   6.150   1.628  3.1072  2.5627  2.1785
  734MOL0     H99082   1.194   6.281   1.542 -1.6657  0.5010  1.8547
  734MOL0     H99083   1.077   6.230   1.416 -0.1018 -0.5796 -0.2204
  734MOL0     H99084   1.308   6.242   1.358 -0.6387  1.5304  2.2357
  734MOL0     H99085   1.250   6.075   1.328 -0.8745  0.4657 -1.3867
  734MOL0     H99086   1.348   5.988   1.511  1.7644  1.2127  3.6272
  734MOL0     H99087   1.432   6.140   1.551  0.1542  0.8996 -0.1750
  734MOL0     H99088   1.610   5.920   1.207 -2.9831 -2.4288 -0.2360
  734MOL0     H99089   1.099   6.171   1.915 -0.5811 -0.1067 -0.0897
  734MOL0     H99090   1.003   6.074   2.130  0.4060 -1.5105  1.6936
  735MOL0     O99091   2.306   7.918   8.307  0.4305 -0.0207  0.0534
  735MOL0     C99092   2.270   7.824   8.235 -0.4432 -0.5208  0.8328
  735MOL0     O99093   2.338   7.775   8.132 -0.3858  0.2347 -0.1317
  735MOL0     C99094   2.469   7.815   8.098 -1.1335  0.8016 -0.1718
  735MOL0     C99095   2.527   7.944   8.121  1.3312 -0.1421 -0.5389
  735MOL0     C99096   2.658   7.970   8.085  0.5595 -0.1498  0.0255
  735MOL0     C99097   2.737   7.874   8.024  0.2038 -0.0826 -0.0616
  735MOL0     O99098   2.855   7.916   7.963  0.1522 -0.5399 -0.4957
  735MOL0     C99099   2.963   7.825   7.985  0.4135 -0.2562 -0.1929
  735MOL0     C99100   3.013   7.778   7.848  0.5026  0.0046 -0.3803
  735MOL0     C99101   3.103   7.885   7.783 -0.3510  0.2608  0.1787
  735MOL0     C99102   3.160   7.842   7.640 -0.0991  0.1785 -1.0843
  735MOL0     C99103   3.278   7.928   7.605  0.0999  0.3594 -0.1791
  735MOL0     C99104   3.240   8.083   7.602  0.3917  0.5575  0.5762
  735MOL0     C99105   3.372   8.139   7.527  0.7897 -0.4615 -0.4934
  735MOL0     C99106   3.321   8.279   7.483 -0.5362  0.6364  0.8978
  735MOL0     N99107   3.284   8.370   7.595 -1.2393 -0.8095  0.1281
  735MOL0     C99108   3.376   8.432   7.692  0.7216  0.1714  1.1146
  735MOL0     C99109   3.305   8.521   7.755  1.0115  0.2136  0.3421
  735MOL0     C99110   3.354   8.591   7.878  0.7117 -0.9403 -1.1549
  735MOL0     C99111   3.377   8.737   7.867 -0.6402 -0.3555 -0.2629
  735MOL0     C99112   3.486   8.776   7.759 -0.3262  0.5319  0.4301
  735MOL0     C99113   3.637   8.769   7.807 -0.1157 -0.0072  0.3457
  735MOL0     O99114   3.679   8.636   7.852  0.2676 -0.2436  0.5296
  735MOL0     C99115   3.796   8.576   7.813 -0.5389 -0.1340  0.1546
  735MOL0     C99116   3.909   8.648   7.787  0.1528  0.2563  0.7013
  735MOL0     C99117   4.039   8.591   7.760  0.3804  0.1750  0.1381
  735MOL0     C99118   4.161   8.677   7.726 -0.5792 -0.8869  0.5230
  735MOL0     C99119   4.047   8.449   7.766 -0.3727 -0.4748  0.3953
  735MOL0     C99120   4.170   8.373   7.742 -0.5583 -0.3671 -1.2034
  735MOL0     O99121   4.161   8.259   7.671 -1.0051  0.0331 -0.1333
  735MOL0     C99122   4.278   8.218   7.612 -1.5433  0.0737 -0.1649
  735MOL0     C99123   4.282   8.084   7.587  0.0541 -0.7949 -0.7223
  735MOL0     C99124   4.386   8.022   7.532  0.2427  0.2915 -0.4587
  735MOL0     C99125   4.492   8.102   7.482 -0.1231  0.2421  0.1915
  735MOL0     O99126   4.603   8.038   7.434  0.2130 -0.1374  0.2758
  735MOL0     C99127   4.599   7.899   7.413 -0.2929  0.3931 -0.5942
  735MOL0     C99128   4.717   7.887   7.317 -0.1086  0.5845  0.2339
  735MOL0     C99129   4.691   7.866   7.174 -0.0797  0.2148  1.1553
  735MOL0     C99130   4.648   7.996   7.101 -0.6005 -0.0239 -0.1537
  735MOL0     C99131   4.647   7.967   6.947 -0.7044  0.3296  0.2238
  735MOL0     C99132   4.585   8.095   6.887  0.5447 -0.9145 -0.5814
  735MOL0     C99133   4.583   8.111   6.738  0.7001  1.1039  0.9789
  735MOL0     C99134   4.468   8.036   6.673 -0.3996 -0.1925 -0.6757
  735MOL0    Cl99135   4.497   7.869   6.688  0.1062  0.1719 -0.0083
  735MOL0     C99136   4.492   8.236   7.498  0.2375 -0.3812 -0.5115
  735MOL0     C99137   4.387   8.301   7.574 -0.0469  0.1496  0.6545
  735MOL0     O99138   4.264   8.405   7.810 -0.7739 -0.7328 -0.4811
  735MOL0     C99139   3.938   8.376   7.801  0.0986 -0.3987 -1.4000
  735MOL0     C99140   3.811   8.436   7.828 -0.0221 -0.2905  0.4939
  735MOL0     N99141   3.169   8.505   7.712  0.3909  0.0526 -0.4593
  735MOL0     N99142   3.162   8.420   7.613  0.5722 -0.3138  0.3125
  735MOL0     C99143   2.676   7.753   7.989 -0.8086 -0.5416 -0.0154
  735MOL0     C99144   2.547   7.720   8.034 -0.4190  0.1836  0.3676
  735MOL0     C99145   2.134   7.776   8.239 -0.0185 -0.5328  0.2929
  735MOL0     C99146   2.081   7.667   8.163  0.5288  0.7801  0.4414
  735MOL0     C99147   1.942   7.645   8.151  0.7447  0.1486 -0.0953
  735MOL0     C99148   1.850   7.727   8.222 -0.3221  0.0071  0.2360
  735MOL0     O99149   1.715   7.716   8.199 -0.8639  0.1535  0.0362
  735MOL0     C99150   1.643   7.678   8.316  0.2862  0.7574 -0.9167
  735MOL0     C99151   1.699   7.560   8.406 -0.5036  0.3652 -0.0976
  735MOL0     C99152   1.604   7.534   8.528 -0.4991  0.6018 -1.2493
  735MOL0     C99153   1.666   7.442   8.630 -0.6138 -0.0607 -0.4545
  735MOL0     C99154   1.573   7.407   8.742  0.0700 -1.0617  0.3622
  735MOL0     C99155   1.498   7.376   8.835 -0.9152  0.2990 -0.5028
  735MOL0     C99156   1.897   7.838   8.290  0.1971  0.2548 -0.7080
  735MOL0     C99157   2.034   7.856   8.303 -0.2710 -0.0961 -0.8391
  735MOL0     H99158   2.464   8.023   8.159 -0.7712 -2.2813  0.6558
  735MOL0     H99159   2.693   8.071   8.106 -1.9071  0.2876  2.6304
  735MOL0     H99160   3.040   7.885   8.035  2.7204 -1.7332 -1.8156
  735MOL0     H99161   2.939   7.737   8.046  0.6840  0.4910  1.0383
  735MOL0     H99162   3.087   7.699   7.863  1.7216  0.9722 -1.0647
  735MOL0     H99163   2.928   7.744   7.788  1.5873  1.5573 -2.9693
  735MOL0     H99164   3.053   7.982   7.791  2.6293  1.8159  1.3658
  735MOL0     H99165   3.195   7.904   7.838  0.8086 -0.8719 -1.2852
  735MOL0     H99166   3.196   7.739   7.632  3.1123  0.7221  2.9797
  735MOL0     H99167   3.077   7.855   7.570 -0.2343 -1.4458 -1.2613
  735MOL0     H99168   3.358   7.937   7.679  2.6263  1.1048 -2.8003
  735MOL0     H99169   3.317   7.897   7.507 -0.1959  2.2054 -0.9292
  735MOL0     H99170   3.151   8.084   7.537  0.4279  0.3494  0.5224
  735MOL0     H99171   3.223   8.132   7.698 -3.3082  1.8254 -0.5365
  735MOL0     H99172   3.459   8.146   7.593  1.7989  1.4131 -1.9377
  735MOL0     H99173   3.391   8.084   7.434  3.3573 -0.4027 -0.0576
  735MOL0     H99174   3.233   8.280   7.418  0.7921 -2.3678 -1.1969
  735MOL0     H99175   3.399   8.321   7.419 -0.4575  0.5488  0.9356
  735MOL0     H99176   3.477   8.415   7.730  1.3417 -0.4376 -0.7167
  735MOL0     H99177   3.277   8.574   7.953  5.1993 -0.5279  4.1188
  735MOL0     H99178   3.443   8.550   7.926 -0.9320 -1.1931  1.9526
  735MOL0     H99179   3.397   8.769   7.969 -3.6638 -0.3317  0.4129
  735MOL0     H99180   3.286   8.789   7.835  1.1626  2.2797 -1.5016
  735MOL0     H99181   3.463   8.881   7.736 -1.0234  0.9050  2.6505
  735MOL0     H99182   3.477   8.704   7.677 -0.2396 -1.3514  2.0149
  735MOL0     H99183   3.652   8.835   7.892 -2.3263 -0.9466  1.5428
  735MOL0     H99184   3.691   8.805   7.719 -0.1259  0.4744  0.5351
  735MOL0     H99185   3.908   8.755   7.774  0.7994  0.2024  0.1376
  735MOL0     H99186   4.216   8.646   7.636  2.7309  1.8633  1.3775
  735MOL0     H99187   4.126   8.775   7.693 -1.6963 -0.7177  2.0848
  735MOL0     H99188   4.237   8.694   7.803 -1.8535  0.6001  1.5272
  735MOL0     H99189   4.188   8.033   7.608 -0.8459 -0.0918 -2.7972
  735MOL0     H99190   4.383   7.914   7.543 -4.5250  0.2994  0.4199
  735MOL0     H99191   4.623   7.845   7.505 -0.5027 -0.6184 -1.1163
  735MOL0     H99192   4.506   7.860   7.371 -0.8844  2.2438 -1.1088
  735MOL0     H99193   4.789   7.970   7.326  2.5711 -1.1489 -2.7667
  735MOL0     H99194   4.771   7.795   7.342  1.4004  0.6542 -2.3735
  735MOL0     H99195   4.613   7.792   7.156  1.3228 -0.8197 -1.0251
  735MOL0     H99196   4.786   7.829   7.135 -1.0095  0.2217 -1.2676
  735MOL0     H99197   4.555   8.036   7.143 -0.2733  1.1191 -0.4781
  735MOL0     H99198   4.728   8.069   7.112 -1.2599  1.0080 -1.8838
  735MOL0     H99199   4.576   7.885   6.931  0.0663 -0.2705 -0.1675
  735MOL0     H99200   4.748   7.962   6.906 -0.7235  0.0348  0.2050
  735MOL0     H99201   4.488   8.123   6.928 -0.5528 -3.1065 -1.5218
  735MOL0     H99202   4.647   8.175   6.928 -2.4359 -0.0833  2.8538
  735MOL0     H99203   4.671   8.097   6.673 -1.2646 -1.9150 -1.3161
  735MOL0     H99204   4.556   8.216   6.721 -1.1766  0.3741 -1.0092
  735MOL0     H99205   4.458   8.059   6.567  0.1299 -2.3257 -1.2241
  735MOL0     H99206   4.382   8.075   6.729  1.6266  0.8361  1.9417
  735MOL0     H99207   4.579   8.291   7.460  0.4422  1.5784  2.4877
  735MOL0     H99208   4.389   8.403   7.610 -0.1005 -0.0117  1.1288
  735MOL0     H99209   3.935   8.267   7.802 -2.0463 -0.4229  0.4725
  735MOL0     H99210   3.728   8.375   7.862 -1.1745 -0.5438 -2.5190
  735MOL0     H99211   2.737   7.675   7.944  0.1595  1.3843 -2.2578
  735MOL0     H99212   2.503   7.622   8.018 -1.1226  0.8430 -2.0839
  735MOL0     H99213   2.145   7.601   8.105  1.0743 -0.3619  2.2327
  735MOL0     H99214   1.900   7.564   8.092 -0.7969 -0.9107  2.3174
  735MOL0     H99215   1.644   7.766   8.382  0.9780 -0.0802  0.2400
  735MOL0     H99216   1.540   7.644   8.298 -0.3397  1.5243  0.9075
  735MOL0     H99217   1.803   7.582   8.431 -0.5213 -2.1798  2.9680
  735MOL0     H99218   1.685   7.472   8.342 -0.6850 -0.2901  0.8076
  735MOL0     H99219   1.510   7.487   8.499 -1.6026  1.7721  0.2389
  735MOL0     H99220   1.575   7.633   8.564 -1.3776 -0.1647  0.2202
  735MOL0     H99221   1.738   7.498   8.691  0.8915  1.1779 -3.1503
  735MOL0     H99222   1.724   7.358   8.590  2.9100  1.5609  0.7460
  735MOL0     H99223   1.440   7.331   8.914  1.9802 -4.5565 -0.7168
  735MOL0     H99224   1.820   7.906   8.323  1.7732  2.3953 -1.2451
  735MOL0     H99225   2.069   7.938   8.365  0.7100  0.0982 -1.6367
  736MOL0     O99226   8.387   5.867  10.544 -0.3070  0.1509 -0.4064
  736MOL0     C99227   8.464   5.900  10.636 -0.5291  0.2161  0.6475
  736MOL0     O99228   8.522   5.809  10.727  0.9634  0.7962  0.7032
  736MOL0     C99229   8.503   5.681  10.739  0.7895  0.9447 -0.2602
  736MOL0     C99230   8.515   5.636  10.870  0.2249 -0.1126  0.2726
  736MOL0     C99231   8.496   5.497  10.888  0.1520  0.8960 -0.0688
  736MOL0     C99232   8.462   5.404  10.789  1.1187 -0.2558 -0.8135
  736MOL0     O99233   8.443   5.275  10.831 -0.0417  0.3573  0.2827
  736MOL0     C99234   8.382   5.185  10.741  0.9598  0.4145 -0.3897
  736MOL0     C99235   8.363   5.054  10.821  0.2676 -0.5426  0.3703
  736MOL0     C99236   8.285   4.940  10.766  0.6720  0.1434 -0.4885
  736MOL0     C99237   8.328   4.890  10.632 -0.4373  0.0620  0.1339
  736MOL0     C99238   8.275   4.750  10.612  0.8983  0.3937  0.3725
  736MOL0     C99239   8.257   4.705  10.464 -0.0925  0.3022 -0.5156
  736MOL0     C99240   8.203   4.562  10.459  0.1380 -0.4826  0.4456
  736MOL0     C99241   8.049   4.559  10.475  0.5439 -0.0681 -1.2179
  736MOL0     N99242   7.981   4.602  10.355  0.6579 -0.1855 -0.1927
  736MOL0     C99243   7.861   4.678  10.350  0.0366  1.3173 -0.3073
  736MOL0     C99244   7.807   4.649  10.227 -0.8771  0.3236  0.3487
  736MOL0     C99245   7.686   4.703  10.156  0.0602 -0.3170 -0.0829
  736MOL0     C99246   7.589   4.787  10.236 -0.2025 -0.0988  0.3627
  736MOL0     C99247   7.464   4.823  10.149 -0.2827  1.0898  0.1122
  736MOL0     C99248   7.416   4.955  10.191 -0.4330 -0.1180  0.4743
  736MOL0     O99249   7.395   4.945  10.325  0.1839  0.2713 -0.6013
  736MOL0     C99250   7.288   5.014  10.375 -0.3325  0.2072 -0.6177
  736MOL0     C99251   7.266   5.151  10.349 -0.1245 -0.4632  0.3019
  736MOL0     C99252   7.148   5.213  10.392 -0.1331 -0.7908  0.8309
  736MOL0     C99253   7.109   5.356  10.342  0.0235 -0.0234 -0.3533
  736MOL0     C99254   7.053   5.141  10.476 -0.5662 -0.0245  0.6153
  736MOL0     C99255   6.934   5.192  10.537 -0.2695  0.1578 -0.1469
  736MOL0     O99256   6.914   5.329  10.548  0.0668  0.1567 -0.8235
  736MOL0     C99257   6.986   5.406  10.641 -0.6155 -1.1990  0.2630
  736MOL0     C99258   6.977   5.549  10.636  0.9950  0.4890 -1.0693
  736MOL0     C99259   7.058   5.621  10.717  0.5034  0.1301 -0.7447
  736MOL0     C99260   7.143   5.566  10.824  0.8742  0.1961  0.0573
  736MOL0     O99261   7.215   5.623  10.920 -0.7200 -0.2866 -0.2551
  736MOL0     C99262   7.271   5.751  10.883  0.0709  0.4352 -0.0755
  736MOL0     C99263   7.389   5.775  10.978 -0.5041 -0.4026 -0.6344
  736MOL0     C99264   7.446   5.902  10.926 -1.1865  0.7126  0.1436
  736MOL0     C99265   7.572   5.881  10.847  0.2252  0.3204 -0.6046
  736MOL0     C99266   7.602   5.998  10.770  0.6685 -0.2066  0.7450
  736MOL0     C99267   7.728   5.970  10.683 -1.0219 -0.4449 -0.8761
  736MOL0     C99268   7.762   6.108  10.607  0.0904  0.6402  0.6201
  736MOL0     C99269   7.675   6.131  10.489  0.3448 -0.8349  0.5741
  736MOL0    Cl99270   7.746   6.052  10.344  0.8953  0.4909  0.2937
  736MOL0     C99271   7.143   5.431  10.829 -0.2670 -0.4449  0.0644
  736MOL0     C99272   7.069   5.343  10.743 -0.0472 -0.0166 -0.3344
  736MOL0     O99273   6.843   5.113  10.553  0.0582 -0.0702  0.1062
  736MOL0     C99274   7.089   5.006  10.513 -0.4604 -0.8627  0.1741
  736MOL0     C99275   7.198   4.949  10.454  0.0438 -0.4442 -0.3972
  736MOL0     N99276   7.884   4.559  10.167 -0.4388  0.7463 -0.0839
  736MOL0     N99277   7.996   4.532  10.238  0.5620 -0.1437 -0.2498
  736MOL0     C99278   8.459   5.449  10.655  0.3924 -0.4045 -0.7199
  736MOL0     C99279   8.474   5.584  10.635 -0.3228 -0.7781 -0.1532
  736MOL0     C99280   8.515   6.037  10.655  0.0698 -0.9306  0.4766
  736MOL0     C99281   8.593   6.080  10.759 -0.2312 -1.0611  0.2375
  736MOL0     C99282   8.627   6.217  10.776  0.2269  0.2575 -0.4602
  736MOL0     C99283   8.567   6.317  10.691 -0.7239 -0.4175  0.1400
  736MOL0     O99284   8.586   6.450  10.684 -0.0746 -0.1089  0.2311
  736MOL0     C99285   8.696   6.502  10.765  0.4759  0.1348 -0.6119
  736MOL0     C99286   8.636   6.571  10.890  0.5119  0.8257 -0.0113
  736MOL0     C99287   8.703   6.698  10.916  0.1341  1.0773 -0.2024
  736MOL0     C99288   8.624   6.786  11.017  0.3706  0.6509 -0.0499
  736MOL0     C99289   8.702   6.888  11.079  0.2072  0.1744 -0.4546
  736MOL0     C99290   8.761   6.977  11.130 -0.1085 -0.8136  0.8101
  736MOL0     C99291   8.488   6.265  10.589 -0.6668  0.2595  0.2849
  736MOL0     C99292   8.467   6.130  10.566 -0.5069  0.0116 -0.0373
  736MOL0     H99293   8.527   5.701  10.956  0.7538 -3.3406  2.8552
  736MOL0     H99294   8.511   5.449  10.984 -1.1750  0.3634 -0.1047
  736MOL0     H99295   8.285   5.224  10.709 -0.1491 -1.2043  0.7990
  736MOL0     H99296   8.446   5.171  10.654 -0.2313  1.5663 -1.5037
  736MOL0     H99297   8.467   5.022  10.830  0.3307 -1.0968 -1.8452
  736MOL0     H99298   8.323   5.081  10.919  0.0740 -1.2347  0.4906
  736MOL0     H99299   8.304   4.868  10.846  0.7206  0.7595  0.0621
  736MOL0     H99300   8.178   4.966  10.765  0.5080 -0.3241 -3.0877
  736MOL0     H99301   8.296   4.967  10.561 -1.0820 -0.0205  0.3218
  736MOL0     H99302   8.435   4.883  10.612 -0.1986 -1.0976  1.6911
  736MOL0     H99303   8.326   4.682  10.681  1.0427 -0.9428 -0.9879
  736MOL0     H99304   8.168   4.765  10.633  0.4763  0.9521 -1.8799
  736MOL0     H99305   8.194   4.779  10.413  0.3570  1.0280 -0.0458
  736MOL0     H99306   8.358   4.706  10.423  0.1708  0.2398  0.1185
  736MOL0     H99307   8.223   4.518  10.361  0.5219  0.2781  0.1737
  736MOL0     H99308   8.258   4.501  10.532  1.8385 -0.9209 -1.1393
  736MOL0     H99309   8.015   4.621  10.559 -0.0819  0.6505 -1.9796
  736MOL0     H99310   8.019   4.454  10.487  0.3913 -0.0431 -1.3756
  736MOL0     H99311   7.818   4.736  10.431 -2.6416 -0.1256 -0.5745
  736MOL0     H99312   7.720   4.769  10.076 -1.4509 -0.9128 -1.2758
  736MOL0     H99313   7.641   4.617  10.104 -1.7710 -1.2431  2.7763
  736MOL0     H99314   7.657   4.865  10.271  0.8279 -1.3506  1.2845
  736MOL0     H99315   7.558   4.735  10.327 -1.0524 -0.0357  0.1162
  736MOL0     H99316   7.391   4.745  10.170 -0.5427  0.9484 -1.2660
  736MOL0     H99317   7.491   4.818  10.043 -2.2241  0.4820 -0.3867
  736MOL0     H99318   7.316   4.977  10.154  0.0971  4.4858  1.2201
  736MOL0     H99319   7.480   5.036  10.155 -0.4237 -0.4913 -0.3690
  736MOL0     H99320   7.331   5.212  10.287 -3.7098  5.0530  1.2443
  736MOL0     H99321   7.145   5.421  10.423 -1.5894  0.8844 -0.3181
  736MOL0     H99322   7.152   5.387  10.246 -0.7968 -0.1741 -0.7725
  736MOL0     H99323   7.003   5.365  10.320  0.2627 -2.3828 -3.1115
  736MOL0     H99324   6.895   5.589  10.578  2.2758 -0.2049 -3.4762
  736MOL0     H99325   7.045   5.727  10.738  4.3248  0.0692  3.4904
  736MOL0     H99326   7.316   5.750  10.783 -0.2473  1.7357 -0.2488
  736MOL0     H99327   7.188   5.820  10.895 -1.0396 -1.0670  1.2694
  736MOL0     H99328   7.369   5.771  11.085 -0.5595  2.6884 -0.4511
  736MOL0     H99329   7.456   5.690  10.957 -1.6848 -0.8263 -3.0893
  736MOL0     H99330   7.493   5.945  11.015  0.9151 -2.1913  0.5861
  736MOL0     H99331   7.381   5.976  10.879  1.8113  2.9576 -0.7728
  736MOL0     H99332   7.649   5.865  10.923 -1.6907 -0.9945  1.1629
  736MOL0     H99333   7.559   5.793  10.782  0.4060 -0.6379  0.6167
  736MOL0     H99334   7.627   6.085  10.832  2.2457 -0.4236  0.4605
  736MOL0     H99335   7.518   6.011  10.702  1.4908 -1.1239 -0.5016
  736MOL0     H99336   7.811   5.950  10.752 -1.4943 -2.4865 -0.8236
  736MOL0     H99337   7.706   5.881  10.622  1.2112 -0.9621 -1.0418
  736MOL0     H99338   7.868   6.112  10.579 -0.8188  1.4531 -3.2578
  736MOL0     H99339   7.745   6.189  10.679 -1.7823 -1.1841  2.3878
  736MOL0     H99340   7.678   6.240  10.477  0.5311 -0.0845  5.3747
  736MOL0     H99341   7.573   6.093  10.500 -0.7390  1.2280 -1.5442
  736MOL0     H99342   7.185   5.380  10.914  2.2905 -0.6663 -1.2224
  736MOL0     H99343   7.080   5.236  10.750  2.5213  0.1958 -0.2036
  736MOL0     H99344   7.026   4.950  10.581  0.2515 -2.1597 -0.2106
  736MOL0     H99345   7.222   4.845  10.476  1.3941 -0.8252 -3.1700
  736MOL0     H99346   8.448   5.382  10.570  2.6606 -0.5858 -0.9375
  736MOL0     H99347   8.475   5.614  10.531 -0.3859  0.7775  0.2657
  736MOL0     H99348   8.639   6.007  10.825 -0.4591  1.1579  3.0127
  736MOL0     H99349   8.674   6.255  10.866 -1.6779  5.6384 -1.3342
  736MOL0     H99350   8.757   6.423  10.809  2.2436  0.9102 -1.5653
  736MOL0     H99351   8.766   6.572  10.720 -0.7628  2.0810  0.3511
  736MOL0     H99352   8.635   6.503  10.976  1.0802 -1.0432 -1.4174
  736MOL0     H99353   8.529   6.588  10.876  0.7857  3.3593  0.4842
  736MOL0     H99354   8.718   6.758  10.825 -2.9036  0.6732 -1.0760
  736MOL0     H99355   8.801   6.685  10.963  1.1400  2.6091 -1.7453
  736MOL0     H99356   8.573   6.721  11.089  2.7255 -0.6106  0.5863
  736MOL0     H99357   8.543   6.832  10.960 -1.1750 -0.9029  0.7932
  736MOL0     H99358   8.831   7.037  11.185 -0.8313  0.4694  0.3573
  736MOL0     H99359   8.442   6.334  10.519 -0.8734  0.6555  0.8082
  736MOL0     H99360   8.407   6.118  10.477 -2.0785  0.4792  0.9248
  737MOL0     O99361   8.334   1.136  10.896  0.1137 -0.0186  0.2564
  737MOL0     C99362   8.241   1.097  10.960 -0.4080  0.1298 -1.4298
  737MOL0     O99363   8.116   1.049  10.915 -0.6409  0.0182 -0.6923
  737MOL0     C99364   8.079   1.086  10.794 -0.1054 -0.3450  0.4722
  737MOL0     C99365   8.079   1.218  10.751 -0.3144 -1.0492 -0.9234
  737MOL0     C99366   8.048   1.240  10.620  0.3372  0.3244 -0.6542
  737MOL0     C99367   8.007   1.136  10.529 -0.3953 -0.7196 -1.4786
  737MOL0     O99368   7.971   1.178  10.405  0.3900  0.6635  0.9099
  737MOL0     C99369   7.924   1.083  10.317 -0.0675  0.2314  0.6145
  737MOL0     C99370   7.870   1.154  10.185  0.0770 -0.7194 -0.3878
  737MOL0     C99371   7.771   1.269  10.205  1.5839 -0.7968  0.3058
  737MOL0     C99372   7.630   1.230  10.174  0.3881 -0.1073 -0.1302
  737MOL0     C99373   7.573   1.124  10.274  0.7286 -0.2156 -0.2418
  737MOL0     C99374   7.468   1.194  10.375  0.1750  0.3679 -0.9385
  737MOL0     C99375   7.535   1.284  10.488  0.1256  0.3833  1.6583
  737MOL0     C99376   7.435   1.316  10.591  0.2021  0.3842  0.0878
  737MOL0     N99377   7.390   1.204  10.678 -0.2751 -0.2315  0.4410
  737MOL0     C99378   7.455   1.163  10.791  0.7356  0.0659  0.2388
  737MOL0     C99379   7.380   1.072  10.854  0.7242  0.9139 -0.9863
  737MOL0     C99380   7.417   0.994  10.985 -0.7940 -0.3280  0.0738
  737MOL0     C99381   7.350   0.868  11.010  1.1327  0.0181  0.5770
  737MOL0     C99382   7.233   0.913  11.095  0.0404 -0.3566  0.3087
  737MOL0     C99383   7.152   0.798  11.144  0.1356 -0.1993  0.1807
  737MOL0     O99384   7.215   0.715  11.239  0.0330 -0.2691 -0.1316
  737MOL0     C99385   7.219   0.723  11.371 -0.1424  0.0673  0.6145
  737MOL0     C99386   7.281   0.620  11.450  0.0182  1.4593 -0.0517
  737MOL0     C99387   7.299   0.622  11.585 -0.8068  0.3561  0.1969
  737MOL0     C99388   7.368   0.501  11.659  0.2584 -0.1594  0.4219
  737MOL0     C99389   7.253   0.750  11.650 -0.5146  0.6482  0.5298
  737MOL0     C99390   7.272   0.760  11.798 -0.5923 -0.6566  0.4599
  737MOL0     O99391   7.293   0.650  11.874 -0.4398 -0.2431  0.1009
  737MOL0     C99392   7.349   0.665  12.004  0.3657  0.4582 -0.0261
  737MOL0     C99393   7.327   0.763  12.103 -1.0932  0.7593 -0.7158
  737MOL0     C99394   7.375   0.737  12.237  0.2518 -0.5291  0.1058
  737MOL0     C99395   7.450   0.624  12.272 -0.0678  0.3685 -0.1705
  737MOL0     O99396   7.476   0.609  12.404  0.2783  0.1957 -0.5589
  737MOL0     C99397   7.552   0.485  12.435  0.4446  0.0076  0.4810
  737MOL0     C99398   7.701   0.534  12.461  1.0868  0.6758 -0.5060
  737MOL0     C99399   7.698   0.645  12.558 -0.3631  0.7452 -0.0362
  737MOL0     C99400   7.832   0.711  12.560 -0.7699 -0.0380  0.0192
  737MOL0     C99401   7.838   0.821  12.660  0.5507  0.6384  0.5604
  737MOL0     C99402   7.973   0.887  12.667 -0.3094 -0.2072  0.7730
  737MOL0     C99403   7.980   0.966  12.799  0.1501  0.8106  0.1765
  737MOL0     C99404   7.889   1.085  12.812 -0.1539  0.6884 -0.5738
  737MOL0    Cl99405   7.939   1.189  12.950  0.1733 -0.2643  0.1796
  737MOL0     C99406   7.470   0.532  12.172 -0.2446  0.3880 -0.2001
  737MOL0     C99407   7.430   0.557  12.042  0.1468  0.3331 -0.3242
  737MOL0     O99408   7.258   0.877  11.834  0.2925 -0.0630 -0.0131
  737MOL0     C99409   7.194   0.851  11.579 -0.5201  0.9259  0.5753
  737MOL0     C99410   7.186   0.843  11.435 -0.2369  0.4039 -0.2287
  737MOL0     N99411   7.254   1.083  10.796 -0.8559  0.4805  0.5782
  737MOL0     N99412   7.271   1.147  10.688  0.5090  0.2059  0.5557
  737MOL0     C99413   8.013   1.003  10.575  0.6178  0.4449  0.8959
  737MOL0     C99414   8.047   0.978  10.708 -0.8390  0.7736 -0.5196
  737MOL0     C99415   8.264   1.049  11.106  0.9684 -0.5717  0.3632
  737MOL0     C99416   8.385   1.049  11.167 -1.4252  0.2189  0.0164
  737MOL0     C99417   8.428   0.979  11.279 -0.2542  0.0542  0.1172
  737MOL0     C99418   8.323   0.921  11.356 -0.7552 -1.4580 -0.6538
  737MOL0     O99419   8.337   0.848  11.475 -0.5591 -0.5605 -0.2052
  737MOL0     C99420   8.464   0.789  11.504  0.9665 -0.6263 -0.4986
  737MOL0     C99421   8.525   0.684  11.404  0.3269 -1.1238 -0.2910
  737MOL0     C99422   8.439   0.563  11.382 -0.0053  0.1396 -0.1946
  737MOL0     C99423   8.404   0.499  11.514 -0.5958 -0.1749 -0.0589
  737MOL0     C99424   8.368   0.359  11.505  0.0277 -0.2792 -0.1179
  737MOL0     C99425   8.311   0.256  11.506 -0.8120  0.6731 -0.4773
  737MOL0     C99426   8.194   0.932  11.305  0.2648  0.0076 -0.2455
  737MOL0     C99427   8.156   0.997  11.185 -1.1065  0.1002  0.6601
  737MOL0     H99428   8.100   1.299  10.821 -0.6565 -0.6580 -1.2615
  737MOL0     H99429   8.042   1.341  10.580 -0.3209 -0.0833 -1.5954
  737MOL0     H99430   8.003   1.011  10.294  2.2094  2.4012  1.2038
  737MOL0     H99431   7.844   1.028  10.366 -2.3420  3.3500  0.6732
  737MOL0     H99432   7.959   1.201  10.142 -0.0869  1.4775  1.4560
  737MOL0     H99433   7.830   1.072  10.126 -2.2209 -1.4969  2.0349
  737MOL0     H99434   7.767   1.311  10.306  2.0658  2.7287 -1.0008
  737MOL0     H99435   7.798   1.356  10.144 -0.7719  0.1155  0.4487
  737MOL0     H99436   7.568   1.320  10.182 -0.3442 -0.7274  1.6015
  737MOL0     H99437   7.635   1.191  10.072  1.2297 -2.6196  0.7886
  737MOL0     H99438   7.532   1.031  10.235  1.2110 -0.2102 -0.7740
  737MOL0     H99439   7.660   1.095  10.334 -0.7870 -1.6229  1.3598
  737MOL0     H99440   7.386   1.250  10.329 -0.5891  2.1176  2.2621
  737MOL0     H99441   7.422   1.113  10.432  0.1142 -0.1642 -1.7273
  737MOL0     H99442   7.625   1.238  10.531  0.6851 -0.0201  0.1512
  737MOL0     H99443   7.571   1.375  10.440  2.7276 -0.1269  2.4701
  737MOL0     H99444   7.338   1.350  10.552 -0.5739 -1.4324  0.3335
  737MOL0     H99445   7.475   1.396  10.654  5.3462  1.9875 -4.3799
  737MOL0     H99446   7.555   1.191  10.823  0.8496  0.8010 -0.7106
  737MOL0     H99447   7.521   0.963  10.969 -0.4856 -0.4928  2.0981
  737MOL0     H99448   7.434   1.063  11.069  2.1508  2.3065 -2.4086
  737MOL0     H99449   7.423   0.802  11.059  1.9885 -0.1730 -0.8984
  737MOL0     H99450   7.312   0.811  10.925  1.0977 -0.2049  0.7416
  737MOL0     H99451   7.166   0.983  11.044 -0.6759  0.4384  2.2686
  737MOL0     H99452   7.273   0.962  11.184  0.2529 -5.2215  3.2218
  737MOL0     H99453   7.113   0.731  11.067 -0.3027  0.3335 -0.0737
  737MOL0     H99454   7.061   0.841  11.188  0.4434  1.3742 -0.6650
  737MOL0     H99455   7.323   0.535  11.398 -2.9449 -0.0151 -0.2800
  737MOL0     H99456   7.412   0.429  11.589  1.3869  1.3349 -0.4512
  737MOL0     H99457   7.445   0.532  11.730  0.4006  0.9727 -0.2093
  737MOL0     H99458   7.296   0.450  11.725  1.8064 -0.7465  1.7309
  737MOL0     H99459   7.270   0.849  12.071 -1.2145  0.2236 -1.9744
  737MOL0     H99460   7.342   0.809  12.312 -1.6595 -0.6134 -0.5930
  737MOL0     H99461   7.513   0.443  12.529  0.6798  0.5169  0.8125
  737MOL0     H99462   7.540   0.399  12.370 -0.3756  0.4476  0.0329
  737MOL0     H99463   7.770   0.456  12.495  1.5653  1.1523 -0.3706
  737MOL0     H99464   7.739   0.561  12.362  2.9553 -0.4275 -0.1366
  737MOL0     H99465   7.672   0.597  12.652 -1.2557 -2.7602 -1.8946
  737MOL0     H99466   7.612   0.709  12.538 -1.4884  0.4072  3.2917
  737MOL0     H99467   7.913   0.638  12.571 -0.9308 -0.4002 -1.0941
  737MOL0     H99468   7.843   0.759  12.463  0.6541 -0.5510 -0.0918
  737MOL0     H99469   7.820   0.775  12.758  4.0591  1.3032  1.6652
  737MOL0     H99470   7.756   0.892  12.648 -0.5429  0.4775  5.0956
  737MOL0     H99471   8.056   0.816  12.676  3.1538  3.5096  1.0611
  737MOL0     H99472   7.996   0.958  12.587  0.9313  0.9847  2.1131
  737MOL0     H99473   8.088   0.985  12.797  0.3357 -0.2172 -0.2938
  737MOL0     H99474   7.959   0.892  12.877 -1.3591  0.7060 -0.3009
  737MOL0     H99475   7.789   1.045  12.829 -0.6496  2.3886  0.7754
  737MOL0     H99476   7.883   1.145  12.720  2.6042 -0.5572 -1.7027
  737MOL0     H99477   7.531   0.444  12.190  1.9098  1.9874  0.7808
  737MOL0     H99478   7.450   0.472  11.978  0.0648 -0.1432  0.2761
  737MOL0     H99479   7.187   0.952  11.620 -1.3485  2.3594 -2.7668
  737MOL0     H99480   7.167   0.932  11.376  0.5299  1.7072  1.3928
  737MOL0     H99481   7.965   0.926  10.514  1.9198  0.3254 -0.0094
  737MOL0     H99482   8.061   0.885  10.763  0.7596  2.0999  1.4872
  737MOL0     H99483   8.469   1.079  11.105  0.6849  1.3379  3.1716
  737MOL0     H99484   8.531   0.966  11.311  0.0940 -1.7155 -1.5467
  737MOL0     H99485   8.537   0.868  11.523 -1.3693  2.3303 -2.9147
  737MOL0     H99486   8.451   0.730  11.596 -0.8694 -2.8705 -2.0596
  737MOL0     H99487   8.629   0.675  11.435  0.1570 -2.5342 -0.0898
  737MOL0     H99488   8.531   0.732  11.306  0.5766 -0.7950 -0.1172
  737MOL0     H99489   8.503   0.495  11.326 -0.0053 -0.0907  0.0846
  737MOL0     H99490   8.349   0.595  11.328  2.3067  1.7607 -3.4344
  737MOL0     H99491   8.311   0.550  11.542 -1.3472  0.5941 -3.5146
  737MOL0     H99492   8.483   0.510  11.588 -1.8823 -1.8599  1.6878
  737MOL0     H99493   8.266   0.159  11.499 -0.2863 -0.3044  5.0580
  737MOL0     H99494   8.116   0.877  11.357  1.7302 -0.8851  1.0611
  737MOL0     H99495   8.053   0.989  11.152 -0.4942  3.2409 -2.7750
  738MOL0     O99496   0.572   9.260   2.664  0.1585  0.5702  0.4382
  738MOL0     C99497   0.459   9.238   2.610 -0.5247 -0.0492  0.2816
  738MOL0     O99498   0.350   9.331   2.599  0.2806  0.8397 -0.2556
  738MOL0     C99499   0.348   9.451   2.670  0.7045 -0.4307 -0.1343
  738MOL0     C99500   0.434   9.488   2.777  0.5998  0.0841 -0.6887
  738MOL0     C99501   0.424   9.615   2.840  1.2142 -0.7450 -0.4732
  738MOL0     C99502   0.335   9.708   2.783  0.7195  0.5590 -1.0240
  738MOL0     O99503   0.329   9.826   2.857  0.1728  0.1579 -0.3259
  738MOL0     C99504   0.224   9.917   2.842 -0.1361 -0.1733  0.9702
  738MOL0     C99505   0.271  10.062   2.863 -0.0728 -0.9077  0.1173
  738MOL0     C99506   0.155  10.160   2.884 -0.7125  0.4764  0.4762
  738MOL0     C99507   0.189  10.307   2.910 -0.3300 -0.1713  0.1111
  738MOL0     C99508   0.069  10.384   2.931  0.1298 -0.2573  0.4714
  738MOL0     C99509   0.088  10.542   2.948  0.7283  0.3722 -0.0969
  738MOL0     C99510  -0.050  10.609   2.956  0.7666 -0.2465 -0.5420
  738MOL0     C99511  -0.048  10.761   2.964 -0.6716 -0.2445  0.5084
  738MOL0     N99512  -0.157  10.837   2.909  0.7616  0.1151 -1.4421
  738MOL0     C99513  -0.288  10.793   2.901 -0.5229  1.2917  0.0788
  738MOL0     C99514  -0.343  10.881   2.818  1.1879  0.9168 -0.3691
  738MOL0     C99515  -0.481  10.870   2.748  0.2004  0.6579  0.3769
  738MOL0     C99516  -0.596  10.841   2.847 -0.6758 -0.4008  0.1494
  738MOL0     C99517  -0.605  10.962   2.940 -0.2432 -0.3902 -0.3018
  738MOL0     C99518  -0.709  10.962   3.056 -0.4077 -0.3788  0.6386
  738MOL0     O99519  -0.706  11.094   3.124  0.1489  0.3492 -0.1337
  738MOL0     C99520  -0.770  11.085   3.245  0.7907  0.4994 -0.2879
  738MOL0     C99521  -0.913  11.091   3.261 -0.3265 -0.9325 -0.7185
  738MOL0     C99522  -0.967  11.082   3.393  0.0684 -0.1341 -0.2987
  738MOL0     C99523  -1.129  11.073   3.396 -0.4282 -0.4766  0.3939
  738MOL0     C99524  -0.888  11.066   3.509  0.6308  0.5037  0.3185
  738MOL0     C99525  -0.945  11.030   3.642  0.2113 -0.7578  0.3176
  738MOL0     O99526  -0.856  10.979   3.727  0.2595 -0.1312  0.7014
  738MOL0     C99527  -0.886  10.986   3.860 -0.4354 -1.0777 -0.1139
  738MOL0     C99528  -0.879  11.113   3.925  0.0509  1.3820  0.4362
  738MOL0     C99529  -0.916  11.133   4.058 -0.1685 -0.3013 -0.5474
  738MOL0     C99530  -0.968  11.026   4.129 -0.1900 -0.5267  0.6092
  738MOL0     O99531  -0.997  11.031   4.263  0.0219  0.6170  0.8506
  738MOL0     C99532  -0.910  11.114   4.349 -0.1289 -0.8301  0.3083
  738MOL0     C99533  -0.972  11.120   4.486 -0.2366 -0.2482  0.2509
  738MOL0     C99534  -0.877  11.145   4.605  0.5835  1.0434 -0.1554
  738MOL0     C99535  -0.942  11.114   4.741  0.1484 -0.3486  0.0239
  738MOL0     C99536  -0.856  11.193   4.845 -0.7272  0.6739 -0.0498
  738MOL0     C99537  -0.930  11.180   4.990 -0.3613 -0.1518 -0.8824
  738MOL0     C99538  -0.855  11.232   5.109 -0.2979 -0.7602  0.2041
  738MOL0     C99539  -0.728  11.159   5.152 -0.2916  0.6636 -0.7075
  738MOL0    Cl99540  -0.771  11.010   5.253 -0.3012  0.5988  0.2890
  738MOL0     C99541  -0.985  10.898   4.061 -0.6607 -0.3240  0.6430
  738MOL0     C99542  -0.951  10.874   3.931  0.1048 -0.0426  0.1328
  738MOL0     O99543  -1.054  11.073   3.668  0.1894 -0.5436 -0.0945
  738MOL0     C99544  -0.750  11.055   3.483 -0.4295  0.3541  0.0959
  738MOL0     C99545  -0.684  11.074   3.357 -0.1218  0.5270  0.7298
  738MOL0     N99546  -0.253  10.975   2.778 -0.1271  0.2331  0.1035
  738MOL0     N99547  -0.137  10.952   2.829  0.9058  0.2473 -0.2886
  738MOL0     C99548   0.241   9.674   2.678 -0.2209 -0.0234  0.4599
  738MOL0     C99549   0.248   9.546   2.628  0.6892  0.2313  0.6082
  738MOL0     C99550   0.420   9.101   2.550 -0.8333  0.1927  0.2904
  738MOL0     C99551   0.291   9.064   2.527 -0.6244 -0.5316  0.3481
  738MOL0     C99552   0.255   8.941   2.480  0.1743  0.7569  0.1236
  738MOL0     C99553   0.342   8.845   2.442  0.1778  0.7313 -0.3213
  738MOL0     O99554   0.313   8.719   2.399 -0.3211 -0.1135 -0.7473
  738MOL0     C99555   0.177   8.678   2.372 -0.3274  1.0258  0.2914
  738MOL0     C99556   0.133   8.720   2.231  0.3808 -0.1467 -0.8194
  738MOL0     C99557   0.228   8.683   2.123 -0.4396 -0.3834 -0.0138
  738MOL0     C99558   0.172   8.678   1.985  0.1397  0.1286 -0.2472
  738MOL0     C99559   0.282   8.643   1.899 -1.1316  0.2769  0.2512
  738MOL0     C99560   0.378   8.621   1.822  1.0426  0.1249 -0.2289
  738MOL0     C99561   0.478   8.879   2.468  0.7874  1.0775  0.4188
  738MOL0     C99562   0.518   9.001   2.524  0.6020 -0.7410 -1.3420
  738MOL0     H99563   0.521   9.435   2.814  0.3982 -0.7350 -1.3565
  738MOL0     H99564   0.496   9.645   2.915  0.2644  1.6525 -0.4379
  738MOL0     H99565   0.168   9.903   2.749 -0.6389  1.4914  0.9812
  738MOL0     H99566   0.150   9.900   2.921  2.7538  3.6178  5.0139
  738MOL0     H99567   0.329  10.069   2.956 -1.8232 -3.1229  1.4954
  738MOL0     H99568   0.323  10.094   2.772  1.0570 -0.5469  0.8657
  738MOL0     H99569   0.093  10.152   2.794  0.4124  1.1914 -0.3831
  738MOL0     H99570   0.086  10.125   2.962 -1.5291  1.3001  0.1410
  738MOL0     H99571   0.243  10.316   3.005  0.2971  3.1299 -0.4063
  738MOL0     H99572   0.249  10.346   2.827  3.0499  0.8860  2.7980
  738MOL0     H99573   0.006  10.372   2.842 -1.6194  1.2611  1.4304
  738MOL0     H99574   0.031  10.334   3.021  0.6525  0.7703  1.2784
  738MOL0     H99575   0.129  10.567   3.046 -0.2435  0.3826  0.3165
  738MOL0     H99576   0.151  10.576   2.865  0.2347  0.3405 -0.4979
  738MOL0     H99577  -0.123  10.575   2.883  1.9684 -1.0440 -1.4163
  738MOL0     H99578  -0.086  10.577   3.054 -0.6533 -1.1393 -1.3300
  738MOL0     H99579   0.035  10.790   2.900  1.8608  0.1186  3.6861
  738MOL0     H99580  -0.035  10.782   3.071  0.5231 -1.7956  0.6991
  738MOL0     H99581  -0.313  10.693   2.935  0.7126  0.4094 -1.4516
  738MOL0     H99582  -0.501  10.964   2.696 -1.6881  1.3213  2.1832
  738MOL0     H99583  -0.472  10.797   2.667  4.9108  1.7618 -0.4053
  738MOL0     H99584  -0.564  10.751   2.901 -0.4111 -0.4548 -0.0962
  738MOL0     H99585  -0.695  10.816   2.807  0.2979 -3.8570 -0.4685
  738MOL0     H99586  -0.620  11.050   2.877  0.3217  1.2604  1.7479
  738MOL0     H99587  -0.514  10.976   3.000 -0.2620  1.6277 -0.7044
  738MOL0     H99588  -0.679  10.891   3.134 -0.9454  0.1710  1.3683
  738MOL0     H99589  -0.809  10.954   3.011 -0.4670 -0.0695  0.7170
  738MOL0     H99590  -0.970  11.110   3.170 -0.1051 -3.2987 -1.4187
  738MOL0     H99591  -1.155  10.975   3.436  0.1676 -1.6557 -1.9630
  738MOL0     H99592  -1.166  11.158   3.454 -0.5641 -1.1233  1.2697
  738MOL0     H99593  -1.158  11.089   3.292  1.3739  2.1671  0.1804
  738MOL0     H99594  -0.843  11.199   3.869  5.7744 -1.1790 -0.5262
  738MOL0     H99595  -0.869  11.219   4.105  1.5172  0.0986 -2.7922
  738MOL0     H99596  -0.809  11.076   4.333  0.6784  2.0856 -2.7262
  738MOL0     H99597  -0.901  11.219   4.319 -2.4752 -0.4958  0.5817
  738MOL0     H99598  -1.060  11.185   4.487 -0.2173 -0.1346 -1.6199
  738MOL0     H99599  -1.014  11.021   4.506  2.2361 -1.3696  0.2212
  738MOL0     H99600  -0.842  11.249   4.603  2.4234  0.4554 -1.9024
  738MOL0     H99601  -0.792  11.081   4.582 -0.8184 -0.8294 -0.3561
  738MOL0     H99602  -1.045  11.151   4.734  0.2968 -0.0488 -0.5923
  738MOL0     H99603  -0.934  11.007   4.762 -1.7511 -0.4101  0.6517
  738MOL0     H99604  -0.841  11.299   4.823  1.8694  0.7042  1.4763
  738MOL0     H99605  -0.761  11.141   4.856 -1.6443 -0.6223  2.4152
  738MOL0     H99606  -1.026  11.233   4.989  0.3846  1.2490 -2.3586
  738MOL0     H99607  -0.944  11.072   5.001  0.1134 -0.2512 -1.2505
  738MOL0     H99608  -0.937  11.227   5.182 -2.6337 -0.2996 -2.1961
  738MOL0     H99609  -0.830  11.337   5.091  2.3952 -1.0320  1.7949
  738MOL0     H99610  -0.663  11.217   5.219 -0.7770  0.5773 -0.1592
  738MOL0     H99611  -0.680  11.137   5.055 -1.8202 -3.6329 -0.7041
  738MOL0     H99612  -1.042  10.817   4.106  0.8924 -0.8095  1.8079
  738MOL0     H99613  -0.971  10.782   3.878  0.0450 -0.1049  0.2654
  738MOL0     H99614  -0.685  11.048   3.570  0.0162 -0.7127 -0.3056
  738MOL0     H99615  -0.577  11.077   3.341 -0.3355  0.6904 -0.7810
  738MOL0     H99616   0.159   9.739   2.648 -1.4611 -0.7653  2.0465
  738MOL0     H99617   0.182   9.517   2.547  4.1127  0.8757 -2.6834
  738MOL0     H99618   0.219   9.141   2.551 -0.2615 -0.7213  2.2062
  738MOL0     H99619   0.148   8.923   2.478 -0.0681  2.1918 -0.4811
  738MOL0     H99620   0.185   8.569   2.369  0.5738  1.0850  0.1724
  738MOL0     H99621   0.104   8.711   2.446 -2.9348  1.4187 -2.2738
  738MOL0     H99622   0.101   8.824   2.226  1.5441  0.3004  0.4790
  738MOL0     H99623   0.044   8.659   2.208  0.4473 -0.9671  0.9309
  738MOL0     H99624   0.278   8.589   2.149 -1.5472 -1.5494 -1.8455
  738MOL0     H99625   0.312   8.753   2.123 -1.9902  1.6313 -2.0075
  738MOL0     H99626   0.127   8.777   1.970 -2.6548 -0.4378  3.1305
  738MOL0     H99627   0.091   8.605   1.977 -0.2970  0.5546  0.1980
  738MOL0     H99628   0.465   8.590   1.769  0.8415  4.5032 -3.7375
  738MOL0     H99629   0.547   8.798   2.443 -2.0524 -0.5347 -3.0399
  738MOL0     H99630   0.623   9.023   2.540  0.9097 -0.0058 -3.9198
  739MOL0     O99631   8.972   2.825   6.276 -0.1236  0.2263  0.6379
  739MOL0     C99632   8.890   2.821   6.186 -0.3345 -0.1078  0.6060
  739MOL0     O99633   8.886   2.728   6.089 -0.4059 -0.6158  0.8652
  739MOL0     C99634   8.977   2.623   6.100 -0.1125  0.9993 -0.2558
  739MOL0     C99635   8.926   2.482   6.119 -0.9501 -0.3287  0.9765
  739MOL0     C99636   9.011   2.374   6.121 -0.2428  0.0573 -0.0501
  739MOL0     C99637   9.155   2.405   6.098 -0.0057 -0.4997 -0.1159
  739MOL0     O99638   9.232   2.291   6.081  1.0499  0.0679 -0.2132
  739MOL0     C99639   9.359   2.282   6.138  0.1976  0.7785 -0.5563
  739MOL0     C99640   9.362   2.157   6.220 -0.1904  1.0296 -0.6836
  739MOL0     C99641   9.393   2.039   6.126  0.3062 -0.7351  0.1961
  739MOL0     C99642   9.409   1.917   6.212  0.0719 -0.1103  0.3234
  739MOL0     C99643   9.474   1.809   6.123  0.2011  0.1612 -0.3818
  739MOL0     C99644   9.492   1.675   6.208  0.5266 -0.8528  0.2919
  739MOL0     C99645   9.366   1.606   6.243 -0.0749 -0.1344 -0.2377
  739MOL0     C99646   9.380   1.448   6.223 -0.3963 -0.6510  0.1164
  739MOL0     N99647   9.265   1.367   6.256  0.4029  0.3742  0.1926
  739MOL0     C99648   9.255   1.237   6.209 -1.2234 -0.3829  0.2769
  739MOL0     C99649   9.132   1.194   6.256 -0.4819  0.3278  0.7064
  739MOL0     C99650   9.077   1.054   6.251  0.5764  0.7317 -0.0878
  739MOL0     C99651   9.102   0.998   6.110  0.0239 -0.4055 -0.8043
  739MOL0     C99652   9.090   0.850   6.097  0.1132  1.0670 -0.0941
  739MOL0     C99653   8.969   0.791   6.169 -1.1055 -0.3083  0.4309
  739MOL0     O99654   8.847   0.818   6.101 -0.1098  0.7084  0.0989
  739MOL0     C99655   8.742   0.731   6.072 -0.3644 -0.8634  0.6508
  739MOL0     C99656   8.642   0.779   5.993 -0.1549 -1.1890  0.4666
  739MOL0     C99657   8.526   0.713   5.961 -0.2656  0.9023 -0.0507
  739MOL0     C99658   8.434   0.791   5.879  0.3637  0.6141  0.8207
  739MOL0     C99659   8.520   0.576   5.989 -0.2558 -0.6190  0.1106
  739MOL0     C99660   8.402   0.500   5.944 -0.0324  0.2193 -0.2279
  739MOL0     O99661   8.370   0.383   6.005 -0.5895  0.1853 -0.1782
  739MOL0     C99662   8.276   0.295   5.946 -0.9004  0.3012  0.0440
  739MOL0     C99663   8.137   0.303   5.965  1.3625 -0.5893  0.4809
  739MOL0     C99664   8.056   0.222   5.892 -0.6015  0.2366 -0.5066
  739MOL0     C99665   8.097   0.114   5.813 -0.1482 -0.2388 -0.2845
  739MOL0     O99666   8.009   0.038   5.742  0.1870  0.9953  1.7331
  739MOL0     C99667   7.870   0.086   5.708 -0.8758  0.3741 -0.0785
  739MOL0     C99668   7.806   0.032   5.576  0.3903 -1.2525 -0.3648
  739MOL0     C99669   7.662   0.073   5.545  0.0195 -0.0034  1.3898
  739MOL0     C99670   7.627   0.037   5.395 -0.2121  0.7006  0.5416
  739MOL0     C99671   7.482   0.028   5.378  0.9160 -0.3351  0.1225
  739MOL0     C99672   7.441  -0.062   5.256  0.5795 -1.2522  0.0676
  739MOL0     C99673   7.297  -0.081   5.249  0.2318 -0.7873  0.7036
  739MOL0     C99674   7.239  -0.201   5.310 -0.2127 -0.1709 -0.7376
  739MOL0    Cl99675   7.278  -0.207   5.485  0.1569  0.2712 -0.4962
  739MOL0     C99676   8.239   0.097   5.811  0.2137 -0.9728 -0.3154
  739MOL0     C99677   8.332   0.190   5.864  0.3193  0.2147  0.8905
  739MOL0     O99678   8.358   0.529   5.829  0.4663  1.1247 -0.4834
  739MOL0     C99679   8.615   0.517   6.072 -0.1427 -0.6260  0.8157
  739MOL0     C99680   8.723   0.598   6.119  0.6397  0.3018 -0.1483
  739MOL0     N99681   9.075   1.300   6.327 -0.2399  0.6325  0.3861
  739MOL0     N99682   9.148   1.403   6.324 -0.4928  0.1497  0.0041
  739MOL0     C99683   9.196   2.529   6.076  0.3974 -0.0825  0.1981
  739MOL0     C99684   9.110   2.639   6.081 -0.4701 -0.8736  0.2712
  739MOL0     C99685   8.777   2.911   6.190 -0.8564  0.6063  0.3974
  739MOL0     C99686   8.647   2.869   6.152  0.0732  0.5501 -1.0619
  739MOL0     C99687   8.540   2.955   6.184  0.1612 -0.4972 -0.6485
  739MOL0     C99688   8.552   3.090   6.238  0.1626  0.0822 -0.6895
  739MOL0     O99689   8.445   3.178   6.238 -0.7614 -0.3820 -0.0403
  739MOL0     C99690   8.482   3.320   6.222  0.6630  0.6183 -0.5646
  739MOL0     C99691   8.360   3.401   6.202 -0.3871 -0.7655 -0.2199
  739MOL0     C99692   8.320   3.427   6.062  0.2218  0.2277  0.5014
  739MOL0     C99693   8.181   3.503   6.049  0.7207 -0.0283 -0.0107
  739MOL0     C99694   8.079   3.400   6.068  0.0695  0.1353 -0.3024
  739MOL0     C99695   7.984   3.323   6.086 -0.5483 -0.9325 -0.0144
  739MOL0     C99696   8.676   3.122   6.293 -0.4594  0.1991  0.4933
  739MOL0     C99697   8.786   3.040   6.258  0.2770 -0.8651 -0.8885
  739MOL0     H99698   8.821   2.456   6.131 -0.5194 -1.2826  3.2767
  739MOL0     H99699   8.979   2.271   6.133  0.3956  0.1050  2.8832
  739MOL0     H99700   9.443   2.282   6.068  1.2516  0.6831  0.6902
  739MOL0     H99701   9.382   2.365   6.206  0.1276  1.7605 -1.6893
  739MOL0     H99702   9.441   2.169   6.294 -1.2708  1.0303  0.4938
  739MOL0     H99703   9.271   2.144   6.279 -0.0785  2.3448 -0.2084
  739MOL0     H99704   9.323   2.022   6.044 -0.5643  1.6515  0.3490
  739MOL0     H99705   9.483   2.070   6.071 -0.6626  0.9015 -0.5788
  739MOL0     H99706   9.473   1.930   6.300 -1.4419 -0.5431  1.5420
  739MOL0     H99707   9.305   1.886   6.226 -1.0444  3.2032  0.4071
  739MOL0     H99708   9.413   1.800   6.033 -0.9414  2.1181  0.1481
  739MOL0     H99709   9.576   1.838   6.095  0.5497  0.9150  1.5368
  739MOL0     H99710   9.548   1.605   6.146  2.0707  0.1583  0.4886
  739MOL0     H99711   9.551   1.697   6.297 -0.4533 -0.4242  0.8489
  739MOL0     H99712   9.342   1.616   6.350 -0.4540 -1.7180 -0.1425
  739MOL0     H99713   9.288   1.640   6.175 -0.3285  1.8289  0.9615
  739MOL0     H99714   9.464   1.413   6.283 -1.5257 -0.5007  1.8647
  739MOL0     H99715   9.401   1.430   6.117  1.4986 -3.8731  0.9286
  739MOL0     H99716   9.335   1.183   6.159 -1.1132  0.5188 -0.5463
  739MOL0     H99717   9.130   1.002   6.331  1.1456  0.9965 -0.2889
  739MOL0     H99718   8.972   1.045   6.280  0.2244  0.2292 -1.4606
  739MOL0     H99719   9.201   1.024   6.072 -1.8730  3.3147 -3.8411
  739MOL0     H99720   9.026   1.033   6.040  1.4789 -0.6083 -2.5310
  739MOL0     H99721   9.170   0.802   6.155 -0.6910  0.2728  0.3692
  739MOL0     H99722   9.095   0.836   5.989 -1.0581  2.1175 -0.3106
  739MOL0     H99723   8.980   0.838   6.267  1.3999  1.1635 -0.4766
  739MOL0     H99724   8.986   0.683   6.177 -3.0875 -0.7843 -0.9435
  739MOL0     H99725   8.653   0.882   5.960 -1.1253 -2.0093 -2.7888
  739MOL0     H99726   8.428   0.898   5.901  1.0881  0.1990  3.4220
  739MOL0     H99727   8.469   0.784   5.776  1.5148  0.0077  1.2290
  739MOL0     H99728   8.331   0.755   5.888 -0.2218  2.4365  1.8438
  739MOL0     H99729   8.081   0.372   6.027 -0.4354 -0.7591 -0.8780
  739MOL0     H99730   7.950   0.247   5.892 -0.5312  0.6717 -2.1350
  739MOL0     H99731   7.803   0.073   5.793  1.4975  0.5319  1.9470
  739MOL0     H99732   7.876   0.195   5.699  1.0947  0.3171  0.1602
  739MOL0     H99733   7.866   0.058   5.488  1.0309 -2.5497 -0.3381
  739MOL0     H99734   7.797  -0.076   5.589  0.8575 -1.4508 -1.5599
  739MOL0     H99735   7.660   0.182   5.553 -0.9675  0.0700  0.3900
  739MOL0     H99736   7.583   0.036   5.610 -2.2585  1.4110 -0.4157
  739MOL0     H99737   7.666   0.106   5.319 -1.5730  0.7328 -0.1582
  739MOL0     H99738   7.663  -0.066   5.387  0.1457  0.8526  0.1709
  739MOL0     H99739   7.434   0.123   5.352  0.6927  0.3794  2.9140
  739MOL0     H99740   7.434  -0.018   5.464  0.8124 -0.8697 -0.2094
  739MOL0     H99741   7.466   0.002   5.170 -0.9793 -1.1177 -0.3236
  739MOL0     H99742   7.489  -0.160   5.252  1.1201 -1.1211  2.3741
  739MOL0     H99743   7.267  -0.066   5.145  2.6448  2.5416  0.2975
  739MOL0     H99744   7.243   0.005   5.289 -0.2237 -0.4199 -0.6306
  739MOL0     H99745   7.269  -0.292   5.257 -0.9196  0.3851 -2.1299
  739MOL0     H99746   7.130  -0.198   5.301 -0.2459 -0.4048 -0.4331
  739MOL0     H99747   8.276   0.033   5.732  0.0915  0.7416 -1.8498
  739MOL0     H99748   8.438   0.183   5.842  0.6119  0.6634  2.1107
  739MOL0     H99749   8.610   0.413   6.101 -5.4700 -1.2016 -0.9415
  739MOL0     H99750   8.785   0.540   6.187  1.0311 -1.1549 -1.6697
  739MOL0     H99751   9.302   2.547   6.066 -0.0698  2.5830 -0.9758
  739MOL0     H99752   9.158   2.735   6.063  0.1159 -1.1552  0.3086
  739MOL0     H99753   8.626   2.772   6.107 -1.9692 -0.5033  1.8036
  739MOL0     H99754   8.440   2.922   6.158 -0.6208  0.6444  0.7484
  739MOL0     H99755   8.540   3.361   6.305  0.2175 -0.9295  0.5646
  739MOL0     H99756   8.549   3.316   6.136  1.6472 -1.1308  0.2371
  739MOL0     H99757   8.370   3.494   6.259  1.4193 -1.2605  0.3355
  739MOL0     H99758   8.282   3.357   6.264  1.7493 -1.2645  2.2593
  739MOL0     H99759   8.306   3.336   6.004  1.7956  0.3586 -0.1355
  739MOL0     H99760   8.399   3.482   6.011  0.0649  0.7947  0.8515
  739MOL0     H99761   8.167   3.553   5.952 -0.4373 -0.3821 -0.0331
  739MOL0     H99762   8.178   3.573   6.134 -0.8552 -0.1654  0.0626
  739MOL0     H99763   7.892   3.278   6.118 -0.1829 -2.4750 -1.0400
  739MOL0     H99764   8.686   3.217   6.343 -0.0935  0.1109  0.5925
  739MOL0     H99765   8.883   3.078   6.286  0.1851 -1.8449  0.8954
  740MOL0     O99766  11.450   1.662  11.143  0.1805  0.0939  0.1866
  740MOL0     C99767  11.474   1.709  11.258 -0.4537 -0.6766  0.1614
  740MOL0     O99768  11.435   1.653  11.381 -0.3055  0.4184  0.6391
  740MOL0     C99769  11.350   1.544  11.381 -0.4143  0.4141  0.5209
  740MOL0     C99770  11.400   1.406  11.394 -0.6281  0.1098  0.9666
  740MOL0     C99771  11.309   1.298  11.405 -0.4359 -0.0224 -0.6206
  740MOL0     C99772  11.168   1.321  11.403 -0.0081  0.1092  0.0608
  740MOL0     O99773  11.073   1.224  11.417  0.3617  0.1042 -0.4975
  740MOL0     C99774  10.931   1.235  11.376  0.1055 -0.9724 -0.4446
  740MOL0     C99775  10.914   1.268  11.220 -0.4549 -0.0310  0.4334
  740MOL0     C99776  10.990   1.168  11.119 -0.6669 -0.0779 -0.7562
  740MOL0     C99777  11.021   1.032  11.187  0.1409 -0.0612 -0.4017
  740MOL0     C99778  11.058   0.927  11.087 -0.5635  0.5295  0.7142
  740MOL0     C99779  10.937   0.857  11.016 -0.9548  0.1845 -0.2193
  740MOL0     C99780  10.848   0.779  11.116 -0.7098  0.3082 -0.3016
  740MOL0     C99781  10.720   0.726  11.040  0.5424 -0.9893 -0.7231
  740MOL0     N99782  10.642   0.631  11.115 -0.2304  0.0916 -0.0002
  740MOL0     C99783  10.665   0.506  11.149 -0.1892  0.3013  0.3973
  740MOL0     C99784  10.550   0.456  11.211  0.2689  0.8328 -0.2117
  740MOL0     C99785  10.525   0.315  11.271  0.2101  0.4393 -0.3337
  740MOL0     C99786  10.554   0.203  11.166  0.6176 -0.0084  0.7343
  740MOL0     C99787  10.515   0.057  11.215 -0.1727  0.0401  0.1083
  740MOL0     C99788  10.553  -0.060  11.123  0.3033 -0.3589 -0.3591
  740MOL0     O99789  10.695  -0.049  11.100 -0.0750 -0.0560  0.7384
  740MOL0     C99790  10.759  -0.165  11.062  0.0814 -0.0608 -0.2868
  740MOL0     C99791  10.719  -0.261  10.968 -0.4565 -0.5922 -0.5638
  740MOL0     C99792  10.799  -0.367  10.939  0.8772 -0.7554  0.0720
  740MOL0     C99793  10.720  -0.459  10.842  0.0874  0.4580  0.1165
  740MOL0     C99794  10.934  -0.374  10.993  0.1286 -0.9811  0.1255
  740MOL0     C99795  11.028  -0.482  10.936  0.0811  0.8041  0.4832
  740MOL0     O99796  11.142  -0.511  11.011  0.1942  0.9023 -0.1409
  740MOL0     C99797  11.233  -0.605  10.963 -1.1521  0.3243 -0.3761
  740MOL0     C99798  11.285  -0.601  10.837 -0.6228 -0.2853  0.4736
  740MOL0     C99799  11.393  -0.684  10.797  0.0669 -0.5182  0.1893
  740MOL0     C99800  11.452  -0.772  10.898  0.3892  0.2173  0.2632
  740MOL0     O99801  11.556  -0.858  10.875 -0.1257 -0.6148  0.0192
  740MOL0     C99802  11.583  -0.908  10.741  0.1863 -0.0857 -0.0705
  740MOL0     C99803  11.603  -1.057  10.748 -0.6905  0.1758  0.1778
  740MOL0     C99804  11.480  -1.139  10.808  0.2844 -0.6256  0.7178
  740MOL0     C99805  11.356  -1.135  10.718 -0.4521 -0.6778  0.2776
  740MOL0     C99806  11.253  -1.241  10.756 -0.1480  0.2318 -0.2024
  740MOL0     C99807  11.194  -1.229  10.895  1.1104  0.5059 -0.1423
  740MOL0     C99808  11.078  -1.321  10.918  0.4109  0.4777 -0.3610
  740MOL0     C99809  10.996  -1.262  11.031 -0.6450 -0.3690  0.1873
  740MOL0    Cl99810  11.094  -1.230  11.175  0.1184  0.5824 -0.3859
  740MOL0     C99811  11.385  -0.781  11.016  0.2096 -0.3020  0.2750
  740MOL0     C99812  11.285  -0.692  11.050  0.1379 -0.5170 -0.0661
  740MOL0     O99813  10.998  -0.540  10.830 -0.5166 -0.4110  0.5680
  740MOL0     C99814  10.970  -0.285  11.095  1.2377 -1.2279  0.2240
  740MOL0     C99815  10.882  -0.183  11.120 -0.4583  0.0241  0.0356
  740MOL0     N99816  10.451   0.555  11.219 -0.4380 -0.5972 -0.2303
  740MOL0     N99817  10.521   0.657  11.167  0.1809  0.3369 -0.6813
  740MOL0     C99818  11.124   1.455  11.376  0.8297 -0.3293 -0.1783
  740MOL0     C99819  11.215   1.558  11.360 -0.4192 -0.2781  0.9458
  740MOL0     C99820  11.547   1.831  11.258  0.3284 -1.0581 -0.2845
  740MOL0     C99821  11.652   1.860  11.166 -0.3555  0.7453 -0.8823
  740MOL0     C99822  11.726   1.990  11.167  0.3879  1.5519 -0.7090
  740MOL0     C99823  11.713   2.084  11.272  0.6522 -0.0703 -0.1564
  740MOL0     O99824  11.797   2.191  11.258 -0.7460 -0.3394  0.1620
  740MOL0     C99825  11.770   2.313  11.332 -0.2692 -0.4732  0.3384
  740MOL0     C99826  11.892   2.383  11.383  0.2987  0.9865  0.0161
  740MOL0     C99827  11.998   2.407  11.271 -0.6165  0.9518 -0.0003
  740MOL0     C99828  12.124   2.472  11.318 -0.4759 -1.8556  0.8157
  740MOL0     C99829  12.112   2.623  11.331  1.2601  0.5059  0.4605
  740MOL0     C99830  12.111   2.746  11.344  0.6140 -0.2445 -0.0627
  740MOL0     C99831  11.608   2.051  11.362 -0.4328 -0.9848  0.1956
  740MOL0     C99832  11.526   1.935  11.360  0.1010 -0.1811 -0.0577
  740MOL0     H99833  11.505   1.391  11.416 -0.0570  2.6686  0.2604
  740MOL0     H99834  11.344   1.196  11.414 -0.8683  0.0039  2.2728
  740MOL0     H99835  10.887   1.138  11.402  1.1609 -1.1130  0.9584
  740MOL0     H99836  10.873   1.310  11.431 -1.0899  0.4144 -3.3361
  740MOL0     H99837  10.806   1.251  11.215 -0.6333 -0.1901  3.2274
  740MOL0     H99838  10.935   1.372  11.191  1.4819 -0.9899 -1.9937
  740MOL0     H99839  10.928   1.136  11.035  1.0333  2.9352 -3.3603
  740MOL0     H99840  11.083   1.209  11.079 -0.8409  2.5018  1.2268
  740MOL0     H99841  11.101   1.045  11.261 -2.0844 -1.4911  2.4651
  740MOL0     H99842  10.942   0.994  11.253  1.3002 -2.2402 -0.1688
  740MOL0     H99843  11.121   0.968  11.008  1.4108  0.4349  2.1479
  740MOL0     H99844  11.122   0.857  11.141 -0.4186  1.2711  1.5261
  740MOL0     H99845  10.881   0.930  10.958  1.1332  0.7162 -1.7070
  740MOL0     H99846  10.978   0.782  10.948 -1.5767 -0.1444 -0.2382
  740MOL0     H99847  10.907   0.699  11.163 -1.7693 -1.1463 -1.3580
  740MOL0     H99848  10.808   0.841  11.196 -2.9983 -2.5380  0.9373
  740MOL0     H99849  10.733   0.675  10.944  3.1327  0.8334 -1.4741
  740MOL0     H99850  10.654   0.814  11.041  1.4829 -0.2705  0.5339
  740MOL0     H99851  10.748   0.445  11.117 -1.1285 -1.8819  1.9600
  740MOL0     H99852  10.599   0.298  11.350 -2.0852 -0.8389  1.6662
  740MOL0     H99853  10.424   0.321  11.314  0.4032 -1.4348  0.4431
  740MOL0     H99854  10.651   0.195  11.117 -1.4490 -1.8442 -3.6085
  740MOL0     H99855  10.492   0.225  11.078  0.8238 -0.6196  0.4282
  740MOL0     H99856  10.406   0.047  11.221 -0.2854  1.8188  3.3007
  740MOL0     H99857  10.543   0.040  11.320 -1.1634 -0.7625  0.2564
  740MOL0     H99858  10.501  -0.054  11.027 -0.7859  0.6772  0.2638
  740MOL0     H99859  10.535  -0.154  11.176  0.7550  0.8029  1.9922
  740MOL0     H99860  10.634  -0.255  10.900 -0.1689 -5.3537 -1.6875
  740MOL0     H99861  10.777  -0.469  10.749 -2.1015  5.3414 -2.1297
  740MOL0     H99862  10.706  -0.561  10.877  1.4272  0.0840 -0.3775
  740MOL0     H99863  10.619  -0.421  10.823  0.7339  4.0532  2.7163
  740MOL0     H99864  11.246  -0.529  10.765  2.3605  0.0062 -0.9668
  740MOL0     H99865  11.440  -0.685  10.699  2.0834 -1.8588  1.0971
  740MOL0     H99866  11.500  -0.875  10.677 -0.7903 -0.9683  0.6929
  740MOL0     H99867  11.671  -0.862  10.696  0.0582 -0.9161 -1.2398
  740MOL0     H99868  11.628  -1.105  10.652 -4.5678  0.3543 -1.0720
  740MOL0     H99869  11.686  -1.070  10.818 -1.0746 -0.8668  0.4536
  740MOL0     H99870  11.458  -1.102  10.909  1.5046 -1.4040  1.2818
  740MOL0     H99871  11.509  -1.243  10.822  0.9140 -2.0305 -6.6467
  740MOL0     H99872  11.318  -1.033  10.717  0.3135 -0.3939 -0.7643
  740MOL0     H99873  11.391  -1.153  10.616  2.3914 -0.3167  1.1092
  740MOL0     H99874  11.312  -1.332  10.741  0.5545  0.6516  0.0037
  740MOL0     H99875  11.176  -1.254  10.679 -0.9046 -2.7785  0.8953
  740MOL0     H99876  11.279  -1.255  10.959  4.4574  3.2439 -3.0614
  740MOL0     H99877  11.188  -1.120  10.903  4.3097  0.7978 -0.2671
  740MOL0     H99878  11.117  -1.422  10.937  0.3341  0.3590 -0.8276
  740MOL0     H99879  11.011  -1.319  10.832  0.2930  4.0092 -0.3228
  740MOL0     H99880  10.906  -1.318  11.058 -0.3924 -1.5454 -1.3004
  740MOL0     H99881  10.954  -1.165  11.005  0.9483  0.5515  0.9309
  740MOL0     H99882  11.427  -0.844  11.094  0.6971  0.0415  0.2981
  740MOL0     H99883  11.246  -0.681  11.150 -2.1252 -0.1118 -0.9148
  740MOL0     H99884  11.049  -0.284  11.170 -0.8634 -0.4021  2.5827
  740MOL0     H99885  10.894  -0.100  11.189 -1.0688  0.7090 -0.6672
  740MOL0     H99886  11.021   1.487  11.361  0.7904  0.9162  2.2765
  740MOL0     H99887  11.183   1.660  11.345 -0.5651 -0.5153 -0.6193
  740MOL0     H99888  11.665   1.780  11.094 -1.2274 -1.1523  0.9709
  740MOL0     H99889  11.807   2.013  11.098  1.6601 -0.1176  0.1397
  740MOL0     H99890  11.719   2.383  11.265 -0.8956  0.6085  1.8850
  740MOL0     H99891  11.703   2.308  11.418  0.4416  4.3755  1.4566
  740MOL0     H99892  11.943   2.322  11.459  3.1145  0.1113 -2.3916
  740MOL0     H99893  11.854   2.471  11.435 -2.5569 -2.1507  4.0164
  740MOL0     H99894  11.954   2.464  11.189  0.1883  1.9447  0.2374
  740MOL0     H99895  12.029   2.308  11.237  2.3411  1.3745  1.1679
  740MOL0     H99896  12.198   2.468  11.237 -1.6960  2.1264 -0.7628
  740MOL0     H99897  12.153   2.423  11.411 -0.8223  0.2564  2.1109
  740MOL0     H99898  12.123   2.849  11.370 -3.5088  0.6138 -0.8906
  740MOL0     H99899  11.598   2.126  11.441 -0.3749  0.1976 -0.8796
  740MOL0     H99900  11.444   1.928  11.431 -0.5138 -2.1369 -0.8930
  741MOL0     O99901  10.928   1.525  10.464 -0.1087 -0.0650 -0.5672
  741MOL0     C99902  10.901   1.612  10.380  0.4408 -0.1558  0.0559
  741MOL0     O99903  10.976   1.721  10.346  0.4634  0.0870 -1.2316
  741MOL0     C99904  11.089   1.741  10.422  0.2906 -0.1005  0.0144
  741MOL0     C99905  11.196   1.652  10.417  0.1786 -0.4737  0.0837
  741MOL0     C99906  11.322   1.697  10.467  0.0238  0.2788 -0.3562
  741MOL0     C99907  11.344   1.824  10.527  0.3641 -0.0290  1.0522
  741MOL0     O99908  11.457   1.856  10.596  0.3987 -0.3057 -0.2425
  741MOL0     C99909  11.433   1.889  10.732 -0.2577  0.1604  0.7680
  741MOL0     C99910  11.565   1.964  10.774  0.6506  0.5178  0.2456
  741MOL0     C99911  11.550   2.112  10.748 -0.3407  0.2489 -0.6743
  741MOL0     C99912  11.653   2.205  10.805 -0.2594  0.1782  0.1455
  741MOL0     C99913  11.788   2.202  10.725  0.0950 -0.1125  0.3425
  741MOL0     C99914  11.906   2.265  10.812  0.6720 -0.2057 -0.7995
  741MOL0     C99915  12.036   2.270  10.742 -0.1141 -0.2503  0.6606
  741MOL0     C99916  12.124   2.388  10.777 -0.4117 -0.6946  0.1569
  741MOL0     N99917  12.236   2.367  10.688  0.2339 -0.6150  0.2960
  741MOL0     C99918  12.245   2.385  10.550 -0.3867  0.2631  0.5377
  741MOL0     C99919  12.354   2.319  10.508 -0.8743 -1.3308 -0.9222
  741MOL0     C99920  12.422   2.328  10.377  0.2657 -0.2372 -0.3677
  741MOL0     C99921  12.342   2.331  10.254  0.1913  0.2611 -0.1592
  741MOL0     C99922  12.409   2.360  10.120 -0.2029  0.9920 -0.3161
  741MOL0     C99923  12.302   2.357  10.011 -0.2884 -0.2037 -0.2214
  741MOL0     O99924  12.366   2.399   9.881 -0.5116  0.1617  0.2072
  741MOL0     C99925  12.297   2.438   9.767 -0.2959 -0.2993  0.3833
  741MOL0     C99926  12.372   2.484   9.659 -0.1246  0.1191  0.2568
  741MOL0     C99927  12.321   2.508   9.531  0.2854  0.7218 -0.0653
  741MOL0     C99928  12.418   2.567   9.432  0.4163  0.5346 -0.7267
  741MOL0     C99929  12.188   2.472   9.512  0.3320 -0.8987 -1.5892
  741MOL0     C99930  12.124   2.473   9.384  0.8818  1.1855  0.4265
  741MOL0     O99931  11.989   2.505   9.367 -1.0357  0.1204 -0.0724
  741MOL0     C99932  11.920   2.482   9.246 -1.5518  0.1954 -0.7118
  741MOL0     C99933  11.986   2.531   9.135  0.9187 -0.7782  0.2913
  741MOL0     C99934  11.921   2.511   9.015  0.0414 -0.4014  0.0356
  741MOL0     C99935  11.802   2.455   9.007  0.3232  0.6856 -0.1958
  741MOL0     O99936  11.759   2.437   8.877  0.4857 -0.2139 -0.1596
  741MOL0     C99937  11.616   2.437   8.849 -0.8180  0.5092  0.3035
  741MOL0     C99938  11.584   2.477   8.697 -0.2653 -0.6184  0.1570
  741MOL0     C99939  11.611   2.363   8.596 -0.5984  0.1110  0.4806
  741MOL0     C99940  11.742   2.363   8.523 -0.4092  0.0368 -0.8731
  741MOL0     C99941  11.753   2.257   8.408  0.7649 -0.1704 -0.0142
  741MOL0     C99942  11.693   2.319   8.292  1.5934 -0.9293  0.4200
  741MOL0     C99943  11.751   2.275   8.160 -0.6779  0.6391 -0.2939
  741MOL0     C99944  11.814   2.396   8.100 -1.1381 -1.3388  0.7152
  741MOL0    Cl99945  11.889   2.343   7.939  0.0245 -0.0471 -0.0221
  741MOL0     C99946  11.738   2.411   9.119  1.2594 -1.0377 -0.0070
  741MOL0     C99947  11.800   2.418   9.242 -0.0294  0.3758  0.1154
  741MOL0     O99948  12.198   2.419   9.297 -0.2249 -0.2678  0.2141
  741MOL0     C99949  12.107   2.433   9.618 -0.5135  0.0211  0.7852
  741MOL0     C99950  12.163   2.422   9.748  0.6479 -0.0196 -0.2817
  741MOL0     N99951  12.414   2.269  10.617 -0.4917 -0.3799 -0.2991
  741MOL0     N99952  12.337   2.281  10.720 -0.1691 -0.7810 -0.8008
  741MOL0     C99953  11.245   1.916  10.517  0.8288 -0.3820  0.4364
  741MOL0     C99954  11.120   1.877  10.470 -0.0680  0.5441 -0.8350
  741MOL0     C99955  10.795   1.565  10.283  0.0074  0.0325  0.3248
  741MOL0     C99956  10.755   1.648  10.182  1.1069  0.0070  0.2028
  741MOL0     C99957  10.665   1.618  10.086  0.3265  0.2426 -0.7826
  741MOL0     C99958  10.614   1.484  10.081 -0.7256 -0.1649 -0.0186
  741MOL0     O99959  10.544   1.445   9.966 -0.4238 -0.5570 -1.1954
  741MOL0     C99960  10.456   1.330   9.970 -0.2654  0.7326 -0.2033
  741MOL0     C99961  10.375   1.349   9.840  0.2356 -0.1798  0.2217
  741MOL0     C99962  10.264   1.242   9.802 -0.4466  0.3484 -0.1435
  741MOL0     C99963  10.138   1.244   9.889  0.0962  0.2517  0.4727
  741MOL0     C99964  10.082   1.385   9.898 -0.0475 -0.0994  0.0140
  741MOL0     C99965  10.053   1.503   9.884  0.1617  0.3837  0.2423
  741MOL0     C99966  10.643   1.403  10.194  0.0312  0.5226 -0.2769
  741MOL0     C99967  10.731   1.436  10.298  0.8813  0.2980  0.4165
  741MOL0     H99968  11.181   1.556  10.369  0.8785 -0.8815  0.6638
  741MOL0     H99969  11.404   1.626  10.470 -0.8064 -0.9157 -2.8861
  741MOL0     H99970  11.352   1.963  10.739  0.1837  0.7106  0.1985
  741MOL0     H99971  11.426   1.800  10.794 -1.9997 -0.6198 -0.4662
  741MOL0     H99972  11.576   1.944  10.881 -1.2555 -1.1918  0.1886
  741MOL0     H99973  11.648   1.925  10.715 -1.1005 -0.6639 -1.5729
  741MOL0     H99974  11.548   2.134  10.641  0.3067 -1.6432 -1.1109
  741MOL0     H99975  11.454   2.138  10.794 -0.1443  0.0151 -0.1205
  741MOL0     H99976  11.608   2.303  10.824 -0.0428 -0.1332  2.6548
  741MOL0     H99977  11.672   2.165  10.905  4.0838 -0.6971 -0.8209
  741MOL0     H99978  11.798   2.097  10.696  1.7476  0.5276 -1.6547
  741MOL0     H99979  11.767   2.262  10.636  1.3142  3.4857  2.2714
  741MOL0     H99980  11.883   2.369  10.836  0.4904  0.2885 -2.9733
  741MOL0     H99981  11.913   2.226  10.915 -1.1886  0.0352 -0.5537
  741MOL0     H99982  12.085   2.173  10.755  1.3262 -0.1666 -3.0258
  741MOL0     H99983  12.022   2.274  10.634  1.4442 -3.1424  0.2626
  741MOL0     H99984  12.141   2.392  10.885  0.9922  1.8258 -0.0584
  741MOL0     H99985  12.082   2.485  10.746  2.4383  0.0116 -1.9216
  741MOL0     H99986  12.171   2.431  10.485 -1.2591 -1.8566 -0.0371
  741MOL0     H99987  12.466   2.426  10.360 -2.3684  1.1921  0.6086
  741MOL0     H99988  12.501   2.252  10.371 -0.3627 -0.9933  0.4955
  741MOL0     H99989  12.275   2.416  10.266 -2.0085 -1.6306  2.3565
  741MOL0     H99990  12.289   2.237  10.232  0.2074  0.4162 -0.8790
  741MOL0     H99991  12.481   2.281  10.099  0.9459  1.6841  0.8625
  741MOL0     H99992  12.460   2.457  10.121 -2.7315  2.4351 -0.1526
  741MOL0     H99993  12.230   2.433  10.044  2.8253  2.0029  2.0967
  741MOL0     H99994  12.278   2.251  10.002  0.0735 -0.4436  1.3534
  741MOL0     H99995  12.477   2.497   9.681  0.3745 -1.8280 -0.6855
  741MOL0     H99996  12.481   2.486   9.394  2.3092  0.9589  1.2857
  741MOL0     H99997  12.366   2.623   9.354  0.6760  2.6817  0.5703
  741MOL0     H99998  12.480   2.640   9.484 -0.5177 -0.8699  2.6216
  741MOL0     H99999  12.074   2.593   9.139 -0.5810  1.4425  0.6459
  741MOL0     H    0  11.963   2.551   8.924 -2.7878 -0.8567 -1.5844
  741MOL0     H    1  11.565   2.341   8.863 -1.0773  0.6381  0.2454
  741MOL0     H    2  11.579   2.514   8.917  3.2565  0.2881  3.1699
  741MOL0     H    3  11.479   2.504   8.709  0.2397  1.2388  0.7416
  741MOL0     H    4  11.631   2.567   8.657 -4.1777  0.7888 -1.6953
  741MOL0     H    5  11.542   2.373   8.511  1.8287 -0.1456 -1.6141
  741MOL0     H    6  11.590   2.267   8.645 -1.1015  0.2621  0.5761
  741MOL0     H    7  11.766   2.465   8.492 -3.0750  1.2875  0.8716
  741MOL0     H    8  11.817   2.347   8.602  0.4355  1.9422 -1.2294
  741MOL0     H    9  11.698   2.166   8.433  0.9852 -1.0967 -2.6194
  741MOL0     H   10  11.855   2.232   8.381  0.8328 -0.6758  0.6878
  741MOL0     H   11  11.586   2.296   8.282  1.8780 -1.5757 -1.6352
  741MOL0     H   12  11.695   2.428   8.292 -1.4022 -0.7761  1.4314
  741MOL0     H   13  11.665   2.238   8.103 -1.9458 -0.4357  2.1508
  741MOL0     H   14  11.814   2.188   8.181 -3.5181 -0.9925  2.4207
  741MOL0     H   15  11.897   2.424   8.165  1.5561  1.0812 -3.3043
  741MOL0     H   16  11.752   2.485   8.087  0.8003  0.3345  2.3300
  741MOL0     H   17  11.640   2.368   9.134  0.8363  0.2567  1.1667
  741MOL0     H   18  11.741   2.377   9.324  0.5949 -1.7159 -0.4443
  741MOL0     H   19  12.004   2.410   9.593 -1.2591  1.4061  2.3826
  741MOL0     H   20  12.100   2.391   9.831  0.9828 -0.4495 -0.1899
  741MOL0     H   21  11.247   2.016  10.559 -0.2647  0.3535 -1.1320
  741MOL0     H   22  11.040   1.950  10.476  0.9438  1.8425 -2.4048
  741MOL0     H   23  10.803   1.745  10.166 -0.6138  0.5598 -2.3514
  741MOL0     H   24  10.635   1.671   9.995  1.9341  0.0869 -1.4335
  741MOL0     H   25  10.515   1.238   9.974 -0.3243  0.6763 -0.6028
  741MOL0     H   26  10.390   1.319  10.057  1.8242 -2.0454  1.1932
  741MOL0     H   27  10.440   1.336   9.752 -0.9152 -0.4686 -0.6035
  741MOL0     H   28  10.335   1.450   9.829 -0.4677 -0.6332 -1.8589
  741MOL0     H   29  10.303   1.140   9.811 -3.1096 -0.9476 -1.8198
  741MOL0     H   30  10.229   1.259   9.699 -0.7567  2.6781  0.3039
  741MOL0     H   31  10.168   1.215   9.989  0.5254 -1.8622 -0.2319
  741MOL0     H   32  10.068   1.166   9.860 -2.4166  2.2227  0.8305
  741MOL0     H   33  10.045   1.609   9.873  2.9728  0.7684  1.3249
  741MOL0     H   34  10.603   1.302  10.204  1.7655 -0.2076 -0.3115
  741MOL0     H   35  10.751   1.375  10.385  0.7768 -0.3440  0.0026
  742MOL0     O   36   7.716  11.042   0.889  0.3633 -0.0866 -0.3928
  742MOL0     C   37   7.712  10.921   0.871  0.0227  0.0103  1.1199
  742MOL0     O   38   7.826  10.838   0.877 -0.6454  0.1250  1.0289
  742MOL0     C   39   7.948  10.887   0.918  0.4944 -0.0916 -0.6674
  742MOL0     C   40   7.954  10.941   1.049  0.5128 -1.0287 -0.0703
  742MOL0     C   41   8.067  11.015   1.091 -0.1671  0.0773 -0.4714
  742MOL0     C   42   8.175  11.034   1.007  0.4797  0.3543 -0.4472
  742MOL0     O   43   8.278  11.101   1.054 -0.1128 -0.0394  0.0961
  742MOL0     C   44   8.412  11.047   1.027 -0.3394  0.5036 -0.2964
  742MOL0     C   45   8.513  11.094   1.129  0.2230 -0.7780  0.1288
  742MOL0     C   46   8.649  11.100   1.072 -0.3987  0.5384  0.6069
  742MOL0     C   47   8.748  11.137   1.177  0.2179 -0.6389 -0.7546
  742MOL0     C   48   8.887  11.149   1.122 -0.3755 -0.2890  0.4087
  742MOL0     C   49   8.980  11.178   1.239  0.4369  0.0193  0.8163
  742MOL0     C   50   9.103  11.252   1.187  0.4537  0.3185 -0.7298
  742MOL0     C   51   9.167  11.172   1.076 -0.3168 -0.0742  0.0601
  742MOL0     N   52   9.264  11.253   1.006 -0.1106 -0.3231  0.8419
  742MOL0     C   53   9.250  11.323   0.908  0.0807 -0.0953  0.1944
  742MOL0     C   54   9.379  11.374   0.883  0.6677 -0.1503 -0.7549
  742MOL0     C   55   9.415  11.467   0.764 -1.4948  0.3612 -0.8284
  742MOL0     C   56   9.492  11.392   0.644 -0.3833  0.1724 -0.4367
  742MOL0     C   57   9.609  11.314   0.688 -0.3023  0.0982  0.4985
  742MOL0     C   58   9.706  11.290   0.572  0.2307  1.3716 -0.8673
  742MOL0     O   59   9.746  11.399   0.488  0.4180 -0.1258 -0.1976
  742MOL0     C   60   9.828  11.356   0.385  0.1837  0.2104 -0.3535
  742MOL0     C   61   9.793  11.376   0.255 -0.2681 -0.0380 -0.1515
  742MOL0     C   62   9.869  11.336   0.145 -0.3456  0.1670  0.9585
  742MOL0     C   63   9.801  11.358   0.008 -0.5593  0.0437  0.2536
  742MOL0     C   64  10.004  11.277   0.163  0.2469 -0.8914  0.3341
  742MOL0     C   65  10.087  11.230   0.041  0.8387  0.6809 -0.6378
  742MOL0     O   66  10.059  11.294  -0.076 -0.6085 -0.3661  0.9827
  742MOL0     C   67  10.133  11.266  -0.190  0.0475  0.1708  0.0472
  742MOL0     C   68  10.188  11.371  -0.257 -0.0788 -0.6288 -0.2897
  742MOL0     C   69  10.243  11.353  -0.381 -0.5377  0.2870  0.1834
  742MOL0     C   70  10.284  11.227  -0.435  0.4945  0.2110 -0.8985
  742MOL0     O   71  10.334  11.199  -0.556  0.1252  0.0151  0.3051
  742MOL0     C   72  10.311  11.295  -0.658 -0.0414 -0.1026  0.9503
  742MOL0     C   73  10.306  11.228  -0.797 -0.3475 -0.8833 -1.0905
  742MOL0     C   74  10.273  11.347  -0.897  0.9247  0.5700  0.1281
  742MOL0     C   75  10.190  11.299  -1.024 -0.2010 -0.8276 -0.2338
  742MOL0     C   76  10.268  11.195  -1.102 -0.0494  0.0280 -0.5256
  742MOL0     C   77  10.179  11.136  -1.215 -1.0661 -0.3779 -0.2319
  742MOL0     C   78  10.277  11.086  -1.314 -0.3856  0.4100  0.2637
  742MOL0     C   79  10.198  10.987  -1.408 -0.4826 -0.5943 -0.0781
  742MOL0    Cl   80  10.148  10.844  -1.312  0.4887  0.1286  0.3025
  742MOL0     C   81  10.239  11.119  -0.351  0.3690  0.3161 -0.8919
  742MOL0     C   82  10.169  11.140  -0.234  0.0831  0.8697 -0.8711
  742MOL0     O   83  10.169  11.143   0.061  0.1189  0.3279 -0.1242
  742MOL0     C   84  10.037  11.258   0.300  0.1568 -0.5806  1.0285
  742MOL0     C   85   9.949  11.304   0.409 -0.8145  0.4308  0.2034
  742MOL0     N   86   9.457  11.337   0.995  0.2703  0.1312  0.6705
  742MOL0     N   87   9.383  11.263   1.072  0.6605 -0.8821  0.4549
  742MOL0     C   88   8.177  10.963   0.881  0.1589  1.1284  0.0726
  742MOL0     C   89   8.065  10.891   0.840  1.4405  0.4667  1.1066
  742MOL0     C   90   7.586  10.855   0.846  0.1356 -0.0228 -0.2631
  742MOL0     C   91   7.471  10.919   0.803 -0.6641  0.0510  1.1580
  742MOL0     C   92   7.350  10.852   0.784  0.0636 -0.0182 -0.4392
  742MOL0     C   93   7.344  10.713   0.805 -0.0956 -0.0342  0.3629
  742MOL0     O   94   7.220  10.660   0.787  0.1086 -0.6912 -0.0104
  742MOL0     C   95   7.200  10.530   0.744 -0.1012  0.4528  0.3167
  742MOL0     C   96   7.074  10.528   0.658  0.0118 -0.0272  0.3379
  742MOL0     C   97   7.092  10.624   0.531 -0.1052 -0.7947 -0.0047
  742MOL0     C   98   6.954  10.671   0.488 -0.8875 -0.5739  0.0949
  742MOL0     C   99   6.860  10.564   0.440 -0.8985 -0.4595 -0.2009
  742MOL0     C  100   6.780  10.487   0.381  0.4295  0.0788 -0.8236
  742MOL0     C  101   7.458  10.642   0.837 -0.4534 -0.4722  0.1821
  742MOL0     C  102   7.571  10.711   0.861  0.1714  0.2729  0.3278
  742MOL0     H  103   7.870  10.926   1.117 -0.2680 -0.3865 -0.8579
  742MOL0     H  104   8.062  11.050   1.194 -1.0444 -0.5943 -0.2715
  742MOL0     H  105   8.423  10.938   1.025 -1.7285  0.3093  0.7360
  742MOL0     H  106   8.448  11.084   0.931  1.3729  3.6333  1.3798
  742MOL0     H  107   8.492  11.193   1.172  0.2068 -0.9765  0.5843
  742MOL0     H  108   8.503  11.030   1.218 -0.8251  1.2631  1.5628
  742MOL0     H  109   8.683  11.008   1.022 -0.3042  0.3719  0.9772
  742MOL0     H  110   8.662  11.187   1.006 -0.4854 -2.0076 -3.0926
  742MOL0     H  111   8.732  11.239   1.214 -2.0598 -0.5621 -1.7793
  742MOL0     H  112   8.755  11.064   1.258  4.7887  1.4039  1.0173
  742MOL0     H  113   8.909  11.055   1.070 -0.5210 -0.3923  0.5345
  742MOL0     H  114   8.890  11.232   1.050 -0.0292  0.0653  0.8252
  742MOL0     H  115   8.925  11.228   1.319 -0.5554 -1.0305  0.8116
  742MOL0     H  116   9.008  11.080   1.280  1.1200 -0.6986 -1.2373
  742MOL0     H  117   9.070  11.347   1.146 -0.7271 -0.1096 -0.8234
  742MOL0     H  118   9.177  11.272   1.265 -0.4309 -0.2411  0.2853
  742MOL0     H  119   9.097  11.127   1.005 -2.2101  1.0538  1.1237
  742MOL0     H  120   9.221  11.098   1.135 -4.4393  0.5669  5.3185
  742MOL0     H  121   9.158  11.341   0.853 -0.5650  1.7283  1.7595
  742MOL0     H  122   9.322  11.495   0.715 -2.6272 -1.1004  0.3889
  742MOL0     H  123   9.471  11.553   0.802  0.2139 -0.3029 -1.7406
  742MOL0     H  124   9.522  11.465   0.569 -0.6033  2.2995  1.4250
  742MOL0     H  125   9.422  11.329   0.588  0.0308 -2.4317  1.7618
  742MOL0     H  126   9.578  11.215   0.723 -0.3378  0.1476  0.6046
  742MOL0     H  127   9.669  11.373   0.758  1.2324  0.1027 -0.7547
  742MOL0     H  128   9.647  11.220   0.512  1.6799 -0.7553  0.0544
  742MOL0     H  129   9.793  11.231   0.604  0.9231  2.3132 -0.9599
  742MOL0     H  130   9.700  11.430   0.239 -0.0496 -0.2780 -2.6955
  742MOL0     H  131   9.773  11.261  -0.033 -2.4392  1.4877 -2.1667
  742MOL0     H  132   9.715  11.425   0.015 -0.0240  0.8330 -0.5418
  742MOL0     H  133   9.858  11.417  -0.064 -0.2885  0.9996  1.2146
  742MOL0     H  134  10.160  11.466  -0.214 -0.4198 -2.1500  3.1825
  742MOL0     H  135  10.265  11.440  -0.441 -2.0922  1.2698  0.9657
  742MOL0     H  136  10.220  11.355  -0.648  0.1674  0.4970 -0.5118
  742MOL0     H  137  10.402  11.357  -0.658  0.1512 -0.1518 -2.7497
  742MOL0     H  138  10.400  11.179  -0.825  0.6984  1.2071 -1.4004
  742MOL0     H  139  10.221  11.160  -0.783 -1.2241  0.1423 -1.3203
  742MOL0     H  140  10.372  11.383  -0.928  2.0122 -0.8307  1.8141
  742MOL0     H  141  10.212  11.425  -0.850  0.9124  0.0263  1.0184
  742MOL0     H  142  10.095  11.254  -0.995  0.9001 -4.2065 -1.3836
  742MOL0     H  143  10.167  11.382  -1.091 -2.4522 -2.7841 -2.0524
  742MOL0     H  144  10.303  11.119  -1.031  0.1819  2.7128  2.4859
  742MOL0     H  145  10.360  11.236  -1.146 -0.0636 -0.0336 -0.6137
  742MOL0     H  146  10.120  11.055  -1.171 -0.9011 -1.5243 -2.0233
  742MOL0     H  147  10.128  11.226  -1.251 -0.1457  0.9843  1.6310
  742MOL0     H  148  10.363  11.031  -1.274  0.8396 -0.0147 -2.7378
  742MOL0     H  149  10.325  11.160  -1.379  1.6317  0.1782  1.3924
  742MOL0     H  150  10.259  10.952  -1.492 -0.7905 -0.1077 -0.5153
  742MOL0     H  151  10.117  11.041  -1.458  1.1327  2.1093 -0.0175
  742MOL0     H  152  10.261  11.019  -0.388  1.7870 -0.0502  0.8227
  742MOL0     H  153  10.135  11.060  -0.169 -0.9250  1.6939 -0.3448
  742MOL0     H  154  10.133  11.210   0.316  0.2514  0.0040  2.2878
  742MOL0     H  155   9.978  11.285   0.512 -4.8358 -2.6308  0.9986
  742MOL0     H  156   8.269  10.970   0.824 -0.6562  2.3228 -1.1852
  742MOL0     H  157   8.067  10.833   0.749  0.9398  1.6820  0.2866
  742MOL0     H  158   7.490  11.025   0.788  0.2422 -0.2708 -0.2484
  742MOL0     H  159   7.266  10.914   0.755  0.9047  1.1927 -0.3468
  742MOL0     H  160   7.285  10.503   0.681  1.2397 -1.9236  2.9439
  742MOL0     H  161   7.190  10.457   0.825 -0.3159 -0.5261 -0.5745
  742MOL0     H  162   6.987  10.557   0.718 -1.4336 -0.0428 -1.6318
  742MOL0     H  163   7.054  10.424   0.628 -0.1358 -0.4751  1.9030
  742MOL0     H  164   7.160  10.578   0.458  1.4020 -0.8525  1.3600
  742MOL0     H  165   7.141  10.719   0.555  0.6064 -0.5025 -2.3926
  742MOL0     H  166   6.962  10.747   0.409  1.6782 -0.8547  0.0219
  742MOL0     H  167   6.908  10.726   0.571 -1.1229 -0.1388 -0.3137
  742MOL0     H  168   6.711  10.419   0.336  0.7855  1.3873 -3.5596
  742MOL0     H  169   7.460  10.536   0.858 -1.9159 -0.6575 -0.4728
  742MOL0     H  170   7.659  10.657   0.897 -0.2312  0.0014  0.9175
  743MOL0     O  171   6.257   0.754   1.113  0.4134  0.1393  0.1040
  743MOL0     C  172   6.365   0.701   1.132  0.2695 -0.0026 -0.4769
  743MOL0     O  173   6.408   0.583   1.078 -0.0294  0.0540 -0.3788
  743MOL0     C  174   6.311   0.501   1.017 -0.3694 -0.0149 -0.0429
  743MOL0     C  175   6.300   0.371   1.071 -0.2450 -0.4694 -0.3938
  743MOL0     C  176   6.193   0.288   1.039 -0.6390 -0.1182 -0.9609
  743MOL0     C  177   6.103   0.317   0.940 -0.1205  0.1012  0.1844
  743MOL0     O  178   6.000   0.237   0.938 -0.3873  0.1178  0.2278
  743MOL0     C  179   5.976   0.175   0.811 -0.2554  0.2024  0.8428
  743MOL0     C  180   5.953   0.026   0.833 -0.2726 -0.9163  0.1700
  743MOL0     C  181   5.816  -0.009   0.874 -0.6323 -0.0661 -0.7608
  743MOL0     C  182   5.802  -0.155   0.902  1.1436 -0.9166 -0.3456
  743MOL0     C  183   5.660  -0.181   0.954  0.2498  0.2105 -0.0694
  743MOL0     C  184   5.571  -0.269   0.871  0.3257  0.2440  0.2243
  743MOL0     C  185   5.630  -0.408   0.875  0.1582 -0.0049 -1.0399
  743MOL0     C  186   5.543  -0.510   0.806  0.0424  0.7228 -0.9921
  743MOL0     N  187   5.541  -0.495   0.662 -0.4031 -0.3066 -0.1263
  743MOL0     C  188   5.429  -0.459   0.585 -0.3200 -0.2258 -0.3740
  743MOL0     C  189   5.462  -0.489   0.464  0.9852  1.0146 -0.3788
  743MOL0     C  190   5.374  -0.456   0.345 -0.2154  0.3468  0.5067
  743MOL0     C  191   5.442  -0.485   0.212  0.0107 -0.0814  0.7247
  743MOL0     C  192   5.348  -0.465   0.097  0.9079 -0.3883  0.2634
  743MOL0     C  193   5.316  -0.604   0.032 -0.9280 -0.3624  0.2732
  743MOL0     O  194   5.186  -0.602  -0.023  1.1110 -0.4827 -0.3970
  743MOL0     C  195   5.119  -0.727  -0.025  0.6598 -0.2542 -0.4620
  743MOL0     C  196   5.111  -0.808   0.094 -0.4308  0.4442 -0.3565
  743MOL0     C  197   5.068  -0.943   0.079  0.1423  0.1671  0.2405
  743MOL0     C  198   5.053  -1.026   0.206  0.3299 -1.4039 -0.1226
  743MOL0     C  199   5.045  -0.995  -0.057  0.0761 -0.0461  0.7304
  743MOL0     C  200   4.975  -1.138  -0.085 -0.4529 -1.0348  0.3812
  743MOL0     O  201   4.918  -1.157  -0.203 -0.1618 -0.6334 -0.3687
  743MOL0     C  202   4.920  -1.289  -0.251  0.5171  0.0113  0.1206
  743MOL0     C  203   4.825  -1.334  -0.332  0.1319  0.3572 -0.3868
  743MOL0     C  204   4.826  -1.464  -0.396  0.4689 -0.8098  0.0492
  743MOL0     C  205   4.930  -1.547  -0.364 -0.0997  0.1421 -0.1283
  743MOL0     O  206   4.922  -1.670  -0.426  0.6170 -0.5494 -0.2446
  743MOL0     C  207   5.008  -1.777  -0.390  0.4918  0.5369  0.8809
  743MOL0     C  208   4.958  -1.855  -0.279 -0.2430 -0.0340 -0.3250
  743MOL0     C  209   5.050  -1.984  -0.263 -0.3879  0.5915  0.5751
  743MOL0     C  210   4.979  -2.087  -0.170 -0.3579 -0.1712 -1.2809
  743MOL0     C  211   4.971  -2.045  -0.017  0.1038 -0.1972 -0.5886
  743MOL0     C  212   5.101  -2.059   0.046 -0.7781 -0.5167  0.7741
  743MOL0     C  213   5.101  -1.997   0.182 -1.2783 -0.2282  1.3843
  743MOL0     C  214   5.039  -2.087   0.294 -0.3126 -0.7674  0.3732
  743MOL0    Cl  215   5.080  -2.039   0.454 -0.0263 -0.0480  0.0806
  743MOL0     C  216   5.026  -1.513  -0.271  0.6320 -0.0830 -0.1334
  743MOL0     C  217   5.031  -1.379  -0.236 -0.1379  0.0755  0.7861
  743MOL0     O  218   4.983  -1.213   0.009  0.5582 -0.3770 -0.7918
  743MOL0     C  219   5.062  -0.907  -0.162  0.6642  0.8025  0.3729
  743MOL0     C  220   5.095  -0.777  -0.150 -0.0733  0.3509  0.2021
  743MOL0     N  221   5.588  -0.535   0.456  0.9263  0.4192 -0.1316
  743MOL0     N  222   5.632  -0.533   0.576 -0.5254 -0.5682  0.6229
  743MOL0     C  223   6.104   0.446   0.883  0.8378 -0.9648 -0.5343
  743MOL0     C  224   6.209   0.537   0.923  0.1745  0.7996 -0.3565
  743MOL0     C  225   6.463   0.765   1.216 -0.3401 -0.8239 -0.8218
  743MOL0     C  226   6.436   0.882   1.285 -0.1845  0.6798 -0.1887
  743MOL0     C  227   6.540   0.942   1.365  0.4709  0.6898  0.0917
  743MOL0     C  228   6.665   0.886   1.390 -0.5048 -1.2928 -0.4255
  743MOL0     O  229   6.753   0.940   1.483  0.1063 -0.4572  0.1734
  743MOL0     C  230   6.892   0.907   1.454 -0.1025  0.0548  0.0409
  743MOL0     C  231   6.977   1.008   1.526 -0.1226  0.8520  0.0379
  743MOL0     C  232   6.958   1.007   1.680  0.0488  0.5546 -0.0743
  743MOL0     C  233   7.092   1.055   1.753  0.3882 -0.4545  0.4898
  743MOL0     C  234   7.075   1.061   1.895  0.9008  0.3764  0.2260
  743MOL0     C  235   7.054   1.084   2.010 -0.2620  0.3573  0.5095
  743MOL0     C  236   6.686   0.768   1.320  0.2234  0.5761 -0.3366
  743MOL0     C  237   6.587   0.715   1.238  0.7963 -0.3686  0.4710
  743MOL0     H  238   6.365   0.336   1.150  0.3062 -1.3739 -1.2302
  743MOL0     H  239   6.191   0.192   1.090  1.7841 -0.2340 -0.9563
  743MOL0     H  240   5.882   0.220   0.778  0.0160  1.1272  1.3112
  743MOL0     H  241   6.061   0.191   0.745 -0.5409 -1.6895 -0.0426
  743MOL0     H  242   5.978  -0.031   0.744 -0.6411  0.0184 -0.5476
  743MOL0     H  243   6.028  -0.009   0.905  2.1371 -0.3167 -1.9282
  743MOL0     H  244   5.805   0.042   0.970  2.0304 -2.0102  0.7263
  743MOL0     H  245   5.739   0.027   0.806 -2.9526 -2.9981  0.1166
  743MOL0     H  246   5.815  -0.212   0.810 -0.6164 -0.5386 -0.8741
  743MOL0     H  247   5.874  -0.189   0.977  2.0460 -1.4259 -1.4303
  743MOL0     H  248   5.670  -0.227   1.053 -0.4812 -1.5415 -0.7888
  743MOL0     H  249   5.612  -0.083   0.962  1.9023  1.2128 -1.6341
  743MOL0     H  250   5.472  -0.260   0.917  1.8674 -1.4962  4.4325
  743MOL0     H  251   5.561  -0.233   0.768  0.7831  0.0976  0.1262
  743MOL0     H  252   5.732  -0.398   0.836  0.2038  0.7338 -0.7523
  743MOL0     H  253   5.631  -0.438   0.980  0.2338 -1.0059 -1.3139
  743MOL0     H  254   5.443  -0.522   0.847  0.2029  0.9778 -0.5134
  743MOL0     H  255   5.587  -0.609   0.824  1.3603  1.5961  0.9368
  743MOL0     H  256   5.336  -0.422   0.626 -0.6306 -1.3316 -0.0421
  743MOL0     H  257   5.280  -0.511   0.354  0.0931 -0.5716 -1.4907
  743MOL0     H  258   5.335  -0.354   0.354  1.5345  1.1474 -0.5666
  743MOL0     H  259   5.485  -0.586   0.215  0.2026  0.0125  1.1501
  743MOL0     H  260   5.520  -0.408   0.216 -0.4383  0.7552 -3.0679
  743MOL0     H  261   5.393  -0.400   0.022 -1.4069 -1.6543 -2.3971
  743MOL0     H  262   5.265  -0.407   0.140 -1.3460 -2.6967 -0.7395
  743MOL0     H  263   5.334  -0.684   0.105  1.4423  0.8048  1.0805
  743MOL0     H  264   5.390  -0.626  -0.045  0.6354  0.7484  1.3944
  743MOL0     H  265   5.138  -0.774   0.194  2.0148  2.6258 -1.6377
  743MOL0     H  266   5.105  -1.122   0.200  0.9188 -1.0446 -0.9748
  743MOL0     H  267   5.078  -0.970   0.297 -0.0985  0.5352 -1.1382
  743MOL0     H  268   4.945  -1.035   0.217  0.3435  0.3285  2.3276
  743MOL0     H  269   4.745  -1.264  -0.356 -1.9624 -1.4229  1.0245
  743MOL0     H  270   4.743  -1.492  -0.461 -1.5562  1.4049  1.5300
  743MOL0     H  271   5.004  -1.827  -0.487  2.8350  1.3253  0.3074
  743MOL0     H  272   5.104  -1.730  -0.369 -0.0593  1.3545  1.6416
  743MOL0     H  273   4.956  -1.785  -0.195 -1.3959  2.6278 -2.4105
  743MOL0     H  274   4.859  -1.894  -0.306  0.5772  0.0183 -3.7906
  743MOL0     H  275   5.150  -1.958  -0.228  0.8826 -0.9901 -1.5996
  743MOL0     H  276   5.071  -2.015  -0.366 -0.7825 -1.0639  0.9718
  743MOL0     H  277   4.873  -2.091  -0.197 -0.7623 -1.2685  0.2900
  743MOL0     H  278   5.035  -2.181  -0.174 -0.0271  0.0256 -1.2184
  743MOL0     H  279   4.900  -2.103   0.043  0.9478 -1.1761 -0.4997
  743MOL0     H  280   4.942  -1.940  -0.013  0.8614  0.0163  2.6122
  743MOL0     H  281   5.147  -2.157   0.054  0.7142  0.1201  0.3261
  743MOL0     H  282   5.169  -2.002  -0.018 -1.4851 -0.4091  0.1073
  743MOL0     H  283   5.050  -1.901   0.190 -1.3836  0.1189 -1.9886
  743MOL0     H  284   5.207  -1.980   0.197 -0.9530 -0.9061  0.0503
  743MOL0     H  285   5.033  -2.194   0.270 -0.9292 -0.2042 -2.2993
  743MOL0     H  286   4.930  -2.074   0.288 -0.1706  0.8960  1.0869
  743MOL0     H  287   5.105  -1.575  -0.228 -0.8826 -1.1641  1.2027
  743MOL0     H  288   5.114  -1.365  -0.167 -0.9623  0.6900  1.6948
  743MOL0     H  289   5.050  -0.956  -0.258 -4.5847  1.8021  0.2567
  743MOL0     H  290   5.118  -0.714  -0.235  0.7099 -1.2415 -0.8082
  743MOL0     H  291   6.032   0.483   0.810 -0.5995  1.2818  1.8771
  743MOL0     H  292   6.209   0.637   0.881  0.3136  1.3314  0.8711
  743MOL0     H  293   6.342   0.937   1.279  0.8112  2.3246 -4.2110
  743MOL0     H  294   6.516   1.035   1.415 -0.7526  0.9103 -0.8484
  743MOL0     H  295   6.912   0.801   1.474  0.5589  0.4197  1.4597
  743MOL0     H  296   6.911   0.916   1.347  0.5406 -2.5392 -0.1465
  743MOL0     H  297   6.961   1.108   1.484  2.3059  0.2555 -2.6186
  743MOL0     H  298   7.081   0.979   1.511 -0.8614 -0.7285 -2.8000
  743MOL0     H  299   6.921   0.909   1.711 -0.8709  1.2267  0.9812
  743MOL0     H  300   6.875   1.072   1.708  0.2807  0.1827  1.5724
  743MOL0     H  301   7.115   1.153   1.710 -1.0173  0.0372  0.7975
  743MOL0     H  302   7.170   0.982   1.729  0.8944 -1.3069  4.1022
  743MOL0     H  303   7.053   1.082   2.117  0.8534  2.3031  0.6055
  743MOL0     H  304   6.778   0.711   1.335  1.2837  1.9520 -1.3580
  743MOL0     H  305   6.612   0.621   1.189  4.8744 -0.0060  1.5489
  744MOL0     O  306   5.622   3.981   1.834 -0.2718  0.8429 -0.0814
  744MOL0     C  307   5.513   3.931   1.865  0.1373  0.0688 -0.0925
  744MOL0     O  308   5.396   3.989   1.893 -0.1237 -0.0614  0.7095
  744MOL0     C  309   5.391   4.124   1.878 -0.0804  1.4372  0.3583
  744MOL0     C  310   5.282   4.179   1.813  0.6097  0.2425 -0.0524
  744MOL0     C  311   5.280   4.318   1.790 -0.8682 -0.2541 -0.3367
  744MOL0     C  312   5.384   4.397   1.832 -0.1675  0.3585 -0.8491
  744MOL0     O  313   5.380   4.529   1.810  0.0459 -0.8726 -0.3313
  744MOL0     C  314   5.404   4.623   1.912 -0.1605  0.1480 -0.5608
  744MOL0     C  315   5.502   4.726   1.845  0.4179 -0.6883  0.1272
  744MOL0     C  316   5.490   4.864   1.917 -0.6722 -0.4484  0.3833
  744MOL0     C  317   5.368   4.945   1.855 -1.1744 -0.2712 -0.0432
  744MOL0     C  318   5.382   5.083   1.906 -0.1550 -0.6624 -0.0434
  744MOL0     C  319   5.267   5.180   1.897  0.4127  0.3363  0.3539
  744MOL0     C  320   5.136   5.141   1.961  0.0159  0.1850  0.0579
  744MOL0     C  321   5.046   5.066   1.858  0.2269 -0.5553  0.6977
  744MOL0     N  322   4.917   5.053   1.913  0.5307 -0.8915 -0.7319
  744MOL0     C  323   4.865   4.948   1.981 -0.0146  0.0943 -0.8115
  744MOL0     C  324   4.746   4.984   2.040 -1.3366  0.2761 -0.1829
  744MOL0     C  325   4.678   4.894   2.150  0.7426 -0.2650  0.3017
  744MOL0     C  326   4.602   4.952   2.265 -1.2019 -0.6817  0.0164
  744MOL0     C  327   4.696   4.983   2.389 -0.6062 -0.2098 -0.4404
  744MOL0     C  328   4.623   5.037   2.518 -0.4600 -0.1667 -0.4540
  744MOL0     O  329   4.593   5.180   2.517 -0.3282  0.1052  0.4712
  744MOL0     C  330   4.566   5.237   2.642  1.0243 -0.3647 -0.6569
  744MOL0     C  331   4.620   5.363   2.673 -0.8898 -0.6584  0.7400
  744MOL0     C  332   4.585   5.428   2.792 -0.0289  0.4545 -0.0146
  744MOL0     C  333   4.643   5.567   2.808 -0.2956 -0.2167 -0.5756
  744MOL0     C  334   4.488   5.369   2.883 -1.3032  0.0628 -0.8670
  744MOL0     C  335   4.422   5.436   2.989  1.0062 -0.4577 -1.1263
  744MOL0     O  336   4.313   5.376   3.058 -0.6029  0.1106 -0.1211
  744MOL0     C  337   4.206   5.453   3.096 -0.8131 -0.4040  0.2336
  744MOL0     C  338   4.090   5.448   3.024  0.3349  0.5172 -0.1206
  744MOL0     C  339   3.980   5.514   3.068  0.3272  0.0547  0.0162
  744MOL0     C  340   3.977   5.577   3.202  0.6300 -0.3117 -0.1664
  744MOL0     O  341   3.855   5.632   3.232  0.3794 -0.5270 -0.3844
  744MOL0     C  342   3.852   5.716   3.351 -0.3331  0.2561 -0.9720
  744MOL0     C  343   3.823   5.629   3.478 -0.2418 -0.3535 -0.3720
  744MOL0     C  344   3.782   5.714   3.608 -0.4796 -0.3349 -0.1163
  744MOL0     C  345   3.922   5.762   3.666 -0.2102  0.2738 -0.4464
  744MOL0     C  346   3.909   5.856   3.775  0.0048 -0.8308  0.2958
  744MOL0     C  347   4.041   5.897   3.838  0.3035  0.7258  0.6393
  744MOL0     C  348   4.026   5.963   3.966  0.0250  0.1432 -0.0245
  744MOL0     C  349   4.161   5.995   4.018 -0.4832  0.3887 -0.1959
  744MOL0    Cl  350   4.193   6.166   3.990 -0.1109  0.0775  0.1249
  744MOL0     C  351   4.092   5.581   3.278  0.3493 -0.9066  0.1435
  744MOL0     C  352   4.206   5.520   3.226  0.5425 -0.2005  0.8792
  744MOL0     O  353   4.452   5.553   3.011  0.7912  0.0718 -0.0666
  744MOL0     C  354   4.444   5.241   2.849 -0.1712 -0.7444 -0.3835
  744MOL0     C  355   4.482   5.182   2.737  0.3306  0.5249  0.8094
  744MOL0     N  356   4.717   5.112   2.003 -0.3343  0.0286  0.9691
  744MOL0     N  357   4.820   5.150   1.930  0.5154 -0.1017  0.4862
  744MOL0     C  358   5.479   4.337   1.916 -1.0936  0.4125  0.6398
  744MOL0     C  359   5.487   4.201   1.936 -0.5075  0.5694 -0.3480
  744MOL0     C  360   5.521   3.779   1.857  0.2789  1.0358 -1.0945
  744MOL0     C  361   5.434   3.683   1.910 -0.0381 -0.6710 -0.6184
  744MOL0     C  362   5.454   3.550   1.899 -1.1285  0.1955  0.2035
  744MOL0     C  363   5.567   3.506   1.833  0.3946  0.6564  0.0384
  744MOL0     O  364   5.588   3.371   1.828  0.1811  0.8366 -0.0603
  744MOL0     C  365   5.628   3.307   1.949  0.0746  0.5533 -0.8228
  744MOL0     C  366   5.643   3.154   1.944 -0.9766  0.1148 -0.7605
  744MOL0     C  367   5.759   3.107   1.859  0.3261  0.6197  0.4128
  744MOL0     C  368   5.777   2.954   1.883 -0.6680  0.5269 -0.3422
  744MOL0     C  369   5.899   2.919   1.805  0.9794  0.0960 -0.1216
  744MOL0     C  370   5.995   2.876   1.742 -0.3960 -0.0257  0.9942
  744MOL0     C  371   5.656   3.580   1.771 -0.4786 -0.5990  0.2150
  744MOL0     C  372   5.632   3.721   1.785  0.0091 -0.5072  0.0798
  744MOL0     H  373   5.196   4.116   1.796 -1.8014  2.7412  1.9736
  744MOL0     H  374   5.208   4.357   1.719 -2.2979 -1.3200  0.4901
  744MOL0     H  375   5.309   4.678   1.918 -1.2652 -1.1753 -3.8002
  744MOL0     H  376   5.439   4.575   2.004  1.7692 -1.0898 -1.8695
  744MOL0     H  377   5.604   4.689   1.860  0.6178  0.7806  3.0879
  744MOL0     H  378   5.491   4.734   1.736 -0.8549 -0.6714  0.2407
  744MOL0     H  379   5.474   4.857   2.025 -0.2121  1.8498  0.6528
  744MOL0     H  380   5.581   4.917   1.888 -0.6202  0.0333  1.3902
  744MOL0     H  381   5.371   4.937   1.746  1.1450  4.0889 -0.5339
  744MOL0     H  382   5.272   4.904   1.889 -1.3471  1.5622  1.9306
  744MOL0     H  383   5.416   5.086   2.010 -2.3879 -1.3985  0.7837
  744MOL0     H  384   5.463   5.133   1.852 -0.7524  1.4548  0.9050
  744MOL0     H  385   5.302   5.275   1.937  2.3819  0.3584 -1.2309
  744MOL0     H  386   5.261   5.198   1.789  1.3476 -0.2647  0.1861
  744MOL0     H  387   5.154   5.079   2.049 -0.3941 -2.8992 -1.8800
  744MOL0     H  388   5.084   5.233   1.990  1.3285  0.7727  0.6500
  744MOL0     H  389   5.094   4.976   1.816  1.4736  0.6658 -0.6314
  744MOL0     H  390   5.043   5.127   1.767  0.0419  1.0723  1.7520
  744MOL0     H  391   4.903   4.848   2.002  1.5578  0.7279 -0.4986
  744MOL0     H  392   4.607   4.830   2.098 -2.1622  3.6084 -0.9044
  744MOL0     H  393   4.743   4.818   2.196 -0.5049 -1.3142  0.3806
  744MOL0     H  394   4.524   4.881   2.291  0.1763 -1.3324  2.7184
  744MOL0     H  395   4.557   5.040   2.217 -1.7296 -2.7301 -3.6354
  744MOL0     H  396   4.762   5.060   2.348  0.9424 -1.8152 -1.0838
  744MOL0     H  397   4.758   4.895   2.409 -1.2154 -0.8386 -1.2645
  744MOL0     H  398   4.676   5.010   2.610 -2.2470  3.5803  1.9096
  744MOL0     H  399   4.523   4.991   2.512  0.0351 -1.0664 -5.2085
  744MOL0     H  400   4.684   5.410   2.599 -0.6684 -1.3207  0.5126
  744MOL0     H  401   4.697   5.592   2.717  0.5340 -0.1470 -0.0707
  744MOL0     H  402   4.571   5.647   2.827 -1.6098 -0.8577 -2.5318
  744MOL0     H  403   4.703   5.566   2.899 -2.7615  3.6573  1.3730
  744MOL0     H  404   4.099   5.387   2.934  0.3458  1.3971 -0.7211
  744MOL0     H  405   3.889   5.519   3.010 -0.3510 -0.0511  1.0411
  744MOL0     H  406   3.939   5.782   3.354 -1.6557  2.4180 -4.0432
  744MOL0     H  407   3.762   5.778   3.341 -0.4902  0.2888  0.4858
  744MOL0     H  408   3.740   5.561   3.458 -0.2155  0.0000 -1.7993
  744MOL0     H  409   3.906   5.559   3.490 -0.2796 -0.5887 -1.4256
  744MOL0     H  410   3.738   5.649   3.684 -0.8490  2.2256  1.9577
  744MOL0     H  411   3.706   5.789   3.584  0.3269  0.5216 -0.0346
  744MOL0     H  412   3.972   5.672   3.701 -0.3077 -0.1600 -1.3838
  744MOL0     H  413   3.984   5.800   3.584  1.1394 -1.2906 -0.1949
  744MOL0     H  414   3.839   5.821   3.852 -1.8708 -0.5121 -1.1899
  744MOL0     H  415   3.866   5.952   3.744 -0.8648  0.2147  4.1266
  744MOL0     H  416   4.101   5.806   3.840  1.9787  1.6626 -1.8403
  744MOL0     H  417   4.087   5.961   3.762  0.8171 -0.1736  0.1667
  744MOL0     H  418   3.982   5.903   4.046  3.0446  2.5664  3.7605
  744MOL0     H  419   3.972   6.057   3.958 -0.3091  0.0851  1.3265
  744MOL0     H  420   4.248   5.945   3.975 -0.0833  2.1774 -1.5990
  744MOL0     H  421   4.162   5.998   4.128  0.7000  0.1151 -0.1878
  744MOL0     H  422   4.096   5.634   3.372 -1.9219 -0.1503 -0.1260
  744MOL0     H  423   4.299   5.514   3.282  1.1129 -1.6760 -0.1484
  744MOL0     H  424   4.377   5.196   2.921 -1.9977  3.3723  0.7548
  744MOL0     H  425   4.447   5.083   2.712 -1.4551  1.1644  0.6302
  744MOL0     H  426   5.572   4.386   1.944 -0.8149 -0.2894  0.9563
  744MOL0     H  427   5.562   4.145   1.990  1.2682  1.8085 -1.4165
  744MOL0     H  428   5.344   3.706   1.965  1.5226  0.3947  1.6884
  744MOL0     H  429   5.375   3.485   1.936 -3.7198  2.8319 -0.3038
  744MOL0     H  430   5.718   3.356   1.988 -0.0308 -0.2193  0.4326
  744MOL0     H  431   5.542   3.317   2.016 -3.8436 -2.1343 -4.8962
  744MOL0     H  432   5.555   3.110   1.897  0.3066 -0.1276 -3.0638
  744MOL0     H  433   5.650   3.115   2.047  0.7833 -2.7602 -1.8455
  744MOL0     H  434   5.853   3.161   1.868  0.1949  1.1060 -0.9492
  744MOL0     H  435   5.727   3.120   1.755  0.6145  0.6283  0.3261
  744MOL0     H  436   5.689   2.903   1.841 -2.1174  0.5396  2.4465
  744MOL0     H  437   5.796   2.923   1.986  1.7109  5.0839  0.8402
  744MOL0     H  438   6.059   2.844   1.662 -4.3629 -0.5061 -2.2662
  744MOL0     H  439   5.738   3.541   1.712  0.6375  4.0407 -1.7989
  744MOL0     H  440   5.704   3.796   1.753  0.3003 -0.0208  1.7906
  745MOL0     O  441   0.874   2.006  10.126 -0.2362 -0.4394  0.4788
  745MOL0     C  442   0.763   1.963  10.127  0.6175 -1.3403  0.2292
  745MOL0     O  443   0.687   1.942  10.009 -0.5141  0.1432 -0.2631
  745MOL0     C  444   0.748   1.961   9.885  0.3981  0.2575 -0.1905
  745MOL0     C  445   0.694   2.060   9.792 -0.1583  1.0517  0.6772
  745MOL0     C  446   0.758   2.075   9.665 -0.5463 -0.1134  0.0924
  745MOL0     C  447   0.861   1.996   9.631  0.4873  0.0576 -0.3660
  745MOL0     O  448   0.912   2.008   9.503 -1.3956  0.4639  0.2782
  745MOL0     C  449   0.985   2.130   9.476 -0.0165 -0.3528  0.5819
  745MOL0     C  450   1.105   2.111   9.384  0.4374  0.4055 -0.6095
  745MOL0     C  451   1.099   2.120   9.232  0.4952  0.3049  0.4160
  745MOL0     C  452   1.086   2.257   9.155  0.8428  0.2310 -1.3501
  745MOL0     C  453   1.208   2.351   9.157  0.0965  0.4679  0.2797
  745MOL0     C  454   1.341   2.287   9.117 -0.3441 -0.0012  0.0713
  745MOL0     C  455   1.453   2.392   9.103 -1.0155 -0.7464  0.0460
  745MOL0     C  456   1.593   2.343   9.052  0.1939 -0.5233 -0.9562
  745MOL0     N  457   1.592   2.299   8.914 -0.4575 -1.1692 -0.3445
  745MOL0     C  458   1.627   2.383   8.808 -0.4852  0.0820  0.6847
  745MOL0     C  459   1.624   2.303   8.693  0.3637 -0.2926 -0.3125
  745MOL0     C  460   1.622   2.364   8.558 -0.2898 -0.2370 -0.1924
  745MOL0     C  461   1.683   2.259   8.458 -0.7941  1.0397 -0.2297
  745MOL0     C  462   1.590   2.193   8.363  0.3358  0.1872  0.1403
  745MOL0     C  463   1.522   2.286   8.258  0.4480  0.6083 -0.3056
  745MOL0     O  464   1.409   2.351   8.315  0.1422 -0.6069 -0.0299
  745MOL0     C  465   1.283   2.302   8.291 -0.4690  0.4449 -0.1622
  745MOL0     C  466   1.186   2.390   8.318  0.9039  0.7687 -0.0425
  745MOL0     C  467   1.050   2.347   8.310  0.2410 -0.1565  0.6198
  745MOL0     C  468   0.947   2.451   8.342 -0.1371  0.5528 -0.6343
  745MOL0     C  469   1.028   2.206   8.282 -0.1995  0.7851  0.2093
  745MOL0     C  470   0.893   2.142   8.271 -0.5963 -0.0590 -0.8450
  745MOL0     O  471   0.889   2.007   8.239 -0.0483 -0.2443 -0.1503
  745MOL0     C  472   0.773   1.949   8.212 -0.4531  0.8270  0.4488
  745MOL0     C  473   0.685   2.000   8.113 -0.4379 -0.6322 -0.3171
  745MOL0     C  474   0.563   1.938   8.105  0.2491  0.7129  0.1267
  745MOL0     C  475   0.526   1.820   8.167  0.4802 -0.9199 -0.5693
  745MOL0     O  476   0.402   1.758   8.183 -0.5985 -0.5232 -0.0910
  745MOL0     C  477   0.284   1.845   8.160 -0.0944 -0.1702  0.2726
  745MOL0     C  478   0.166   1.752   8.124  0.7030  0.5187  0.3423
  745MOL0     C  479   0.189   1.711   7.979  0.1069  0.9209  0.1340
  745MOL0     C  480   0.072   1.613   7.942  0.2106 -0.2399 -0.0694
  745MOL0     C  481   0.043   1.594   7.795 -0.5725  0.2713 -0.8334
  745MOL0     C  482  -0.055   1.474   7.787 -1.0599 -0.6681  1.5059
  745MOL0     C  483  -0.097   1.439   7.645 -0.8567 -0.5202  0.5880
  745MOL0     C  484  -0.186   1.316   7.661 -0.7701  0.4372  0.6528
  745MOL0    Cl  485  -0.226   1.255   7.496  0.2455 -0.2015 -0.2747
  745MOL0     C  486   0.626   1.771   8.251  0.5204 -0.3094 -0.0333
  745MOL0     C  487   0.748   1.829   8.272 -0.1250 -0.6103 -0.1001
  745MOL0     O  488   0.802   2.213   8.301  0.1573 -0.7351 -0.4235
  745MOL0     C  489   1.134   2.127   8.234 -0.4330  0.3817  0.4011
  745MOL0     C  490   1.261   2.176   8.247 -0.1179  0.1692  0.0733
  745MOL0     N  491   1.604   2.171   8.746  0.3488  0.3314 -0.3129
  745MOL0     N  492   1.581   2.169   8.870  0.1007 -0.0665 -0.2549
  745MOL0     C  493   0.909   1.894   9.718 -0.0555 -0.6486 -1.1151
  745MOL0     C  494   0.852   1.874   9.848  0.0028  0.3090  0.2782
  745MOL0     C  495   0.694   1.946  10.256 -0.5539 -0.5537  0.4030
  745MOL0     C  496   0.767   1.970  10.377  0.3147  0.0663 -0.2857
  745MOL0     C  497   0.712   1.947  10.502  0.7695  0.2035  0.5012
  745MOL0     C  498   0.574   1.910  10.507 -0.9605 -0.0961 -1.2885
  745MOL0     O  499   0.522   1.887  10.628 -0.1279 -0.0905  0.3315
  745MOL0     C  500   0.416   1.797  10.636 -0.0867 -0.0001  0.8888
  745MOL0     C  501   0.384   1.776  10.779  0.1554  0.2552  0.5081
  745MOL0     C  502   0.492   1.688  10.843 -0.0789  0.2085  0.0930
  745MOL0     C  503   0.474   1.670  10.998  0.4573  0.2302  0.3722
  745MOL0     C  504   0.503   1.790  11.080 -0.0626  1.4371  0.8674
  745MOL0     C  505   0.530   1.893  11.138  0.8482 -0.1106  0.3675
  745MOL0     C  506   0.505   1.895  10.383 -0.3073  0.2129 -0.4779
  745MOL0     C  507   0.565   1.900  10.261 -0.3150 -0.1133  0.3384
  745MOL0     H  508   0.610   2.121   9.823 -1.0992  0.2444 -0.2039
  745MOL0     H  509   0.712   2.145   9.596 -1.9533 -2.8844 -2.0120
  745MOL0     H  510   0.929   2.205   9.418 -2.3727 -1.5674  1.1511
  745MOL0     H  511   1.017   2.176   9.570  0.0337  0.5734  0.1222
  745MOL0     H  512   1.176   2.182   9.427  1.6390 -0.1007 -1.7008
  745MOL0     H  513   1.145   2.010   9.401 -2.3396 -0.6784  0.1198
  745MOL0     H  514   1.193   2.082   9.192  0.5798 -1.4962  2.1648
  745MOL0     H  515   1.028   2.052   9.185 -0.2719 -0.0136  1.9534
  745MOL0     H  516   1.056   2.235   9.053  0.8208  0.5401 -1.4128
  745MOL0     H  517   1.006   2.324   9.189  0.5392  1.6532 -4.5723
  745MOL0     H  518   1.173   2.429   9.088 -0.3635 -0.2271 -0.2887
  745MOL0     H  519   1.212   2.396   9.257  1.6007  1.8304 -0.3503
  745MOL0     H  520   1.366   2.214   9.194  2.2838 -0.5590 -1.1784
  745MOL0     H  521   1.329   2.233   9.022 -0.1142  1.7881 -1.0362
  745MOL0     H  522   1.431   2.471   9.030 -0.5363 -0.8403 -0.1973
  745MOL0     H  523   1.470   2.437   9.201  1.9641 -1.7978  0.0853
  745MOL0     H  524   1.636   2.261   9.110  2.2037  0.6491 -0.6997
  745MOL0     H  525   1.668   2.420   9.075  0.8061 -1.1001 -0.9839
  745MOL0     H  526   1.638   2.491   8.808  0.5813 -0.0010  1.5309
  745MOL0     H  527   1.527   2.401   8.519  0.6506  0.0562 -2.3539
  745MOL0     H  528   1.690   2.448   8.574 -1.7579  1.1390 -0.9417
  745MOL0     H  529   1.735   2.187   8.521 -0.9806  1.9261  0.9807
  745MOL0     H  530   1.754   2.309   8.391  2.6899 -2.8008  0.2114
  745MOL0     H  531   1.509   2.153   8.425 -1.0604  0.5767 -1.3856
  745MOL0     H  532   1.650   2.117   8.310  3.5999  2.7316 -0.1281
  745MOL0     H  533   1.499   2.226   8.169 -4.4962  0.1034  1.0092
  745MOL0     H  534   1.592   2.365   8.229 -1.4696  2.9941  1.1665
  745MOL0     H  535   1.212   2.489   8.353 -5.5496  2.0788  2.3144
  745MOL0     H  536   0.995   2.538   8.297 -1.9123  1.7314 -0.3555
  745MOL0     H  537   0.848   2.443   8.298  0.1529 -1.4433 -1.0565
  745MOL0     H  538   0.938   2.470   8.449  0.6003 -1.9058 -0.0623
  745MOL0     H  539   0.714   2.096   8.072  1.3006  1.3381  4.7205
  745MOL0     H  540   0.490   1.993   8.047 -1.2765 -0.5250  0.7787
  745MOL0     H  541   0.259   1.904   8.248 -4.4661  0.8490 -1.4044
  745MOL0     H  542   0.304   1.922   8.083 -0.0271  0.6955  1.1342
  745MOL0     H  543   0.167   1.664   8.189  0.4933  0.6573  0.5344
  745MOL0     H  544   0.069   1.801   8.137 -0.5528 -0.7023 -3.2454
  745MOL0     H  545   0.290   1.672   7.966  0.9011  2.5068  1.1249
  745MOL0     H  546   0.186   1.805   7.923 -2.5126  0.5046 -0.5530
  745MOL0     H  547   0.105   1.518   7.985  4.1121  1.0262  0.1354
  745MOL0     H  548  -0.025   1.633   7.988 -0.2076  2.1240 -1.8241
  745MOL0     H  549   0.138   1.574   7.744 -0.2021 -0.1733  0.0106
  745MOL0     H  550  -0.004   1.683   7.753 -2.5020  0.7128  2.0304
  745MOL0     H  551   0.005   1.383   7.803  1.6172  0.5043 -0.9238
  745MOL0     H  552  -0.144   1.480   7.850 -2.0417 -2.7104  0.4335
  745MOL0     H  553  -0.001   1.432   7.593 -1.1845  2.1211 -0.4738
  745MOL0     H  554  -0.154   1.518   7.596 -1.9281 -1.3145  0.5067
  745MOL0     H  555  -0.273   1.335   7.724 -1.0884  1.6958 -0.1274
  745MOL0     H  556  -0.123   1.240   7.708  1.7850  0.3343 -2.5661
  745MOL0     H  557   0.607   1.670   8.287  3.2212 -1.0066 -0.3588
  745MOL0     H  558   0.819   1.780   8.336  1.0357  1.9240  0.6926
  745MOL0     H  559   1.116   2.022   8.212 -1.9696  0.5781  0.6114
  745MOL0     H  560   1.335   2.100   8.225  1.8495  2.4738 -2.0140
  745MOL0     H  561   0.996   1.840   9.681  0.8835  0.8588 -1.2025
  745MOL0     H  562   0.898   1.803   9.917 -1.9322 -0.3471  0.9698
  745MOL0     H  563   0.870   2.001  10.368  0.0221  1.0592 -0.3453
  745MOL0     H  564   0.766   1.953  10.596 -0.3902  0.4354  1.1798
  745MOL0     H  565   0.328   1.837  10.585  0.2656 -0.3308 -0.0010
  745MOL0     H  566   0.444   1.712  10.573  1.5965  1.2797 -0.1801
  745MOL0     H  567   0.291   1.719  10.770 -0.8234  1.6879  1.0404
  745MOL0     H  568   0.361   1.873  10.825 -4.2812 -0.6429  0.6940
  745MOL0     H  569   0.592   1.725  10.820  0.0587  0.4651  1.0453
  745MOL0     H  570   0.489   1.591  10.794  2.3048 -0.2857  0.7848
  745MOL0     H  571   0.529   1.582  11.035  0.5862  0.9751  2.0564
  745MOL0     H  572   0.367   1.655  11.015  0.2350  1.6849  0.3974
  745MOL0     H  573   0.552   1.988  11.182 -0.2327  1.5640 -2.4180
  745MOL0     H  574   0.398   1.884  10.403  0.0534  1.3962  2.6120
  745MOL0     H  575   0.514   1.887  10.166 -1.3541  1.9301  0.5505
  746MOL0     O  576   4.070   6.581   7.246  1.2924 -0.1097 -0.3190
  746MOL0     C  577   4.129   6.653   7.167  0.7525  0.3812  0.3004
  746MOL0     O  578   4.106   6.784   7.164  0.1440  0.1761 -0.2759
  746MOL0     C  579   4.047   6.846   7.269 -0.6729 -0.5003  0.1908
  746MOL0     C  580   3.919   6.921   7.252  0.3033  0.4762 -0.4085
  746MOL0     C  581   3.868   6.978   7.375  0.0587  0.1038  0.1903
  746MOL0     C  582   3.934   6.967   7.502 -0.6946 -0.5216 -0.5964
  746MOL0     O  583   3.890   7.034   7.612  0.0690 -0.0364  0.6289
  746MOL0     C  584   3.900   7.178   7.592  0.2982 -0.0207  0.0715
  746MOL0     C  585   3.940   7.254   7.723 -0.0859  1.3305 -0.5671
  746MOL0     C  586   4.012   7.392   7.702 -1.0597  0.9522 -0.0804
  746MOL0     C  587   4.165   7.370   7.650  0.5191  0.3557  0.7197
  746MOL0     C  588   4.248   7.267   7.733 -0.1687  0.8466  0.8956
  746MOL0     C  589   4.270   7.293   7.880  0.0137  0.8677 -0.3726
  746MOL0     C  590   4.365   7.414   7.906 -0.2015 -0.0244 -0.2659
  746MOL0     C  591   4.282   7.541   7.904  0.2690 -0.0536 -0.0625
  746MOL0     N  592   4.373   7.656   7.884  0.7511 -0.3292  0.1114
  746MOL0     C  593   4.405   7.737   7.988 -0.6965 -1.1640 -0.6961
  746MOL0     C  594   4.447   7.851   7.927 -0.0304 -0.6154 -0.6272
  746MOL0     C  595   4.507   7.976   7.997  0.0191  0.5062 -0.5843
  746MOL0     C  596   4.531   8.095   7.903  0.1883  0.2524  0.4337
  746MOL0     C  597   4.621   8.208   7.973  0.9086 -0.4247  0.1734
  746MOL0     C  598   4.648   8.324   7.879 -0.0431  0.1951 -0.2104
  746MOL0     O  599   4.747   8.418   7.934  0.5436 -0.2099  0.3509
  746MOL0     C  600   4.725   8.515   8.026  0.4136  0.3840 -0.8021
  746MOL0     C  601   4.822   8.608   8.056  0.6853 -0.2553 -0.4146
  746MOL0     C  602   4.798   8.712   8.142  0.6391  0.0939 -0.5422
  746MOL0     C  603   4.919   8.790   8.175 -0.4726  0.3973  0.2599
  746MOL0     C  604   4.670   8.738   8.194  0.1270 -0.3915  0.4154
  746MOL0     C  605   4.644   8.833   8.303  0.4596 -0.5499 -0.9081
  746MOL0     O  606   4.513   8.839   8.344  0.0478  0.0475  1.1252
  746MOL0     C  607   4.455   8.948   8.404  0.2574  0.5328 -0.4105
  746MOL0     C  608   4.461   9.067   8.338  0.1238 -0.2425  0.5659
  746MOL0     C  609   4.397   9.179   8.386 -0.3873  0.7349  0.2851
  746MOL0     C  610   4.308   9.164   8.487  0.1069  0.6293  0.9244
  746MOL0     O  611   4.242   9.280   8.517  0.5960  0.7850  0.4286
  746MOL0     C  612   4.179   9.293   8.644  0.0744  0.2636 -0.7355
  746MOL0     C  613   4.065   9.397   8.618 -0.2297  0.4764  0.1555
  746MOL0     C  614   3.962   9.335   8.515 -0.4820 -0.4865 -0.1346
  746MOL0     C  615   3.848   9.433   8.494 -0.4581  0.2600  0.1609
  746MOL0     C  616   3.757   9.368   8.381 -0.1807 -0.6701 -0.4937
  746MOL0     C  617   3.618   9.444   8.383 -0.0449  0.2453  0.2903
  746MOL0     C  618   3.520   9.394   8.271 -0.1722 -0.4593 -0.4450
  746MOL0     C  619   3.447   9.269   8.315 -0.0368 -0.1897 -0.7145
  746MOL0    Cl  620   3.317   9.323   8.422 -0.4929  0.1521  0.0757
  746MOL0     C  621   4.306   9.040   8.558 -0.9863 -0.2006 -0.2068
  746MOL0     C  622   4.379   8.933   8.516 -0.2671 -0.1604 -0.3972
  746MOL0     O  623   4.742   8.890   8.365  0.5937 -0.3498  0.2618
  746MOL0     C  624   4.558   8.665   8.137  0.6902 -0.5839  0.4046
  746MOL0     C  625   4.592   8.548   8.063 -0.2928  0.0042 -0.2907
  746MOL0     N  626   4.439   7.836   7.802  0.5024 -0.5261 -0.2367
  746MOL0     N  627   4.399   7.723   7.768  0.4201  0.7999 -0.0366
  746MOL0     C  628   4.056   6.897   7.507 -0.2631 -0.7043  0.4027
  746MOL0     C  629   4.111   6.843   7.393  0.1750 -0.6478 -0.6722
  746MOL0     C  630   4.223   6.594   7.073  0.1004  0.3074  0.3549
  746MOL0     C  631   4.295   6.681   6.985  0.6495 -0.6111 -0.1410
  746MOL0     C  632   4.365   6.638   6.872  0.8376  0.1301  0.4846
  746MOL0     C  633   4.361   6.499   6.840  0.7245  0.1325 -0.0058
  746MOL0     O  634   4.412   6.449   6.722  0.6908  0.8095 -0.4033
  746MOL0     C  635   4.473   6.531   6.619 -1.3868  0.2101  0.6748
  746MOL0     C  636   4.477   6.458   6.492  0.2920  0.0316  0.0700
  746MOL0     C  637   4.541   6.531   6.375 -0.4191  0.8159 -0.1943
  746MOL0     C  638   4.554   6.446   6.243 -0.2904 -0.0423 -0.2080
  746MOL0     C  639   4.535   6.531   6.124  0.4841  0.6051 -0.2446
  746MOL0     C  640   4.521   6.583   6.018 -0.7771  0.0655 -0.7856
  746MOL0     C  641   4.297   6.402   6.922 -0.4215  0.1322 -0.2318
  746MOL0     C  642   4.234   6.450   7.046  0.0963 -0.4373  0.9952
  746MOL0     H  643   3.856   6.940   7.166  0.0480  4.1399  0.4368
  746MOL0     H  644   3.777   7.035   7.359 -0.3597 -0.6173 -0.0262
  746MOL0     H  645   3.959   7.202   7.503  2.0200 -0.7991  0.9481
  746MOL0     H  646   3.805   7.223   7.562  1.6343  1.6384 -1.9606
  746MOL0     H  647   3.851   7.269   7.785 -0.8048 -1.4504 -0.8105
  746MOL0     H  648   4.012   7.194   7.779 -0.9174  1.1822  0.3763
  746MOL0     H  649   3.970   7.449   7.618 -0.4126  1.7394  0.1237
  746MOL0     H  650   4.010   7.448   7.795  0.8186 -1.7733  1.7592
  746MOL0     H  651   4.158   7.347   7.544 -2.2492  1.6089  0.5546
  746MOL0     H  652   4.223   7.463   7.649 -0.7424  1.1713  1.2059
  746MOL0     H  653   4.212   7.165   7.721  1.0019  0.5786 -0.6765
  746MOL0     H  654   4.349   7.270   7.693  0.0996  0.2843  1.5175
  746MOL0     H  655   4.170   7.291   7.923 -0.5210 -2.9904 -1.4148
  746MOL0     H  656   4.317   7.210   7.933  0.6080  1.3908 -0.0575
  746MOL0     H  657   4.424   7.407   7.998  0.4262 -1.7269 -0.7595
  746MOL0     H  658   4.433   7.421   7.821  2.9859 -0.0428  2.1202
  746MOL0     H  659   4.236   7.557   8.002 -1.5387  1.2337 -1.0596
  746MOL0     H  660   4.204   7.527   7.828 -2.0530  0.9548  2.0018
  746MOL0     H  661   4.410   7.711   8.093  0.1876  2.2774  0.2584
  746MOL0     H  662   4.441   8.010   8.077 -1.4308  0.3736 -1.6867
  746MOL0     H  663   4.604   7.946   8.038 -0.9065 -1.2082  0.4294
  746MOL0     H  664   4.433   8.143   7.893 -0.0080  0.1695  1.8196
  746MOL0     H  665   4.578   8.070   7.807  3.3327 -0.4022  1.9980
  746MOL0     H  666   4.714   8.166   8.012 -0.7336 -1.3489  3.5425
  746MOL0     H  667   4.569   8.240   8.064  0.1098 -5.5699  1.8582
  746MOL0     H  668   4.547   8.359   7.856 -0.5314 -0.0198  1.4174
  746MOL0     H  669   4.684   8.279   7.786 -1.7580 -0.0276 -0.8015
  746MOL0     H  670   4.915   8.591   8.004  2.8800  2.1352  2.3704
  746MOL0     H  671   4.894   8.891   8.143  0.0203 -0.2784 -2.4625
  746MOL0     H  672   4.956   8.791   8.278 -0.1340  0.0988  0.1445
  746MOL0     H  673   5.007   8.751   8.123 -0.8357  0.8719 -0.7184
  746MOL0     H  674   4.538   9.075   8.263  0.8715  1.1335  1.4405
  746MOL0     H  675   4.412   9.272   8.332 -0.7126  0.6497  0.0458
  746MOL0     H  676   4.146   9.195   8.680  6.2888 -2.0543 -0.0656
  746MOL0     H  677   4.250   9.335   8.716 -1.8776  1.4800  0.5551
  746MOL0     H  678   4.018   9.418   8.715  2.0275 -1.9368  1.9390
  746MOL0     H  679   4.114   9.492   8.593 -0.3794 -0.1171 -2.6873
  746MOL0     H  680   3.910   9.253   8.567 -2.3200 -1.4754 -3.2622
  746MOL0     H  681   4.002   9.296   8.421  0.6386 -1.3898  0.6848
  746MOL0     H  682   3.793   9.450   8.587 -2.5789 -3.8512 -0.1272
  746MOL0     H  683   3.889   9.528   8.457  4.1249 -0.3181  3.0460
  746MOL0     H  684   3.745   9.263   8.409 -1.1459 -0.4155  0.1089
  746MOL0     H  685   3.797   9.378   8.280 -0.0818 -1.2746 -0.5171
  746MOL0     H  686   3.564   9.429   8.477  1.5295  0.5072  1.2684
  746MOL0     H  687   3.641   9.550   8.373 -1.1557  0.8088  2.9387
  746MOL0     H  688   3.572   9.386   8.175  2.3422  2.5753  0.4892
  746MOL0     H  689   3.439   9.463   8.247 -1.0732 -1.7909 -1.3331
  746MOL0     H  690   3.505   9.191   8.365  3.4786  2.7906  0.2700
  746MOL0     H  691   3.385   9.242   8.229 -1.4398  1.6681 -0.3564
  746MOL0     H  692   4.249   9.019   8.648  2.0002  2.2827  2.5069
  746MOL0     H  693   4.359   8.843   8.573 -2.5012  2.3193  3.1242
  746MOL0     H  694   4.454   8.674   8.168  0.4250 -0.9960 -0.3314
  746MOL0     H  695   4.508   8.483   8.040 -0.7824 -0.0857  1.5725
  746MOL0     H  696   4.121   6.904   7.594  1.0580  0.5114 -0.6252
  746MOL0     H  697   4.202   6.790   7.418 -0.5140 -0.4336  2.8029
  746MOL0     H  698   4.301   6.788   6.998 -1.5974 -0.5968  1.1986
  746MOL0     H  699   4.415   6.701   6.799  1.4065 -0.5773  0.2535
  746MOL0     H  700   4.426   6.629   6.607  0.9943  1.2717 -0.7662
  746MOL0     H  701   4.578   6.547   6.645 -0.2854 -4.2108 -0.2426
  746MOL0     H  702   4.379   6.413   6.470  1.1383 -0.1360 -4.0976
  746MOL0     H  703   4.539   6.369   6.505  0.1484 -0.0662  0.1019
  746MOL0     H  704   4.644   6.563   6.391 -1.2935  3.1159  1.5129
  746MOL0     H  705   4.481   6.620   6.351 -1.8808 -0.0865 -0.0245
  746MOL0     H  706   4.489   6.358   6.250  2.1738 -1.9047  1.1118
  746MOL0     H  707   4.651   6.395   6.239 -2.0731 -3.7475 -0.6004
  746MOL0     H  708   4.495   6.626   5.922 -2.2950 -1.5008 -1.1267
  746MOL0     H  709   4.300   6.298   6.889 -4.3247 -0.1014 -0.4035
  746MOL0     H  710   4.171   6.387   7.108 -1.1078 -0.4520 -0.1857
  747MOL0     O  711   3.840   4.325  10.617 -0.4578  0.1767 -0.3244
  747MOL0     C  712   3.775   4.372  10.528 -0.2589  0.8480 -0.3614
  747MOL0     O  713   3.710   4.488  10.537  0.8428  0.6735  0.0947
  747MOL0     C  714   3.727   4.572  10.639  0.0373  0.3779  0.0994
  747MOL0     C  715   3.629   4.571  10.746  0.4840 -0.1409 -0.9855
  747MOL0     C  716   3.656   4.666  10.855  0.1052 -0.8994  0.4044
  747MOL0     C  717   3.768   4.757  10.839 -0.2557  0.1692  0.1317
  747MOL0     O  718   3.804   4.866  10.919 -0.2425  0.6937  0.5646
  747MOL0     C  719   3.762   4.861  11.058  0.0732 -0.5578 -0.0393
  747MOL0     C  720   3.856   4.939  11.167  0.7081 -0.2192 -0.3872
  747MOL0     C  721   3.805   4.941  11.317  0.0096  0.9353  0.4879
  747MOL0     C  722   3.700   5.042  11.332  0.1751 -0.5323 -0.6121
  747MOL0     C  723   3.751   5.194  11.341  0.0508  0.1975  0.8701
  747MOL0     C  724   3.618   5.270  11.386  0.0759  0.2458  0.2363
  747MOL0     C  725   3.664   5.417  11.405 -0.2277  0.2682 -0.0678
  747MOL0     C  726   3.562   5.526  11.465  1.0626  0.7282  0.8236
  747MOL0     N  727   3.518   5.511  11.609 -0.0941 -0.1520 -0.2900
  747MOL0     C  728   3.437   5.409  11.659 -0.2499 -1.2107 -0.5842
  747MOL0     C  729   3.448   5.411  11.796 -0.8238 -1.1081  0.4171
  747MOL0     C  730   3.376   5.314  11.888  0.5951  0.9458  0.1091
  747MOL0     C  731   3.452   5.180  11.898 -0.0879  0.2028  1.1351
  747MOL0     C  732   3.363   5.053  11.950 -0.6970 -0.4408  0.4229
  747MOL0     C  733   3.226   5.075  12.005  0.2069  0.2571  0.2415
  747MOL0     O  734   3.131   5.068  11.896 -0.0258 -0.5191  0.3131
  747MOL0     C  735   3.004   5.104  11.919  0.6760 -0.7639  0.5143
  747MOL0     C  736   2.946   5.104  12.049  0.7565  0.7566 -0.8372
  747MOL0     C  737   2.809   5.115  12.084  0.2757 -0.1150 -0.1116
  747MOL0     C  738   2.764   5.075  12.219  0.2485 -0.1914 -1.3489
  747MOL0     C  739   2.720   5.139  11.969 -0.0493 -0.6948  0.7316
  747MOL0     C  740   2.569   5.142  11.985  0.1556 -1.4622  0.4556
  747MOL0     O  741   2.512   5.217  11.888  0.1485 -0.1395  0.3903
  747MOL0     C  742   2.384   5.234  11.894 -0.0810 -0.0157  0.4577
  747MOL0     C  743   2.339   5.355  11.955 -0.1267 -0.5846 -0.1554
  747MOL0     C  744   2.205   5.378  11.964  0.9181  0.1716 -0.3231
  747MOL0     C  745   2.112   5.280  11.905 -0.4773 -0.3971 -0.2469
  747MOL0     O  746   1.982   5.306  11.930  0.2863 -0.2014  0.2495
  747MOL0     C  747   1.892   5.226  11.850  0.4826  0.2393  0.0685
  747MOL0     C  748   1.755   5.296  11.859 -0.6103 -0.7087  0.6195
  747MOL0     C  749   1.680   5.253  11.983 -0.2232 -0.7062 -0.5994
  747MOL0     C  750   1.645   5.106  11.996  0.2851  0.4760 -0.0315
  747MOL0     C  751   1.669   5.037  12.129 -0.7750 -0.1631  0.3470
  747MOL0     C  752   1.609   5.100  12.251  0.2387 -0.0462  0.2299
  747MOL0     C  753   1.450   5.110  12.244  0.3889  0.8085  0.0117
  747MOL0     C  754   1.382   5.171  12.356  0.1663  0.2121  0.2038
  747MOL0    Cl  755   1.440   5.340  12.376  0.1108 -0.0935  0.2823
  747MOL0     C  756   2.168   5.167  11.833  0.6041  0.6532  0.1730
  747MOL0     C  757   2.299   5.149  11.830 -0.3512 -0.1469 -0.4173
  747MOL0     O  758   2.510   5.096  12.085  0.7430 -0.0403 -0.0016
  747MOL0     C  759   2.781   5.147  11.836  0.8348  0.5485 -0.5532
  747MOL0     C  760   2.913   5.127  11.822 -0.3964  0.3182  1.2099
  747MOL0     N  761   3.548   5.503  11.828  0.0840 -0.2014  0.2006
  747MOL0     N  762   3.586   5.561  11.717  1.4677  0.6026 -0.8270
  747MOL0     C  763   3.863   4.741  10.732 -0.4038  1.2187 -0.4428
  747MOL0     C  764   3.843   4.643  10.641  0.2472  0.5118  1.1247
  747MOL0     C  765   3.746   4.300  10.396  0.5106  0.5388  0.2925
  747MOL0     C  766   3.745   4.156  10.380  0.1124 -0.0913  0.8440
  747MOL0     C  767   3.715   4.092  10.258  0.7223  0.5947 -0.3194
  747MOL0     C  768   3.693   4.172  10.142  0.2778 -0.4803  0.0386
  747MOL0     O  769   3.661   4.101  10.028 -1.0086 -0.2767  0.2620
  747MOL0     C  770   3.716   4.166   9.904 -0.1949 -0.5492 -0.5251
  747MOL0     C  771   3.758   4.072   9.781  0.4525 -1.0333 -0.2408
  747MOL0     C  772   3.799   4.151   9.652  0.1208  0.3487  0.3121
  747MOL0     C  773   3.815   4.055   9.529  0.2933 -0.5694 -0.5308
  747MOL0     C  774   3.685   4.017   9.469  0.3970  0.6489 -0.2185
  747MOL0     C  775   3.583   3.969   9.422  0.1410 -0.2854  0.6129
  747MOL0     C  776   3.707   4.311  10.156  0.5754 -0.7670 -0.3144
  747MOL0     C  777   3.730   4.374  10.279  0.2199  0.3745 -0.0939
  747MOL0     H  778   3.546   4.504  10.766  0.4748  0.7770  2.8076
  747MOL0     H  779   3.578   4.682  10.929 -0.5488  1.2005 -0.6763
  747MOL0     H  780   3.665   4.910  11.055  0.5280  0.3570 -0.0030
  747MOL0     H  781   3.741   4.757  11.085  4.3282 -1.8700 -0.9053
  747MOL0     H  782   3.958   4.899  11.167  1.7412  2.2135  0.6295
  747MOL0     H  783   3.861   5.038  11.119 -2.3924 -0.5167 -1.5798
  747MOL0     H  784   3.775   4.841  11.349  2.5254  0.5461  1.8792
  747MOL0     H  785   3.891   4.967  11.379  1.5943  0.1199 -1.2977
  747MOL0     H  786   3.618   5.034  11.260 -1.1357 -0.1890  0.8112
  747MOL0     H  787   3.652   5.017  11.426 -1.6836 -0.2665 -1.4364
  747MOL0     H  788   3.840   5.202  11.404  0.5382 -3.4561  0.8397
  747MOL0     H  789   3.777   5.230  11.241  1.4009 -3.4448 -0.2513
  747MOL0     H  790   3.534   5.259  11.317  0.9615 -1.0663 -0.6904
  747MOL0     H  791   3.569   5.244  11.481 -2.1266  3.3403  0.1099
  747MOL0     H  792   3.741   5.401  11.481 -2.4940 -0.1571  2.2672
  747MOL0     H  793   3.695   5.450  11.306 -2.8968  0.5861 -0.8839
  747MOL0     H  794   3.463   5.515  11.420  0.8415 -0.0189  1.4647
  747MOL0     H  795   3.601   5.628  11.454  0.5316  0.8807  0.2815
  747MOL0     H  796   3.369   5.345  11.605 -3.6034  2.3632 -1.0075
  747MOL0     H  797   3.396   5.345  11.991  0.3936 -2.5213  1.3308
  747MOL0     H  798   3.272   5.297  11.860  0.8999  2.0082 -1.8421
  747MOL0     H  799   3.539   5.192  11.963 -0.8447 -0.8108  2.3777
  747MOL0     H  800   3.477   5.152  11.796  0.8895  4.2566  0.0909
  747MOL0     H  801   3.404   5.017  12.044 -0.1872 -1.1198 -0.0550
  747MOL0     H  802   3.358   4.970  11.879 -0.3333 -0.4059  0.3568
  747MOL0     H  803   3.212   5.170  12.058  2.3040  1.2023 -0.7428
  747MOL0     H  804   3.193   4.992  12.066  2.2221  0.1062  1.2154
  747MOL0     H  805   3.008   5.085  12.136 -1.2904 -0.6268  0.4115
  747MOL0     H  806   2.849   5.026  12.267 -0.8650  0.4193  1.4943
  747MOL0     H  807   2.738   5.162  12.281 -1.4574 -0.3512 -1.7682
  747MOL0     H  808   2.684   4.999  12.222 -0.2150  0.2506  2.0618
  747MOL0     H  809   2.411   5.419  12.006  1.7564 -3.1590  0.6566
  747MOL0     H  810   2.177   5.469  12.016  1.1367 -1.1228  2.1769
  747MOL0     H  811   1.917   5.229  11.744  0.5741  0.2378  0.0899
  747MOL0     H  812   1.896   5.122  11.885  0.6059  0.9413  2.3362
  747MOL0     H  813   1.766   5.405  11.849 -1.1371 -0.7379 -0.4790
  747MOL0     H  814   1.696   5.262  11.773 -1.4488  1.1493  0.3965
  747MOL0     H  815   1.583   5.305  11.985  0.6125  0.9219 -0.4217
  747MOL0     H  816   1.754   5.282  12.058  4.1567 -0.6726 -4.4541
  747MOL0     H  817   1.537   5.098  11.977  0.6029 -1.1807 -1.4314
  747MOL0     H  818   1.700   5.051  11.919  2.2733 -2.4035  3.1350
  747MOL0     H  819   1.778   5.042  12.127 -0.6538 -0.9589 -3.4367
  747MOL0     H  820   1.645   4.930  12.123 -1.1298 -0.4684  4.5629
  747MOL0     H  821   1.656   5.050  12.337  2.2740  2.2824  0.5762
  747MOL0     H  822   1.644   5.203  12.264  1.6462  0.0980 -3.6137
  747MOL0     H  823   1.417   5.005  12.244  0.0184  0.9164  1.2362
  747MOL0     H  824   1.414   5.169  12.159 -0.2887  1.0776  0.4796
  747MOL0     H  825   1.394   5.110  12.446  0.3960 -1.8326 -1.1582
  747MOL0     H  826   1.273   5.178  12.351 -0.1312  2.1640  4.5136
  747MOL0     H  827   2.106   5.087  11.795  2.9784 -1.6463  0.8662
  747MOL0     H  828   2.344   5.061  11.786  2.6838  2.0124 -1.9922
  747MOL0     H  829   2.717   5.159  11.749 -0.8467  0.7855  0.6650
  747MOL0     H  830   2.939   5.138  11.717  0.6825  0.4462  1.4841
  747MOL0     H  831   3.943   4.808  10.700 -3.0381  3.3226 -3.2850
  747MOL0     H  832   3.912   4.635  10.558 -2.9569 -1.0440 -1.6022
  747MOL0     H  833   3.754   4.076  10.453 -3.6640 -2.1910 -0.7062
  747MOL0     H  834   3.700   3.986  10.244  2.2193  0.6467 -2.9154
  747MOL0     H  835   3.657   4.248   9.863 -1.3653 -1.3887 -0.5765
  747MOL0     H  836   3.806   4.216   9.941 -0.8146 -0.3722  0.7961
  747MOL0     H  837   3.674   4.004   9.761 -2.4741  1.9780  0.9238
  747MOL0     H  838   3.847   4.015   9.811 -0.4919 -1.7796  1.2785
  747MOL0     H  839   3.894   4.201   9.670 -0.6329  1.5950  1.0324
  747MOL0     H  840   3.725   4.231   9.635 -1.3157 -1.0640 -0.3762
  747MOL0     H  841   3.868   3.964   9.558 -0.8638 -0.1834  3.3662
  747MOL0     H  842   3.886   4.104   9.461  2.3742 -0.5164  1.5387
  747MOL0     H  843   3.490   3.944   9.375  0.3847 -0.7137  0.3478
  747MOL0     H  844   3.701   4.387  10.079 -1.7215  1.5542  1.9234
  747MOL0     H  845   3.726   4.482  10.287  2.0629  0.3555  3.2480
  748MOL0     O  846   7.069   9.010   5.246  0.0092 -0.0331  0.3260
  748MOL0     C  847   7.075   9.108   5.175  0.2320  0.3681  0.5054
  748MOL0     O  848   7.181   9.139   5.094  0.1731 -0.2321 -0.3952
  748MOL0     C  849   7.281   9.045   5.087 -0.4116 -0.2451  0.3180
  748MOL0     C  850   7.349   9.000   5.193  0.3596 -0.1590 -0.8345
  748MOL0     C  851   7.443   8.897   5.180  1.2289  0.6922 -0.0408
  748MOL0     C  852   7.461   8.840   5.052  0.3834 -0.7551  0.2380
  748MOL0     O  853   7.551   8.738   5.046  0.1582 -0.1574  0.8277
  748MOL0     C  854   7.540   8.650   4.928  0.9520  0.1223 -0.0607
  748MOL0     C  855   7.639   8.534   4.933 -0.1572  0.2407 -0.7210
  748MOL0     C  856   7.596   8.441   4.822  0.7387 -0.5268 -0.3084
  748MOL0     C  857   7.714   8.379   4.760  0.3555 -0.0544  0.9294
  748MOL0     C  858   7.682   8.308   4.625 -0.9000 -0.1399 -0.7517
  748MOL0     C  859   7.799   8.257   4.544  0.0143 -0.5033 -0.0231
  748MOL0     C  860   7.845   8.114   4.592 -0.4546 -0.6027  0.6687
  748MOL0     C  861   7.744   8.002   4.555  0.0188 -0.0241  0.0641
  748MOL0     N  862   7.743   7.887   4.653  0.5648 -0.8202 -0.6417
  748MOL0     C  863   7.856   7.815   4.695 -0.0768  1.0184 -0.0082
  748MOL0     C  864   7.808   7.716   4.774  0.8387  0.6144 -0.4241
  748MOL0     C  865   7.882   7.603   4.842 -0.2015 -0.4877  0.2699
  748MOL0     C  866   7.891   7.627   4.985 -0.9364 -0.5512  0.2218
  748MOL0     C  867   7.970   7.506   5.055 -0.1478 -0.3543  0.1651
  748MOL0     C  868   7.969   7.543   5.200 -0.0776 -0.6145  0.1716
  748MOL0     O  869   7.840   7.536   5.272  0.4466 -0.0911 -0.7721
  748MOL0     C  870   7.825   7.556   5.405  0.2028 -0.2464 -0.8412
  748MOL0     C  871   7.693   7.563   5.451  0.1094  0.4871  1.3642
  748MOL0     C  872   7.672   7.594   5.584 -0.3985 -0.1462 -0.0973
  748MOL0     C  873   7.532   7.643   5.609 -0.2522  0.7150 -0.4345
  748MOL0     C  874   7.779   7.593   5.683  0.5440  0.4325 -0.8566
  748MOL0     C  875   7.758   7.611   5.828  1.2946  0.0835 -0.1803
  748MOL0     O  876   7.861   7.586   5.910  0.0494 -0.0099  0.2301
  748MOL0     C  877   7.849   7.632   6.040 -0.1088  0.1681  0.0903
  748MOL0     C  878   7.782   7.560   6.133 -0.1926  0.5957  0.0784
  748MOL0     C  879   7.780   7.595   6.262  0.7274  0.1222 -0.2942
  748MOL0     C  880   7.836   7.718   6.309  0.2793 -0.0926  0.4141
  748MOL0     O  881   7.830   7.734   6.449 -0.0635 -0.3069  0.1631
  748MOL0     C  882   7.912   7.842   6.510  0.6569  0.4849 -0.2734
  748MOL0     C  883   7.911   7.827   6.664 -0.5741 -0.7550  0.2077
  748MOL0     C  884   7.787   7.882   6.736  0.4514  0.0710  0.4262
  748MOL0     C  885   7.662   7.836   6.669 -0.2021  0.5737 -0.5297
  748MOL0     C  886   7.531   7.863   6.752 -0.5644 -0.9576 -0.5250
  748MOL0     C  887   7.424   7.754   6.721 -0.6614  0.0736  0.7357
  748MOL0     C  888   7.389   7.748   6.570  0.1131 -0.8633  0.4011
  748MOL0     C  889   7.267   7.664   6.536 -0.5569 -0.6348  0.2884
  748MOL0    Cl  890   7.122   7.735   6.608  0.0495  0.1432  0.1283
  748MOL0     C  891   7.903   7.799   6.208  0.0963  1.4938 -0.4917
  748MOL0     C  892   7.904   7.753   6.076 -0.4268 -0.0621  0.9802
  748MOL0     O  893   7.645   7.659   5.861 -0.3130  0.1746 -0.4409
  748MOL0     C  894   7.907   7.572   5.632  0.2926  0.3338 -0.1762
  748MOL0     C  895   7.920   7.557   5.502 -0.6356  0.4687  1.3523
  748MOL0     N  896   7.667   7.715   4.758 -0.0890  0.1581 -0.2934
  748MOL0     N  897   7.629   7.818   4.697 -0.2486 -0.6876 -0.4904
  748MOL0     C  898   7.395   8.898   4.942 -0.6505 -0.1563  0.7203
  748MOL0     C  899   7.311   9.003   4.960  0.8089  0.1942 -1.0061
  748MOL0     C  900   6.970   9.201   5.144  0.4445  0.0013  0.3997
  748MOL0     C  901   6.987   9.336   5.114  0.7752 -1.0041  0.0743
  748MOL0     C  902   6.865   9.410   5.080 -0.6659 -0.2117 -0.3913
  748MOL0     C  903   6.738   9.362   5.090  0.3506 -0.0706  0.9516
  748MOL0     O  904   6.620   9.413   5.039  0.1269 -0.1017 -0.3839
  748MOL0     C  905   6.616   9.522   4.948  0.3239  0.6234 -0.7364
  748MOL0     C  906   6.494   9.514   4.854  0.0871  0.2307  0.4538
  748MOL0     C  907   6.373   9.495   4.937 -0.7010  1.4290 -0.1753
  748MOL0     C  908   6.230   9.473   4.865  0.4726 -0.1418 -0.7723
  748MOL0     C  909   6.203   9.346   4.796 -0.5883  0.5507  0.5888
  748MOL0     C  910   6.178   9.245   4.730 -0.1232  0.0616 -0.4734
  748MOL0     C  911   6.722   9.235   5.142 -0.7601 -0.2181  0.4503
  748MOL0     C  912   6.835   9.155   5.166  0.3849 -0.2144 -0.3099
  748MOL0     H  913   7.334   9.040   5.293 -0.3087 -1.8207 -0.2409
  748MOL0     H  914   7.492   8.865   5.272 -3.0820  0.4301  2.4545
  748MOL0     H  915   7.440   8.606   4.925  1.3388 -0.8063  0.1441
  748MOL0     H  916   7.561   8.698   4.832  0.4174 -0.6394 -0.5660
  748MOL0     H  917   7.735   8.580   4.909  0.0357 -1.4044 -3.5588
  748MOL0     H  918   7.644   8.477   5.026 -1.3472  4.6489  2.4125
  748MOL0     H  919   7.535   8.364   4.870 -3.6004  2.7713  0.1222
  748MOL0     H  920   7.541   8.493   4.743  1.7532 -3.0779 -2.9135
  748MOL0     H  921   7.788   8.458   4.745  1.1727 -0.5263  2.2372
  748MOL0     H  922   7.752   8.300   4.825 -1.5918 -1.6551  0.2131
  748MOL0     H  923   7.625   8.220   4.654  1.7519 -1.0758  2.0117
  748MOL0     H  924   7.631   8.382   4.562  0.6786  1.4718 -0.2268
  748MOL0     H  925   7.784   8.268   4.436  1.7580  3.9840 -0.0010
  748MOL0     H  926   7.890   8.316   4.551  1.7256 -3.1568  3.6378
  748MOL0     H  927   7.938   8.081   4.546 -1.8635 -1.4117 -1.8018
  748MOL0     H  928   7.870   8.112   4.698 -0.8276  0.4309  0.7980
  748MOL0     H  929   7.773   7.961   4.458  2.1059  0.2940  0.5203
  748MOL0     H  930   7.648   8.055   4.551  1.5112  2.8022 -2.6626
  748MOL0     H  931   7.959   7.819   4.661 -0.3705 -1.1146 -1.3728
  748MOL0     H  932   7.843   7.504   4.817 -0.8236 -0.6187  1.6278
  748MOL0     H  933   7.982   7.600   4.798 -0.5666  2.4541 -1.0145
  748MOL0     H  934   7.794   7.626   5.036 -0.2242  2.8129  1.8887
  748MOL0     H  935   7.932   7.724   5.013 -3.1518  0.7653 -0.8415
  748MOL0     H  936   8.072   7.500   5.014  0.3607 -1.0469  1.4519
  748MOL0     H  937   7.919   7.410   5.041  0.9924 -1.0518  0.6136
  748MOL0     H  938   8.014   7.641   5.215  0.9876 -1.0798  0.1482
  748MOL0     H  939   8.028   7.463   5.246  0.7294  1.3579  2.8184
  748MOL0     H  940   7.618   7.550   5.372  0.7185  0.5832  0.7624
  748MOL0     H  941   7.512   7.733   5.668 -0.5067 -1.3285  2.8915
  748MOL0     H  942   7.502   7.686   5.513  1.0241 -0.0293 -1.1922
  748MOL0     H  943   7.464   7.570   5.654  0.5633 -0.0082 -0.3530
  748MOL0     H  944   7.733   7.469   6.102 -1.3756  0.9393  0.8867
  748MOL0     H  945   7.732   7.531   6.335 -0.9283 -0.4465 -1.8246
  748MOL0     H  946   8.016   7.831   6.477  1.1486  0.0672  1.3137
  748MOL0     H  947   7.877   7.937   6.468 -4.8324 -1.0960 -0.0601
  748MOL0     H  948   7.919   7.719   6.683 -1.5872 -0.6891  1.0843
  748MOL0     H  949   8.008   7.864   6.697 -2.0623  2.7611  1.0136
  748MOL0     H  950   7.793   7.989   6.715 -2.4772 -0.2576 -3.1855
  748MOL0     H  951   7.787   7.859   6.843  0.2199 -2.4778 -0.0509
  748MOL0     H  952   7.654   7.877   6.568  1.1820 -0.5033 -1.1105
  748MOL0     H  953   7.668   7.728   6.654  1.6240  0.8123 -1.8812
  748MOL0     H  954   7.492   7.964   6.741 -0.5409 -0.5502  2.4344
  748MOL0     H  955   7.545   7.855   6.860  0.7365  0.5809 -0.5555
  748MOL0     H  956   7.447   7.654   6.760 -0.1951  0.0053  0.3028
  748MOL0     H  957   7.336   7.778   6.781  0.5093  1.9699  1.7652
  748MOL0     H  958   7.473   7.692   6.526 -0.4060 -2.5162  1.4181
  748MOL0     H  959   7.392   7.853   6.540 -0.2242 -0.9567  0.0408
  748MOL0     H  960   7.273   7.557   6.560 -3.3387 -1.0331 -0.4835
  748MOL0     H  961   7.250   7.661   6.428  0.5167 -0.2176  0.0943
  748MOL0     H  962   7.954   7.891   6.235  0.1471  1.7391 -1.3782
  748MOL0     H  963   7.957   7.815   6.003 -1.0503 -1.5378 -0.8022
  748MOL0     H  964   7.987   7.566   5.705 -0.7885 -2.3974  0.9113
  748MOL0     H  965   8.025   7.541   5.477 -0.7755 -0.3639  1.2534
  748MOL0     H  966   7.413   8.870   4.838 -2.0633 -0.5169  0.5523
  748MOL0     H  967   7.250   9.032   4.875 -1.8521 -2.3628 -0.1485
  748MOL0     H  968   7.086   9.371   5.089  0.8354 -2.0682 -1.2710
  748MOL0     H  969   6.889   9.510   5.046 -0.5006 -0.0885  0.0704
  748MOL0     H  970   6.622   9.613   5.007  1.1976  1.9138 -2.7125
  748MOL0     H  971   6.705   9.516   4.885  1.4085 -0.8413  0.8515
  748MOL0     H  972   6.513   9.427   4.791 -3.0248  0.3095 -0.7245
  748MOL0     H  973   6.496   9.605   4.794 -2.3809  0.1730  0.2186
  748MOL0     H  974   6.365   9.576   5.010  0.2858 -0.0817  1.7462
  748MOL0     H  975   6.391   9.412   5.007 -0.5083  0.4199 -1.3964
  748MOL0     H  976   6.218   9.553   4.792 -2.3250  1.5572  1.3111
  748MOL0     H  977   6.150   9.499   4.936 -0.2736 -2.0065 -0.8663
  748MOL0     H  978   6.170   9.158   4.667 -2.7486  2.0559 -3.1882
  748MOL0     H  979   6.626   9.189   5.162 -0.8707  0.9172  2.9083
  748MOL0     H  980   6.813   9.052   5.193  2.0876 -0.8652 -1.2731
  749MOL0     O  981  10.542   8.508  10.803  0.3508 -0.4231  0.2497
  749MOL0     C  982  10.558   8.589  10.895  1.3353  0.3040 -0.6634
  749MOL0     O  983  10.577   8.727  10.880 -0.0564  0.1348  0.6801
  749MOL0     C  984  10.567   8.785  10.757  1.0013 -0.6598 -0.4948
  749MOL0     C  985  10.562   8.741  10.629 -0.1790 -1.3524 -0.1721
  749MOL0     C  986  10.549   8.823  10.521 -0.1331 -0.1621  0.2391
  749MOL0     C  987  10.532   8.961  10.540  0.4685 -0.0352  0.2307
  749MOL0     O  988  10.516   9.033  10.425 -0.0491 -0.2465 -0.0562
  749MOL0     C  989  10.567   9.168  10.421 -0.8190 -0.0762  0.1721
  749MOL0     C  990  10.593   9.205  10.268  0.6550 -0.8431 -0.9569
  749MOL0     C  991  10.463   9.238  10.194  0.4138 -0.0653 -0.0015
  749MOL0     C  992  10.467   9.259  10.044  0.6165 -0.6472  0.3046
  749MOL0     C  993  10.322   9.306   9.998  0.2576 -0.3875  0.4237
  749MOL0     C  994  10.343   9.345   9.842  0.7035 -0.7838 -0.2417
  749MOL0     C  995  10.219   9.406   9.787 -0.0587 -0.7550  0.4727
  749MOL0     C  996  10.266   9.457   9.641  0.0775  0.2521  0.4352
  749MOL0     N  997  10.171   9.555   9.575  0.0244 -0.4109 -0.5788
  749MOL0     C  998  10.063   9.527   9.499 -0.9974  0.6209 -0.3685
  749MOL0     C  999  10.007   9.651   9.466 -0.7474  0.3356  0.3395
  749MOL0     C 1000   9.881   9.677   9.387 -0.2598  0.2546 -0.4527
  749MOL0     C 1001   9.773   9.760   9.457  0.2767 -0.3643 -0.2070
  749MOL0     C 1002   9.697   9.698   9.572 -0.1851  0.3584 -1.1013
  749MOL0     C 1003   9.796   9.699   9.695  0.3867  0.3227  0.4599
  749MOL0     O 1004   9.737   9.650   9.813 -0.0570 -0.1520  0.3192
  749MOL0     C 1005   9.797   9.685   9.925 -0.8992 -0.2595  0.1082
  749MOL0     C 1006   9.938   9.702   9.936  0.7219 -0.0737  0.8085
  749MOL0     C 1007  10.004   9.744  10.047  0.3604  0.5156 -0.1945
  749MOL0     C 1008  10.160   9.764  10.035 -0.2097 -0.5681  0.1166
  749MOL0     C 1009   9.928   9.786  10.162 -0.4838 -0.4251  0.4704
  749MOL0     C 1010   9.993   9.847  10.283 -0.7254  0.3995  0.1159
  749MOL0     O 1011   9.912   9.933  10.358 -0.6052 -0.0363  0.7752
  749MOL0     C 1012   9.963   9.963  10.482 -0.0789 -1.1066  0.2913
  749MOL0     C 1013   9.974   9.877  10.584  0.6880  0.1250 -0.1107
  749MOL0     C 1014  10.026   9.930  10.713  0.2024 -0.4705 -0.3326
  749MOL0     C 1015  10.073  10.063  10.719 -0.6168 -0.5685 -0.2922
  749MOL0     O 1016  10.125  10.092  10.843 -0.4168 -1.1083  0.2873
  749MOL0     C 1017  10.165  10.225  10.884  0.2847 -0.2759  0.4836
  749MOL0     C 1018  10.258  10.223  11.006  0.2447 -0.2582 -0.9516
  749MOL0     C 1019  10.190  10.289  11.120 -1.0042 -0.0071  0.1380
  749MOL0     C 1020  10.076  10.204  11.172  0.2346  0.5586 -0.0011
  749MOL0     C 1021  10.006  10.296  11.280 -0.1156 -0.3012  0.4965
  749MOL0     C 1022   9.886  10.231  11.351 -0.2021 -0.1547 -0.4994
  749MOL0     C 1023   9.922  10.111  11.431  0.0871  0.8267  0.7489
  749MOL0     C 1024   9.817  10.078  11.533  1.0582  0.0842  0.2918
  749MOL0    Cl 1025   9.666  10.009  11.457 -0.2610  0.2695 -0.4929
  749MOL0     C 1026  10.064  10.158  10.612  1.3395  0.9017 -0.1129
  749MOL0     C 1027  10.003  10.102  10.495  0.2054 -0.5222  0.0157
  749MOL0     O 1028  10.094   9.797  10.320 -0.7251 -0.3727  0.1219
  749MOL0     C 1029   9.787   9.772  10.153 -0.4028 -0.6650 -0.1418
  749MOL0     C 1030   9.725   9.712  10.037 -0.6855  0.3137  0.0158
  749MOL0     N 1031  10.087   9.751   9.518 -0.1923  0.1182 -0.2829
  749MOL0     N 1032  10.178   9.694   9.598  0.1402  0.8241 -0.3165
  749MOL0     C 1033  10.534   9.010  10.665 -0.0715 -0.2268 -0.0303
  749MOL0     C 1034  10.557   8.928  10.775 -0.2591  0.0144  0.8817
  749MOL0     C 1035  10.568   8.529  11.024 -0.8021  0.0068 -1.0579
  749MOL0     C 1036  10.645   8.412  11.040 -0.4623 -0.4818  0.3251
  749MOL0     C 1037  10.681   8.373  11.170 -0.4629 -0.5188  0.7264
  749MOL0     C 1038  10.637   8.433  11.285  0.3235 -0.0328  0.3770
  749MOL0     O 1039  10.664   8.378  11.413  0.2113  0.1601 -0.4489
  749MOL0     C 1040  10.673   8.238  11.422  0.6147 -0.0677  0.1296
  749MOL0     C 1041  10.686   8.203  11.567 -0.9873 -0.1285  0.1229
  749MOL0     C 1042  10.817   8.228  11.623 -0.8006 -0.3122  0.5949
  749MOL0     C 1043  10.818   8.199  11.781 -0.5412  0.5622  0.7494
  749MOL0     C 1044  10.937   8.122  11.810  0.1774  0.2517  0.1094
  749MOL0     C 1045  11.041   8.064  11.844  0.9717 -0.0324 -0.5021
  749MOL0     C 1046  10.579   8.563  11.275  0.6793 -0.5820  0.6231
  749MOL0     C 1047  10.540   8.603  11.146  0.4288  0.5788 -0.9440
  749MOL0     H 1048  10.585   8.636  10.613 -1.7744 -1.6988 -0.4333
  749MOL0     H 1049  10.543   8.782  10.420  0.5831 -2.8939  1.2281
  749MOL0     H 1050  10.478   9.223  10.455 -3.1282 -1.4128 -3.1845
  749MOL0     H 1051  10.650   9.184  10.490 -0.2863 -2.7353  0.2579
  749MOL0     H 1052  10.635   9.306  10.262 -0.8922 -0.2223 -1.8877
  749MOL0     H 1053  10.667   9.142  10.217  0.4236 -0.2005 -2.1180
  749MOL0     H 1054  10.388   9.159  10.204  2.1080 -2.0755 -2.1044
  749MOL0     H 1055  10.437   9.337  10.235  1.4138 -1.1814  3.8003
  749MOL0     H 1056  10.545   9.332  10.022 -1.3073  1.1371 -0.9826
  749MOL0     H 1057  10.491   9.167   9.990  1.4583  1.2301 -2.7461
  749MOL0     H 1058  10.260   9.217  10.006 -1.8602  0.5951 -2.7512
  749MOL0     H 1059  10.264   9.376  10.059  1.2580  2.9683 -2.1085
  749MOL0     H 1060  10.416   9.426   9.844 -0.2608  0.1078  0.4110
  749MOL0     H 1061  10.384   9.268   9.777  2.0008  0.3369 -0.8004
  749MOL0     H 1062  10.133   9.339   9.789 -0.4953 -0.2100 -0.1025
  749MOL0     H 1063  10.195   9.493   9.849  1.0877  1.5244 -2.0760
  749MOL0     H 1064  10.284   9.362   9.590 -0.5210 -0.8439  2.1602
  749MOL0     H 1065  10.361   9.511   9.646  1.4342 -1.9874  0.4434
  749MOL0     H 1066  10.017   9.433   9.468  0.8317 -0.8657  1.1581
  749MOL0     H 1067   9.908   9.729   9.295  0.5352 -3.5782 -2.5775
  749MOL0     H 1068   9.844   9.579   9.356  2.1538 -0.4484 -1.3341
  749MOL0     H 1069   9.702   9.775   9.375 -1.1680 -2.6275  0.5266
  749MOL0     H 1070   9.829   9.852   9.474 -0.1123  0.4227 -2.7340
  749MOL0     H 1071   9.675   9.595   9.545  0.8899 -0.8269  2.0492
  749MOL0     H 1072   9.615   9.768   9.595  0.3604  0.0940  2.1091
  749MOL0     H 1073   9.816   9.804   9.718 -1.6103  0.0599  4.1464
  749MOL0     H 1074   9.880   9.634   9.668 -0.5267 -0.8269  0.2899
  749MOL0     H 1075   9.994   9.682   9.846 -0.1421 -1.4752  0.5482
  749MOL0     H 1076  10.185   9.780   9.929  0.4085  0.8865  0.4637
  749MOL0     H 1077  10.189   9.850  10.095 -4.4336 -0.4495  2.2869
  749MOL0     H 1078  10.208   9.670  10.066 -2.1668 -1.8427 -0.5564
  749MOL0     H 1079   9.931   9.778  10.599  0.0576  0.7790  3.3508
  749MOL0     H 1080  10.038   9.868  10.802  0.2081  0.3687  0.2579
  749MOL0     H 1081  10.215  10.283  10.806 -3.6343  0.1272 -2.0226
  749MOL0     H 1082  10.071  10.279  10.901 -0.2181 -1.1391  0.5141
  749MOL0     H 1083  10.278  10.118  11.033 -1.0900 -0.7642 -1.8255
  749MOL0     H 1084  10.340  10.291  10.982 -1.4034  2.5455  0.8456
  749MOL0     H 1085  10.163  10.392  11.093 -2.5690 -1.0840 -2.7777
  749MOL0     H 1086  10.262  10.283  11.203  0.3499 -2.0597 -1.1161
  749MOL0     H 1087   9.995  10.184  11.101  0.3344 -0.0006  0.0430
  749MOL0     H 1088  10.110  10.108  11.210 -1.4836 -1.2096 -2.6176
  749MOL0     H 1089   9.980  10.386  11.222  2.3289  0.9586  1.2096
  749MOL0     H 1090  10.080  10.329  11.354  0.0293 -1.9174  1.1032
  749MOL0     H 1091   9.844  10.304  11.420 -2.1505 -2.4997  0.9696
  749MOL0     H 1092   9.806  10.201  11.282  0.1723 -0.3765 -0.8432
  749MOL0     H 1093  10.016  10.138  11.479  3.4812 -2.3538 -3.2503
  749MOL0     H 1094   9.942  10.033  11.356  2.5671 -0.0217  2.1747
  749MOL0     H 1095   9.793  10.164  11.596  0.3087 -1.9640  3.0502
  749MOL0     H 1096   9.858  10.007  11.606  0.5121 -1.2232 -0.6386
  749MOL0     H 1097  10.099  10.260  10.618  4.7022 -0.1901  1.9269
  749MOL0     H 1098  10.013  10.165  10.407  0.0140 -1.0126 -0.3622
  749MOL0     H 1099   9.729   9.795  10.241 -1.1618  1.7215 -1.1915
  749MOL0     H 1100   9.616   9.714  10.035 -0.6832  2.1038 -0.1576
  749MOL0     H 1101  10.513   9.116  10.676  2.6114  0.4374 -0.6278
  749MOL0     H 1102  10.560   8.988  10.866 -0.8094 -0.3810  1.1729
  749MOL0     H 1103  10.678   8.360  10.950  1.3052  3.8639 -1.8240
  749MOL0     H 1104  10.757   8.295  11.174 -0.0916 -0.3298 -1.4184
  749MOL0     H 1105  10.576   8.201  11.387 -0.7051  2.1997  1.1651
  749MOL0     H 1106  10.756   8.186  11.371 -0.8893 -0.9199 -1.5855
  749MOL0     H 1107  10.656   8.097  11.571 -1.1930 -0.1171 -0.7393
  749MOL0     H 1108  10.619   8.265  11.626  0.1152  3.1890 -1.8665
  749MOL0     H 1109  10.818   8.335  11.600 -2.6169 -0.2146  0.7627
  749MOL0     H 1110  10.893   8.173  11.567  2.1353  1.9705  2.1155
  749MOL0     H 1111  10.734   8.138  11.816 -0.2704 -1.2997 -1.5850
  749MOL0     H 1112  10.812   8.297  11.829  1.0738  2.4603 -2.5705
  749MOL0     H 1113  11.117   8.016  11.903 -0.8346  0.5462  2.4829
  749MOL0     H 1114  10.549   8.632  11.352  2.4297  3.2012 -1.7998
  749MOL0     H 1115  10.483   8.695  11.137 -2.7686 -1.0832  0.5920
  750MOL0     O 1116   5.885   7.312   2.324  0.4283  0.1769  0.1266
  750MOL0     C 1117   5.795   7.359   2.262 -0.4740 -0.2399  0.4264
  750MOL0     O 1118   5.815   7.454   2.171  0.8260 -0.5071  0.0562
  750MOL0     C 1119   5.941   7.496   2.151 -0.4993 -0.4762  0.4851
  750MOL0     C 1120   5.992   7.462   2.029 -0.9995 -0.2637  0.3936
  750MOL0     C 1121   6.110   7.521   1.982  0.3452  0.1927  0.0071
  750MOL0     C 1122   6.184   7.598   2.072  0.7448  0.1375 -0.7821
  750MOL0     O 1123   6.296   7.647   2.017 -0.1878  0.1490 -0.0004
  750MOL0     C 1124   6.346   7.774   2.056 -0.4722  0.2970  0.8912
  750MOL0     C 1125   6.434   7.845   1.952 -0.1700  0.2441 -0.2740
  750MOL0     C 1126   6.577   7.797   1.953 -0.1944  0.2180  0.1695
  750MOL0     C 1127   6.598   7.677   1.866  0.3695  0.4887 -0.0340
  750MOL0     C 1128   6.592   7.684   1.713 -0.8747  0.8022  0.8153
  750MOL0     C 1129   6.604   7.542   1.655 -0.0790 -1.1837 -0.1250
  750MOL0     C 1130   6.635   7.544   1.505  0.0634 -1.5623  0.0177
  750MOL0     C 1131   6.738   7.434   1.455  0.0794  0.1817 -0.5528
  750MOL0     N 1132   6.754   7.447   1.306  0.9377 -0.2849 -1.4900
  750MOL0     C 1133   6.663   7.405   1.217  0.2881  0.4704  0.3151
  750MOL0     C 1134   6.724   7.353   1.109 -0.1492  0.3413  0.5854
  750MOL0     C 1135   6.644   7.307   0.990 -0.4053  0.5643  0.1211
  750MOL0     C 1136   6.613   7.156   1.022 -0.2760  0.3649  0.2026
  750MOL0     C 1137   6.744   7.071   1.043  0.0764 -1.2393 -0.2251
  750MOL0     C 1138   6.714   6.920   1.053 -0.2080 -0.0761 -0.4281
  750MOL0     O 1139   6.624   6.888   1.159 -0.2928 -0.1944 -0.0708
  750MOL0     C 1140   6.608   6.761   1.204  0.7072  0.1231 -0.5667
  750MOL0     C 1141   6.562   6.744   1.338 -0.3759  0.2542 -0.5129
  750MOL0     C 1142   6.558   6.614   1.407 -0.2280 -0.5759 -0.1123
  750MOL0     C 1143   6.517   6.617   1.553  0.2044  0.6441 -0.5549
  750MOL0     C 1144   6.583   6.503   1.325  0.1601  0.3821 -0.1219
  750MOL0     C 1145   6.579   6.363   1.373 -0.3314  0.5183 -0.6007
  750MOL0     O 1146   6.597   6.255   1.276  0.0752  0.8350  0.5111
  750MOL0     C 1147   6.673   6.139   1.305  0.2280  0.7971 -1.1641
  750MOL0     C 1148   6.642   6.026   1.235  0.2919 -0.0023  0.3937
  750MOL0     C 1149   6.681   5.900   1.280 -0.3174 -0.6770  0.1150
  750MOL0     C 1150   6.776   5.885   1.382  0.5726 -0.6745 -0.3470
  750MOL0     O 1151   6.822   5.758   1.415  1.0147 -0.7076 -0.3525
  750MOL0     C 1152   6.721   5.666   1.468  0.0125  0.4566 -0.1724
  750MOL0     C 1153   6.641   5.710   1.598  0.3480  0.0127  0.2240
  750MOL0     C 1154   6.509   5.789   1.566  0.2557  0.0952 -0.3585
  750MOL0     C 1155   6.385   5.707   1.573 -1.1838 -0.2748 -0.0700
  750MOL0     C 1156   6.387   5.585   1.483  0.7929  1.4403  0.7202
  750MOL0     C 1157   6.253   5.519   1.460  0.1124  0.0766  0.3091
  750MOL0     C 1158   6.171   5.461   1.575 -0.9814  0.2300  0.7191
  750MOL0     C 1159   6.245   5.351   1.651  1.0793 -0.1008 -0.6633
  750MOL0    Cl 1160   6.130   5.309   1.777  0.3429 -0.1254  0.0351
  750MOL0     C 1161   6.823   6.002   1.444 -0.7627  0.9175 -0.7895
  750MOL0     C 1162   6.761   6.130   1.420 -0.0397 -0.7336 -0.0831
  750MOL0     O 1163   6.577   6.345   1.492  0.2194 -0.7713 -0.3892
  750MOL0     C 1164   6.616   6.515   1.184 -0.4275  0.4924  0.2858
  750MOL0     C 1165   6.637   6.644   1.135  0.6460 -0.1181 -0.1936
  750MOL0     N 1166   6.859   7.377   1.125  0.3593 -0.7645  0.3836
  750MOL0     N 1167   6.875   7.430   1.245  0.7832  0.3941 -0.7405
  750MOL0     C 1168   6.138   7.614   2.203  0.8844  0.0304 -0.0896
  750MOL0     C 1169   6.009   7.574   2.241 -0.4699 -0.3350  0.1948
  750MOL0     C 1170   5.671   7.288   2.268  1.4996 -0.3323 -0.5002
  750MOL0     C 1171   5.587   7.267   2.387 -0.2783  0.3231 -0.0742
  750MOL0     C 1172   5.479   7.180   2.385  1.0339 -0.0574  0.0113
  750MOL0     C 1173   5.449   7.121   2.264  0.3093  0.3558 -0.5868
  750MOL0     O 1174   5.331   7.052   2.245  0.1099 -0.8841 -0.5762
  750MOL0     C 1175   5.335   6.914   2.274  0.3480  0.0817 -0.2134
  750MOL0     C 1176   5.361   6.880   2.422 -0.7136 -0.2137  0.7578
  750MOL0     C 1177   5.279   6.761   2.470 -0.2441 -0.8661 -0.0845
  750MOL0     C 1178   5.133   6.777   2.466 -0.2821  0.1140  0.3943
  750MOL0     C 1179   5.077   6.707   2.351 -0.4635  0.3406 -0.5680
  750MOL0     C 1180   5.021   6.662   2.259 -0.1750 -0.9926 -0.5999
  750MOL0     C 1181   5.536   7.126   2.153  0.1441  0.3160  0.7238
  750MOL0     C 1182   5.645   7.202   2.155  0.5932 -0.3880 -0.0403
  750MOL0     H 1183   5.940   7.405   1.953  0.1906 -1.5191  0.4981
  750MOL0     H 1184   6.148   7.512   1.881 -1.8621 -0.4256 -0.8076
  750MOL0     H 1185   6.262   7.844   2.053  0.2640  1.1887  0.7298
  750MOL0     H 1186   6.402   7.766   2.149  2.0080 -2.3362 -0.6941
  750MOL0     H 1187   6.387   7.819   1.856 -2.6547  1.8345  0.4104
  750MOL0     H 1188   6.430   7.953   1.972  2.2657  0.4704 -0.7042
  750MOL0     H 1189   6.644   7.874   1.915  2.9027 -1.0880  2.5389
  750MOL0     H 1190   6.612   7.765   2.051  2.3680 -2.1184 -1.3706
  750MOL0     H 1191   6.696   7.633   1.886 -0.3584 -2.4987 -2.2573
  750MOL0     H 1192   6.520   7.605   1.892 -2.0843  2.1131 -2.3961
  750MOL0     H 1193   6.495   7.729   1.694 -1.8771 -1.4907  0.2386
  750MOL0     H 1194   6.674   7.746   1.673  1.0540 -1.1983  1.4457
  750MOL0     H 1195   6.678   7.485   1.713 -2.0054 -0.1408  3.6472
  750MOL0     H 1196   6.515   7.480   1.670  0.3342 -1.8801 -0.4480
  750MOL0     H 1197   6.542   7.536   1.448  0.9514 -0.9597 -1.5721
  750MOL0     H 1198   6.684   7.641   1.494  0.6541 -1.8188  0.3739
  750MOL0     H 1199   6.685   7.341   1.478  2.9342 -2.0647 -2.3189
  750MOL0     H 1200   6.832   7.444   1.510 -0.1736 -0.0050 -0.0728
  750MOL0     H 1201   6.555   7.413   1.223  0.2736 -0.2595  1.2254
  750MOL0     H 1202   6.561   7.378   0.978 -0.4927  0.2544 -1.2242
  750MOL0     H 1203   6.712   7.314   0.905 -0.6829  3.3122  0.0453
  750MOL0     H 1204   6.566   7.111   0.934  0.9000  0.2914 -0.3977
  750MOL0     H 1205   6.544   7.153   1.107  0.6252  0.4345  0.9525
  750MOL0     H 1206   6.790   7.107   1.136 -0.5358 -2.1063  0.4314
  750MOL0     H 1207   6.811   7.105   0.964  3.9857 -0.9334  2.9212
  750MOL0     H 1208   6.813   6.878   1.069  0.4353  1.7266  0.7349
  750MOL0     H 1209   6.683   6.870   0.961 -2.0410  1.9309 -1.0022
  750MOL0     H 1210   6.549   6.836   1.394  1.5394  0.0077  0.4381
  750MOL0     H 1211   6.605   6.610   1.618 -1.1840  3.1871  1.8102
  750MOL0     H 1212   6.468   6.712   1.577 -3.2825 -1.0118 -0.4094
  750MOL0     H 1213   6.438   6.544   1.573  2.0260 -1.1461  0.5693
  750MOL0     H 1214   6.592   6.051   1.142 -0.0353  0.8554  0.7974
  750MOL0     H 1215   6.654   5.813   1.222  0.9778 -0.8939 -0.2003
  750MOL0     H 1216   6.657   5.640   1.383 -0.2419  2.0105 -0.4765
  750MOL0     H 1217   6.765   5.570   1.498 -2.9068  0.1937  4.1143
  750MOL0     H 1218   6.604   5.627   1.660  0.1200 -0.5095 -0.5956
  750MOL0     H 1219   6.716   5.773   1.648  1.0622 -1.2125  0.7464
  750MOL0     H 1220   6.518   5.836   1.467 -3.9446 -0.3280 -1.1271
  750MOL0     H 1221   6.480   5.865   1.639 -2.3045 -0.1642 -1.0371
  750MOL0     H 1222   6.371   5.691   1.681 -0.2802  0.7324  0.2068
  750MOL0     H 1223   6.294   5.752   1.532  0.4231 -0.0678 -3.6698
  750MOL0     H 1224   6.450   5.510   1.533 -0.1475 -0.4934 -0.8410
  750MOL0     H 1225   6.430   5.619   1.388  2.7407  1.9901  1.7398
  750MOL0     H 1226   6.187   5.597   1.419 -1.6542 -1.3746  0.2721
  750MOL0     H 1227   6.271   5.435   1.392  1.8693 -1.1366  2.1499
  750MOL0     H 1228   6.083   5.427   1.521 -1.4267 -1.6123  2.4776
  750MOL0     H 1229   6.135   5.537   1.645 -2.0209 -0.4899  0.9866
  750MOL0     H 1230   6.338   5.393   1.692 -0.4695  1.7382  1.1826
  750MOL0     H 1231   6.270   5.264   1.589  1.3244 -1.3837  1.1433
  750MOL0     H 1232   6.884   5.983   1.532  0.5987 -0.6313 -2.0172
  750MOL0     H 1233   6.784   6.217   1.481 -0.2323 -1.2629  0.7702
  750MOL0     H 1234   6.629   6.427   1.123 -0.9148 -0.4634  1.5343
  750MOL0     H 1235   6.686   6.647   1.038  1.4687 -1.8464  0.1401
  750MOL0     H 1236   6.202   7.674   2.267  3.2554 -0.4185 -1.9207
  750MOL0     H 1237   5.964   7.600   2.336 -5.6763 -4.3672 -0.7093
  750MOL0     H 1238   5.613   7.333   2.469 -1.0793  0.3338  0.1747
  750MOL0     H 1239   5.413   7.167   2.470 -0.2559  0.2783 -0.9109
  750MOL0     H 1240   5.237   6.877   2.244  1.2076 -2.8948  0.2980
  750MOL0     H 1241   5.410   6.856   2.218 -0.6857 -0.5466 -0.9990
  750MOL0     H 1242   5.330   6.964   2.485 -3.5268 -1.3719  1.0235
  750MOL0     H 1243   5.466   6.848   2.429 -1.6729 -3.2480  2.9021
  750MOL0     H 1244   5.313   6.732   2.570  3.4882 -4.2662 -2.0295
  750MOL0     H 1245   5.312   6.671   2.418  0.4196  0.5765 -2.2922
  750MOL0     H 1246   5.120   6.886   2.458 -1.5469 -0.0927 -0.7927
  750MOL0     H 1247   5.070   6.746   2.550  2.0753 -1.6508  1.6299
  750MOL0     H 1248   4.956   6.622   2.184 -3.0085 -0.5929  1.4850
  750MOL0     H 1249   5.522   7.078   2.057  2.3237 -0.1289  0.5558
  750MOL0     H 1250   5.710   7.195   2.069  0.3008 -0.7230 -0.2340
  751MOL0     O 1251   8.640   0.388   8.662 -0.3271  0.9595  0.2083
  751MOL0     C 1252   8.581   0.279   8.688 -0.1891  0.0054  0.0964
  751MOL0     O 1253   8.580   0.212   8.801 -0.5135  0.1888  0.0187
  751MOL0     C 1254   8.642   0.255   8.916  0.8660  0.6266 -0.1983
  751MOL0     C 1255   8.587   0.189   9.035 -0.7009  0.4588 -0.3547
  751MOL0     C 1256   8.639   0.230   9.166 -0.3147  0.9558  1.0909
  751MOL0     C 1257   8.751   0.316   9.175  1.0637  1.1658 -0.1889
  751MOL0     O 1258   8.807   0.356   9.290  0.0473  0.6631 -0.5560
  751MOL0     C 1259   8.791   0.292   9.416 -0.1526 -0.4441 -0.0260
  751MOL0     C 1260   8.846   0.151   9.433 -0.4286  0.2021 -0.6897
  751MOL0     C 1261   8.832   0.114   9.579 -0.8942  0.4791 -0.7822
  751MOL0     C 1262   8.904  -0.018   9.610 -0.7613 -1.1331  0.1554
  751MOL0     C 1263   9.004  -0.005   9.734 -0.4015  0.3287 -0.1632
  751MOL0     C 1264   9.087  -0.125   9.762  0.2935 -0.3736 -0.6004
  751MOL0     C 1265   9.188  -0.102   9.886 -0.3022  0.9305 -0.7167
  751MOL0     C 1266   9.259  -0.236   9.932 -0.4582  0.2052  0.1738
  751MOL0     N 1267   9.338  -0.287   9.819  0.3837 -0.9021  0.2611
  751MOL0     C 1268   9.344  -0.418   9.783 -0.2455  0.0701  0.1323
  751MOL0     C 1269   9.459  -0.427   9.700  0.3428 -0.5011  0.6615
  751MOL0     C 1270   9.513  -0.540   9.623  1.2376 -0.0822  0.4964
  751MOL0     C 1271   9.505  -0.666   9.713  0.5028  0.5997  0.0237
  751MOL0     C 1272   9.543  -0.795   9.633 -0.3048 -1.1917 -0.0014
  751MOL0     C 1273   9.662  -0.779   9.544  0.2941  0.1043 -0.3347
  751MOL0     O 1274   9.672  -0.907   9.474  0.1948 -0.4492  0.4777
  751MOL0     C 1275   9.601  -0.910   9.359  0.4792  0.1319  0.4366
  751MOL0     C 1276   9.641  -0.828   9.253  0.3147 -0.9919  0.7130
  751MOL0     C 1277   9.585  -0.843   9.126 -1.1802 -0.7285  0.0054
  751MOL0     C 1278   9.640  -0.764   9.016  0.0644  0.6286 -0.4039
  751MOL0     C 1279   9.484  -0.935   9.110 -0.2788 -0.4028 -0.5690
  751MOL0     C 1280   9.435  -0.975   8.979  0.4741  0.1589  0.0548
  751MOL0     O 1281   9.386  -1.103   8.971 -0.1165  0.5291 -0.3454
  751MOL0     C 1282   9.352  -1.154   8.851  0.3995 -0.1749  0.3166
  751MOL0     C 1283   9.216  -1.192   8.828 -0.2302  0.1465 -0.2547
  751MOL0     C 1284   9.173  -1.249   8.704 -0.1975  0.5367 -0.8843
  751MOL0     C 1285   9.266  -1.272   8.600  0.5166 -0.7708 -0.4929
  751MOL0     O 1286   9.217  -1.304   8.480 -0.6830 -0.0796 -0.6582
  751MOL0     C 1287   9.244  -1.218   8.367 -0.5759  0.8326 -0.7112
  751MOL0     C 1288   9.201  -1.078   8.371 -0.2758  0.0889 -0.3428
  751MOL0     C 1289   9.280  -0.977   8.449 -0.3918 -0.1039  0.2065
  751MOL0     C 1290   9.216  -0.839   8.465 -0.2955  0.5723  0.1269
  751MOL0     C 1291   9.194  -0.766   8.327  0.7042  0.4881 -0.0560
  751MOL0     C 1292   9.116  -0.643   8.343  0.5401 -1.0589  0.2799
  751MOL0     C 1293   9.192  -0.517   8.315 -0.3154 -0.9970  0.4347
  751MOL0     C 1294   9.100  -0.399   8.319 -0.4875  0.0225 -0.2495
  751MOL0    Cl 1295   9.042  -0.377   8.477  0.5114  0.4026 -0.0244
  751MOL0     C 1296   9.401  -1.233   8.627 -0.7250 -0.4137  0.4313
  751MOL0     C 1297   9.441  -1.183   8.756 -0.4680 -0.8771 -0.4192
  751MOL0     O 1298   9.428  -0.897   8.885 -0.4855 -0.4561 -0.3649
  751MOL0     C 1299   9.436  -1.011   9.220  0.3989 -0.2964 -0.5611
  751MOL0     C 1300   9.497  -1.000   9.344 -0.5478  0.0093  0.3961
  751MOL0     N 1301   9.508  -0.299   9.691  1.4322  0.2060  0.2595
  751MOL0     N 1302   9.437  -0.219   9.769 -0.9573 -0.0455  0.4594
  751MOL0     C 1303   8.789   0.381   9.060 -0.3657 -0.4215  0.4956
  751MOL0     C 1304   8.735   0.357   8.931 -0.2583  0.9204  0.5129
  751MOL0     C 1305   8.501   0.231   8.572  0.6244 -0.7983  0.5738
  751MOL0     C 1306   8.440   0.108   8.571  0.3736  1.1082 -0.0439
  751MOL0     C 1307   8.362   0.066   8.461 -0.2246  0.3938  0.1019
  751MOL0     C 1308   8.331   0.157   8.361  0.1669  0.2859  0.1199
  751MOL0     O 1309   8.236   0.131   8.264 -0.6907  0.8494 -0.4148
  751MOL0     C 1310   8.302   0.121   8.140  0.7394 -0.1176  0.4292
  751MOL0     C 1311   8.269  -0.022   8.091 -0.6875 -1.1807  0.6390
  751MOL0     C 1312   8.333  -0.121   8.192  0.4850 -0.9254  0.2608
  751MOL0     C 1313   8.334  -0.265   8.132  0.4335  0.0598 -0.0776
  751MOL0     C 1314   8.204  -0.336   8.131  0.2224  0.6679 -0.2859
  751MOL0     C 1315   8.100  -0.401   8.153 -0.6692  0.5776 -0.1726
  751MOL0     C 1316   8.380   0.285   8.372  0.4807 -0.3222 -0.2530
  751MOL0     C 1317   8.471   0.320   8.467  0.3766  0.2792  0.4894
  751MOL0     H 1318   8.503   0.119   9.035 -0.8181  0.5976 -0.6537
  751MOL0     H 1319   8.609   0.167   9.249  1.1640 -2.4339 -0.7455
  751MOL0     H 1320   8.836   0.371   9.478 -1.9032  1.3804 -0.9513
  751MOL0     H 1321   8.685   0.311   9.439 -0.2558  0.2851 -1.0489
  751MOL0     H 1322   8.801   0.065   9.383  0.5531 -0.0442 -1.1790
  751MOL0     H 1323   8.951   0.158   9.403 -0.1095  1.4669  0.6106
  751MOL0     H 1324   8.879   0.193   9.639 -0.1842  0.3352 -1.1420
  751MOL0     H 1325   8.730   0.109   9.619 -0.4257  1.6223  0.6341
  751MOL0     H 1326   8.825  -0.093   9.623 -2.6209  0.3124 -2.0311
  751MOL0     H 1327   8.981  -0.036   9.534  0.7727  0.7170  1.1731
  751MOL0     H 1328   9.082   0.069   9.714  0.5040 -0.5750 -0.0407
  751MOL0     H 1329   8.956   0.036   9.824  1.5133 -0.4641  1.2828
  751MOL0     H 1330   9.014  -0.205   9.774 -3.3755  2.5662 -1.2997
  751MOL0     H 1331   9.158  -0.141   9.680  2.1286 -0.3338  0.9122
  751MOL0     H 1332   9.266  -0.035   9.850 -0.5368  1.8185  0.3691
  751MOL0     H 1333   9.135  -0.050   9.967 -0.2220 -2.1636  1.4814
  751MOL0     H 1334   9.197  -0.311   9.981 -0.0050 -0.0625  0.3478
  751MOL0     H 1335   9.338  -0.207  10.002 -0.9927 -0.5909  1.1137
  751MOL0     H 1336   9.269  -0.487   9.818  0.8452 -1.4796 -0.5063
  751MOL0     H 1337   9.454  -0.552   9.531 -0.3664 -2.1639  1.7118
  751MOL0     H 1338   9.618  -0.512   9.610  1.7167 -1.7542  0.5210
  751MOL0     H 1339   9.399  -0.682   9.736  1.1096 -3.5400  0.7046
  751MOL0     H 1340   9.571  -0.650   9.798  0.5472 -1.0007  0.3165
  751MOL0     H 1341   9.449  -0.832   9.590  0.5603 -2.8813 -0.5592
  751MOL0     H 1342   9.576  -0.862   9.713  0.2501 -0.9255 -0.0039
  751MOL0     H 1343   9.749  -0.746   9.601  0.2377 -1.2989  0.5904
  751MOL0     H 1344   9.654  -0.695   9.474  2.1188  0.7237  0.1504
  751MOL0     H 1345   9.720  -0.755   9.265 -2.6071  2.4878  0.4031
  751MOL0     H 1346   9.677  -0.836   8.941 -2.3922  0.9991 -2.0953
  751MOL0     H 1347   9.577  -0.693   8.962 -0.4386 -0.1551 -0.8778
  751MOL0     H 1348   9.720  -0.702   9.057 -0.3719  0.9202  0.0021
  751MOL0     H 1349   9.138  -1.170   8.900 -0.8594 -2.2551 -0.1267
  751MOL0     H 1350   9.072  -1.286   8.688  0.7976 -4.2410  1.9939
  751MOL0     H 1351   9.351  -1.221   8.344 -0.4176  2.0557 -0.1600
  751MOL0     H 1352   9.202  -1.277   8.285 -2.1309 -0.0932  0.6877
  751MOL0     H 1353   9.195  -1.050   8.265 -0.4408  2.8731  0.3267
  751MOL0     H 1354   9.101  -1.058   8.410 -0.8568  0.0507 -1.7309
  751MOL0     H 1355   9.370  -0.971   8.386 -1.0953 -1.8034 -1.0522
  751MOL0     H 1356   9.304  -1.007   8.552 -0.1100 -0.7490 -0.0395
  751MOL0     H 1357   9.118  -0.842   8.512 -0.2551 -0.1190  0.1712
  751MOL0     H 1358   9.283  -0.781   8.530  0.8685 -1.1076  0.4890
  751MOL0     H 1359   9.132  -0.835   8.270 -0.1951  0.8669  0.4365
  751MOL0     H 1360   9.279  -0.743   8.262  2.3325  1.7235  2.3151
  751MOL0     H 1361   9.032  -0.639   8.273 -0.7607 -1.4154  1.7670
  751MOL0     H 1362   9.083  -0.629   8.447 -1.8897  2.5441 -0.7934
  751MOL0     H 1363   9.236  -0.512   8.215  0.7171  2.2106  0.9124
  751MOL0     H 1364   9.277  -0.503   8.381  0.1131  3.6556 -0.7329
  751MOL0     H 1365   9.013  -0.424   8.257 -0.3292 -6.2612  1.3731
  751MOL0     H 1366   9.155  -0.310   8.286  0.9036 -1.2032 -1.3455
  751MOL0     H 1367   9.476  -1.225   8.550  0.4299 -2.2330  1.2872
  751MOL0     H 1368   9.545  -1.168   8.785 -1.0346  1.3613  0.6783
  751MOL0     H 1369   9.345  -1.069   9.212  0.2021 -0.3943  1.7802
  751MOL0     H 1370   9.466  -1.051   9.435 -1.3011  1.9396  1.2806
  751MOL0     H 1371   8.867   0.455   9.076 -0.7346 -0.1339  1.0056
  751MOL0     H 1372   8.780   0.419   8.854 -1.4675 -0.8807 -1.7920
  751MOL0     H 1373   8.443   0.033   8.649 -3.9371 -1.2383 -1.8220
  751MOL0     H 1374   8.322  -0.035   8.462 -0.0367  0.2539 -2.0894
  751MOL0     H 1375   8.248   0.185   8.069 -1.5526 -3.7394 -1.3980
  751MOL0     H 1376   8.410   0.138   8.147  1.0875 -1.6249 -0.6150
  751MOL0     H 1377   8.296  -0.044   7.987  1.3078 -2.7074  1.3965
  751MOL0     H 1378   8.161  -0.033   8.104 -1.3049  1.1532 -1.8135
  751MOL0     H 1379   8.280  -0.124   8.288  1.6240  0.9570  1.0134
  751MOL0     H 1380   8.439  -0.100   8.208  0.9823 -3.2896  0.3536
  751MOL0     H 1381   8.402  -0.330   8.188  0.1620 -1.6219 -1.6179
  751MOL0     H 1382   8.361  -0.256   8.027 -0.0633 -2.2160 -0.4461
  751MOL0     H 1383   8.010  -0.452   8.181 -0.8668  1.8330  1.6804
  751MOL0     H 1384   8.321   0.346   8.305 -0.8812 -3.2900 -1.9299
  751MOL0     H 1385   8.499   0.425   8.468 -2.7888  1.2083  0.9576
  752MOL0     O 1386   5.419  11.202   3.229  1.3327  0.0665  0.3868
  752MOL0     C 1387   5.301  11.237   3.212  0.4640  0.3419  0.3833
  752MOL0     O 1388   5.249  11.366   3.199 -0.1037 -0.1297 -0.0532
  752MOL0     C 1389   5.334  11.459   3.166  0.7502 -0.1353  0.5231
  752MOL0     C 1390   5.323  11.590   3.222  0.7963  1.0947 -0.1635
  752MOL0     C 1391   5.407  11.689   3.185 -0.5613  0.3906 -0.2844
  752MOL0     C 1392   5.505  11.673   3.092 -0.4037 -0.1437 -0.3012
  752MOL0     O 1393   5.596  11.780   3.072 -0.1851  0.2188 -0.1396
  752MOL0     C 1394   5.658  11.785   2.947  0.0803  0.3641 -0.7801
  752MOL0     C 1395   5.760  11.899   2.952  0.3399 -0.0507 -0.3059
  752MOL0     C 1396   5.839  11.929   2.816 -0.4586  0.1342 -0.4331
  752MOL0     C 1397   5.976  11.872   2.804 -0.5850 -0.0248 -0.3029
  752MOL0     C 1398   6.035  11.871   2.657 -0.5742 -0.1611  0.4393
  752MOL0     C 1399   6.183  11.906   2.648 -0.3561  0.0881  0.3297
  752MOL0     C 1400   6.237  11.857   2.510 -0.0076  0.2689 -1.0288
  752MOL0     C 1401   6.194  11.944   2.385 -0.1553  0.0960  0.5811
  752MOL0     N 1402   6.248  11.901   2.260 -0.3233  0.0259  0.0968
  752MOL0     C 1403   6.299  11.778   2.226 -0.0303 -0.2213  0.8115
  752MOL0     C 1404   6.351  11.791   2.100 -0.5517  0.1483 -0.9199
  752MOL0     C 1405   6.403  11.676   2.023  0.1624 -0.0688 -0.0730
  752MOL0     C 1406   6.552  11.653   2.061 -0.4684  0.3208 -0.1539
  752MOL0     C 1407   6.614  11.523   1.993 -0.4398  0.1676  0.6513
  752MOL0     C 1408   6.697  11.564   1.871  0.8545  0.0815 -0.4516
  752MOL0     O 1409   6.622  11.594   1.749 -0.4783 -0.0596  0.0531
  752MOL0     C 1410   6.671  11.675   1.647  0.1697  0.3718  0.9740
  752MOL0     C 1411   6.803  11.729   1.645 -0.5681  0.1430 -0.0555
  752MOL0     C 1412   6.846  11.813   1.538 -0.6853 -0.6199 -1.5278
  752MOL0     C 1413   6.982  11.881   1.538 -0.3529 -0.1651  0.1572
  752MOL0     C 1414   6.757  11.828   1.431  1.4413  0.0405 -0.0789
  752MOL0     C 1415   6.787  11.909   1.307 -0.3226  0.6827 -0.5834
  752MOL0     O 1416   6.913  11.909   1.255  0.4466 -0.7666 -0.3026
  752MOL0     C 1417   6.929  12.015   1.161  0.1476 -0.0888  0.1520
  752MOL0     C 1418   6.875  12.009   1.034 -0.0139  1.1146 -0.4095
  752MOL0     C 1419   6.908  12.110   0.942 -0.3723  0.1511  0.1725
  752MOL0     C 1420   6.968  12.228   0.993 -0.6820  0.8144  0.2613
  752MOL0     O 1421   6.999  12.325   0.902  0.6632 -0.8861 -0.1968
  752MOL0     C 1422   6.875  12.406   0.874 -0.0284  0.1240 -0.9031
  752MOL0     C 1423   6.907  12.557   0.862 -0.3489  0.7958  0.1320
  752MOL0     C 1424   6.998  12.609   0.976 -0.2368  0.3462 -0.0588
  752MOL0     C 1425   7.154  12.615   0.928  0.9851  0.5415 -0.0928
  752MOL0     C 1426   7.244  12.643   1.054  0.2119  0.0026 -0.3277
  752MOL0     C 1427   7.390  12.661   1.018 -0.9499  0.1270 -0.3062
  752MOL0     C 1428   7.460  12.767   1.101 -0.0668 -0.0953 -0.0049
  752MOL0     C 1429   7.450  12.738   1.248  0.5261  0.5300 -0.5085
  752MOL0    Cl 1430   7.534  12.600   1.315 -0.3928 -0.0706 -0.3782
  752MOL0     C 1431   7.019  12.238   1.122  0.4207 -0.1093  0.0098
  752MOL0     C 1432   7.007  12.127   1.206 -0.2907 -0.8168  0.1339
  752MOL0     O 1433   6.693  11.958   1.250  0.3726  0.4635 -0.5858
  752MOL0     C 1434   6.629  11.764   1.431  0.6194  0.9235  0.1335
  752MOL0     C 1435   6.584  11.693   1.542  0.5913  0.0342  0.8321
  752MOL0     N 1436   6.314  11.921   2.061  0.7441 -0.9741  0.5425
  752MOL0     N 1437   6.256  11.985   2.156 -0.7912  0.5803  0.1437
  752MOL0     C 1438   5.518  11.544   3.037  1.3482  0.0816  0.8220
  752MOL0     C 1439   5.430  11.440   3.068 -0.8006 -0.1620  0.2123
  752MOL0     C 1440   5.193  11.131   3.232 -0.2863  0.7046 -0.0281
  752MOL0     C 1441   5.220  10.993   3.227  0.3537  0.3958  0.2903
  752MOL0     C 1442   5.108  10.898   3.217  0.2014  0.2343  0.3368
  752MOL0     C 1443   4.974  10.936   3.235  0.2321 -0.0556 -0.1276
  752MOL0     O 1444   4.867  10.852   3.243  0.2269  0.5314  0.1008
  752MOL0     C 1445   4.891  10.704   3.270 -0.5874 -1.1585 -0.4910
  752MOL0     C 1446   4.780  10.660   3.342 -0.3866  0.1790 -0.8211
  752MOL0     C 1447   4.639  10.676   3.289  0.2730 -0.4185 -0.8808
  752MOL0     C 1448   4.588  10.578   3.184 -1.0146  0.0565 -0.2021
  752MOL0     C 1449   4.473  10.628   3.112  0.5958  0.6385 -0.7056
  752MOL0     C 1450   4.369  10.660   3.056  0.0124 -0.3706 -1.0637
  752MOL0     C 1451   4.961  11.074   3.248  0.0990 -0.7912  0.9694
  752MOL0     C 1452   5.063  11.173   3.237  0.5100 -0.1372  0.5193
  752MOL0     H 1453   5.245  11.591   3.297  0.4378 -2.6656 -0.2991
  752MOL0     H 1454   5.402  11.780   3.245  1.1992  0.0461  0.4227
  752MOL0     H 1455   5.713  11.692   2.938 -1.6487 -0.6598 -1.1775
  752MOL0     H 1456   5.584  11.798   2.868  0.0551 -2.0080 -1.2094
  752MOL0     H 1457   5.694  11.984   2.970  1.4572  0.5524  1.1255
  752MOL0     H 1458   5.838  11.887   3.028 -0.7101 -0.2367  0.7749
  752MOL0     H 1459   5.774  11.896   2.734 -0.6986  1.0550 -0.6172
  752MOL0     H 1460   5.827  12.036   2.801  0.4121  0.2100 -0.6556
  752MOL0     H 1461   6.045  11.922   2.873  0.2898 -1.1883 -0.3105
  752MOL0     H 1462   5.977  11.768   2.839 -1.1515 -0.1718 -0.7009
  752MOL0     H 1463   6.024  11.766   2.629  1.7542  0.3422 -3.0025
  752MOL0     H 1464   5.977  11.945   2.601  0.6400  1.5534  1.3351
  752MOL0     H 1465   6.206  12.011   2.666 -0.1044  0.2626 -0.9241
  752MOL0     H 1466   6.246  11.852   2.719 -0.8848 -1.5079 -0.3797
  752MOL0     H 1467   6.346  11.854   2.518  0.1559 -3.1365 -2.6227
  752MOL0     H 1468   6.221  11.749   2.496 -1.5345  0.4005 -0.4867
  752MOL0     H 1469   6.213  12.051   2.398 -3.3707  0.7764  0.4123
  752MOL0     H 1470   6.085  11.939   2.382 -0.2914  0.4687  2.8866
  752MOL0     H 1471   6.295  11.678   2.269 -1.8045 -1.0515 -1.0980
  752MOL0     H 1472   6.345  11.588   2.053  0.3488  0.1114  0.8712
  752MOL0     H 1473   6.394  11.699   1.917  0.5637 -0.2490 -0.1475
  752MOL0     H 1474   6.551  11.642   2.169 -3.2037 -0.7389 -0.1968
  752MOL0     H 1475   6.612  11.742   2.042  0.0034 -0.2634 -1.5280
  752MOL0     H 1476   6.530  11.459   1.967  0.4203  0.0274 -2.1093
  752MOL0     H 1477   6.669  11.455   2.058 -3.8201 -3.0873  0.4545
  752MOL0     H 1478   6.752  11.473   1.843  2.1427  1.3346 -2.2424
  752MOL0     H 1479   6.779  11.633   1.893 -0.1324  0.7729  1.1747
  752MOL0     H 1480   6.881  11.710   1.717  0.7667  2.4861 -0.7683
  752MOL0     H 1481   6.969  11.973   1.480 -2.1447 -0.9350 -0.7219
  752MOL0     H 1482   7.012  11.892   1.643 -3.5795  1.2399  1.0807
  752MOL0     H 1483   7.055  11.825   1.479  2.5410  2.5252  0.9238
  752MOL0     H 1484   6.815  11.920   1.015  1.1137 -0.0762  1.3809
  752MOL0     H 1485   6.883  12.101   0.837 -1.5485 -1.9201  0.5734
  752MOL0     H 1486   6.837  12.357   0.784  1.4108  2.9730 -3.2052
  752MOL0     H 1487   6.811  12.390   0.962  0.7199 -2.8144 -0.7627
  752MOL0     H 1488   6.941  12.589   0.763 -0.9766 -0.9627 -0.6865
  752MOL0     H 1489   6.812  12.606   0.882 -0.9146  0.0603 -0.6677
  752MOL0     H 1490   6.986  12.548   1.066 -3.2727  2.0556  0.8346
  752MOL0     H 1491   6.978  12.712   1.005 -1.7377 -0.3862  1.7136
  752MOL0     H 1492   7.202  12.526   0.886  1.0656  0.2071  0.6892
  752MOL0     H 1493   7.148  12.692   0.851  2.6370 -2.5206 -3.5718
  752MOL0     H 1494   7.234  12.562   1.127 -0.5826  1.3825  1.1721
  752MOL0     H 1495   7.202  12.736   1.094  3.5840  0.6410  2.2794
  752MOL0     H 1496   7.458  12.575   1.018  0.2754  0.8279 -4.6149
  752MOL0     H 1497   7.388  12.679   0.910  0.5987  2.3764 -0.0266
  752MOL0     H 1498   7.416  12.866   1.083  1.0290 -0.0336 -2.9670
  752MOL0     H 1499   7.567  12.786   1.090 -0.6781  5.3896  0.9653
  752MOL0     H 1500   7.347  12.723   1.283  1.2899 -2.9745  0.6793
  752MOL0     H 1501   7.501  12.825   1.289  1.9532 -1.3385  1.9694
  752MOL0     H 1502   7.083  12.323   1.144 -0.8756  0.7117  0.7373
  752MOL0     H 1503   7.046  12.144   1.305 -0.1114 -0.5546  0.0169
  752MOL0     H 1504   6.555  11.781   1.353 -1.3758  3.3823  2.3827
  752MOL0     H 1505   6.479  11.665   1.551  0.2325  1.0469  0.0903
  752MOL0     H 1506   5.598  11.538   2.964  1.3286  0.3510  0.7792
  752MOL0     H 1507   5.446  11.342   3.024  1.5253  0.8818 -1.4997
  752MOL0     H 1508   5.324  10.965   3.234  0.9906  2.7088  0.8897
  752MOL0     H 1509   5.128  10.793   3.197 -0.4839 -0.0682  1.1920
  752MOL0     H 1510   4.917  10.632   3.192  4.0463  0.1832 -0.4663
  752MOL0     H 1511   4.976  10.692   3.337 -0.2171 -3.0267 -1.2372
  752MOL0     H 1512   4.788  10.715   3.436  0.2918 -0.0671 -0.7261
  752MOL0     H 1513   4.789  10.554   3.367  0.9618  0.7521  1.3333
  752MOL0     H 1514   4.629  10.778   3.251  0.3424 -0.2386 -0.4215
  752MOL0     H 1515   4.580  10.666   3.381 -0.4286 -0.3265 -1.3103
  752MOL0     H 1516   4.574  10.479   3.228  1.2451  0.0517  0.6595
  752MOL0     H 1517   4.668  10.555   3.113 -1.8113 -2.3331 -0.3946
  752MOL0     H 1518   4.280  10.678   3.000  0.5711  0.4735 -1.7219
  752MOL0     H 1519   4.859  11.108   3.257 -2.3698 -5.4704 -3.4902
  752MOL0     H 1520   5.040  11.279   3.233  2.9962  0.4272 -0.9075
  753MOL0     O 1521  10.885   2.292  11.085 -0.1775  0.0488  0.2378
  753MOL0     C 1522  10.773   2.318  11.129  0.2523 -0.1108 -0.2275
  753MOL0     O 1523  10.741   2.408  11.224 -0.2054 -1.2973 -0.2196
  753MOL0     C 1524  10.819   2.511  11.269 -0.7753  0.0524  0.1191
  753MOL0     C 1525  10.818   2.542  11.412  0.3834  0.9858  1.1609
  753MOL0     C 1526  10.896   2.642  11.461  0.7616 -0.7026  0.2953
  753MOL0     C 1527  10.979   2.711  11.367 -0.8044  0.3934  1.0325
  753MOL0     O 1528  11.078   2.793  11.420  0.1962 -0.1973 -0.2796
  753MOL0     C 1529  11.028   2.873  11.533 -0.5791 -1.0976  0.6692
  753MOL0     C 1530  11.134   2.984  11.578  0.5703  0.6066  0.4122
  753MOL0     C 1531  11.202   3.056  11.457 -0.1527  0.1250 -0.3006
  753MOL0     C 1532  11.351   3.021  11.442 -0.3785  0.8184 -0.2148
  753MOL0     C 1533  11.426   3.111  11.343 -0.2549  0.2806 -0.8120
  753MOL0     C 1534  11.368   3.109  11.207  0.1223  0.8840  1.0508
  753MOL0     C 1535  11.475   3.064  11.104  0.7072 -0.7377  0.5200
  753MOL0     C 1536  11.419   3.076  10.956  0.2689 -0.4242  0.3436
  753MOL0     N 1537  11.374   3.215  10.926  0.3794 -0.7013 -0.0462
  753MOL0     C 1538  11.445   3.327  10.906  0.3320  0.2155 -0.6410
  753MOL0     C 1539  11.359   3.432  10.896 -0.1963  0.8402  0.2029
  753MOL0     C 1540  11.393   3.569  10.863 -0.3204 -0.4341  0.2220
  753MOL0     C 1541  11.467   3.662  10.968  0.2685  0.8791 -0.2652
  753MOL0     C 1542  11.502   3.583  11.099  0.2012 -0.0738  0.0589
  753MOL0     C 1543  11.579   3.675  11.190  0.3880  0.8904  0.2265
  753MOL0     O 1544  11.640   3.590  11.294 -0.1167  0.2731  0.7579
  753MOL0     C 1545  11.708   3.646  11.397 -0.2251  0.4629 -0.2539
  753MOL0     C 1546  11.728   3.783  11.405  0.0015 -0.3805 -0.4296
  753MOL0     C 1547  11.817   3.820  11.511  0.1991 -1.5152 -0.2304
  753MOL0     C 1548  11.854   3.978  11.524  0.8057  0.5965  0.6227
  753MOL0     C 1549  11.885   3.724  11.600 -0.3334 -0.5327  0.3738
  753MOL0     C 1550  11.982   3.752  11.694 -0.1080 -0.0587 -0.9303
  753MOL0     O 1551  12.005   3.651  11.780  0.0960  0.6155 -0.1384
  753MOL0     C 1552  12.115   3.642  11.861 -0.3869 -0.1354  0.5378
  753MOL0     C 1553  12.171   3.513  11.888  0.6624 -0.4058 -0.3791
  753MOL0     C 1554  12.260   3.496  11.995 -0.4590  0.2828  0.7791
  753MOL0     C 1555  12.312   3.599  12.077 -0.0663 -0.0880 -0.5580
  753MOL0     O 1556  12.403   3.581  12.187  1.0103 -0.4390 -0.0873
  753MOL0     C 1557  12.483   3.462  12.174 -0.0497  0.0606 -0.6271
  753MOL0     C 1558  12.597   3.483  12.267  0.4915  0.8824 -0.1938
  753MOL0     C 1559  12.684   3.358  12.276 -0.5091 -0.0739 -0.7236
  753MOL0     C 1560  12.836   3.395  12.258 -0.1317  0.5428  0.0399
  753MOL0     C 1561  12.923   3.267  12.268 -0.2991 -0.9765 -0.2934
  753MOL0     C 1562  13.065   3.309  12.272  0.8846  0.0146 -0.0352
  753MOL0     C 1563  13.100   3.384  12.409  0.1131 -0.2358 -0.3711
  753MOL0     C 1564  13.252   3.382  12.420 -1.2879 -0.4232 -0.0016
  753MOL0    Cl 1565  13.330   3.214  12.417  0.0387 -0.2739 -0.0776
  753MOL0     C 1566  12.282   3.731  12.015  0.0689  0.8949  0.2821
  753MOL0     C 1567  12.175   3.751  11.929  0.3243  0.4900 -0.6149
  753MOL0     O 1568  12.054   3.851  11.678 -0.2389  0.2688 -0.9647
  753MOL0     C 1569  11.840   3.589  11.590  0.4634  0.0699  0.2413
  753MOL0     C 1570  11.763   3.552  11.480  0.3454  0.0729 -0.1810
  753MOL0     N 1571  11.236   3.376  10.903 -0.6737 -0.1301  0.2476
  753MOL0     N 1572  11.243   3.247  10.915  0.1279  0.3326 -0.4400
  753MOL0     C 1573  10.981   2.685  11.232  0.9954 -0.3761  0.0214
  753MOL0     C 1574  10.909   2.579  11.187 -0.9948  0.6274  0.4281
  753MOL0     C 1575  10.662   2.237  11.080  0.5479 -0.3629  0.3528
  753MOL0     C 1576  10.530   2.231  11.140  0.7321  0.0373  0.2509
  753MOL0     C 1577  10.435   2.136  11.098  0.6638 -0.3206  0.4561
  753MOL0     C 1578  10.462   2.032  10.998 -0.7711 -0.6930  1.6227
  753MOL0     O 1579  10.368   1.966  10.932  0.4655  0.4242 -0.5774
  753MOL0     C 1580  10.332   1.993  10.797  0.5082 -0.5106 -0.5405
  753MOL0     C 1581  10.214   2.099  10.793  0.4339  0.0970 -0.0809
  753MOL0     C 1582  10.176   2.135  10.650 -0.3554 -0.1013 -0.1223
  753MOL0     C 1583  10.099   2.033  10.562 -0.2862 -0.6839 -0.1331
  753MOL0     C 1584  10.002   1.947  10.626 -0.3787 -1.2397  1.0195
  753MOL0     C 1585   9.919   1.877  10.676  0.0748  0.0768 -0.4945
  753MOL0     C 1586  10.596   2.039  10.944 -0.7227 -0.1344 -0.2589
  753MOL0     C 1587  10.692   2.136  10.986 -0.6699  0.5255  0.7095
  753MOL0     H 1588  10.740   2.493  11.468  1.3392 -1.4742  0.4762
  753MOL0     H 1589  10.869   2.660  11.564  0.5276 -2.9126  0.6677
  753MOL0     H 1590  10.928   2.913  11.515 -0.0090 -0.7062 -2.1260
  753MOL0     H 1591  11.020   2.799  11.613  1.9678 -2.7266 -0.4463
  753MOL0     H 1592  11.083   3.057  11.642  1.7403  1.0589  0.8637
  753MOL0     H 1593  11.213   2.941  11.641 -0.2067  1.6775  2.2194
  753MOL0     H 1594  11.148   3.039  11.363  1.8056  0.2615 -1.5021
  753MOL0     H 1595  11.199   3.164  11.475 -1.6422  0.4164 -1.9562
  753MOL0     H 1596  11.401   3.043  11.537 -1.0678 -1.1064  0.6438
  753MOL0     H 1597  11.363   2.917  11.410  1.1595  0.6534  0.8021
  753MOL0     H 1598  11.436   3.214  11.379 -1.4303  0.0289  0.2851
  753MOL0     H 1599  11.529   3.076  11.335  0.0054 -0.5692  3.9387
  753MOL0     H 1600  11.285   3.037  11.209  0.7007  0.1807  0.3793
  753MOL0     H 1601  11.329   3.207  11.179  0.7786  0.4035 -1.9049
  753MOL0     H 1602  11.567   3.118  11.125  0.9721 -1.6104  1.6820
  753MOL0     H 1603  11.487   2.958  11.125  0.8030 -0.3070  2.8561
  753MOL0     H 1604  11.322   3.024  10.960 -0.3890  0.8211  3.3098
  753MOL0     H 1605  11.492   3.030  10.889 -1.6947 -0.5191 -1.8600
  753MOL0     H 1606  11.553   3.338  10.918  0.4647 -0.1910 -1.4083
  753MOL0     H 1607  11.460   3.574  10.776  0.3796  1.6131  0.8032
  753MOL0     H 1608  11.301   3.615  10.827 -0.3159 -1.6328 -1.4429
  753MOL0     H 1609  11.407   3.748  10.998 -2.7482 -1.5561  1.3332
  753MOL0     H 1610  11.562   3.691  10.924  1.1967 -0.7312  0.5639
  753MOL0     H 1611  11.564   3.495  11.083  3.1693  2.2529 -2.5408
  753MOL0     H 1612  11.402   3.566  11.140  0.4097  0.8460  0.9831
  753MOL0     H 1613  11.517   3.754  11.234 -0.8433  0.0518  0.0274
  753MOL0     H 1614  11.667   3.720  11.143  1.0384  0.0903  0.6359
  753MOL0     H 1615  11.677   3.861  11.351  2.4843 -0.2505 -2.7750
  753MOL0     H 1616  11.960   3.995  11.503  0.9089  1.9203  2.0406
  753MOL0     H 1617  11.789   4.031  11.453  2.2182 -0.8681 -1.9176
  753MOL0     H 1618  11.840   4.001  11.630 -0.9848  0.9158  0.3465
  753MOL0     H 1619  12.129   3.429  11.834  3.6941 -4.4680  2.8731
  753MOL0     H 1620  12.296   3.397  12.018  1.1759  0.4691 -0.7626
  753MOL0     H 1621  12.424   3.375  12.202 -1.5569  1.1433 -0.3419
  753MOL0     H 1622  12.525   3.456  12.073  0.0363  2.3441 -0.7728
  753MOL0     H 1623  12.661   3.567  12.239  2.4939 -0.7475 -0.7548
  753MOL0     H 1624  12.569   3.497  12.372  2.9297 -1.0738  0.8278
  753MOL0     H 1625  12.654   3.282  12.203 -1.4438 -0.4174 -0.0025
  753MOL0     H 1626  12.663   3.294  12.362 -0.7779 -0.4183 -1.0405
  753MOL0     H 1627  12.864   3.445  12.165 -3.2850  0.5580 -1.0042
  753MOL0     H 1628  12.870   3.474  12.327 -0.6752  1.8083 -1.0937
  753MOL0     H 1629  12.893   3.196  12.191 -0.4235  0.2344 -1.4070
  753MOL0     H 1630  12.904   3.217  12.363 -2.4417  2.6371  1.4227
  753MOL0     H 1631  13.114   3.212  12.287  1.6725  0.3879 -0.1212
  753MOL0     H 1632  13.109   3.363  12.188  4.6813  0.0045  1.7165
  753MOL0     H 1633  13.055   3.341  12.499 -1.2927 -0.1641 -1.0115
  753MOL0     H 1634  13.069   3.489  12.403 -0.0373 -0.3287 -1.5102
  753MOL0     H 1635  13.290   3.435  12.508 -2.8578  2.5581 -0.9839
  753MOL0     H 1636  13.293   3.448  12.343 -1.8572  0.5883  0.5467
  753MOL0     H 1637  12.336   3.819  12.049  3.3344 -1.1099  0.7252
  753MOL0     H 1638  12.154   3.857  11.919  1.5221  1.1803  2.7247
  753MOL0     H 1639  11.869   3.512  11.661 -1.3466 -1.3498 -0.4631
  753MOL0     H 1640  11.722   3.452  11.468  2.1551 -0.8335  0.8426
  753MOL0     H 1641  11.042   2.757  11.178  1.4203  3.2606  4.7143
  753MOL0     H 1642  10.912   2.554  11.081 -1.9352 -1.2052  0.7851
  753MOL0     H 1643  10.499   2.299  11.218  2.5842  2.0734 -0.7015
  753MOL0     H 1644  10.338   2.135  11.146  0.1155  0.4488 -0.5964
  753MOL0     H 1645  10.409   2.038  10.733  0.7760  0.7568  0.6201
  753MOL0     H 1646  10.293   1.906  10.745 -0.0865  0.8208 -2.4280
  753MOL0     H 1647  10.235   2.193  10.844 -3.5432  1.4460 -0.6238
  753MOL0     H 1648  10.134   2.043  10.842 -0.5866 -0.9290 -2.7235
  753MOL0     H 1649  10.265   2.160  10.591 -1.1038 -0.3283 -1.3965
  753MOL0     H 1650  10.113   2.225  10.645  0.4422  0.4082 -3.1355
  753MOL0     H 1651  10.172   1.971  10.509 -0.7011 -2.5729  1.3823
  753MOL0     H 1652  10.061   2.083  10.472  5.6901 -0.2797 -2.8932
  753MOL0     H 1653   9.846   1.812  10.720  0.4618  0.0301  0.0809
  753MOL0     H 1654  10.627   1.957  10.880  0.1042 -0.7430  0.8812
  753MOL0     H 1655  10.790   2.126  10.940 -1.7665 -0.6277 -1.5641
  754MOL0     O 1656   6.327  10.404   6.336  0.3936 -0.0988  0.2185
  754MOL0     C 1657   6.348  10.295   6.381 -0.0784  0.4948 -0.8312
  754MOL0     O 1658   6.290  10.237   6.492 -0.0364 -0.5052 -1.0366
  754MOL0     C 1659   6.207  10.302   6.581  0.3986  1.1573 -0.5836
  754MOL0     C 1660   6.216  10.244   6.708 -0.2413  0.3615  0.1768
  754MOL0     C 1661   6.136  10.289   6.815  0.7535  0.0370 -0.7507
  754MOL0     C 1662   6.054  10.400   6.795  0.5854 -0.4236  0.7185
  754MOL0     O 1663   5.989  10.450   6.905 -0.6179 -0.2509 -0.5290
  754MOL0     C 1664   5.898  10.553   6.894 -0.0528  0.6971  0.3512
  754MOL0     C 1665   5.822  10.586   7.024 -0.7621  0.5554 -0.0178
  754MOL0     C 1666   5.705  10.492   7.034 -0.8378  0.0220 -0.0644
  754MOL0     C 1667   5.656  10.499   7.167  0.0108  0.3182 -0.3125
  754MOL0     C 1668   5.526  10.416   7.170  0.3049 -0.6514  0.2664
  754MOL0     C 1669   5.408  10.499   7.122  0.2520 -0.0504 -0.5906
  754MOL0     C 1670   5.274  10.413   7.104  0.2194  0.7580  0.0928
  754MOL0     C 1671   5.156  10.507   7.078 -0.6187 -2.0080  0.1455
  754MOL0     N 1672   5.133  10.524   6.931  0.4603 -0.4913  0.6668
  754MOL0     C 1673   5.002  10.534   6.887 -0.0172  0.0723 -0.2465
  754MOL0     C 1674   5.013  10.547   6.750  0.2433 -0.4644 -0.4004
  754MOL0     C 1675   4.899  10.596   6.657 -0.9591  1.0251 -0.2738
  754MOL0     C 1676   4.920  10.749   6.657  0.4374 -0.1621 -0.8456
  754MOL0     C 1677   4.782  10.822   6.627  0.0425 -0.2290 -0.1819
  754MOL0     C 1678   4.806  10.968   6.613  0.1083 -0.4170 -0.8175
  754MOL0     O 1679   4.698  11.022   6.533 -0.4647 -0.5706  0.2976
  754MOL0     C 1680   4.595  11.077   6.603  0.7461  0.6109 -0.6241
  754MOL0     C 1681   4.469  11.040   6.564 -0.4146  0.5349 -0.2760
  754MOL0     C 1682   4.348  11.079   6.629  0.1664  0.2997  0.0836
  754MOL0     C 1683   4.228  11.001   6.585 -0.1190 -1.1919 -0.3999
  754MOL0     C 1684   4.357  11.161   6.738  0.2900 -0.7688  0.6148
  754MOL0     C 1685   4.244  11.191   6.837 -0.0156  0.1526  0.6388
  754MOL0     O 1686   4.283  11.245   6.953 -0.5954 -0.2329 -0.0980
  754MOL0     C 1687   4.196  11.264   7.054  0.0601  0.3607 -0.8563
  754MOL0     C 1688   4.233  11.220   7.182  0.1716 -0.1595  1.0287
  754MOL0     C 1689   4.150  11.262   7.285  0.8131 -0.6896 -0.0083
  754MOL0     C 1690   4.026  11.336   7.270 -0.0633  0.5477 -0.1322
  754MOL0     O 1691   3.964  11.372   7.389  0.4390  0.3379  0.2819
  754MOL0     C 1692   3.827  11.329   7.395  0.3125 -0.1347 -0.0549
  754MOL0     C 1693   3.814  11.193   7.467 -0.7112  0.2881 -0.1952
  754MOL0     C 1694   3.843  11.206   7.623 -0.3701 -0.2181  0.0875
  754MOL0     C 1695   3.827  11.074   7.698 -0.3391  0.9112 -0.6968
  754MOL0     C 1696   3.946  11.051   7.786  0.4795 -0.4599  1.1599
  754MOL0     C 1697   3.928  11.127   7.919  0.7230  0.0643  0.5476
  754MOL0     C 1698   4.052  11.094   8.005 -0.1617 -0.1141  0.2068
  754MOL0     C 1699   4.158  11.197   7.985  1.2557 -0.3031 -0.1685
  754MOL0    Cl 1700   4.109  11.366   8.018 -0.7750  0.0938 -0.4622
  754MOL0     C 1701   3.986  11.375   7.139 -0.9216  1.0468  0.3099
  754MOL0     C 1702   4.075  11.341   7.029 -0.2287  0.4984  0.0561
  754MOL0     O 1703   4.130  11.169   6.804  0.2891 -0.0072  0.1716
  754MOL0     C 1704   4.490  11.197   6.786  0.4803 -0.0230  0.7804
  754MOL0     C 1705   4.603  11.144   6.718  0.5639  0.4361  0.7591
  754MOL0     N 1706   5.145  10.552   6.724 -0.1948 -0.3832  0.0727
  754MOL0     N 1707   5.220  10.545   6.825 -0.3732  0.5073 -0.0000
  754MOL0     C 1708   6.052  10.462   6.669  0.1155 -0.7970  0.1310
  754MOL0     C 1709   6.125  10.410   6.556 -0.0250 -0.0450 -0.4547
  754MOL0     C 1710   6.433  10.211   6.301 -0.0528 -0.0347  1.1136
  754MOL0     C 1711   6.526  10.271   6.212  0.4600 -0.2569  0.0163
  754MOL0     C 1712   6.613  10.182   6.135 -0.1280  0.0043 -0.0944
  754MOL0     C 1713   6.600  10.043   6.139  0.2096  0.1646 -0.1581
  754MOL0     O 1714   6.670   9.950   6.059 -0.8576  0.0555  1.0130
  754MOL0     C 1715   6.685   9.998   5.924 -0.0103  0.5060 -0.0303
  754MOL0     C 1716   6.727   9.890   5.821  0.2770  0.4513  0.2789
  754MOL0     C 1717   6.711   9.944   5.679 -0.0499  0.5640 -0.2813
  754MOL0     C 1718   6.716   9.830   5.575  0.9048 -1.0517 -0.4436
  754MOL0     C 1719   6.687   9.883   5.441  0.0662 -0.4590  1.4465
  754MOL0     C 1720   6.667   9.926   5.323 -0.5114 -0.4339 -1.1980
  754MOL0     C 1721   6.505   9.989   6.230 -0.2013  0.8226  0.2204
  754MOL0     C 1722   6.421  10.071   6.304 -0.2204 -0.0533  0.0084
  754MOL0     H 1723   6.288  10.168   6.738 -0.8175 -0.3692 -0.2821
  754MOL0     H 1724   6.158  10.249   6.913  3.6455  1.0746 -0.8770
  754MOL0     H 1725   5.960  10.643   6.888 -1.4323  1.6398 -0.3874
  754MOL0     H 1726   5.831  10.547   6.808 -0.3276  3.8904  0.2212
  754MOL0     H 1727   5.897  10.584   7.103 -0.5956 -1.7989 -0.1760
  754MOL0     H 1728   5.788  10.690   7.012 -0.0931  0.9095  1.0524
  754MOL0     H 1729   5.627  10.517   6.962 -1.7719  1.1711  1.2983
  754MOL0     H 1730   5.739  10.390   7.011 -3.0093 -0.7564 -0.0689
  754MOL0     H 1731   5.723  10.454   7.241 -0.2906  2.0082  1.0553
  754MOL0     H 1732   5.647  10.597   7.214  2.0713 -1.1275  3.5977
  754MOL0     H 1733   5.533  10.322   7.115 -0.5998  0.0480 -1.0980
  754MOL0     H 1734   5.521  10.397   7.278 -1.4934  1.0185  0.5435
  754MOL0     H 1735   5.397  10.568   7.206  0.4774 -2.1257  1.2398
  754MOL0     H 1736   5.438  10.554   7.032  0.2995 -2.1577 -1.9325
  754MOL0     H 1737   5.270  10.319   7.048 -0.6820  0.4702  0.6184
  754MOL0     H 1738   5.259  10.379   7.207 -0.1565  0.3051 -0.1064
  754MOL0     H 1739   5.193  10.600   7.123 -0.7412 -2.2708  0.8065
  754MOL0     H 1740   5.064  10.480   7.130  0.6963 -3.3959  1.9127
  754MOL0     H 1741   4.908  10.520   6.940 -0.2880  0.9174 -0.4872
  754MOL0     H 1742   4.918  10.565   6.554  0.3881  0.3655  0.1442
  754MOL0     H 1743   4.806  10.556   6.698  1.1642  0.1958  4.4836
  754MOL0     H 1744   4.995  10.786   6.587 -1.9529  3.5282 -1.7118
  754MOL0     H 1745   4.951  10.787   6.755 -1.4894  0.6663 -0.5060
  754MOL0     H 1746   4.715  10.803   6.711  3.1100 -1.6118  2.1242
  754MOL0     H 1747   4.736  10.774   6.540  2.1480 -1.3250 -0.7604
  754MOL0     H 1748   4.903  10.990   6.567  2.0157  1.1808  3.4410
  754MOL0     H 1749   4.822  11.015   6.710  2.8284 -0.5990 -1.1042
  754MOL0     H 1750   4.472  10.971   6.481 -0.4443  1.4491 -1.0496
  754MOL0     H 1751   4.138  11.061   6.575 -2.4634 -4.0329  1.9135
  754MOL0     H 1752   4.237  10.934   6.498  2.5263 -1.3333 -0.1076
  754MOL0     H 1753   4.191  10.930   6.660 -0.4907 -1.2296 -0.6186
  754MOL0     H 1754   4.327  11.169   7.199  1.0605  1.6415  1.8667
  754MOL0     H 1755   4.178  11.228   7.384 -0.5286  0.0349  0.6432
  754MOL0     H 1756   3.780  11.410   7.452 -0.6998  0.7572 -2.0242
  754MOL0     H 1757   3.780  11.331   7.296  0.4609  0.2856 -0.1218
  754MOL0     H 1758   3.708  11.166   7.468 -0.6742 -0.0308 -1.9195
  754MOL0     H 1759   3.886  11.127   7.418  0.4826  0.2971  1.5010
  754MOL0     H 1760   3.773  11.277   7.668 -0.2698 -0.9166  1.3999
  754MOL0     H 1761   3.947  11.242   7.627 -0.3958 -0.2031  0.6844
  754MOL0     H 1762   3.742  11.053   7.764  1.9260 -1.9062  1.6120
  754MOL0     H 1763   3.836  10.998   7.620  2.1676  2.5734 -2.1481
  754MOL0     H 1764   4.036  11.062   7.723  0.2190 -3.0488  0.2312
  754MOL0     H 1765   3.948  10.948   7.821 -2.7713 -1.1397 -0.3211
  754MOL0     H 1766   3.908  11.232   7.895 -0.5068 -0.4589 -0.8847
  754MOL0     H 1767   3.841  11.090   7.974 -0.5711  3.1647  0.7887
  754MOL0     H 1768   4.093  10.993   7.991  1.7537  0.7719 -0.8776
  754MOL0     H 1769   4.020  11.102   8.109 -2.6095 -0.7686 -0.4238
  754MOL0     H 1770   4.200  11.198   7.884 -0.9918  1.8786 -1.1818
  754MOL0     H 1771   4.235  11.173   8.059 -0.0510 -0.2107  1.2653
  754MOL0     H 1772   3.900  11.441   7.143 -2.3971 -0.6914 -0.9546
  754MOL0     H 1773   4.051  11.381   6.931 -0.8902 -1.8958 -0.8217
  754MOL0     H 1774   4.516  11.249   6.877  0.6403 -0.0138  0.7297
  754MOL0     H 1775   4.696  11.182   6.758 -0.3991  2.4843  1.1960
  754MOL0     H 1776   5.980  10.539   6.645 -1.5986 -1.6855  2.0688
  754MOL0     H 1777   6.133  10.469   6.465  1.3162  2.0672  0.9456
  754MOL0     H 1778   6.531  10.377   6.187  1.7174 -0.1877  0.5193
  754MOL0     H 1779   6.689  10.222   6.069  2.0049 -2.9959  0.3291
  754MOL0     H 1780   6.589  10.045   5.897 -0.4334 -0.4978 -0.3295
  754MOL0     H 1781   6.769  10.068   5.926  2.0676 -1.8861  2.2918
  754MOL0     H 1782   6.663   9.803   5.842 -1.8117  1.7437 -0.4840
  754MOL0     H 1783   6.831   9.861   5.838  1.0998  1.8800 -1.8921
  754MOL0     H 1784   6.799  10.009   5.666  2.7274 -2.6038  1.2644
  754MOL0     H 1785   6.614   9.993   5.671 -0.8683 -0.8737  0.5522
  754MOL0     H 1786   6.640   9.754   5.595 -0.3938  0.5719  1.1441
  754MOL0     H 1787   6.817   9.789   5.569  2.0091  1.3982 -0.1454
  754MOL0     H 1788   6.648   9.964   5.225 -1.3846  0.2914 -0.7608
  754MOL0     H 1789   6.496   9.881   6.235 -1.5091  0.9565  2.7627
  754MOL0     H 1790   6.345  10.029   6.369  0.5647 -0.5943  0.6006
  755MOL0     O 1791   7.342   6.141   5.764 -0.2591  0.0189 -0.6465
  755MOL0     C 1792   7.253   6.167   5.841 -0.7358  0.1227  0.2130
  755MOL0     O 1793   7.272   6.198   5.973 -0.4417 -0.0499  0.2169
  755MOL0     C 1794   7.398   6.251   6.012  0.2914 -0.1505 -0.5742
  755MOL0     C 1795   7.414   6.260   6.147 -0.3045 -0.0890 -0.4072
  755MOL0     C 1796   7.532   6.322   6.206 -0.6236 -0.5909 -0.4088
  755MOL0     C 1797   7.640   6.375   6.130  0.6948  0.7070  0.3340
  755MOL0     O 1798   7.745   6.429   6.201 -0.6901 -0.3932  0.2238
  755MOL0     C 1799   7.801   6.547   6.151  0.0717  0.8277  0.5135
  755MOL0     C 1800   7.936   6.517   6.083  0.0002  0.4850  0.3980
  755MOL0     C 1801   7.995   6.626   5.999 -0.3611 -0.4263  0.7281
  755MOL0     C 1802   8.068   6.728   6.077  0.4810 -0.1647 -0.1805
  755MOL0     C 1803   8.126   6.841   6.002  0.1271  1.7571  0.1505
  755MOL0     C 1804   8.219   6.937   6.078  0.5800 -0.4415  0.7209
  755MOL0     C 1805   8.339   6.989   5.979 -0.3487 -0.6992 -0.6567
  755MOL0     C 1806   8.437   7.099   6.025 -0.2343  0.2553 -0.6116
  755MOL0     N 1807   8.357   7.219   6.065  1.7094 -0.0324 -0.0693
  755MOL0     C 1808   8.333   7.263   6.196 -0.4059  0.8715  0.4121
  755MOL0     C 1809   8.243   7.365   6.176 -0.0835  0.6233 -0.9426
  755MOL0     C 1810   8.200   7.464   6.278  0.1826 -0.0061  1.7136
  755MOL0     C 1811   8.181   7.399   6.417  0.8517  0.8392  0.0793
  755MOL0     C 1812   8.114   7.491   6.516  0.0266 -0.4118  0.7707
  755MOL0     C 1813   8.119   7.435   6.658 -0.3101  0.4320  0.1225
  755MOL0     O 1814   8.086   7.292   6.658  0.7789 -0.3546 -0.8333
  755MOL0     C 1815   8.038   7.237   6.769  0.7225 -0.4014  0.1817
  755MOL0     C 1816   8.068   7.294   6.894 -0.3219  0.4055  0.4350
  755MOL0     C 1817   8.018   7.240   7.013 -0.3348 -0.3275  0.3251
  755MOL0     C 1818   8.063   7.308   7.133 -0.4919  0.4299 -0.2525
  755MOL0     C 1819   7.931   7.129   7.002  0.1979  1.4733 -0.1986
  755MOL0     C 1820   7.872   7.066   7.123  1.0722 -0.4686 -0.2972
  755MOL0     O 1821   7.740   7.011   7.107 -0.0369 -0.0161  0.4345
  755MOL0     C 1822   7.682   6.930   7.206 -0.8826  0.0466 -0.6375
  755MOL0     C 1823   7.763   6.848   7.285 -0.5185 -0.2907 -0.3267
  755MOL0     C 1824   7.702   6.777   7.396  0.1291 -0.2371  0.0675
  755MOL0     C 1825   7.564   6.793   7.419  0.4369 -0.0343 -0.0544
  755MOL0     O 1826   7.493   6.741   7.526  0.1674  0.3560  0.9879
  755MOL0     C 1827   7.547   6.655   7.625 -0.3197  0.7931 -0.5899
  755MOL0     C 1828   7.456   6.591   7.725  0.0748  0.3400  0.2448
  755MOL0     C 1829   7.354   6.493   7.661 -0.7432  0.8718 -0.7202
  755MOL0     C 1830   7.272   6.423   7.779 -0.8232  0.3807 -0.3193
  755MOL0     C 1831   7.132   6.469   7.779 -0.0535 -0.8891 -0.4353
  755MOL0     C 1832   7.128   6.608   7.841 -0.8557  0.6158 -0.1642
  755MOL0     C 1833   6.987   6.672   7.812 -0.2532 -0.4737 -0.3759
  755MOL0     C 1834   6.872   6.609   7.895  0.8292  0.5223 -0.2094
  755MOL0    Cl 1835   6.697   6.675   7.862 -0.5380  0.4458 -0.1184
  755MOL0     C 1836   7.482   6.864   7.333  0.2507 -0.2056  0.6938
  755MOL0     C 1837   7.543   6.939   7.229  0.3371  0.2925  0.8993
  755MOL0     O 1838   7.924   7.083   7.228 -0.4957 -0.4514 -0.3661
  755MOL0     C 1839   7.892   7.073   6.876 -0.8049  0.4117 -0.9681
  755MOL0     C 1840   7.942   7.129   6.765  0.3552 -0.2678  0.6027
  755MOL0     N 1841   8.203   7.374   6.046  0.1101 -0.0243  0.0287
  755MOL0     N 1842   8.279   7.289   5.983  0.2251  0.7332  0.4634
  755MOL0     C 1843   7.627   6.356   5.989  0.0967 -1.3386 -0.6637
  755MOL0     C 1844   7.504   6.308   5.935  0.8525 -0.0337  0.3279
  755MOL0     C 1845   7.114   6.151   5.797  1.2617 -0.1625 -0.0464
  755MOL0     C 1846   7.013   6.220   5.874  0.2003 -0.0130  0.0285
  755MOL0     C 1847   6.884   6.216   5.837 -0.3360 -0.0202  0.1215
  755MOL0     C 1848   6.839   6.154   5.724  0.8187 -0.9667 -0.4730
  755MOL0     O 1849   6.706   6.165   5.677  0.1271 -0.5365 -0.0463
  755MOL0     C 1850   6.586   6.206   5.748 -0.3193 -0.3522  0.7922
  755MOL0     C 1851   6.465   6.194   5.644  0.5090  0.3883 -0.1193
  755MOL0     C 1852   6.445   6.046   5.613  0.0865 -0.0124  0.4274
  755MOL0     C 1853   6.329   6.013   5.512 -0.1542  0.3599  0.4750
  755MOL0     C 1854   6.309   5.878   5.490  0.3226 -0.5572 -1.2993
  755MOL0     C 1855   6.304   5.767   5.458  0.2012  0.1975  0.6351
  755MOL0     C 1856   6.927   6.089   5.641  0.0551  0.8008  0.8084
  755MOL0     C 1857   7.067   6.083   5.679 -0.2301  0.5442 -0.1271
  755MOL0     H 1858   7.354   6.206   6.219  2.3887 -1.1887  1.1525
  755MOL0     H 1859   7.541   6.325   6.314 -0.0899 -1.0549 -0.4329
  755MOL0     H 1860   7.728   6.587   6.081  0.4909 -0.8577 -0.9616
  755MOL0     H 1861   7.821   6.607   6.241 -0.5327  5.9651 -2.4039
  755MOL0     H 1862   8.001   6.488   6.166  0.5960 -2.3813 -0.9453
  755MOL0     H 1863   7.913   6.433   6.016  1.4125 -0.4827  1.0769
  755MOL0     H 1864   8.056   6.587   5.917 -1.9273 -2.8027  0.6085
  755MOL0     H 1865   7.919   6.690   5.955 -1.9358 -0.2990  3.4294
  755MOL0     H 1866   7.997   6.777   6.144  1.9019  0.5699  0.8084
  755MOL0     H 1867   8.149   6.681   6.132  0.4692 -0.9985 -0.8477
  755MOL0     H 1868   8.190   6.784   5.935 -2.2736 -0.8588 -0.1453
  755MOL0     H 1869   8.059   6.897   5.935  0.7796 -0.5582 -2.6185
  755MOL0     H 1870   8.170   7.028   6.113  0.4435 -0.8731  1.6854
  755MOL0     H 1871   8.270   6.889   6.163 -2.2482 -1.6143  1.8902
  755MOL0     H 1872   8.401   6.907   5.942  2.6621  0.0740  2.2889
  755MOL0     H 1873   8.296   7.021   5.883 -1.4364 -2.5863 -0.8667
  755MOL0     H 1874   8.499   7.131   5.941  2.3518  3.9583  2.3685
  755MOL0     H 1875   8.512   7.067   6.098 -0.4081  1.2019 -0.0052
  755MOL0     H 1876   8.380   7.233   6.289  3.4628 -1.1818 -1.9312
  755MOL0     H 1877   8.265   7.549   6.295 -1.7884  1.6246  1.5423
  755MOL0     H 1878   8.102   7.501   6.245 -0.1055 -2.7306 -0.9986
  755MOL0     H 1879   8.284   7.383   6.449  0.3901 -1.9638  0.3841
  755MOL0     H 1880   8.121   7.308   6.403  2.7648 -0.2069 -1.9508
  755MOL0     H 1881   8.014   7.510   6.478  0.4670  0.0219 -0.2105
  755MOL0     H 1882   8.162   7.588   6.532 -1.5462  0.0690  3.0492
  755MOL0     H 1883   8.045   7.496   6.710 -1.0136  1.4663 -1.9549
  755MOL0     H 1884   8.215   7.459   6.705 -0.0470 -0.4929  0.0819
  755MOL0     H 1885   8.133   7.381   6.894 -0.6704  0.7094  2.5606
  755MOL0     H 1886   8.127   7.394   7.110  2.2777 -1.2108  0.8340
  755MOL0     H 1887   7.979   7.339   7.195  0.9863 -0.6164  2.4459
  755MOL0     H 1888   8.124   7.226   7.172 -0.1738 -0.6405 -2.7926
  755MOL0     H 1889   7.867   6.821   7.276 -0.0759 -0.9562  4.3800
  755MOL0     H 1890   7.752   6.711   7.466 -3.8992 -4.2933 -0.3915
  755MOL0     H 1891   7.571   6.570   7.560 -0.9999  0.7543 -0.7949
  755MOL0     H 1892   7.644   6.686   7.665  0.4111  1.4146 -2.6895
  755MOL0     H 1893   7.505   6.533   7.804 -1.9183 -0.6345  0.8448
  755MOL0     H 1894   7.410   6.668   7.788 -1.1984 -0.2990  0.1342
  755MOL0     H 1895   7.420   6.419   7.617 -0.3563  2.0692 -2.2601
  755MOL0     H 1896   7.289   6.525   7.578 -2.6183 -1.5446 -0.3005
  755MOL0     H 1897   7.267   6.314   7.768 -1.0371  0.5954 -2.9195
  755MOL0     H 1898   7.310   6.444   7.879  3.9397 -5.6861 -0.2407
  755MOL0     H 1899   7.071   6.402   7.840 -2.3489  0.4713 -1.0915
  755MOL0     H 1900   7.107   6.471   7.672 -0.7249 -1.6523 -0.3004
  755MOL0     H 1901   7.142   6.601   7.949 -2.5225 -0.8704  0.0046
  755MOL0     H 1902   7.206   6.675   7.805  1.8069 -1.7129  0.8368
  755MOL0     H 1903   6.965   6.657   7.706  0.9804 -1.3213 -0.5378
  755MOL0     H 1904   6.983   6.780   7.831 -1.1506  0.0702 -3.1291
  755MOL0     H 1905   6.888   6.605   8.003 -0.3772  0.7516 -0.0051
  755MOL0     H 1906   6.860   6.502   7.876 -1.9875  0.0600  3.1704
  755MOL0     H 1907   7.374   6.853   7.337  0.3356 -1.1419  0.6865
  755MOL0     H 1908   7.482   7.008   7.172 -0.1695 -1.1784 -0.4281
  755MOL0     H 1909   7.821   6.990   6.877  0.7331 -1.3032  4.4568
  755MOL0     H 1910   7.915   7.088   6.668  1.6011  1.7284 -0.6713
  755MOL0     H 1911   7.712   6.391   5.932 -1.3632  3.9935 -0.0801
  755MOL0     H 1912   7.510   6.316   5.827  1.0030  0.3080  0.3608
  755MOL0     H 1913   7.043   6.282   5.957 -1.6219  0.1997  0.5626
  755MOL0     H 1914   6.815   6.266   5.904 -0.4783  1.7483 -1.2775
  755MOL0     H 1915   6.557   6.135   5.826 -1.7617  0.5980  1.1667
  755MOL0     H 1916   6.594   6.305   5.795  1.6978  2.6635 -4.8936
  755MOL0     H 1917   6.475   6.238   5.544 -2.6283 -1.5783 -1.4730
  755MOL0     H 1918   6.374   6.233   5.690  0.4218 -0.3715  0.3746
  755MOL0     H 1919   6.409   5.995   5.703  1.1856 -2.0320 -0.2139
  755MOL0     H 1920   6.530   5.998   5.565 -0.2379  1.8421 -2.2159
  755MOL0     H 1921   6.356   6.050   5.412  0.5212 -3.4987 -0.9265
  755MOL0     H 1922   6.234   6.053   5.549 -1.2328 -1.1330 -0.5893
  755MOL0     H 1923   6.307   5.667   5.419  0.1745  0.3139  0.3271
  755MOL0     H 1924   6.883   6.040   5.555  1.2167  0.3252  0.4649
  755MOL0     H 1925   7.142   6.033   5.619 -0.2503 -0.1097  0.3817
  756MOL0     O 1926   5.016   0.336   7.339  0.0329  0.0753 -0.4824
  756MOL0     C 1927   5.087   0.326   7.444  0.1355  0.3510 -0.5600
  756MOL0     O 1928   5.063   0.390   7.560  0.7636 -0.5116  0.5184
  756MOL0     C 1929   4.922   0.384   7.589  0.1185 -0.6464  1.4088
  756MOL0     C 1930   4.876   0.305   7.695 -0.6395 -0.8455  0.1506
  756MOL0     C 1931   4.739   0.293   7.727  0.9997  0.6073 -0.5087
  756MOL0     C 1932   4.642   0.365   7.650 -1.3472 -0.7153 -0.1320
  756MOL0     O 1933   4.506   0.353   7.662  0.7335  0.2544  0.6585
  756MOL0     C 1934   4.467   0.285   7.778  0.7548 -0.3886 -0.2494
  756MOL0     C 1935   4.319   0.312   7.815  0.4395 -0.7411 -0.4419
  756MOL0     C 1936   4.286   0.455   7.865 -0.2561 -0.0585 -0.0786
  756MOL0     C 1937   4.133   0.462   7.911 -0.6342  0.3441 -0.8983
  756MOL0     C 1938   4.070   0.595   7.902  0.4947  0.5191 -0.2522
  756MOL0     C 1939   3.916   0.582   7.874  0.4375  0.5317  0.1441
  756MOL0     C 1940   3.834   0.518   7.986 -0.8307  0.4937 -0.2307
  756MOL0     C 1941   3.701   0.468   7.928 -0.4066 -0.2451  0.1078
  756MOL0     N 1942   3.707   0.360   7.830 -0.4721  0.2857 -0.1794
  756MOL0     C 1943   3.750   0.231   7.860 -0.1619 -0.2085 -0.4742
  756MOL0     C 1944   3.778   0.175   7.745  0.1490  0.2508 -1.0907
  756MOL0     C 1945   3.839   0.030   7.729 -0.6079  0.3618 -0.3908
  756MOL0     C 1946   3.990   0.024   7.745  0.6227 -0.2351  0.6300
  756MOL0     C 1947   4.061   0.070   7.607 -0.1493  0.4595  0.0599
  756MOL0     C 1948   4.178  -0.028   7.585 -0.1338 -0.0343 -0.3900
  756MOL0     O 1949   4.245  -0.037   7.704 -0.7058  0.4289 -0.2894
  756MOL0     C 1950   4.343  -0.133   7.710 -0.3424 -0.1366 -0.8334
  756MOL0     C 1951   4.416  -0.138   7.832  0.4066  0.7772 -0.1483
  756MOL0     C 1952   4.499  -0.244   7.861  0.0303  0.2364 -0.0787
  756MOL0     C 1953   4.568  -0.245   7.997 -0.7157 -0.4419 -0.0966
  756MOL0     C 1954   4.523  -0.346   7.763 -1.4304  0.2309 -0.8903
  756MOL0     C 1955   4.620  -0.460   7.789 -0.3644  0.1752 -0.3150
  756MOL0     O 1956   4.624  -0.556   7.698 -0.0650 -0.0258  0.3013
  756MOL0     C 1957   4.735  -0.633   7.683  0.0414 -0.3024 -0.2997
  756MOL0     C 1958   4.799  -0.617   7.554 -0.9269 -0.1537 -0.3160
  756MOL0     C 1959   4.921  -0.678   7.522 -0.3026 -0.4903  0.4087
  756MOL0     C 1960   4.992  -0.752   7.616 -0.7801 -1.5409 -0.7155
  756MOL0     O 1961   5.118  -0.793   7.585  0.1937 -0.5549 -0.1732
  756MOL0     C 1962   5.160  -0.922   7.635 -0.5423  0.6077 -0.5601
  756MOL0     C 1963   5.269  -0.957   7.537 -0.8552  0.6906 -0.0794
  756MOL0     C 1964   5.311  -1.104   7.548  0.0404  0.7602  0.5047
  756MOL0     C 1965   5.209  -1.207   7.487  0.3339 -0.3688 -0.2774
  756MOL0     C 1966   5.282  -1.331   7.440 -0.7621  0.3867 -1.2005
  756MOL0     C 1967   5.195  -1.432   7.364 -0.1931 -0.0134 -0.3731
  756MOL0     C 1968   5.276  -1.527   7.272  0.9395 -0.2360  0.2981
  756MOL0     C 1969   5.184  -1.601   7.178  0.2941  0.4394  0.0451
  756MOL0    Cl 1970   5.274  -1.717   7.077  0.5223  0.0802 -0.2394
  756MOL0     C 1971   4.922  -0.780   7.735 -0.4441 -0.9904  0.0100
  756MOL0     C 1972   4.790  -0.730   7.770 -0.2660 -0.1130 -0.1645
  756MOL0     O 1973   4.714  -0.442   7.874  0.9404 -0.6626  0.7191
  756MOL0     C 1974   4.462  -0.336   7.639 -0.3268  0.5037  0.3190
  756MOL0     C 1975   4.371  -0.233   7.618 -0.7130 -0.1324  0.4877
  756MOL0     N 1976   3.741   0.268   7.646 -0.6791 -0.6944 -0.8551
  756MOL0     N 1977   3.704   0.376   7.699  0.4779  1.1338 -0.0950
  756MOL0     C 1978   4.691   0.453   7.550  0.6170 -0.9386  0.1781
  756MOL0     C 1979   4.821   0.462   7.524 -0.1359  0.3255  0.1475
  756MOL0     C 1980   5.206   0.238   7.446  0.5709 -0.6421  0.9480
  756MOL0     C 1981   5.243   0.192   7.572  0.7552  0.1854 -0.4763
  756MOL0     C 1982   5.335   0.086   7.580  0.2826  0.1401  0.2105
  756MOL0     C 1983   5.394   0.028   7.459 -0.3260 -0.2494  1.2562
  756MOL0     O 1984   5.490  -0.074   7.474  1.0311  0.8375  0.0934
  756MOL0     C 1985   5.613  -0.027   7.525 -0.3559 -0.2879  0.8301
  756MOL0     C 1986   5.713  -0.131   7.482  0.1155  0.0286 -0.0135
  756MOL0     C 1987   5.778  -0.118   7.340  0.5715  0.4795 -0.3593
  756MOL0     C 1988   5.890  -0.216   7.302  0.2281  0.6098 -0.1919
  756MOL0     C 1989   6.030  -0.174   7.286 -0.0975  0.6071  0.3148
  756MOL0     C 1990   6.143  -0.144   7.288  0.1832  0.9453 -0.0335
  756MOL0     C 1991   5.360   0.086   7.339 -1.0282 -0.7906 -1.1005
  756MOL0     C 1992   5.267   0.186   7.328 -0.1681 -0.3469 -0.2606
  756MOL0     H 1993   4.940   0.265   7.773 -1.5662  0.6385  1.7363
  756MOL0     H 1994   4.717   0.233   7.815 -1.8926  2.7807  0.4059
  756MOL0     H 1995   4.489   0.179   7.762  0.2938 -0.5253 -0.0142
  756MOL0     H 1996   4.516   0.307   7.873 -2.7197  0.0473  1.6239
  756MOL0     H 1997   4.259   0.291   7.725  0.4204  0.0573 -0.6183
  756MOL0     H 1998   4.296   0.251   7.903  3.3748  0.2324  1.1062
  756MOL0     H 1999   4.359   0.492   7.936  0.8794  2.3880 -2.3580
  756MOL0     H 2000   4.304   0.523   7.782  0.0833  0.6689  0.5835
  756MOL0     H 2001   4.074   0.393   7.850  1.5873 -0.4183 -2.2968
  756MOL0     H 2002   4.115   0.432   8.015 -2.5323 -0.3126 -1.3784
  756MOL0     H 2003   4.074   0.637   8.003  0.1236 -0.8401  0.3436
  756MOL0     H 2004   4.121   0.648   7.821  1.4217 -3.3132 -2.4355
  756MOL0     H 2005   3.870   0.679   7.855 -3.0745 -1.3044 -1.6060
  756MOL0     H 2006   3.913   0.523   7.781  1.5478  2.4142 -1.1561
  756MOL0     H 2007   3.876   0.436   8.044 -1.9421  1.4536  2.0344
  756MOL0     H 2008   3.820   0.596   8.061  3.8828  0.9569  0.4494
  756MOL0     H 2009   3.656   0.556   7.881  2.2898  0.9942 -0.3007
  756MOL0     H 2010   3.647   0.426   8.014 -1.8808  0.1076 -0.6090
  756MOL0     H 2011   3.763   0.197   7.962  0.5636 -1.1300 -0.8594
  756MOL0     H 2012   3.803  -0.031   7.812 -0.1525 -0.2328 -0.6306
  756MOL0     H 2013   3.815  -0.002   7.627  0.7388  0.7718 -0.8533
  756MOL0     H 2014   4.022  -0.079   7.764  3.1912  0.1024 -1.3051
  756MOL0     H 2015   4.031   0.087   7.825  4.8811  1.1301 -2.2854
  756MOL0     H 2016   4.099   0.172   7.612  0.9399  0.0740 -0.1797
  756MOL0     H 2017   3.995   0.058   7.520 -0.2133 -3.4149  0.4495
  756MOL0     H 2018   4.246   0.002   7.505  1.3932 -3.1702 -0.4192
  756MOL0     H 2019   4.128  -0.121   7.555 -4.1238  1.9001 -0.3865
  756MOL0     H 2020   4.395  -0.067   7.912 -1.5317  1.2063 -0.9909
  756MOL0     H 2021   4.520  -0.169   8.059  0.7952 -1.3108  2.3007
  756MOL0     H 2022   4.565  -0.341   8.049  0.2209 -1.2076 -1.3872
  756MOL0     H 2023   4.672  -0.212   7.986 -0.8881  0.3620  0.6085
  756MOL0     H 2024   4.755  -0.542   7.489  2.4582  1.9593 -0.3982
  756MOL0     H 2025   4.966  -0.645   7.430  1.3755 -0.8009  1.0841
  756MOL0     H 2026   5.205  -0.897   7.732  0.2970  2.2677 -1.3444
  756MOL0     H 2027   5.070  -0.985   7.642 -0.0197 -0.2895 -1.6227
  756MOL0     H 2028   5.227  -0.937   7.438 -1.9574  1.5561  0.5370
  756MOL0     H 2029   5.359  -0.897   7.553  1.0739 -1.9529 -0.4535
  756MOL0     H 2030   5.339  -1.142   7.646  3.7228  0.7071 -0.3905
  756MOL0     H 2031   5.405  -1.104   7.492  1.4281  2.9900  2.6243
  756MOL0     H 2032   5.135  -1.231   7.564 -0.0004 -2.3824 -1.1569
  756MOL0     H 2033   5.163  -1.152   7.404 -1.7329 -1.2460  0.2368
  756MOL0     H 2034   5.312  -1.392   7.526 -0.3585  2.5720  0.2792
  756MOL0     H 2035   5.369  -1.309   7.378 -0.0084 -0.9372 -0.6596
  756MOL0     H 2036   5.130  -1.488   7.432 -1.5113  1.0156 -0.7280
  756MOL0     H 2037   5.128  -1.370   7.304  0.2008  1.8451  0.9893
  756MOL0     H 2038   5.345  -1.590   7.328  2.7535  3.2899  2.3787
  756MOL0     H 2039   5.338  -1.470   7.202  1.5390  1.3483  2.0516
  756MOL0     H 2040   5.128  -1.520   7.129 -1.2350  0.3109  1.4811
  756MOL0     H 2041   5.116  -1.660   7.240  0.4379 -0.9872 -1.1059
  756MOL0     H 2042   4.972  -0.839   7.812 -2.3832 -0.4428  1.7734
  756MOL0     H 2043   4.761  -0.754   7.872 -1.0277 -0.5349 -0.4694
  756MOL0     H 2044   4.465  -0.424   7.575  2.9721 -0.0314  1.0023
  756MOL0     H 2045   4.308  -0.226   7.530 -0.0916  2.0386  0.1668
  756MOL0     H 2046   4.621   0.520   7.502  1.3036  0.7214  1.4107
  756MOL0     H 2047   4.830   0.521   7.434 -1.4759 -0.8423 -0.8003
  756MOL0     H 2048   5.207   0.235   7.665 -2.2280 -0.6328 -1.1368
  756MOL0     H 2049   5.357   0.052   7.681  0.2785 -0.3029  0.0623
  756MOL0     H 2050   5.638   0.067   7.474  0.5085 -1.7182 -1.5201
  756MOL0     H 2051   5.604  -0.014   7.633 -4.2215  3.2719  0.3365
  756MOL0     H 2052   5.666  -0.228   7.502  1.3150 -0.3163  1.2574
  756MOL0     H 2053   5.802  -0.118   7.544  0.4580  4.0636 -1.0767
  756MOL0     H 2054   5.820  -0.017   7.346 -1.7981  1.4695  0.4020
  756MOL0     H 2055   5.697  -0.132   7.268 -0.7556 -3.7132  1.6294
  756MOL0     H 2056   5.860  -0.257   7.205 -1.9896 -1.0243  1.0760
  756MOL0     H 2057   5.903  -0.293   7.378 -0.4822  1.3461  0.7001
  756MOL0     H 2058   6.247  -0.120   7.296  0.6174 -0.4375 -1.0487
  756MOL0     H 2059   5.385   0.047   7.240 -1.6846  0.1935 -1.6669
  756MOL0     H 2060   5.227   0.215   7.231  0.5817  3.7436  0.4740
  757MOL0     O 2061  11.042  10.677   3.720 -0.4403  0.1083  0.2011
  757MOL0     C 2062  10.941  10.702   3.658 -1.0681 -0.5692 -0.4380
  757MOL0     O 2063  10.939  10.777   3.542  0.3276 -1.1022  1.0061
  757MOL0     C 2064  11.054  10.809   3.475 -0.1473 -0.5416  0.5697
  757MOL0     C 2065  11.054  10.769   3.342 -0.0738 -0.1020 -0.3372
  757MOL0     C 2066  11.154  10.814   3.251  0.3234 -0.3397 -0.4314
  757MOL0     C 2067  11.251  10.912   3.300  0.0598  0.8069  0.0859
  757MOL0     O 2068  11.302  10.995   3.203 -0.7866  0.4487  0.1990
  757MOL0     C 2069  11.366  11.118   3.239 -0.3887  0.4882  0.8675
  757MOL0     C 2070  11.369  11.205   3.111 -0.3498 -0.0596  0.2744
  757MOL0     C 2071  11.238  11.219   3.036  0.2193  0.9950  0.5580
  757MOL0     C 2072  11.235  11.305   2.914 -0.3891 -0.3636 -0.3671
  757MOL0     C 2073  11.231  11.449   2.941  0.3126 -0.9386  0.5815
  757MOL0     C 2074  11.206  11.541   2.820  0.4808  0.8485 -0.0597
  757MOL0     C 2075  11.082  11.503   2.740 -0.1157 -0.1169  0.8895
  757MOL0     C 2076  11.062  11.589   2.609 -0.3938 -0.3213  0.4478
  757MOL0     N 2077  11.102  11.740   2.610 -0.8029  0.6622  0.2982
  757MOL0     C 2078  11.026  11.837   2.677 -0.2055 -0.4536  0.1956
  757MOL0     C 2079  11.118  11.926   2.704  0.2338 -0.0248 -0.0638
  757MOL0     C 2080  11.095  12.057   2.791 -0.9932  0.0189  0.3549
  757MOL0     C 2081  11.159  12.036   2.925 -1.3778  0.8059 -0.2730
  757MOL0     C 2082  11.135  12.156   3.008  1.0955 -0.5803 -0.1836
  757MOL0     C 2083  11.137  12.122   3.158 -0.3978 -0.2719  0.1922
  757MOL0     O 2084  11.269  12.056   3.185 -0.2026 -0.0281  0.5954
  757MOL0     C 2085  11.294  12.040   3.320 -0.1338 -0.5101 -0.2882
  757MOL0     C 2086  11.199  12.036   3.423 -0.1781  0.0829 -1.1773
  757MOL0     C 2087  11.232  12.007   3.561 -1.2755 -0.7263 -1.3319
  757MOL0     C 2088  11.119  11.970   3.653  0.0903  0.2053  0.2210
  757MOL0     C 2089  11.367  11.976   3.595 -0.6684 -0.8059 -0.4537
  757MOL0     C 2090  11.406  11.936   3.730 -0.3402  0.3724  0.4152
  757MOL0     O 2091  11.514  11.853   3.744  0.4450  0.0600  0.2571
  757MOL0     C 2092  11.520  11.784   3.863  0.0561  0.3274 -0.8092
  757MOL0     C 2093  11.475  11.650   3.883 -0.8159  0.2970  0.3388
  757MOL0     C 2094  11.496  11.590   4.015  1.0404 -0.1370  0.6475
  757MOL0     C 2095  11.552  11.662   4.126 -0.2871  0.8708 -0.4017
  757MOL0     O 2096  11.554  11.630   4.262  0.0980 -0.4182  0.4651
  757MOL0     C 2097  11.508  11.503   4.308 -0.4870 -0.8702 -0.4325
  757MOL0     C 2098  11.364  11.515   4.372 -0.3895  0.2282 -0.2454
  757MOL0     C 2099  11.346  11.629   4.479 -0.1992 -0.1850 -0.3474
  757MOL0     C 2100  11.379  11.574   4.618 -0.3941  1.2219  0.8022
  757MOL0     C 2101  11.372  11.681   4.728 -0.0967  0.5089  0.7781
  757MOL0     C 2102  11.343  11.605   4.853 -0.6337 -0.6121 -0.0730
  757MOL0     C 2103  11.446  11.496   4.895 -0.2639  0.7428  0.1583
  757MOL0     C 2104  11.453  11.466   5.047 -0.0375  0.0079  0.1804
  757MOL0    Cl 2105  11.491  11.602   5.152  0.3142 -0.1265  0.4703
  757MOL0     C 2106  11.589  11.795   4.101  0.1952  1.4231  0.5083
  757MOL0     C 2107  11.579  11.855   3.972  0.3990 -0.3109 -0.1688
  757MOL0     O 2108  11.344  11.993   3.824  0.3364  0.4778  0.0322
  757MOL0     C 2109  11.461  11.976   3.491 -0.0726 -0.2316  0.1167
  757MOL0     C 2110  11.422  12.006   3.363 -0.6405 -0.5410 -1.0529
  757MOL0     N 2111  11.243  11.899   2.639 -0.0864 -0.6305 -0.8105
  757MOL0     N 2112  11.230  11.782   2.599 -0.1224 -0.1312 -0.3468
  757MOL0     C 2113  11.253  10.949   3.440  0.0070  0.4120 -0.6677
  757MOL0     C 2114  11.155  10.896   3.523  0.7313 -1.1204  0.4316
  757MOL0     C 2115  10.817  10.632   3.693  0.4311 -1.4307 -0.1236
  757MOL0     C 2116  10.803  10.602   3.829 -0.2329  0.1544  0.0061
  757MOL0     C 2117  10.713  10.503   3.877  0.0772  0.0020  0.4176
  757MOL0     C 2118  10.627  10.449   3.779  0.2572 -0.3875 -1.1944
  757MOL0     O 2119  10.554  10.343   3.824 -0.2022  0.7218 -0.3114
  757MOL0     C 2120  10.408  10.337   3.816  0.0431 -0.2156 -0.9741
  757MOL0     C 2121  10.347  10.352   3.950 -0.1633  0.0591 -0.3253
  757MOL0     C 2122  10.326  10.503   3.973  0.1380 -0.5929 -0.9902
  757MOL0     C 2123  10.237  10.538   4.087  0.1551  0.0171  0.7773
  757MOL0     C 2124  10.306  10.501   4.209  0.9510 -0.0607  0.0721
  757MOL0     C 2125  10.336  10.445   4.306  0.6568  0.4929  0.2532
  757MOL0     C 2126  10.624  10.497   3.651  0.3047  0.0009  0.6506
  757MOL0     C 2127  10.715  10.599   3.608 -0.1042  0.9364 -0.5378
  757MOL0     H 2128  10.972  10.704   3.313 -1.5824  1.3515  0.4963
  757MOL0     H 2129  11.151  10.804   3.143  2.9247  0.8591 -0.6723
  757MOL0     H 2130  11.314  11.170   3.320 -2.6569 -1.6643  0.9044
  757MOL0     H 2131  11.471  11.098   3.263 -0.4040  1.3161  1.6838
  757MOL0     H 2132  11.408  11.303   3.140 -1.4791  0.4034  0.2695
  757MOL0     H 2133  11.448  11.167   3.046  2.2985  2.7589  1.5796
  757MOL0     H 2134  11.199  11.126   2.994  2.4988 -0.9517  2.4853
  757MOL0     H 2135  11.162  11.248   3.108  0.8640  0.4437  1.4749
  757MOL0     H 2136  11.316  11.293   2.841 -0.1622  0.1023 -0.1930
  757MOL0     H 2137  11.140  11.277   2.868 -2.0301  0.0053  2.5557
  757MOL0     H 2138  11.173  11.470   3.032 -0.6183 -0.3434 -0.1295
  757MOL0     H 2139  11.334  11.473   2.968  0.5593  0.0162 -1.0728
  757MOL0     H 2140  11.199  11.645   2.853  3.6454  1.8110 -1.9075
  757MOL0     H 2141  11.293  11.530   2.754  1.1399 -0.1458  0.9435
  757MOL0     H 2142  11.099  11.402   2.700  1.3640  0.2192  0.6251
  757MOL0     H 2143  10.994  11.494   2.805  0.0607 -1.8572  0.9403
  757MOL0     H 2144  10.966  11.580   2.558 -0.4539  1.4355  0.1978
  757MOL0     H 2145  11.138  11.545   2.543  2.0605  0.1261  2.8094
  757MOL0     H 2146  10.923  11.840   2.710 -0.2504  2.1093 -0.0011
  757MOL0     H 2147  11.148  12.144   2.752  1.4664 -0.9895  1.2104
  757MOL0     H 2148  10.992  12.092   2.798 -0.6252  0.8530  4.2768
  757MOL0     H 2149  11.266  12.039   2.901 -1.3374  0.7074 -0.1046
  757MOL0     H 2150  11.140  11.940   2.974  1.3502  0.1066 -0.4064
  757MOL0     H 2151  11.029  12.180   2.993  1.5750 -0.3176 -5.0475
  757MOL0     H 2152  11.198  12.239   2.974 -0.9263  1.7745  1.4406
  757MOL0     H 2153  11.047  12.062   3.172 -0.0855 -0.7944  0.0182
  757MOL0     H 2154  11.124  12.202   3.231  0.4949 -1.5575  1.8204
  757MOL0     H 2155  11.091  12.044   3.414 -0.3002  0.1771  0.1108
  757MOL0     H 2156  11.108  12.056   3.720  1.4149  0.5851 -0.0190
  757MOL0     H 2157  11.022  11.962   3.603 -0.9367  1.5276  1.8856
  757MOL0     H 2158  11.140  11.878   3.709 -0.1107  0.1495  0.2048
  757MOL0     H 2159  11.436  11.598   3.796  1.9640  0.1424 -0.9207
  757MOL0     H 2160  11.449  11.493   4.028 -1.1704  1.0322  1.7328
  757MOL0     H 2161  11.512  11.435   4.223 -2.5165 -0.5246 -0.8479
  757MOL0     H 2162  11.583  11.478   4.384 -1.0329  1.0056  0.8150
  757MOL0     H 2163  11.289  11.530   4.294 -0.0394  0.3215 -0.5660
  757MOL0     H 2164  11.338  11.419   4.419 -2.7764  1.4262  1.1367
  757MOL0     H 2165  11.241  11.659   4.480 -1.4421 -4.0069 -0.2194
  757MOL0     H 2166  11.416  11.709   4.455  1.3025 -0.2131  3.2902
  757MOL0     H 2167  11.317  11.484   4.628  2.5181 -1.4546 -2.6023
  757MOL0     H 2168  11.480  11.531   4.620 -1.4507 -1.4569  2.2528
  757MOL0     H 2169  11.291  11.752   4.707 -3.3616 -2.8632  1.0218
  757MOL0     H 2170  11.467  11.735   4.732 -1.0838  2.4916 -0.6976
  757MOL0     H 2171  11.346  11.679   4.934 -0.1196 -3.6781  2.9524
  757MOL0     H 2172  11.244  11.560   4.865 -0.2672 -1.1534  1.0689
  757MOL0     H 2173  11.544  11.542   4.877 -0.5751  1.3146 -0.0934
  757MOL0     H 2174  11.431  11.402   4.842 -2.4073  1.2106 -0.1573
  757MOL0     H 2175  11.539  11.399   5.051  0.7816  1.0466  0.4481
  757MOL0     H 2176  11.362  11.414   5.080  0.4357  1.0474  3.4562
  757MOL0     H 2177  11.626  11.848   4.188  1.4366 -2.7914  2.8357
  757MOL0     H 2178  11.610  11.959   3.962  1.8966 -0.5177  1.7164
  757MOL0     H 2179  11.566  11.964   3.516  0.7230  2.9188 -1.1809
  757MOL0     H 2180  11.499  12.004   3.286  0.7848  1.4165  0.2433
  757MOL0     H 2181  11.316  11.023   3.488 -0.6293  0.1083  0.6957
  757MOL0     H 2182  11.154  10.927   3.627  0.0107  1.9794 -0.4003
  757MOL0     H 2183  10.878  10.646   3.894  3.1934 -2.1340 -2.0363
  757MOL0     H 2184  10.704  10.484   3.983 -3.2366 -1.1546  0.0399
  757MOL0     H 2185  10.367  10.400   3.736  1.3859 -0.8766 -2.2320
  757MOL0     H 2186  10.380  10.239   3.776 -0.4620 -0.4844  0.0134
  757MOL0     H 2187  10.412  10.305   4.025 -0.6686 -0.6309 -0.3080
  757MOL0     H 2188  10.247  10.308   3.950  0.5419 -1.6476 -1.4068
  757MOL0     H 2189  10.268  10.550   3.893 -0.9903  0.0191  0.1513
  757MOL0     H 2190  10.425  10.551   3.976  0.9492 -2.2452 -0.0929
  757MOL0     H 2191  10.141  10.486   4.086 -0.1404  0.3700 -2.7639
  757MOL0     H 2192  10.200  10.641   4.090 -2.3371 -0.8315  1.2294
  757MOL0     H 2193  10.353  10.381   4.390  0.9501  1.2590  0.7917
  757MOL0     H 2194  10.543  10.464   3.587  0.9461 -2.0906  0.8330
  757MOL0     H 2195  10.712  10.629   3.504 -0.3518  1.4525 -0.3841
  758MOL0     O 2196   4.788   6.258   5.545  0.3923  0.4744 -0.5220
  758MOL0     C 2197   4.890   6.322   5.531  0.1597 -0.5807  0.6789
  758MOL0     O 2198   4.998   6.288   5.453 -0.3583 -0.4042  0.2630
  758MOL0     C 2199   4.997   6.179   5.357  0.1268  0.6920  0.6635
  758MOL0     C 2200   4.894   6.079   5.340  0.0589  0.0403  1.1635
  758MOL0     C 2201   4.907   5.978   5.237 -0.4549 -0.5404 -0.1458
  758MOL0     C 2202   5.012   5.983   5.147 -0.3191  0.0686  0.8299
  758MOL0     O 2203   5.032   5.900   5.038  0.5030  0.5011 -0.6726
  758MOL0     C 2204   4.917   5.856   4.967  0.6792 -0.6320 -1.2619
  758MOL0     C 2205   4.956   5.791   4.847 -0.5775  0.0509  0.8508
  758MOL0     C 2206   5.054   5.869   4.751 -0.1449 -0.3293 -0.1255
  758MOL0     C 2207   4.988   5.956   4.634  0.9363 -0.3416  0.5458
  758MOL0     C 2208   5.085   6.052   4.574 -0.9153 -0.5061 -0.2761
  758MOL0     C 2209   5.219   5.997   4.536 -0.2290 -0.1511 -0.3186
  758MOL0     C 2210   5.318   6.107   4.554  0.0444 -0.6923  0.1880
  758MOL0     C 2211   5.454   6.055   4.503  0.7530 -1.4073  0.1448
  758MOL0     N 2212   5.551   6.156   4.548 -0.4871  0.7727 -0.4092
  758MOL0     C 2213   5.604   6.186   4.673  0.0776 -0.3721  0.1025
  758MOL0     C 2214   5.696   6.280   4.665 -0.7513  1.2007 -0.8927
  758MOL0     C 2215   5.786   6.345   4.766 -0.8248  0.1898 -0.4418
  758MOL0     C 2216   5.891   6.257   4.813 -0.7893  1.2280 -0.0615
  758MOL0     C 2217   6.024   6.267   4.721 -0.1530  0.1350  1.1159
  758MOL0     C 2218   6.152   6.181   4.767  0.8285 -0.3500 -1.0915
  758MOL0     O 2219   6.276   6.198   4.689  0.4368  0.5316  0.2100
  758MOL0     C 2220   6.374   6.110   4.728  0.2334 -0.2504  0.1041
  758MOL0     C 2221   6.362   6.010   4.821 -0.2229 -0.5585 -0.2159
  758MOL0     C 2222   6.471   5.916   4.832  0.4302 -0.3760 -0.7600
  758MOL0     C 2223   6.453   5.800   4.937  0.4040 -0.3521  0.8027
  758MOL0     C 2224   6.592   5.934   4.764  1.2127 -0.1753  0.1257
  758MOL0     C 2225   6.728   5.861   4.772  0.3763  0.2516 -1.0954
  758MOL0     O 2226   6.842   5.910   4.721  0.1721 -0.2208 -0.4011
  758MOL0     C 2227   6.955   5.848   4.764 -0.3410  0.8457 -0.4398
  758MOL0     C 2228   7.025   5.752   4.700  0.5517  0.1217  0.4731
  758MOL0     C 2229   7.140   5.700   4.752  0.6792 -0.1498  0.5467
  758MOL0     C 2230   7.202   5.748   4.868  0.2050 -0.3261 -0.6157
  758MOL0     O 2231   7.324   5.722   4.918  0.3450 -0.1390 -0.1224
  758MOL0     C 2232   7.388   5.601   4.884 -0.0502  0.1416 -1.0573
  758MOL0     C 2233   7.516   5.596   4.962 -0.3218 -0.3061 -0.1290
  758MOL0     C 2234   7.629   5.502   4.910  0.1628  0.2779 -0.2111
  758MOL0     C 2235   7.741   5.487   5.021 -0.6023 -0.6534  0.3241
  758MOL0     C 2236   7.852   5.389   4.984  0.2307 -0.3080 -0.3542
  758MOL0     C 2237   7.939   5.348   5.108  0.0620 -0.0529  0.1473
  758MOL0     C 2238   8.024   5.468   5.159  0.7046 -0.1109  0.3931
  758MOL0     C 2239   8.138   5.417   5.255 -0.5660  0.5750  1.0253
  758MOL0    Cl 2240   8.059   5.348   5.393 -0.3865 -0.5988 -0.0718
  758MOL0     C 2241   7.128   5.849   4.940  1.1883  0.2433  0.8126
  758MOL0     C 2242   7.006   5.898   4.882 -0.0774 -0.2619  0.0717
  758MOL0     O 2243   6.721   5.747   4.816  0.5181 -0.4393  0.1237
  758MOL0     C 2244   6.596   6.032   4.670  0.5701  0.0385 -0.5275
  758MOL0     C 2245   6.488   6.118   4.656  0.3302 -0.9597  1.0098
  758MOL0     N 2246   5.703   6.312   4.524 -1.2183  0.1393 -0.0651
  758MOL0     N 2247   5.625   6.235   4.458  0.8295 -0.3869  0.4205
  758MOL0     C 2248   5.113   6.080   5.170  0.2962 -0.3214  0.0657
  758MOL0     C 2249   5.104   6.176   5.272  0.6496 -0.3247  0.3535
  758MOL0     C 2250   4.895   6.456   5.608  0.2825 -0.0701  0.5699
  758MOL0     C 2251   4.981   6.558   5.570  0.6188  0.9012  0.6318
  758MOL0     C 2252   4.962   6.683   5.630 -0.1742  0.1679 -0.4797
  758MOL0     C 2253   4.857   6.715   5.711  0.0670 -0.3426 -0.0130
  758MOL0     O 2254   4.827   6.842   5.748  0.3282  0.9738  0.3731
  758MOL0     C 2255   4.707   6.891   5.693 -0.0845 -0.1906 -0.2464
  758MOL0     C 2256   4.693   7.028   5.748  0.3982  0.2671  0.1978
  758MOL0     C 2257   4.570   7.098   5.672  1.0515  0.5554 -0.1285
  758MOL0     C 2258   4.546   7.251   5.702  0.1911  0.6704  0.5909
  758MOL0     C 2259   4.535   7.280   5.854 -0.2758  0.3146  0.3607
  758MOL0     C 2260   4.534   7.301   5.972  0.7127 -0.1245 -0.2078
  758MOL0     C 2261   4.775   6.615   5.745  0.3494  0.7004  0.1152
  758MOL0     C 2262   4.793   6.485   5.701 -0.1108  0.1735 -0.3025
  758MOL0     H 2263   4.801   6.070   5.395 -0.7489  1.0623  0.0371
  758MOL0     H 2264   4.837   5.895   5.237 -0.6230 -0.4230 -1.5960
  758MOL0     H 2265   4.857   5.799   5.038 -0.0867  0.6203 -0.8742
  758MOL0     H 2266   4.867   5.949   4.939  1.2566 -0.0599 -0.4266
  758MOL0     H 2267   5.005   5.696   4.869 -0.2220 -0.4708 -1.8787
  758MOL0     H 2268   4.868   5.758   4.791  1.6975  2.1848 -4.6596
  758MOL0     H 2269   5.122   5.921   4.818 -0.0814 -1.3865  0.6482
  758MOL0     H 2270   5.118   5.792   4.707 -0.2037 -2.6916  3.4909
  758MOL0     H 2271   4.946   5.895   4.554 -0.3098 -0.9530  1.6167
  758MOL0     H 2272   4.904   6.010   4.679  0.7522 -0.7381  0.6830
  758MOL0     H 2273   5.047   6.100   4.483  2.8004  0.3826 -1.5105
  758MOL0     H 2274   5.104   6.138   4.639  1.3954  0.1796 -1.7596
  758MOL0     H 2275   5.248   5.912   4.599 -0.6906 -1.3920 -1.7273
  758MOL0     H 2276   5.214   5.952   4.437 -2.4596 -3.7797  1.2247
  758MOL0     H 2277   5.285   6.196   4.499  1.5143 -1.1066 -1.4384
  758MOL0     H 2278   5.343   6.121   4.659  3.3196 -2.5483 -0.2467
  758MOL0     H 2279   5.465   6.046   4.394  3.1993 -1.9396  0.3843
  758MOL0     H 2280   5.465   5.956   4.548 -1.3107 -0.6645  2.4769
  758MOL0     H 2281   5.574   6.140   4.766 -2.4447  0.9950  0.0799
  758MOL0     H 2282   5.832   6.433   4.721  0.2681 -0.6982 -1.1309
  758MOL0     H 2283   5.733   6.369   4.859 -1.0181 -3.9996  0.7424
  758MOL0     H 2284   5.857   6.154   4.820 -1.8412  1.6236  0.9786
  758MOL0     H 2285   5.909   6.274   4.920  3.0446 -2.0867  0.0649
  758MOL0     H 2286   6.067   6.367   4.710  4.7789 -1.9961 -3.8229
  758MOL0     H 2287   6.001   6.237   4.618  0.9636 -1.6127  1.3410
  758MOL0     H 2288   6.133   6.073   4.769 -0.8895 -0.1088 -1.8953
  758MOL0     H 2289   6.155   6.217   4.870 -2.5424 -0.5893 -0.7907
  758MOL0     H 2290   6.269   5.989   4.872 -1.2580 -2.9983 -2.8520
  758MOL0     H 2291   6.532   5.810   5.012  0.8378  1.1229  0.1890
  758MOL0     H 2292   6.358   5.800   4.991  0.5914 -2.9356  1.2563
  758MOL0     H 2293   6.465   5.709   4.877  0.6101  0.6136 -0.6920
  758MOL0     H 2294   6.983   5.705   4.612 -0.2177 -1.9049  1.8570
  758MOL0     H 2295   7.191   5.637   4.680  1.6419  2.9009 -1.6437
  758MOL0     H 2296   7.329   5.514   4.915  0.7363 -0.3590 -0.9389
  758MOL0     H 2297   7.413   5.586   4.779  5.2670 -0.3915  0.0214
  758MOL0     H 2298   7.564   5.694   4.951  0.4023 -0.6775 -0.3316
  758MOL0     H 2299   7.500   5.578   5.068  3.2041 -2.0886  0.2318
  758MOL0     H 2300   7.661   5.522   4.807  0.3697 -2.1110 -0.6545
  758MOL0     H 2301   7.574   5.408   4.900 -0.9472  0.8328  0.3824
  758MOL0     H 2302   7.782   5.586   5.037 -0.1428 -0.0708 -3.4727
  758MOL0     H 2303   7.701   5.455   5.118 -0.9918  1.5281  0.9306
  758MOL0     H 2304   7.916   5.442   4.913 -0.1836  1.1753  0.3292
  758MOL0     H 2305   7.808   5.302   4.936 -3.9485  1.6403 -0.5286
  758MOL0     H 2306   7.867   5.312   5.183 -2.4207 -1.2982 -2.6036
  758MOL0     H 2307   8.002   5.266   5.072 -2.5222 -1.4012 -1.7270
  758MOL0     H 2308   7.958   5.536   5.215  1.7952  1.3377 -0.0242
  758MOL0     H 2309   8.080   5.527   5.086  1.3348 -0.3210  0.7028
  758MOL0     H 2310   8.204   5.502   5.273 -1.5992  1.6203  0.0414
  758MOL0     H 2311   8.197   5.346   5.196 -1.9097  0.8298 -0.7059
  758MOL0     H 2312   7.163   5.908   5.024 -3.9458 -0.5585  3.9451
  758MOL0     H 2313   6.954   5.983   4.925  0.6635  0.2023  0.0634
  758MOL0     H 2314   6.683   6.030   4.605  2.5382 -0.0992  1.9846
  758MOL0     H 2315   6.502   6.180   4.568 -1.1192 -4.7592 -2.1640
  758MOL0     H 2316   5.200   6.077   5.105  0.7679 -1.1979  0.7272
  758MOL0     H 2317   5.178   6.253   5.292  0.0890  0.3489 -0.1659
  758MOL0     H 2318   5.070   6.530   5.516  0.6317 -1.1249  1.6304
  758MOL0     H 2319   5.024   6.769   5.603  4.1314 -3.1019 -2.3174
  758MOL0     H 2320   4.720   6.899   5.585  2.6902  1.6453  0.1148
  758MOL0     H 2321   4.620   6.833   5.724  0.4352 -0.0230  1.6819
  758MOL0     H 2322   4.779   7.095   5.738 -0.7565  1.9279  0.7734
  758MOL0     H 2323   4.678   7.013   5.855  0.4848 -1.3620  0.0017
  758MOL0     H 2324   4.474   7.048   5.689  1.9286 -1.8225 -1.6993
  758MOL0     H 2325   4.583   7.089   5.564 -0.3907  0.1681 -0.2906
  758MOL0     H 2326   4.458   7.283   5.646 -0.1051  1.6256  1.5486
  758MOL0     H 2327   4.628   7.305   5.653  0.0134 -0.1498 -0.6358
  758MOL0     H 2328   4.526   7.300   6.079 -0.1624  0.7910 -0.2597
  758MOL0     H 2329   4.689   6.630   5.810 -1.8010 -0.0560 -2.4024
  758MOL0     H 2330   4.726   6.401   5.718  0.4018 -0.0819  0.5642
  759MOL0     O 2331   1.322   6.157   4.280  0.0356  0.1751  0.1471
  759MOL0     C 2332   1.203   6.182   4.291  0.2681 -0.2285 -0.1504
  759MOL0     O 2333   1.106   6.089   4.327 -0.9566 -0.1305  0.2300
  759MOL0     C 2334   1.141   5.966   4.366  0.0049  0.8950 -0.2117
  759MOL0     C 2335   1.142   5.865   4.273  0.3324  0.5874  1.0612
  759MOL0     C 2336   1.201   5.748   4.302 -1.1241  0.6713 -0.4547
  759MOL0     C 2337   1.257   5.714   4.431  0.0673 -0.7660  0.3933
  759MOL0     O 2338   1.332   5.597   4.447  0.3874  1.0580  0.4387
  759MOL0     C 2339   1.452   5.607   4.538  0.4318 -0.3422  0.1502
  759MOL0     C 2340   1.551   5.497   4.525  0.2856  0.3001  0.6897
  759MOL0     C 2341   1.663   5.527   4.628  0.0316  0.5467  0.6480
  759MOL0     C 2342   1.782   5.436   4.591  0.2516 -0.5166 -0.1619
  759MOL0     C 2343   1.890   5.409   4.694 -0.2215 -0.7057 -1.5081
  759MOL0     C 2344   2.002   5.328   4.627  0.1108 -0.4352 -0.6931
  759MOL0     C 2345   2.065   5.229   4.717 -0.0603  0.4395  0.3650
  759MOL0     C 2346   2.113   5.293   4.853  1.2370  0.5258  0.2904
  759MOL0     N 2347   2.194   5.407   4.831 -0.9461 -0.2956  0.4698
  759MOL0     C 2348   2.282   5.413   4.721 -0.0599 -0.5013  0.6587
  759MOL0     C 2349   2.346   5.531   4.737  1.2425 -0.6102  0.9812
  759MOL0     C 2350   2.440   5.575   4.627  0.4257 -0.1349  0.1159
  759MOL0     C 2351   2.545   5.667   4.683 -0.0916 -0.1635  0.0529
  759MOL0     C 2352   2.668   5.705   4.585  0.3840 -0.3936  0.6291
  759MOL0     C 2353   2.810   5.719   4.636  0.2637  0.5229 -0.5378
  759MOL0     O 2354   2.882   5.761   4.514  0.2120  0.4512  0.2840
  759MOL0     C 2355   2.963   5.672   4.448  0.3425  0.0832  0.1703
  759MOL0     C 2356   3.056   5.719   4.351  0.0778 -0.3614  0.2045
  759MOL0     C 2357   3.141   5.640   4.280 -0.4088  0.0356  0.1972
  759MOL0     C 2358   3.229   5.711   4.174  1.3007 -0.0305  0.1747
  759MOL0     C 2359   3.153   5.503   4.307  0.7660  0.9577  0.4487
  759MOL0     C 2360   3.264   5.415   4.261  0.2362 -0.6709 -0.2868
  759MOL0     O 2361   3.378   5.471   4.195 -0.7415  0.0287 -0.9514
  759MOL0     C 2362   3.476   5.402   4.133 -0.1773  0.0413 -0.0741
  759MOL0     C 2363   3.598   5.474   4.119 -0.2318 -0.2025 -0.2666
  759MOL0     C 2364   3.704   5.411   4.055 -0.7269  0.4455  0.3279
  759MOL0     C 2365   3.703   5.275   4.009  0.1075 -0.5153  0.6466
  759MOL0     O 2366   3.820   5.219   3.968 -0.4299 -0.3531  0.1273
  759MOL0     C 2367   3.841   5.257   3.831  0.1079  0.0038 -0.5904
  759MOL0     C 2368   3.757   5.189   3.722 -0.0050  0.1896  0.5252
  759MOL0     C 2369   3.759   5.029   3.698  0.6866 -0.4133 -0.7223
  759MOL0     C 2370   3.737   4.973   3.562  0.7546 -1.0071  0.5943
  759MOL0     C 2371   3.722   4.820   3.573  0.6422 -0.4233  1.0139
  759MOL0     C 2372   3.749   4.748   3.435  0.3585  0.5050  0.2917
  759MOL0     C 2373   3.720   4.599   3.434 -0.1842  0.8368 -0.5913
  759MOL0     C 2374   3.763   4.547   3.298  0.1439  0.2626 -0.4358
  759MOL0    Cl 2375   3.742   4.379   3.323 -0.2951  0.0997  0.6177
  759MOL0     C 2376   3.583   5.204   4.033  0.9243  0.1629 -0.8869
  759MOL0     C 2377   3.472   5.272   4.088  0.9838  0.7686  0.0483
  759MOL0     O 2378   3.243   5.293   4.270  0.4105  0.0046 -0.4689
  759MOL0     C 2379   3.057   5.442   4.397 -0.8758 -1.2094 -0.0355
  759MOL0     C 2380   2.966   5.533   4.459  0.3314 -0.0685 -0.4715
  759MOL0     N 2381   2.295   5.588   4.852  0.2876 -0.7262 -0.0464
  759MOL0     N 2382   2.211   5.516   4.910 -0.0494 -0.3931 -0.3450
  759MOL0     C 2383   1.237   5.813   4.530 -0.7100  0.5529  1.2613
  759MOL0     C 2384   1.179   5.938   4.495  0.0117 -0.0093 -0.6465
  759MOL0     C 2385   1.159   6.311   4.247  0.4469  0.2215 -0.7786
  759MOL0     C 2386   1.020   6.344   4.232 -0.4025  0.8617  0.2756
  759MOL0     C 2387   0.976   6.465   4.199 -0.2066  0.1366 -0.4170
  759MOL0     C 2388   1.068   6.566   4.177 -0.3996 -0.3372  0.4192
  759MOL0     O 2389   1.016   6.691   4.157 -0.5981 -0.1620  0.7379
  759MOL0     C 2390   1.094   6.808   4.197 -0.6751  0.1321  0.1724
  759MOL0     C 2391   1.023   6.934   4.220 -0.8491 -0.6344 -0.1810
  759MOL0     C 2392   0.916   6.917   4.323  0.7381 -0.7139  0.5371
  759MOL0     C 2393   0.781   6.989   4.303 -0.1145 -0.2145  0.9906
  759MOL0     C 2394   0.806   7.128   4.261 -0.6347  0.5674  0.2213
  759MOL0     C 2395   0.837   7.234   4.222  0.2486  0.8836 -0.2390
  759MOL0     C 2396   1.206   6.541   4.169  0.5465  1.1857 -0.1193
  759MOL0     C 2397   1.247   6.407   4.205  0.3628 -0.9040  0.8941
  759MOL0     H 2398   1.101   5.876   4.173  0.2880 -1.1755  0.8562
  759MOL0     H 2399   1.199   5.668   4.228  0.5198  0.6092 -0.4760
  759MOL0     H 2400   1.506   5.700   4.523 -0.2986  0.3720  1.6985
  759MOL0     H 2401   1.410   5.599   4.639 -1.9186 -0.5872 -0.7775
  759MOL0     H 2402   1.504   5.399   4.540  2.1794 -0.6516  0.6966
  759MOL0     H 2403   1.596   5.505   4.425 -0.2589 -0.0517  0.4101
  759MOL0     H 2404   1.685   5.634   4.625 -0.9774  0.7499 -0.2841
  759MOL0     H 2405   1.631   5.506   4.730  2.3873  0.5434  1.4460
  759MOL0     H 2406   1.744   5.336   4.571 -0.1717 -0.0007 -2.2062
  759MOL0     H 2407   1.833   5.472   4.501 -3.4614 -0.1560 -2.3345
  759MOL0     H 2408   1.935   5.495   4.745  1.3794 -1.3084 -1.8380
  759MOL0     H 2409   1.838   5.355   4.774 -0.1102  0.6635 -0.4801
  759MOL0     H 2410   1.955   5.278   4.541  0.8530  1.0526 -2.0155
  759MOL0     H 2411   2.080   5.395   4.588  0.0262  0.9556  1.3966
  759MOL0     H 2412   1.987   5.154   4.734 -0.3865  0.5790 -0.5064
  759MOL0     H 2413   2.151   5.176   4.675  1.1497  1.5155  1.3617
  759MOL0     H 2414   2.161   5.212   4.908  1.0879 -0.9579 -1.6639
  759MOL0     H 2415   2.025   5.325   4.910 -0.7899 -1.9769 -1.2420
  759MOL0     H 2416   2.302   5.340   4.642 -0.3364 -0.5832  0.6641
  759MOL0     H 2417   2.479   5.481   4.587 -1.7049 -1.2510  0.4978
  759MOL0     H 2418   2.374   5.623   4.554  1.4060  2.8554  1.0359
  759MOL0     H 2419   2.589   5.629   4.776 -0.2057  0.0814  0.2075
  759MOL0     H 2420   2.496   5.759   4.714 -3.9139 -2.2178  0.6557
  759MOL0     H 2421   2.642   5.795   4.528  0.0728 -0.5477  0.5253
  759MOL0     H 2422   2.672   5.626   4.509  0.2652  0.6160 -0.4483
  759MOL0     H 2423   2.841   5.624   4.681 -3.0732 -0.6745 -0.4690
  759MOL0     H 2424   2.826   5.797   4.711  2.2449 -0.3582  0.0298
  759MOL0     H 2425   3.063   5.826   4.335  2.6046 -0.4682  0.1915
  759MOL0     H 2426   3.227   5.820   4.182  2.1698 -0.1045  1.9037
  759MOL0     H 2427   3.336   5.689   4.184  1.0500 -1.3102  0.3206
  759MOL0     H 2428   3.188   5.674   4.079 -6.7824  0.1503  2.8263
  759MOL0     H 2429   3.616   5.579   4.142  3.4959 -0.7944  0.2865
  759MOL0     H 2430   3.794   5.468   4.036 -0.9970  0.2063 -1.9208
  759MOL0     H 2431   3.825   5.363   3.808  0.4847  0.4215  0.9523
  759MOL0     H 2432   3.944   5.234   3.803 -0.4739 -3.6906 -0.1668
  759MOL0     H 2433   3.654   5.220   3.739  1.0254  2.5365  3.3531
  759MOL0     H 2434   3.786   5.221   3.622  1.6300 -0.4429  0.7555
  759MOL0     H 2435   3.683   4.988   3.765 -0.2731  0.3930 -1.2956
  759MOL0     H 2436   3.858   4.998   3.733  1.8122  1.4371 -2.1280
  759MOL0     H 2437   3.652   5.016   3.507 -0.1538 -0.7070  2.1915
  759MOL0     H 2438   3.827   5.005   3.507 -0.2398  0.9616  0.0123
  759MOL0     H 2439   3.624   4.802   3.618 -0.5575  1.0896 -0.8403
  759MOL0     H 2440   3.790   4.781   3.650  0.5555  0.0244  1.3180
  759MOL0     H 2441   3.672   4.786   3.366  0.4571 -3.0774 -2.0694
  759MOL0     H 2442   3.851   4.771   3.403  0.1861  2.1108  0.8069
  759MOL0     H 2443   3.618   4.577   3.468  0.7175  2.3091  3.5678
  759MOL0     H 2444   3.781   4.545   3.506 -1.2187 -3.6013 -2.6760
  759MOL0     H 2445   3.871   4.560   3.293  0.3058 -1.2808 -3.9477
  759MOL0     H 2446   3.697   4.573   3.214 -2.0952 -2.5393  0.2853
  759MOL0     H 2447   3.585   5.098   4.012  1.2523 -0.2161  0.8848
  759MOL0     H 2448   3.381   5.220   4.115 -0.8162  2.8292 -1.6768
  759MOL0     H 2449   3.056   5.336   4.420  1.9048 -1.2266  0.3478
  759MOL0     H 2450   2.897   5.482   4.527 -2.2909  3.6036 -0.0477
  759MOL0     H 2451   1.292   5.806   4.624  1.8366  3.0884  0.1014
  759MOL0     H 2452   1.178   6.024   4.561 -1.8347  1.5662 -2.5651
  759MOL0     H 2453   0.944   6.267   4.240  1.0563 -1.0652 -2.7500
  759MOL0     H 2454   0.868   6.478   4.197 -0.4328 -0.3110  2.9067
  759MOL0     H 2455   1.151   6.771   4.282  0.0361 -0.8234 -0.6997
  759MOL0     H 2456   1.156   6.853   4.119  0.3975  0.9429  1.4604
  759MOL0     H 2457   0.980   6.968   4.126  0.0881  0.6020 -0.1842
  759MOL0     H 2458   1.089   7.007   4.268 -1.3761 -2.3816  3.5398
  759MOL0     H 2459   0.956   6.946   4.421 -1.0962  0.7196  0.9394
  759MOL0     H 2460   0.887   6.812   4.318 -2.6672  0.0907  0.9277
  759MOL0     H 2461   0.716   7.000   4.391 -1.1469  0.9790  0.1171
  759MOL0     H 2462   0.726   6.940   4.223  0.3478  0.8354 -0.0008
  759MOL0     H 2463   0.878   7.329   4.195  0.2772  0.4151 -1.9189
  759MOL0     H 2464   1.286   6.613   4.155  0.8674  0.5766 -1.5673
  759MOL0     H 2465   1.348   6.383   4.176  0.1817  1.3967 -2.1097
  760MOL0     O 2466  10.853   6.320   1.678 -0.0480 -0.3135  1.1093
  760MOL0     C 2467  10.940   6.412   1.657 -0.1174  0.5741  0.2746
  760MOL0     O 2468  11.046   6.446   1.734  0.3145  0.3231  0.6765
  760MOL0     C 2469  11.061   6.403   1.856  0.3731  0.6994 -0.9698
  760MOL0     C 2470  10.960   6.401   1.960  0.1341 -0.0188 -0.8256
  760MOL0     C 2471  10.998   6.375   2.095  0.7420  1.0739  0.3865
  760MOL0     C 2472  11.133   6.358   2.125 -0.2816 -0.7249  0.2330
  760MOL0     O 2473  11.161   6.328   2.256 -0.6308 -0.7454 -0.7563
  760MOL0     C 2474  11.260   6.231   2.290 -1.0505  0.7196 -0.5212
  760MOL0     C 2475  11.252   6.207   2.438 -0.3809  0.1636  0.9394
  760MOL0     C 2476  11.121   6.140   2.479 -0.5434  0.4977 -0.7322
  760MOL0     C 2477  11.023   6.237   2.553 -0.6107  1.0341 -0.6620
  760MOL0     C 2478  11.036   6.225   2.716 -0.3673 -0.0880  0.9523
  760MOL0     C 2479  11.005   6.086   2.768  0.1964 -0.0153  0.1852
  760MOL0     C 2480  10.951   6.081   2.918 -0.3589 -0.0655 -0.2968
  760MOL0     C 2481  11.063   6.131   3.010 -0.8747 -1.1822 -0.4139
  760MOL0     N 2482  11.018   6.121   3.150  0.1724 -0.1694  0.4741
  760MOL0     C 2483  11.021   6.005   3.228  0.5239  0.2892  0.2736
  760MOL0     C 2484  10.985   6.049   3.352  0.0207 -0.4725 -0.0635
  760MOL0     C 2485  10.966   5.969   3.478 -0.5837  0.0970  0.5973
  760MOL0     C 2486  11.094   5.962   3.555  0.2156  1.1788  0.1218
  760MOL0     C 2487  11.167   6.093   3.586 -0.3982  0.6165  0.2833
  760MOL0     C 2488  11.286   6.071   3.675 -0.2880  1.5800  0.8617
  760MOL0     O 2489  11.328   6.176   3.764  0.4502  0.3634  0.2681
  760MOL0     C 2490  11.367   6.293   3.700  0.6400 -0.0056 -1.0255
  760MOL0     C 2491  11.418   6.306   3.570  0.6617  0.4212 -0.0816
  760MOL0     C 2492  11.448   6.439   3.521  0.5845 -0.4764  0.3694
  760MOL0     C 2493  11.500   6.450   3.376  0.1870 -0.3947  0.7277
  760MOL0     C 2494  11.438   6.557   3.603 -0.5817  0.4209 -0.2640
  760MOL0     C 2495  11.493   6.691   3.563 -0.6028 -0.1347 -0.0591
  760MOL0     O 2496  11.416   6.801   3.608 -0.0342 -1.2348  0.1585
  760MOL0     C 2497  11.461   6.927   3.635  0.7187  0.2265 -0.6286
  760MOL0     C 2498  11.583   6.947   3.699 -0.2463  0.3114 -0.7516
  760MOL0     C 2499  11.639   7.070   3.699  0.1524 -0.4919  0.7519
  760MOL0     C 2500  11.567   7.189   3.651  0.6838 -0.0095  0.6895
  760MOL0     O 2501  11.621   7.304   3.645  0.3150  0.1448  0.0450
  760MOL0     C 2502  11.659   7.337   3.510 -0.1486  0.3495 -0.3553
  760MOL0     C 2503  11.699   7.481   3.495 -0.5065  0.7128  0.5967
  760MOL0     C 2504  11.819   7.521   3.585 -0.6853  0.3344  0.0458
  760MOL0     C 2505  11.915   7.616   3.520 -0.1722 -0.1221  0.8072
  760MOL0     C 2506  12.009   7.556   3.403  0.3180 -0.5676 -0.4329
  760MOL0     C 2507  12.110   7.469   3.479 -0.3723 -0.1706  1.3743
  760MOL0     C 2508  12.257   7.469   3.415 -0.7641 -1.2810  0.4608
  760MOL0     C 2509  12.346   7.373   3.496 -0.1727  0.5379  0.3395
  760MOL0    Cl 2510  12.463   7.280   3.403  0.8636 -0.5032 -0.0961
  760MOL0     C 2511  11.435   7.177   3.602 -0.1463 -0.1155 -0.5254
  760MOL0     C 2512  11.387   7.038   3.590  0.2863  0.1494  0.5531
  760MOL0     O 2513  11.592   6.705   3.490 -0.1172  0.0377  0.0049
  760MOL0     C 2514  11.391   6.535   3.731 -0.7375 -0.3347  0.3478
  760MOL0     C 2515  11.337   6.415   3.774 -0.0261  0.8509  0.6301
  760MOL0     N 2516  10.967   6.188   3.346 -0.6781 -0.3247 -0.0223
  760MOL0     N 2517  10.983   6.227   3.225  0.4076 -0.1494  0.5961
  760MOL0     C 2518  11.230   6.376   2.022 -0.3275 -0.3891 -0.6441
  760MOL0     C 2519  11.194   6.389   1.891  0.3861  0.1528  0.8533
  760MOL0     C 2520  10.906   6.501   1.540  0.6589 -0.0302 -0.0546
  760MOL0     C 2521  10.987   6.605   1.511 -0.0110 -0.3858  0.3963
  760MOL0     C 2522  10.979   6.668   1.389 -0.4118  0.7752 -0.1374
  760MOL0     C 2523  10.884   6.628   1.294  0.4689  1.4013 -0.2088
  760MOL0     O 2524  10.870   6.680   1.178  0.3968  0.1530 -0.4205
  760MOL0     C 2525  10.933   6.603   1.070 -0.8854 -0.0801 -0.2455
  760MOL0     C 2526  11.048   6.689   1.012 -0.1174  0.1874 -0.0496
  760MOL0     C 2527  11.000   6.805   0.927  0.8705 -0.0097  0.6016
  760MOL0     C 2528  11.112   6.884   0.862  0.2078 -1.0082 -0.3584
  760MOL0     C 2529  11.166   6.980   0.968  0.0142  0.8436 -0.4363
  760MOL0     C 2530  11.207   7.059   1.055 -0.5491 -0.0340 -0.0740
  760MOL0     C 2531  10.802   6.521   1.325  1.0683 -0.6976 -0.3382
  760MOL0     C 2532  10.810   6.456   1.443 -0.4953 -0.4790 -0.0791
  760MOL0     H 2533  10.856   6.414   1.933  0.5539  1.8451 -1.6923
  760MOL0     H 2534  10.920   6.361   2.169  0.1681 -3.0351 -0.7840
  760MOL0     H 2535  11.238   6.134   2.246  2.4302 -0.5972  0.2680
  760MOL0     H 2536  11.361   6.260   2.260 -1.1385  1.0167 -0.5359
  760MOL0     H 2537  11.336   6.142   2.462 -1.3642 -1.6589 -0.2834
  760MOL0     H 2538  11.271   6.301   2.491  0.7378  0.2062  0.4801
  760MOL0     H 2539  11.066   6.081   2.405 -0.9542 -1.1650  0.8106
  760MOL0     H 2540  11.144   6.063   2.554 -1.0154  0.5629 -0.5092
  760MOL0     H 2541  11.026   6.340   2.517  2.9180  1.1848 -0.3137
  760MOL0     H 2542  10.925   6.197   2.525 -0.3792  1.2414 -1.8073
  760MOL0     H 2543  11.136   6.257   2.746 -0.0566 -1.3499  1.3017
  760MOL0     H 2544  10.956   6.286   2.760 -1.6369 -1.6364  0.8687
  760MOL0     H 2545  10.938   6.028   2.703 -0.1229  0.4887  0.0642
  760MOL0     H 2546  11.099   6.029   2.765  0.6612  0.7829 -1.2896
  760MOL0     H 2547  10.860   6.142   2.922  0.7622  1.7427 -1.2251
  760MOL0     H 2548  10.951   5.979   2.959  3.9105  0.8667  2.7684
  760MOL0     H 2549  11.101   6.232   2.994 -3.2646 -0.0262  0.6188
  760MOL0     H 2550  11.152   6.068   2.997  1.5727  1.4224  2.3358
  760MOL0     H 2551  11.021   5.902   3.193 -1.4049  0.0009  1.0111
  760MOL0     H 2552  10.888   6.035   3.516 -1.8022 -0.9591  0.0199
  760MOL0     H 2553  10.927   5.871   3.449  2.0208 -0.3688 -1.8271
  760MOL0     H 2554  11.160   5.890   3.506 -1.8581  0.0977 -1.1869
  760MOL0     H 2555  11.080   5.924   3.657  2.7914  1.9526  0.8526
  760MOL0     H 2556  11.089   6.154   3.633 -0.9048 -1.1854  1.9005
  760MOL0     H 2557  11.218   6.141   3.502 -1.4190  2.0334  0.4330
  760MOL0     H 2558  11.381   6.049   3.625 -0.3373  2.6769  0.2479
  760MOL0     H 2559  11.258   5.987   3.739  0.6488 -0.3472 -1.1057
  760MOL0     H 2560  11.432   6.220   3.505  1.8684 -1.0236  1.9537
  760MOL0     H 2561  11.607   6.434   3.365 -0.2545 -1.7722 -2.9721
  760MOL0     H 2562  11.448   6.383   3.306  2.5322  0.6102 -2.1905
  760MOL0     H 2563  11.490   6.548   3.329  1.2575 -1.4088 -1.8103
  760MOL0     H 2564  11.628   6.851   3.723  0.3589  0.0869 -2.6516
  760MOL0     H 2565  11.731   7.098   3.749 -1.2504  3.1769  1.6250
  760MOL0     H 2566  11.741   7.270   3.483  1.9686  2.4192  0.6760
  760MOL0     H 2567  11.578   7.314   3.439  3.2081  2.3797 -5.3892
  760MOL0     H 2568  11.724   7.498   3.389  0.8780  0.5459  0.8880
  760MOL0     H 2569  11.605   7.535   3.515 -0.0390  1.6110  0.4531
  760MOL0     H 2570  11.874   7.426   3.590  1.2501  1.4330  0.6898
  760MOL0     H 2571  11.792   7.548   3.687  0.1657  2.2091 -0.1912
  760MOL0     H 2572  11.853   7.693   3.473 -3.3733 -0.6509  3.7761
  760MOL0     H 2573  11.973   7.653   3.605 -0.9337 -0.2287  1.3851
  760MOL0     H 2574  12.049   7.641   3.347 -2.8189  1.2199 -0.1971
  760MOL0     H 2575  11.951   7.491   3.338  1.1331  0.1827 -1.9511
  760MOL0     H 2576  12.126   7.502   3.582 -0.5759  0.6060  1.1631
  760MOL0     H 2577  12.074   7.365   3.480 -0.0443 -0.3197  4.2863
  760MOL0     H 2578  12.305   7.566   3.430 -0.6136 -1.3249  0.2557
  760MOL0     H 2579  12.250   7.450   3.308  2.9508  3.9817 -1.1246
  760MOL0     H 2580  12.275   7.305   3.544 -1.1461  0.3498 -1.2909
  760MOL0     H 2581  12.385   7.425   3.584 -0.4159  3.2869 -1.0866
  760MOL0     H 2582  11.367   7.258   3.575  2.7549  2.1963 -1.3597
  760MOL0     H 2583  11.294   7.017   3.537  0.9428  1.1230 -1.0369
  760MOL0     H 2584  11.385   6.599   3.819  0.2197 -3.7923  3.1734
  760MOL0     H 2585  11.279   6.385   3.860  2.8736 -3.8406  1.2982
  760MOL0     H 2586  11.328   6.382   2.068 -1.6893 -2.5225  2.8398
  760MOL0     H 2587  11.270   6.407   1.816 -0.9425  3.3349  0.0900
  760MOL0     H 2588  11.065   6.641   1.577  0.2802  1.2958 -0.8028
  760MOL0     H 2589  11.038   6.755   1.362 -1.6134  1.3800 -0.9059
  760MOL0     H 2590  10.966   6.502   1.098  0.2608  0.2625 -0.3098
  760MOL0     H 2591  10.849   6.595   1.000 -1.1766  2.6171 -0.2799
  760MOL0     H 2592  11.097   6.625   0.939 -3.3390  0.2480 -2.4534
  760MOL0     H 2593  11.128   6.708   1.085  2.4067 -1.6463 -2.1616
  760MOL0     H 2594  10.932   6.865   0.989 -1.3193 -1.9847  0.2533
  760MOL0     H 2595  10.932   6.763   0.852 -1.1255 -0.4914  2.5677
  760MOL0     H 2596  11.078   6.961   0.791 -1.5520 -0.6932  0.7408
  760MOL0     H 2597  11.181   6.818   0.810  0.5094 -1.5782  0.7309
  760MOL0     H 2598  11.242   7.129   1.128 -0.8855  0.2470 -0.1835
  760MOL0     H 2599  10.732   6.484   1.251 -2.0736  0.2130  1.9830
  760MOL0     H 2600  10.758   6.363   1.462  1.1519 -1.2674  0.7642
  761MOL0     O 2601   2.528   2.808   3.802 -0.0485  0.4585 -0.3991
  761MOL0     C 2602   2.587   2.766   3.907  0.4989 -0.1577  0.9053
  761MOL0     O 2603   2.685   2.833   3.969 -0.1808 -0.7386  0.3414
  761MOL0     C 2604   2.727   2.954   3.919  0.9220 -0.4074 -0.4204
  761MOL0     C 2605   2.629   3.046   3.865  0.0282 -0.0188  0.8785
  761MOL0     C 2606   2.671   3.168   3.820  0.7076 -0.3007 -0.0673
  761MOL0     C 2607   2.807   3.211   3.833 -0.0100  0.2385  0.1177
  761MOL0     O 2608   2.859   3.329   3.798 -0.0532 -0.1343  0.8314
  761MOL0     C 2609   2.784   3.451   3.757 -0.8396  0.7913 -0.7227
  761MOL0     C 2610   2.685   3.511   3.860 -0.7040  0.2522  0.1302
  761MOL0     C 2611   2.750   3.626   3.940  0.4737  0.4578  0.0914
  761MOL0     C 2612   2.646   3.698   4.036 -0.0096  0.2108  0.5026
  761MOL0     C 2613   2.561   3.798   3.966 -1.0149  0.7228 -0.3657
  761MOL0     C 2614   2.515   3.911   4.050 -0.0926 -0.5092 -0.7276
  761MOL0     C 2615   2.440   4.015   3.963  0.1048 -0.8130  0.2555
  761MOL0     C 2616   2.322   3.962   3.887 -0.2349 -0.4573 -0.0997
  761MOL0     N 2617   2.238   4.076   3.831  0.3311  0.5194  0.5106
  761MOL0     C 2618   2.114   4.119   3.882  0.9543 -0.5586  0.3812
  761MOL0     C 2619   2.078   4.224   3.806  0.4018  0.2572 -0.1534
  761MOL0     C 2620   1.959   4.300   3.854 -0.0706 -0.8679 -0.2107
  761MOL0     C 2621   1.840   4.238   3.775  0.0429  0.1015 -0.1922
  761MOL0     C 2622   1.703   4.303   3.810 -0.6250 -0.5084 -0.3683
  761MOL0     C 2623   1.667   4.435   3.728 -0.5457 -0.7014  0.2637
  761MOL0     O 2624   1.712   4.416   3.593 -0.6255  0.1737  0.0491
  761MOL0     C 2625   1.620   4.365   3.508  0.4896  0.2546 -0.0747
  761MOL0     C 2626   1.591   4.228   3.486 -0.0138 -0.0064 -0.4532
  761MOL0     C 2627   1.483   4.191   3.397  0.7067  0.3045  0.4147
  761MOL0     C 2628   1.476   4.041   3.369 -0.2476  0.0639 -0.1072
  761MOL0     C 2629   1.417   4.293   3.316 -0.4451  0.1170 -0.0513
  761MOL0     C 2630   1.317   4.271   3.210  0.5017  0.4123  0.0347
  761MOL0     O 2631   1.259   4.149   3.211  0.4938  0.3150  0.4735
  761MOL0     C 2632   1.153   4.135   3.122 -0.1360 -0.2521 -0.4706
  761MOL0     C 2633   1.024   4.183   3.156 -0.6588 -0.0690 -1.1489
  761MOL0     C 2634   0.914   4.165   3.073  1.2688  0.7570 -1.1886
  761MOL0     C 2635   0.918   4.095   2.952 -0.2571  1.0645 -0.8740
  761MOL0     O 2636   0.814   4.069   2.867  0.3510 -0.0977  0.0777
  761MOL0     C 2637   0.681   4.134   2.876  0.2394  0.8891  0.2587
  761MOL0     C 2638   0.713   4.269   2.829  0.5892 -0.3037  0.5729
  761MOL0     C 2639   0.588   4.357   2.803 -0.2199  0.3396  0.1644
  761MOL0     C 2640   0.505   4.318   2.683  0.4300 -0.9612  0.2158
  761MOL0     C 2641   0.366   4.395   2.691 -0.4827 -0.5324 -0.0688
  761MOL0     C 2642   0.381   4.545   2.692  1.0388 -1.0712 -0.4672
  761MOL0     C 2643   0.246   4.613   2.660 -0.3412 -0.7216 -0.1677
  761MOL0     C 2644   0.247   4.774   2.662 -0.9278  0.0737  0.2559
  761MOL0    Cl 2645   0.085   4.850   2.623 -0.0391 -0.0021  0.2100
  761MOL0     C 2646   1.046   4.045   2.918  0.0055 -0.4554 -1.0357
  761MOL0     C 2647   1.158   4.059   3.007  0.1599 -0.9088 -0.1435
  761MOL0     O 2648   1.281   4.365   3.131  0.7702 -0.5724 -0.5281
  761MOL0     C 2649   1.441   4.432   3.351 -0.6464  0.5716  0.2495
  761MOL0     C 2650   1.548   4.464   3.444  0.2327 -0.5308 -0.1996
  761MOL0     N 2651   2.175   4.244   3.713 -0.8065 -0.6502  0.4695
  761MOL0     N 2652   2.273   4.165   3.724 -0.7509 -0.2144  0.0177
  761MOL0     C 2653   2.897   3.120   3.880 -0.3125 -0.3996  0.3524
  761MOL0     C 2654   2.859   2.992   3.921  0.4166 -0.7639 -0.0718
  761MOL0     C 2655   2.550   2.630   3.960 -0.3817 -0.0463  0.0563
  761MOL0     C 2656   2.461   2.540   3.891 -0.0508  0.3339 -0.7416
  761MOL0     C 2657   2.447   2.410   3.947  0.7829  0.7162 -0.0825
  761MOL0     C 2658   2.503   2.355   4.055  0.5114 -0.0553 -0.4720
  761MOL0     O 2659   2.491   2.227   4.107  0.1532  0.3871  0.3245
  761MOL0     C 2660   2.376   2.152   4.072 -0.6496 -0.1067  0.2336
  761MOL0     C 2661   2.364   2.038   4.180  0.2309 -0.2495  0.0971
  761MOL0     C 2662   2.387   2.090   4.321  0.6407  0.4564 -0.4277
  761MOL0     C 2663   2.259   2.164   4.375  1.2832 -0.2087 -0.5154
  761MOL0     C 2664   2.250   2.145   4.516  0.1311  0.3485 -0.5500
  761MOL0     C 2665   2.216   2.106   4.624  0.2191  0.5678 -1.0270
  761MOL0     C 2666   2.602   2.439   4.123 -1.0064  0.0730  0.5530
  761MOL0     C 2667   2.618   2.576   4.074  0.0707 -0.0717  0.0874
  761MOL0     H 2668   2.523   3.025   3.857 -0.1516  1.0583  0.0814
  761MOL0     H 2669   2.601   3.242   3.784  1.0486  0.3663  0.6159
  761MOL0     H 2670   2.851   3.529   3.719 -0.8192 -0.0181 -2.4516
  761MOL0     H 2671   2.730   3.418   3.667 -0.6493 -1.1312 -0.1681
  761MOL0     H 2672   2.603   3.559   3.807  1.2429  5.8863  1.5798
  761MOL0     H 2673   2.650   3.428   3.922  1.8002 -0.4006  0.7928
  761MOL0     H 2674   2.838   3.583   3.988 -0.2265 -0.1809  0.8278
  761MOL0     H 2675   2.796   3.705   3.881 -0.6409 -0.2719 -1.8376
  761MOL0     H 2676   2.587   3.625   4.092 -0.3448  0.1044  0.0184
  761MOL0     H 2677   2.702   3.741   4.119 -0.3726  1.4476  0.1258
  761MOL0     H 2678   2.610   3.840   3.878 -1.7006  0.1532 -1.0343
  761MOL0     H 2679   2.478   3.743   3.921 -0.9148  0.0325  0.2756
  761MOL0     H 2680   2.447   3.870   4.125 -1.1077  2.1359 -0.0955
  761MOL0     H 2681   2.607   3.947   4.097 -0.5521 -2.1631  1.6174
  761MOL0     H 2682   2.409   4.083   4.043 -0.6282 -1.6725  0.7261
  761MOL0     H 2683   2.504   4.064   3.890 -1.8671  0.0762 -0.9625
  761MOL0     H 2684   2.253   3.914   3.958 -0.4300  1.4463  1.0723
  761MOL0     H 2685   2.348   3.890   3.809  0.1439 -0.4922  0.0556
  761MOL0     H 2686   2.068   4.086   3.974  1.4395 -2.9320 -0.1681
  761MOL0     H 2687   1.936   4.296   3.961  2.0727 -0.9352  0.2997
  761MOL0     H 2688   1.961   4.408   3.837 -0.8709 -0.2761  2.7980
  761MOL0     H 2689   1.831   4.135   3.811  1.2170 -0.0197 -0.1905
  761MOL0     H 2690   1.850   4.237   3.666  1.1947 -0.7854 -0.0977
  761MOL0     H 2691   1.709   4.316   3.918 -1.1977  0.1843 -0.4185
  761MOL0     H 2692   1.614   4.241   3.796 -1.9389  1.0207  0.8661
  761MOL0     H 2693   1.719   4.524   3.765  2.2630 -2.9535  2.2342
  761MOL0     H 2694   1.559   4.454   3.735 -0.4644 -0.5676  1.3821
  761MOL0     H 2695   1.644   4.153   3.544  0.2600  0.3147 -0.2857
  761MOL0     H 2696   1.381   4.007   3.411  0.1700 -1.1849 -0.1392
  761MOL0     H 2697   1.477   4.019   3.262  1.3515 -1.8791  0.2390
  761MOL0     H 2698   1.553   3.978   3.414 -0.4586  1.8203  3.0057
  761MOL0     H 2699   1.011   4.235   3.250  0.6963 -0.9084 -0.4536
  761MOL0     H 2700   0.815   4.197   3.105 -0.2624 -2.8238 -1.8733
  761MOL0     H 2701   0.622   4.074   2.807 -1.6477  1.2942  1.4572
  761MOL0     H 2702   0.630   4.135   2.973  0.4275 -1.4539  0.4355
  761MOL0     H 2703   0.762   4.325   2.909  1.1084 -0.7300  0.5597
  761MOL0     H 2704   0.772   4.261   2.737 -0.8507 -1.3435 -0.3099
  761MOL0     H 2705   0.628   4.458   2.792 -1.1654  0.5800 -1.2231
  761MOL0     H 2706   0.532   4.353   2.898  3.8313  0.1698  2.7909
  761MOL0     H 2707   0.554   4.348   2.591  1.2294  3.8824  1.9422
  761MOL0     H 2708   0.489   4.211   2.671 -1.1128 -0.7850  0.3861
  761MOL0     H 2709   0.309   4.357   2.777 -2.1632  0.0727 -0.8676
  761MOL0     H 2710   0.316   4.368   2.598 -0.3514  2.0006 -0.9382
  761MOL0     H 2711   0.412   4.567   2.795  1.0773  1.6167 -0.9661
  761MOL0     H 2712   0.463   4.582   2.630  1.3934  0.8808  1.0477
  761MOL0     H 2713   0.175   4.584   2.738  0.5636 -1.3609  0.4263
  761MOL0     H 2714   0.211   4.581   2.561  0.4920 -1.5649 -0.1998
  761MOL0     H 2715   0.318   4.804   2.584  1.2143 -2.7766  0.9443
  761MOL0     H 2716   0.290   4.817   2.752  3.1617 -0.0558 -1.4238
  761MOL0     H 2717   1.036   3.990   2.825 -0.1337  2.5789 -2.9266
  761MOL0     H 2718   1.256   4.020   2.980 -0.3704 -2.8450  0.5758
  761MOL0     H 2719   1.368   4.501   3.311 -2.0692 -0.7425  0.5035
  761MOL0     H 2720   1.581   4.566   3.462 -1.4092 -0.1015  0.5119
  761MOL0     H 2721   3.001   3.152   3.885 -0.9485  2.4235 -1.7539
  761MOL0     H 2722   2.943   2.928   3.946  2.6781  2.3360  1.0319
  761MOL0     H 2723   2.414   2.567   3.796  0.9305 -0.6798 -1.5471
  761MOL0     H 2724   2.379   2.342   3.896  0.3778  0.3392  0.9439
  761MOL0     H 2725   2.291   2.221   4.067 -1.6695 -1.4354 -3.3193
  761MOL0     H 2726   2.385   2.098   3.978 -0.7259  3.1038 -1.7583
  761MOL0     H 2727   2.444   1.967   4.157 -1.0306 -2.3037  1.6409
  761MOL0     H 2728   2.267   1.986   4.184  0.7644 -1.2380  0.8723
  761MOL0     H 2729   2.483   2.140   4.337 -0.2671  1.8905  0.8597
  761MOL0     H 2730   2.407   2.000   4.380  2.7375  2.6174  2.4673
  761MOL0     H 2731   2.172   2.113   4.334 -0.8378  0.6856  2.5503
  761MOL0     H 2732   2.269   2.268   4.341  1.9630  1.5088  4.1739
  761MOL0     H 2733   2.178   2.067   4.717  3.4073 -1.3968 -0.3849
  761MOL0     H 2734   2.656   2.399   4.208  0.1788  2.6236  1.0859
  761MOL0     H 2735   2.679   2.638   4.138  0.7839  2.9658 -3.2515
  762MOL0     O 2736   7.182   2.866   9.966  0.1867 -0.3772  0.4502
  762MOL0     C 2737   7.272   2.918   9.892 -0.4090  0.8562 -0.1225
  762MOL0     O 2738   7.258   3.012   9.797 -0.3687  0.2429  0.1822
  762MOL0     C 2739   7.127   3.015   9.748 -0.5002 -0.3767  0.4406
  762MOL0     C 2740   7.095   2.943   9.632  0.5756 -0.0227  0.4692
  762MOL0     C 2741   6.971   2.959   9.572 -0.2430 -0.6530 -0.7329
  762MOL0     C 2742   6.875   3.045   9.629  0.6671  0.4519 -0.5421
  762MOL0     O 2743   6.769   3.099   9.556 -0.0881 -0.5278 -0.5271
  762MOL0     C 2744   6.630   3.057   9.601  0.7669 -0.2298 -0.1110
  762MOL0     C 2745   6.538   3.176   9.592 -1.1312  0.9689 -0.8846
  762MOL0     C 2746   6.396   3.122   9.545  0.3393 -0.5632  0.5536
  762MOL0     C 2747   6.309   3.091   9.672  0.0845 -0.3575  0.0824
  762MOL0     C 2748   6.165   3.067   9.625  0.7166  0.4401 -0.0389
  762MOL0     C 2749   6.096   3.197   9.567 -1.3157  0.5471  0.6793
  762MOL0     C 2750   6.100   3.325   9.647  0.3188  0.5274  0.4749
  762MOL0     C 2751   6.023   3.311   9.778  0.0085 -0.4263  0.4108
  762MOL0     N 2752   6.002   3.446   9.822  0.3295  0.1889  0.8776
  762MOL0     C 2753   5.946   3.551   9.763 -0.3849  1.1517  0.5371
  762MOL0     C 2754   5.987   3.653   9.839 -0.3372 -0.3273 -0.3985
  762MOL0     C 2755   5.936   3.797   9.813  0.4912  0.9485 -0.3138
  762MOL0     C 2756   5.788   3.797   9.777  0.0475 -0.0751  0.9807
  762MOL0     C 2757   5.698   3.807   9.894  0.5818 -0.2860 -0.4293
  762MOL0     C 2758   5.554   3.760   9.859  1.5622 -0.0148 -0.6829
  762MOL0     O 2759   5.468   3.736   9.968 -0.7044 -0.2367 -0.3361
  762MOL0     C 2760   5.354   3.656   9.941  0.2176 -0.4154  0.0542
  762MOL0     C 2761   5.318   3.617   9.817  0.4893 -0.2629  0.3932
  762MOL0     C 2762   5.231   3.513   9.794  1.2636  0.1327  0.6443
  762MOL0     C 2763   5.204   3.478   9.647  0.1461  0.3177 -0.6046
  762MOL0     C 2764   5.167   3.450   9.899  0.7422  0.2207  0.1145
  762MOL0     C 2765   5.071   3.329   9.881  0.4718  0.8334 -0.9610
  762MOL0     O 2766   4.996   3.299   9.989 -0.8728 -0.2624 -0.2630
  762MOL0     C 2767   4.884   3.217   9.996  0.3001 -0.2934  0.6842
  762MOL0     C 2768   4.816   3.185   9.877 -0.8901  1.1336 -0.1296
  762MOL0     C 2769   4.706   3.097   9.876 -0.0265  0.6284  0.6864
  762MOL0     C 2770   4.652   3.052   9.996 -0.4234 -0.0943 -0.1133
  762MOL0     O 2771   4.541   2.975  10.000 -0.1672 -0.4290 -0.2386
  762MOL0     C 2772   4.539   2.840  10.061 -0.1513  0.5118  0.4561
  762MOL0     C 2773   4.433   2.834  10.173  0.4065 -0.5804  0.2049
  762MOL0     C 2774   4.294   2.888  10.128 -0.8483 -0.8095 -0.6870
  762MOL0     C 2775   4.174   2.801  10.175  0.5383  0.6658  0.6165
  762MOL0     C 2776   4.045   2.862  10.120  1.1640 -0.3592  0.0905
  762MOL0     C 2777   3.925   2.769  10.134 -1.2205  0.0280 -0.4838
  762MOL0     C 2778   3.917   2.642  10.041 -1.2793  0.3320 -0.3517
  762MOL0     C 2779   3.786   2.569  10.071  0.3785 -0.1140 -0.2694
  762MOL0    Cl 2780   3.808   2.417  10.000 -0.2162  0.2033  0.2943
  762MOL0     C 2781   4.712   3.076  10.116 -0.5584 -0.1236  0.3364
  762MOL0     C 2782   4.834   3.161  10.114  1.1687  0.3070 -0.7385
  762MOL0     O 2783   5.092   3.252   9.784  0.7147  0.1438 -1.2330
  762MOL0     C 2784   5.201   3.490  10.031  0.2521 -0.3427  1.3124
  762MOL0     C 2785   5.294   3.594  10.047 -0.3110 -0.4960 -0.0253
  762MOL0     N 2786   6.057   3.617   9.954 -0.5744 -0.7110  0.5808
  762MOL0     N 2787   6.078   3.493   9.923  0.1619  0.7922  0.2995
  762MOL0     C 2788   6.893   3.094   9.761  0.0439 -0.0550  0.0971
  762MOL0     C 2789   7.019   3.085   9.814 -0.5141 -0.6262  0.8535
  762MOL0     C 2790   7.416   2.879   9.922 -0.1914  0.6621  1.3058
  762MOL0     C 2791   7.533   2.911   9.846  0.5252 -0.9088 -0.6802
  762MOL0     C 2792   7.656   2.864   9.878  0.4380  1.1470  0.3174
  762MOL0     C 2793   7.669   2.766   9.981  0.1086 -0.1464 -0.0715
  762MOL0     O 2794   7.784   2.713  10.018  0.1706  0.5218 -0.9528
  762MOL0     C 2795   7.792   2.657  10.149 -0.4259  0.8736  0.4810
  762MOL0     C 2796   7.949   2.644  10.191  0.6606 -0.3641 -0.2388
  762MOL0     C 2797   8.048   2.632  10.075 -1.0038 -0.1145 -0.6929
  762MOL0     C 2798   8.184   2.582  10.114 -0.2903 -0.2128  0.2688
  762MOL0     C 2799   8.192   2.440  10.144 -0.0315  0.1667 -0.2485
  762MOL0     C 2800   8.200   2.319  10.161  0.0497 -0.0814  0.0660
  762MOL0     C 2801   7.556   2.723  10.052 -1.0913  0.0417  0.0447
  762MOL0     C 2802   7.431   2.777  10.020 -0.0249  0.3839 -0.6311
  762MOL0     H 2803   7.171   2.881   9.586 -0.5299 -0.3439 -1.0115
  762MOL0     H 2804   6.962   2.905   9.478  1.0519  1.4544 -2.1820
  762MOL0     H 2805   6.601   2.973   9.537  0.3906 -1.3976  1.5195
  762MOL0     H 2806   6.640   3.021   9.704 -0.2283  0.9011  0.3957
  762MOL0     H 2807   6.529   3.234   9.684 -1.0414 -0.3607 -0.0030
  762MOL0     H 2808   6.566   3.248   9.515  1.2406  1.0272 -0.0615
  762MOL0     H 2809   6.350   3.202   9.487 -0.4436 -2.8986 -2.2536
  762MOL0     H 2810   6.411   3.033   9.483 -1.3179  0.4480 -1.3781
  762MOL0     H 2811   6.341   2.999   9.722  0.1900 -1.2389 -1.5448
  762MOL0     H 2812   6.318   3.162   9.755 -2.7898 -1.0455  1.0663
  762MOL0     H 2813   6.169   2.992   9.545  0.9921  1.2029 -0.7581
  762MOL0     H 2814   6.104   3.020   9.703  2.5359 -1.5244  0.2964
  762MOL0     H 2815   6.147   3.215   9.472 -1.0717 -3.1877 -0.0286
  762MOL0     H 2816   5.996   3.173   9.530 -1.9097  4.5579 -0.7978
  762MOL0     H 2817   6.205   3.349   9.668  1.1139 -1.9638 -0.2130
  762MOL0     H 2818   6.054   3.405   9.589 -0.8543  0.0793  0.7767
  762MOL0     H 2819   6.073   3.240   9.845 -0.8168 -1.6282 -0.2248
  762MOL0     H 2820   5.919   3.281   9.760 -0.2543 -1.4972  3.1024
  762MOL0     H 2821   5.882   3.558   9.676 -1.2212 -2.1415  0.7509
  762MOL0     H 2822   5.958   3.834   9.914  3.1670 -1.0820 -0.0269
  762MOL0     H 2823   5.993   3.858   9.742 -1.9841  1.7542 -1.7279
  762MOL0     H 2824   5.753   3.714   9.715 -1.4021 -1.2462  3.2383
  762MOL0     H 2825   5.768   3.887   9.718 -2.9130 -0.6622  0.9166
  762MOL0     H 2826   5.684   3.909   9.931  0.2492 -0.3567 -0.3562
  762MOL0     H 2827   5.736   3.743   9.974 -2.2655 -1.5480  0.0248
  762MOL0     H 2828   5.573   3.662   9.815 -1.1634 -0.5889 -0.7354
  762MOL0     H 2829   5.502   3.830   9.794 -0.7739 -0.4280  0.6092
  762MOL0     H 2830   5.377   3.668   9.741 -0.2737  0.5182  0.3074
  762MOL0     H 2831   5.104   3.437   9.628  1.1301 -1.8725 -1.3911
  762MOL0     H 2832   5.207   3.567   9.584 -3.7409  1.4364  0.5041
  762MOL0     H 2833   5.265   3.398   9.603  0.2430  1.4534 -2.6921
  762MOL0     H 2834   4.848   3.224   9.780  3.2137 -1.1270  0.0594
  762MOL0     H 2835   4.657   3.062   9.786  0.2628  2.5423 -0.2598
  762MOL0     H 2836   4.524   2.752   9.998  5.4038 -2.6755  2.8101
  762MOL0     H 2837   4.641   2.812  10.091  1.3563 -1.2268 -5.0623
  762MOL0     H 2838   4.415   2.728  10.197 -0.6845  0.1960  3.3461
  762MOL0     H 2839   4.458   2.879  10.269 -3.4514 -3.6806  3.0004
  762MOL0     H 2840   4.286   2.903  10.020 -1.6185 -0.0303 -0.5320
  762MOL0     H 2841   4.285   2.990  10.164  1.9813 -0.9045  0.5979
  762MOL0     H 2842   4.175   2.699  10.136 -1.8442  0.7843  0.0719
  762MOL0     H 2843   4.161   2.797  10.283  1.1943 -1.9143  0.6511
  762MOL0     H 2844   4.052   2.884  10.013  1.1374 -2.0100 -0.2896
  762MOL0     H 2845   4.026   2.959  10.166 -2.7203 -0.4707 -0.9482
  762MOL0     H 2846   3.917   2.734  10.238 -1.6188 -0.1038 -0.5567
  762MOL0     H 2847   3.831   2.821  10.115 -0.1807  2.9720  1.6784
  762MOL0     H 2848   4.010   2.589  10.065 -0.0932  3.5426  3.0816
  762MOL0     H 2849   3.916   2.663   9.934  1.1177 -0.0310 -0.4948
  762MOL0     H 2850   3.698   2.621  10.033 -1.1717 -0.9672  2.0068
  762MOL0     H 2851   3.787   2.560  10.180  0.0817 -3.6877 -0.4717
  762MOL0     H 2852   4.672   3.042  10.211 -0.3008 -0.3840  0.3524
  762MOL0     H 2853   4.865   3.199  10.210 -4.2534  3.6956  0.0698
  762MOL0     H 2854   5.158   3.441  10.118 -2.3680  0.7723  0.7484
  762MOL0     H 2855   5.323   3.601  10.151 -0.3055 -2.7000  0.1757
  762MOL0     H 2856   6.811   3.150   9.806 -1.4723 -0.2021 -2.2849
  762MOL0     H 2857   7.045   3.136   9.906  4.5441 -0.3463 -0.4127
  762MOL0     H 2858   7.534   2.971   9.755 -1.1449  0.7972  0.3521
  762MOL0     H 2859   7.754   2.885   9.836  0.9810 -0.2144  0.8464
  762MOL0     H 2860   7.750   2.722  10.226 -0.4054 -2.3090  3.4259
  762MOL0     H 2861   7.747   2.557  10.145 -1.0360  0.9444  3.4237
  762MOL0     H 2862   7.955   2.549  10.246 -3.2322  0.9722  2.9713
  762MOL0     H 2863   7.980   2.723  10.260 -0.2788  0.8832 -1.2026
  762MOL0     H 2864   8.071   2.732  10.037 -0.2829  0.7137  1.7085
  762MOL0     H 2865   8.008   2.587   9.984  0.5538 -1.2170 -0.8719
  762MOL0     H 2866   8.219   2.638  10.201  1.6653 -0.0410 -0.5582
  762MOL0     H 2867   8.253   2.608  10.033 -1.8719  0.5167 -0.9042
  762MOL0     H 2868   8.188   2.216  10.189 -0.4142 -0.9852 -3.0571
  762MOL0     H 2869   7.558   2.654  10.136 -2.5115 -0.0062  0.0667
  762MOL0     H 2870   7.350   2.752  10.088  0.0173  4.1886  1.0702
  763MOL0     O 2871   5.628   3.483   9.636 -0.1347 -0.2960  0.2831
  763MOL0     C 2872   5.549   3.389   9.617 -0.3371  0.8664 -0.0333
  763MOL0     O 2873   5.501   3.344   9.499  0.5659  0.5450  0.4324
  763MOL0     C 2874   5.510   3.435   9.392  0.2340  0.3875  0.4070
  763MOL0     C 2875   5.624   3.463   9.321 -1.3396  0.0769  0.0039
  763MOL0     C 2876   5.615   3.552   9.221  0.2882  0.3572 -0.7124
  763MOL0     C 2877   5.499   3.607   9.166  0.0307 -0.2731 -0.2543
  763MOL0     O 2878   5.507   3.682   9.050  0.2344  0.1203  0.5843
  763MOL0     C 2879   5.426   3.639   8.939  0.1019 -0.5138 -0.3285
  763MOL0     C 2880   5.459   3.721   8.820  0.2829 -0.1697 -0.0405
  763MOL0     C 2881   5.498   3.871   8.841  0.3536  0.4300 -0.5361
  763MOL0     C 2882   5.646   3.890   8.877  0.3467 -0.1966  0.4670
  763MOL0     C 2883   5.742   3.860   8.766  0.1809  0.0823 -0.0930
  763MOL0     C 2884   5.889   3.883   8.780 -0.0283  0.6850  0.9324
  763MOL0     C 2885   5.919   4.023   8.837 -1.4453 -0.5425 -0.7158
  763MOL0     C 2886   6.079   4.047   8.836  0.7245  0.1475 -0.6581
  763MOL0     N 2887   6.112   4.180   8.864  0.4824  0.0783 -0.3552
  763MOL0     C 2888   6.058   4.297   8.809 -0.3356 -0.6787  0.6020
  763MOL0     C 2889   6.106   4.400   8.891 -0.2009 -0.0259 -0.2387
  763MOL0     C 2890   6.086   4.551   8.878 -0.1022  0.4122  0.6132
  763MOL0     C 2891   5.933   4.584   8.902  0.3099  0.2361 -0.2664
  763MOL0     C 2892   5.928   4.684   9.018 -0.5610  0.3275 -0.2820
  763MOL0     C 2893   5.797   4.763   9.035 -0.0248  0.0967  0.6230
  763MOL0     O 2894   5.719   4.792   8.914 -0.4761  0.5720 -0.1048
  763MOL0     C 2895   5.748   4.887   8.822 -0.6929 -0.5512  0.1533
  763MOL0     C 2896   5.665   4.888   8.704 -0.6942 -0.2951 -0.2254
  763MOL0     C 2897   5.710   4.975   8.592 -0.1424  0.5875 -0.4324
  763MOL0     C 2898   5.614   4.969   8.465  0.4789 -0.1024 -1.0552
  763MOL0     C 2899   5.819   5.069   8.620  0.5005 -0.5617 -0.7068
  763MOL0     C 2900   5.861   5.170   8.526  0.3998 -0.7135  0.9576
  763MOL0     O 2901   5.933   5.278   8.563  0.0460 -0.4602 -1.0294
  763MOL0     C 2902   6.006   5.339   8.466 -0.1583  0.0932  0.5406
  763MOL0     C 2903   6.072   5.467   8.500  1.0943  0.3662 -0.2015
  763MOL0     C 2904   6.161   5.530   8.422 -0.7669  0.7005 -0.4470
  763MOL0     C 2905   6.186   5.482   8.292  0.6573 -0.6181 -0.4193
  763MOL0     O 2906   6.270   5.557   8.223  0.1585 -0.9881  0.0398
  763MOL0     C 2907   6.329   5.499   8.098  1.0631 -1.2416 -0.8262
  763MOL0     C 2908   6.412   5.598   8.027 -0.3620  0.1238  0.2989
  763MOL0     C 2909   6.533   5.619   8.117  0.9699  0.0735  0.0603
  763MOL0     C 2910   6.618   5.745   8.091  0.8413 -0.4767  0.8766
  763MOL0     C 2911   6.702   5.793   8.205  0.9051 -0.0775 -0.9158
  763MOL0     C 2912   6.843   5.738   8.186 -0.3517 -0.3671 -0.9250
  763MOL0     C 2913   6.935   5.776   8.298  0.6491 -0.4900  0.5482
  763MOL0     C 2914   7.090   5.781   8.262  0.6708  0.5605  1.0818
  763MOL0    Cl 2915   7.181   5.827   8.401 -0.4371 -0.1152 -0.2317
  763MOL0     C 2916   6.140   5.359   8.263  0.2206 -0.1912  1.1071
  763MOL0     C 2917   6.060   5.289   8.349  0.7731  0.2227 -0.1538
  763MOL0     O 2918   5.818   5.154   8.411 -0.5693 -0.1306 -0.6177
  763MOL0     C 2919   5.879   5.065   8.747 -0.7643 -0.0553  0.0299
  763MOL0     C 2920   5.862   4.962   8.830  0.0561  0.7370  1.0880
  763MOL0     N 2921   6.206   4.344   8.974 -0.4293  1.0725  0.0648
  763MOL0     N 2922   6.204   4.217   8.958 -0.1508 -0.1575 -0.3300
  763MOL0     C 2923   5.383   3.567   9.237 -0.0914  0.4937 -0.8322
  763MOL0     C 2924   5.388   3.483   9.344  0.7599 -0.1057 -0.2721
  763MOL0     C 2925   5.515   3.321   9.744  1.2862 -0.2020  0.3941
  763MOL0     C 2926   5.551   3.362   9.871 -0.1812  0.9809 -0.8399
  763MOL0     C 2927   5.497   3.300   9.984 -0.3579 -0.1490 -0.3478
  763MOL0     C 2928   5.426   3.187   9.983  0.1682 -0.4305  0.2143
  763MOL0     O 2929   5.381   3.139  10.100  0.5177  1.4536  0.4486
  763MOL0     C 2930   5.257   3.077  10.095  0.0035  0.9624  0.3310
  763MOL0     C 2931   5.178   3.069  10.228 -0.2362 -0.4632 -0.8108
  763MOL0     C 2932   5.246   2.993  10.351  0.4910  0.8268  0.6379
  763MOL0     C 2933   5.352   3.071  10.414 -0.2398  0.6024 -1.1921
  763MOL0     C 2934   5.423   2.981  10.514  0.2913  0.2822  0.2421
  763MOL0     C 2935   5.493   2.908  10.588  0.1109  0.5549  0.5252
  763MOL0     C 2936   5.396   3.137   9.856  0.0008  1.2721  0.6912
  763MOL0     C 2937   5.435   3.207   9.741  0.5398  0.7175 -0.2045
  763MOL0     H 2938   5.716   3.422   9.360  0.4361  1.9139 -2.0289
  763MOL0     H 2939   5.708   3.581   9.173  0.5859 -2.2851 -1.9546
  763MOL0     H 2940   5.434   3.534   8.909  1.7867 -0.0672 -1.6499
  763MOL0     H 2941   5.322   3.658   8.967  0.3160 -2.5003  2.1074
  763MOL0     H 2942   5.545   3.661   8.787  1.8854 -0.9861  4.7950
  763MOL0     H 2943   5.378   3.709   8.747  2.3806 -0.6066 -2.4669
  763MOL0     H 2944   5.484   3.934   8.753  1.9393  1.0765 -0.3613
  763MOL0     H 2945   5.431   3.902   8.921  1.5657 -0.9374  1.0982
  763MOL0     H 2946   5.660   3.992   8.916  0.5384 -0.3122  0.7016
  763MOL0     H 2947   5.670   3.828   8.963 -2.8070 -1.8916  0.2818
  763MOL0     H 2948   5.731   3.754   8.740  2.2740  0.2339 -1.9139
  763MOL0     H 2949   5.709   3.919   8.680  0.0519  1.7372  1.0469
  763MOL0     H 2950   5.913   3.805   8.854 -3.6394 -0.5976  0.9646
  763MOL0     H 2951   5.939   3.875   8.683 -0.6976  2.6852  0.3766
  763MOL0     H 2952   5.860   4.103   8.792  2.2211  2.7996 -0.1529
  763MOL0     H 2953   5.895   4.022   8.943 -1.9851  1.6743 -0.7846
  763MOL0     H 2954   6.121   4.034   8.736  0.3418 -0.6096 -0.7303
  763MOL0     H 2955   6.134   3.979   8.901  1.2845  2.5379  1.5294
  763MOL0     H 2956   5.996   4.307   8.721  2.7879 -1.4368 -1.8942
  763MOL0     H 2957   6.158   4.607   8.938 -0.3642  2.9851 -1.3403
  763MOL0     H 2958   6.113   4.583   8.777 -2.5230  1.6256  0.2827
  763MOL0     H 2959   5.867   4.503   8.934 -2.7590  1.7932 -2.2279
  763MOL0     H 2960   5.905   4.625   8.805  0.8349  1.3984  0.0516
  763MOL0     H 2961   6.002   4.763   9.007  0.5537 -0.7961 -1.0637
  763MOL0     H 2962   5.952   4.631   9.110  0.3166 -0.2259 -0.8196
  763MOL0     H 2963   5.817   4.856   9.091  4.1203 -1.8495  2.8786
  763MOL0     H 2964   5.732   4.701   9.097  0.1117  1.1048  1.8397
  763MOL0     H 2965   5.584   4.817   8.696 -0.3711 -0.7740  0.6638
  763MOL0     H 2966   5.551   5.058   8.466  2.4361  1.4003  0.7654
  763MOL0     H 2967   5.675   4.969   8.374 -0.2587 -0.3313 -1.5559
  763MOL0     H 2968   5.564   4.872   8.455  0.3629  0.1063 -2.7231
  763MOL0     H 2969   6.044   5.510   8.596  1.7856 -1.6738  0.9665
  763MOL0     H 2970   6.214   5.619   8.454 -0.9383  0.4726  0.4941
  763MOL0     H 2971   6.386   5.410   8.127 -1.8386 -3.3810 -1.2668
  763MOL0     H 2972   6.243   5.471   8.036  0.5167 -0.9425 -0.2181
  763MOL0     H 2973   6.447   5.558   7.931 -2.2851 -1.4160  0.1898
  763MOL0     H 2974   6.357   5.692   8.014  0.7738  0.5998 -1.4908
  763MOL0     H 2975   6.601   5.534   8.104 -1.6536 -2.0344 -0.6721
  763MOL0     H 2976   6.514   5.634   8.224  3.3868  3.7420  0.1709
  763MOL0     H 2977   6.679   5.733   8.002 -0.0137  0.1435  0.1854
  763MOL0     H 2978   6.550   5.826   8.064  2.8640  1.1592  0.4756
  763MOL0     H 2979   6.664   5.757   8.301  1.2331 -0.5521 -0.9594
  763MOL0     H 2980   6.699   5.903   8.203  2.9118 -0.0026 -1.6932
  763MOL0     H 2981   6.847   5.630   8.167 -1.7278 -0.6662  0.2799
  763MOL0     H 2982   6.869   5.785   8.091 -1.0224 -0.6212 -1.2406
  763MOL0     H 2983   6.922   5.715   8.388  0.6080 -0.4837  0.5456
  763MOL0     H 2984   6.895   5.874   8.325  0.4320 -0.8048  1.4119
  763MOL0     H 2985   7.116   5.834   8.170  3.5461 -0.1434  1.3869
  763MOL0     H 2986   7.113   5.678   8.233 -0.4295 -0.1558  2.6182
  763MOL0     H 2987   6.174   5.333   8.163 -0.7317  1.9035  0.1630
  763MOL0     H 2988   6.044   5.186   8.318 -2.7467  1.2068 -2.2786
  763MOL0     H 2989   5.953   5.142   8.767  1.2525 -2.4807  2.8618
  763MOL0     H 2990   5.925   4.963   8.919 -0.2756  2.0789  1.3404
  763MOL0     H 2991   5.283   3.577   9.197 -0.4769  3.0671  0.5656
  763MOL0     H 2992   5.291   3.451   9.378 -0.4105  4.3646  1.2955
  763MOL0     H 2993   5.608   3.454   9.880  2.8071 -0.6703 -1.7396
  763MOL0     H 2994   5.532   3.344  10.077  1.9822 -0.7415 -0.8821
  763MOL0     H 2995   5.191   3.119  10.019 -1.8546 -0.7689  0.8747
  763MOL0     H 2996   5.277   2.972  10.072  0.4581  1.0533  0.3104
  763MOL0     H 2997   5.087   3.012  10.207 -0.6779 -0.8616  1.8451
  763MOL0     H 2998   5.152   3.171  10.256 -0.5867 -0.6886 -0.2912
  763MOL0     H 2999   5.295   2.906  10.308  1.7783  1.6335  0.4443
  763MOL0     H 3000   5.173   2.958  10.425 -1.1340  0.4021 -1.0704
  763MOL0     H 3001   5.308   3.149  10.477  0.1593 -2.5652  3.4505
  763MOL0     H 3002   5.429   3.119  10.353  3.3672  0.1324  2.5398
  763MOL0     H 3003   5.560   2.842  10.640  0.1009  0.8452  0.9067
  763MOL0     H 3004   5.341   3.045   9.842 -0.3372  1.9076 -2.9115
  763MOL0     H 3005   5.404   3.163   9.647 -2.6939 -2.1243  1.9542
  764MOL0     O 3006   9.610   3.894   8.810 -0.4206 -0.1081  0.2608
  764MOL0     C 3007   9.728   3.930   8.792  0.5250 -0.1932 -0.3403
  764MOL0     O 3008   9.832   3.848   8.793 -0.5966  0.6030  0.2660
  764MOL0     C 3009   9.820   3.717   8.813 -0.2553 -1.1137  0.4063
  764MOL0     C 3010   9.808   3.665   8.942  0.4646  0.4672  0.5889
  764MOL0     C 3011   9.802   3.518   8.955 -0.3185 -0.5762 -0.2974
  764MOL0     C 3012   9.803   3.434   8.841 -0.3205  0.2516 -1.2673
  764MOL0     O 3013   9.838   3.303   8.863  0.0426 -0.8419  1.1884
  764MOL0     C 3014   9.968   3.268   8.810 -0.6769 -0.9090  0.1521
  764MOL0     C 3015  10.028   3.147   8.881 -1.0034 -0.8366 -0.0123
  764MOL0     C 3016  10.052   3.174   9.035  0.0118  0.2329 -0.1578
  764MOL0     C 3017  10.068   3.047   9.124 -0.3686  0.0267  0.7692
  764MOL0     C 3018  10.148   3.084   9.251 -0.7382 -0.3667  0.6487
  764MOL0     C 3019  10.174   2.960   9.340 -1.1075 -0.3442 -0.3782
  764MOL0     C 3020  10.275   3.013   9.458 -1.3270  0.8294  0.2511
  764MOL0     C 3021  10.420   3.035   9.405  0.4611 -0.4062 -0.3749
  764MOL0     N 3022  10.524   3.055   9.513  0.2559  0.0651 -0.2304
  764MOL0     C 3023  10.639   2.988   9.515 -0.2968  0.2628 -0.4559
  764MOL0     C 3024  10.711   3.026   9.630 -0.4040 -0.1149 -0.0575
  764MOL0     C 3025  10.842   2.959   9.671  0.6438  0.3181  0.4547
  764MOL0     C 3026  10.847   2.803   9.715  1.0536  0.4710 -0.8086
  764MOL0     C 3027  10.993   2.763   9.709  0.3878 -1.0108 -0.0576
  764MOL0     C 3028  11.021   2.618   9.762 -0.0504 -0.5903 -0.0570
  764MOL0     O 3029  11.024   2.618   9.911 -0.1100 -0.0891 -0.0616
  764MOL0     C 3030  11.137   2.647   9.987  0.6639  0.2700 -0.0428
  764MOL0     C 3031  11.268   2.649   9.932 -0.2450  0.1581 -0.7776
  764MOL0     C 3032  11.380   2.685  10.004 -1.0445 -0.7413  0.3500
  764MOL0     C 3033  11.515   2.689   9.927 -0.3323 -0.4063  0.8370
  764MOL0     C 3034  11.363   2.706  10.143 -0.5519 -0.2266 -0.3004
  764MOL0     C 3035  11.470   2.739  10.238 -0.1398  0.2081  0.1766
  764MOL0     O 3036  11.443   2.756  10.373  0.6913  0.3347  0.2679
  764MOL0     C 3037  11.551   2.763  10.458  0.7765  0.1134 -0.6541
  764MOL0     C 3038  11.540   2.872  10.549 -0.1256  1.0974 -0.7871
  764MOL0     C 3039  11.646   2.889  10.649 -0.0565 -0.1184  0.5666
  764MOL0     C 3040  11.745   2.792  10.666 -0.3553 -0.7272 -0.3295
  764MOL0     O 3041  11.842   2.779  10.756  0.3199  0.0531  0.1383
  764MOL0     C 3042  11.803   2.832  10.884  1.2602  0.5055  0.3754
  764MOL0     C 3043  11.892   2.794  10.998  0.1544  0.6599  0.2493
  764MOL0     C 3044  11.838   2.840  11.133  0.7891 -0.9538 -0.5162
  764MOL0     C 3045  11.887   2.979  11.175  0.5244  0.9705  0.6825
  764MOL0     C 3046  11.861   2.988  11.331 -0.2084  0.3035 -0.0157
  764MOL0     C 3047  11.886   3.121  11.398 -0.8558 -0.0240 -1.2713
  764MOL0     C 3048  12.028   3.157  11.392 -1.1928 -0.1740 -0.7077
  764MOL0     C 3049  12.073   3.287  11.468 -0.9081 -0.9468 -0.5714
  764MOL0    Cl 3050  12.061   3.257  11.650  0.4585  0.5868 -0.1567
  764MOL0     C 3051  11.759   2.693  10.562  0.1641 -0.8727  0.2546
  764MOL0     C 3052  11.662   2.681  10.460  0.3353  0.0116  0.2931
  764MOL0     O 3053  11.583   2.759  10.185  0.7873 -0.4846 -0.6013
  764MOL0     C 3054  11.234   2.694  10.199 -0.0085  0.2739  0.6208
  764MOL0     C 3055  11.119   2.673  10.127  0.4031  0.3749  0.4545
  764MOL0     N 3056  10.634   3.128   9.685 -0.2416 -0.2047  0.1356
  764MOL0     N 3057  10.519   3.132   9.623  0.2657 -0.1537  0.1757
  764MOL0     C 3058   9.802   3.488   8.719 -0.8004  0.0949 -0.8632
  764MOL0     C 3059   9.813   3.633   8.700  0.0324 -0.4140  0.0268
  764MOL0     C 3060   9.758   4.075   8.765  0.6199  1.1684 -0.0056
  764MOL0     C 3061   9.885   4.122   8.793  0.1000  0.1197 -0.4064
  764MOL0     C 3062   9.915   4.249   8.783 -0.0920 -0.8495  0.1416
  764MOL0     C 3063   9.811   4.349   8.760 -0.2339  0.1029  0.2249
  764MOL0     O 3064   9.831   4.480   8.753 -0.3382 -0.1505 -0.8809
  764MOL0     C 3065   9.772   4.557   8.860  0.2811  0.0490 -0.9063
  764MOL0     C 3066   9.864   4.666   8.899  0.6489  0.1129  1.1236
  764MOL0     C 3067   9.994   4.597   8.956  0.4273  0.3811  0.0367
  764MOL0     C 3068  10.117   4.699   9.005  0.4378  1.0824 -0.3550
  764MOL0     C 3069  10.137   4.811   8.915  0.7300 -0.9183 -0.0812
  764MOL0     C 3070  10.127   4.899   8.829  1.1623  0.3576 -0.2599
  764MOL0     C 3071   9.679   4.310   8.735 -0.0424  0.0876  0.3048
  764MOL0     C 3072   9.650   4.169   8.735  0.0780 -0.5485 -0.0293
  764MOL0     H 3073   9.822   3.732   9.026 -0.3103  0.1995  0.9411
  764MOL0     H 3074   9.817   3.466   9.048 -3.9769 -2.1698 -0.4396
  764MOL0     H 3075   9.963   3.248   8.703  2.1551 -3.3356  0.3450
  764MOL0     H 3076  10.039   3.349   8.831  0.3177 -1.5021 -0.7923
  764MOL0     H 3077   9.951   3.070   8.869 -0.9330 -1.1154  1.2087
  764MOL0     H 3078  10.123   3.126   8.833  0.7338 -0.0881  2.8746
  764MOL0     H 3079  10.145   3.231   9.037  1.4972 -2.0591  1.3979
  764MOL0     H 3080   9.973   3.237   9.076 -1.9747 -1.8016 -0.6645
  764MOL0     H 3081   9.967   3.012   9.148 -1.0755  1.0152 -0.6129
  764MOL0     H 3082  10.126   2.975   9.067 -0.2041  1.2947 -0.7258
  764MOL0     H 3083  10.244   3.129   9.222 -2.2012  0.0961 -4.6693
  764MOL0     H 3084  10.088   3.155   9.308  0.4312 -0.8354  2.5311
  764MOL0     H 3085  10.076   2.927   9.377 -2.2528  2.7607 -0.3322
  764MOL0     H 3086  10.219   2.884   9.275  1.2097 -0.7207  1.5317
  764MOL0     H 3087  10.248   3.110   9.501 -0.6212  1.2755 -0.2853
  764MOL0     H 3088  10.277   2.943   9.542 -1.6079  2.5090  1.7378
  764MOL0     H 3089  10.436   3.122   9.340  2.0363  0.6794  1.3808
  764MOL0     H 3090  10.452   2.955   9.338  1.3149 -0.0844 -0.3654
  764MOL0     H 3091  10.673   2.909   9.449 -1.1507 -1.4687  1.0832
  764MOL0     H 3092  10.899   2.991   9.583  0.6890  3.9774  1.6228
  764MOL0     H 3093  10.873   3.015   9.760  1.8030  3.0320 -1.5175
  764MOL0     H 3094  10.787   2.745   9.643  0.4128 -1.5059  1.1988
  764MOL0     H 3095  10.808   2.789   9.816  2.8427 -4.6710 -0.4965
  764MOL0     H 3096  11.062   2.834   9.754  2.5161 -1.2206 -2.7169
  764MOL0     H 3097  11.044   2.764   9.611 -1.4595 -0.1494 -1.0629
  764MOL0     H 3098  11.120   2.598   9.720  2.0996  5.1858  1.2319
  764MOL0     H 3099  10.946   2.543   9.737  0.0185 -1.5415  2.3366
  764MOL0     H 3100  11.280   2.621   9.827 -1.8133  1.5324 -1.3811
  764MOL0     H 3101  11.585   2.613   9.963  0.8967 -0.9013 -2.3093
  764MOL0     H 3102  11.494   2.660   9.824 -0.8517  1.3645  0.4032
  764MOL0     H 3103  11.567   2.785   9.933  1.8937 -1.5442  0.7857
  764MOL0     H 3104  11.469   2.953  10.536 -1.7661 -0.1447  0.0410
  764MOL0     H 3105  11.632   2.974  10.715 -0.8975 -0.2291  0.5419
  764MOL0     H 3106  11.803   2.941  10.878  0.9703  0.5173  0.5442
  764MOL0     H 3107  11.703   2.797  10.914  1.6969 -0.7545  0.4050
  764MOL0     H 3108  11.884   2.685  10.995 -0.0962  0.6825 -3.3945
  764MOL0     H 3109  11.994   2.823  10.974 -0.0667 -0.2977 -2.0831
  764MOL0     H 3110  11.877   2.766  11.204 -1.9154 -0.4851  1.5933
  764MOL0     H 3111  11.730   2.854  11.137  0.9590  2.1992 -3.1996
  764MOL0     H 3112  11.992   2.994  11.148 -0.1605  1.2303 -2.1582
  764MOL0     H 3113  11.829   3.051  11.116 -1.5652 -2.4323 -1.8072
  764MOL0     H 3114  11.906   2.906  11.387  1.0675  1.7790  1.2054
  764MOL0     H 3115  11.753   2.970  11.338 -0.5927  1.5504 -1.7376
  764MOL0     H 3116  11.825   3.209  11.371  0.1888  1.4186  0.7838
  764MOL0     H 3117  11.861   3.101  11.502  1.5533  0.3427 -0.5656
  764MOL0     H 3118  12.051   3.167  11.285  1.1006 -0.4613 -0.2938
  764MOL0     H 3119  12.084   3.069  11.427 -1.4406  0.4802  1.4616
  764MOL0     H 3120  12.015   3.370  11.426 -0.7265 -1.3677 -1.6978
  764MOL0     H 3121  12.178   3.316  11.456 -0.2677 -3.8946 -3.3661
  764MOL0     H 3122  11.832   2.614  10.572 -0.0215 -1.1199 -0.3249
  764MOL0     H 3123  11.671   2.587  10.405  3.0307  0.5271 -0.2688
  764MOL0     H 3124  11.215   2.709  10.304 -0.2839 -0.0413  0.6148
  764MOL0     H 3125  11.019   2.678  10.169  0.2447  1.1788 -0.0051
  764MOL0     H 3126   9.789   3.414   8.641 -2.0626 -2.6667  1.7255
  764MOL0     H 3127   9.817   3.660   8.595 -1.4547 -1.3917 -0.3085
  764MOL0     H 3128   9.967   4.052   8.807  2.0680  1.8112 -2.5969
  764MOL0     H 3129  10.018   4.274   8.807 -0.0222 -0.9657 -0.0299
  764MOL0     H 3130   9.675   4.593   8.827 -1.0632 -2.4532 -0.0289
  764MOL0     H 3131   9.738   4.504   8.950  1.8804  0.4772 -0.0050
  764MOL0     H 3132   9.819   4.728   8.977 -2.4407  1.8307 -1.7962
  764MOL0     H 3133   9.882   4.741   8.822 -0.3112 -0.0503  0.7221
  764MOL0     H 3134  10.040   4.538   8.876  1.3056  2.5054 -1.1037
  764MOL0     H 3135   9.954   4.534   9.036 -1.6764 -0.9763 -1.9485
  764MOL0     H 3136  10.205   4.634   9.002 -0.3099 -0.0337  0.7957
  764MOL0     H 3137  10.107   4.733   9.108  3.5340  0.2395  0.3214
  764MOL0     H 3138  10.139   4.975   8.755 -0.2992  0.6934 -0.1725
  764MOL0     H 3139   9.591   4.368   8.707  0.7737  1.1416 -0.1196
  764MOL0     H 3140   9.556   4.116   8.722 -1.6871  2.3126  0.2115
  765MOL0     O 3141   2.328   8.700   0.254  1.0909 -0.1455 -0.6707
  765MOL0     C 3142   2.396   8.731   0.155 -0.1987 -0.8415 -1.9401
  765MOL0     O 3143   2.491   8.830   0.153 -0.3649 -1.1108  0.0516
  765MOL0     C 3144   2.490   8.922   0.258  0.6719  0.2445 -0.6525
  765MOL0     C 3145   2.577   8.872   0.358 -0.0585  0.3895 -0.0071
  765MOL0     C 3146   2.610   8.966   0.458 -0.1901  0.1374 -0.1752
  765MOL0     C 3147   2.560   9.105   0.461  0.4750  0.0665  0.0054
  765MOL0     O 3148   2.582   9.193   0.567  0.1109 -0.1328  0.3192
  765MOL0     C 3149   2.697   9.263   0.546  0.0632  0.1706  0.4640
  765MOL0     C 3150   2.819   9.200   0.629  0.1223 -0.3220  0.5298
  765MOL0     C 3151   2.949   9.287   0.611  0.5804  0.3941  0.3167
  765MOL0     C 3152   2.939   9.443   0.625 -0.8632 -0.7732  0.3332
  765MOL0     C 3153   3.070   9.520   0.586 -0.0089  0.0017  0.5779
  765MOL0     C 3154   3.197   9.436   0.618 -0.7068 -0.5258 -0.2050
  765MOL0     C 3155   3.314   9.524   0.632  0.4583 -0.3486 -0.7420
  765MOL0     C 3156   3.446   9.448   0.603 -0.0669  0.6754  0.5772
  765MOL0     N 3157   3.450   9.325   0.677  0.1514  0.1392 -0.2034
  765MOL0     C 3158   3.435   9.200   0.615 -0.8492 -0.5513  0.2891
  765MOL0     C 3159   3.390   9.116   0.717  0.4618 -0.0091 -0.9396
  765MOL0     C 3160   3.364   8.964   0.705 -0.0440 -0.0227  0.2802
  765MOL0     C 3161   3.506   8.893   0.689 -0.4177  0.6840  0.1866
  765MOL0     C 3162   3.568   8.844   0.824 -0.3501 -0.5520 -0.8089
  765MOL0     C 3163   3.613   8.966   0.910 -0.3649  0.6905 -0.1270
  765MOL0     O 3164   3.714   8.911   1.003 -0.1603 -0.3234  0.4274
  765MOL0     C 3165   3.674   8.885   1.132 -0.4809 -0.2544 -0.8929
  765MOL0     C 3166   3.778   8.861   1.219  0.4627 -0.8079 -0.3476
  765MOL0     C 3167   3.751   8.846   1.356 -0.5386  0.2629 -0.9169
  765MOL0     C 3168   3.873   8.848   1.452 -0.7221  0.4977  0.5178
  765MOL0     C 3169   3.617   8.837   1.396  0.3772  0.1551  0.2499
  765MOL0     C 3170   3.587   8.829   1.533 -0.4344 -0.8109 -0.0104
  765MOL0     O 3171   3.622   8.940   1.617  0.3260 -0.4833  0.0248
  765MOL0     C 3172   3.641   8.915   1.748  0.4325  0.0813 -1.3752
  765MOL0     C 3173   3.565   8.991   1.832  0.3330  0.1562 -1.3262
  765MOL0     C 3174   3.567   8.973   1.974  0.6943 -0.1614  0.2053
  765MOL0     C 3175   3.655   8.880   2.029  0.3882  0.0131  0.6804
  765MOL0     O 3176   3.657   8.846   2.160  0.2051 -0.1939 -0.1652
  765MOL0     C 3177   3.577   8.919   2.260  0.5311  0.9531  0.7483
  765MOL0     C 3178   3.614   8.884   2.406  0.3919 -0.5241 -0.2688
  765MOL0     C 3179   3.497   8.888   2.504 -0.8960 -1.1790  0.2145
  765MOL0     C 3180   3.549   8.839   2.644  0.0172 -0.6065  0.8169
  765MOL0     C 3181   3.434   8.825   2.745 -0.1510  0.2182 -0.4736
  765MOL0     C 3182   3.464   8.837   2.894  0.8528 -0.5676 -0.7510
  765MOL0     C 3183   3.527   8.712   2.952 -0.7482  0.3286  0.3172
  765MOL0     C 3184   3.532   8.698   3.097 -0.2418 -0.1726 -0.8779
  765MOL0    Cl 3185   3.364   8.682   3.179  0.0659  0.3447  0.5099
  765MOL0     C 3186   3.734   8.799   1.939 -0.0318 -0.8129 -0.0309
  765MOL0     C 3187   3.729   8.819   1.800  0.7822  0.1900  0.6161
  765MOL0     O 3188   3.533   8.720   1.572  0.1112 -0.2164 -0.6637
  765MOL0     C 3189   3.508   8.856   1.309  0.2790  0.0140 -0.4897
  765MOL0     C 3190   3.540   8.880   1.177 -0.5998  0.3230  0.9516
  765MOL0     N 3191   3.400   9.186   0.841 -0.2063  0.0916  0.1631
  765MOL0     N 3192   3.420   9.311   0.811  0.4988 -0.5214 -0.1076
  765MOL0     C 3193   2.465   9.139   0.362 -0.0391 -0.1385 -0.6492
  765MOL0     C 3194   2.433   9.052   0.254 -0.2525 -0.8645 -0.4674
  765MOL0     C 3195   2.397   8.631   0.047  1.0386 -0.2859 -0.4676
  765MOL0     C 3196   2.444   8.664  -0.077  0.2483  1.0845  0.2689
  765MOL0     C 3197   2.439   8.570  -0.180  0.0511 -0.5659  0.2772
  765MOL0     C 3198   2.391   8.443  -0.159  0.0121  1.0053  0.4822
  765MOL0     O 3199   2.403   8.346  -0.257 -0.2639  0.9073  0.4971
  765MOL0     C 3200   2.276   8.319  -0.328 -1.2071 -0.3754  0.1955
  765MOL0     C 3201   2.229   8.449  -0.407 -0.8763 -0.6354 -0.0268
  765MOL0     C 3202   2.121   8.444  -0.519 -0.2131  0.7289 -0.0869
  765MOL0     C 3203   2.079   8.571  -0.587 -0.6601  0.1052  0.0979
  765MOL0     C 3204   2.000   8.563  -0.715 -0.4013  0.2975  0.3481
  765MOL0     C 3205   1.941   8.567  -0.821  0.3137  0.2414 -0.5628
  765MOL0     C 3206   2.328   8.414  -0.033  0.2801 -0.8490  0.0777
  765MOL0     C 3207   2.335   8.504   0.064  0.3547  0.3627 -0.2843
  765MOL0     H 3208   2.623   8.774   0.357  0.2141  0.3801  3.3134
  765MOL0     H 3209   2.689   8.925   0.521 -0.7328 -1.2832 -0.4007
  765MOL0     H 3210   2.733   9.259   0.443  1.6882  2.9281  0.8125
  765MOL0     H 3211   2.680   9.365   0.581  0.3766  0.3144  0.2048
  765MOL0     H 3212   2.796   9.200   0.736 -0.7841  1.5016  0.3670
  765MOL0     H 3213   2.833   9.094   0.604 -2.2286 -1.3574  3.0351
  765MOL0     H 3214   3.023   9.242   0.679  1.0190  0.0111 -0.4014
  765MOL0     H 3215   2.995   9.267   0.514 -0.6880 -0.1741 -0.1882
  765MOL0     H 3216   2.868   9.494   0.560 -0.7961 -1.6326 -0.4430
  765MOL0     H 3217   2.920   9.467   0.730  2.7509 -1.3979  1.2763
  765MOL0     H 3218   3.080   9.558   0.484 -0.5365  1.5186  1.0522
  765MOL0     H 3219   3.084   9.607   0.651  3.9322  0.7866 -1.0698
  765MOL0     H 3220   3.182   9.378   0.710 -2.2327  0.2544  0.0716
  765MOL0     H 3221   3.201   9.363   0.537  3.2489 -1.0140  0.2280
  765MOL0     H 3222   3.309   9.607   0.561 -0.6287  1.7538  1.6264
  765MOL0     H 3223   3.330   9.571   0.729 -0.9245  1.1021 -1.1677
  765MOL0     H 3224   3.530   9.516   0.620  0.8184  0.1816 -1.4614
  765MOL0     H 3225   3.450   9.418   0.497  0.1614  0.0016  0.7727
  765MOL0     H 3226   3.446   9.172   0.511  0.7768  0.2794  0.2164
  765MOL0     H 3227   3.317   8.926   0.797  1.5490 -1.2945  0.6208
  765MOL0     H 3228   3.289   8.939   0.631 -0.7558  0.5347  0.7988
  765MOL0     H 3229   3.581   8.964   0.652 -1.3836  1.9491  0.5728
  765MOL0     H 3230   3.493   8.808   0.622 -3.9659  1.7254 -0.6662
  765MOL0     H 3231   3.645   8.770   0.799  0.4326  0.2632 -0.8768
  765MOL0     H 3232   3.492   8.791   0.882  1.0951 -3.3934 -1.3273
  765MOL0     H 3233   3.526   9.016   0.954  1.0522  1.6709  1.6854
  765MOL0     H 3234   3.656   9.042   0.844  2.6625 -0.7178  0.0469
  765MOL0     H 3235   3.883   8.868   1.193  1.9186  3.0441  4.8647
  765MOL0     H 3236   3.964   8.833   1.393 -0.6914 -2.1423  1.1147
  765MOL0     H 3237   3.873   8.945   1.501  1.7644  0.3198  0.9780
  765MOL0     H 3238   3.856   8.781   1.536 -1.3112 -0.3524 -0.2530
  765MOL0     H 3239   3.493   9.055   1.781 -2.5085 -2.2138 -0.5970
  765MOL0     H 3240   3.490   9.029   2.026  0.1901 -1.6859  1.1452
  765MOL0     H 3241   3.579   9.028   2.259 -0.2288  1.1089  4.4143
  765MOL0     H 3242   3.473   8.892   2.239 -0.0666  2.2219  1.9177
  765MOL0     H 3243   3.658   8.785   2.417  1.0861 -0.1748  0.2203
  765MOL0     H 3244   3.688   8.952   2.450 -2.4043  1.9637  0.9584
  765MOL0     H 3245   3.410   8.828   2.475  1.1131 -2.7370 -3.2229
  765MOL0     H 3246   3.451   8.986   2.513  0.9758 -0.1228 -1.0538
  765MOL0     H 3247   3.590   8.738   2.644  0.6422 -0.3752  2.4480
  765MOL0     H 3248   3.625   8.909   2.680 -1.4789  0.7048  1.5607
  765MOL0     H 3249   3.383   8.730   2.727  0.5034 -0.1884 -0.2114
  765MOL0     H 3250   3.362   8.905   2.724 -0.2167  0.6381  1.1855
  765MOL0     H 3251   3.526   8.926   2.910 -0.9010  0.8685 -1.6421
  765MOL0     H 3252   3.374   8.862   2.950  0.0569 -1.2727 -1.6899
  765MOL0     H 3253   3.628   8.708   2.909 -0.2465 -0.8365  1.5272
  765MOL0     H 3254   3.480   8.628   2.899 -1.1328  1.2746 -0.8700
  765MOL0     H 3255   3.590   8.781   3.140  0.9659 -1.6494  0.4935
  765MOL0     H 3256   3.585   8.605   3.120  0.0802  0.0031 -0.9080
  765MOL0     H 3257   3.807   8.727   1.975 -1.6768 -2.3067  0.4670
  765MOL0     H 3258   3.807   8.775   1.738 -0.8439  2.7854 -3.7366
  765MOL0     H 3259   3.405   8.849   1.341  0.0333 -1.1312 -1.4428
  765MOL0     H 3260   3.449   8.907   1.124  0.6451  0.0858 -1.4004
  765MOL0     H 3261   2.429   9.241   0.369 -0.6048 -0.2121 -2.1437
  765MOL0     H 3262   2.374   9.076   0.167 -0.3090 -0.2053 -0.2508
  765MOL0     H 3263   2.478   8.767  -0.087  0.1810  1.2054  1.2619
  765MOL0     H 3264   2.472   8.597  -0.280  0.6019  1.2229  0.9192
  765MOL0     H 3265   2.292   8.231  -0.391  0.1710 -1.7150  2.2847
  765MOL0     H 3266   2.199   8.287  -0.257 -1.6041  2.8968  1.3937
  765MOL0     H 3267   2.317   8.488  -0.459 -2.4745  2.0233 -0.9386
  765MOL0     H 3268   2.200   8.528  -0.338 -1.2402  0.9449 -1.8932
  765MOL0     H 3269   2.027   8.414  -0.472 -0.5264  1.2364 -0.3746
  765MOL0     H 3270   2.132   8.368  -0.596 -3.1842  0.4457 -0.3308
  765MOL0     H 3271   2.173   8.619  -0.613 -1.6562  1.6880 -0.7260
  765MOL0     H 3272   2.016   8.622  -0.514 -0.6328 -2.3502  1.9906
  765MOL0     H 3273   1.875   8.566  -0.905 -1.4951 -1.6595  0.7876
  765MOL0     H 3274   2.282   8.318  -0.014  1.0486 -1.2256  0.0730
  765MOL0     H 3275   2.294   8.485   0.164  0.4282 -1.3290 -0.5407
  766MOL0     O 3276   5.545   1.171   9.961 -0.2696  0.2868 -0.1561
  766MOL0     C 3277   5.531   1.063  10.017  0.8595 -1.3446 -1.4625
  766MOL0     O 3278   5.421   0.981  10.003 -0.8379  1.4504  0.0638
  766MOL0     C 3279   5.337   0.984   9.897 -0.1924  0.3349  0.1148
  766MOL0     C 3280   5.222   0.905   9.897  1.1998 -0.6803  0.2350
  766MOL0     C 3281   5.115   0.905   9.805  0.6713 -0.3414 -0.1288
  766MOL0     C 3282   5.126   1.003   9.703 -0.3087  0.4524  0.4478
  766MOL0     O 3283   5.026   1.040   9.613 -0.4981  0.0035 -0.6530
  766MOL0     C 3284   4.885   1.042   9.661 -0.9586  0.1760 -1.4294
  766MOL0     C 3285   4.785   1.101   9.561 -0.0911 -0.5008  0.5894
  766MOL0     C 3286   4.798   1.038   9.422 -0.4430 -0.2719  0.7500
  766MOL0     C 3287   4.667   1.034   9.340  0.6438 -0.1841 -0.0592
  766MOL0     C 3288   4.689   0.997   9.191  0.1949  0.0483  0.6902
  766MOL0     C 3289   4.743   1.109   9.111 -0.5638  0.0542  0.5226
  766MOL0     C 3290   4.751   1.090   8.959 -0.3347  0.0757 -0.8282
  766MOL0     C 3291   4.791   1.220   8.876  0.1561  0.1578 -1.4540
  766MOL0     N 3292   4.693   1.298   8.798  0.0890  0.8605 -0.2309
  766MOL0     C 3293   4.579   1.239   8.733 -0.1761 -0.2595  0.2025
  766MOL0     C 3294   4.542   1.329   8.641  0.5864  0.6252  0.2317
  766MOL0     C 3295   4.423   1.334   8.550 -1.1015 -0.1391  0.0156
  766MOL0     C 3296   4.457   1.318   8.399  0.3819 -0.3327 -0.3197
  766MOL0     C 3297   4.328   1.286   8.324  0.2995 -0.2386  0.1750
  766MOL0     C 3298   4.237   1.410   8.290 -0.4669 -0.1832 -0.0515
  766MOL0     O 3299   4.175   1.381   8.156  0.3381  0.2804 -0.6041
  766MOL0     C 3300   4.090   1.272   8.143 -0.8849 -0.6437  0.3413
  766MOL0     C 3301   4.122   1.182   8.047  0.6872 -0.4337 -0.1396
  766MOL0     C 3302   4.056   1.059   8.039  0.6874  0.0756  0.2415
  766MOL0     C 3303   4.098   0.959   7.942  0.2733  0.9945 -0.1760
  766MOL0     C 3304   3.938   1.036   8.123 -0.3356 -0.4974 -0.7353
  766MOL0     C 3305   3.860   0.907   8.121  0.6348 -0.4562  0.9765
  766MOL0     O 3306   3.727   0.923   8.109  0.7508 -0.9582 -0.5490
  766MOL0     C 3307   3.655   0.809   8.138  0.4773 -0.4298 -0.5930
  766MOL0     C 3308   3.667   0.743   8.265  0.1254 -0.1030  0.1024
  766MOL0     C 3309   3.577   0.650   8.313 -0.7228  0.0527 -0.7219
  766MOL0     C 3310   3.465   0.618   8.238  0.5779  0.5256  0.6363
  766MOL0     O 3311   3.378   0.517   8.284 -0.8239 -0.9264 -0.3585
  766MOL0     C 3312   3.314   0.559   8.408  0.1985 -0.0779 -0.1735
  766MOL0     C 3313   3.255   0.432   8.470  0.0691 -0.0551  0.1650
  766MOL0     C 3314   3.147   0.369   8.378 -1.2548 -0.1699 -0.8428
  766MOL0     C 3315   3.198   0.279   8.261  0.1910  0.5386  0.3040
  766MOL0     C 3316   3.075   0.235   8.178 -0.1560  0.9048 -0.4261
  766MOL0     C 3317   3.141   0.142   8.080  0.4542  0.3018  0.0603
  766MOL0     C 3318   3.105   0.158   7.937 -0.0556  0.4338 -0.5258
  766MOL0     C 3319   3.154   0.299   7.884  0.8841  0.7050 -0.4068
  766MOL0    Cl 3320   3.151   0.273   7.711 -0.1069  0.2890  0.0191
  766MOL0     C 3321   3.460   0.664   8.106 -1.2976  0.4227 -0.4245
  766MOL0     C 3322   3.550   0.762   8.058 -0.1942 -0.3786  0.1527
  766MOL0     O 3323   3.924   0.805   8.150  0.1535 -0.0133 -0.3918
  766MOL0     C 3324   3.906   1.125   8.220 -0.1034  0.5354 -0.0784
  766MOL0     C 3325   3.979   1.248   8.223  0.1789  0.0632  0.7680
  766MOL0     N 3326   4.622   1.435   8.665 -0.0288 -0.3044  0.6290
  766MOL0     N 3327   4.716   1.421   8.749 -0.2277 -0.1762 -0.4376
  766MOL0     C 3328   5.242   1.072   9.688  0.6133  1.7070 -0.4957
  766MOL0     C 3329   5.348   1.051   9.779 -0.5955  0.0680  0.2787
  766MOL0     C 3330   5.647   1.027  10.102  0.0128 -0.2710  0.6825
  766MOL0     C 3331   5.663   0.896  10.151  0.6028  0.3390 -0.2850
  766MOL0     C 3332   5.770   0.875  10.236 -0.6328  0.2522  0.4382
  766MOL0     C 3333   5.865   0.970  10.278 -0.7013  1.0905 -0.4404
  766MOL0     O 3334   5.970   0.931  10.365  0.3558  0.3473  0.7559
  766MOL0     C 3335   5.932   0.931  10.498 -0.1752  0.0422  0.6954
  766MOL0     C 3336   6.031   1.009  10.588  0.1914  0.0553  0.6217
  766MOL0     C 3337   5.972   1.007  10.724  0.3014  0.7075 -0.2383
  766MOL0     C 3338   6.059   0.932  10.827  0.5988 -0.3744  0.1354
  766MOL0     C 3339   6.082   0.798  10.797  0.4127 -0.1703 -0.4465
  766MOL0     C 3340   6.120   0.682  10.789  0.6606  0.0615 -0.2615
  766MOL0     C 3341   5.863   1.091  10.211  0.8516 -0.6542 -0.7219
  766MOL0     C 3342   5.751   1.121  10.128  0.0064  0.2649  0.6005
  766MOL0     H 3343   5.213   0.832   9.977  2.6725 -4.1300 -2.5435
  766MOL0     H 3344   5.022   0.848   9.812 -0.4232  0.9882 -2.4971
  766MOL0     H 3345   4.853   0.940   9.684 -0.2307 -0.3294 -2.5293
  766MOL0     H 3346   4.875   1.097   9.754 -1.0708 -1.4519 -0.4351
  766MOL0     H 3347   4.693   1.069   9.611  0.0234 -1.6319  0.1091
  766MOL0     H 3348   4.783   1.210   9.550 -5.2346 -0.3595  0.2764
  766MOL0     H 3349   4.870   1.099   9.367 -2.2017  1.0284 -0.2041
  766MOL0     H 3350   4.828   0.933   9.415 -0.5565 -0.1733 -2.8347
  766MOL0     H 3351   4.593   0.967   9.384 -0.1984  1.5229  1.2350
  766MOL0     H 3352   4.619   1.132   9.333  0.9149 -0.1074 -1.0743
  766MOL0     H 3353   4.756   0.911   9.182  0.1596  0.0267  0.6345
  766MOL0     H 3354   4.590   0.969   9.154 -1.3978  1.6288  3.4629
  766MOL0     H 3355   4.684   1.196   9.140 -0.2495 -0.1253  1.7471
  766MOL0     H 3356   4.848   1.127   9.138  0.2500 -1.0610 -1.5815
  766MOL0     H 3357   4.822   1.007   8.954  2.2492  1.9770  1.2338
  766MOL0     H 3358   4.657   1.051   8.919  0.5486 -1.5749 -1.3811
  766MOL0     H 3359   4.869   1.199   8.802  4.1246  1.2745  2.0181
  766MOL0     H 3360   4.834   1.277   8.959  0.3356  0.5776 -1.8350
  766MOL0     H 3361   4.547   1.140   8.763  0.9727 -2.0034 -3.6755
  766MOL0     H 3362   4.339   1.272   8.585 -0.2839 -0.6667  1.1075
  766MOL0     H 3363   4.375   1.431   8.562 -2.3917 -0.4974 -1.8137
  766MOL0     H 3364   4.527   1.236   8.383 -1.5594 -2.7778  2.6262
  766MOL0     H 3365   4.500   1.409   8.355  0.7917 -1.4721 -2.4077
  766MOL0     H 3366   4.260   1.208   8.357 -0.6684 -1.1479 -3.5099
  766MOL0     H 3367   4.360   1.252   8.225 -4.7412  0.4756 -1.9749
  766MOL0     H 3368   4.294   1.504   8.291 -1.5066  0.5022 -1.4872
  766MOL0     H 3369   4.161   1.417   8.369  0.1028  0.2832  0.4637
  766MOL0     H 3370   4.198   1.201   7.972  0.5230 -2.7151 -0.9835
  766MOL0     H 3371   4.143   0.876   7.996 -2.8815 -0.0325  1.0925
  766MOL0     H 3372   4.016   0.929   7.876  0.4115  1.4271 -0.5485
  766MOL0     H 3373   4.179   0.996   7.879  1.4954 -0.0892  0.7031
  766MOL0     H 3374   3.741   0.771   8.339  1.7322 -2.7621 -0.3516
  766MOL0     H 3375   3.585   0.617   8.416 -4.2450 -0.4193 -0.4520
  766MOL0     H 3376   3.372   0.621   8.477 -0.8763  0.6370  0.1292
  766MOL0     H 3377   3.241   0.637   8.381  2.0319  1.6740 -0.3036
  766MOL0     H 3378   3.330   0.354   8.486  0.2874 -0.9677 -4.0624
  766MOL0     H 3379   3.201   0.470   8.557 -1.1965  1.9623 -1.4099
  766MOL0     H 3380   3.090   0.451   8.333  0.0552  0.4801 -1.3845
  766MOL0     H 3381   3.088   0.301   8.439  0.2251 -3.0142 -2.4003
  766MOL0     H 3382   3.260   0.340   8.194 -2.2749  0.5854 -2.1301
  766MOL0     H 3383   3.265   0.200   8.296 -2.3848 -1.2940  1.3967
  766MOL0     H 3384   3.030   0.320   8.126  2.2979  1.0339 -2.5582
  766MOL0     H 3385   3.001   0.183   8.238  2.7205 -1.2324  1.5636
  766MOL0     H 3386   3.249   0.149   8.092  0.9616 -3.5893 -0.9317
  766MOL0     H 3387   3.125   0.045   8.127  0.9061  0.9580  1.6254
  766MOL0     H 3388   2.998   0.147   7.919 -0.3317 -0.9039  1.6049
  766MOL0     H 3389   3.150   0.081   7.874 -2.8604 -1.0965 -0.8218
  766MOL0     H 3390   3.259   0.317   7.908  1.7011 -1.3719 -2.0986
  766MOL0     H 3391   3.080   0.370   7.923 -0.1659 -1.7561  2.5511
  766MOL0     H 3392   3.372   0.626   8.055 -0.2005 -0.7270 -1.5462
  766MOL0     H 3393   3.525   0.807   7.962 -2.0901 -1.1351  0.2428
  766MOL0     H 3394   3.815   1.106   8.275 -0.8017  0.3218 -1.2934
  766MOL0     H 3395   3.930   1.316   8.292  1.2570  1.1283  0.5100
  766MOL0     H 3396   5.246   1.144   9.607 -4.4411  0.2179 -2.4326
  766MOL0     H 3397   5.435   1.112   9.756 -1.7461  1.5587 -0.2611
  766MOL0     H 3398   5.594   0.812  10.138 -1.6991  1.9946  0.4700
  766MOL0     H 3399   5.766   0.773  10.272  0.0348 -1.1034 -2.8917
  766MOL0     H 3400   5.828   0.965  10.504  0.6639  2.8102  1.1076
  766MOL0     H 3401   5.932   0.831  10.540  0.5543 -1.0322 -1.6634
  766MOL0     H 3402   6.049   1.109  10.547 -0.3701  0.1981  0.7197
  766MOL0     H 3403   6.126   0.954  10.583  1.6940  2.5678 -0.9091
  766MOL0     H 3404   5.869   0.970  10.730  0.7967 -0.5698  0.8628
  766MOL0     H 3405   5.959   1.110  10.758 -3.8221  0.2652  0.1139
  766MOL0     H 3406   6.001   0.945  10.919  0.7440  2.0566 -0.0486
  766MOL0     H 3407   6.161   0.970  10.835  1.3149 -1.7369 -1.8065
  766MOL0     H 3408   6.155   0.581  10.794  1.2827  0.2470 -0.6367
  766MOL0     H 3409   5.936   1.171  10.223 -1.2453  1.1785  0.6411
  766MOL0     H 3410   5.757   1.218  10.079  1.8305  0.0331  0.3011
  767MOL0     O 3411   4.881   7.851   3.623  0.6214  0.6687  0.4297
  767MOL0     C 3412   4.838   7.920   3.535 -1.2369  0.7671 -0.3201
  767MOL0     O 3413   4.738   7.880   3.448 -0.2469  0.4897 -0.7064
  767MOL0     C 3414   4.672   7.753   3.454  0.8427 -0.5602  0.6109
  767MOL0     C 3415   4.600   7.717   3.339 -0.2492  0.0856 -0.5763
  767MOL0     C 3416   4.510   7.606   3.336  0.3908  0.3827  0.1097
  767MOL0     C 3417   4.493   7.530   3.450  1.3497  0.8986 -0.0705
  767MOL0     O 3418   4.407   7.417   3.435  0.2061 -0.0932  0.0173
  767MOL0     C 3419   4.420   7.305   3.528  0.4540  0.8461 -0.9794
  767MOL0     C 3420   4.305   7.313   3.635 -0.0315 -0.9344  0.3540
  767MOL0     C 3421   4.181   7.226   3.592 -0.9444 -0.0290  0.2551
  767MOL0     C 3422   4.093   7.280   3.472  0.6470  0.7735 -0.2461
  767MOL0     C 3423   3.988   7.383   3.511  0.0970 -0.3466  0.2723
  767MOL0     C 3424   3.911   7.408   3.381  0.0280  0.0300 -0.1157
  767MOL0     C 3425   3.805   7.515   3.415 -0.3313 -0.2019  1.4029
  767MOL0     C 3426   3.737   7.568   3.281  1.1830 -0.0610  0.5483
  767MOL0     N 3427   3.674   7.461   3.199 -0.2445  0.9891 -0.5042
  767MOL0     C 3428   3.745   7.373   3.116  0.2137 -0.8052  0.4660
  767MOL0     C 3429   3.649   7.288   3.076  0.1472 -0.0706  0.3583
  767MOL0     C 3430   3.660   7.165   2.983 -0.1995 -0.1600  0.6043
  767MOL0     C 3431   3.809   7.124   2.958  0.0107  0.9011  0.3522
  767MOL0     C 3432   3.878   7.063   3.090 -0.1239  0.5711  0.5077
  767MOL0     C 3433   4.020   7.036   3.063  0.3575  0.1299 -0.1808
  767MOL0     O 3434   4.091   7.156   3.092  0.1889  0.1293 -0.3564
  767MOL0     C 3435   4.228   7.152   3.087 -0.4288 -0.1315  0.0738
  767MOL0     C 3436   4.308   7.036   3.053  0.1207  0.4177  0.0980
  767MOL0     C 3437   4.453   7.043   3.049  0.4973 -1.0930 -0.8552
  767MOL0     C 3438   4.527   6.926   2.992  0.2211 -0.6929  0.4121
  767MOL0     C 3439   4.519   7.153   3.102 -0.6308  0.7878  0.4002
  767MOL0     C 3440   4.671   7.162   3.131 -0.3100  0.2909  0.1246
  767MOL0     O 3441   4.708   7.260   3.222  0.3817  0.3465  0.2815
  767MOL0     C 3442   4.835   7.278   3.266  1.1581 -0.3175  0.9698
  767MOL0     C 3443   4.842   7.375   3.366  0.0512 -0.1161  0.0432
  767MOL0     C 3444   4.960   7.402   3.432 -0.1819  0.1494  0.5073
  767MOL0     C 3445   5.082   7.343   3.392 -0.6882 -0.0777  0.0195
  767MOL0     O 3446   5.214   7.376   3.439 -0.1612  0.9548  0.1475
  767MOL0     C 3447   5.250   7.479   3.530 -1.2686 -0.1419 -0.6350
  767MOL0     C 3448   5.388   7.456   3.609  0.1997 -0.3473  0.7191
  767MOL0     C 3449   5.500   7.443   3.516 -0.0752  0.6944  0.5042
  767MOL0     C 3450   5.564   7.566   3.446 -0.4198  0.4560 -0.6317
  767MOL0     C 3451   5.628   7.660   3.553  0.6376  0.1607 -0.2645
  767MOL0     C 3452   5.695   7.776   3.482 -0.3357 -0.0737 -0.5608
  767MOL0     C 3453   5.737   7.893   3.572 -0.6731 -0.3368 -0.0762
  767MOL0     C 3454   5.824   7.855   3.688 -0.5756 -0.2389  0.3184
  767MOL0    Cl 3455   5.993   7.792   3.647 -0.6469  0.0617  0.1023
  767MOL0     C 3456   5.069   7.246   3.293  0.4798  0.2355  0.2217
  767MOL0     C 3457   4.950   7.209   3.239 -0.1445  0.1398  0.2622
  767MOL0     O 3458   4.752   7.091   3.070 -0.0228  0.1701 -0.9798
  767MOL0     C 3459   4.444   7.259   3.139  1.9306 -0.3138 -0.7760
  767MOL0     C 3460   4.300   7.264   3.126 -0.0778  0.0855 -0.0121
  767MOL0     N 3461   3.528   7.326   3.138 -1.0649 -0.0493  0.6520
  767MOL0     N 3462   3.552   7.421   3.219  0.3466  0.2491 -0.3790
  767MOL0     C 3463   4.564   7.566   3.568  0.6073  0.4728  0.8178
  767MOL0     C 3464   4.655   7.671   3.564  0.5667  0.1938 -0.4915
  767MOL0     C 3465   4.905   8.052   3.509  0.2956 -0.5916 -0.7401
  767MOL0     C 3466   4.994   8.108   3.603 -0.1827  0.2400 -0.8331
  767MOL0     C 3467   5.037   8.239   3.583 -0.0363 -0.0116  0.3508
  767MOL0     C 3468   5.009   8.307   3.464  1.0770 -0.1571 -0.9239
  767MOL0     O 3469   5.059   8.425   3.443  0.1286  0.3674  1.0796
  767MOL0     C 3470   5.193   8.461   3.500  0.2890 -0.8895  0.7600
  767MOL0     C 3471   5.302   8.372   3.445 -0.3131 -0.7021 -0.1369
  767MOL0     C 3472   5.448   8.451   3.460 -0.0078  0.8595 -0.3085
  767MOL0     C 3473   5.566   8.353   3.471 -0.1247  0.2277  0.3346
  767MOL0     C 3474   5.571   8.255   3.355  0.1296  0.2767  0.0794
  767MOL0     C 3475   5.579   8.190   3.254  0.5721 -0.0418  0.2964
  767MOL0     C 3476   4.930   8.242   3.366  0.4870 -0.6729 -1.1000
  767MOL0     C 3477   4.878   8.120   3.389  0.0947  0.7624  0.7840
  767MOL0     H 3478   4.611   7.774   3.247 -3.3799  1.5908 -0.1390
  767MOL0     H 3479   4.466   7.569   3.245 -0.2141  3.9831 -1.1930
  767MOL0     H 3480   4.420   7.202   3.493  1.0365 -0.0393  1.4148
  767MOL0     H 3481   4.516   7.302   3.580  0.1151  0.6420 -0.3564
  767MOL0     H 3482   4.344   7.284   3.733 -2.1252 -2.9802  0.6731
  767MOL0     H 3483   4.266   7.414   3.650 -1.5676 -1.6680  1.5723
  767MOL0     H 3484   4.219   7.124   3.584  0.3394 -0.0183  4.1545
  767MOL0     H 3485   4.111   7.221   3.676 -1.3569  1.3959  0.0247
  767MOL0     H 3486   4.176   7.324   3.416  3.7779  0.2352  3.5139
  767MOL0     H 3487   4.043   7.198   3.420 -1.7223  1.9912 -0.0020
  767MOL0     H 3488   3.920   7.346   3.588  0.4766  1.0493  1.3225
  767MOL0     H 3489   4.026   7.477   3.552  1.2846 -1.3461  1.5640
  767MOL0     H 3490   3.971   7.426   3.291  0.3022  2.3850  0.4926
  767MOL0     H 3491   3.850   7.323   3.346  2.0012 -1.6570  0.3386
  767MOL0     H 3492   3.727   7.471   3.477 -1.1491  2.0112  2.0400
  767MOL0     H 3493   3.848   7.596   3.474  3.0833 -0.1437 -0.8786
  767MOL0     H 3494   3.813   7.623   3.226  1.7805 -2.0351 -0.7080
  767MOL0     H 3495   3.660   7.643   3.305  0.8396  0.1343 -1.0757
  767MOL0     H 3496   3.848   7.395   3.088 -1.0896  2.9909 -2.2330
  767MOL0     H 3497   3.614   7.074   3.025  1.6935 -0.7039  1.6365
  767MOL0     H 3498   3.603   7.175   2.890 -6.7580 -1.7960  3.8260
  767MOL0     H 3499   3.859   7.214   2.919 -3.5700  3.0173  0.1611
  767MOL0     H 3500   3.813   7.052   2.876 -2.1547  1.8587 -0.6833
  767MOL0     H 3501   3.826   6.968   3.105  1.1286 -0.0024  1.3755
  767MOL0     H 3502   3.879   7.134   3.173  0.4371 -0.9946  1.9073
  767MOL0     H 3503   4.036   7.008   2.958 -0.4247 -0.2865 -0.1957
  767MOL0     H 3504   4.048   6.946   3.119  0.6786  1.2668  1.5688
  767MOL0     H 3505   4.256   6.952   3.010  2.6613 -1.0510 -0.3201
  767MOL0     H 3506   4.579   6.946   2.898 -1.9214  1.2708 -0.4542
  767MOL0     H 3507   4.599   6.889   3.065 -1.2629 -1.6187  1.4778
  767MOL0     H 3508   4.452   6.852   2.961  0.8490 -1.2560  0.2318
  767MOL0     H 3509   4.753   7.429   3.396  1.3707  2.1152  0.1696
  767MOL0     H 3510   4.954   7.480   3.508 -1.9401  0.1342  0.4458
  767MOL0     H 3511   5.260   7.574   3.476  3.1029  0.7858  1.3955
  767MOL0     H 3512   5.179   7.489   3.612 -1.1832  0.1740 -0.5995
  767MOL0     H 3513   5.396   7.535   3.684  1.8377 -1.1710  1.4586
  767MOL0     H 3514   5.392   7.367   3.671 -1.3820 -0.1244  1.1866
  767MOL0     H 3515   5.475   7.368   3.440 -1.9447  2.1386 -0.3974
  767MOL0     H 3516   5.568   7.396   3.587 -2.3127 -1.7667  1.2120
  767MOL0     H 3517   5.646   7.533   3.382  0.8567 -0.4703  1.3806
  767MOL0     H 3518   5.492   7.614   3.380 -0.8264 -0.8448 -1.1678
  767MOL0     H 3519   5.699   7.608   3.617 -0.2836 -2.5159 -1.3048
  767MOL0     H 3520   5.548   7.698   3.617 -0.2940 -0.9166 -0.7594
  767MOL0     H 3521   5.784   7.731   3.437  1.3077 -0.4669  2.7985
  767MOL0     H 3522   5.630   7.814   3.402 -1.5026  0.3479  0.5426
  767MOL0     H 3523   5.649   7.925   3.628 -0.5724  0.4063 -0.3297
  767MOL0     H 3524   5.796   7.972   3.524 -0.0157  0.3969  1.8292
  767MOL0     H 3525   5.778   7.780   3.753 -2.2923  0.5066  0.0387
  767MOL0     H 3526   5.837   7.937   3.760 -0.1972  0.3169 -0.3745
  767MOL0     H 3527   5.157   7.189   3.264  1.5306 -0.2023  3.8196
  767MOL0     H 3528   4.954   7.116   3.184  3.1343 -0.3090  1.0422
  767MOL0     H 3529   4.496   7.351   3.162  1.2872  0.9427 -3.8872
  767MOL0     H 3530   4.250   7.350   3.168  0.1001  0.4095 -0.4644
  767MOL0     H 3531   4.560   7.508   3.659 -1.0013 -1.4607 -0.3854
  767MOL0     H 3532   4.684   7.708   3.662  4.4118 -0.0849 -1.3675
  767MOL0     H 3533   5.027   8.048   3.687  1.5204 -0.5671 -2.0321
  767MOL0     H 3534   5.099   8.278   3.664  0.5120 -0.5872  0.2147
  767MOL0     H 3535   5.207   8.567   3.476  0.5723 -1.2489 -0.7655
  767MOL0     H 3536   5.199   8.442   3.608 -1.3975  0.0622  1.0603
  767MOL0     H 3537   5.297   8.360   3.337  3.1672 -0.3499 -0.4540
  767MOL0     H 3538   5.286   8.273   3.488 -3.9988 -1.0450 -1.9619
  767MOL0     H 3539   5.455   8.527   3.539  2.5332 -0.5832  0.9674
  767MOL0     H 3540   5.456   8.499   3.362 -0.9751 -0.7595 -1.2097
  767MOL0     H 3541   5.565   8.295   3.564  0.1984  2.3691  1.7431
  767MOL0     H 3542   5.656   8.415   3.486 -0.6140  1.4123 -1.3515
  767MOL0     H 3543   5.595   8.121   3.174  0.9957  0.2364  0.1386
  767MOL0     H 3544   4.909   8.299   3.276  2.9101  2.1430 -0.0571
  767MOL0     H 3545   4.803   8.092   3.316 -0.6481  0.0496  1.8023
  768MOL0     O 3546   6.082   9.445   1.158 -0.4914  0.3131 -0.0135
  768MOL0     C 3547   6.157   9.470   1.066 -0.2785  0.5026  0.5859
  768MOL0     O 3548   6.125   9.546   0.957  0.2139 -0.0270 -0.7077
  768MOL0     C 3549   5.986   9.552   0.924 -0.1417  0.7134 -0.8409
  768MOL0     C 3550   5.920   9.672   0.908  0.3638 -0.2198 -0.0042
  768MOL0     C 3551   5.778   9.674   0.896  0.1265  1.8684 -0.0827
  768MOL0     C 3552   5.699   9.554   0.888 -0.2285 -1.1654  0.7435
  768MOL0     O 3553   5.562   9.570   0.870  0.0809  0.2062  0.5204
  768MOL0     C 3554   5.501   9.456   0.803  0.8070 -0.2120 -0.4169
  768MOL0     C 3555   5.446   9.347   0.893 -0.2137 -0.4959 -0.5865
  768MOL0     C 3556   5.344   9.267   0.805  0.0394  0.0121  0.3372
  768MOL0     C 3557   5.257   9.169   0.880 -0.1737 -0.8192 -1.2353
  768MOL0     C 3558   5.140   9.121   0.794 -0.9209 -0.3679 -0.3872
  768MOL0     C 3559   5.062   9.013   0.867 -0.2263 -0.1671  0.0015
  768MOL0     C 3560   4.920   9.007   0.825  0.2078  0.8320  0.7325
  768MOL0     C 3561   4.832   8.926   0.915 -0.4296 -0.4796  0.1772
  768MOL0     N 3562   4.794   9.002   1.031  0.2672  0.3246  0.2358
  768MOL0     C 3563   4.689   9.092   1.040 -0.3098 -0.3172  0.6107
  768MOL0     C 3564   4.667   9.114   1.169 -0.6126  1.5459  0.3431
  768MOL0     C 3565   4.551   9.204   1.230 -0.1985 -0.0664  0.2891
  768MOL0     C 3566   4.557   9.225   1.380  0.2652 -0.2429 -0.0104
  768MOL0     C 3567   4.444   9.302   1.455 -0.8055 -0.8248  0.6471
  768MOL0     C 3568   4.360   9.216   1.536  1.0051 -0.9490 -0.5094
  768MOL0     O 3569   4.412   9.167   1.652  0.5058 -0.1276 -0.0302
  768MOL0     C 3570   4.351   9.050   1.686 -0.8399 -0.5791  0.0825
  768MOL0     C 3571   4.436   8.947   1.738  0.0247 -0.3004 -0.2886
  768MOL0     C 3572   4.382   8.843   1.822  0.3236 -0.7590 -0.4159
  768MOL0     C 3573   4.477   8.771   1.912  0.1159 -0.1160 -0.3021
  768MOL0     C 3574   4.243   8.807   1.810 -0.6442  0.8263  0.0433
  768MOL0     C 3575   4.183   8.677   1.855 -0.3227 -0.1907 -0.6625
  768MOL0     O 3576   4.266   8.584   1.897  0.1281  0.9487 -0.5829
  768MOL0     C 3577   4.202   8.463   1.922 -0.0431 -0.1352  0.6156
  768MOL0     C 3578   4.257   8.351   1.851 -0.1820  0.3720  0.4053
  768MOL0     C 3579   4.199   8.221   1.875  0.4328 -0.0943 -0.2140
  768MOL0     C 3580   4.083   8.205   1.953  0.4580  0.4510  0.6160
  768MOL0     O 3581   4.020   8.084   1.954  0.4895  0.0062 -0.6205
  768MOL0     C 3582   3.980   8.030   2.089  0.3105 -0.2571  0.4536
  768MOL0     C 3583   3.929   7.894   2.088  0.2256  0.1151  0.1210
  768MOL0     C 3584   3.815   7.855   1.997 -0.4056 -0.3775 -0.3718
  768MOL0     C 3585   3.675   7.922   2.026  0.0006  0.2513 -0.0580
  768MOL0     C 3586   3.554   7.877   1.957 -0.1022  0.6706 -1.3459
  768MOL0     C 3587   3.502   7.745   2.024 -0.2813  0.7780  0.0389
  768MOL0     C 3588   3.361   7.695   1.968 -0.1721 -0.4212 -0.6847
  768MOL0     C 3589   3.365   7.676   1.816 -0.5425 -0.0553 -0.1363
  768MOL0    Cl 3590   3.508   7.593   1.731 -0.3867  0.0760  0.2274
  768MOL0     C 3591   4.038   8.315   2.024 -0.4215 -0.3497  0.9210
  768MOL0     C 3592   4.101   8.436   2.026  0.3440 -0.9359 -0.5566
  768MOL0     O 3593   4.061   8.672   1.865 -0.0400 -0.4941  0.6038
  768MOL0     C 3594   4.169   8.903   1.736  0.1708 -1.1975  0.0573
  768MOL0     C 3595   4.218   9.031   1.686 -0.1201  0.1662  0.1724
  768MOL0     N 3596   4.758   9.040   1.239 -0.7287 -0.1601 -0.7114
  768MOL0     N 3597   4.838   8.983   1.154  0.3109 -0.0584  0.2237
  768MOL0     C 3598   5.768   9.433   0.894  0.7687  0.6404  0.1270
  768MOL0     C 3599   5.910   9.434   0.904  1.3561  0.1304  0.2435
  768MOL0     C 3600   6.303   9.425   1.077 -0.2243 -0.2951 -0.1833
  768MOL0     C 3601   6.407   9.494   1.009 -0.0178  1.2523 -0.0592
  768MOL0     C 3602   6.535   9.454   1.020 -0.0885  0.2606  1.0737
  768MOL0     C 3603   6.568   9.354   1.111 -0.0215  0.1528  0.7432
  768MOL0     O 3604   6.704   9.327   1.121  0.1795  0.4398  0.5397
  768MOL0     C 3605   6.751   9.209   1.195 -0.0269  0.0103  0.7794
  768MOL0     C 3606   6.787   9.243   1.346  0.5094  0.7520 -0.0455
  768MOL0     C 3607   6.833   9.133   1.436  0.7255 -0.0599 -0.6002
  768MOL0     C 3608   6.984   9.107   1.434  0.1986 -0.8311  0.3181
  768MOL0     C 3609   7.028   9.002   1.531  0.9860  0.5228 -0.8487
  768MOL0     C 3610   7.049   8.902   1.598  0.8396 -0.1455 -0.1077
  768MOL0     C 3611   6.472   9.278   1.172 -0.3961 -0.4615 -1.3287
  768MOL0     C 3612   6.340   9.316   1.163  0.6549  0.0725  0.2944
  768MOL0     H 3613   5.975   9.764   0.926 -2.4337  1.4598  0.7263
  768MOL0     H 3614   5.724   9.768   0.886 -2.4372  0.3066 -2.1671
  768MOL0     H 3615   5.410   9.497   0.756  2.1947  0.6966 -2.4733
  768MOL0     H 3616   5.572   9.433   0.723 -1.3396  1.9422 -3.2102
  768MOL0     H 3617   5.515   9.290   0.956 -0.6614 -0.9155 -0.4614
  768MOL0     H 3618   5.386   9.381   0.978 -0.8650 -0.6955 -0.9586
  768MOL0     H 3619   5.273   9.334   0.754  1.3699  0.2563 -1.2867
  768MOL0     H 3620   5.405   9.227   0.723 -2.1443 -1.1018 -0.8497
  768MOL0     H 3621   5.318   9.085   0.915 -1.2609 -0.3216  2.3215
  768MOL0     H 3622   5.215   9.220   0.967  2.4762  3.6690 -2.2854
  768MOL0     H 3623   5.075   9.209   0.788  1.6025  1.7989  1.6328
  768MOL0     H 3624   5.178   9.086   0.697 -1.0503 -0.8331 -0.2751
  768MOL0     H 3625   5.117   8.919   0.854  0.7792  0.1176  1.8806
  768MOL0     H 3626   5.067   9.018   0.976  3.0649 -1.2754  0.0203
  768MOL0     H 3627   4.877   9.106   0.805  1.1218  1.3032  1.0755
  768MOL0     H 3628   4.915   8.967   0.723 -1.5782  0.1074  1.0546
  768MOL0     H 3629   4.889   8.837   0.943  1.6965  0.5447 -0.6365
  768MOL0     H 3630   4.745   8.880   0.867 -0.9500 -1.4208  1.9435
  768MOL0     H 3631   4.637   9.146   0.962 -1.7346 -2.2859  0.1156
  768MOL0     H 3632   4.549   9.295   1.170 -0.1919 -0.9940 -1.1672
  768MOL0     H 3633   4.453   9.163   1.208 -1.4269  0.6589  3.7197
  768MOL0     H 3634   4.650   9.278   1.402 -0.0254  0.1002  0.3962
  768MOL0     H 3635   4.563   9.120   1.411 -2.5738 -1.5530 -3.2596
  768MOL0     H 3636   4.377   9.362   1.392 -2.2693 -0.6160  2.3133
  768MOL0     H 3637   4.498   9.370   1.521 -0.2962 -1.2621  0.6883
  768MOL0     H 3638   4.336   9.134   1.468 -0.4425  1.4371 -3.0907
  768MOL0     H 3639   4.269   9.269   1.566  2.6749  2.0588 -0.3350
  768MOL0     H 3640   4.545   8.948   1.734  0.0962 -0.3591  0.9909
  768MOL0     H 3641   4.501   8.673   1.871 -1.2640 -0.0571 -1.3506
  768MOL0     H 3642   4.557   8.844   1.924  0.3420  0.5215 -4.3021
  768MOL0     H 3643   4.428   8.747   2.007  0.6129  1.5713  0.4254
  768MOL0     H 3644   4.343   8.367   1.786 -0.4154  2.2318  0.5282
  768MOL0     H 3645   4.226   8.127   1.829 -1.5781  0.3527 -2.5095
  768MOL0     H 3646   4.062   8.046   2.161 -0.2874 -2.8800  1.8318
  768MOL0     H 3647   3.898   8.092   2.126  2.1485  2.3190  0.4935
  768MOL0     H 3648   4.016   7.834   2.060 -0.4033 -0.2437 -1.0913
  768MOL0     H 3649   3.895   7.870   2.190  1.5268 -1.4878  0.2247
  768MOL0     H 3650   3.802   7.748   2.019  3.3678 -0.1600  4.5341
  768MOL0     H 3651   3.835   7.862   1.890  0.2488  1.2129 -0.1717
  768MOL0     H 3652   3.653   7.904   2.132  1.5519  0.5687  0.3402
  768MOL0     H 3653   3.677   8.030   2.007 -1.0250  0.6649  1.9456
  768MOL0     H 3654   3.579   7.846   1.855 -0.7443  1.3120 -1.7105
  768MOL0     H 3655   3.482   7.959   1.953  1.4719  2.0890 -1.2778
  768MOL0     H 3656   3.579   7.670   2.004 -0.8796  0.6699 -2.0631
  768MOL0     H 3657   3.499   7.755   2.133 -1.2090 -2.7527  0.4688
  768MOL0     H 3658   3.278   7.756   2.005 -0.5268 -1.4099  0.1699
  768MOL0     H 3659   3.336   7.595   2.003  0.1465 -0.1231  0.4399
  768MOL0     H 3660   3.374   7.777   1.773  4.5838 -0.1067  0.1984
  768MOL0     H 3661   3.271   7.627   1.788  0.5957 -2.9793  0.7665
  768MOL0     H 3662   3.944   8.304   2.078 -1.8652  3.0163 -0.5780
  768MOL0     H 3663   4.051   8.505   2.094  0.5222 -0.9782 -0.3810
  768MOL0     H 3664   4.061   8.893   1.729  0.1862 -2.8624  1.3564
  768MOL0     H 3665   4.146   9.107   1.658 -0.0180  0.7726  1.4463
  768MOL0     H 3666   5.720   9.336   0.892  4.7134 -1.5580  1.2628
  768MOL0     H 3667   5.965   9.342   0.922  2.1135 -0.2397 -3.2083
  768MOL0     H 3668   6.385   9.568   0.932 -1.1470  2.0431  0.9856
  768MOL0     H 3669   6.608   9.509   0.961  1.4544 -0.1065  2.5688
  768MOL0     H 3670   6.684   9.124   1.181  0.2701  0.1551 -2.1472
  768MOL0     H 3671   6.850   9.172   1.166 -0.4585 -1.8278  1.5499
  768MOL0     H 3672   6.696   9.291   1.384  2.2143  2.6491  1.8960
  768MOL0     H 3673   6.864   9.321   1.343  1.0869  0.1758 -1.6832
  768MOL0     H 3674   6.769   9.045   1.422 -0.1024  0.7197 -1.9607
  768MOL0     H 3675   6.805   9.165   1.537  0.7761 -0.0269 -0.5972
  768MOL0     H 3676   7.027   9.202   1.468 -0.5010  0.9482 -3.2900
  768MOL0     H 3677   7.008   9.092   1.328 -0.1091  1.0046 -0.0533
  768MOL0     H 3678   7.058   8.813   1.656  0.2165 -0.6619 -0.7882
  768MOL0     H 3679   6.490   9.193   1.237  1.9835  0.3153 -0.8904
  768MOL0     H 3680   6.264   9.263   1.220 -0.0449  0.5760 -0.1471
  769MOL0     O 3681   5.673   0.538   4.164  0.6945  0.0835  0.0647
  769MOL0     C 3682   5.601   0.639   4.156 -0.0981 -0.5248 -0.3901
  769MOL0     O 3683   5.563   0.720   4.258  0.0438  0.7236  0.1942
  769MOL0     C 3684   5.594   0.699   4.392 -0.4254 -0.4301  0.5213
  769MOL0     C 3685   5.619   0.819   4.463 -0.6274  0.1148  0.0848
  769MOL0     C 3686   5.637   0.809   4.600 -0.2711 -0.3928  0.1140
  769MOL0     C 3687   5.635   0.687   4.663  0.7993  1.0652  0.0743
  769MOL0     O 3688   5.675   0.688   4.796 -0.0495  0.3258  0.2725
  769MOL0     C 3689   5.720   0.559   4.847 -0.5995  0.1303  0.2686
  769MOL0     C 3690   5.800   0.589   4.968  0.0664  0.1680 -0.2374
  769MOL0     C 3691   5.817   0.466   5.065 -0.3519 -0.4409 -0.4962
  769MOL0     C 3692   5.868   0.350   4.988 -0.3013 -0.1055  0.0402
  769MOL0     C 3693   5.898   0.232   5.083  0.8143 -0.2996 -0.9387
  769MOL0     C 3694   5.790   0.129   5.087 -0.9767 -0.2938  0.0094
  769MOL0     C 3695   5.802   0.029   5.209  1.1280 -0.2167  0.6793
  769MOL0     C 3696   5.661  -0.009   5.234  0.3549  0.8354 -0.4489
  769MOL0     N 3697   5.642  -0.099   5.350 -0.3189  0.2105  0.2709
  769MOL0     C 3698   5.665  -0.237   5.343  0.6553  0.3155 -0.3526
  769MOL0     C 3699   5.632  -0.278   5.472 -0.9565 -0.0356 -0.9333
  769MOL0     C 3700   5.647  -0.421   5.519 -0.3900 -1.5318  0.3865
  769MOL0     C 3701   5.740  -0.429   5.642 -0.4209  1.5327  0.8187
  769MOL0     C 3702   5.748  -0.572   5.690 -0.2094  0.3692 -0.8559
  769MOL0     C 3703   5.869  -0.606   5.786  0.2182  0.1672 -0.7488
  769MOL0     O 3704   5.877  -0.740   5.832  0.6983 -0.0068 -0.0277
  769MOL0     C 3705   5.775  -0.800   5.912 -0.0749  0.3906 -0.0787
  769MOL0     C 3706   5.779  -0.939   5.915 -0.4174  1.2363  0.5443
  769MOL0     C 3707   5.681  -1.030   5.973  0.0938  0.1520 -0.4320
  769MOL0     C 3708   5.703  -1.173   5.932  0.0776  0.0103 -0.3086
  769MOL0     C 3709   5.574  -0.967   6.047  0.4133  0.0068  0.3144
  769MOL0     C 3710   5.447  -1.033   6.098  0.5097 -0.3249  0.0033
  769MOL0     O 3711   5.365  -0.949   6.182  0.2881 -0.1237  0.1477
  769MOL0     C 3712   5.236  -0.994   6.201  0.4459 -1.3863 -0.4528
  769MOL0     C 3713   5.223  -1.112   6.270 -0.0516 -0.4622 -0.1060
  769MOL0     C 3714   5.095  -1.176   6.284 -0.2840 -0.1309  0.6132
  769MOL0     C 3715   4.981  -1.104   6.227 -0.6463  0.4439  0.5079
  769MOL0     O 3716   4.862  -1.177   6.236 -0.8892 -0.2561  0.0779
  769MOL0     C 3717   4.738  -1.101   6.251  0.6061  0.3216  0.5864
  769MOL0     C 3718   4.616  -1.184   6.211  0.6703  0.3221  0.7622
  769MOL0     C 3719   4.644  -1.223   6.062  0.0252  0.2513 -0.5777
  769MOL0     C 3720   4.531  -1.301   5.988  0.2540 -0.6962 -0.5357
  769MOL0     C 3721   4.567  -1.386   5.863 -0.8096  0.4349  0.2333
  769MOL0     C 3722   4.545  -1.309   5.729 -0.3213  0.3023 -0.2865
  769MOL0     C 3723   4.633  -1.365   5.613 -0.1339  0.0885  0.3849
  769MOL0     C 3724   4.569  -1.322   5.475 -0.6199 -0.5334 -0.2101
  769MOL0    Cl 3725   4.542  -1.140   5.477  0.3658 -0.2786 -0.1629
  769MOL0     C 3726   4.999  -0.982   6.158 -0.8738 -0.2309 -0.1422
  769MOL0     C 3727   5.126  -0.920   6.149 -0.4242 -0.3039  0.0583
  769MOL0     O 3728   5.414  -1.143   6.052 -0.6208  0.3571 -0.3290
  769MOL0     C 3729   5.589  -0.821   6.075 -0.2177 -0.1192 -0.7301
  769MOL0     C 3730   5.686  -0.751   6.003 -0.6752 -0.3498  0.3695
  769MOL0     N 3731   5.613  -0.160   5.553  1.9741 -0.1314 -0.5058
  769MOL0     N 3732   5.615  -0.057   5.476 -0.1318 -0.0733 -0.2367
  769MOL0     C 3733   5.596   0.573   4.590 -0.3831  0.3446 -0.8640
  769MOL0     C 3734   5.589   0.576   4.455 -0.2561  0.5963 -0.6364
  769MOL0     C 3735   5.553   0.670   4.029  1.1008  0.4431  0.5894
  769MOL0     C 3736   5.486   0.789   4.014 -0.2133 -0.7016 -0.3309
  769MOL0     C 3737   5.420   0.821   3.898 -0.1925 -0.2146  1.0888
  769MOL0     C 3738   5.401   0.731   3.794 -0.2729 -0.3146 -0.8301
  769MOL0     O 3739   5.341   0.762   3.676 -0.0036 -0.8065  0.4095
  769MOL0     C 3740   5.439   0.810   3.581  0.1577  1.1765  0.5484
  769MOL0     C 3741   5.435   0.961   3.572 -0.4836 -0.1290 -0.9691
  769MOL0     C 3742   5.532   1.000   3.460 -0.9027 -0.5573 -0.6334
  769MOL0     C 3743   5.574   1.142   3.464  0.7857 -0.2038  0.3227
  769MOL0     C 3744   5.635   1.184   3.590 -0.2192  0.3133 -0.1997
  769MOL0     C 3745   5.679   1.203   3.701 -0.6448  0.7156 -0.4802
  769MOL0     C 3746   5.475   0.608   3.809  0.5822 -0.1830  0.5219
  769MOL0     C 3747   5.536   0.574   3.925  0.7749 -0.4501  0.7783
  769MOL0     H 3748   5.643   0.913   4.413  1.9045 -1.4069 -1.8012
  769MOL0     H 3749   5.680   0.893   4.654  1.9467 -0.4671 -1.4183
  769MOL0     H 3750   5.642   0.486   4.867  1.6166 -2.2660  0.6484
  769MOL0     H 3751   5.789   0.509   4.778  0.7248 -0.0662  1.6760
  769MOL0     H 3752   5.896   0.638   4.949  0.1598  1.1885  2.4145
  769MOL0     H 3753   5.745   0.667   5.022  0.6683  0.9219 -0.6924
  769MOL0     H 3754   5.883   0.494   5.147 -4.5116  3.7834  1.9231
  769MOL0     H 3755   5.725   0.437   5.118 -0.3049  1.9181  1.0381
  769MOL0     H 3756   5.799   0.314   4.911 -2.6994 -1.2647  2.5515
  769MOL0     H 3757   5.968   0.377   4.953 -1.0586  0.4993 -1.7648
  769MOL0     H 3758   5.988   0.179   5.051 -0.2104 -0.6570 -3.3731
  769MOL0     H 3759   5.906   0.275   5.184 -2.3924  3.6603 -2.1097
  769MOL0     H 3760   5.696   0.185   5.086 -0.7195  0.3441  3.0527
  769MOL0     H 3761   5.787   0.078   4.990 -4.3511 -0.6098  0.1463
  769MOL0     H 3762   5.868  -0.049   5.168  1.8356  0.5638  0.3081
  769MOL0     H 3763   5.857   0.071   5.293  5.8941 -0.0827 -2.1102
  769MOL0     H 3764   5.612  -0.058   5.150  0.7030 -1.2279  0.4991
  769MOL0     H 3765   5.608   0.084   5.257 -0.9603  0.0979 -0.3987
  769MOL0     H 3766   5.691  -0.301   5.260  1.4220 -0.7507  0.6776
  769MOL0     H 3767   5.546  -0.453   5.547 -1.2323 -0.9715 -1.8547
  769MOL0     H 3768   5.679  -0.487   5.438 -0.0189 -1.7729  0.7212
  769MOL0     H 3769   5.708  -0.364   5.725  0.3448  1.3819  1.2366
  769MOL0     H 3770   5.843  -0.407   5.613  0.3295 -0.1768  1.9740
  769MOL0     H 3771   5.764  -0.638   5.604  1.4671 -2.4238  1.4235
  769MOL0     H 3772   5.651  -0.596   5.734 -2.0218  0.7555 -4.3088
  769MOL0     H 3773   5.856  -0.531   5.865  1.7668 -0.7691  0.4666
  769MOL0     H 3774   5.965  -0.585   5.738  0.2100 -0.5291 -1.0923
  769MOL0     H 3775   5.841  -0.989   5.842 -2.3082  0.3394 -0.5245
  769MOL0     H 3776   5.644  -1.182   5.840 -2.8180 -3.0188  1.6314
  769MOL0     H 3777   5.809  -1.192   5.916  0.4906  0.1557  1.9423
  769MOL0     H 3778   5.681  -1.242   6.014  5.1721 -0.5448  0.9226
  769MOL0     H 3779   5.313  -1.155   6.312  0.4435  1.8498  1.3703
  769MOL0     H 3780   5.072  -1.264   6.343  0.2259 -1.3069 -0.8767
  769MOL0     H 3781   4.727  -1.069   6.355 -2.8455 -0.0408  0.4446
  769MOL0     H 3782   4.729  -1.018   6.181 -0.7094  1.3695  1.9588
  769MOL0     H 3783   4.594  -1.274   6.270 -0.0363 -0.2228 -0.3039
  769MOL0     H 3784   4.524  -1.126   6.209  1.1183  1.0305 -0.8975
  769MOL0     H 3785   4.725  -1.297   6.061 -1.8260 -1.8756 -1.8170
  769MOL0     H 3786   4.683  -1.148   5.992  2.2546 -1.4642 -1.2667
  769MOL0     H 3787   4.476  -1.361   6.062 -0.8880  2.6314  1.5037
  769MOL0     H 3788   4.451  -1.239   5.947  3.0451  1.3429 -3.3328
  769MOL0     H 3789   4.504  -1.476   5.859 -3.2867  1.8561  2.9161
  769MOL0     H 3790   4.673  -1.410   5.869 -0.7914  0.6199  0.7333
  769MOL0     H 3791   4.436  -1.312   5.713 -0.5294  2.2762  0.5046
  769MOL0     H 3792   4.573  -1.206   5.749  0.0848 -0.0301  0.9855
  769MOL0     H 3793   4.649  -1.473   5.614  0.2222  0.1426  0.8549
  769MOL0     H 3794   4.728  -1.313   5.627  0.3784 -0.1478 -1.8153
  769MOL0     H 3795   4.488  -1.380   5.432 -0.1695 -2.8191  1.8276
  769MOL0     H 3796   4.657  -1.339   5.411 -2.4548  0.1690 -3.1067
  769MOL0     H 3797   4.925  -0.943   6.090 -0.2216  1.3780  0.0380
  769MOL0     H 3798   5.134  -0.832   6.085  1.3487 -0.6625 -0.2556
  769MOL0     H 3799   5.523  -0.776   6.148 -0.5606 -2.4353  0.4855
  769MOL0     H 3800   5.706  -0.646   6.019 -0.3853 -0.5594  1.5205
  769MOL0     H 3801   5.601   0.472   4.629  2.8237  0.8382  0.3633
  769MOL0     H 3802   5.580   0.486   4.395  3.1395 -0.7843  0.6624
  769MOL0     H 3803   5.493   0.869   4.086 -1.7941 -1.8003  1.1117
  769MOL0     H 3804   5.381   0.919   3.872 -1.2352 -0.8969 -0.0150
  769MOL0     H 3805   5.539   0.780   3.614 -0.7090 -0.9559  1.3984
  769MOL0     H 3806   5.412   0.755   3.491 -0.4462 -1.1524  2.0737
  769MOL0     H 3807   5.450   1.017   3.664 -1.6891  1.5910 -1.7597
  769MOL0     H 3808   5.329   0.975   3.547 -0.7450  1.0927  0.6563
  769MOL0     H 3809   5.486   0.970   3.365 -1.4916 -2.8369  0.3044
  769MOL0     H 3810   5.605   0.920   3.471 -1.7282 -1.1596  0.6410
  769MOL0     H 3811   5.482   1.200   3.450 -1.5282 -2.4110  4.2597
  769MOL0     H 3812   5.645   1.170   3.386  1.7220  1.1270  1.6043
  769MOL0     H 3813   5.730   1.205   3.795  1.1958 -0.2428 -1.4137
  769MOL0     H 3814   5.487   0.545   3.721  1.2131  0.2349  0.3049
  769MOL0     H 3815   5.587   0.478   3.932 -0.1230 -0.8679  1.7553
  770MOL0     O 3816   3.451   0.086   6.794  0.2816  0.7614  0.2152
  770MOL0     C 3817   3.374   0.175   6.815  0.1180 -0.6884 -0.2887
  770MOL0     O 3818   3.352   0.289   6.735  1.0109  0.0757 -0.0601
  770MOL0     C 3819   3.419   0.288   6.615 -0.3734 -0.7369 -0.0072
  770MOL0     C 3820   3.560   0.296   6.599 -0.3417  0.0952 -0.4780
  770MOL0     C 3821   3.611   0.316   6.475 -0.1495  0.2504  0.6243
  770MOL0     C 3822   3.529   0.314   6.364 -0.3218  0.0830  0.2995
  770MOL0     O 3823   3.582   0.313   6.236  1.0317 -0.4576 -0.4010
  770MOL0     C 3824   3.669   0.424   6.200  0.3467  0.7975 -0.5910
  770MOL0     C 3825   3.685   0.429   6.056  0.1107 -0.6027  0.6651
  770MOL0     C 3826   3.746   0.295   6.004 -0.6394 -0.0185  0.6619
  770MOL0     C 3827   3.846   0.304   5.889  0.5464  1.6366 -0.4822
  770MOL0     C 3828   3.788   0.328   5.746  0.0613  0.2856  1.0045
  770MOL0     C 3829   3.898   0.348   5.636 -0.9828 -0.4793  1.2044
  770MOL0     C 3830   3.834   0.300   5.500  0.2676  1.2942 -0.1928
  770MOL0     C 3831   3.843   0.139   5.488 -0.6264 -0.6287 -0.2840
  770MOL0     N 3832   3.800   0.080   5.351 -0.0758 -0.0177 -0.7519
  770MOL0     C 3833   3.699  -0.013   5.333 -0.7563 -0.5014  0.8682
  770MOL0     C 3834   3.716  -0.054   5.203  1.3902 -0.4674  0.3267
  770MOL0     C 3835   3.635  -0.149   5.132  1.0252 -0.9397 -0.3791
  770MOL0     C 3836   3.524  -0.214   5.216 -0.5628  0.1799  1.0971
  770MOL0     C 3837   3.449  -0.332   5.145  0.8793 -0.1955 -0.7783
  770MOL0     C 3838   3.353  -0.293   5.044  0.8110  0.5047 -0.0769
  770MOL0     O 3839   3.329  -0.392   4.948  0.0072  1.0388  0.1014
  770MOL0     C 3840   3.253  -0.497   4.978  0.6158 -0.3897  0.7816
  770MOL0     C 3841   3.318  -0.611   5.023  0.6466  0.0060 -0.2813
  770MOL0     C 3842   3.259  -0.732   5.027  0.0794  0.2341  0.0826
  770MOL0     C 3843   3.331  -0.846   5.069 -0.2373  0.4735 -0.7633
  770MOL0     C 3844   3.115  -0.739   4.995  0.0948 -0.6583  0.3446
  770MOL0     C 3845   3.029  -0.859   5.022 -0.1135 -0.3485  0.4200
  770MOL0     O 3846   3.014  -0.959   4.932  0.0042 -0.4801 -0.3802
  770MOL0     C 3847   2.899  -1.034   4.931  0.9202 -0.2488 -0.1618
  770MOL0     C 3848   2.780  -0.988   4.986  0.2310  0.4492  0.7098
  770MOL0     C 3849   2.677  -1.064   4.983  0.2334  0.5471 -0.0330
  770MOL0     C 3850   2.684  -1.197   4.923 -0.3655  0.4875  0.0530
  770MOL0     O 3851   2.577  -1.281   4.929  0.5129 -0.5600 -0.6843
  770MOL0     C 3852   2.546  -1.377   4.829 -0.3755  1.0779  0.1640
  770MOL0     C 3853   2.517  -1.506   4.913 -0.3707 -0.4296 -0.1622
  770MOL0     C 3854   2.579  -1.634   4.862 -0.4926  0.3118 -0.5737
  770MOL0     C 3855   2.582  -1.753   4.968 -0.0145  0.4639  0.7475
  770MOL0     C 3856   2.585  -1.885   4.905 -0.9779  0.9940  0.1968
  770MOL0     C 3857   2.459  -1.928   4.835 -0.5371  0.6178 -0.3082
  770MOL0     C 3858   2.465  -2.077   4.791 -0.3974  0.3996 -0.0024
  770MOL0     C 3859   2.401  -2.165   4.893 -0.4549 -0.7211  0.2858
  770MOL0    Cl 3860   2.341  -2.321   4.833 -0.3035  0.4979 -0.0351
  770MOL0     C 3861   2.810  -1.242   4.880 -0.3958  0.9170 -0.7290
  770MOL0     C 3862   2.920  -1.162   4.889 -0.5452  0.4416 -0.5161
  770MOL0     O 3863   2.984  -0.857   5.135  0.3600 -0.3753 -0.0066
  770MOL0     C 3864   3.051  -0.622   4.941 -1.2100  0.0898 -1.2651
  770MOL0     C 3865   3.120  -0.503   4.940  0.1080  0.1632 -0.8243
  770MOL0     N 3866   3.811   0.022   5.144  0.3403 -0.3945  0.2539
  770MOL0     N 3867   3.867   0.092   5.239  0.3034  0.3715 -0.9432
  770MOL0     C 3868   3.391   0.300   6.380  0.0436  0.3821 -0.1555
  770MOL0     C 3869   3.335   0.291   6.503  0.5947  0.6724  0.2274
  770MOL0     C 3870   3.295   0.163   6.932  0.6525  1.1619 -0.3597
  770MOL0     C 3871   3.279   0.032   6.993  0.2450  0.0779  0.8297
  770MOL0     C 3872   3.221   0.021   7.114  0.9627  0.5178 -0.1334
  770MOL0     C 3873   3.192   0.132   7.193 -0.0783  0.5413  0.4414
  770MOL0     O 3874   3.166   0.118   7.333 -0.5309  0.1360  0.4004
  770MOL0     C 3875   3.127  -0.011   7.379  0.7210 -0.8281  1.3259
  770MOL0     C 3876   3.060  -0.023   7.514  0.2750 -0.3206  0.9982
  770MOL0     C 3877   2.925   0.051   7.501 -0.2368  0.5298  0.0635
  770MOL0     C 3878   2.856   0.058   7.640 -0.3251 -0.5855 -0.2234
  770MOL0     C 3879   2.739   0.148   7.633  1.0429 -1.0582  0.1519
  770MOL0     C 3880   2.637   0.212   7.622  0.4275 -1.1787  0.3246
  770MOL0     C 3881   3.202   0.255   7.132 -0.4073 -0.3286  0.0967
  770MOL0     C 3882   3.257   0.274   7.004  0.0513 -0.1067 -0.4236
  770MOL0     H 3883   3.635   0.290   6.677  0.9343  0.9052 -1.5980
  770MOL0     H 3884   3.719   0.319   6.486 -0.2116 -0.8946  1.8549
  770MOL0     H 3885   3.611   0.508   6.240  0.0040  0.9467 -1.3794
  770MOL0     H 3886   3.764   0.404   6.250 -0.9028 -1.5719  1.0546
  770MOL0     H 3887   3.588   0.451   6.010 -0.2877 -0.8303  1.3909
  770MOL0     H 3888   3.755   0.509   6.027  3.1829 -1.2014  5.2674
  770MOL0     H 3889   3.808   0.243   6.078  0.7803 -1.0941 -1.1892
  770MOL0     H 3890   3.661   0.230   5.981 -0.5456 -0.3586  1.2379
  770MOL0     H 3891   3.903   0.393   5.919 -1.9956  2.8335  1.2034
  770MOL0     H 3892   3.895   0.207   5.894  0.3754  1.5119 -1.1853
  770MOL0     H 3893   3.709   0.255   5.723 -2.5072  3.4316 -0.9645
  770MOL0     H 3894   3.732   0.421   5.762 -1.7585 -0.9438  2.2159
  770MOL0     H 3895   3.932   0.451   5.626  2.8900 -1.8272 -1.7225
  770MOL0     H 3896   3.990   0.294   5.660  0.4798 -0.1287 -2.8840
  770MOL0     H 3897   3.728   0.321   5.515  0.3683  3.3503 -1.7383
  770MOL0     H 3898   3.876   0.358   5.416 -0.1850  3.4747  1.0089
  770MOL0     H 3899   3.781   0.106   5.572  1.4852  1.0689  2.0860
  770MOL0     H 3900   3.947   0.120   5.514 -1.6007 -2.8135  2.5695
  770MOL0     H 3901   3.619  -0.035   5.404  0.3270  0.7494  2.5624
  770MOL0     H 3902   3.582  -0.093   5.055 -0.5184 -0.5605  0.9087
  770MOL0     H 3903   3.697  -0.231   5.094  2.2874 -1.0595  1.7672
  770MOL0     H 3904   3.453  -0.134   5.240 -0.6647  0.3198  0.3401
  770MOL0     H 3905   3.571  -0.249   5.309 -0.9877 -1.0803  0.8552
  770MOL0     H 3906   3.391  -0.392   5.216  1.1493 -3.5418 -3.1542
  770MOL0     H 3907   3.513  -0.412   5.106  1.2179  1.5293 -4.0422
  770MOL0     H 3908   3.403  -0.222   4.977  1.9084 -0.8284 -0.7280
  770MOL0     H 3909   3.255  -0.260   5.080  0.5181 -2.3595  2.1810
  770MOL0     H 3910   3.424  -0.612   5.045  1.2447 -0.5639 -2.8639
  770MOL0     H 3911   3.346  -0.831   5.176 -2.2777  1.4451 -0.5509
  770MOL0     H 3912   3.275  -0.939   5.058  2.2090 -1.5920  2.5990
  770MOL0     H 3913   3.413  -0.861   4.998 -0.6090 -1.8152 -0.7831
  770MOL0     H 3914   2.765  -0.887   5.023  2.3069  0.9613  0.2936
  770MOL0     H 3915   2.576  -1.025   4.995 -0.3696 -0.4179 -1.6461
  770MOL0     H 3916   2.454  -1.337   4.785 -0.1775  0.0181 -1.2972
  770MOL0     H 3917   2.617  -1.402   4.750 -0.0233  0.8117  0.5587
  770MOL0     H 3918   2.573  -1.479   5.003  1.9421  0.6529 -1.8219
  770MOL0     H 3919   2.413  -1.527   4.936 -0.3182 -0.8696 -0.3251
  770MOL0     H 3920   2.682  -1.614   4.834 -0.5535  0.7468 -0.4947
  770MOL0     H 3921   2.523  -1.659   4.771 -1.8069 -0.9793  0.5394
  770MOL0     H 3922   2.668  -1.726   5.031  0.0820  1.3724  0.2521
  770MOL0     H 3923   2.489  -1.747   5.025 -0.8093  1.5192 -0.5868
  770MOL0     H 3924   2.612  -1.961   4.978 -1.7272 -1.5079 -1.9780
  770MOL0     H 3925   2.669  -1.881   4.834 -1.5726  2.6829 -0.4745
  770MOL0     H 3926   2.374  -1.914   4.902 -1.7257  1.1898 -1.8672
  770MOL0     H 3927   2.438  -1.875   4.742 -1.2049 -2.7294 -2.2381
  770MOL0     H 3928   2.567  -2.117   4.781 -1.1203 -1.0371 -2.9549
  770MOL0     H 3929   2.414  -2.096   4.696 -0.1417 -0.3704  0.0084
  770MOL0     H 3930   2.327  -2.104   4.946 -1.4126 -0.1153 -1.6393
  770MOL0     H 3931   2.473  -2.178   4.975  0.5849  1.1417 -0.2659
  770MOL0     H 3932   2.819  -1.344   4.843 -0.6156  1.0904 -1.2740
  770MOL0     H 3933   3.021  -1.198   4.871  2.3619  5.1301  3.7105
  770MOL0     H 3934   2.951  -0.634   4.901 -1.8462 -2.9251  0.8403
  770MOL0     H 3935   3.058  -0.424   4.899 -1.6664  1.1318  3.2709
  770MOL0     H 3936   3.337   0.300   6.286  0.7050 -0.3132 -0.5437
  770MOL0     H 3937   3.228   0.286   6.520  0.0774 -0.1188 -2.6604
  770MOL0     H 3938   3.317  -0.054   6.940  4.2149  2.1259 -0.0134
  770MOL0     H 3939   3.192  -0.080   7.141  1.5562  0.6502  1.0768
  770MOL0     H 3940   3.055  -0.054   7.308 -0.1658  1.2292  0.9125
  770MOL0     H 3941   3.215  -0.076   7.371  0.7707 -0.8358  1.8638
  770MOL0     H 3942   3.119   0.032   7.589  0.6467  1.0830 -0.2717
  770MOL0     H 3943   3.045  -0.129   7.535 -1.9754  0.5782  4.9020
  770MOL0     H 3944   2.861  -0.008   7.434 -0.3702  0.2581  0.4257
  770MOL0     H 3945   2.938   0.149   7.454 -3.4114 -0.2742 -2.9402
  770MOL0     H 3946   2.925   0.091   7.719  0.9586  0.5588 -1.7522
  770MOL0     H 3947   2.818  -0.037   7.680  1.5373 -0.3037  2.5231
  770MOL0     H 3948   2.549   0.273   7.628 -0.8754 -3.0390  1.1822
  770MOL0     H 3949   3.183   0.346   7.189 -2.7679  1.9102 -3.8218
  770MOL0     H 3950   3.252   0.372   6.957 -1.1372 -0.8667 -1.9923
  771MOL0     O 3951   2.567   7.464   5.467  0.4703 -0.2025  0.7158
  771MOL0     C 3952   2.689   7.455   5.456 -0.7215  0.5181 -0.8698
  771MOL0     O 3953   2.768   7.416   5.564  0.0040  0.1431  0.6173
  771MOL0     C 3954   2.711   7.380   5.682  0.3993  0.4260 -0.3254
  771MOL0     C 3955   2.757   7.440   5.802  0.1063 -0.6767 -0.1159
  771MOL0     C 3956   2.690   7.408   5.919 -0.8838 -0.2687  0.7714
  771MOL0     C 3957   2.577   7.334   5.934 -0.3947  0.7336  0.1578
  771MOL0     O 3958   2.512   7.326   6.050  0.3589  0.2224  0.0360
  771MOL0     C 3959   2.375   7.271   6.050 -0.2162  0.2657  0.2052
  771MOL0     C 3960   2.310   7.270   6.185 -0.1921  0.1032 -0.0666
  771MOL0     C 3961   2.171   7.233   6.185 -0.7714 -0.2787 -0.2640
  771MOL0     C 3962   2.101   7.260   6.326 -0.0055 -0.5069  0.1240
  771MOL0     C 3963   1.958   7.220   6.303  0.5031  0.6422 -0.1949
  771MOL0     C 3964   1.886   7.187   6.434 -0.2436 -0.8351 -0.0201
  771MOL0     C 3965   1.738   7.150   6.405  1.8891  0.5164  0.4382
  771MOL0     C 3966   1.665   7.107   6.538 -0.1762  0.5369 -0.9606
  771MOL0     N 3967   1.522   7.068   6.537 -0.8568 -0.0751  0.7270
  771MOL0     C 3968   1.436   7.156   6.588 -0.6403  0.5205 -0.4746
  771MOL0     C 3969   1.313   7.092   6.583  0.0684 -0.1544  0.5977
  771MOL0     C 3970   1.181   7.162   6.618 -0.2961  1.2324  0.0376
  771MOL0     C 3971   1.106   7.111   6.736  1.0306  0.2233  0.3782
  771MOL0     C 3972   1.038   6.965   6.723  0.8229  0.0867  0.6004
  771MOL0     C 3973   0.955   6.938   6.852  0.5251  0.7175  0.2895
  771MOL0     O 3974   0.920   6.799   6.852 -0.6574 -0.0761 -0.5684
  771MOL0     C 3975   0.811   6.763   6.941  0.2493 -0.3545  0.3685
  771MOL0     C 3976   0.752   6.847   7.037 -0.2466 -0.0549 -0.1337
  771MOL0     C 3977   0.677   6.791   7.144  0.2845  0.5903 -0.5664
  771MOL0     C 3978   0.654   6.891   7.257  0.4866  0.1544  0.1516
  771MOL0     C 3979   0.655   6.651   7.156  0.3724 -0.1076 -0.1552
  771MOL0     C 3980   0.590   6.570   7.261  0.8274  0.6718 -1.1728
  771MOL0     O 3981   0.487   6.646   7.331 -0.4726  0.3853 -0.1678
  771MOL0     C 3982   0.393   6.582   7.400  0.0732 -0.0714  0.3485
  771MOL0     C 3983   0.261   6.596   7.353 -0.5506 -1.0780  0.9427
  771MOL0     C 3984   0.162   6.522   7.423 -0.8649 -0.1083  0.8384
  771MOL0     C 3985   0.191   6.444   7.534  0.3017  0.4758 -0.4647
  771MOL0     O 3986   0.098   6.389   7.615  0.6255  0.4592  0.4738
  771MOL0     C 3987  -0.017   6.460   7.645 -0.0251 -0.4644 -0.6074
  771MOL0     C 3988  -0.073   6.412   7.775 -0.3797 -0.3184 -0.4820
  771MOL0     C 3989   0.031   6.416   7.892  0.5136  0.3576 -0.6883
  771MOL0     C 3990  -0.032   6.426   8.027  0.2338  0.1020 -0.1080
  771MOL0     C 3991   0.062   6.464   8.148 -0.8110  0.2838  0.9067
  771MOL0     C 3992  -0.006   6.422   8.284 -0.2990 -0.1218 -0.2701
  771MOL0     C 3993   0.093   6.442   8.402 -0.4211  0.1009 -0.6637
  771MOL0     C 3994   0.041   6.331   8.503 -0.0317 -0.5502  0.2416
  771MOL0    Cl 3995  -0.118   6.380   8.576 -0.3385  0.6415  0.1919
  771MOL0     C 3996   0.323   6.436   7.580 -0.7186  0.5322  1.1294
  771MOL0     C 3997   0.423   6.504   7.509 -0.7454  0.5839 -0.0175
  771MOL0     O 3998   0.627   6.456   7.291  0.1027  0.0329  0.3271
  771MOL0     C 3999   0.708   6.575   7.053 -0.3945 -0.4353  0.3540
  771MOL0     C 4000   0.779   6.626   6.938  0.0734 -0.2908 -0.0587
  771MOL0     N 4001   1.327   6.968   6.519  0.3425  0.7714 -0.0050
  771MOL0     N 4002   1.458   6.956   6.484 -0.0342 -0.6766  0.2180
  771MOL0     C 4003   2.525   7.281   5.813  0.9020 -0.0287  0.6128
  771MOL0     C 4004   2.601   7.295   5.692 -0.3312  0.5618  0.0322
  771MOL0     C 4005   2.751   7.491   5.326 -0.7104  0.0876 -0.0197
  771MOL0     C 4006   2.668   7.520   5.214 -0.6521 -0.1493  0.0292
  771MOL0     C 4007   2.728   7.533   5.088 -0.1277  0.0495  0.7670
  771MOL0     C 4008   2.863   7.503   5.078 -1.4159  0.2440 -0.2976
  771MOL0     O 4009   2.924   7.509   4.953 -0.7158  0.2184  0.1704
  771MOL0     C 4010   2.865   7.608   4.858  0.1429  1.1655 -0.0811
  771MOL0     C 4011   2.953   7.628   4.737 -0.0311  0.2356 -0.4177
  771MOL0     C 4012   3.028   7.505   4.673 -0.1071  0.5213  0.4563
  771MOL0     C 4013   2.921   7.395   4.628 -0.0496  0.8190 -0.6211
  771MOL0     C 4014   3.006   7.294   4.579 -1.1816  0.4637 -0.2908
  771MOL0     C 4015   3.085   7.209   4.548  0.0973 -1.3566 -0.6967
  771MOL0     C 4016   2.945   7.461   5.185  0.0290 -0.0345 -0.0475
  771MOL0     C 4017   2.887   7.468   5.310 -0.4786  0.2876 -0.6805
  771MOL0     H 4018   2.851   7.494   5.790  0.9543 -1.9687  0.4699
  771MOL0     H 4019   2.723   7.463   6.007 -0.7232  0.2268  0.4078
  771MOL0     H 4020   2.318   7.329   5.977  1.6238  0.3044 -1.2805
  771MOL0     H 4021   2.399   7.169   6.020  4.7303  0.1516  3.4431
  771MOL0     H 4022   2.364   7.218   6.265 -0.6127  1.3200  1.0407
  771MOL0     H 4023   2.302   7.377   6.209 -4.4641  0.2785 -1.4506
  771MOL0     H 4024   2.130   7.304   6.113 -4.0120  0.9180  2.4574
  771MOL0     H 4025   2.158   7.134   6.139  2.8443 -1.5243  1.0351
  771MOL0     H 4026   2.150   7.190   6.394  0.9450 -0.0080 -0.0142
  771MOL0     H 4027   2.110   7.361   6.367  0.7877  0.5432 -2.4326
  771MOL0     H 4028   1.912   7.311   6.263  0.6510  0.9889  0.4153
  771MOL0     H 4029   1.937   7.136   6.236  1.6233 -0.4156  0.7244
  771MOL0     H 4030   1.935   7.097   6.475 -0.8019 -0.5996  1.2277
  771MOL0     H 4031   1.897   7.273   6.501  1.6823  0.7718 -2.2340
  771MOL0     H 4032   1.689   7.241   6.367  0.5024 -0.7537 -0.9954
  771MOL0     H 4033   1.735   7.065   6.336  1.8423 -0.0174  1.0942
  771MOL0     H 4034   1.671   7.200   6.595 -3.8999  0.0321  0.5886
  771MOL0     H 4035   1.728   7.035   6.592 -2.2172 -0.1201  0.6800
  771MOL0     H 4036   1.454   7.256   6.626 -1.2575  0.2685  0.5170
  771MOL0     H 4037   1.198   7.266   6.645 -2.6243  1.4715  0.7620
  771MOL0     H 4038   1.108   7.168   6.536 -0.6597  3.0094  0.4582
  771MOL0     H 4039   1.024   7.183   6.741 -0.8273 -1.5978 -1.5699
  771MOL0     H 4040   1.169   7.116   6.825 -4.1529  3.5437  4.3831
  771MOL0     H 4041   1.127   6.902   6.726  0.7907  0.0580  1.0776
  771MOL0     H 4042   0.990   6.942   6.628  2.0401  2.3745 -0.6522
  771MOL0     H 4043   0.860   6.989   6.834 -0.4563 -1.7284 -2.3065
  771MOL0     H 4044   1.003   6.973   6.943 -0.2878  2.3398  0.1262
  771MOL0     H 4045   0.779   6.951   7.024 -1.7966  0.0746 -2.9752
  771MOL0     H 4046   0.675   6.850   7.356 -3.8710  0.9241  1.6331
  771MOL0     H 4047   0.710   6.982   7.236  0.9895  0.1526  1.4083
  771MOL0     H 4048   0.546   6.905   7.266  0.9434  3.8334  1.3945
  771MOL0     H 4049   0.238   6.662   7.271  4.3052 -0.1986  0.0092
  771MOL0     H 4050   0.060   6.546   7.396  0.0931  2.5564 -0.8591
  771MOL0     H 4051   0.006   6.566   7.657  2.8449 -1.1171  0.5308
  771MOL0     H 4052  -0.089   6.451   7.563 -0.5612 -1.3408 -0.0619
  771MOL0     H 4053  -0.165   6.470   7.787 -1.1759 -1.3024 -1.5985
  771MOL0     H 4054  -0.104   6.308   7.759  1.1277 -0.6220 -1.6051
  771MOL0     H 4055   0.109   6.493   7.890  2.9623 -1.9833 -3.3813
  771MOL0     H 4056   0.080   6.319   7.881  0.7653  0.7380 -3.9938
  771MOL0     H 4057  -0.104   6.508   8.024 -1.5809 -1.4519 -2.6196
  771MOL0     H 4058  -0.090   6.340   8.060 -1.1662  1.8562  2.3359
  771MOL0     H 4059   0.083   6.571   8.158  0.5572 -0.0736  2.1476
  771MOL0     H 4060   0.163   6.421   8.146 -0.8458  0.1149 -2.0742
  771MOL0     H 4061  -0.094   6.483   8.306 -1.1639  0.2229 -3.9878
  771MOL0     H 4062  -0.059   6.326   8.283 -1.9733  0.7497 -1.9165
  771MOL0     H 4063   0.082   6.537   8.455  0.9798  0.1640 -0.4547
  771MOL0     H 4064   0.194   6.407   8.378 -1.6618 -4.9077  0.2590
  771MOL0     H 4065   0.122   6.332   8.576  3.5204  2.9793 -3.2276
  771MOL0     H 4066   0.053   6.234   8.453  2.4217  1.3197 -3.2477
  771MOL0     H 4067   0.346   6.384   7.672  0.5144 -0.2325  0.4178
  771MOL0     H 4068   0.524   6.502   7.550 -1.5368  1.5263  2.1352
  771MOL0     H 4069   0.688   6.468   7.048  0.5283 -0.7359  2.2006
  771MOL0     H 4070   0.813   6.548   6.872 -3.5925 -3.2674  1.1909
  771MOL0     H 4071   2.433   7.226   5.797  3.2301 -3.6393 -2.4228
  771MOL0     H 4072   2.578   7.238   5.602  2.0377  0.1818 -0.4179
  771MOL0     H 4073   2.561   7.532   5.229 -0.7577 -1.9018  0.9533
  771MOL0     H 4074   2.669   7.570   5.005  0.8927  1.9466  0.8464
  771MOL0     H 4075   2.770   7.574   4.816  1.2108  1.4153 -2.8591
  771MOL0     H 4076   2.852   7.706   4.904 -0.8233  0.6112  0.8913
  771MOL0     H 4077   3.042   7.686   4.764  1.7822 -1.4385 -2.4472
  771MOL0     H 4078   2.888   7.681   4.666  0.8745  3.6966  1.1383
  771MOL0     H 4079   3.110   7.466   4.733  2.2502  2.0637 -1.5688
  771MOL0     H 4080   3.078   7.538   4.582 -0.5432 -1.8804 -0.7350
  771MOL0     H 4081   2.863   7.435   4.545 -0.4149  2.3708  0.3437
  771MOL0     H 4082   2.862   7.352   4.711 -3.6958 -2.0472 -4.2506
  771MOL0     H 4083   3.149   7.126   4.528 -0.9270 -3.0434  2.3771
  771MOL0     H 4084   3.050   7.442   5.163  0.6004 -0.6310  2.8210
  771MOL0     H 4085   2.954   7.444   5.392  2.2274 -1.4502 -3.2327
  772MOL0     O 4086  10.026   3.984  10.173  0.0689 -0.9904 -0.0552
  772MOL0     C 4087  10.141   4.035  10.181  1.7497  1.0328 -0.1080
  772MOL0     O 4088  10.224   4.030  10.289 -0.1674  0.2709  0.6902
  772MOL0     C 4089  10.210   3.947  10.394  0.1564 -0.7168  0.3334
  772MOL0     C 4090  10.122   3.839  10.399 -0.2857  0.2961  0.3257
  772MOL0     C 4091  10.079   3.774  10.519  0.3685 -0.5139  0.4824
  772MOL0     C 4092  10.124   3.822  10.639  0.7368 -0.1797  0.2618
  772MOL0     O 4093  10.079   3.756  10.749 -0.0273 -0.2275 -1.0302
  772MOL0     C 4094  10.055   3.838  10.866  0.8216  0.4448 -0.7378
  772MOL0     C 4095  10.042   3.755  10.995  0.3782 -0.1863 -0.0223
  772MOL0     C 4096   9.971   3.836  11.113  0.7228 -0.0829  0.1007
  772MOL0     C 4097  10.064   3.926  11.203  0.9333  0.5295 -1.1428
  772MOL0     C 4098   9.978   3.961  11.322 -0.7127 -0.6295 -0.6493
  772MOL0     C 4099  10.029   4.080  11.397 -0.4202  0.3445  0.6012
  772MOL0     C 4100  10.138   4.049  11.499 -0.0160  0.2747  0.4451
  772MOL0     C 4101  10.210   4.162  11.553 -0.4062  0.2779 -0.9687
  772MOL0     N 4102  10.134   4.273  11.623  0.7264 -0.3262  0.7834
  772MOL0     C 4103  10.040   4.357  11.564  1.6447  0.1668  0.5907
  772MOL0     C 4104  10.016   4.450  11.655 -0.3041 -0.3006  0.1154
  772MOL0     C 4105   9.932   4.582  11.637  0.0572 -0.5830 -0.0149
  772MOL0     C 4106   9.825   4.572  11.744 -1.2479  0.0702  0.7086
  772MOL0     C 4107   9.720   4.467  11.730 -0.3707  0.0974  0.4432
  772MOL0     C 4108   9.616   4.501  11.617 -0.1855 -0.5213  0.1847
  772MOL0     O 4109   9.656   4.492  11.486 -0.3758  0.2875  0.1632
  772MOL0     C 4110   9.596   4.408  11.404 -0.1556  0.0917 -0.2424
  772MOL0     C 4111   9.507   4.461  11.317 -0.7628 -0.7140  0.4276
  772MOL0     C 4112   9.430   4.371  11.238 -0.1835  0.5548 -0.5879
  772MOL0     C 4113   9.328   4.432  11.149 -0.2884 -0.5776 -0.6440
  772MOL0     C 4114   9.447   4.232  11.241  0.1036  0.5220  0.6929
  772MOL0     C 4115   9.381   4.126  11.157 -0.0957 -0.7920 -0.2077
  772MOL0     O 4116   9.383   3.996  11.197 -1.3003 -0.3313  0.7670
  772MOL0     C 4117   9.261   3.937  11.179 -0.5265  0.7490 -0.8397
  772MOL0     C 4118   9.138   3.999  11.189 -0.0183  0.5245  0.4167
  772MOL0     C 4119   9.018   3.916  11.185 -0.4554 -1.1850  0.0976
  772MOL0     C 4120   9.028   3.785  11.153  0.6349  0.1916  0.5035
  772MOL0     O 4121   8.920   3.708  11.158 -0.6338  0.4212 -0.4621
  772MOL0     C 4122   8.862   3.675  11.028 -0.2518  0.1338 -0.2627
  772MOL0     C 4123   8.739   3.576  11.034 -0.3697 -0.1350 -0.4736
  772MOL0     C 4124   8.715   3.466  10.922  0.7321 -0.7283  0.5956
  772MOL0     C 4125   8.613   3.365  10.964  0.3037 -0.4902 -0.6179
  772MOL0     C 4126   8.602   3.245  10.871  0.0586  0.0509  0.5818
  772MOL0     C 4127   8.497   3.141  10.909 -0.5597 -0.5785 -0.7330
  772MOL0     C 4128   8.359   3.190  10.869  0.5459  0.0228 -0.5969
  772MOL0     C 4129   8.256   3.085  10.878  0.0412 -0.7811 -0.4145
  772MOL0    Cl 4130   8.228   3.031  11.048 -0.3284 -0.2158 -0.0924
  772MOL0     C 4131   9.148   3.728  11.136 -0.5128 -0.1362  0.7720
  772MOL0     C 4132   9.271   3.800  11.152 -0.1200 -0.3650 -0.4926
  772MOL0     O 4133   9.364   4.161  11.046 -0.4654  0.0900  0.2498
  772MOL0     C 4134   9.546   4.184  11.326  1.0896  0.0048 -0.0202
  772MOL0     C 4135   9.614   4.266  11.411 -0.4526 -0.0219 -0.1809
  772MOL0     N 4136  10.095   4.427  11.762 -0.2736  0.9043 -0.7323
  772MOL0     N 4137  10.169   4.322  11.742  0.3684  0.2324  0.6426
  772MOL0     C 4138  10.234   3.908  10.635  1.0074 -0.1548 -0.7239
  772MOL0     C 4139  10.267   3.972  10.513  0.1805  0.5290 -0.3961
  772MOL0     C 4140  10.191   4.096  10.056 -0.0335  0.1737  0.6544
  772MOL0     C 4141  10.134   4.075   9.932 -0.8207  0.0182  0.6278
  772MOL0     C 4142  10.178   4.150   9.820  0.2962  0.6856 -0.0286
  772MOL0     C 4143  10.286   4.240   9.824 -0.2286 -0.6016  0.0555
  772MOL0     O 4144  10.332   4.307   9.714  0.3436  0.1582 -0.2979
  772MOL0     C 4145  10.475   4.314   9.703 -0.3610  0.1115  0.2050
  772MOL0     C 4146  10.508   4.374   9.562  0.0513  0.5503 -0.2435
  772MOL0     C 4147  10.479   4.524   9.566 -0.2827 -0.9407  0.3464
  772MOL0     C 4148  10.556   4.598   9.458 -0.5185  0.5785 -0.4103
  772MOL0     C 4149  10.514   4.737   9.476  0.0864  0.5451  0.3759
  772MOL0     C 4150  10.507   4.862   9.478  0.6352  0.4401 -0.5436
  772MOL0     C 4151  10.350   4.251   9.953 -0.5287 -1.4251 -0.6021
  772MOL0     C 4152  10.300   4.184  10.064 -0.2241  0.0963  0.3803
  772MOL0     H 4153  10.091   3.797  10.304  3.8012 -2.1176 -0.1970
  772MOL0     H 4154  10.005   3.695  10.529  1.6425 -1.7884  0.2611
  772MOL0     H 4155  10.136   3.905  10.895 -0.2185  1.2571  0.3765
  772MOL0     H 4156   9.964   3.892  10.837  0.3476  0.7476  1.1796
  772MOL0     H 4157   9.992   3.659  10.978  0.5941 -0.4726  0.9066
  772MOL0     H 4158  10.137   3.712  11.025  0.9168  0.0128 -1.3515
  772MOL0     H 4159   9.885   3.896  11.079 -0.6161 -1.2012  1.3863
  772MOL0     H 4160   9.923   3.756  11.170  2.1259  0.5876  2.3436
  772MOL0     H 4161  10.140   3.855  11.236 -0.0781 -1.1292 -2.2362
  772MOL0     H 4162  10.097   4.012  11.142  5.1906  0.0042  0.0820
  772MOL0     H 4163   9.876   3.974  11.286 -0.3641  0.7096 -1.2253
  772MOL0     H 4164   9.976   3.884  11.400  0.5580 -1.2960 -1.2321
  772MOL0     H 4165  10.067   4.153  11.325 -0.0134  0.2630  0.7289
  772MOL0     H 4166   9.941   4.120  11.448 -0.7087 -0.7112  0.9593
  772MOL0     H 4167  10.100   3.998  11.588 -1.6993  2.5154  1.0982
  772MOL0     H 4168  10.218   3.991  11.452 -0.7739  0.3951 -1.0556
  772MOL0     H 4169  10.270   4.221  11.483  0.8960  2.8697  2.0860
  772MOL0     H 4170  10.286   4.112  11.614 -0.3519 -0.7446 -1.8353
  772MOL0     H 4171  10.008   4.361  11.461  2.0356  2.4499  0.5113
  772MOL0     H 4172   9.985   4.677  11.648 -1.3572  0.4231 -1.4833
  772MOL0     H 4173   9.887   4.597  11.538  1.0057  0.2865 -0.3353
  772MOL0     H 4174   9.788   4.675  11.750  1.3920  1.4435 -2.7710
  772MOL0     H 4175   9.884   4.543  11.831 -0.5038  2.6228  1.1500
  772MOL0     H 4176   9.674   4.450  11.828  2.4225 -1.9625  1.5493
  772MOL0     H 4177   9.766   4.370  11.707  2.2215  1.0607  1.2089
  772MOL0     H 4178   9.563   4.597  11.624 -2.0548 -1.5391  0.8255
  772MOL0     H 4179   9.544   4.419  11.626 -0.0981 -0.6328 -0.1091
  772MOL0     H 4180   9.484   4.565  11.338 -0.3026 -0.7758  1.2838
  772MOL0     H 4181   9.330   4.541  11.160 -0.8295 -0.5055 -1.1983
  772MOL0     H 4182   9.352   4.410  11.045  1.6929 -0.7458 -0.1876
  772MOL0     H 4183   9.227   4.395  11.172  0.2402 -0.5712  2.0228
  772MOL0     H 4184   9.123   4.105  11.210 -0.0405  1.2638 -2.8271
  772MOL0     H 4185   8.927   3.958  11.227  1.0660  0.9691  1.4186
  772MOL0     H 4186   8.832   3.744  10.948  0.5372 -2.5736 -3.0757
  772MOL0     H 4187   8.934   3.618  10.970  0.1208  2.6065 -2.4511
  772MOL0     H 4188   8.732   3.532  11.134 -2.8417  2.2311  0.5371
  772MOL0     H 4189   8.643   3.629  11.038 -1.5855 -2.0382 -2.1204
  772MOL0     H 4190   8.812   3.422  10.900  0.8249 -0.4450  0.4384
  772MOL0     H 4191   8.688   3.517  10.829  3.7077 -0.1357 -0.0185
  772MOL0     H 4192   8.640   3.321  11.061 -0.3593  1.9542  0.7591
  772MOL0     H 4193   8.510   3.402  10.955  0.1238 -0.7708  0.1964
  772MOL0     H 4194   8.698   3.193  10.869 -1.7033 -3.4647 -1.5987
  772MOL0     H 4195   8.581   3.279  10.770  0.8341  3.2339  1.3767
  772MOL0     H 4196   8.496   3.048  10.851 -0.1979  1.1033 -3.6066
  772MOL0     H 4197   8.510   3.113  11.014 -1.1250  1.3007 -0.1298
  772MOL0     H 4198   8.346   3.210  10.762 -0.9790 -4.3245 -1.4468
  772MOL0     H 4199   8.337   3.285  10.919 -0.4588  0.6673 -2.2073
  772MOL0     H 4200   8.289   2.998  10.820  0.6723 -0.1578 -1.0021
  772MOL0     H 4201   8.165   3.120  10.828  1.4248  0.1093 -2.4149
  772MOL0     H 4202   9.162   3.621  11.120  2.9136 -0.2024  3.1878
  772MOL0     H 4203   9.373   3.764  11.157  0.5541  0.3061 -5.0937
  772MOL0     H 4204   9.579   4.081  11.324  0.7046 -0.1377 -2.4100
  772MOL0     H 4205   9.683   4.220  11.481  0.2645 -0.0293 -0.8733
  772MOL0     H 4206  10.286   3.940  10.725  0.1788  2.1703 -1.0298
  772MOL0     H 4207  10.339   4.052  10.531  0.3011  0.1334  1.0078
  772MOL0     H 4208  10.055   4.002   9.917  1.1118 -1.6306 -2.5310
  772MOL0     H 4209  10.129   4.128   9.725  1.3095 -1.1839 -0.1728
  772MOL0     H 4210  10.519   4.374   9.783 -0.9346  0.7160  0.0775
  772MOL0     H 4211  10.523   4.216   9.708  1.5211  0.9489 -0.8004
  772MOL0     H 4212  10.456   4.310   9.491  0.6775 -0.1649 -0.0678
  772MOL0     H 4213  10.614   4.358   9.539  1.3101 -1.4085  5.2272
  772MOL0     H 4214  10.524   4.558   9.660  2.5696 -1.6454 -0.6425
  772MOL0     H 4215  10.374   4.554   9.562  0.5428  2.1481 -2.0752
  772MOL0     H 4216  10.541   4.558   9.357  1.1180  1.6185 -1.1021
  772MOL0     H 4217  10.662   4.589   9.481 -0.7822  1.8113  1.5864
  772MOL0     H 4218  10.514   4.969   9.469  1.4339  0.3718 -0.8266
  772MOL0     H 4219  10.436   4.312   9.976  1.4065 -3.9412 -0.8050
  772MOL0     H 4220  10.336   4.206  10.164  1.5581 -1.1968  0.0635
  773MOL0     O 4221   9.428   9.580   4.297 -0.4393 -0.4504  0.1845
  773MOL0     C 4222   9.370   9.565   4.192 -0.7446 -0.5197  0.0466
  773MOL0     O 4223   9.418   9.618   4.076 -0.2712  0.3453  0.1858
  773MOL0     C 4224   9.498   9.724   4.091 -0.0034  0.1164 -0.4153
  773MOL0     C 4225   9.635   9.723   4.120  0.0838  1.0076 -0.2334
  773MOL0     C 4226   9.727   9.830   4.109  0.4682  1.2170  0.7193
  773MOL0     C 4227   9.672   9.952   4.075  0.1741  0.5818  0.7452
  773MOL0     O 4228   9.774  10.042   4.049 -0.2100  0.2401  0.4957
  773MOL0     C 4229   9.759  10.185   4.083  0.0565 -0.7146  0.5050
  773MOL0     C 4230   9.889  10.270   4.081 -0.4522  0.7240 -0.6947
  773MOL0     C 4231   9.941  10.299   4.221  0.2542 -0.4107 -0.1623
  773MOL0     C 4232   9.866  10.426   4.273 -0.2868  0.1230 -1.4196
  773MOL0     C 4233   9.959  10.522   4.361 -0.0707 -0.3390 -0.5206
  773MOL0     C 4234  10.023  10.459   4.491 -0.7853 -0.2883 -0.0875
  773MOL0     C 4235   9.916  10.374   4.573  0.0327 -0.3006  0.9783
  773MOL0     C 4236   9.973  10.328   4.713  0.2524 -0.5177  0.6172
  773MOL0     N 4237   9.870  10.255   4.787  0.0793 -0.7622 -0.1416
  773MOL0     C 4238   9.749  10.298   4.831 -0.0634 -0.5531  0.7753
  773MOL0     C 4239   9.705  10.195   4.902 -0.8361  0.0777 -1.2247
  773MOL0     C 4240   9.566  10.191   4.967 -0.0904 -0.5068  0.2524
  773MOL0     C 4241   9.560  10.068   5.062 -0.2509  0.1032  0.2682
  773MOL0     C 4242   9.423  10.019   5.086 -0.3906  0.1892 -0.4678
  773MOL0     C 4243   9.431   9.932   5.220 -0.8442 -0.1053  0.6305
  773MOL0     O 4244   9.295   9.897   5.253  0.3256  0.3328 -0.2346
  773MOL0     C 4245   9.270   9.812   5.362 -1.0012  0.1676 -0.0654
  773MOL0     C 4246   9.140   9.781   5.396 -0.3125 -1.0586 -0.8931
  773MOL0     C 4247   9.118   9.689   5.498 -0.7776  0.0954 -0.3204
  773MOL0     C 4248   8.972   9.673   5.530  0.4896 -0.3009  1.1490
  773MOL0     C 4249   9.220   9.618   5.567 -1.1865  0.0777 -0.1775
  773MOL0     C 4250   9.187   9.506   5.657  0.2919 -0.3278  0.4380
  773MOL0     O 4251   9.291   9.463   5.729 -1.0560  0.0749 -0.0035
  773MOL0     C 4252   9.263   9.372   5.835 -0.4366  0.2734  0.6407
  773MOL0     C 4253   9.230   9.240   5.813 -0.1466  0.5820 -0.4748
  773MOL0     C 4254   9.190   9.167   5.925  0.5113 -0.4909  0.9268
  773MOL0     C 4255   9.178   9.227   6.054 -0.2731  0.1438  0.4482
  773MOL0     O 4256   9.128   9.141   6.147 -0.0969  0.2689  0.0878
  773MOL0     C 4257   9.176   9.158   6.285 -0.3108  0.1862 -0.0918
  773MOL0     C 4258   9.177   9.021   6.349  0.8646  0.5249 -0.1345
  773MOL0     C 4259   9.217   9.035   6.497  0.5180 -0.3715 -0.3010
  773MOL0     C 4260   9.104   9.099   6.587 -0.0138  0.5086 -1.4396
  773MOL0     C 4261   9.111   9.092   6.740  1.3491 -0.0132 -0.1089
  773MOL0     C 4262   9.138   8.948   6.784 -0.0368 -0.3683  1.0383
  773MOL0     C 4263   9.143   8.953   6.931  0.0640 -0.1661  0.8409
  773MOL0     C 4264   9.132   8.818   6.996  0.1188  0.2949  0.2717
  773MOL0    Cl 4265   9.126   8.827   7.174 -0.0404  0.0782  0.1380
  773MOL0     C 4266   9.208   9.358   6.069  0.5078  0.2555 -0.8147
  773MOL0     C 4267   9.251   9.432   5.964 -0.2235 -0.7725 -0.9236
  773MOL0     O 4268   9.082   9.449   5.641  0.5887 -0.4649  0.1750
  773MOL0     C 4269   9.348   9.661   5.534  0.4261  0.6992 -0.3624
  773MOL0     C 4270   9.374   9.741   5.423  0.3407 -0.7908 -0.5162
  773MOL0     N 4271   9.802  10.092   4.901  0.4133  0.4659 -0.0960
  773MOL0     N 4272   9.900  10.141   4.836 -0.3028  1.0917 -0.4987
  773MOL0     C 4273   9.532   9.968   4.061  0.2038 -0.4284  0.2130
  773MOL0     C 4274   9.448   9.854   4.067  0.1179 -0.3500  0.8120
  773MOL0     C 4275   9.243   9.479   4.162 -0.2792  1.0557 -0.1200
  773MOL0     C 4276   9.150   9.439   4.269  0.6299 -0.5086 -0.1080
  773MOL0     C 4277   9.031   9.365   4.248 -0.8034 -1.1393 -0.3622
  773MOL0     C 4278   9.011   9.321   4.112  0.7379  0.2567  0.3782
  773MOL0     O 4279   8.897   9.245   4.093  0.7223 -0.1325  0.3336
  773MOL0     C 4280   8.892   9.168   3.965 -0.4670  0.2506 -0.2524
  773MOL0     C 4281   8.778   9.075   3.963  0.3985  0.0893 -0.1184
  773MOL0     C 4282   8.655   9.145   3.897 -0.2821 -0.7347 -0.3842
  773MOL0     C 4283   8.528   9.079   3.946  0.4401  0.1727 -0.8716
  773MOL0     C 4284   8.494   9.073   4.090  0.4749 -0.2933 -0.1110
  773MOL0     C 4285   8.485   9.075   4.215 -0.3667 -0.5333 -0.1415
  773MOL0     C 4286   9.096   9.355   4.007 -0.5102 -0.1020  0.2872
  773MOL0     C 4287   9.216   9.423   4.034 -0.2536 -0.2427 -0.3667
  773MOL0     H 4288   9.682   9.626   4.132  0.3875  0.8321 -2.3860
  773MOL0     H 4289   9.835   9.823   4.120  0.1898 -1.0085  3.6100
  773MOL0     H 4290   9.692  10.240   4.016  1.5514 -1.0562 -1.3372
  773MOL0     H 4291   9.714  10.193   4.183 -1.0436 -0.1693 -0.0255
  773MOL0     H 4292   9.967  10.209   4.035  0.1008  0.7966  0.1212
  773MOL0     H 4293   9.862  10.358   4.021  1.5604  2.2894  0.5672
  773MOL0     H 4294   9.933  10.214   4.290  1.4097  1.5431  2.5652
  773MOL0     H 4295  10.045  10.332   4.212  0.4018 -0.6676  0.5432
  773MOL0     H 4296   9.833  10.489   4.190  2.1591  1.6871 -1.3027
  773MOL0     H 4297   9.778  10.396   4.330 -0.6995  3.6385  0.0579
  773MOL0     H 4298  10.028  10.576   4.295 -0.2750  1.8570  0.9559
  773MOL0     H 4299   9.901  10.611   4.385  1.4275 -0.2844  3.8252
  773MOL0     H 4300  10.105  10.394   4.458 -0.4845 -0.7991  1.5801
  773MOL0     H 4301  10.063  10.540   4.553 -0.6330  0.5605 -1.2438
  773MOL0     H 4302   9.824  10.431   4.587 -0.5399 -1.1347  0.6856
  773MOL0     H 4303   9.881  10.286   4.519 -0.1030  0.4525 -0.2072
  773MOL0     H 4304  10.010  10.418   4.764 -1.8533 -0.1184  1.5760
  773MOL0     H 4305  10.060  10.268   4.688  0.3350  0.1369 -0.7138
  773MOL0     H 4306   9.703  10.396   4.822 -0.4104 -0.6069  1.7809
  773MOL0     H 4307   9.561  10.287   5.019  0.0138  1.2716 -2.8105
  773MOL0     H 4308   9.487  10.187   4.891 -1.6229  1.9319  1.5866
  773MOL0     H 4309   9.615  10.095   5.153  1.6655  0.9468 -1.0728
  773MOL0     H 4310   9.609   9.983   5.014 -3.6267 -1.8332 -0.0730
  773MOL0     H 4311   9.383   9.968   4.997  0.0948  0.3257 -0.7698
  773MOL0     H 4312   9.370  10.114   5.100  0.8446  1.0399 -1.4022
  773MOL0     H 4313   9.486   9.996   5.289  0.9856 -0.5925 -0.3189
  773MOL0     H 4314   9.494   9.845   5.199 -0.6629 -0.7001  3.2437
  773MOL0     H 4315   9.057   9.829   5.346  1.5756 -0.0455 -3.2965
  773MOL0     H 4316   8.918   9.756   5.485 -1.6352 -1.9922  0.4099
  773MOL0     H 4317   8.934   9.583   5.481  0.5744  1.2480 -1.9818
  773MOL0     H 4318   8.956   9.661   5.638  4.3688  1.9225  2.1429
  773MOL0     H 4319   9.229   9.202   5.711  0.5278 -0.8478  0.0341
  773MOL0     H 4320   9.160   9.066   5.900  2.5919 -0.5627 -1.6946
  773MOL0     H 4321   9.278   9.198   6.286 -0.8739  2.1173 -3.3656
  773MOL0     H 4322   9.111   9.231   6.334 -2.2687  1.2574 -3.8536
  773MOL0     H 4323   9.081   8.968   6.347 -0.3352  2.6507 -0.9482
  773MOL0     H 4324   9.250   8.948   6.313  2.7332  0.9178  2.5931
  773MOL0     H 4325   9.303   9.103   6.503 -1.2743  2.1211 -1.3355
  773MOL0     H 4326   9.242   8.934   6.533 -2.7676 -0.6688  1.5016
  773MOL0     H 4327   9.108   9.204   6.560 -1.8353  1.8840  2.8328
  773MOL0     H 4328   9.010   9.050   6.559 -1.7784  1.3176  2.3960
  773MOL0     H 4329   9.016   9.130   6.780  0.3610 -1.3779 -1.0716
  773MOL0     H 4330   9.198   9.149   6.771  0.9170  1.0176 -0.7359
  773MOL0     H 4331   9.084   8.866   6.736  0.8891 -0.3480 -0.1010
  773MOL0     H 4332   9.242   8.929   6.754 -0.3437 -0.0549 -0.3179
  773MOL0     H 4333   9.063   9.022   6.960 -0.2041  0.6252 -1.5134
  773MOL0     H 4334   9.239   8.996   6.962 -0.0988 -0.8065  2.3319
  773MOL0     H 4335   9.213   8.757   6.956  1.0353  1.5175  0.2337
  773MOL0     H 4336   9.038   8.773   6.962  0.7043 -1.7013  1.1179
  773MOL0     H 4337   9.205   9.409   6.165  1.4451  2.5574 -1.9494
  773MOL0     H 4338   9.270   9.539   5.973  1.6192 -1.1902  0.8356
  773MOL0     H 4339   9.427   9.615   5.592 -0.7621 -0.5797  0.3100
  773MOL0     H 4340   9.477   9.755   5.391  1.4419 -3.7957  1.3804
  773MOL0     H 4341   9.480  10.063   4.045 -3.4415 -2.2310  0.2244
  773MOL0     H 4342   9.342   9.868   4.047  0.7014  0.1726 -2.3662
  773MOL0     H 4343   9.159   9.469   4.373 -1.6472  0.4909 -0.1358
  773MOL0     H 4344   8.960   9.335   4.324 -0.8504 -2.4760 -0.9141
  773MOL0     H 4345   8.886   9.236   3.879  1.6142  1.1370  0.2338
  773MOL0     H 4346   8.988   9.119   3.950 -0.7167 -1.6461  3.2466
  773MOL0     H 4347   8.766   9.045   4.067 -0.8502  1.8118  0.2741
  773MOL0     H 4348   8.810   8.986   3.907 -2.5508 -3.0554  2.7221
  773MOL0     H 4349   8.672   9.149   3.789  0.5072 -2.3373 -0.3594
  773MOL0     H 4350   8.653   9.248   3.932  1.7502 -1.1640  1.1309
  773MOL0     H 4351   8.524   8.979   3.901 -0.8787 -0.8067  1.2924
  773MOL0     H 4352   8.456   9.149   3.902 -0.7767 -0.5406 -0.0676
  773MOL0     H 4353   8.494   9.073   4.321  2.2898  2.0520 -0.1953
  773MOL0     H 4354   9.085   9.339   3.900 -0.4470  0.7982  0.1439
  773MOL0     H 4355   9.284   9.437   3.950  0.7523 -1.6228  0.1822
  774MOL0     O 4356   4.250   7.213   0.036  0.2253 -0.2660  0.1488
  774MOL0     C 4357   4.257   7.108  -0.036  1.3515  0.1695 -0.5487
  774MOL0     O 4358   4.173   6.997  -0.027 -0.1753  0.2222 -0.9287
  774MOL0     C 4359   4.071   6.994   0.058  0.6290  0.3127 -1.1755
  774MOL0     C 4360   3.969   6.909   0.029  0.1995 -1.0398  0.5222
  774MOL0     C 4361   3.856   6.886   0.110  0.3804 -0.0083 -0.4803
  774MOL0     C 4362   3.842   6.973   0.222  0.8001 -0.5120 -0.2274
  774MOL0     O 4363   3.740   6.979   0.321 -0.0014 -0.0152 -0.1498
  774MOL0     C 4364   3.636   6.882   0.326  0.2098 -0.7668  0.5704
  774MOL0     C 4365   3.516   6.947   0.409 -0.0598 -0.4643 -0.4276
  774MOL0     C 4366   3.532   7.013   0.544 -0.4203 -0.4404  0.2390
  774MOL0     C 4367   3.564   7.156   0.542  0.0436  0.2926  0.0006
  774MOL0     C 4368   3.588   7.209   0.690  0.6252 -0.5126 -0.5969
  774MOL0     C 4369   3.573   7.366   0.699 -0.7825  0.6805  0.6383
  774MOL0     C 4370   3.708   7.424   0.638 -0.0856 -0.2087  0.1452
  774MOL0     C 4371   3.684   7.569   0.612  1.0449 -0.6091 -0.0884
  774MOL0     N 4372   3.797   7.647   0.566  0.7305 -0.9393  0.0153
  774MOL0     C 4373   3.793   7.751   0.482  0.2031 -0.2447 -0.1193
  774MOL0     C 4374   3.921   7.801   0.480 -0.2552  0.8828 -0.2129
  774MOL0     C 4375   3.975   7.912   0.391 -0.2413 -0.6448  0.3438
  774MOL0     C 4376   3.919   8.046   0.417  0.4561  0.5845  0.2100
  774MOL0     C 4377   3.961   8.103   0.552 -0.2694 -0.5315 -0.3147
  774MOL0     C 4378   3.896   8.042   0.676 -0.2065  0.2293  0.1466
  774MOL0     O 4379   3.757   8.080   0.677 -0.4276 -0.4114  0.7755
  774MOL0     C 4380   3.683   8.036   0.785 -0.4530 -0.1023 -0.1690
  774MOL0     C 4381   3.693   7.916   0.847 -0.0132 -0.5030 -0.3507
  774MOL0     C 4382   3.626   7.885   0.967 -0.6979 -0.0370 -0.0529
  774MOL0     C 4383   3.682   7.770   1.054 -0.3975  0.7234 -0.2848
  774MOL0     C 4384   3.536   7.979   1.021  0.1462 -0.2680 -0.8878
  774MOL0     C 4385   3.451   7.954   1.139 -0.0021  1.4946  0.2101
  774MOL0     O 4386   3.425   8.062   1.214  0.0795  0.3779 -0.1711
  774MOL0     C 4387   3.336   8.040   1.317  0.1934  0.0203  1.2958
  774MOL0     C 4388   3.383   8.007   1.446  0.6125  0.4300 -0.0671
  774MOL0     C 4389   3.297   7.993   1.554  0.5957 -0.3028 -0.5648
  774MOL0     C 4390   3.157   8.005   1.531 -0.3774 -0.5000 -0.1219
  774MOL0     O 4391   3.078   7.955   1.631  0.0220 -0.0536 -0.4141
  774MOL0     C 4392   2.970   7.875   1.580  0.6184 -0.5365  0.7230
  774MOL0     C 4393   2.923   7.804   1.711  0.5348  0.2899  0.9125
  774MOL0     C 4394   2.766   7.805   1.743  0.3477 -0.1356  0.1074
  774MOL0     C 4395   2.669   7.814   1.620  0.3090  0.0052 -0.5536
  774MOL0     C 4396   2.525   7.766   1.648  0.1217 -0.5267 -0.3655
  774MOL0     C 4397   2.515   7.626   1.706  0.5310  0.7111 -0.5227
  774MOL0     C 4398   2.377   7.565   1.677  0.0479  0.5668  0.0618
  774MOL0     C 4399   2.379   7.526   1.531  0.3916  0.0114  0.8131
  774MOL0    Cl 4400   2.224   7.433   1.509  0.0242 -0.6600 -0.3565
  774MOL0     C 4401   3.111   8.042   1.402 -0.2009  0.6452 -0.2832
  774MOL0     C 4402   3.201   8.066   1.298 -0.3628  1.1407  0.6142
  774MOL0     O 4403   3.401   7.847   1.148  1.2886 -0.3487  0.2561
  774MOL0     C 4404   3.528   8.105   0.961  0.0286 -0.8830 -1.3171
  774MOL0     C 4405   3.601   8.128   0.846 -0.4459 -0.4375  0.8747
  774MOL0     N 4406   3.987   7.718   0.574 -0.0196  0.6962  0.3340
  774MOL0     N 4407   3.915   7.626   0.631  0.3431  0.0496 -0.6739
  774MOL0     C 4408   3.940   7.064   0.251  0.2817 -0.9132 -0.2096
  774MOL0     C 4409   4.052   7.076   0.172  0.1569 -0.4311  1.2752
  774MOL0     C 4410   4.369   7.093  -0.121  0.1176 -0.3996  0.0264
  774MOL0     C 4411   4.384   6.984  -0.203 -0.8445  0.1724  0.3612
  774MOL0     C 4412   4.498   6.969  -0.279 -0.4461  0.1544 -0.2228
  774MOL0     C 4413   4.592   7.071  -0.296 -0.2011  0.0183  0.6880
  774MOL0     O 4414   4.690   7.039  -0.385 -0.1195 -0.6790 -0.4849
  774MOL0     C 4415   4.785   7.137  -0.415  0.1086 -0.2611  0.2136
  774MOL0     C 4416   4.898   7.089  -0.493  0.2037 -0.2502 -0.2865
  774MOL0     C 4417   4.844   7.055  -0.635  0.9407  0.2840 -0.6280
  774MOL0     C 4418   4.958   6.978  -0.707 -0.4011  0.5145 -0.8121
  774MOL0     C 4419   5.078   7.051  -0.747 -0.3034 -0.0932  0.1501
  774MOL0     C 4420   5.188   7.091  -0.775 -0.4714 -0.6127 -0.1985
  774MOL0     C 4421   4.587   7.180  -0.207 -0.5032  0.7608 -0.7399
  774MOL0     C 4422   4.471   7.199  -0.127  0.1035  0.1281  0.2329
  774MOL0     H 4423   3.982   6.851  -0.062  1.1700  0.6656 -0.4951
  774MOL0     H 4424   3.786   6.803   0.119  0.8102 -0.2909  0.4306
  774MOL0     H 4425   3.597   6.850   0.229  1.6102 -3.1809  0.7172
  774MOL0     H 4426   3.653   6.792   0.385 -0.2794 -0.5387  1.0595
  774MOL0     H 4427   3.472   7.015   0.336  3.2333  1.1635 -1.0799
  774MOL0     H 4428   3.459   6.856   0.434 -0.8779  0.2699  0.4875
  774MOL0     H 4429   3.432   6.997   0.586 -1.1258 -2.7628 -2.0308
  774MOL0     H 4430   3.601   6.947   0.598  0.2239 -2.7073 -3.0356
  774MOL0     H 4431   3.652   7.178   0.480  0.1990  0.0753  0.1448
  774MOL0     H 4432   3.488   7.220   0.496  0.0765 -0.8551 -1.7462
  774MOL0     H 4433   3.514   7.159   0.752 -0.2300  0.0003 -1.1816
  774MOL0     H 4434   3.686   7.168   0.717 -0.4035 -2.8205 -0.1590
  774MOL0     H 4435   3.479   7.392   0.649 -0.9042 -3.0664 -1.4849
  774MOL0     H 4436   3.565   7.397   0.803  2.7487 -0.2864  1.3288
  774MOL0     H 4437   3.783   7.412   0.717  1.7722  1.5784 -1.2615
  774MOL0     H 4438   3.735   7.375   0.544 -1.6667  2.4458 -1.8083
  774MOL0     H 4439   3.634   7.612   0.700 -0.1647 -3.7910  0.9341
  774MOL0     H 4440   3.613   7.574   0.529  1.0836 -1.2722 -0.1638
  774MOL0     H 4441   3.712   7.807   0.436 -0.4581 -1.7802 -0.9026
  774MOL0     H 4442   4.083   7.916   0.379 -0.1326 -2.8414  0.0714
  774MOL0     H 4443   3.935   7.886   0.292 -0.4149 -2.0179  0.7476
  774MOL0     H 4444   3.811   8.033   0.408  0.6595  0.0086 -2.1253
  774MOL0     H 4445   3.948   8.123   0.344 -0.9079  0.0700 -0.9186
  774MOL0     H 4446   3.954   8.212   0.546 -2.3114 -0.4846  1.7391
  774MOL0     H 4447   4.066   8.076   0.538 -0.1966 -3.5708  4.2284
  774MOL0     H 4448   3.942   8.086   0.765 -2.6546  0.4740  1.3799
  774MOL0     H 4449   3.912   7.934   0.678  0.4400  0.2096 -2.2338
  774MOL0     H 4450   3.767   7.842   0.818  1.8490  0.7818  0.9649
  774MOL0     H 4451   3.662   7.680   0.995  0.3501  0.6023 -0.3658
  774MOL0     H 4452   3.791   7.779   1.062 -0.5085  0.4681  2.7038
  774MOL0     H 4453   3.649   7.762   1.158 -1.7935  3.8588 -0.3682
  774MOL0     H 4454   3.489   7.986   1.454  0.5351 -1.2963 -2.4992
  774MOL0     H 4455   3.324   7.964   1.655 -1.1107  2.1368  0.6987
  774MOL0     H 4456   2.890   7.934   1.536  1.1856  2.1136  2.9112
  774MOL0     H 4457   3.000   7.808   1.500  0.8702  1.2608 -0.7609
  774MOL0     H 4458   2.961   7.701   1.715 -0.5468 -0.2226 -0.8057
  774MOL0     H 4459   2.976   7.849   1.795 -0.2467 -0.4561  1.8283
  774MOL0     H 4460   2.750   7.881   1.821 -1.5365 -0.9011  0.5421
  774MOL0     H 4461   2.732   7.720   1.802 -1.0095  0.0716 -0.3398
  774MOL0     H 4462   2.652   7.919   1.595  2.8699  0.1831 -1.9884
  774MOL0     H 4463   2.699   7.761   1.528  1.1286 -1.5309  0.5461
  774MOL0     H 4464   2.463   7.775   1.559 -3.5733 -1.5016  1.8729
  774MOL0     H 4465   2.485   7.841   1.716  2.1532  1.7205 -1.5106
  774MOL0     H 4466   2.589   7.559   1.661  0.4565  1.5862 -2.0293
  774MOL0     H 4467   2.514   7.638   1.815  1.9034  3.7048 -0.7275
  774MOL0     H 4468   2.305   7.646   1.696 -1.3780 -1.0065  1.7061
  774MOL0     H 4469   2.345   7.480   1.738 -1.2026  1.7910  1.1857
  774MOL0     H 4470   2.462   7.468   1.490 -0.0855  0.2034 -0.4663
  774MOL0     H 4471   2.372   7.615   1.467  2.3771  1.6064  2.6372
  774MOL0     H 4472   3.010   8.059   1.366 -0.9736 -3.3242 -0.4195
  774MOL0     H 4473   3.182   8.094   1.195 -2.4628  1.3273  1.0012
  774MOL0     H 4474   3.475   8.188   1.008  0.8770 -0.7260 -0.6034
  774MOL0     H 4475   3.576   8.217   0.789 -2.9591 -3.1680 -2.7844
  774MOL0     H 4476   3.928   7.130   0.336 -2.9742  0.5326 -1.6218
  774MOL0     H 4477   4.125   7.154   0.192  0.0733  0.3997 -1.2694
  774MOL0     H 4478   4.302   6.914  -0.217  0.3988 -0.7630 -3.1116
  774MOL0     H 4479   4.512   6.877  -0.335  3.0493  0.1816  0.4225
  774MOL0     H 4480   4.732   7.218  -0.466  0.1798 -1.2494 -1.4797
  774MOL0     H 4481   4.830   7.184  -0.327  0.1324 -0.1415  0.1385
  774MOL0     H 4482   4.919   7.000  -0.432 -2.6995  1.0662  3.0418
  774MOL0     H 4483   4.974   7.167  -0.493  1.5845 -1.5403 -0.6834
  774MOL0     H 4484   4.807   7.141  -0.691 -2.9734 -1.4444 -1.0116
  774MOL0     H 4485   4.758   6.987  -0.638 -0.7115  2.1699  0.9592
  774MOL0     H 4486   4.922   6.937  -0.802 -0.5731  1.2052 -1.0468
  774MOL0     H 4487   5.002   6.899  -0.645  1.0963  0.4082 -1.9466
  774MOL0     H 4488   5.292   7.110  -0.792  0.4597 -2.8033  2.3930
  774MOL0     H 4489   4.674   7.244  -0.211 -0.8875  1.4923  1.5081
  774MOL0     H 4490   4.461   7.288  -0.065  2.7063  1.0970 -0.5962
  775MOL0     O 4491  10.747   8.522   8.156  0.3038 -0.6874 -0.1600
  775MOL0     C 4492  10.645   8.457   8.181  0.8955 -0.3328  1.3046
  775MOL0     O 4493  10.613   8.330   8.130 -0.6605  0.0878 -0.5374
  775MOL0     C 4494  10.713   8.265   8.057 -0.3778  0.7254 -0.7346
  775MOL0     C 4495  10.850   8.248   8.092  0.3252 -0.3515  0.7618
  775MOL0     C 4496  10.941   8.174   8.016  0.3922  1.0801  0.1718
  775MOL0     C 4497  10.889   8.101   7.904 -0.2853 -0.7695 -0.2695
  775MOL0     O 4498  10.963   8.010   7.822 -0.2702  0.6692  0.0528
  775MOL0     C 4499  11.104   7.988   7.857  0.4199  0.3932  0.7096
  775MOL0     C 4500  11.171   7.958   7.721 -1.6612  0.2578  0.1218
  775MOL0     C 4501  11.310   7.884   7.745 -0.4723 -0.4956  0.1101
  775MOL0     C 4502  11.389   7.880   7.616 -0.4341 -0.8405  0.1257
  775MOL0     C 4503  11.538   7.830   7.642  0.4321  0.2206 -0.0781
  775MOL0     C 4504  11.627   7.929   7.730  0.5256  1.1336 -0.3505
  775MOL0     C 4505  11.782   7.918   7.709 -0.5108 -0.8036  0.5423
  775MOL0     C 4506  11.877   8.017   7.793 -0.9168 -0.1183 -0.2176
  775MOL0     N 4507  11.945   7.942   7.903  0.7451 -0.2015 -0.4946
  775MOL0     C 4508  11.878   7.932   8.020 -0.3078 -0.2068  0.0216
  775MOL0     C 4509  11.963   7.844   8.086 -0.0819 -0.9673 -0.7507
  775MOL0     C 4510  11.938   7.792   8.231 -0.0748  1.0618  0.1080
  775MOL0     C 4511  11.880   7.649   8.216 -1.1227 -1.3892  0.2587
  775MOL0     C 4512  11.996   7.548   8.176  0.3277 -1.1309 -0.7517
  775MOL0     C 4513  11.944   7.410   8.202 -0.5718  0.1406  0.3264
  775MOL0     O 4514  11.939   7.363   8.337 -0.3896 -0.4449  0.9984
  775MOL0     C 4515  11.904   7.244   8.386 -1.1691 -0.7798  0.7496
  775MOL0     C 4516  11.818   7.163   8.317 -1.4254 -0.0959  0.9953
  775MOL0     C 4517  11.771   7.045   8.369 -0.5616  1.3930  0.1354
  775MOL0     C 4518  11.697   6.952   8.275 -0.4301  1.1107  0.7148
  775MOL0     C 4519  11.801   7.014   8.507  0.4182 -0.5472  0.5576
  775MOL0     C 4520  11.746   6.891   8.581 -0.0051  0.6548 -0.3739
  775MOL0     O 4521  11.827   6.836   8.678 -0.3615  0.0733  0.2562
  775MOL0     C 4522  11.793   6.720   8.738  0.5772 -0.6508 -0.4054
  775MOL0     C 4523  11.668   6.684   8.776  0.5575 -0.2046 -1.6425
  775MOL0     C 4524  11.639   6.559   8.841  0.0017 -1.1687  0.2060
  775MOL0     C 4525  11.746   6.474   8.861  0.5273 -0.1210  0.6168
  775MOL0     O 4526  11.698   6.360   8.921 -0.1139 -0.5308  0.9508
  775MOL0     C 4527  11.776   6.286   9.006 -1.7113  1.1314 -0.0665
  775MOL0     C 4528  11.699   6.172   9.075  0.0092 -0.0311  0.2619
  775MOL0     C 4529  11.783   6.062   9.126  0.1691 -0.5206 -0.2608
  775MOL0     C 4530  11.696   5.981   9.227  0.6125 -0.3897 -0.0427
  775MOL0     C 4531  11.755   5.842   9.249  0.9368  0.3728  0.7605
  775MOL0     C 4532  11.895   5.836   9.314  1.1269 -0.1177  0.0225
  775MOL0     C 4533  11.889   5.909   9.451 -0.2164  0.2113  0.9844
  775MOL0     C 4534  12.002   5.866   9.532 -0.2219 -0.0083  0.7617
  775MOL0    Cl 4535  11.981   5.902   9.710 -0.1249  0.2908 -0.6126
  775MOL0     C 4536  11.876   6.505   8.819  0.2428 -0.4492  0.5728
  775MOL0     C 4537  11.901   6.631   8.761  0.4535 -0.5619 -0.5087
  775MOL0     O 4538  11.639   6.849   8.546 -0.3675 -0.6848  0.2712
  775MOL0     C 4539  11.891   7.095   8.574  0.3706  0.4991  0.1705
  775MOL0     C 4540  11.942   7.216   8.516  0.2212  0.0707  0.7861
  775MOL0     N 4541  12.084   7.819   8.011  0.6738  0.0668 -0.0715
  775MOL0     N 4542  12.059   7.862   7.897 -0.1920 -0.2080 -0.1565
  775MOL0     C 4543  10.755   8.118   7.867 -0.3735 -1.0491 -0.4777
  775MOL0     C 4544  10.666   8.190   7.952  0.2899 -0.9509 -1.5145
  775MOL0     C 4545  10.542   8.524   8.260  0.0710  0.2671 -0.3685
  775MOL0     C 4546  10.411   8.477   8.266  0.7777 -0.3016 -0.4751
  775MOL0     C 4547  10.325   8.563   8.338  0.3249  1.2072 -0.1659
  775MOL0     C 4548  10.357   8.685   8.399  0.3694 -0.1302  0.4288
  775MOL0     O 4549  10.256   8.756   8.458  0.1623 -0.5261  0.7839
  775MOL0     C 4550  10.146   8.701   8.531  0.5736 -0.3490  0.6215
  775MOL0     C 4551  10.026   8.709   8.429  0.2860 -0.1678 -0.8398
  775MOL0     C 4552   9.911   8.638   8.491  0.0939  0.1500  0.1337
  775MOL0     C 4553   9.816   8.586   8.380  0.3631  0.2454  0.5645
  775MOL0     C 4554   9.761   8.706   8.312  0.5975 -1.0195  0.4759
  775MOL0     C 4555   9.744   8.810   8.245  0.5755 -0.4729  0.4982
  775MOL0     C 4556  10.485   8.729   8.392 -0.0305  0.2397 -0.6745
  775MOL0     C 4557  10.579   8.647   8.330  0.0826  0.1470 -0.5219
  775MOL0     H 4558  10.888   8.291   8.185  1.5149  1.2973 -0.4121
  775MOL0     H 4559  11.041   8.170   8.059  0.2601 -0.4496  0.4072
  775MOL0     H 4560  11.159   8.072   7.903  2.0986  0.2873 -0.9692
  775MOL0     H 4561  11.119   7.905   7.926 -0.8948 -0.8694 -0.4756
  775MOL0     H 4562  11.102   7.900   7.660  1.1386 -0.4260 -2.6498
  775MOL0     H 4563  11.187   8.046   7.659 -2.0258 -1.4395 -2.5300
  775MOL0     H 4564  11.364   7.944   7.818 -2.2002  2.2896 -0.7714
  775MOL0     H 4565  11.290   7.784   7.786  0.0888  0.8725  4.2115
  775MOL0     H 4566  11.350   7.809   7.542  0.8776  1.0032 -2.5211
  775MOL0     H 4567  11.401   7.975   7.563  3.1216 -1.8795 -1.2770
  775MOL0     H 4568  11.532   7.727   7.678  1.8136  0.5919  1.3415
  775MOL0     H 4569  11.602   7.816   7.554  2.9391 -1.7626  1.8823
  775MOL0     H 4570  11.581   8.024   7.699 -2.0013 -0.3791 -1.6121
  775MOL0     H 4571  11.607   7.913   7.836  1.8125  4.6337  0.5565
  775MOL0     H 4572  11.810   7.814   7.726  0.5559 -0.4290  1.1401
  775MOL0     H 4573  11.793   7.938   7.602 -1.0489  0.9254  0.7667
  775MOL0     H 4574  11.822   8.105   7.829  0.5419  0.9762 -0.5500
  775MOL0     H 4575  11.951   8.051   7.720 -0.9258 -3.5861 -2.0304
  775MOL0     H 4576  11.787   7.981   8.054 -2.1778 -1.5819 -2.6298
  775MOL0     H 4577  12.027   7.790   8.295 -1.2359 -0.6561  1.7847
  775MOL0     H 4578  11.869   7.861   8.280  1.9445  2.7191  0.7999
  775MOL0     H 4579  11.800   7.661   8.142 -2.1823  1.8175  1.7491
  775MOL0     H 4580  11.834   7.629   8.313 -2.0845 -0.2529  0.0684
  775MOL0     H 4581  12.078   7.567   8.246 -0.8897 -1.2007  0.7573
  775MOL0     H 4582  12.030   7.554   8.072  3.3770  0.9225  0.2333
  775MOL0     H 4583  12.008   7.340   8.147 -1.9488 -0.6611 -0.3152
  775MOL0     H 4584  11.844   7.392   8.163 -0.1377 -1.0251 -0.3168
  775MOL0     H 4585  11.798   7.186   8.213  0.3770  0.2791  0.7058
  775MOL0     H 4586  11.588   6.964   8.277 -0.5312  0.6881 -0.7126
  775MOL0     H 4587  11.734   6.975   8.174  1.3949 -0.7315  0.8936
  775MOL0     H 4588  11.717   6.845   8.288  2.4539  1.2973 -1.1435
  775MOL0     H 4589  11.586   6.755   8.770  0.4972  0.2393  2.0384
  775MOL0     H 4590  11.534   6.550   8.868 -1.3844  1.8197 -3.3607
  775MOL0     H 4591  11.865   6.244   8.958 -1.2264  2.0214  0.0288
  775MOL0     H 4592  11.831   6.350   9.076  2.6750 -0.8369 -1.3582
  775MOL0     H 4593  11.636   6.231   9.141  1.5562  2.6084 -0.4677
  775MOL0     H 4594  11.640   6.129   8.993  1.5468  0.1650 -1.0188
  775MOL0     H 4595  11.870   6.100   9.180 -0.3937 -0.8893  0.9322
  775MOL0     H 4596  11.815   5.998   9.043 -1.6619  0.2052 -1.5949
  775MOL0     H 4597  11.699   6.039   9.320  1.2340  0.6168 -0.6762
  775MOL0     H 4598  11.590   5.967   9.203  0.4087 -2.3442  1.6931
  775MOL0     H 4599  11.748   5.792   9.152 -2.8079 -1.4804  1.7996
  775MOL0     H 4600  11.685   5.788   9.313 -0.1977 -0.2314 -0.9329
  775MOL0     H 4601  11.917   5.731   9.333  0.0926 -0.3935 -0.2353
  775MOL0     H 4602  11.962   5.890   9.246 -0.5366  0.6079 -1.1291
  775MOL0     H 4603  11.793   5.889   9.499 -0.6680 -0.7972 -0.2779
  775MOL0     H 4604  11.892   6.018   9.448  0.6372  0.3167  3.3797
  775MOL0     H 4605  12.092   5.904   9.483 -1.1324 -1.6948 -2.5286
  775MOL0     H 4606  12.014   5.758   9.524 -3.7688 -0.6442  2.3172
  775MOL0     H 4607  11.957   6.434   8.828  0.8359 -0.3527 -2.6610
  775MOL0     H 4608  12.005   6.655   8.744  0.5802 -1.5792 -1.2692
  775MOL0     H 4609  11.913   7.063   8.675 -2.7277 -1.7267  0.2630
  775MOL0     H 4610  12.000   7.280   8.582  3.2500 -1.1963 -0.4512
  775MOL0     H 4611  10.717   8.069   7.778 -2.6607 -1.5575  0.6993
  775MOL0     H 4612  10.561   8.164   7.939  0.5328 -3.3711  0.6790
  775MOL0     H 4613  10.388   8.388   8.207  0.4332  0.8652 -2.1804
  775MOL0     H 4614  10.231   8.511   8.353  1.1475 -1.6393 -3.5767
  775MOL0     H 4615  10.171   8.602   8.569  0.8943 -0.2389  0.6993
  775MOL0     H 4616  10.147   8.763   8.621  3.0956  0.0452  0.4139
  775MOL0     H 4617  10.054   8.646   8.344 -0.1319 -0.7446 -0.5609
  775MOL0     H 4618  10.020   8.812   8.394  2.6777  0.3558  0.1052
  775MOL0     H 4619   9.862   8.706   8.561  1.5490  3.4899 -1.7838
  775MOL0     H 4620   9.960   8.562   8.552 -0.3682 -0.0387  0.2712
  775MOL0     H 4621   9.739   8.519   8.420  0.2699 -0.5137 -0.8211
  775MOL0     H 4622   9.875   8.521   8.315  2.3009  1.1315  1.3569
  775MOL0     H 4623   9.742   8.903   8.191  0.2411  0.3224  1.8304
  775MOL0     H 4624  10.523   8.826   8.421 -0.8929  0.4407 -0.1953
  775MOL0     H 4625  10.678   8.686   8.310  1.8768 -1.1548  4.4228
  776MOL0     O 4626   9.582  10.978  11.523  0.1067 -0.1795  0.7445
  776MOL0     C 4627   9.555  10.924  11.629 -0.3622  0.1361  0.3969
  776MOL0     O 4628   9.433  10.871  11.658 -0.5442 -0.6644 -0.9147
  776MOL0     C 4629   9.331  10.889  11.571  1.5078  1.2459 -0.2537
  776MOL0     C 4630   9.229  10.971  11.602 -0.0458 -0.4027 -0.1462
  776MOL0     C 4631   9.115  10.986  11.517  0.0550  0.0864  0.2348
  776MOL0     C 4632   9.098  10.916  11.402 -0.0836 -0.3381 -0.2241
  776MOL0     O 4633   8.974  10.906  11.343 -0.7749 -0.0126 -0.6223
  776MOL0     C 4634   8.950  10.939  11.204 -0.6865 -0.4573 -0.9381
  776MOL0     C 4635   8.931  11.091  11.192 -0.8128 -0.2341  0.3983
  776MOL0     C 4636   8.849  11.113  11.060 -0.6387 -0.6213  0.2940
  776MOL0     C 4637   8.778  11.248  11.080 -0.5519  0.0981  0.7343
  776MOL0     C 4638   8.703  11.281  10.947  0.3334 -0.3001  0.0335
  776MOL0     C 4639   8.630  11.421  10.954  0.0558  0.6462  0.2128
  776MOL0     C 4640   8.539  11.455  10.839  0.3804 -0.3383  0.1417
  776MOL0     C 4641   8.487  11.599  10.848 -0.7290  0.4103  0.3897
  776MOL0     N 4642   8.403  11.637  10.740 -0.4142  0.1436 -0.1907
  776MOL0     C 4643   8.452  11.725  10.638 -0.2023 -0.6026 -0.4040
  776MOL0     C 4644   8.355  11.744  10.549 -0.5774  0.0630  0.0260
  776MOL0     C 4645   8.381  11.840  10.435 -0.2301  0.4427  0.3707
  776MOL0     C 4646   8.378  11.991  10.458  1.0081  0.2873 -0.6119
  776MOL0     C 4647   8.230  12.041  10.478  0.2098  0.3619 -0.6442
  776MOL0     C 4648   8.229  12.175  10.544  1.1525 -0.2534 -0.0687
  776MOL0     O 4649   8.297  12.266  10.462 -0.2046  0.5004 -0.5165
  776MOL0     C 4650   8.237  12.298  10.345  0.1563  0.6332  1.5463
  776MOL0     C 4651   8.100  12.264  10.315 -0.2525 -0.2430 -0.1997
  776MOL0     C 4652   8.045  12.309  10.199  0.1278  0.2956  0.3773
  776MOL0     C 4653   7.898  12.274  10.185 -0.7199 -0.6408 -0.0517
  776MOL0     C 4654   8.125  12.369  10.092  0.3695  0.2466  0.3273
  776MOL0     C 4655   8.072  12.413   9.948 -0.0814  0.1212  1.2016
  776MOL0     O 4656   7.957  12.366   9.898 -0.3207 -0.0051  0.5619
  776MOL0     C 4657   7.926  12.378   9.761  0.0956  0.7985  0.0273
  776MOL0     C 4658   7.955  12.287   9.657 -0.0918  0.8819 -0.2414
  776MOL0     C 4659   7.941  12.316   9.519  0.2064 -0.0357 -0.2157
  776MOL0     C 4660   7.866  12.431   9.483  0.2789  0.2947 -0.8597
  776MOL0     O 4661   7.852  12.486   9.356 -0.6207  0.4210 -0.2712
  776MOL0     C 4662   7.884  12.404   9.245  0.0920 -0.0861 -0.0539
  776MOL0     C 4663   7.888  12.490   9.115  0.6482  0.3647 -0.3932
  776MOL0     C 4664   8.028  12.530   9.077 -0.0260  0.2457 -1.2938
  776MOL0     C 4665   8.005  12.616   8.947 -0.1842 -0.0550  0.1049
  776MOL0     C 4666   8.118  12.711   8.902 -0.4146 -0.3983  0.8717
  776MOL0     C 4667   8.086  12.795   8.771 -0.9465 -0.4440  0.4341
  776MOL0     C 4668   8.066  12.709   8.641 -1.1362  0.1033 -0.3214
  776MOL0     C 4669   8.022  12.775   8.520 -0.2057  0.2202  0.0963
  776MOL0    Cl 4670   8.049  12.674   8.374 -0.2150 -0.4860 -0.0088
  776MOL0     C 4671   7.830  12.524   9.587 -0.5171 -0.2333 -0.0019
  776MOL0     C 4672   7.868  12.503   9.716  0.8303 -0.1453  0.1842
  776MOL0     O 4673   8.158  12.475   9.879  0.1089  0.1707  0.0821
  776MOL0     C 4674   8.256  12.393  10.125  0.6158 -0.6161 -0.0688
  776MOL0     C 4675   8.316  12.357  10.247  1.0754 -0.2258 -0.4173
  776MOL0     N 4676   8.252  11.668  10.589 -0.6768 -0.8370  0.5016
  776MOL0     N 4677   8.285  11.606  10.697  0.1953  0.2343  0.2069
  776MOL0     C 4678   9.201  10.829  11.367 -1.4050  0.2561 -0.0666
  776MOL0     C 4679   9.325  10.825  11.443 -0.2708  0.6799  0.2186
  776MOL0     C 4680   9.667  10.903  11.729  0.3616  1.0634 -0.0705
  776MOL0     C 4681   9.651  10.809  11.840 -0.7955 -0.8821 -0.0278
  776MOL0     C 4682   9.756  10.790  11.942 -0.4097 -0.7384 -0.0544
  776MOL0     C 4683   9.884  10.861  11.926 -0.2013 -0.8607 -0.0916
  776MOL0     O 4684   9.984  10.875  12.016  0.6599  0.2232 -0.5089
  776MOL0     C 4685   9.978  10.830  12.158  0.3063  0.3883  0.1198
  776MOL0     C 4686   9.868  10.897  12.238 -0.6216 -0.0101 -0.0601
  776MOL0     C 4687   9.861  10.844  12.378 -0.7434 -0.9824 -0.9119
  776MOL0     C 4688   9.735  10.879  12.455 -0.3153  0.3055  0.4625
  776MOL0     C 4689   9.726  11.025  12.474 -0.6360 -0.5030  1.0619
  776MOL0     C 4690   9.739  11.146  12.477 -0.5935 -0.7971 -0.3782
  776MOL0     C 4691   9.894  10.946  11.813 -0.2738 -0.0865 -0.2987
  776MOL0     C 4692   9.794  10.959  11.719 -0.4779  0.2132  0.0912
  776MOL0     H 4693   9.236  11.034  11.691  0.8769 -0.1386 -0.4039
  776MOL0     H 4694   9.037  11.057  11.542  0.6930  0.2977  1.7509
  776MOL0     H 4695   9.039  10.911  11.147  1.0336  0.9514  0.9316
  776MOL0     H 4696   8.861  10.883  11.174 -0.3263 -1.4868 -0.1477
  776MOL0     H 4697   8.875  11.130  11.277 -2.2327  0.6813 -0.8943
  776MOL0     H 4698   9.030  11.139  11.198 -0.5792 -0.7068  0.3666
  776MOL0     H 4699   8.912  11.123  10.971 -0.6451  2.3901  0.5265
  776MOL0     H 4700   8.779  11.030  11.053 -1.2574 -0.0599 -0.3491
  776MOL0     H 4701   8.711  11.251  11.166  0.2118 -0.2784  1.3541
  776MOL0     H 4702   8.852  11.328  11.091 -2.3449  2.5101 -2.7169
  776MOL0     H 4703   8.763  11.277  10.855  0.9206  1.4579  0.3039
  776MOL0     H 4704   8.630  11.202  10.927 -1.2549  0.6563  1.7845
  776MOL0     H 4705   8.573  11.424  11.047 -2.0914  1.0998 -1.0449
  776MOL0     H 4706   8.714  11.491  10.950  1.1571 -0.6635 -1.0302
  776MOL0     H 4707   8.591  11.452  10.743 -0.6205  2.8231 -0.6342
  776MOL0     H 4708   8.449  11.392  10.835 -2.7320  3.5968  1.2923
  776MOL0     H 4709   8.575  11.664  10.848  1.3894 -2.2330  2.5316
  776MOL0     H 4710   8.430  11.608  10.941 -1.0377  4.2580 -0.0021
  776MOL0     H 4711   8.539  11.788  10.657 -1.7695  1.8575 -0.9272
  776MOL0     H 4712   8.477  11.819  10.388 -0.2289  3.5933 -1.2757
  776MOL0     H 4713   8.304  11.830  10.359 -1.4622  1.1623  1.4733
  776MOL0     H 4714   8.422  12.036  10.368  1.6818  1.0938  0.1042
  776MOL0     H 4715   8.438  12.015  10.546  1.5951 -2.0825 -0.3100
  776MOL0     H 4716   8.192  11.965  10.546  1.0896  1.1496  0.7618
  776MOL0     H 4717   8.192  12.040  10.375  2.2982  1.5640 -1.4820
  776MOL0     H 4718   8.292  12.171  10.633 -0.9306 -0.9036  1.4433
  776MOL0     H 4719   8.131  12.204  10.582  1.6257 -1.7552  2.5358
  776MOL0     H 4720   8.026  12.218  10.380  3.2007 -3.0339  2.1397
  776MOL0     H 4721   7.852  12.328  10.102  0.4426  1.8448  0.8351
  776MOL0     H 4722   7.886  12.167  10.164 -0.5057 -0.4230 -1.3700
  776MOL0     H 4723   7.854  12.318  10.274 -0.4647  6.4738 -2.8300
  776MOL0     H 4724   7.993  12.191   9.691 -5.7704 -0.8433  2.4809
  776MOL0     H 4725   7.960  12.248   9.436 -0.9265 -2.6581  1.5286
  776MOL0     H 4726   7.981  12.355   9.259  0.0708  0.5487  2.8218
  776MOL0     H 4727   7.815  12.319   9.238  0.7281 -0.4817 -3.2539
  776MOL0     H 4728   7.838  12.435   9.036 -0.2767 -0.4987  0.7571
  776MOL0     H 4729   7.831  12.580   9.142 -0.2667 -0.4278  0.4093
  776MOL0     H 4730   8.092  12.447   9.046  2.5823  0.2678  3.0544
  776MOL0     H 4731   8.078  12.588   9.156 -1.2016  1.1088 -1.1504
  776MOL0     H 4732   7.994  12.535   8.875  0.9824  0.5556 -0.8046
  776MOL0     H 4733   7.905  12.659   8.944 -0.1608 -0.0371 -0.9527
  776MOL0     H 4734   8.210  12.654   8.887 -1.2997 -1.8381  0.7312
  776MOL0     H 4735   8.147  12.766   8.992  2.8102 -1.6523  0.7026
  776MOL0     H 4736   8.004  12.866   8.786 -2.3620 -1.4494 -1.9751
  776MOL0     H 4737   8.177  12.854   8.759  0.6883 -1.9139  4.1686
  776MOL0     H 4738   7.992  12.630   8.653 -0.6632 -0.2832  0.1480
  776MOL0     H 4739   8.159  12.651   8.638 -1.2710 -0.1340  0.0051
  776MOL0     H 4740   8.087  12.862   8.507 -1.4268  0.7484 -3.5644
  776MOL0     H 4741   7.917  12.806   8.524 -0.9699 -2.2091  0.5808
  776MOL0     H 4742   7.786  12.620   9.562  1.0563  0.0664 -1.7481
  776MOL0     H 4743   7.841  12.583   9.784 -1.2259  1.0914 -1.9304
  776MOL0     H 4744   8.328  12.430  10.052  1.4026  0.6608  1.2682
  776MOL0     H 4745   8.418  12.387  10.267 -0.3365  4.1346  1.3229
  776MOL0     H 4746   9.204  10.758  11.285  0.1743  1.1565 -0.8468
  776MOL0     H 4747   9.408  10.770  11.400 -1.0627  0.5950 -1.3026
  776MOL0     H 4748   9.565  10.743  11.834 -2.8892  1.8195 -3.2815
  776MOL0     H 4749   9.753  10.713  12.018  4.7520 -0.8306  0.4364
  776MOL0     H 4750   9.958  10.722  12.155 -1.7672  0.7573 -1.8711
  776MOL0     H 4751  10.079  10.839  12.200  0.4185  2.7968 -0.5327
  776MOL0     H 4752   9.770  10.874  12.195 -1.3639  1.6842  0.6576
  776MOL0     H 4753   9.880  11.006  12.230  0.7489 -0.2162 -1.1908
  776MOL0     H 4754   9.949  10.877  12.434 -0.4502 -1.8868 -0.8305
  776MOL0     H 4755   9.873  10.737  12.362  2.8909 -0.4195 -3.2641
  776MOL0     H 4756   9.747  10.840  12.557  2.2234 -0.8334 -0.2004
  776MOL0     H 4757   9.648  10.826  12.417  1.5507 -3.1967  0.6966
  776MOL0     H 4758   9.745  11.253  12.486  0.2160 -0.9822  2.3798
  776MOL0     H 4759   9.987  11.002  11.810 -0.3256  0.3650  2.7859
  776MOL0     H 4760   9.817  11.019  11.632  1.5162  1.5352  1.4421
  777MOL0     O 4761   0.700   7.837   6.967 -0.8230 -0.7399  0.4379
  777MOL0     C 4762   0.582   7.834   6.920 -0.7787  0.3888 -0.3439
  777MOL0     O 4763   0.539   7.778   6.809  1.3021  0.6978  0.3105
  777MOL0     C 4764   0.619   7.679   6.747  0.0851 -0.3029  0.9020
  777MOL0     C 4765   0.625   7.552   6.792 -0.3299 -0.0419  0.3013
  777MOL0     C 4766   0.709   7.453   6.725  0.4655 -0.3080 -0.2823
  777MOL0     C 4767   0.792   7.489   6.610 -0.7814 -0.0035  0.5606
  777MOL0     O 4768   0.877   7.402   6.547 -0.3141 -0.0731 -0.3781
  777MOL0     C 4769   0.820   7.361   6.422 -0.5175  0.0897 -0.2488
  777MOL0     C 4770   0.912   7.413   6.306  0.0550  0.6809  0.6384
  777MOL0     C 4771   1.062   7.385   6.329 -0.0320 -0.4399  0.3148
  777MOL0     C 4772   1.145   7.432   6.201  0.2889  0.5204  0.1523
  777MOL0     C 4773   1.300   7.396   6.202  0.1326 -0.9944  0.6603
  777MOL0     C 4774   1.322   7.241   6.192 -0.5450  1.0642 -0.3152
  777MOL0     C 4775   1.293   7.199   6.044 -0.0005 -0.7275  0.8017
  777MOL0     C 4776   1.243   7.059   6.024  0.7024  0.3738  0.0941
  777MOL0     N 4777   1.336   6.943   6.022 -0.0952  0.3963  0.5274
  777MOL0     C 4778   1.339   6.836   6.115  0.2862  0.9615  1.2174
  777MOL0     C 4779   1.410   6.734   6.050  0.8429 -0.6348  0.0196
  777MOL0     C 4780   1.432   6.593   6.097 -0.8966  0.0276 -1.2942
  777MOL0     C 4781   1.362   6.488   5.994 -0.7569 -0.3955 -1.0549
  777MOL0     C 4782   1.214   6.500   5.982 -0.2348 -0.0277 -0.5374
  777MOL0     C 4783   1.155   6.372   5.915  0.1190 -0.6726  0.8466
  777MOL0     O 4784   1.160   6.247   5.988 -0.1209 -0.8141  0.2819
  777MOL0     C 4785   1.114   6.240   6.112  0.4678 -0.7125  0.1478
  777MOL0     C 4786   1.191   6.193   6.222 -0.1694 -0.3907 -0.5191
  777MOL0     C 4787   1.153   6.191   6.351  0.9337 -0.9070  0.6195
  777MOL0     C 4788   1.255   6.146   6.452 -0.0967 -1.4465 -0.7000
  777MOL0     C 4789   1.018   6.224   6.378  0.2937 -0.7352  0.4948
  777MOL0     C 4790   0.959   6.194   6.509 -0.9254  0.4933  0.1411
  777MOL0     O 4791   0.865   6.279   6.559 -0.0449  0.5177 -0.8070
  777MOL0     C 4792   0.824   6.245   6.688  0.0745  0.5747 -0.0268
  777MOL0     C 4793   0.705   6.179   6.697  0.3347  0.8225  0.2090
  777MOL0     C 4794   0.656   6.147   6.825  0.0487  0.6289  0.7470
  777MOL0     C 4795   0.740   6.165   6.937 -0.2351  0.7058 -0.6536
  777MOL0     O 4796   0.685   6.131   7.051 -0.2627 -0.0338  0.4473
  777MOL0     C 4797   0.746   6.141   7.182  1.1323  0.0708  0.3538
  777MOL0     C 4798   0.808   6.008   7.213 -0.0103  0.8339 -0.3805
  777MOL0     C 4799   0.706   5.898   7.208 -0.6235 -0.2697  0.4403
  777MOL0     C 4800   0.718   5.798   7.322 -0.1025 -0.3001  0.7592
  777MOL0     C 4801   0.644   5.850   7.438 -0.0878 -0.8069 -0.8453
  777MOL0     C 4802   0.612   5.753   7.541 -0.5941  0.9792 -0.0738
  777MOL0     C 4803   0.718   5.747   7.652 -0.4651  0.4829  0.0829
  777MOL0     C 4804   0.664   5.676   7.776 -0.3972 -0.3137 -0.7243
  777MOL0    Cl 4805   0.705   5.512   7.750  0.4553  0.1349 -0.4647
  777MOL0     C 4806   0.870   6.214   6.920 -0.4614 -0.2283  0.1198
  777MOL0     C 4807   0.902   6.266   6.800 -1.2901  0.0816 -0.0420
  777MOL0     O 4808   0.977   6.081   6.550 -0.7583  0.4800  0.4133
  777MOL0     C 4809   0.937   6.275   6.272 -0.3588  1.6354 -0.4608
  777MOL0     C 4810   0.989   6.284   6.136  0.4772 -0.4828  0.6351
  777MOL0     N 4811   1.449   6.787   5.931  0.0402 -0.1001 -0.8818
  777MOL0     N 4812   1.413   6.905   5.915  0.4141 -0.7440  0.6686
  777MOL0     C 4813   0.771   7.621   6.554 -0.4134  0.3031 -0.2254
  777MOL0     C 4814   0.685   7.708   6.626 -0.1711 -0.2039 -0.6318
  777MOL0     C 4815   0.492   7.905   7.010 -0.2956 -0.4321  0.2436
  777MOL0     C 4816   0.358   7.882   7.010 -0.3799  0.0312  0.1903
  777MOL0     C 4817   0.273   7.966   7.080  0.4605  0.0939  0.4692
  777MOL0     C 4818   0.312   8.077   7.159  0.1653  0.2526  1.1660
  777MOL0     O 4819   0.227   8.162   7.217  0.3301  0.5565 -0.2762
  777MOL0     C 4820   0.252   8.176   7.357  0.5495  0.7595  0.3059
  777MOL0     C 4821   0.121   8.201   7.433 -0.1605 -0.0053  0.3052
  777MOL0     C 4822   0.114   8.248   7.577  0.3958 -1.5153  0.4923
  777MOL0     C 4823   0.169   8.383   7.599 -0.0855  0.3702 -0.1397
  777MOL0     C 4824   0.088   8.492   7.544  0.7417  0.3356 -0.1217
  777MOL0     C 4825   0.007   8.578   7.505  0.7583 -0.4927  0.2354
  777MOL0     C 4826   0.458   8.086   7.163  0.3792 -0.1358  0.6835
  777MOL0     C 4827   0.542   8.005   7.097  0.0787 -0.0721 -0.9888
  777MOL0     H 4828   0.573   7.541   6.887 -0.0173 -3.2112  0.1962
  777MOL0     H 4829   0.728   7.351   6.758  2.8929 -1.1547 -3.6913
  777MOL0     H 4830   0.820   7.252   6.425 -1.5751  0.0831 -0.2675
  777MOL0     H 4831   0.715   7.386   6.410 -0.7436 -0.9629 -0.6205
  777MOL0     H 4832   0.875   7.364   6.216  0.3318  3.1329 -0.8931
  777MOL0     H 4833   0.899   7.519   6.284  1.0822  0.6598 -0.1585
  777MOL0     H 4834   1.095   7.449   6.412 -4.7676  0.0664  2.1522
  777MOL0     H 4835   1.080   7.281   6.355  0.1897 -0.1872  1.2059
  777MOL0     H 4836   1.089   7.391   6.117 -1.8892  1.7828  0.9231
  777MOL0     H 4837   1.151   7.540   6.185 -1.8936  1.0543  2.4303
  777MOL0     H 4838   1.349   7.440   6.115 -0.5335  2.0982  1.7124
  777MOL0     H 4839   1.332   7.444   6.294  0.2546 -2.1506  1.2444
  777MOL0     H 4840   1.426   7.222   6.221 -0.2606  1.1642 -1.2156
  777MOL0     H 4841   1.257   7.184   6.258 -0.1604  0.9510 -0.0334
  777MOL0     H 4842   1.206   7.259   6.015  0.0892 -1.0228 -0.1179
  777MOL0     H 4843   1.377   7.221   5.978  3.2630 -0.0251  4.7821
  777MOL0     H 4844   1.204   7.059   5.922  0.2292 -1.8185  0.2119
  777MOL0     H 4845   1.165   7.035   6.098  1.2805 -1.4108  0.1911
  777MOL0     H 4846   1.287   6.814   6.207 -0.7456  0.6885  0.5848
  777MOL0     H 4847   1.537   6.567   6.085 -0.9871 -0.3433 -1.2853
  777MOL0     H 4848   1.408   6.579   6.203 -0.0160  0.6774 -0.9942
  777MOL0     H 4849   1.390   6.386   6.022 -1.1465 -0.0919  0.4933
  777MOL0     H 4850   1.396   6.517   5.894  0.0984  2.7439  0.0355
  777MOL0     H 4851   1.187   6.599   5.946  0.7041  1.8216  3.2804
  777MOL0     H 4852   1.171   6.506   6.083  0.4270  1.1480 -0.3110
  777MOL0     H 4853   1.212   6.352   5.824 -0.0114  0.8000  0.4242
  777MOL0     H 4854   1.054   6.403   5.887  0.7662  1.1445  0.3941
  777MOL0     H 4855   1.293   6.159   6.215  1.0436  2.3138  1.8955
  777MOL0     H 4856   1.355   6.178   6.421 -0.9826 -0.0876 -2.3616
  777MOL0     H 4857   1.227   6.194   6.546 -0.6269  1.6813 -2.3180
  777MOL0     H 4858   1.256   6.037   6.462  2.9124 -1.2397  4.7446
  777MOL0     H 4859   0.644   6.169   6.608 -2.5172  0.7559  2.0137
  777MOL0     H 4860   0.555   6.108   6.829  1.0738 -2.3252  0.0477
  777MOL0     H 4861   0.815   6.224   7.195  2.3307 -1.0100  1.1489
  777MOL0     H 4862   0.671   6.160   7.259  0.6327 -1.3847  0.2559
  777MOL0     H 4863   0.890   6.000   7.141  3.6335 -0.2742  3.4666
  777MOL0     H 4864   0.860   6.017   7.309 -2.5104 -0.1182  1.1507
  777MOL0     H 4865   0.716   5.850   7.110 -0.0173  2.1502 -0.7556
  777MOL0     H 4866   0.603   5.936   7.211 -0.8813 -0.8405 -0.5927
  777MOL0     H 4867   0.658   5.709   7.300 -1.1321  0.6815 -0.5596
  777MOL0     H 4868   0.818   5.768   7.352 -0.2949 -0.6306  1.0859
  777MOL0     H 4869   0.544   5.888   7.415  0.1334 -0.5199 -1.3604
  777MOL0     H 4870   0.701   5.936   7.474  1.5696 -2.3966  0.4941
  777MOL0     H 4871   0.512   5.766   7.582 -1.7848 -1.2192 -2.0407
  777MOL0     H 4872   0.599   5.655   7.495 -0.6563  0.1814  1.5818
  777MOL0     H 4873   0.746   5.848   7.681  2.8243 -1.0559  2.9259
  777MOL0     H 4874   0.809   5.699   7.615 -1.1064 -1.8723  1.3592
  777MOL0     H 4875   0.556   5.683   7.790 -0.7681 -3.0160 -1.6782
  777MOL0     H 4876   0.715   5.707   7.867 -0.4892  1.5455 -1.2604
  777MOL0     H 4877   0.951   6.232   6.990 -0.5859 -0.2091  0.2591
  777MOL0     H 4878   0.997   6.316   6.780  0.1631 -3.1132 -1.9290
  777MOL0     H 4879   0.833   6.290   6.295 -0.7102 -0.8835 -0.1815
  777MOL0     H 4880   0.924   6.324   6.059 -0.9717 -0.1829  1.9659
  777MOL0     H 4881   0.828   7.668   6.475  2.0900 -3.2149 -0.7666
  777MOL0     H 4882   0.678   7.808   6.584 -0.4475  0.6901  1.4215
  777MOL0     H 4883   0.321   7.801   6.949  1.1091  0.9715 -2.0987
  777MOL0     H 4884   0.165   7.954   7.082  0.5554 -0.6853  2.2026
  777MOL0     H 4885   0.290   8.080   7.394 -2.2813 -1.2199 -1.5560
  777MOL0     H 4886   0.315   8.264   7.370  1.1753  1.4808 -5.4474
  777MOL0     H 4887   0.058   8.111   7.440 -2.2014  1.4308  5.1593
  777MOL0     H 4888   0.059   8.278   7.388 -0.3888 -0.5404 -0.3162
  777MOL0     H 4889   0.147   8.168   7.644  0.1076 -2.7216 -0.7319
  777MOL0     H 4890   0.005   8.251   7.588 -0.0489  4.0352 -2.0689
  777MOL0     H 4891   0.274   8.388   7.571 -0.7458  1.4163 -2.7634
  777MOL0     H 4892   0.167   8.393   7.708  1.5992  1.1753 -0.1610
  777MOL0     H 4893  -0.078   8.636   7.477 -0.1155 -2.5298 -1.6185
  777MOL0     H 4894   0.497   8.156   7.236 -0.4126  2.6939 -1.4481
  777MOL0     H 4895   0.648   8.023   7.117  0.6104 -2.2015 -1.6374
  778MOL0     O 4896   8.658   0.817   5.482  1.0612  0.4973  0.4923
  778MOL0     C 4897   8.650   0.704   5.441 -0.5822  0.2499  0.5665
  778MOL0     O 4898   8.605   0.670   5.313  0.3821 -0.8757  0.0244
  778MOL0     C 4899   8.535   0.766   5.240 -0.5923  0.1099  0.1797
  778MOL0     C 4900   8.460   0.870   5.294  0.1701 -0.5220 -0.8338
  778MOL0     C 4901   8.383   0.956   5.211 -0.0389  0.1115 -1.0595
  778MOL0     C 4902   8.388   0.949   5.075  0.0568 -0.0951  0.2296
  778MOL0     O 4903   8.313   1.040   5.008 -0.1307 -0.3306  0.4740
  778MOL0     C 4904   8.333   1.039   4.865 -0.2815 -0.0120  0.2312
  778MOL0     C 4905   8.246   1.149   4.810  0.2927 -0.4573  0.4254
  778MOL0     C 4906   8.218   1.128   4.663 -0.0899 -0.7382  0.3199
  778MOL0     C 4907   8.105   1.228   4.608  0.0925 -0.0468 -0.1161
  778MOL0     C 4908   8.050   1.186   4.469 -0.3227 -0.0499 -0.5482
  778MOL0     C 4909   7.981   1.310   4.409  0.6454  0.0496 -0.9948
  778MOL0     C 4910   7.910   1.275   4.281  0.0170  0.5158  0.3965
  778MOL0     C 4911   7.816   1.395   4.239 -0.1021  0.3135 -0.9389
  778MOL0     N 4912   7.746   1.380   4.110 -0.2665  0.3048 -1.0546
  778MOL0     C 4913   7.803   1.326   3.997 -0.2545 -0.3196 -0.5958
  778MOL0     C 4914   7.696   1.304   3.920  0.5110  1.1475 -0.2686
  778MOL0     C 4915   7.697   1.281   3.768  0.8758 -0.6950 -0.0025
  778MOL0     C 4916   7.574   1.359   3.706 -0.8967  0.6719  0.1657
  778MOL0     C 4917   7.571   1.361   3.553  0.3597 -0.0990 -0.4451
  778MOL0     C 4918   7.494   1.245   3.483  0.5511 -0.1920  0.4363
  778MOL0     O 4919   7.576   1.128   3.459 -0.1617 -0.4662  0.2483
  778MOL0     C 4920   7.683   1.144   3.368  0.0085  0.5194 -0.7656
  778MOL0     C 4921   7.686   1.224   3.263  0.0921 -0.7471  0.1357
  778MOL0     C 4922   7.790   1.207   3.167  0.2476  0.5179  0.2559
  778MOL0     C 4923   7.768   1.290   3.044  0.4533 -0.3261  0.0258
  778MOL0     C 4924   7.896   1.120   3.204  1.2743 -0.0835  0.3300
  778MOL0     C 4925   8.017   1.090   3.113  0.4484 -0.3936  0.2585
  778MOL0     O 4926   8.010   1.097   2.982 -0.0018  0.1011  0.0275
  778MOL0     C 4927   8.118   1.082   2.892  0.3472 -0.0544 -0.5718
  778MOL0     C 4928   8.253   1.050   2.918 -0.4218 -0.1424  0.4367
  778MOL0     C 4929   8.348   1.057   2.817 -0.3187  0.2387 -0.0671
  778MOL0     C 4930   8.309   1.082   2.684  0.4985 -0.3697 -0.3247
  778MOL0     O 4931   8.395   1.075   2.577 -0.0405  0.2289  1.1515
  778MOL0     C 4932   8.429   1.208   2.539  0.2805 -0.5453  0.2656
  778MOL0     C 4933   8.527   1.209   2.429 -0.2842  0.9821 -0.3885
  778MOL0     C 4934   8.545   1.335   2.351  0.4609 -0.4072  0.5298
  778MOL0     C 4935   8.651   1.326   2.237  1.0806  0.0096  0.1830
  778MOL0     C 4936   8.607   1.420   2.122  0.2336 -0.7624 -0.6856
  778MOL0     C 4937   8.614   1.563   2.163  0.2854  0.7498 -1.0859
  778MOL0     C 4938   8.578   1.678   2.060 -1.2597  1.2235 -0.3455
  778MOL0     C 4939   8.484   1.625   1.952  0.7681 -0.9345 -0.4935
  778MOL0    Cl 4940   8.441   1.768   1.839  0.1747  0.5332 -0.1934
  778MOL0     C 4941   8.174   1.118   2.658 -0.3760  0.1875  0.1963
  778MOL0     C 4942   8.087   1.126   2.766 -0.7603  0.1041  0.4708
  778MOL0     O 4943   8.116   1.072   3.177 -0.5870 -0.1209  0.2970
  778MOL0     C 4944   7.896   1.056   3.326  0.3371 -0.1213  0.4110
  778MOL0     C 4945   7.790   1.067   3.411 -0.3174 -0.2523  1.4060
  778MOL0     N 4946   7.580   1.313   3.992  0.5600 -0.5731 -0.4266
  778MOL0     N 4947   7.613   1.370   4.103  0.3096  0.9164  0.2535
  778MOL0     C 4948   8.475   0.859   5.017  0.1898 -0.2990  0.0525
  778MOL0     C 4949   8.536   0.762   5.102  0.1261 -0.0081  0.1480
  778MOL0     C 4950   8.713   0.595   5.531 -0.1932 -0.0359  1.2918
  778MOL0     C 4951   8.716   0.614   5.669 -0.6405  0.6119 -0.1137
  778MOL0     C 4952   8.793   0.522   5.749 -0.0628 -1.3130 -0.7068
  778MOL0     C 4953   8.849   0.407   5.688  0.2660 -0.5286  1.0436
  778MOL0     O 4954   8.916   0.311   5.767  0.3606  0.3014  0.2135
  778MOL0     C 4955   8.902   0.304   5.911 -0.1738 -0.1713 -1.2392
  778MOL0     C 4956   8.926   0.164   5.964 -0.5166 -0.1938 -0.1361
  778MOL0     C 4957   8.841   0.067   5.880  0.1348  0.3534 -0.2099
  778MOL0     C 4958   8.852  -0.067   5.945  0.6387  0.1311  0.6975
  778MOL0     C 4959   8.750  -0.148   5.875 -0.1252  0.0925  0.2705
  778MOL0     C 4960   8.643  -0.199   5.856  1.8236  0.5809 -0.3322
  778MOL0     C 4961   8.847   0.394   5.550  0.2545  0.9221  0.4346
  778MOL0     C 4962   8.794   0.495   5.472 -1.1013 -0.2095 -0.5821
  778MOL0     H 4963   8.441   0.883   5.400  0.7641  2.2382 -0.9902
  778MOL0     H 4964   8.320   1.017   5.275 -2.7964 -1.5400 -2.0739
  778MOL0     H 4965   8.436   1.050   4.830 -0.2818  1.3724  0.6110
  778MOL0     H 4966   8.286   0.952   4.818 -0.4771 -1.2041  2.5294
  778MOL0     H 4967   8.152   1.166   4.863 -0.2822  0.3297 -0.8026
  778MOL0     H 4968   8.302   1.243   4.810 -1.2533  0.5472 -1.8989
  778MOL0     H 4969   8.302   1.135   4.594  0.5855 -0.4377  1.1596
  778MOL0     H 4970   8.181   1.026   4.650  1.5089 -1.1540 -1.2474
  778MOL0     H 4971   8.018   1.215   4.673 -1.0199  0.6701 -1.3851
  778MOL0     H 4972   8.144   1.330   4.615  0.6829 -0.3366  1.0287
  778MOL0     H 4973   8.135   1.145   4.414  0.4389  0.2113  0.3951
  778MOL0     H 4974   7.991   1.095   4.478  2.0706 -1.5923  0.8077
  778MOL0     H 4975   7.911   1.359   4.478  0.6247  0.5796 -1.3874
  778MOL0     H 4976   8.054   1.388   4.384  0.4717  0.0439 -1.5220
  778MOL0     H 4977   7.987   1.252   4.206  1.0553  0.4588  1.4496
  778MOL0     H 4978   7.860   1.181   4.303  2.8961 -1.1353  0.4276
  778MOL0     H 4979   7.864   1.493   4.243  2.0705 -0.7215  2.3832
  778MOL0     H 4980   7.740   1.416   4.314  0.5685  1.5950 -0.5803
  778MOL0     H 4981   7.907   1.328   3.966  0.3689 -0.2439  1.3796
  778MOL0     H 4982   7.792   1.322   3.732  0.5060  1.2364  1.0524
  778MOL0     H 4983   7.688   1.176   3.740 -1.7707 -1.0305  1.7380
  778MOL0     H 4984   7.562   1.461   3.741 -0.7097 -0.0122  2.3779
  778MOL0     H 4985   7.490   1.303   3.748  0.6287 -0.6815  1.5792
  778MOL0     H 4986   7.672   1.386   3.520 -0.2725  3.6120 -0.0199
  778MOL0     H 4987   7.512   1.449   3.526 -1.3233 -1.5934 -1.9281
  778MOL0     H 4988   7.430   1.259   3.395 -0.0595  0.3704  0.9577
  778MOL0     H 4989   7.422   1.196   3.549  0.3356 -2.5792 -1.4319
  778MOL0     H 4990   7.613   1.303   3.247  0.5144 -0.8684 -2.9432
  778MOL0     H 4991   7.712   1.230   2.972  0.3402 -0.5301  0.2852
  778MOL0     H 4992   7.721   1.388   3.059  2.2260  0.4408  0.8536
  778MOL0     H 4993   7.864   1.309   2.994 -1.0001 -0.7902 -3.2125
  778MOL0     H 4994   8.278   1.005   3.014 -4.2702  0.5688  1.9492
  778MOL0     H 4995   8.447   1.014   2.829 -0.7756 -2.4490 -3.9367
  778MOL0     H 4996   8.337   1.249   2.496  0.4047  0.9685  1.3659
  778MOL0     H 4997   8.461   1.283   2.612 -0.3487  0.3635 -0.3711
  778MOL0     H 4998   8.625   1.187   2.471 -0.8451  1.8995  1.5158
  778MOL0     H 4999   8.504   1.119   2.371  6.3524 -2.3745  1.1888
  778MOL0     H 5000   8.549   1.421   2.418  0.7347  1.0755 -1.2889
  778MOL0     H 5001   8.450   1.341   2.296  0.3176 -2.1055  0.5602
  778MOL0     H 5002   8.745   1.352   2.287 -1.1218  0.5704  4.5054
  778MOL0     H 5003   8.656   1.221   2.208 -2.8717 -0.4309  0.4596
  778MOL0     H 5004   8.504   1.395   2.098 -0.3663  1.1052 -0.1971
  778MOL0     H 5005   8.660   1.396   2.029  0.1999  1.6973 -1.4108
  778MOL0     H 5006   8.552   1.569   2.253  2.4748  0.4059  0.5180
  778MOL0     H 5007   8.715   1.589   2.195  0.7035 -0.8687 -0.9807
  778MOL0     H 5008   8.661   1.731   2.014 -0.9426  0.6735 -0.4166
  778MOL0     H 5009   8.543   1.771   2.105  0.4940  0.9064  1.8455
  778MOL0     H 5010   8.391   1.584   1.992 -0.4299  1.7276 -0.3429
  778MOL0     H 5011   8.517   1.540   1.892 -2.6602 -2.9383  0.2028
  778MOL0     H 5012   8.141   1.131   2.555  0.7732 -2.7825 -0.6694
  778MOL0     H 5013   7.989   1.170   2.753 -2.4095 -3.3269  0.0506
  778MOL0     H 5014   7.986   1.007   3.361  1.3801  1.6271  0.3375
  778MOL0     H 5015   7.800   1.005   3.499  0.4895 -0.2098  1.3566
  778MOL0     H 5016   8.490   0.853   4.910  0.5332  1.7341 -0.0547
  778MOL0     H 5017   8.598   0.685   5.058  0.8097 -0.9811  2.6058
  778MOL0     H 5018   8.675   0.704   5.713 -0.5014  0.9602 -0.6882
  778MOL0     H 5019   8.797   0.542   5.855 -0.8833  4.2105 -1.3976
  778MOL0     H 5020   8.974   0.368   5.962 -2.2962  1.0108  0.4554
  778MOL0     H 5021   8.801   0.344   5.926 -0.9106 -1.6903 -1.9941
  778MOL0     H 5022   8.903   0.152   6.070  0.8396  0.7201  0.2907
  778MOL0     H 5023   9.031   0.135   5.948  1.2030  1.6775  5.3461
  778MOL0     H 5024   8.868   0.084   5.776 -0.2526 -1.7125 -0.7009
  778MOL0     H 5025   8.742   0.112   5.893  0.9453  2.6810 -1.5995
  778MOL0     H 5026   8.833  -0.059   6.052  3.0901 -1.4606  1.3269
  778MOL0     H 5027   8.953  -0.109   5.937 -0.5994 -3.3306  1.3461
  778MOL0     H 5028   8.546  -0.244   5.858  2.4367 -0.7663  0.4812
  778MOL0     H 5029   8.901   0.321   5.490 -1.0948  0.5342 -0.3543
  778MOL0     H 5030   8.814   0.487   5.366  2.1817 -2.0482  0.0585
  779MOL0     O 5031   1.042   4.749   1.829 -0.1832 -0.2611 -0.5344
  779MOL0     C 5032   0.999   4.650   1.887  0.0808 -0.4237  0.6448
  779MOL0     O 5033   1.065   4.574   1.975 -0.2672 -0.1285  0.1253
  779MOL0     C 5034   1.184   4.617   2.019 -0.0459 -0.3118 -1.3451
  779MOL0     C 5035   1.290   4.591   1.942  0.9947 -0.0462  0.1708
  779MOL0     C 5036   1.425   4.613   1.990  0.6539 -0.4357  0.2389
  779MOL0     C 5037   1.449   4.657   2.117 -0.4742 -0.7610  0.6035
  779MOL0     O 5038   1.576   4.677   2.164  0.4960 -0.1823  0.5013
  779MOL0     C 5039   1.646   4.785   2.095 -0.4591  0.4126 -0.4323
  779MOL0     C 5040   1.612   4.906   2.190  0.5510 -0.6087  0.4787
  779MOL0     C 5041   1.688   5.034   2.160 -0.7180  0.4488 -0.2238
  779MOL0     C 5042   1.822   5.050   2.231  0.0003  0.2087  0.6136
  779MOL0     C 5043   1.869   5.188   2.191  0.2233 -0.3378  0.0323
  779MOL0     C 5044   2.019   5.205   2.206 -0.3204 -0.0063 -0.6555
  779MOL0     C 5045   2.058   5.349   2.159 -0.4830  0.4523 -0.2311
  779MOL0     C 5046   2.213   5.366   2.152 -0.5616 -0.9653  0.9413
  779MOL0     N 5047   2.244   5.505   2.110  0.5040 -0.1137 -0.6321
  779MOL0     C 5048   2.358   5.556   2.061  0.5212 -0.2633  0.0896
  779MOL0     C 5049   2.330   5.689   2.036 -0.5853 -0.4962 -0.3363
  779MOL0     C 5050   2.420   5.794   1.994 -0.7435 -0.1762 -0.1495
  779MOL0     C 5051   2.477   5.758   1.860 -0.4049  0.7769 -0.5933
  779MOL0     C 5052   2.541   5.876   1.799  0.4338 -0.0574 -1.8169
  779MOL0     C 5053   2.668   5.936   1.873  0.6069 -0.3004 -0.6571
  779MOL0     O 5054   2.780   5.845   1.886  0.4101  0.0914  1.2220
  779MOL0     C 5055   2.877   5.856   1.989 -0.2672 -0.5618 -0.0693
  779MOL0     C 5056   2.873   5.945   2.097 -0.5579 -0.2989  0.8758
  779MOL0     C 5057   2.973   5.948   2.201  0.7476 -0.4197  0.0838
  779MOL0     C 5058   2.954   6.050   2.311 -0.2033  0.5025  0.1998
  779MOL0     C 5059   3.093   5.876   2.187  0.4067 -0.5810 -0.8402
  779MOL0     C 5060   3.206   5.901   2.282 -0.6688  0.2614 -0.1685
  779MOL0     O 5061   3.197   5.965   2.405 -0.7319 -0.1859 -0.1093
  779MOL0     C 5062   3.314   5.972   2.487  0.4290 -0.5174 -0.3749
  779MOL0     C 5063   3.451   5.980   2.460  0.3186 -0.0748  0.1860
  779MOL0     C 5064   3.543   5.964   2.571 -0.1136  0.6698  0.0328
  779MOL0     C 5065   3.497   5.961   2.700  0.0069 -0.1238 -0.9597
  779MOL0     O 5066   3.593   5.947   2.797 -0.0307 -0.0373  0.4659
  779MOL0     C 5067   3.546   5.982   2.933 -0.6531  0.2426 -0.2475
  779MOL0     C 5068   3.483   6.124   2.949  0.9814 -0.6954 -0.6332
  779MOL0     C 5069   3.558   6.239   2.906 -0.8054  0.6577  0.7809
  779MOL0     C 5070   3.503   6.376   2.935 -0.6721 -0.1441 -0.1038
  779MOL0     C 5071   3.567   6.474   2.833  0.0087 -0.0382 -0.1823
  779MOL0     C 5072   3.498   6.612   2.844 -0.5447  0.0084  0.3850
  779MOL0     C 5073   3.522   6.695   2.714 -0.2944 -0.2018 -0.3142
  779MOL0     C 5074   3.556   6.847   2.731  0.3452 -0.4764 -0.0345
  779MOL0    Cl 5075   3.622   6.918   2.593 -0.1811  0.4246  0.2678
  779MOL0     C 5076   3.358   5.945   2.722  0.1742  0.3782  0.7902
  779MOL0     C 5077   3.268   5.945   2.614 -1.1167 -0.0646 -0.7126
  779MOL0     O 5078   3.310   5.843   2.243  0.2793 -0.1920  0.0140
  779MOL0     C 5079   3.104   5.791   2.081 -0.3956  1.1356 -0.7782
  779MOL0     C 5080   2.994   5.779   1.983 -0.1377  0.0991 -0.4935
  779MOL0     N 5081   2.198   5.716   2.071  0.4800  0.8606  0.6969
  779MOL0     N 5082   2.153   5.604   2.112 -0.2378 -0.0546  1.1268
  779MOL0     C 5083   1.342   4.684   2.192 -0.4224  0.2945 -0.6045
  779MOL0     C 5084   1.214   4.674   2.151  0.1554 -0.1671 -0.3770
  779MOL0     C 5085   0.855   4.616   1.881 -0.0548 -0.6284 -0.3698
  779MOL0     C 5086   0.760   4.717   1.856  0.5428 -0.5490  0.0035
  779MOL0     C 5087   0.623   4.689   1.833 -0.0344  0.1579 -0.3190
  779MOL0     C 5088   0.579   4.563   1.863  0.6510 -1.0002 -0.1162
  779MOL0     O 5089   0.443   4.551   1.863  0.2295 -0.4030 -0.2890
  779MOL0     C 5090   0.378   4.509   1.982  0.1721  0.3011  0.7240
  779MOL0     C 5091   0.253   4.606   1.982  0.3781  0.7950  0.5961
  779MOL0     C 5092   0.134   4.571   2.057 -0.8111  0.6919  0.5947
  779MOL0     C 5093   0.137   4.574   2.209  0.1555 -0.5830 -0.0877
  779MOL0     C 5094   0.138   4.433   2.260 -0.3497  0.1994 -0.0273
  779MOL0     C 5095   0.113   4.330   2.329  0.4731  0.1350  0.9353
  779MOL0     C 5096   0.667   4.463   1.887  0.1819 -0.0208 -0.5541
  779MOL0     C 5097   0.810   4.484   1.888 -0.5345  0.0405 -0.9270
  779MOL0     H 5098   1.261   4.531   1.856  0.4866 -0.7236  0.8037
  779MOL0     H 5099   1.518   4.599   1.937  0.2820 -0.9877 -0.2793
  779MOL0     H 5100   1.754   4.779   2.083 -0.5225 -1.9230 -0.2233
  779MOL0     H 5101   1.612   4.791   1.991  2.0141 -1.5358 -1.4605
  779MOL0     H 5102   1.503   4.918   2.185  0.6290  0.3227  0.8323
  779MOL0     H 5103   1.624   4.877   2.295 -3.0833 -0.4577  1.0640
  779MOL0     H 5104   1.712   5.036   2.054 -0.2450 -3.5202 -0.3545
  779MOL0     H 5105   1.631   5.126   2.177  0.4715  1.2047 -0.1792
  779MOL0     H 5106   1.798   5.049   2.338 -0.0547 -1.7954  0.6131
  779MOL0     H 5107   1.897   4.972   2.222  0.7819  0.6109  2.9401
  779MOL0     H 5108   1.843   5.219   2.090  2.2178  2.0475  0.1386
  779MOL0     H 5109   1.816   5.262   2.253 -0.1633 -0.6782  0.1098
  779MOL0     H 5110   2.039   5.190   2.313  1.7706  2.6254 -0.5640
  779MOL0     H 5111   2.073   5.126   2.153 -1.5197 -2.9726  2.2380
  779MOL0     H 5112   2.016   5.371   2.061 -2.2740 -0.0418  0.3854
  779MOL0     H 5113   2.011   5.420   2.228 -0.0869  1.6423 -1.1429
  779MOL0     H 5114   2.253   5.295   2.080 -1.3939  1.7670 -2.5113
  779MOL0     H 5115   2.264   5.348   2.247 -1.2932  1.3884  1.8774
  779MOL0     H 5116   2.448   5.498   2.042  0.4126 -1.1576  2.0525
  779MOL0     H 5117   2.363   5.888   1.995  1.6980  1.4263 -1.1018
  779MOL0     H 5118   2.493   5.796   2.075  0.2125  1.7631 -0.9831
  779MOL0     H 5119   2.396   5.725   1.795  0.3104 -3.7691  0.4963
  779MOL0     H 5120   2.544   5.672   1.875 -1.3235  0.3547  1.3607
  779MOL0     H 5121   2.464   5.952   1.780 -3.2226 -3.7543 -3.5340
  779MOL0     H 5122   2.576   5.842   1.701 -1.1872 -2.4392 -1.6555
  779MOL0     H 5123   2.638   5.968   1.974  1.3187 -3.1608  0.5776
  779MOL0     H 5124   2.698   6.026   1.820 -2.4768  0.7280 -0.8712
  779MOL0     H 5125   2.793   6.019   2.103  0.6554  2.1013 -5.3775
  779MOL0     H 5126   2.848   6.077   2.315 -0.8179 -1.8999  2.4588
  779MOL0     H 5127   2.980   6.022   2.413  3.5236  0.0953 -0.7293
  779MOL0     H 5128   3.016   6.139   2.294  0.7253 -0.1016  0.3926
  779MOL0     H 5129   3.497   6.014   2.367  3.4476 -0.4329  1.4653
  779MOL0     H 5130   3.651   5.969   2.559  0.0587 -1.1034  0.5802
  779MOL0     H 5131   3.469   5.920   2.980 -2.0391  1.8710 -0.2632
  779MOL0     H 5132   3.631   5.982   3.003 -2.2483  1.9162  1.8388
  779MOL0     H 5133   3.383   6.129   2.906 -0.3995 -0.3672  2.3093
  779MOL0     H 5134   3.462   6.142   3.055  1.9240 -1.9136 -0.2149
  779MOL0     H 5135   3.577   6.229   2.799 -0.9359 -1.9529  0.9172
  779MOL0     H 5136   3.654   6.239   2.960 -1.0441  1.5454  1.2166
  779MOL0     H 5137   3.394   6.379   2.934 -0.6860  1.2113  1.5444
  779MOL0     H 5138   3.534   6.409   3.034 -1.0231  0.6406 -0.2524
  779MOL0     H 5139   3.550   6.448   2.728 -1.5168  0.6481 -0.1460
  779MOL0     H 5140   3.674   6.485   2.847 -0.0059 -2.7102  2.9958
  779MOL0     H 5141   3.390   6.600   2.860 -0.1272 -5.1049  1.0918
  779MOL0     H 5142   3.545   6.656   2.932 -3.7457  2.7747  0.9117
  779MOL0     H 5143   3.433   6.704   2.652  0.2870 -0.1891 -1.1644
  779MOL0     H 5144   3.599   6.642   2.656  0.3513 -1.1038  1.3027
  779MOL0     H 5145   3.633   6.855   2.809 -1.0724  1.8122  1.2369
  779MOL0     H 5146   3.474   6.901   2.780  0.1872 -0.2056 -0.5932
  779MOL0     H 5147   3.318   5.919   2.820 -2.0423 -1.2403 -0.4452
  779MOL0     H 5148   3.162   5.946   2.638 -0.9835 -0.3923 -0.0848
  779MOL0     H 5149   3.196   5.737   2.062 -0.7266 -0.4298  1.6399
  779MOL0     H 5150   2.995   5.709   1.900 -3.3031 -1.7129  0.8176
  779MOL0     H 5151   1.365   4.732   2.286  1.0327  1.3921 -1.4791
  779MOL0     H 5152   1.129   4.697   2.215 -0.7107  2.9553 -2.4141
  779MOL0     H 5153   0.787   4.822   1.844 -3.6022  0.5282 -1.8562
  779MOL0     H 5154   0.560   4.772   1.802 -2.1061 -0.5659  1.6983
  779MOL0     H 5155   0.346   4.405   1.974  0.9683 -0.1513  2.6511
  779MOL0     H 5156   0.431   4.526   2.077 -0.6639  2.5365  0.8684
  779MOL0     H 5157   0.226   4.609   1.876 -3.1751 -1.0697  1.2745
  779MOL0     H 5158   0.293   4.697   2.027  2.1120 -1.2519  3.5684
  779MOL0     H 5159   0.097   4.473   2.026  0.4426  0.5701 -0.5535
  779MOL0     H 5160   0.051   4.633   2.021 -0.4911 -0.5130 -2.5179
  779MOL0     H 5161   0.049   4.624   2.250  0.4031  1.0954 -1.4805
  779MOL0     H 5162   0.217   4.639   2.246 -0.9865 -0.3150  2.0183
  779MOL0     H 5163   0.093   4.252   2.400  1.4667 -0.6405  0.3947
  779MOL0     H 5164   0.615   4.368   1.888 -4.8630  2.3338 -2.8975
  779MOL0     H 5165   0.883   4.406   1.909  0.7896  1.6150  0.6210
  780MOL0     O 5166   9.207   4.846   5.055 -1.1974  0.3443 -0.7980
  780MOL0     C 5167   9.283   4.861   5.153 -0.3589 -0.0411 -0.3115
  780MOL0     O 5168   9.231   4.918   5.276  0.0810  0.1994  0.0103
  780MOL0     C 5169   9.115   4.984   5.273 -0.0943  1.3381  0.1491
  780MOL0     C 5170   9.101   5.102   5.212 -1.3192 -0.2423 -0.3637
  780MOL0     C 5171   8.988   5.181   5.222  0.2546  0.2899 -0.3176
  780MOL0     C 5172   8.867   5.133   5.290 -0.7809  0.7343  0.9351
  780MOL0     O 5173   8.745   5.199   5.296 -0.1705 -0.2418  0.1841
  780MOL0     C 5174   8.700   5.254   5.172  0.0780  0.2161 -0.6421
  780MOL0     C 5175   8.555   5.319   5.194 -0.3434  0.7293  0.2969
  780MOL0     C 5176   8.506   5.400   5.071 -0.0892  1.3076  0.0240
  780MOL0     C 5177   8.599   5.526   5.044 -0.0203  0.4224 -0.6764
  780MOL0     C 5178   8.529   5.632   4.959  0.7424  0.4964  0.0197
  780MOL0     C 5179   8.638   5.726   4.892  0.5230 -0.7737  0.0053
  780MOL0     C 5180   8.577   5.841   4.809  0.4990  0.1515  0.1524
  780MOL0     C 5181   8.636   5.980   4.819 -0.5911 -0.5765 -0.1761
  780MOL0     N 5182   8.662   6.037   4.955 -0.9424 -0.1067  0.7989
  780MOL0     C 5183   8.566   6.043   5.052  0.3479  0.0234 -0.3780
  780MOL0     C 5184   8.632   6.107   5.149 -0.7855 -0.0394 -1.6561
  780MOL0     C 5185   8.575   6.155   5.278 -0.7855  0.3748 -0.8630
  780MOL0     C 5186   8.499   6.285   5.277  0.7890 -0.1131  0.0485
  780MOL0     C 5187   8.404   6.313   5.155 -1.0545 -0.2499  0.2772
  780MOL0     C 5188   8.268   6.246   5.171 -0.0141 -0.3409 -0.2993
  780MOL0     O 5189   8.210   6.261   5.042 -0.7122 -0.0415 -0.0330
  780MOL0     C 5190   8.112   6.353   5.043  0.6292 -0.0316 -0.8407
  780MOL0     C 5191   7.993   6.339   5.115  0.4200  0.4715 -0.3276
  780MOL0     C 5192   7.879   6.421   5.108  0.0686  1.0601  0.5182
  780MOL0     C 5193   7.771   6.406   5.208 -0.6440 -0.2203  0.1248
  780MOL0     C 5194   7.891   6.538   5.027  0.4823  0.2867 -0.5601
  780MOL0     C 5195   7.780   6.629   5.003  0.6925  1.0623 -0.3102
  780MOL0     O 5196   7.649   6.595   5.033 -0.4293 -0.1488 -0.0624
  780MOL0     C 5197   7.563   6.702   5.033  0.2770  0.3589  0.2540
  780MOL0     C 5198   7.564   6.792   5.139  0.8798 -0.2447  0.2177
  780MOL0     C 5199   7.479   6.907   5.131 -1.1898  0.3103  0.0249
  780MOL0     C 5200   7.385   6.913   5.032 -0.1088 -0.1884  0.9512
  780MOL0     O 5201   7.294   7.018   5.011 -0.6537 -0.5030 -0.0740
  780MOL0     C 5202   7.287   7.129   5.100  0.2642 -0.6280 -0.2390
  780MOL0     C 5203   7.178   7.230   5.053 -0.4082  0.3294  0.4439
  780MOL0     C 5204   7.041   7.187   5.103  0.2612 -0.5707  0.1538
  780MOL0     C 5205   6.927   7.286   5.071  0.6412  0.3272  0.2393
  780MOL0     C 5206   6.789   7.229   5.119 -0.5160  0.0017 -0.6051
  780MOL0     C 5207   6.673   7.283   5.031 -1.1652 -0.7002  0.0816
  780MOL0     C 5208   6.546   7.216   5.055 -0.2230  0.7649  0.0947
  780MOL0     C 5209   6.430   7.291   5.011  0.6852 -0.1757 -0.1411
  780MOL0    Cl 5210   6.427   7.345   4.845 -0.2428  0.4726  0.3587
  780MOL0     C 5211   7.374   6.814   4.936  0.4805 -0.6650  0.2237
  780MOL0     C 5212   7.467   6.714   4.929 -0.6590  0.1188  0.1309
  780MOL0     O 5213   7.813   6.734   4.950 -0.1100  0.6818 -0.0780
  780MOL0     C 5214   8.014   6.550   4.953  0.6978  0.4201 -0.0373
  780MOL0     C 5215   8.124   6.467   4.959 -0.2530  0.3508  0.2769
  780MOL0     N 5216   8.757   6.147   5.114  0.0095 -0.3388 -0.0804
  780MOL0     N 5217   8.783   6.097   4.995 -0.4804 -0.1387 -0.0452
  780MOL0     C 5218   8.877   5.009   5.353  0.9775  0.6429  0.4644
  780MOL0     C 5219   9.001   4.938   5.349  0.5371  0.2553  1.1363
  780MOL0     C 5220   9.430   4.826   5.138 -0.3848 -0.2297  0.3045
  780MOL0     C 5221   9.484   4.787   5.016 -0.4288 -0.0721 -1.0185
  780MOL0     C 5222   9.615   4.740   5.001 -0.3611  0.7945 -0.3034
  780MOL0     C 5223   9.691   4.729   5.116  0.0147  0.0613  0.0426
  780MOL0     O 5224   9.820   4.675   5.098 -0.4565 -0.1538  0.3699
  780MOL0     C 5225   9.922   4.670   5.200  1.2206 -0.2073  0.1131
  780MOL0     C 5226   9.895   4.543   5.272  0.2319  0.2423 -0.0487
  780MOL0     C 5227   9.880   4.412   5.201 -0.8470  0.3035 -0.2257
  780MOL0     C 5228  10.016   4.369   5.134 -0.4148 -0.1212 -0.2989
  780MOL0     C 5229   9.996   4.250   5.057  0.0473 -0.7161 -1.1367
  780MOL0     C 5230   9.993   4.155   4.980  0.6683  0.4604  0.3408
  780MOL0     C 5231   9.646   4.762   5.247  0.8275 -0.1778  0.7271
  780MOL0     C 5232   9.514   4.821   5.245 -0.3345  0.6256 -0.1609
  780MOL0     H 5233   9.184   5.138   5.154  0.4260 -3.1039  0.1752
  780MOL0     H 5234   8.975   5.282   5.184 -2.1656  0.7160  1.4532
  780MOL0     H 5235   8.772   5.327   5.136  1.2667 -0.2219  0.7482
  780MOL0     H 5236   8.686   5.173   5.100 -3.2140 -0.0407  0.0816
  780MOL0     H 5237   8.486   5.236   5.214  0.8778 -1.9925 -4.9367
  780MOL0     H 5238   8.552   5.386   5.281  0.8138  1.3939 -0.1551
  780MOL0     H 5239   8.527   5.337   4.984 -1.7878 -1.5323  1.5246
  780MOL0     H 5240   8.399   5.420   5.071 -0.0897  1.5664 -2.2654
  780MOL0     H 5241   8.647   5.570   5.132  1.5284 -0.9793 -0.7600
  780MOL0     H 5242   8.687   5.501   4.983  0.5545  3.8540 -1.4283
  780MOL0     H 5243   8.482   5.587   4.871  1.1583 -0.3841  0.2405
  780MOL0     H 5244   8.461   5.689   5.023  1.1724 -1.3075  2.1947
  780MOL0     H 5245   8.698   5.777   4.967  0.0907  1.2954 -0.9863
  780MOL0     H 5246   8.721   5.686   4.833  3.9052  2.4393  2.1523
  780MOL0     H 5247   8.581   5.803   4.707 -3.9316  1.9427 -0.9323
  780MOL0     H 5248   8.473   5.853   4.842  0.5083 -2.5879  1.4148
  780MOL0     H 5249   8.562   6.043   4.768 -0.0660 -2.6921 -3.8853
  780MOL0     H 5250   8.725   5.990   4.757 -1.0818  0.6961 -0.7046
  780MOL0     H 5251   8.467   5.999   5.040  0.1515  0.3133  0.0995
  780MOL0     H 5252   8.505   6.076   5.304  0.3536 -0.0060  1.2588
  780MOL0     H 5253   8.656   6.172   5.351 -1.7377  0.7796  0.1287
  780MOL0     H 5254   8.564   6.374   5.276 -0.4636  0.8323 -0.1129
  780MOL0     H 5255   8.427   6.297   5.358 -1.0587 -0.7219 -1.4222
  780MOL0     H 5256   8.454   6.269   5.068  3.4536 -1.0219  2.9413
  780MOL0     H 5257   8.392   6.421   5.141  0.9591  0.3638  2.5753
  780MOL0     H 5258   8.213   6.304   5.246 -0.9283 -1.6244  0.0535
  780MOL0     H 5259   8.263   6.139   5.193 -2.7602  0.1395  2.1270
  780MOL0     H 5260   7.981   6.262   5.190  1.4581  1.9579  1.4413
  780MOL0     H 5261   7.816   6.364   5.299  4.4052  2.0029 -1.0115
  780MOL0     H 5262   7.740   6.500   5.255  1.7635  0.4006  0.6075
  780MOL0     H 5263   7.687   6.349   5.167 -1.2824 -1.6071  3.0279
  780MOL0     H 5264   7.640   6.789   5.216  0.1759 -3.4313  0.9181
  780MOL0     H 5265   7.495   6.980   5.210 -0.4868 -1.1543  1.2884
  780MOL0     H 5266   7.262   7.102   5.203 -1.6006 -2.2833 -1.0414
  780MOL0     H 5267   7.382   7.182   5.103 -0.5724  0.9047  0.5025
  780MOL0     H 5268   7.202   7.329   5.093  4.0927  0.2078 -1.4041
  780MOL0     H 5269   7.192   7.248   4.946  1.1145  4.7276  1.1758
  780MOL0     H 5270   7.053   7.174   5.211  0.2540 -0.8727  0.1207
  780MOL0     H 5271   7.022   7.090   5.056  1.4899 -0.3713 -0.7937
  780MOL0     H 5272   6.944   7.384   5.117  4.8441 -1.0319  2.0278
  780MOL0     H 5273   6.930   7.298   4.962  1.5242 -1.1896  0.0711
  780MOL0     H 5274   6.769   7.254   5.223  2.2406  2.2324 -0.5032
  780MOL0     H 5275   6.793   7.119   5.123  1.8359  0.0613 -0.0337
  780MOL0     H 5276   6.655   7.391   5.045  0.1159 -0.8466  4.4905
  780MOL0     H 5277   6.688   7.273   4.923 -0.3640  2.2839 -0.1802
  780MOL0     H 5278   6.543   7.219   5.165  1.4303 -1.2199  0.2486
  780MOL0     H 5279   6.549   7.119   5.005 -1.3035  1.1378 -0.7114
  780MOL0     H 5280   6.430   7.382   5.072  1.3470 -1.4624  1.8668
  780MOL0     H 5281   6.339   7.246   5.053  1.3613 -0.9259  0.5529
  780MOL0     H 5282   7.294   6.819   4.862 -0.3163  0.0857  1.1100
  780MOL0     H 5283   7.455   6.650   4.842  1.9207  1.6889 -1.5365
  780MOL0     H 5284   8.013   6.637   4.889 -0.2531 -0.2309 -0.9400
  780MOL0     H 5285   8.210   6.479   4.893  0.9740  2.3130  2.0850
  780MOL0     H 5286   8.795   4.975   5.414  0.1495  0.0072 -0.9556
  780MOL0     H 5287   9.019   4.845   5.403  2.3406  0.7938  1.5199
  780MOL0     H 5288   9.431   4.799   4.922 -1.5532  3.3934 -0.1079
  780MOL0     H 5289   9.660   4.705   4.909  1.5485 -3.4096  1.9476
  780MOL0     H 5290  10.019   4.680   5.150  1.1712 -1.2865 -0.2181
  780MOL0     H 5291   9.916   4.754   5.270 -1.0399  0.8932 -1.2800
  780MOL0     H 5292   9.809   4.563   5.336 -0.3502  1.4173 -1.1488
  780MOL0     H 5293   9.980   4.531   5.339 -0.6542  0.9901  1.2474
  780MOL0     H 5294   9.797   4.410   5.130 -0.3385  1.4851 -0.8906
  780MOL0     H 5295   9.849   4.335   5.272 -3.0751  1.9043  0.6809
  780MOL0     H 5296  10.082   4.349   5.220  0.9248  1.5058 -0.8964
  780MOL0     H 5297  10.055   4.451   5.073  0.4259 -0.5151 -0.2998
  780MOL0     H 5298   9.979   4.079   4.906  0.5450 -0.5149  1.3418
  780MOL0     H 5299   9.714   4.765   5.332  1.9338  2.4738 -0.1608
  780MOL0     H 5300   9.470   4.870   5.331  0.4901  1.1304 -0.0177
  781MOL0     O 5301  10.291   5.301   8.716 -0.4497 -0.0865  0.7809
  781MOL0     C 5302  10.218   5.403   8.700 -0.2175  0.0684  0.0317
  781MOL0     O 5303  10.094   5.430   8.749 -0.6351  1.3464 -0.6341
  781MOL0     C 5304  10.022   5.321   8.802 -0.5909  0.5053 -0.2441
  781MOL0     C 5305  10.004   5.199   8.739  0.4843  0.4889  0.0170
  781MOL0     C 5306   9.906   5.110   8.786 -0.5647  0.4437  1.5234
  781MOL0     C 5307   9.833   5.137   8.901  0.2830  0.1885  0.1247
  781MOL0     O 5308   9.751   5.031   8.943 -0.3504  0.2981 -0.6967
  781MOL0     C 5309   9.621   5.053   8.994  0.1904  0.0591 -0.5899
  781MOL0     C 5310   9.502   5.031   8.897  0.2650  0.3742  0.4965
  781MOL0     C 5311   9.487   4.888   8.839  0.1110  0.4947  0.1565
  781MOL0     C 5312   9.384   4.866   8.728 -0.1529  0.6836 -0.1823
  781MOL0     C 5313   9.238   4.909   8.767 -0.1977  0.6940 -0.5276
  781MOL0     C 5314   9.135   4.835   8.663  1.1825  0.1071 -0.2608
  781MOL0     C 5315   9.152   4.900   8.524  0.5891 -0.2805 -0.7119
  781MOL0     C 5316   9.072   4.814   8.420 -0.0078 -0.7039 -0.0928
  781MOL0     N 5317   8.925   4.818   8.446  0.8793  0.0989  0.6385
  781MOL0     C 5318   8.850   4.931   8.469  0.5742 -0.6703  0.2852
  781MOL0     C 5319   8.730   4.895   8.515  0.1063  0.0832  0.2911
  781MOL0     C 5320   8.611   4.986   8.552 -0.3105  0.5425  1.1385
  781MOL0     C 5321   8.542   5.052   8.429 -0.7387  0.9250 -0.1944
  781MOL0     C 5322   8.635   5.144   8.353  0.1578 -0.2149  0.1091
  781MOL0     C 5323   8.688   5.264   8.425 -0.7808  0.5971  0.5206
  781MOL0     O 5324   8.578   5.360   8.429  0.2415 -0.1030 -0.0659
  781MOL0     C 5325   8.590   5.460   8.521 -0.2677 -0.5353 -0.6476
  781MOL0     C 5326   8.688   5.487   8.614 -0.3289 -0.3107  0.1612
  781MOL0     C 5327   8.674   5.597   8.704  0.4086  0.8557 -0.5603
  781MOL0     C 5328   8.792   5.631   8.781 -0.2956 -0.5770  0.2723
  781MOL0     C 5329   8.550   5.665   8.714 -0.9423  0.1264  0.1134
  781MOL0     C 5330   8.517   5.764   8.822 -1.3005  0.6302  0.2484
  781MOL0     O 5331   8.399   5.819   8.814 -0.8281  0.4392 -0.1664
  781MOL0     C 5332   8.355   5.900   8.912 -0.2646 -0.1200 -0.1182
  781MOL0     C 5333   8.232   5.867   8.971 -0.9404 -0.0511  0.1581
  781MOL0     C 5334   8.171   5.939   9.065 -0.3198 -1.0762 -0.2456
  781MOL0     C 5335   8.228   6.051   9.120 -0.2067 -0.1007  0.3299
  781MOL0     O 5336   8.160   6.099   9.230 -0.4218  0.3768  0.2525
  781MOL0     C 5337   8.173   6.242   9.268 -0.2319 -0.4345 -0.6779
  781MOL0     C 5338   8.038   6.312   9.296  0.8890 -0.6248 -1.1513
  781MOL0     C 5339   8.006   6.311   9.451 -1.0212 -0.2487  0.2593
  781MOL0     C 5340   7.898   6.408   9.496 -0.0004  0.4127 -0.6447
  781MOL0     C 5341   7.899   6.442   9.642  0.0820 -0.8844  0.0377
  781MOL0     C 5342   7.858   6.326   9.732 -0.2901 -0.9643  0.2582
  781MOL0     C 5343   7.855   6.366   9.880 -0.9820  0.7072  0.2375
  781MOL0     C 5344   7.815   6.250   9.970 -0.7174 -0.1017  0.7995
  781MOL0    Cl 5345   7.639   6.223   9.953  0.0495  0.0336  0.3382
  781MOL0     C 5346   8.338   6.108   9.048  0.2266 -0.4428  0.3038
  781MOL0     C 5347   8.402   6.035   8.943  0.6913 -0.4053  0.3620
  781MOL0     O 5348   8.600   5.788   8.905  0.3639  0.1944 -0.8898
  781MOL0     C 5349   8.457   5.645   8.610  0.9934  0.9896  0.5592
  781MOL0     C 5350   8.486   5.546   8.514 -0.2998 -0.4684  0.1301
  781MOL0     N 5351   8.724   4.761   8.501 -0.0198 -0.1136  0.4565
  781MOL0     N 5352   8.836   4.711   8.456 -0.1480 -0.9994 -0.6682
  781MOL0     C 5353   9.860   5.257   8.975  0.4614  0.9993 -0.2151
  781MOL0     C 5354   9.956   5.347   8.922  0.2000  0.8427 -1.1611
  781MOL0     C 5355  10.293   5.525   8.660  0.0684 -0.3577  0.2859
  781MOL0     C 5356  10.242   5.649   8.697 -0.5425 -0.4666 -0.3353
  781MOL0     C 5357  10.292   5.774   8.651 -0.0430 -0.3775  0.4846
  781MOL0     C 5358  10.398   5.772   8.566 -0.6320  0.7291  1.2841
  781MOL0     O 5359  10.451   5.885   8.508 -0.1585 -0.0594 -0.0723
  781MOL0     C 5360  10.429   5.900   8.364 -0.3905 -1.0460  0.3762
  781MOL0     C 5361  10.558   5.859   8.286  0.8621  0.3272 -0.1997
  781MOL0     C 5362  10.694   5.904   8.348  1.1246  0.4676  0.2762
  781MOL0     C 5363  10.708   6.051   8.359  0.1809 -0.0025 -0.2577
  781MOL0     C 5364  10.708   6.097   8.220 -0.0786  0.3425  0.0211
  781MOL0     C 5365  10.684   6.154   8.114 -0.0986 -0.0025  0.6842
  781MOL0     C 5366  10.457   5.642   8.539 -0.5527 -0.3889  0.0877
  781MOL0     C 5367  10.402   5.516   8.582  0.7865 -1.1043 -0.6777
  781MOL0     H 5368  10.062   5.178   8.650  0.8633  0.8186  0.1830
  781MOL0     H 5369   9.876   5.020   8.733  0.7747  0.4442  0.7143
  781MOL0     H 5370   9.598   4.982   9.074 -5.3684 -0.0604 -1.8805
  781MOL0     H 5371   9.607   5.143   9.055 -2.9170 -0.9171  0.2797
  781MOL0     H 5372   9.414   5.066   8.952  0.8927  0.0798  1.7044
  781MOL0     H 5373   9.505   5.096   8.809 -0.0638 -1.2319 -0.7383
  781MOL0     H 5374   9.584   4.851   8.802 -0.3498 -1.0836  0.4226
  781MOL0     H 5375   9.452   4.814   8.912 -1.3559 -2.2118 -3.0041
  781MOL0     H 5376   9.421   4.918   8.639 -0.9751 -1.2513 -1.7089
  781MOL0     H 5377   9.370   4.762   8.700  0.7891 -0.0421  1.8026
  781MOL0     H 5378   9.212   4.870   8.866 -2.8842 -1.4898 -1.9672
  781MOL0     H 5379   9.223   5.017   8.768 -3.1339  0.3604  0.5182
  781MOL0     H 5380   9.157   4.728   8.662 -2.6444 -0.8119 -1.3872
  781MOL0     H 5381   9.032   4.827   8.699  1.5339 -2.0974  0.4219
  781MOL0     H 5382   9.098   4.995   8.529  0.6578 -0.3067  2.0292
  781MOL0     H 5383   9.249   4.929   8.483  1.0210 -0.1159  0.3977
  781MOL0     H 5384   9.112   4.713   8.417  0.6057 -0.4467 -1.4251
  781MOL0     H 5385   9.075   4.862   8.321 -3.3054 -0.2022 -0.0796
  781MOL0     H 5386   8.876   5.036   8.482  1.1580 -1.0042  2.1090
  781MOL0     H 5387   8.545   4.911   8.597  0.0730  0.0711  0.9266
  781MOL0     H 5388   8.646   5.055   8.630  3.1302 -0.1863  0.3974
  781MOL0     H 5389   8.456   5.114   8.458 -1.2972 -0.6777  1.7745
  781MOL0     H 5390   8.512   4.969   8.364  0.5155  1.2689 -1.2595
  781MOL0     H 5391   8.581   5.185   8.267  0.8332 -1.8582 -1.1554
  781MOL0     H 5392   8.721   5.093   8.310  1.1447 -0.0212  1.7736
  781MOL0     H 5393   8.774   5.290   8.362  0.8095 -3.9605  0.4134
  781MOL0     H 5394   8.718   5.259   8.530  0.5101  2.4017  0.2701
  781MOL0     H 5395   8.773   5.423   8.628 -1.6282 -2.1973 -0.2136
  781MOL0     H 5396   8.754   5.631   8.884 -1.9024  2.0299 -0.2101
  781MOL0     H 5397   8.881   5.569   8.769  1.6400  2.1214 -0.2418
  781MOL0     H 5398   8.818   5.735   8.757 -2.1203  0.2146  1.4208
  781MOL0     H 5399   8.187   5.775   8.936  0.3329 -0.0918 -1.5526
  781MOL0     H 5400   8.086   5.902   9.121  0.2051 -0.3800  1.0446
  781MOL0     H 5401   8.228   6.237   9.362  0.5513 -0.3509 -1.1272
  781MOL0     H 5402   8.239   6.299   9.202 -3.1984  1.6363 -2.0908
  781MOL0     H 5403   8.050   6.415   9.263 -1.1760 -0.9028 -3.0333
  781MOL0     H 5404   7.955   6.275   9.235  0.7435 -0.4016 -1.0874
  781MOL0     H 5405   8.088   6.335   9.519 -0.1572  0.6957 -1.0706
  781MOL0     H 5406   7.967   6.210   9.470  0.5799 -0.9015  0.2808
  781MOL0     H 5407   7.911   6.494   9.430  3.5701 -1.3348 -2.4889
  781MOL0     H 5408   7.797   6.374   9.471 -0.7766 -0.3669  2.8830
  781MOL0     H 5409   7.831   6.527   9.649 -0.8006 -1.6971  3.2834
  781MOL0     H 5410   8.000   6.482   9.661  0.1608 -1.2325  0.3656
  781MOL0     H 5411   7.755   6.300   9.709 -1.8254  2.9404  1.7719
  781MOL0     H 5412   7.917   6.236   9.714 -0.7217 -1.5918  1.8046
  781MOL0     H 5413   7.792   6.454   9.894  0.3682  2.0963 -1.8068
  781MOL0     H 5414   7.960   6.367   9.912 -0.4743 -0.1879 -1.2984
  781MOL0     H 5415   7.868   6.273  10.062  0.7733  1.1867 -0.3281
  781MOL0     H 5416   7.865   6.161   9.932  0.4988  0.5605  0.7958
  781MOL0     H 5417   8.380   6.203   9.080 -0.4749  0.4786 -1.3887
  781MOL0     H 5418   8.493   6.080   8.904  0.3452 -0.5186 -0.6016
  781MOL0     H 5419   8.364   5.701   8.603  1.2593  1.3402 -0.4844
  781MOL0     H 5420   8.409   5.533   8.438 -0.9106  3.6740 -0.2447
  781MOL0     H 5421   9.819   5.279   9.073 -2.3196  0.1077 -1.0586
  781MOL0     H 5422   9.986   5.435   8.979  0.1905  1.3620 -1.9448
  781MOL0     H 5423  10.158   5.655   8.765 -0.7250  0.7611 -0.6395
  781MOL0     H 5424  10.270   5.873   8.689 -0.3669 -0.0739 -0.4755
  781MOL0     H 5425  10.335   5.858   8.328 -1.0895 -2.8392  3.7622
  781MOL0     H 5426  10.416   6.007   8.348 -1.1693 -1.6177 -4.0789
  781MOL0     H 5427  10.550   5.893   8.182 -1.4932  3.0700  0.7558
  781MOL0     H 5428  10.558   5.749   8.287 -3.0781  0.1815  0.9506
  781MOL0     H 5429  10.762   5.857   8.276  0.2750  0.8814 -0.8208
  781MOL0     H 5430  10.713   5.854   8.444  0.1168 -1.0223 -0.2578
  781MOL0     H 5431  10.806   6.055   8.409  1.0415  1.1905 -1.9644
  781MOL0     H 5432  10.628   6.110   8.406 -1.6496 -1.5931 -1.2419
  781MOL0     H 5433  10.661   6.208   8.024  0.6131  0.9236  1.0469
  781MOL0     H 5434  10.546   5.634   8.477 -1.8110 -1.8817 -1.6392
  781MOL0     H 5435  10.448   5.421   8.558  0.2923 -1.2587 -1.0211
  782MOL0     O 5436   1.518  10.320   6.790  0.4045 -0.4158  0.3599
  782MOL0     C 5437   1.515  10.397   6.882  0.1123  0.1875 -0.5366
  782MOL0     O 5438   1.550  10.363   7.013  0.3059  0.3784  0.9588
  782MOL0     C 5439   1.618  10.251   7.057 -0.2322 -0.4505  0.5366
  782MOL0     C 5440   1.622  10.129   6.983  0.2937 -0.6042 -0.2363
  782MOL0     C 5441   1.681  10.015   7.045 -0.1650 -0.1767  0.1211
  782MOL0     C 5442   1.747  10.029   7.173 -0.1281 -0.0896  0.7493
  782MOL0     O 5443   1.792   9.925   7.241  1.3175  0.1130 -1.2508
  782MOL0     C 5444   1.931   9.928   7.271 -0.2212 -1.0810 -1.0693
  782MOL0     C 5445   1.954   9.825   7.381  0.1177 -0.1998 -0.4156
  782MOL0     C 5446   1.910   9.684   7.354  0.1900 -0.6528  0.1825
  782MOL0     C 5447   1.969   9.584   7.459 -0.8945  0.3058  0.7620
  782MOL0     C 5448   1.933   9.441   7.424  0.0581  0.0709  0.3360
  782MOL0     C 5449   1.796   9.408   7.476  0.1521  0.1291 -0.2743
  782MOL0     C 5450   1.750   9.281   7.399 -0.0979  0.1153  0.8884
  782MOL0     C 5451   1.637   9.213   7.475  0.2546 -0.2840 -0.3523
  782MOL0     N 5452   1.674   9.152   7.602  1.1627 -0.3834 -0.1808
  782MOL0     C 5453   1.768   9.055   7.612 -1.0217 -0.1847 -0.7760
  782MOL0     C 5454   1.760   9.007   7.743 -0.2852  0.0410  0.7512
  782MOL0     C 5455   1.856   8.902   7.788 -0.3958  0.0089  0.6940
  782MOL0     C 5456   1.987   8.973   7.798  0.6019  0.0607 -0.5672
  782MOL0     C 5457   2.080   8.881   7.866 -1.5830 -0.1999 -0.5837
  782MOL0     C 5458   2.222   8.937   7.880 -0.5835 -0.3111  0.5757
  782MOL0     O 5459   2.282   8.969   7.746  0.4438  0.3109 -0.0491
  782MOL0     C 5460   2.400   9.043   7.743 -0.0018 -0.8012 -0.8051
  782MOL0     C 5461   2.433   9.145   7.841 -0.4626 -0.0383 -0.0118
  782MOL0     C 5462   2.550   9.219   7.835  0.2142 -0.8588  0.0578
  782MOL0     C 5463   2.567   9.323   7.939  0.9297  0.1791  0.7231
  782MOL0     C 5464   2.636   9.195   7.727  0.2023 -0.3883 -0.3133
  782MOL0     C 5465   2.760   9.280   7.704 -0.2466  0.3679 -0.5455
  782MOL0     O 5466   2.807   9.298   7.571 -0.0886  0.4572  0.2978
  782MOL0     C 5467   2.930   9.325   7.549 -1.4845 -0.0242 -0.0634
  782MOL0     C 5468   2.959   9.407   7.438 -0.5690  0.4421 -0.5113
  782MOL0     C 5469   3.092   9.453   7.419 -0.5379 -0.2303  0.2399
  782MOL0     C 5470   3.201   9.406   7.499 -0.1055  0.1472  0.1737
  782MOL0     O 5471   3.330   9.450   7.488 -0.0879  0.0853 -0.4753
  782MOL0     C 5472   3.370   9.579   7.445 -0.1412  0.2237 -0.5799
  782MOL0     C 5473   3.324   9.688   7.531  0.7315 -0.4602 -0.3449
  782MOL0     C 5474   3.363   9.821   7.476  0.8282 -0.0624  0.4712
  782MOL0     C 5475   3.508   9.862   7.504 -0.0183  1.6421 -1.3027
  782MOL0     C 5476   3.549   9.983   7.442 -0.4936  0.3200 -0.3487
  782MOL0     C 5477   3.696  10.028   7.480  0.6743  1.0705 -0.7861
  782MOL0     C 5478   3.805   9.959   7.392  0.7230 -0.0521 -0.2705
  782MOL0     C 5479   3.788   9.975   7.239 -0.2568 -0.5998  0.2232
  782MOL0    Cl 5480   3.919   9.878   7.166 -0.1804  0.6569 -0.1978
  782MOL0     C 5481   3.166   9.325   7.609 -0.1838  0.3892 -0.8505
  782MOL0     C 5482   3.038   9.284   7.623 -0.5551  0.0623  0.8752
  782MOL0     O 5483   2.823   9.310   7.803 -0.6637  0.5673  0.3980
  782MOL0     C 5484   2.605   9.095   7.629 -0.8162  0.5689  0.5939
  782MOL0     C 5485   2.482   9.021   7.636  0.1681 -0.0128  0.0917
  782MOL0     N 5486   1.673   9.090   7.811 -0.4698 -0.2826 -0.7138
  782MOL0     N 5487   1.619   9.175   7.724 -0.0520  0.4933  0.4956
  782MOL0     C 5488   1.751  10.151   7.231 -0.1958 -0.8015 -0.1823
  782MOL0     C 5489   1.687  10.263   7.166 -0.0903  0.6849 -0.2905
  782MOL0     C 5490   1.469  10.531   6.847  0.1157  0.0472  0.2447
  782MOL0     C 5491   1.438  10.566   6.712  0.4282  0.3758 -1.0369
  782MOL0     C 5492   1.380  10.686   6.670  0.8068 -0.0021  0.2359
  782MOL0     C 5493   1.348  10.778   6.775 -1.0719 -0.5695  0.1657
  782MOL0     O 5494   1.281  10.891   6.723 -0.4031  0.7564 -0.7684
  782MOL0     C 5495   1.269  11.006   6.813 -0.5560  0.0888  0.8490
  782MOL0     C 5496   1.387  11.098   6.790 -0.2453  0.5578  0.2822
  782MOL0     C 5497   1.385  11.222   6.881  0.1820 -1.0647 -0.1379
  782MOL0     C 5498   1.508  11.316   6.877 -0.3161  0.6219 -0.3880
  782MOL0     C 5499   1.504  11.432   6.964  1.4095  0.2749 -0.0537
  782MOL0     C 5500   1.493  11.507   7.054  0.3143 -0.3127 -0.1970
  782MOL0     C 5501   1.383  10.754   6.907 -0.5396  0.2568  0.3786
  782MOL0     C 5502   1.447  10.632   6.948  0.3735  0.9149 -0.3633
  782MOL0     H 5503   1.560  10.120   6.894  0.2409 -0.0854 -0.2559
  782MOL0     H 5504   1.674   9.920   6.993  1.9479  1.1444 -2.8619
  782MOL0     H 5505   1.987   9.886   7.187 -1.3933 -4.7459 -0.2297
  782MOL0     H 5506   1.965  10.021   7.317  0.1766 -1.7349  0.0064
  782MOL0     H 5507   2.061   9.821   7.404 -0.1961 -0.3340  1.1539
  782MOL0     H 5508   1.896   9.866   7.465 -0.0249  3.1960 -2.0044
  782MOL0     H 5509   1.801   9.679   7.357  0.0672  1.1054  3.9539
  782MOL0     H 5510   1.947   9.656   7.255  0.3864  2.0227 -0.5761
  782MOL0     H 5511   2.078   9.593   7.453 -0.9438 -0.1806 -1.9703
  782MOL0     H 5512   1.935   9.620   7.557  2.5615  3.2740  1.1022
  782MOL0     H 5513   1.947   9.423   7.317  1.4272  4.8480 -0.5673
  782MOL0     H 5514   2.011   9.380   7.471  1.0151  2.8397  2.6633
  782MOL0     H 5515   1.786   9.384   7.583  0.1764 -1.1327 -0.5434
  782MOL0     H 5516   1.722   9.487   7.460  1.5148  1.2326 -1.3845
  782MOL0     H 5517   1.711   9.289   7.298 -2.5248 -5.9021  0.9310
  782MOL0     H 5518   1.837   9.214   7.396 -0.1043  0.1466 -1.7239
  782MOL0     H 5519   1.589   9.145   7.405  0.3959 -2.7608  1.7974
  782MOL0     H 5520   1.559   9.288   7.490  2.2712  1.3886  2.9861
  782MOL0     H 5521   1.843   9.011   7.546  0.1196  1.5035 -0.6896
  782MOL0     H 5522   1.825   8.870   7.888 -2.0850 -0.2179  0.1179
  782MOL0     H 5523   1.874   8.824   7.714 -0.5963  1.4648 -0.9323
  782MOL0     H 5524   1.962   9.059   7.861 -1.4676  0.2530 -1.5845
  782MOL0     H 5525   2.013   9.007   7.697 -2.9420 -0.0663 -1.6448
  782MOL0     H 5526   2.083   8.783   7.819  0.7692 -1.2231  1.4621
  782MOL0     H 5527   2.057   8.861   7.971  0.5060  0.6200  0.0845
  782MOL0     H 5528   2.296   8.876   7.933  0.5643 -0.8263 -1.5005
  782MOL0     H 5529   2.199   9.027   7.938  0.1843 -0.8217  1.7109
  782MOL0     H 5530   2.359   9.175   7.916 -1.0709 -0.7887 -0.3029
  782MOL0     H 5531   2.611   9.416   7.904 -2.0390  1.4495  0.0497
  782MOL0     H 5532   2.471   9.343   7.987  0.6788 -0.6343  0.5891
  782MOL0     H 5533   2.626   9.287   8.024  1.1318 -5.8586 -1.4315
  782MOL0     H 5534   2.878   9.454   7.383 -1.8713 -0.7445  0.3290
  782MOL0     H 5535   3.105   9.523   7.338  1.3475  0.2833  0.9525
  782MOL0     H 5536   3.479   9.567   7.442 -0.1094  0.5777 -1.0691
  782MOL0     H 5537   3.329   9.592   7.344  0.3287  0.1224 -0.7894
  782MOL0     H 5538   3.215   9.678   7.542  0.8399 -0.3139  1.1229
  782MOL0     H 5539   3.366   9.680   7.632 -2.8879  0.4095  1.4092
  782MOL0     H 5540   3.294   9.887   7.529  0.6045 -1.0492  1.4500
  782MOL0     H 5541   3.344   9.829   7.369 -0.2107  0.4016  0.6713
  782MOL0     H 5542   3.517   9.885   7.610  0.8323  2.2814 -1.5077
  782MOL0     H 5543   3.564   9.775   7.469  0.4794  2.0995 -1.6472
  782MOL0     H 5544   3.477  10.059   7.475 -0.0503  0.7529 -0.3752
  782MOL0     H 5545   3.540   9.975   7.333 -1.3593 -0.4370 -0.2351
  782MOL0     H 5546   3.708  10.136   7.470  0.8556  1.4880  2.7864
  782MOL0     H 5547   3.722  10.002   7.583 -1.8155  0.1096 -0.3215
  782MOL0     H 5548   3.814   9.851   7.408  2.0919 -0.0561 -0.8694
  782MOL0     H 5549   3.900  10.004   7.423  1.2810  0.5942 -2.7004
  782MOL0     H 5550   3.799  10.080   7.209  0.4020 -0.6738  0.2086
  782MOL0     H 5551   3.690   9.933   7.213 -0.3869 -0.3809  0.3577
  782MOL0     H 5552   3.243   9.288   7.675 -0.6132  0.2361 -0.4320
  782MOL0     H 5553   3.015   9.227   7.713 -1.3896  1.3220  1.4914
  782MOL0     H 5554   2.675   9.076   7.548  0.7420 -2.4594  2.4517
  782MOL0     H 5555   2.455   8.943   7.566 -1.4683  0.6019  0.0075
  782MOL0     H 5556   1.795  10.162   7.329 -0.3618 -2.0425  0.0545
  782MOL0     H 5557   1.690  10.357   7.220  0.8522 -0.7187  2.2467
  782MOL0     H 5558   1.452  10.488   6.637  0.5302 -0.1274 -0.5019
  782MOL0     H 5559   1.333  10.715   6.576 -2.5354 -1.4223  1.3250
  782MOL0     H 5560   1.182  11.056   6.770  0.8769  1.4486 -0.6366
  782MOL0     H 5561   1.243  10.975   6.915  0.5370 -1.6760  0.6304
  782MOL0     H 5562   1.395  11.125   6.684  2.1271  1.5674  0.6580
  782MOL0     H 5563   1.478  11.041   6.812  1.6118  2.5992 -1.5999
  782MOL0     H 5564   1.371  11.187   6.983  0.8232  0.1619  0.3989
  782MOL0     H 5565   1.291  11.272   6.856  0.3020 -0.8835 -0.2289
  782MOL0     H 5566   1.523  11.353   6.775 -2.6262  0.1143 -0.9730
  782MOL0     H 5567   1.592  11.248   6.892  0.2051  1.0876 -1.0924
  782MOL0     H 5568   1.484  11.567   7.142 -3.4401 -0.3537 -0.3763
  782MOL0     H 5569   1.359  10.824   6.987  0.1848 -1.1450  1.8879
  782MOL0     H 5570   1.468  10.607   7.052  0.4233 -0.0258 -0.5917
  783MOL0     O 5571   6.219   4.190   7.035 -0.5891 -0.2142  0.0873
  783MOL0     C 5572   6.337   4.176   6.998 -0.7296 -0.8190 -0.0965
  783MOL0     O 5573   6.379   4.102   6.894 -0.0954 -0.4529 -0.0115
  783MOL0     C 5574   6.293   4.061   6.790 -1.2220  0.8321 -0.2061
  783MOL0     C 5575   6.169   4.114   6.763 -0.6171  0.1182  0.0006
  783MOL0     C 5576   6.088   4.067   6.659  1.2496 -0.8755  0.8972
  783MOL0     C 5577   6.131   3.948   6.584  0.6086  0.7611  0.2827
  783MOL0     O 5578   6.048   3.889   6.496 -0.4128 -0.4360  0.8709
  783MOL0     C 5579   6.004   3.753   6.518 -0.0240 -0.0050 -0.7223
  783MOL0     C 5580   5.905   3.740   6.638 -0.0434  1.4224  0.3781
  783MOL0     C 5581   5.852   3.591   6.647 -0.1172  0.9798  0.7817
  783MOL0     C 5582   5.926   3.492   6.746 -0.3031 -0.4680  0.7861
  783MOL0     C 5583   5.830   3.376   6.797  0.8899 -0.1709  0.1990
  783MOL0     C 5584   5.788   3.282   6.683 -0.2974 -0.4138 -1.4837
  783MOL0     C 5585   5.726   3.156   6.743 -0.1442  0.3254 -0.1302
  783MOL0     C 5586   5.691   3.075   6.620  0.0189  1.0177  0.1923
  783MOL0     N 5587   5.662   2.935   6.662  0.6649  0.1603 -0.2953
  783MOL0     C 5588   5.550   2.914   6.741 -0.2375 -0.0211  0.2961
  783MOL0     C 5589   5.542   2.780   6.748  0.4033 -1.8391 -0.2573
  783MOL0     C 5590   5.416   2.713   6.809 -0.3938 -0.1655  0.1823
  783MOL0     C 5591   5.431   2.716   6.962  0.8802  0.0260 -0.2462
  783MOL0     C 5592   5.352   2.585   7.003 -0.2671 -0.3690  0.5865
  783MOL0     C 5593   5.316   2.564   7.148 -0.7097  0.4572 -0.6836
  783MOL0     O 5594   5.442   2.618   7.208  0.3319 -0.4266  0.2591
  783MOL0     C 5595   5.467   2.628   7.344 -0.3985  0.2438 -0.9635
  783MOL0     C 5596   5.379   2.580   7.436  0.7492  0.8844  0.6747
  783MOL0     C 5597   5.407   2.573   7.568  0.6959 -0.4623 -0.6314
  783MOL0     C 5598   5.303   2.503   7.662  0.2767  0.5997  0.4959
  783MOL0     C 5599   5.534   2.605   7.611  0.4490 -0.2242  0.4157
  783MOL0     C 5600   5.586   2.573   7.748  0.9403 -0.6732  0.0865
  783MOL0     O 5601   5.706   2.513   7.738  0.3618 -0.0056 -0.3517
  783MOL0     C 5602   5.788   2.519   7.846 -0.4185  0.0085 -0.8736
  783MOL0     C 5603   5.893   2.610   7.853 -0.9627 -0.5837 -0.7614
  783MOL0     C 5604   5.991   2.582   7.954 -0.1909 -0.0082  0.6719
  783MOL0     C 5605   5.985   2.476   8.049  0.4239 -0.8218  0.0412
  783MOL0     O 5606   6.089   2.451   8.134  0.1732 -0.2000 -0.5713
  783MOL0     C 5607   6.089   2.523   8.259  0.1046  0.0897  0.8745
  783MOL0     C 5608   5.967   2.497   8.346  0.1693 -0.9785 -0.2222
  783MOL0     C 5609   5.967   2.593   8.469 -0.2537 -1.2713 -0.5363
  783MOL0     C 5610   5.981   2.517   8.600 -0.8234  0.6848  0.0552
  783MOL0     C 5611   5.961   2.619   8.718  0.5247  1.6298  0.0164
  783MOL0     C 5612   6.028   2.577   8.851  0.2421 -0.4971 -0.1654
  783MOL0     C 5613   5.955   2.637   8.977  0.3644 -0.3067  0.3646
  783MOL0     C 5614   5.981   2.573   9.106 -0.2151 -0.1061  0.2575
  783MOL0    Cl 5615   5.882   2.648   9.238 -0.2247  0.5086  0.3707
  783MOL0     C 5616   5.884   2.388   8.030 -0.0625  0.8794 -0.3033
  783MOL0     C 5617   5.786   2.413   7.936 -0.5687  0.1653  0.3348
  783MOL0     O 5618   5.527   2.590   7.853  0.4004  0.1331  0.2118
  783MOL0     C 5619   5.627   2.657   7.520 -1.0545  0.1425  0.0611
  783MOL0     C 5620   5.599   2.654   7.394  1.2185 -0.2733  0.9217
  783MOL0     N 5621   5.646   2.726   6.671 -0.8265 -0.4321  0.6629
  783MOL0     N 5622   5.721   2.817   6.628 -0.0073 -0.6757  1.2338
  783MOL0     C 5623   6.255   3.902   6.604 -0.3399 -0.8735 -0.3690
  783MOL0     C 5624   6.338   3.963   6.701  0.0512 -0.0445  0.1294
  783MOL0     C 5625   6.439   4.240   7.088  0.1818  0.1776  0.2418
  783MOL0     C 5626   6.576   4.233   7.048 -0.0159  0.9691 -0.8124
  783MOL0     C 5627   6.675   4.261   7.144 -0.1400  0.3520  0.9084
  783MOL0     C 5628   6.651   4.326   7.265  0.0469 -0.4782 -0.1318
  783MOL0     O 5629   6.763   4.373   7.341 -0.7327 -0.3219 -0.0323
  783MOL0     C 5630   6.906   4.364   7.308 -1.3759  1.3021  0.1767
  783MOL0     C 5631   6.957   4.505   7.274 -0.0959 -0.3263  1.1535
  783MOL0     C 5632   6.879   4.615   7.341  0.2579 -0.0016  0.5975
  783MOL0     C 5633   6.873   4.613   7.498 -0.2866 -0.1667 -0.4527
  783MOL0     C 5634   7.009   4.605   7.544  0.5028  0.8178  0.0999
  783MOL0     C 5635   7.128   4.604   7.579  0.5829 -0.3330 -0.4270
  783MOL0     C 5636   6.514   4.354   7.290 -0.1691 -0.9702 -0.0661
  783MOL0     C 5637   6.407   4.303   7.210  0.2575  0.9629 -0.0145
  783MOL0     H 5638   6.125   4.195   6.821  0.8938  0.1247  1.2222
  783MOL0     H 5639   5.987   4.100   6.637  1.4791  0.0871  1.2264
  783MOL0     H 5640   5.950   3.726   6.427  2.5013  0.1312 -2.3685
  783MOL0     H 5641   6.076   3.676   6.547 -2.8062 -2.6610 -0.3818
  783MOL0     H 5642   5.958   3.760   6.732 -0.1540 -0.4341  0.8840
  783MOL0     H 5643   5.826   3.808   6.605  1.0867  1.9545 -1.4115
  783MOL0     H 5644   5.756   3.587   6.698  0.1336  1.0358  1.2645
  783MOL0     H 5645   5.844   3.538   6.552 -1.8326 -0.7636  1.8261
  783MOL0     H 5646   6.013   3.442   6.703 -0.9761 -1.8351  0.9700
  783MOL0     H 5647   5.948   3.544   6.840  1.0348 -0.6939  0.6195
  783MOL0     H 5648   5.872   3.317   6.879  0.1698 -3.6330 -1.7400
  783MOL0     H 5649   5.740   3.424   6.837  1.0706 -2.1075  3.2376
  783MOL0     H 5650   5.720   3.336   6.616  0.1542  0.8074 -0.9906
  783MOL0     H 5651   5.884   3.252   6.641 -0.7613 -3.1456 -0.8187
  783MOL0     H 5652   5.803   3.097   6.794  1.4797 -0.2787 -3.0443
  783MOL0     H 5653   5.638   3.184   6.802  1.3824  1.5112  1.7078
  783MOL0     H 5654   5.771   3.063   6.546 -1.6203 -0.9781 -1.3889
  783MOL0     H 5655   5.608   3.115   6.560 -0.3582  0.9254  0.6474
  783MOL0     H 5656   5.485   2.989   6.783  1.8191  3.9410 -2.8899
  783MOL0     H 5657   5.331   2.774   6.776  1.6206  2.5296 -0.3692
  783MOL0     H 5658   5.427   2.608   6.780  2.7891  0.3426 -0.8342
  783MOL0     H 5659   5.380   2.800   7.011 -2.5300 -1.8847 -0.2199
  783MOL0     H 5660   5.536   2.718   6.991  0.5719 -0.3717  0.9441
  783MOL0     H 5661   5.404   2.498   6.960 -1.4740 -0.5031 -0.6751
  783MOL0     H 5662   5.259   2.582   6.946  0.1583 -0.9281 -0.1082
  783MOL0     H 5663   5.297   2.457   7.164  0.8240 -0.0152 -1.6988
  783MOL0     H 5664   5.237   2.628   7.187 -0.8794 -1.2698  2.0979
  783MOL0     H 5665   5.283   2.550   7.394  0.8324  1.9966 -0.4002
  783MOL0     H 5666   5.233   2.432   7.616  0.8430 -0.1033  0.7030
  783MOL0     H 5667   5.343   2.440   7.742 -3.9141 -3.5381 -0.1320
  783MOL0     H 5668   5.238   2.571   7.717  0.8478 -0.7953  3.0738
  783MOL0     H 5669   5.904   2.696   7.788 -0.8049 -1.3456 -1.7716
  783MOL0     H 5670   6.075   2.651   7.957 -0.3046  0.3395 -1.6947
  783MOL0     H 5671   6.175   2.489   8.317 -3.0891 -1.1158  5.4624
  783MOL0     H 5672   6.102   2.624   8.218  1.6918 -1.6650 -3.5264
  783MOL0     H 5673   5.883   2.532   8.287  1.2542  0.4720 -0.9725
  783MOL0     H 5674   5.955   2.391   8.372 -3.1958 -0.7629 -0.5179
  783MOL0     H 5675   5.886   2.666   8.481  1.7289  0.7753  1.3874
  783MOL0     H 5676   6.054   2.659   8.470 -1.5661  0.5650  1.5491
  783MOL0     H 5677   5.912   2.433   8.616 -2.5960  2.3555  1.6911
  783MOL0     H 5678   6.085   2.482   8.604 -1.3156 -0.7230  2.8636
  783MOL0     H 5679   5.852   2.623   8.731  0.0323 -4.8111  1.4320
  783MOL0     H 5680   5.997   2.718   8.688  2.3939  0.6146 -1.3228
  783MOL0     H 5681   6.017   2.468   8.855 -1.3170 -0.3103  1.8322
  783MOL0     H 5682   6.131   2.610   8.835 -1.0212  3.2315 -1.6666
  783MOL0     H 5683   5.847   2.619   8.966  0.8898 -4.1257  0.1112
  783MOL0     H 5684   5.972   2.745   8.984 -0.2207 -0.0381 -1.6904
  783MOL0     H 5685   6.088   2.575   9.128 -0.4828 -0.4100  1.6388
  783MOL0     H 5686   5.956   2.467   9.090  2.3645 -0.6140 -0.9712
  783MOL0     H 5687   5.884   2.292   8.082  0.4027 -0.3148 -2.3881
  783MOL0     H 5688   5.700   2.349   7.917 -0.1435 -0.4883  0.5880
  783MOL0     H 5689   5.721   2.700   7.553 -1.9457  1.3448  1.1732
  783MOL0     H 5690   5.683   2.678   7.329  1.6573  0.8140  1.8644
  783MOL0     H 5691   6.295   3.818   6.548  1.5887  0.1706 -0.6425
  783MOL0     H 5692   6.441   3.933   6.721  0.1248  0.8778  1.2347
  783MOL0     H 5693   6.598   4.188   6.952  1.9797 -1.6441  0.7188
  783MOL0     H 5694   6.777   4.260   7.106  0.2158 -1.6715  1.7881
  783MOL0     H 5695   6.948   4.347   7.407 -4.4930  1.5536  1.6552
  783MOL0     H 5696   6.922   4.293   7.226 -4.3053  2.0060 -1.1155
  783MOL0     H 5697   6.946   4.527   7.168 -3.1593 -0.2468  1.4019
  783MOL0     H 5698   7.064   4.522   7.290  0.0980  1.9508 -1.8212
  783MOL0     H 5699   6.784   4.630   7.288  0.5014 -0.4377  0.0215
  783MOL0     H 5700   6.927   4.708   7.310 -2.9678  1.6844  0.1680
  783MOL0     H 5701   6.805   4.534   7.531 -2.2255  0.9277 -1.6410
  783MOL0     H 5702   6.831   4.709   7.530 -0.9756 -0.8544  0.7622
  783MOL0     H 5703   7.221   4.596   7.630  0.1961 -0.0495  0.3348
  783MOL0     H 5704   6.488   4.424   7.369  0.0341 -1.5235  0.5044
  783MOL0     H 5705   6.305   4.335   7.226  1.0881  3.8307  0.0651
  784MOL0     O 5706   8.488  11.169   8.673 -0.0312 -0.9018 -0.1282
  784MOL0     C 5707   8.429  11.174   8.778 -0.4947 -0.5900 -0.3194
  784MOL0     O 5708   8.300  11.157   8.796  0.1481 -0.1171  0.2157
  784MOL0     C 5709   8.225  11.093   8.697  0.3437  0.2951 -0.2011
  784MOL0     C 5710   8.151  11.176   8.610  0.3458  0.0930  0.0033
  784MOL0     C 5711   8.072  11.123   8.509 -0.8632 -0.7750 -0.0947
  784MOL0     C 5712   8.051  10.984   8.493 -0.6354  0.8239 -1.2165
  784MOL0     O 5713   7.953  10.937   8.414  0.0553 -0.2478  0.1366
  784MOL0     C 5714   7.871  10.836   8.482  0.2222 -0.2864  1.1540
  784MOL0     C 5715   7.742  10.840   8.408  0.1854 -0.7216 -0.2176
  784MOL0     C 5716   7.682  10.704   8.394 -0.3748 -0.0243  0.8153
  784MOL0     C 5717   7.571  10.696   8.288  0.2470  0.2041 -0.7087
  784MOL0     C 5718   7.477  10.574   8.324  0.5737 -0.1078 -0.1179
  784MOL0     C 5719   7.383  10.543   8.205 -0.5815  0.1277  0.7805
  784MOL0     C 5720   7.307  10.415   8.239 -0.0086  0.3284 -0.0252
  784MOL0     C 5721   7.290  10.344   8.098  0.4353 -0.9623 -0.2200
  784MOL0     N 5722   7.180  10.400   8.022 -0.0251 -0.5172 -0.3459
  784MOL0     C 5723   7.051  10.365   8.035  0.1155  0.0941  0.3683
  784MOL0     C 5724   6.979  10.456   7.963  0.0263 -0.3394  0.5955
  784MOL0     C 5725   6.836  10.487   7.950  0.5828  0.6905  1.1226
  784MOL0     C 5726   6.781  10.489   7.803  0.6423 -0.4994  1.3042
  784MOL0     C 5727   6.799  10.357   7.730  0.0085 -0.3259 -0.1043
  784MOL0     C 5728   6.873  10.377   7.602 -1.3917  0.5332 -0.8585
  784MOL0     O 5729   6.942  10.245   7.566  0.0602 -0.2823 -0.5035
  784MOL0     C 5730   7.064  10.216   7.611  1.1475 -0.5634  1.1504
  784MOL0     C 5731   7.110  10.090   7.604 -0.3349  0.1552  0.4209
  784MOL0     C 5732   7.238  10.053   7.648 -0.4532  0.2629  1.2995
  784MOL0     C 5733   7.276   9.901   7.653  0.4849 -0.8447  0.4762
  784MOL0     C 5734   7.319  10.148   7.709  0.4272  0.6387  0.5810
  784MOL0     C 5735   7.445  10.115   7.761  0.3107  0.2606  0.1679
  784MOL0     O 5736   7.544  10.079   7.670 -0.0807 -0.0643 -0.9242
  784MOL0     C 5737   7.674  10.058   7.721 -0.6291 -0.0244 -0.4848
  784MOL0     C 5738   7.790  10.131   7.687 -0.7231 -0.6719  0.6403
  784MOL0     C 5739   7.925  10.103   7.723 -0.0178  0.2382  0.7194
  784MOL0     C 5740   7.947  10.005   7.825  0.1831 -0.4369 -0.9403
  784MOL0     O 5741   8.075   9.972   7.878  0.1380  0.5987 -0.9271
  784MOL0     C 5742   8.191  10.019   7.823 -0.1836  0.5177  0.4296
  784MOL0     C 5743   8.300  10.015   7.929 -0.0820 -0.2069 -0.6868
  784MOL0     C 5744   8.334  10.154   7.995 -0.4105 -0.2372 -0.0369
  784MOL0     C 5745   8.433  10.246   7.916  0.2282 -0.4866  0.3312
  784MOL0     C 5746   8.576  10.208   7.942  0.0054  1.0112  0.4421
  784MOL0     C 5747   8.671  10.314   7.881 -0.0674  0.6865  0.7580
  784MOL0     C 5748   8.813  10.263   7.864  0.0364 -0.2029  0.7712
  784MOL0     C 5749   8.924  10.365   7.864 -0.7967  0.4099 -0.2730
  784MOL0    Cl 5750   9.077  10.297   7.788 -0.4707 -0.4100  0.1581
  784MOL0     C 5751   7.828   9.941   7.871 -0.1904  0.8500 -0.6447
  784MOL0     C 5752   7.698   9.957   7.825  0.0411 -0.1805  0.8643
  784MOL0     O 5753   7.463  10.126   7.888  0.0037  0.0827 -0.1828
  784MOL0     C 5754   7.267  10.277   7.715 -0.1762 -0.4196 -1.3862
  784MOL0     C 5755   7.143  10.306   7.673  0.0346  0.1860 -0.0852
  784MOL0     N 5756   7.070  10.545   7.921 -0.1165  0.2817 -0.3963
  784MOL0     N 5757   7.190  10.516   7.957 -0.2674  0.4787 -0.1319
  784MOL0     C 5758   8.127  10.903   8.575 -0.1201  0.5714 -0.1016
  784MOL0     C 5759   8.216  10.948   8.671  0.3074  0.6415 -0.2453
  784MOL0     C 5760   8.509  11.201   8.904 -0.1437  1.5294  0.0745
  784MOL0     C 5761   8.644  11.228   8.891 -0.9365  1.4300  0.3804
  784MOL0     C 5762   8.717  11.242   9.005  0.0212 -0.2511 -0.6129
  784MOL0     C 5763   8.654  11.233   9.132  1.3686 -1.1348 -0.0343
  784MOL0     O 5764   8.725  11.258   9.240 -0.0291  0.9883  0.4554
  784MOL0     C 5765   8.702  11.182   9.364  0.2219 -1.1317  0.3882
  784MOL0     C 5766   8.836  11.197   9.437 -0.2358 -0.4759 -0.3337
  784MOL0     C 5767   8.944  11.131   9.344  0.1453  0.6707 -0.0823
  784MOL0     C 5768   9.091  11.165   9.393  0.4232 -0.1440 -0.1452
  784MOL0     C 5769   9.184  11.060   9.354  0.9021  0.1336  0.7832
  784MOL0     C 5770   9.249  10.967   9.311 -0.1811  0.6257 -0.2911
  784MOL0     C 5771   8.514  11.221   9.136 -0.2292 -0.4947  0.1895
  784MOL0     C 5772   8.443  11.182   9.028 -1.1490  1.0684  0.0099
  784MOL0     H 5773   8.158  11.284   8.621 -0.4458  0.2266 -0.6947
  784MOL0     H 5774   8.018  11.192   8.445  1.4703  0.5320 -0.7307
  784MOL0     H 5775   7.919  10.739   8.466  0.7513  0.4052 -2.3393
  784MOL0     H 5776   7.850  10.849   8.588 -3.7247 -2.1196  0.7802
  784MOL0     H 5777   7.667  10.905   8.455  1.1582  1.0641 -1.0132
  784MOL0     H 5778   7.765  10.872   8.306 -0.7793  0.3048 -0.1329
  784MOL0     H 5779   7.764  10.650   8.345  1.3915  4.0488 -1.2087
  784MOL0     H 5780   7.645  10.659   8.486 -1.7781 -0.9802 -0.1803
  784MOL0     H 5781   7.506  10.781   8.307  2.4288  1.4863  1.7620
  784MOL0     H 5782   7.617  10.697   8.189  2.8483  0.8455  0.4102
  784MOL0     H 5783   7.538  10.485   8.342  1.6806 -0.0478 -3.0752
  784MOL0     H 5784   7.412  10.599   8.409  1.8659  0.6968  0.6727
  784MOL0     H 5785   7.307  10.616   8.174 -0.9710 -0.4079  0.4714
  784MOL0     H 5786   7.449  10.532   8.119 -2.1320 -1.1990 -0.2967
  784MOL0     H 5787   7.385  10.361   8.293  2.8213  3.5092 -0.5872
  784MOL0     H 5788   7.220  10.420   8.305 -0.1076 -2.5521  0.1645
  784MOL0     H 5789   7.275  10.236   8.106 -1.4695 -1.1153 -3.7626
  784MOL0     H 5790   7.378  10.368   8.038  1.0117 -1.3900  0.4446
  784MOL0     H 5791   7.009  10.275   8.079 -0.3054 -2.6586 -4.8686
  784MOL0     H 5792   6.775  10.407   7.992 -1.1229 -0.0123 -2.3039
  784MOL0     H 5793   6.833  10.586   7.999  4.0527  2.8632 -2.4437
  784MOL0     H 5794   6.834  10.573   7.757  3.4896 -1.3257  2.8335
  784MOL0     H 5795   6.672  10.502   7.805  0.7831  2.8544 -1.7924
  784MOL0     H 5796   6.708  10.299   7.711  0.2985 -1.9589  2.9647
  784MOL0     H 5797   6.857  10.286   7.789 -0.4334 -1.8502 -1.4413
  784MOL0     H 5798   6.944  10.460   7.608 -1.9308  0.9723 -0.3742
  784MOL0     H 5799   6.809  10.407   7.518  0.5874 -0.5709 -2.8725
  784MOL0     H 5800   7.053  10.022   7.541  0.1198  1.0006 -0.9614
  784MOL0     H 5801   7.374   9.894   7.604 -0.5810  5.7838 -3.9392
  784MOL0     H 5802   7.283   9.854   7.752 -0.7654  1.7158  1.8840
  784MOL0     H 5803   7.200   9.863   7.586 -0.1922  1.4501 -0.1587
  784MOL0     H 5804   7.782  10.215   7.618 -0.1565  1.8795  3.4599
  784MOL0     H 5805   8.004  10.147   7.663 -1.1452  2.5426  0.8019
  784MOL0     H 5806   8.233   9.962   7.740 -1.3553  0.8608 -0.4241
  784MOL0     H 5807   8.169  10.121   7.790 -2.5963  0.7816  2.5876
  784MOL0     H 5808   8.286   9.949   8.015  0.6213  4.3098  3.3143
  784MOL0     H 5809   8.388   9.975   7.878  1.0226 -1.3406  1.8793
  784MOL0     H 5810   8.370  10.145   8.098  0.9691  0.5897 -0.4138
  784MOL0     H 5811   8.237  10.199   8.015 -0.2168 -0.6159  1.9490
  784MOL0     H 5812   8.407  10.238   7.810 -3.8227  0.0893  1.1386
  784MOL0     H 5813   8.424  10.348   7.955  3.5155 -0.3813  1.1547
  784MOL0     H 5814   8.575  10.113   7.888  0.9039  3.5408 -4.5779
  784MOL0     H 5815   8.585  10.205   8.051 -0.8580  0.8876  0.5200
  784MOL0     H 5816   8.637  10.336   7.780 -1.4014 -0.4070  0.9439
  784MOL0     H 5817   8.664  10.400   7.948  1.1705  2.3215 -1.1092
  784MOL0     H 5818   8.820  10.205   7.772 -2.3305 -0.1375  0.4877
  784MOL0     H 5819   8.827  10.183   7.937  1.8162 -0.8153 -0.1805
  784MOL0     H 5820   8.940  10.412   7.962 -0.3664  0.7934 -0.5249
  784MOL0     H 5821   8.893  10.447   7.798 -0.3271  1.0971  0.3466
  784MOL0     H 5822   7.848   9.862   7.943 -1.2602 -1.4918 -2.7733
  784MOL0     H 5823   7.614   9.904   7.869  0.0761 -3.6943 -2.7494
  784MOL0     H 5824   7.329  10.350   7.766  0.8400 -3.5968  2.3984
  784MOL0     H 5825   7.108  10.408   7.690 -1.7890 -0.5394  0.8176
  784MOL0     H 5826   8.123  10.797   8.554 -2.0670  0.7657 -0.9029
  784MOL0     H 5827   8.282  10.882   8.726 -0.9446  0.1147  0.6782
  784MOL0     H 5828   8.698  11.224   8.797  0.2004 -1.1273  1.0579
  784MOL0     H 5829   8.822  11.267   8.998 -0.2543  0.8528 -1.0720
  784MOL0     H 5830   8.631  11.232   9.430  0.2712  1.3645 -1.2650
  784MOL0     H 5831   8.668  11.080   9.345  2.9770 -1.8687 -1.1031
  784MOL0     H 5832   8.835  11.156   9.538  1.2731 -1.4001 -0.6697
  784MOL0     H 5833   8.852  11.305   9.435 -2.6100 -0.0735 -2.1472
  784MOL0     H 5834   8.938  11.150   9.236  2.0710 -2.8523 -0.9836
  784MOL0     H 5835   8.931  11.023   9.353  1.5982  0.3823 -1.0957
  784MOL0     H 5836   9.092  11.175   9.502 -1.1049 -1.4449  0.0224
  784MOL0     H 5837   9.111  11.268   9.362 -0.4711  0.6816  1.8486
  784MOL0     H 5838   9.312  10.898   9.259  0.3232  1.5861 -0.9849
  784MOL0     H 5839   8.468  11.215   9.234 -1.7508  2.4446 -0.2376
  784MOL0     H 5840   8.341  11.143   9.026 -0.5699 -0.5509 -0.1111
  785MOL0     O 5841  11.112   6.773   2.564  0.1673 -1.4248 -0.5886
  785MOL0     C 5842  11.034   6.850   2.508 -0.2516  0.2736  0.8602
  785MOL0     O 5843  10.956   6.950   2.566 -0.1881 -1.0126 -0.3166
  785MOL0     C 5844  10.978   6.975   2.693  0.8734 -1.5396  0.0286
  785MOL0     C 5845  11.037   7.095   2.719 -0.7352 -0.2248  0.3447
  785MOL0     C 5846  11.056   7.127   2.860 -0.3592 -1.2661  0.3883
  785MOL0     C 5847  11.040   7.038   2.962  0.4174  0.4538  0.8450
  785MOL0     O 5848  11.095   7.055   3.082 -0.1121 -0.0604  0.3999
  785MOL0     C 5849  11.047   7.169   3.152  0.3421  0.4100  0.6097
  785MOL0     C 5850  11.145   7.205   3.266  0.4426 -0.8062  0.5676
  785MOL0     C 5851  11.081   7.203   3.410  1.0633  0.5778 -0.3828
  785MOL0     C 5852  10.978   7.323   3.405  0.3229  0.7274 -0.7590
  785MOL0     C 5853  10.899   7.353   3.536 -0.1314  0.3973 -0.5041
  785MOL0     C 5854  10.773   7.439   3.517  0.0029  0.6400  0.4862
  785MOL0     C 5855  10.793   7.579   3.464 -0.2623 -0.4159 -0.5217
  785MOL0     C 5856  10.871   7.671   3.569 -0.3933  0.1374  0.8838
  785MOL0     N 5857  11.014   7.684   3.531  1.0680  0.0452  0.5740
  785MOL0     C 5858  11.120   7.645   3.612 -0.3978  0.6816  1.1302
  785MOL0     C 5859  11.231   7.696   3.563  0.4238 -0.0319  0.7994
  785MOL0     C 5860  11.369   7.695   3.626 -1.1052 -0.7332  0.1309
  785MOL0     C 5861  11.385   7.773   3.755 -0.5722 -0.4767 -0.4732
  785MOL0     C 5862  11.385   7.927   3.737 -1.0387  0.1933  0.0361
  785MOL0     C 5863  11.424   8.004   3.861  0.0481 -0.0443  0.4984
  785MOL0     O 5864  11.306   8.023   3.934  0.3545 -0.3231  1.1340
  785MOL0     C 5865  11.308   8.103   4.047 -0.4109 -0.1068  0.1691
  785MOL0     C 5866  11.192   8.175   4.079  0.2819 -1.2709 -0.3945
  785MOL0     C 5867  11.194   8.273   4.182 -0.4324 -0.4118 -0.1207
  785MOL0     C 5868  11.072   8.365   4.195 -0.2496 -0.1552 -0.2342
  785MOL0     C 5869  11.315   8.284   4.268  1.3695 -0.0465 -0.3609
  785MOL0     C 5870  11.335   8.384   4.376  0.3426  1.1938 -0.0611
  785MOL0     O 5871  11.462   8.441   4.392 -0.6397 -0.6393  0.3045
  785MOL0     C 5872  11.491   8.536   4.488  0.2583 -0.6965 -0.3730
  785MOL0     C 5873  11.392   8.633   4.536  0.2636  0.3833 -0.2566
  785MOL0     C 5874  11.437   8.753   4.604 -1.2707  0.9085  0.5824
  785MOL0     C 5875  11.568   8.766   4.633  1.2303  0.0689  0.7740
  785MOL0     O 5876  11.604   8.887   4.693  0.2660 -0.5481  0.3751
  785MOL0     C 5877  11.741   8.907   4.727 -0.3718 -0.5615 -0.4674
  785MOL0     C 5878  11.785   9.058   4.710  0.5799  0.5376  0.0717
  785MOL0     C 5879  11.760   9.116   4.577  0.5044 -0.6406  0.7109
  785MOL0     C 5880  11.789   9.268   4.601 -0.5460  0.4259  0.6467
  785MOL0     C 5881  11.743   9.344   4.476  0.0952  0.4077 -0.2602
  785MOL0     C 5882  11.812   9.486   4.487  0.1119  0.5896 -0.1021
  785MOL0     C 5883  11.772   9.583   4.602  0.2095  0.3585 -0.0256
  785MOL0     C 5884  11.886   9.581   4.703  0.4786  0.3537  0.1508
  785MOL0    Cl 5885  11.796   9.637   4.831  0.3883  0.2179 -0.1048
  785MOL0     C 5886  11.661   8.663   4.604  0.3510  0.6985  0.2694
  785MOL0     C 5887  11.616   8.557   4.529  0.0067 -0.1289 -0.0251
  785MOL0     O 5888  11.235   8.414   4.445 -0.6772 -0.0729  0.5596
  785MOL0     C 5889  11.424   8.208   4.230 -1.0664 -0.2915  1.1623
  785MOL0     C 5890  11.426   8.119   4.122 -0.2895  0.7162 -0.5051
  785MOL0     N 5891  11.201   7.753   3.448  0.1343  0.1709 -0.0530
  785MOL0     N 5892  11.069   7.768   3.431 -0.4996 -0.0374 -0.4047
  785MOL0     C 5893  10.962   6.927   2.928  0.2095 -0.1538 -0.0823
  785MOL0     C 5894  10.932   6.896   2.797  0.4857  0.0495  0.3835
  785MOL0     C 5895  11.029   6.843   2.352 -0.2906  0.6185  1.3597
  785MOL0     C 5896  11.061   6.723   2.274  0.5576 -0.4606  0.3953
  785MOL0     C 5897  11.040   6.724   2.137 -0.7510  0.0107  0.7090
  785MOL0     C 5898  10.993   6.843   2.073 -0.1299 -0.2715  0.3727
  785MOL0     O 5899  10.940   6.842   1.950  0.0992 -0.1756 -0.6512
  785MOL0     C 5900  11.032   6.810   1.846  0.2692  0.3462 -0.8055
  785MOL0     C 5901  11.068   6.926   1.759  0.8110 -0.0022 -0.2784
  785MOL0     C 5902  11.199   6.913   1.678 -0.3944 -1.2107 -0.2178
  785MOL0     C 5903  11.228   7.059   1.617  1.1319 -0.5434  0.0193
  785MOL0     C 5904  11.137   7.066   1.497 -0.7941 -0.7099  1.5639
  785MOL0     C 5905  11.069   7.063   1.392  0.1077 -0.7040 -0.6903
  785MOL0     C 5906  10.967   6.953   2.154  0.1408  0.2117  0.8604
  785MOL0     C 5907  10.979   6.951   2.288 -0.5992 -0.4344 -0.1377
  785MOL0     H 5908  11.056   7.165   2.639 -1.1127 -3.0895 -2.4349
  785MOL0     H 5909  11.116   7.215   2.879  0.3583 -1.4258 -0.9828
  785MOL0     H 5910  11.020   7.259   3.095  0.8724  1.2234  1.6160
  785MOL0     H 5911  10.954   7.150   3.205 -0.7183  2.7624 -0.2460
  785MOL0     H 5912  11.237   7.147   3.254  0.4632 -0.4616 -1.3755
  785MOL0     H 5913  11.167   7.309   3.241 -1.6548 -0.0625  1.6345
  785MOL0     H 5914  11.027   7.108   3.414  0.5097  0.7551 -2.4811
  785MOL0     H 5915  11.146   7.212   3.498 -1.4058 -2.0596  1.8952
  785MOL0     H 5916  11.028   7.415   3.373  0.2712  1.0338  0.0177
  785MOL0     H 5917  10.901   7.293   3.333 -1.8708 -1.9890  2.3852
  785MOL0     H 5918  10.864   7.258   3.578  1.1842 -1.1606 -2.7223
  785MOL0     H 5919  10.965   7.399   3.611  0.3561  2.2989 -2.0088
  785MOL0     H 5920  10.706   7.384   3.451 -2.2770  2.6115  1.0272
  785MOL0     H 5921  10.720   7.432   3.612  2.0904 -1.0368  1.6135
  785MOL0     H 5922  10.851   7.584   3.371  0.2240  3.4743 -0.1691
  785MOL0     H 5923  10.694   7.622   3.443 -0.9386 -0.5039  2.1389
  785MOL0     H 5924  10.859   7.632   3.670 -0.1393 -1.8948  0.1804
  785MOL0     H 5925  10.823   7.769   3.560  0.3005  0.6269  2.2042
  785MOL0     H 5926  11.095   7.588   3.701 -0.7798 -0.5509  0.2623
  785MOL0     H 5927  11.386   7.589   3.650  0.7740 -1.2414 -2.8793
  785MOL0     H 5928  11.438   7.722   3.546 -3.5174  2.3465 -1.1009
  785MOL0     H 5929  11.481   7.741   3.796  0.0421 -0.8314 -2.1367
  785MOL0     H 5930  11.307   7.748   3.828  0.9905  3.6788  3.0542
  785MOL0     H 5931  11.284   7.955   3.703 -0.8277 -0.0343 -0.8089
  785MOL0     H 5932  11.455   7.950   3.657 -1.1858  2.5241  0.4919
  785MOL0     H 5933  11.473   8.098   3.835  2.2538 -1.4889 -0.8692
  785MOL0     H 5934  11.491   7.941   3.921 -3.1937 -1.3977  3.0292
  785MOL0     H 5935  11.099   8.155   4.025 -1.6650 -0.0777  2.3092
  785MOL0     H 5936  11.048   8.382   4.301 -1.4515 -0.1018 -0.4998
  785MOL0     H 5937  11.087   8.454   4.134 -1.1751  2.1225  2.5849
  785MOL0     H 5938  10.980   8.322   4.154 -2.5347  1.5520  2.5937
  785MOL0     H 5939  11.285   8.625   4.516  0.0945  0.6571  0.4736
  785MOL0     H 5940  11.380   8.839   4.638 -2.6294  1.9697 -3.6946
  785MOL0     H 5941  11.757   8.877   4.831 -2.3857 -3.6092 -0.9022
  785MOL0     H 5942  11.812   8.861   4.658  0.8663  0.9068 -0.2215
  785MOL0     H 5943  11.723   9.114   4.781  2.7685  1.7644  1.1035
  785MOL0     H 5944  11.882   9.069   4.758  0.3892 -0.6348  0.7644
  785MOL0     H 5945  11.653   9.107   4.560  0.6622 -1.2696 -0.0140
  785MOL0     H 5946  11.803   9.058   4.495  1.1862  0.6386  0.1464
  785MOL0     H 5947  11.746   9.312   4.692 -1.6088 -1.4621  1.1177
  785MOL0     H 5948  11.897   9.277   4.617 -0.1147 -0.4215 -1.4336
  785MOL0     H 5949  11.635   9.359   4.479  0.3518  2.4068  1.2775
  785MOL0     H 5950  11.782   9.292   4.388 -0.5453 -0.0539 -0.2758
  785MOL0     H 5951  11.921   9.482   4.486  0.3101  1.3390  3.8291
  785MOL0     H 5952  11.798   9.537   4.391  0.8687 -0.5245 -0.8366
  785MOL0     H 5953  11.683   9.549   4.656 -1.4439  3.4363 -0.6029
  785MOL0     H 5954  11.771   9.684   4.561  4.4603  0.4909 -0.2671
  785MOL0     H 5955  11.951   9.665   4.678 -0.0095  1.1395  1.4220
  785MOL0     H 5956  11.945   9.489   4.696  1.0962  0.8768 -2.2658
  785MOL0     H 5957  11.769   8.670   4.614  0.2184 -0.5182  4.2787
  785MOL0     H 5958  11.698   8.494   4.497 -1.2721 -3.5656  2.8410
  785MOL0     H 5959  11.516   8.221   4.286 -0.0590 -1.0031 -0.2573
  785MOL0     H 5960  11.512   8.056   4.103 -0.9386 -0.2677 -0.2666
  785MOL0     H 5961  10.934   6.858   3.006 -0.2296 -1.0642 -1.0272
  785MOL0     H 5962  10.869   6.807   2.789 -0.4580  0.9153 -3.9672
  785MOL0     H 5963  11.099   6.630   2.316  1.7497 -0.4106 -0.5249
  785MOL0     H 5964  11.059   6.632   2.082  1.6968  0.0899  1.2851
  785MOL0     H 5965  11.125   6.775   1.892 -0.3158  0.4220  0.4867
  785MOL0     H 5966  11.002   6.717   1.796 -2.6724 -0.1089  1.5443
  785MOL0     H 5967  11.081   7.013   1.824 -0.3965  0.0503 -0.0865
  785MOL0     H 5968  10.987   6.937   1.687 -0.1034  0.7831  0.8351
  785MOL0     H 5969  11.179   6.832   1.607  3.1104 -0.5336 -2.2568
  785MOL0     H 5970  11.288   6.883   1.735  0.2960 -3.0251 -2.1022
  785MOL0     H 5971  11.332   7.063   1.582  0.5205  2.4513 -1.9097
  785MOL0     H 5972  11.225   7.151   1.677  1.8360 -0.0516 -0.6651
  785MOL0     H 5973  10.992   7.076   1.319 -0.2313  0.3810 -0.1669
  785MOL0     H 5974  10.921   7.036   2.101 -0.4105 -0.0807  0.8749
  785MOL0     H 5975  10.952   7.041   2.343  3.7068  1.4833 -0.7881
  786MOL0     O 5976   6.476   6.955  11.348  0.1515  0.5308 -0.0577
  786MOL0     C 5977   6.552   6.887  11.273  0.3380  0.2469  0.3515
  786MOL0     O 5978   6.533   6.754  11.233  0.4460 -0.1553 -0.1054
  786MOL0     C 5979   6.436   6.682  11.298 -0.4533  0.6724 -0.6193
  786MOL0     C 5980   6.298   6.715  11.281 -0.1214 -0.4189  0.1499
  786MOL0     C 5981   6.203   6.648  11.359 -0.3627 -0.0718  0.5929
  786MOL0     C 5982   6.239   6.556  11.457  1.2051  0.0918 -0.3351
  786MOL0     O 5983   6.142   6.490  11.530 -0.4879  0.2020 -0.2806
  786MOL0     C 5984   6.178   6.394  11.641 -0.4225 -0.1175  0.0106
  786MOL0     C 5985   6.061   6.324  11.686 -0.6448  0.1324 -0.4986
  786MOL0     C 5986   6.090   6.264  11.823  0.4760 -0.0882  0.3816
  786MOL0     C 5987   6.085   6.381  11.927  0.4663 -0.7368 -0.2972
  786MOL0     C 5988   6.048   6.316  12.059  0.5232 -0.0684 -0.8519
  786MOL0     C 5989   6.032   6.411  12.180  0.5108  0.2285  0.2814
  786MOL0     C 5990   5.905   6.482  12.185 -0.5048  0.0819  1.1462
  786MOL0     C 5991   5.896   6.596  12.281  0.0103  0.0615  0.0637
  786MOL0     N 5992   5.748   6.609  12.322  0.1295  0.0161 -0.1220
  786MOL0     C 5993   5.678   6.516  12.399 -0.2852 -0.7809 -0.1458
  786MOL0     C 5994   5.558   6.584  12.426  0.6157 -0.1095  0.0060
  786MOL0     C 5995   5.467   6.530  12.525 -0.2088  0.4129  0.9221
  786MOL0     C 5996   5.386   6.623  12.613  0.1458 -0.2806 -0.9376
  786MOL0     C 5997   5.457   6.723  12.704 -0.4359 -0.7051 -0.4930
  786MOL0     C 5998   5.582   6.663  12.772 -1.2309 -0.0357  0.9693
  786MOL0     O 5999   5.636   6.729  12.883  0.3613 -0.3137  0.2981
  786MOL0     C 6000   5.689   6.847  12.866 -0.0349 -0.9335  0.0582
  786MOL0     C 6001   5.731   6.903  12.744  0.0798 -0.1670 -0.2531
  786MOL0     C 6002   5.789   7.027  12.722 -0.0576 -0.3097  0.6195
  786MOL0     C 6003   5.828   7.052  12.580 -1.0382 -0.5312  0.0300
  786MOL0     C 6004   5.808   7.110  12.842 -0.8396  0.7004  0.2639
  786MOL0     C 6005   5.863   7.248  12.837  0.7963 -1.1438 -0.4477
  786MOL0     O 6006   5.898   7.314  12.954 -0.4830  0.1879  0.1053
  786MOL0     C 6007   5.908   7.446  12.946 -0.7602  0.8108  0.9371
  786MOL0     C 6008   5.804   7.536  12.906 -0.0350  0.7476  0.3753
  786MOL0     C 6009   5.825   7.676  12.906  0.2518 -1.0573  0.5319
  786MOL0     C 6010   5.950   7.733  12.932  0.3974  0.3752 -0.5429
  786MOL0     O 6011   5.968   7.870  12.920 -0.2730  0.2816 -0.7736
  786MOL0     C 6012   5.974   7.925  12.787  0.5345  0.3341  0.2210
  786MOL0     C 6013   6.107   7.899  12.713 -1.0075 -0.6543 -0.1867
  786MOL0     C 6014   6.127   7.760  12.657 -1.4015 -0.1837 -0.3099
  786MOL0     C 6015   6.234   7.752  12.544 -0.5805  0.0065  0.5240
  786MOL0     C 6016   6.391   7.756  12.572 -0.5236  0.7309  0.7365
  786MOL0     C 6017   6.444   7.859  12.666 -0.4183  0.4180  0.2642
  786MOL0     C 6018   6.594   7.862  12.692 -0.0882  0.1536 -0.0739
  786MOL0     C 6019   6.649   7.959  12.797  0.2336  0.4670 -0.3050
  786MOL0    Cl 6020   6.577   7.928  12.947 -0.2817  0.3451  0.3529
  786MOL0     C 6021   6.040   7.645  12.999  0.5468  0.4539 -0.8882
  786MOL0     C 6022   6.018   7.504  13.009 -0.2568  0.1513 -0.2371
  786MOL0     O 6023   5.867   7.304  12.730  0.4019 -0.4431 -0.2345
  786MOL0     C 6024   5.779   7.049  12.969 -1.2571  0.4859 -0.9738
  786MOL0     C 6025   5.719   6.920  12.982  0.5335  0.9012  0.0027
  786MOL0     N 6026   5.564   6.707  12.362  1.0544 -0.1134  0.0815
  786MOL0     N 6027   5.678   6.726  12.297 -0.1748  0.9681 -0.2667
  786MOL0     C 6028   6.368   6.522  11.476 -0.5008 -0.3371  0.4060
  786MOL0     C 6029   6.462   6.580  11.388  0.8792 -0.2607  0.3788
  786MOL0     C 6030   6.667   6.950  11.218 -0.5134  0.2053  0.0320
  786MOL0     C 6031   6.729   7.055  11.284 -0.4257 -0.8047  0.0104
  786MOL0     C 6032   6.827   7.128  11.229 -0.1507 -0.0345 -0.2913
  786MOL0     C 6033   6.873   7.100  11.099  0.5989 -0.7452 -0.1017
  786MOL0     O 6034   6.984   7.169  11.046 -0.3732 -0.0096 -0.0668
  786MOL0     C 6035   6.968   7.309  11.040  0.2470 -0.0037  0.5828
  786MOL0     C 6036   6.892   7.355  10.912  0.2644  0.4442 -0.7561
  786MOL0     C 6037   6.967   7.358  10.779  0.2709  0.2417 -0.3314
  786MOL0     C 6038   6.975   7.222  10.706  0.1165 -0.5673 -0.0068
  786MOL0     C 6039   6.895   7.213  10.582  0.1587 -0.6121 -0.0821
  786MOL0     C 6040   6.845   7.215  10.473 -0.0879 -0.3997 -0.5814
  786MOL0     C 6041   6.808   6.998  11.024 -0.4930 -0.3849 -0.1844
  786MOL0     C 6042   6.702   6.930  11.085 -0.2475  0.5312  0.5994
  786MOL0     H 6043   6.267   6.786  11.205  3.8978  0.1519 -1.2405
  786MOL0     H 6044   6.104   6.688  11.344  0.6461  1.5236 -3.0132
  786MOL0     H 6045   6.254   6.320  11.614  1.5893  0.5604  3.3195
  786MOL0     H 6046   6.222   6.449  11.725 -0.0845 -2.0917  1.1872
  786MOL0     H 6047   5.976   6.391  11.679 -0.0576  0.8416 -1.0519
  786MOL0     H 6048   6.052   6.240  11.616  2.7600 -0.6558 -0.1943
  786MOL0     H 6049   6.022   6.187  11.861 -0.7914 -0.0082 -1.5969
  786MOL0     H 6050   6.179   6.200  11.817  0.7618  0.4465 -1.8122
  786MOL0     H 6051   6.184   6.426  11.922  0.1830  0.1713  1.6081
  786MOL0     H 6052   6.017   6.463  11.902 -0.0039 -1.1467 -0.4027
  786MOL0     H 6053   5.953   6.262  12.053 -0.8244  1.5914  2.6580
  786MOL0     H 6054   6.123   6.242  12.091 -0.2936 -1.6074 -2.3416
  786MOL0     H 6055   6.043   6.350  12.269 -2.9409 -1.3318 -0.2070
  786MOL0     H 6056   6.109   6.488  12.168  0.9231 -0.1245  0.6425
  786MOL0     H 6057   5.885   6.526  12.087 -0.5898 -1.9633  0.1962
  786MOL0     H 6058   5.827   6.408  12.207 -0.1413 -0.9952 -0.9362
  786MOL0     H 6059   5.925   6.694  12.241  0.9141 -0.9482 -1.8942
  786MOL0     H 6060   5.955   6.581  12.373 -0.2253  1.1782  0.4133
  786MOL0     H 6061   5.704   6.416  12.432  0.0576 -1.0069 -1.0772
  786MOL0     H 6062   5.388   6.470  12.478  1.8157 -2.3834  0.8085
  786MOL0     H 6063   5.518   6.451  12.580  0.6868  0.7687  0.6136
  786MOL0     H 6064   5.316   6.559  12.669 -3.2410  1.0740 -3.3211
  786MOL0     H 6065   5.316   6.686  12.559 -0.8635  2.1394  2.8019
  786MOL0     H 6066   5.390   6.761  12.781 -0.4817  1.5058 -1.5355
  786MOL0     H 6067   5.475   6.813  12.644 -1.6662 -0.9692 -1.2928
  786MOL0     H 6068   5.660   6.648  12.697 -1.0610 -0.4847  1.2316
  786MOL0     H 6069   5.558   6.560  12.801 -4.3548  0.0187 -0.9385
  786MOL0     H 6070   5.728   6.834  12.661  1.1959 -1.2318  0.5694
  786MOL0     H 6071   5.752   7.117  12.535 -0.1767  3.0245  3.1957
  786MOL0     H 6072   5.926   7.100  12.567 -0.6812 -0.9889  0.9751
  786MOL0     H 6073   5.840   6.962  12.518 -1.3579 -1.9755  1.9753
  786MOL0     H 6074   5.708   7.500  12.871  0.2519 -0.1528  0.4901
  786MOL0     H 6075   5.743   7.738  12.872  0.2002 -1.3450  0.1312
  786MOL0     H 6076   5.893   7.873  12.737  0.9561 -2.3881  2.1585
  786MOL0     H 6077   5.957   8.033  12.779  0.3440  0.2333 -0.8700
  786MOL0     H 6078   6.118   7.964  12.626  0.7594 -0.4677  0.1416
  786MOL0     H 6079   6.201   7.913  12.768  0.6727 -2.7698 -2.3108
  786MOL0     H 6080   6.034   7.727  12.611 -0.2251 -1.0050 -2.1854
  786MOL0     H 6081   6.150   7.689  12.738 -0.8169  2.0104  1.5662
  786MOL0     H 6082   6.204   7.658  12.497 -2.3603 -0.5628  2.6204
  786MOL0     H 6083   6.218   7.841  12.482 -0.7857  0.1319  0.7555
  786MOL0     H 6084   6.430   7.748  12.470 -0.4583 -3.3699  0.9443
  786MOL0     H 6085   6.423   7.660  12.613 -0.3848 -0.2717 -1.5641
  786MOL0     H 6086   6.417   7.962  12.640  0.8113  1.3370  2.4260
  786MOL0     H 6087   6.401   7.838  12.764 -2.2516  2.7275  0.0547
  786MOL0     H 6088   6.649   7.890  12.601  3.5446 -1.0057  1.5451
  786MOL0     H 6089   6.624   7.760  12.719  2.2567  0.2923 -1.7839
  786MOL0     H 6090   6.621   8.060  12.765  0.6576  0.5214 -0.5152
  786MOL0     H 6091   6.757   7.942  12.798  0.1189 -0.2676  0.3765
  786MOL0     H 6092   6.136   7.689  13.025  0.8856 -0.7982  0.0837
  786MOL0     H 6093   6.084   7.431  13.056  1.4785  0.7983 -1.5428
  786MOL0     H 6094   5.796   7.101  13.062  1.3975  1.0919 -1.7230
  786MOL0     H 6095   5.703   6.874  13.079  0.8882 -1.4276 -0.9667
  786MOL0     H 6096   6.399   6.460  11.560 -1.5779  1.7109  2.4326
  786MOL0     H 6097   6.566   6.553  11.403  0.9780  0.1093  0.3757
  786MOL0     H 6098   6.686   7.073  11.382 -0.6118 -1.0377 -0.0272
  786MOL0     H 6099   6.869   7.214  11.281 -1.2469  1.5949 -1.9659
  786MOL0     H 6100   6.923   7.347  11.133 -1.2537 -0.9103  0.2706
  786MOL0     H 6101   7.070   7.347  11.035  0.3507 -0.4193 -4.1490
  786MOL0     H 6102   6.862   7.455  10.945 -4.2647 -0.9835  0.1858
  786MOL0     H 6103   6.804   7.292  10.894  0.3637 -0.1782  0.7444
  786MOL0     H 6104   7.069   7.396  10.795  0.5948 -0.4592 -0.6833
  786MOL0     H 6105   6.917   7.429  10.712 -2.2243 -2.9711 -2.1649
  786MOL0     H 6106   6.947   7.139  10.772 -0.1346 -0.9335 -0.5643
  786MOL0     H 6107   7.080   7.208  10.679 -0.0014  3.7155 -3.9818
  786MOL0     H 6108   6.806   7.237  10.376 -0.4530  1.0809 -0.1360
  786MOL0     H 6109   6.839   6.972  10.924  0.0506 -1.7911  0.3248
  786MOL0     H 6110   6.654   6.851  11.028 -1.4202  2.9596 -2.0085
  787MOL0     O 6111   3.798   2.752   2.666  0.6060 -0.8984  0.9725
  787MOL0     C 6112   3.715   2.671   2.683  0.2231  0.4057  0.3023
  787MOL0     O 6113   3.583   2.696   2.706  0.0485  0.4924  0.1650
  787MOL0     C 6114   3.517   2.819   2.722  0.6489  0.4559  0.7643
  787MOL0     C 6115   3.379   2.828   2.719 -1.0589  0.2275  0.2603
  787MOL0     C 6116   3.310   2.943   2.755 -0.1170 -0.3868 -0.0516
  787MOL0     C 6117   3.385   3.060   2.782 -0.4495 -0.1793 -0.5418
  787MOL0     O 6118   3.302   3.167   2.809  0.1813 -0.1986  0.0868
  787MOL0     C 6119   3.368   3.283   2.844  0.4094  0.0369 -1.0031
  787MOL0     C 6120   3.288   3.394   2.908 -0.3420 -0.4423 -1.4593
  787MOL0     C 6121   3.193   3.477   2.819  0.3105  1.2188 -0.5741
  787MOL0     C 6122   3.257   3.605   2.764  0.0676  0.4522 -0.6575
  787MOL0     C 6123   3.180   3.662   2.643  0.9273  0.0590  1.1696
  787MOL0     C 6124   3.027   3.702   2.652 -0.4925 -0.7103  0.2690
  787MOL0     C 6125   3.001   3.783   2.775 -0.2606 -0.0269 -0.3440
  787MOL0     C 6126   3.026   3.931   2.754 -0.1698  0.6836  0.7387
  787MOL0     N 6127   3.044   3.995   2.881 -0.4914 -0.3882 -0.1291
  787MOL0     C 6128   2.961   3.994   2.995 -0.2168 -0.8761  0.4023
  787MOL0     C 6129   3.027   4.063   3.094  1.3997 -0.5462  0.2310
  787MOL0     C 6130   3.001   4.040   3.247 -0.0026 -0.0854  0.6985
  787MOL0     C 6131   3.079   4.149   3.329 -0.0974 -0.7158  0.4013
  787MOL0     C 6132   3.029   4.158   3.477 -0.5435  1.1929  0.3743
  787MOL0     C 6133   3.129   4.243   3.572  0.7038  0.2686 -0.5798
  787MOL0     O 6134   3.172   4.128   3.643  0.3744 -0.6944 -0.4361
  787MOL0     C 6135   3.138   4.117   3.775  0.0066 -0.7182 -0.6408
  787MOL0     C 6136   3.018   4.168   3.826  0.3034  0.0277  1.0576
  787MOL0     C 6137   2.988   4.147   3.961 -0.5395  0.9988  0.3436
  787MOL0     C 6138   2.854   4.209   4.004  0.2630  0.2242  0.2547
  787MOL0     C 6139   3.073   4.072   4.053 -0.8498  0.6322  0.0189
  787MOL0     C 6140   3.040   4.053   4.192  0.0163  0.1888 -0.4976
  787MOL0     O 6141   3.066   3.933   4.242 -0.1499  0.4168  0.8421
  787MOL0     C 6142   3.056   3.904   4.378 -0.8151 -0.9412 -0.4904
  787MOL0     C 6143   3.108   3.990   4.477  0.1793 -0.0044  0.9453
  787MOL0     C 6144   3.089   3.963   4.618  0.4356  0.1588 -0.1988
  787MOL0     C 6145   3.032   3.851   4.650  0.1833  0.5791 -0.5898
  787MOL0     O 6146   3.003   3.847   4.781  0.6484 -0.5083  0.1134
  787MOL0     C 6147   2.870   3.891   4.817  0.3721 -0.8466 -0.8110
  787MOL0     C 6148   2.875   4.044   4.846 -0.8122 -0.7332  0.3080
  787MOL0     C 6149   2.735   4.104   4.902 -1.0699 -0.6297 -0.1613
  787MOL0     C 6150   2.670   4.173   4.784  0.5545  0.3526 -0.4263
  787MOL0     C 6151   2.525   4.206   4.821  0.7973  0.3190 -0.0871
  787MOL0     C 6152   2.452   4.204   4.688  0.8455  0.4012 -0.5350
  787MOL0     C 6153   2.298   4.191   4.701 -0.9417 -0.3804 -0.1190
  787MOL0     C 6154   2.240   4.249   4.582  0.7932  0.3588  0.1038
  787MOL0    Cl 6155   2.270   4.425   4.565 -0.0169 -0.2603  0.0057
  787MOL0     C 6156   2.969   3.767   4.563 -0.5253 -0.8419  0.7856
  787MOL0     C 6157   2.985   3.796   4.425 -0.0211  1.2588 -0.1895
  787MOL0     O 6158   2.977   4.136   4.251 -1.0063 -0.0389  0.0169
  787MOL0     C 6159   3.192   4.014   3.996  0.1073 -0.2523 -0.4283
  787MOL0     C 6160   3.224   4.037   3.862  0.1743  0.1934  0.5997
  787MOL0     N 6161   3.140   4.115   3.034 -0.1055  0.4023  0.1829
  787MOL0     N 6162   3.155   4.071   2.916 -0.6637 -1.0536  0.3606
  787MOL0     C 6163   3.529   3.056   2.774  0.3876  0.1897  0.4052
  787MOL0     C 6164   3.593   2.935   2.742  0.3631  0.1592  0.1636
  787MOL0     C 6165   3.759   2.528   2.717 -0.5573  0.5713 -0.7921
  787MOL0     C 6166   3.899   2.502   2.721  0.1559  0.1860 -0.0932
  787MOL0     C 6167   3.938   2.364   2.738 -0.1721  0.5992  0.5342
  787MOL0     C 6168   3.847   2.260   2.750  0.3833  0.6551  0.5000
  787MOL0     O 6169   3.886   2.136   2.766 -0.4126 -1.1285  0.8281
  787MOL0     C 6170   3.805   2.022   2.742  1.1180  0.3670  0.9923
  787MOL0     C 6171   3.741   1.985   2.875 -0.3499  0.4124 -0.0931
  787MOL0     C 6172   3.682   1.850   2.877  0.6725  0.4086  0.1088
  787MOL0     C 6173   3.779   1.730   2.887 -0.3821  0.2681  0.4377
  787MOL0     C 6174   3.760   1.620   2.794  0.6059 -0.5676  1.2383
  787MOL0     C 6175   3.716   1.537   2.727 -0.3792  0.6026  0.2767
  787MOL0     C 6176   3.715   2.288   2.733  0.0496  0.4544 -0.4564
  787MOL0     C 6177   3.673   2.414   2.722 -0.7152 -0.6986 -0.0720
  787MOL0     H 6178   3.324   2.735   2.715 -2.2108  0.9190 -0.5900
  787MOL0     H 6179   3.202   2.937   2.765 -0.0558  0.3515  1.1980
  787MOL0     H 6180   3.450   3.264   2.913 -0.6726 -0.4456  0.1776
  787MOL0     H 6181   3.409   3.329   2.753  2.1773 -1.6660 -1.1336
  787MOL0     H 6182   3.221   3.359   2.987 -0.4817  2.3712 -0.2080
  787MOL0     H 6183   3.357   3.463   2.956  0.2888 -2.7696  1.2290
  787MOL0     H 6184   3.154   3.417   2.737 -0.8400  0.9353  0.1658
  787MOL0     H 6185   3.103   3.507   2.873 -1.9257 -1.5176 -2.5054
  787MOL0     H 6186   3.267   3.671   2.850  1.1680 -2.5789  1.6947
  787MOL0     H 6187   3.352   3.572   2.722 -0.0620 -0.5305 -0.1911
  787MOL0     H 6188   3.240   3.753   2.627  0.3716  0.4339  1.2167
  787MOL0     H 6189   3.184   3.608   2.547 -0.6744  1.9609 -0.0522
  787MOL0     H 6190   2.998   3.760   2.563 -0.7258 -0.5589  0.4429
  787MOL0     H 6191   2.962   3.614   2.650 -0.9129 -0.4530 -2.9050
  787MOL0     H 6192   2.893   3.778   2.783 -1.2179  2.2503 -6.3848
  787MOL0     H 6193   3.041   3.741   2.867 -1.3137 -0.6937 -0.1746
  787MOL0     H 6194   2.941   3.981   2.708 -0.7099  0.6732  1.6890
  787MOL0     H 6195   3.114   3.947   2.691 -1.2740 -0.3125 -1.1276
  787MOL0     H 6196   2.873   3.931   3.003 -0.9834 -0.3130 -2.4057
  787MOL0     H 6197   2.896   4.030   3.277  0.4490 -2.4450  1.7985
  787MOL0     H 6198   3.042   3.943   3.277  1.0657  1.4021  4.7530
  787MOL0     H 6199   3.079   4.250   3.286 -2.4794 -0.0597  1.7298
  787MOL0     H 6200   3.184   4.120   3.322  1.0708  3.0395  0.0513
  787MOL0     H 6201   2.998   4.057   3.505 -0.5280 -0.1208 -3.7253
  787MOL0     H 6202   2.931   4.205   3.464  0.9853  4.0825 -2.2621
  787MOL0     H 6203   3.089   4.324   3.633  1.0894 -1.1633  1.7088
  787MOL0     H 6204   3.223   4.280   3.529 -0.1259  3.6583  0.2386
  787MOL0     H 6205   2.950   4.219   3.759  1.6653 -1.9457 -2.0308
  787MOL0     H 6206   2.778   4.137   4.034 -0.1698  0.0365 -1.1968
  787MOL0     H 6207   2.875   4.277   4.087  3.1168 -1.0013  0.6678
  787MOL0     H 6208   2.810   4.268   3.922  3.7962 -1.5957 -3.3092
  787MOL0     H 6209   3.143   4.090   4.454 -0.6081  0.8539  3.1396
  787MOL0     H 6210   3.127   4.031   4.693  1.3158 -2.4758  1.8677
  787MOL0     H 6211   2.797   3.857   4.743  0.3713  1.3991 -1.9246
  787MOL0     H 6212   2.849   3.840   4.912 -1.5801  1.6392  0.2208
  787MOL0     H 6213   2.952   4.056   4.922 -0.5544 -1.9618  0.2617
  787MOL0     H 6214   2.904   4.107   4.761 -0.3735  3.0059  3.0081
  787MOL0     H 6215   2.746   4.178   4.981 -2.5130  0.8904 -1.3126
  787MOL0     H 6216   2.674   4.019   4.934 -3.4853 -0.7273 -4.3434
  787MOL0     H 6217   2.720   4.263   4.747 -0.3606  1.0865  0.0947
  787MOL0     H 6218   2.687   4.113   4.695 -2.7028 -1.7419  0.2076
  787MOL0     H 6219   2.507   4.303   4.869  0.0651 -0.3289  0.9731
  787MOL0     H 6220   2.492   4.121   4.880 -0.4713 -0.0320 -1.2540
  787MOL0     H 6221   2.482   4.295   4.634 -0.8067  1.2490 -0.0887
  787MOL0     H 6222   2.493   4.122   4.628  2.9134  0.5674  0.5505
  787MOL0     H 6223   2.259   4.238   4.792 -3.3206 -0.6122 -0.9530
  787MOL0     H 6224   2.260   4.089   4.715  0.5346 -0.9716 -0.2630
  787MOL0     H 6225   2.131   4.240   4.581  0.7628  0.7172 -0.3349
  787MOL0     H 6226   2.282   4.211   4.488  1.3135  0.0238  0.4686
  787MOL0     H 6227   2.923   3.678   4.606 -0.2251 -1.0388  0.7054
  787MOL0     H 6228   2.943   3.716   4.365  2.6791  1.3473 -2.3987
  787MOL0     H 6229   3.265   3.957   4.053 -1.5938 -1.7944  0.3281
  787MOL0     H 6230   3.315   4.001   3.812 -0.7102 -0.9365 -0.2698
  787MOL0     H 6231   3.585   3.149   2.783  0.0917  0.4173 -0.0102
  787MOL0     H 6232   3.701   2.937   2.741  0.4921  0.1787 -4.3528
  787MOL0     H 6233   3.978   2.576   2.716  3.7519 -3.3808 -0.9171
  787MOL0     H 6234   4.043   2.338   2.746 -0.8526 -1.9679  1.9143
  787MOL0     H 6235   3.731   2.030   2.661  1.2128 -0.6264  0.8033
  787MOL0     H 6236   3.876   1.944   2.713  0.9329  1.1720 -2.0047
  787MOL0     H 6237   3.671   2.061   2.911 -2.8696 -1.1310 -1.4761
  787MOL0     H 6238   3.820   1.983   2.951 -1.6695 -3.3201  1.4177
  787MOL0     H 6239   3.612   1.836   2.794 -2.7779 -0.9242  2.9691
  787MOL0     H 6240   3.624   1.844   2.969 -0.8004 -1.4448 -0.8567
  787MOL0     H 6241   3.760   1.687   2.985  3.2751  0.5649  1.4395
  787MOL0     H 6242   3.880   1.772   2.897 -0.6444  0.3157  4.2965
  787MOL0     H 6243   3.683   1.454   2.667  0.5333  0.1985  0.3184
  787MOL0     H 6244   3.643   2.207   2.740  1.3601 -0.9198 -2.2760
  787MOL0     H 6245   3.568   2.442   2.713 -0.2544  1.7309  1.3695
  788MOL0     O 6246   3.945   4.954   8.522 -0.2308  0.3566  0.5801
  788MOL0     C 6247   3.928   5.073   8.535  0.7103 -0.4032 -0.3024
  788MOL0     O 6248   4.020   5.173   8.497 -0.4889 -0.5094 -0.3193
  788MOL0     C 6249   4.131   5.129   8.438 -1.2088  0.4021 -0.2212
  788MOL0     C 6250   4.255   5.110   8.515 -0.2015  0.3116 -0.2261
  788MOL0     C 6251   4.367   5.042   8.459  0.0817 -0.2400 -0.0011
  788MOL0     C 6252   4.358   5.015   8.327 -0.6263 -0.9822  0.4158
  788MOL0     O 6253   4.470   4.967   8.259 -0.0749  0.5165 -0.6385
  788MOL0     C 6254   4.482   4.995   8.122  0.0320  0.3489  0.5275
  788MOL0     C 6255   4.616   4.946   8.061 -0.0314  0.7419 -0.1597
  788MOL0     C 6256   4.614   4.972   7.909 -0.3941  0.0506  0.5668
  788MOL0     C 6257   4.751   4.963   7.841  0.2824  0.0821 -1.0639
  788MOL0     C 6258   4.748   5.016   7.694  0.0933 -0.8783 -0.2604
  788MOL0     C 6259   4.728   5.166   7.697  0.8801  1.3091 -0.0774
  788MOL0     C 6260   4.700   5.209   7.557 -0.6771 -0.6577  0.2024
  788MOL0     C 6261   4.803   5.193   7.451 -0.2836  0.5070 -0.2364
  788MOL0     N 6262   4.935   5.236   7.492 -0.2008  0.0618 -0.5505
  788MOL0     C 6263   4.967   5.357   7.544 -0.1155 -0.3387 -0.1799
  788MOL0     C 6264   5.099   5.343   7.589  0.2427  0.9122  0.2823
  788MOL0     C 6265   5.182   5.449   7.666  0.1252  0.5151 -0.4478
  788MOL0     C 6266   5.198   5.415   7.810 -0.4696 -0.3123  0.1137
  788MOL0     C 6267   5.268   5.529   7.878 -0.7648 -0.8860 -1.2589
  788MOL0     C 6268   5.270   5.515   8.031 -0.5608  0.3332  0.4618
  788MOL0     O 6269   5.384   5.449   8.093  0.0827  0.4553  0.1922
  788MOL0     C 6270   5.486   5.527   8.133 -0.5671 -0.0744  0.4893
  788MOL0     C 6271   5.549   5.483   8.246 -0.6291 -0.3112  0.7671
  788MOL0     C 6272   5.638   5.574   8.313 -0.7637 -0.0532  0.4796
  788MOL0     C 6273   5.680   5.534   8.453  0.6213 -0.6242 -0.2329
  788MOL0     C 6274   5.681   5.697   8.251  0.1646  0.5385  0.0808
  788MOL0     C 6275   5.763   5.809   8.314 -1.0561 -0.1443  0.0800
  788MOL0     O 6276   5.825   5.892   8.228  0.0859  0.0023  0.0232
  788MOL0     C 6277   5.901   5.991   8.274  0.4867 -0.4807 -0.4139
  788MOL0     C 6278   5.858   6.122   8.281  0.1387 -0.7119  0.5219
  788MOL0     C 6279   5.940   6.223   8.337  0.3009 -0.0669  0.3410
  788MOL0     C 6280   6.065   6.186   8.387  0.1139 -0.2115  0.1815
  788MOL0     O 6281   6.151   6.279   8.433 -0.2059  0.4124 -0.0642
  788MOL0     C 6282   6.155   6.279   8.575 -0.5579 -0.0769  0.2981
  788MOL0     C 6283   6.252   6.387   8.626  0.2959 -0.6053  0.0203
  788MOL0     C 6284   6.200   6.458   8.750 -1.0811 -0.3443  0.8738
  788MOL0     C 6285   6.099   6.564   8.712  0.3541  0.0203 -0.6564
  788MOL0     C 6286   6.007   6.624   8.818 -0.3776  0.2471 -0.2721
  788MOL0     C 6287   5.915   6.521   8.878  0.1502  0.7895 -0.5643
  788MOL0     C 6288   5.804   6.585   8.958  0.0136  1.0478 -0.9730
  788MOL0     C 6289   5.710   6.470   9.003  0.7124 -0.2405 -0.3936
  788MOL0    Cl 6290   5.591   6.567   9.094  0.0214  0.1045 -0.4732
  788MOL0     C 6291   6.110   6.054   8.378  0.8207 -0.7926  0.4216
  788MOL0     C 6292   6.023   5.958   8.334 -0.1038 -0.2938  1.5565
  788MOL0     O 6293   5.763   5.818   8.433 -0.0071 -0.3558 -0.3203
  788MOL0     C 6294   5.638   5.718   8.123  0.8968  0.6137 -0.8631
  788MOL0     C 6295   5.539   5.637   8.060  0.4030  0.3927  0.5503
  788MOL0     N 6296   5.143   5.221   7.553  0.4590  0.1010 -0.3731
  788MOL0     N 6297   5.041   5.153   7.498 -0.4648 -0.3465  0.0925
  788MOL0     C 6298   4.235   5.029   8.252  0.9588  0.3381  0.3556
  788MOL0     C 6299   4.125   5.092   8.303  0.0047 -0.0370 -0.2387
  788MOL0     C 6300   3.824   5.130   8.627 -0.0666  0.6164  0.1520
  788MOL0     C 6301   3.807   5.269   8.654 -1.4839 -1.3201  0.2948
  788MOL0     C 6302   3.706   5.319   8.744 -0.4307  0.5343 -0.0366
  788MOL0     C 6303   3.615   5.227   8.802  0.0751  0.6635 -0.1705
  788MOL0     O 6304   3.526   5.281   8.895 -0.2991  0.3501  0.9461
  788MOL0     C 6305   3.435   5.185   8.951  0.2001 -0.4537 -0.5515
  788MOL0     C 6306   3.355   5.243   9.063  0.0308 -0.8976  0.0732
  788MOL0     C 6307   3.419   5.217   9.196  0.3014  0.0457  0.2846
  788MOL0     C 6308   3.302   5.245   9.299 -0.6077  0.0711 -0.2092
  788MOL0     C 6309   3.351   5.286   9.425 -0.0303 -0.5813 -0.4397
  788MOL0     C 6310   3.402   5.338   9.525  0.4220  0.6685  1.0857
  788MOL0     C 6311   3.631   5.092   8.767 -0.2793 -0.1702 -0.2191
  788MOL0     C 6312   3.731   5.049   8.680  0.6203 -0.5116  0.1477
  788MOL0     H 6313   4.241   5.146   8.616  0.4979  1.6288 -0.5716
  788MOL0     H 6314   4.467   5.054   8.499  0.9212  0.3285 -2.1114
  788MOL0     H 6315   4.407   4.934   8.071 -0.3175  4.2497 -4.3970
  788MOL0     H 6316   4.466   5.103   8.107  0.1345  0.0189 -2.5037
  788MOL0     H 6317   4.693   5.009   8.109 -2.2337  1.9158  2.0733
  788MOL0     H 6318   4.632   4.844   8.097 -3.0216  0.5222  0.8371
  788MOL0     H 6319   4.543   4.896   7.876 -0.5231 -0.0573  1.0777
  788MOL0     H 6320   4.570   5.070   7.890 -1.5616 -0.4942  0.3962
  788MOL0     H 6321   4.820   5.029   7.894  0.2738  0.5711 -1.6437
  788MOL0     H 6322   4.789   4.861   7.843 -0.8973 -0.3705 -0.5529
  788MOL0     H 6323   4.842   4.985   7.647 -1.7521 -3.7564 -2.3892
  788MOL0     H 6324   4.661   4.977   7.640 -0.3812 -1.6242  1.0025
  788MOL0     H 6325   4.639   5.196   7.754  0.5724  0.5758 -0.1570
  788MOL0     H 6326   4.814   5.216   7.742  3.2446 -1.2491 -1.3976
  788MOL0     H 6327   4.609   5.165   7.517 -2.1206  0.8725  1.6149
  788MOL0     H 6328   4.676   5.316   7.554  2.0020  0.0521 -4.0116
  788MOL0     H 6329   4.776   5.236   7.354  1.8431  1.6896 -0.3442
  788MOL0     H 6330   4.817   5.088   7.420  0.6088  1.6682 -4.4825
  788MOL0     H 6331   4.893   5.432   7.568 -2.5069 -2.6086 -0.0851
  788MOL0     H 6332   5.280   5.443   7.617  1.5604 -0.9177  2.3535
  788MOL0     H 6333   5.140   5.548   7.649 -2.4132 -0.1907  1.2507
  788MOL0     H 6334   5.265   5.329   7.823 -2.1076 -1.4490  1.5653
  788MOL0     H 6335   5.102   5.390   7.856  0.3149 -2.4082  0.7376
  788MOL0     H 6336   5.207   5.615   7.852 -2.0218 -0.5919  2.1951
  788MOL0     H 6337   5.370   5.538   7.840  0.9222  0.4824  3.0072
  788MOL0     H 6338   5.173   5.471   8.055 -1.8731  1.4125 -2.3902
  788MOL0     H 6339   5.252   5.615   8.071 -3.9228 -0.8969  2.4196
  788MOL0     H 6340   5.504   5.393   8.287 -2.9748  0.7458  0.6843
  788MOL0     H 6341   5.606   5.564   8.528  2.3866  1.4697  0.7821
  788MOL0     H 6342   5.694   5.429   8.477  1.1165 -0.2614  1.1920
  788MOL0     H 6343   5.779   5.578   8.469  0.9952 -1.1384 -1.0802
  788MOL0     H 6344   5.775   6.161   8.223  1.9038  0.6153 -1.2412
  788MOL0     H 6345   5.901   6.323   8.351 -0.9185 -0.6406  1.2631
  788MOL0     H 6346   6.056   6.293   8.618  0.3758  4.2647  1.5524
  788MOL0     H 6347   6.195   6.183   8.607  5.9971  1.2866 -2.1497
  788MOL0     H 6348   6.343   6.337   8.661  1.6225  0.2189 -2.0374
  788MOL0     H 6349   6.271   6.463   8.549 -0.1379  0.1831  0.6755
  788MOL0     H 6350   6.283   6.494   8.812 -0.6792  0.9574 -0.3667
  788MOL0     H 6351   6.149   6.383   8.811  0.5076 -2.4005 -0.2088
  788MOL0     H 6352   6.158   6.645   8.669  1.1496 -1.3223 -2.2419
  788MOL0     H 6353   6.037   6.534   8.626  0.9506 -0.5402 -0.9001
  788MOL0     H 6354   5.941   6.694   8.766 -0.7417  1.0283  1.1903
  788MOL0     H 6355   6.073   6.670   8.891  0.6621  0.8425 -1.5334
  788MOL0     H 6356   5.872   6.457   8.799  2.2952 -1.6282  0.0649
  788MOL0     H 6357   5.974   6.449   8.936 -0.9719  0.9568  0.8333
  788MOL0     H 6358   5.749   6.662   8.904 -0.6421  0.1153 -1.6772
  788MOL0     H 6359   5.857   6.619   9.047 -0.3869 -3.1400  1.1318
  788MOL0     H 6360   5.776   6.415   9.069 -1.0102  1.0159  2.6164
  788MOL0     H 6361   5.670   6.416   8.917  3.4842 -1.3634 -1.0730
  788MOL0     H 6362   6.209   6.022   8.411  1.9189 -0.4249 -2.2478
  788MOL0     H 6363   6.059   5.856   8.330 -2.8329 -1.3805  1.9357
  788MOL0     H 6364   5.675   5.802   8.065  2.8862 -0.5675 -1.4258
  788MOL0     H 6365   5.513   5.648   7.955 -0.8325  0.6353  0.8588
  788MOL0     H 6366   4.225   4.997   8.149  1.4481 -2.5926  1.1143
  788MOL0     H 6367   4.027   5.099   8.257 -0.9950  1.1550  1.9249
  788MOL0     H 6368   3.880   5.346   8.628  1.0099 -3.0189  1.8535
  788MOL0     H 6369   3.705   5.426   8.761  2.4850  0.8535 -1.2162
  788MOL0     H 6370   3.367   5.153   8.871 -1.7298  2.3863 -0.1935
  788MOL0     H 6371   3.485   5.099   8.995  1.0807  0.9248  1.2905
  788MOL0     H 6372   3.262   5.187   9.060 -1.5758  1.5854  0.3529
  788MOL0     H 6373   3.323   5.347   9.055  0.5832 -0.3984  3.1132
  788MOL0     H 6374   3.500   5.288   9.215  0.2325 -0.3185  2.1220
  788MOL0     H 6375   3.468   5.120   9.209  1.9877  0.9238  0.7342
  788MOL0     H 6376   3.238   5.159   9.321  1.5641 -0.8986  3.1708
  788MOL0     H 6377   3.242   5.330   9.266 -0.6044  0.6099  1.1169
  788MOL0     H 6378   3.426   5.374   9.623 -2.7690 -0.3970  2.4099
  788MOL0     H 6379   3.554   5.021   8.797  0.0864 -0.0387  1.0959
  788MOL0     H 6380   3.719   4.949   8.638 -0.8280 -0.0659 -0.5837
  789MOL0     O 6381   6.893   9.219   4.282 -0.5528  1.1158  0.4907
  789MOL0     C 6382   6.915   9.335   4.247  0.0040  0.3073 -0.5748
  789MOL0     O 6383   6.814   9.423   4.226  0.0003  0.1769 -0.0589
  789MOL0     C 6384   6.685   9.387   4.274 -0.8965 -0.6816  0.7370
  789MOL0     C 6385   6.644   9.343   4.400 -1.2552 -0.5095  0.0470
  789MOL0     C 6386   6.505   9.330   4.429 -0.9021  0.2536 -0.0061
  789MOL0     C 6387   6.408   9.354   4.326 -0.6151  0.7108 -0.2034
  789MOL0     O 6388   6.274   9.329   4.361 -0.3774 -0.0265  0.4241
  789MOL0     C 6389   6.184   9.296   4.253  0.5215 -0.1451  0.1751
  789MOL0     C 6390   6.060   9.221   4.303  0.6983  0.8512  1.1954
  789MOL0     C 6391   5.959   9.193   4.192  0.1780  1.1049 -0.1279
  789MOL0     C 6392   5.834   9.132   4.243 -0.2312  1.1698  0.6660
  789MOL0     C 6393   5.747   9.096   4.127  0.3857  0.2010  0.4388
  789MOL0     C 6394   5.658   8.982   4.177  0.9698  0.9287 -0.2773
  789MOL0     C 6395   5.550   8.950   4.069 -0.7447  0.2884 -0.5923
  789MOL0     C 6396   5.458   8.835   4.114 -0.9853 -0.4378  0.4375
  789MOL0     N 6397   5.387   8.789   3.995 -0.2419 -0.0561 -0.2883
  789MOL0     C 6398   5.315   8.867   3.897 -0.9501 -1.0854 -0.1132
  789MOL0     C 6399   5.279   8.775   3.803 -0.6878 -0.0082 -0.5582
  789MOL0     C 6400   5.218   8.794   3.671 -0.3791  0.3403  0.9746
  789MOL0     C 6401   5.313   8.834   3.558  0.6239 -0.0036  0.3970
  789MOL0     C 6402   5.221   8.874   3.441  0.3870 -0.4526 -0.0826
  789MOL0     C 6403   5.296   8.862   3.313  0.6880  0.7334 -0.8031
  789MOL0     O 6404   5.426   8.919   3.328  0.1558 -0.3399  0.3871
  789MOL0     C 6405   5.481   8.969   3.215 -0.2560  0.6930 -0.3764
  789MOL0     C 6406   5.505   8.881   3.108  0.1271  0.7942 -0.0436
  789MOL0     C 6407   5.552   8.932   2.988  0.5280 -0.8940 -0.1675
  789MOL0     C 6408   5.595   8.841   2.870  0.6613 -0.0109  0.1283
  789MOL0     C 6409   5.574   9.077   2.980 -0.4110 -0.1908 -0.2845
  789MOL0     C 6410   5.633   9.148   2.858  0.0858 -0.2121  0.5555
  789MOL0     O 6411   5.725   9.234   2.895  0.2846  0.4376 -0.4758
  789MOL0     C 6412   5.778   9.319   2.809  0.2993 -0.0744 -0.7128
  789MOL0     C 6413   5.912   9.358   2.828  0.1276  0.0278  0.7346
  789MOL0     C 6414   5.982   9.450   2.754 -0.3045 -0.8281  1.0345
  789MOL0     C 6415   5.898   9.515   2.653 -0.0551 -0.1931 -0.1385
  789MOL0     O 6416   5.952   9.601   2.569  0.1946  0.1712 -0.0194
  789MOL0     C 6417   6.091   9.649   2.566 -0.0541  0.3963  0.6647
  789MOL0     C 6418   6.109   9.720   2.430 -0.0251  0.5206  0.6699
  789MOL0     C 6419   6.109   9.624   2.306 -0.7769 -0.5764  0.0184
  789MOL0     C 6420   6.099   9.682   2.159 -0.0234  0.2961 -0.2549
  789MOL0     C 6421   6.131   9.580   2.048  0.0348 -0.5054  0.4072
  789MOL0     C 6422   6.010   9.499   2.027 -0.2416  0.5787  0.1597
  789MOL0     C 6423   6.003   9.450   1.876 -0.4805  0.7737 -0.3245
  789MOL0     C 6424   5.885   9.352   1.861  0.3528  0.4961  0.4349
  789MOL0    Cl 6425   5.736   9.427   1.829 -0.2435  0.4347  0.2060
  789MOL0     C 6426   5.769   9.480   2.626  0.8587  0.3353  0.3451
  789MOL0     C 6427   5.704   9.378   2.708  0.4271  0.7951  0.5089
  789MOL0     O 6428   5.600   9.110   2.742 -0.5067 -0.7266 -0.5136
  789MOL0     C 6429   5.554   9.155   3.094  0.9688 -0.8106 -0.1162
  789MOL0     C 6430   5.505   9.101   3.211  0.2110 -0.2794 -0.0456
  789MOL0     N 6431   5.340   8.653   3.830 -0.2713 -0.1052 -0.5104
  789MOL0     N 6432   5.410   8.671   3.936 -0.4774  0.2891 -1.3252
  789MOL0     C 6433   6.448   9.404   4.208  0.3643  0.3462  0.9392
  789MOL0     C 6434   6.580   9.416   4.178 -0.6652 -0.4201 -0.2572
  789MOL0     C 6435   7.044   9.382   4.196 -1.4098  0.5111 -0.8686
  789MOL0     C 6436   7.058   9.477   4.092 -0.2589  0.2511  0.3133
  789MOL0     C 6437   7.185   9.524   4.050  0.7822 -0.0321 -0.5254
  789MOL0     C 6438   7.295   9.480   4.125  1.1498 -0.0617  0.4567
  789MOL0     O 6439   7.418   9.516   4.092 -0.0603 -0.3011  0.3315
  789MOL0     C 6440   7.434   9.658   4.115  0.5726  0.1823  1.7126
  789MOL0     C 6441   7.571   9.686   4.166  0.1071 -0.5690 -0.7303
  789MOL0     C 6442   7.684   9.636   4.085  0.4639  0.8296 -0.0955
  789MOL0     C 6443   7.807   9.636   4.172  0.0310 -0.4469 -0.9218
  789MOL0     C 6444   7.923   9.683   4.096  1.1006  0.2448 -0.2599
  789MOL0     C 6445   8.035   9.709   4.053  1.1266  0.0275 -0.0197
  789MOL0     C 6446   7.284   9.391   4.229 -0.5183 -0.4337 -0.9886
  789MOL0     C 6447   7.164   9.337   4.265  0.2492 -0.3546  0.2130
  789MOL0     H 6448   6.715   9.321   4.479  1.8974  0.8751 -2.2116
  789MOL0     H 6449   6.469   9.296   4.526 -2.0618  1.3165 -0.0296
  789MOL0     H 6450   6.156   9.390   4.204 -1.4144  0.2255  1.8927
  789MOL0     H 6451   6.230   9.230   4.178 -0.8829 -0.2123 -0.6652
  789MOL0     H 6452   6.098   9.127   4.344  2.2909 -0.1257 -2.2111
  789MOL0     H 6453   6.020   9.266   4.395  1.1074  0.7428  1.4320
  789MOL0     H 6454   5.930   9.291   4.153 -0.9415  2.7008  4.1271
  789MOL0     H 6455   6.009   9.125   4.122 -0.6607 -0.9765  1.1941
  789MOL0     H 6456   5.863   9.044   4.302 -3.9028  0.1544  1.1881
  789MOL0     H 6457   5.779   9.196   4.313 -1.7580 -1.7787  2.3401
  789MOL0     H 6458   5.682   9.178   4.095  0.2053 -0.7093 -1.6532
  789MOL0     H 6459   5.799   9.032   4.055 -2.5629 -3.2746  1.1298
  789MOL0     H 6460   5.726   8.898   4.193  2.5359  2.2646  0.4402
  789MOL0     H 6461   5.611   9.006   4.272  0.6591  2.0752 -0.7008
  789MOL0     H 6462   5.490   9.037   4.038 -1.3030 -0.4848 -1.7651
  789MOL0     H 6463   5.607   8.915   3.982  1.2014 -1.2695  1.1902
  789MOL0     H 6464   5.411   8.875   4.204 -0.3919  0.3609  0.4043
  789MOL0     H 6465   5.516   8.747   4.145  0.8500  1.3184  2.2983
  789MOL0     H 6466   5.280   8.970   3.900 -1.0871 -1.1311 -0.1323
  789MOL0     H 6467   5.161   8.704   3.643 -1.5354  0.4984  2.6577
  789MOL0     H 6468   5.145   8.874   3.686 -0.9666 -0.4704  2.6983
  789MOL0     H 6469   5.378   8.750   3.531  1.7800  0.6113  1.2037
  789MOL0     H 6470   5.380   8.914   3.589 -0.4012  1.2213 -0.4380
  789MOL0     H 6471   5.184   8.976   3.448  1.2480 -0.2075  1.1576
  789MOL0     H 6472   5.135   8.807   3.429 -2.2284  2.4378  1.3968
  789MOL0     H 6473   5.233   8.905   3.234 -0.2110 -2.7151 -2.1375
  789MOL0     H 6474   5.290   8.754   3.297 -3.1505  0.9982 -2.2885
  789MOL0     H 6475   5.493   8.778   3.136 -1.5634  1.5459  2.2482
  789MOL0     H 6476   5.698   8.865   2.842  1.0286 -0.2056  1.2737
  789MOL0     H 6477   5.593   8.737   2.902  2.3588 -0.6032 -1.5162
  789MOL0     H 6478   5.526   8.856   2.786  0.0908 -1.7557  0.2425
  789MOL0     H 6479   5.962   9.309   2.912 -1.0269 -1.7843  0.4241
  789MOL0     H 6480   6.089   9.463   2.768  0.2527 -1.4514 -1.9780
  789MOL0     H 6481   6.095   9.732   2.637 -1.0890  0.8481  0.2206
  789MOL0     H 6482   6.175   9.580   2.569  2.1626  2.8599 -0.6391
  789MOL0     H 6483   6.024   9.786   2.410 -0.4827 -0.2311  0.0492
  789MOL0     H 6484   6.196   9.783   2.448 -3.1531  4.5442  3.4203
  789MOL0     H 6485   6.031   9.549   2.322 -2.0501  0.7460  0.1961
  789MOL0     H 6486   6.203   9.569   2.298 -0.7063 -0.2176 -2.1355
  789MOL0     H 6487   6.005   9.732   2.138 -1.1761 -2.0127 -1.0228
  789MOL0     H 6488   6.172   9.763   2.153 -0.4390  0.5767 -1.8441
  789MOL0     H 6489   6.221   9.523   2.073 -1.1474 -2.0068  1.4048
  789MOL0     H 6490   6.149   9.638   1.957 -1.9717 -1.4225 -0.6458
  789MOL0     H 6491   6.006   9.419   2.102  3.0949  0.3034  0.1828
  789MOL0     H 6492   5.925   9.566   2.039  0.1889  1.5812 -1.8886
  789MOL0     H 6493   6.095   9.397   1.849 -1.1398 -0.0956 -0.9499
  789MOL0     H 6494   5.993   9.530   1.803 -1.5293 -2.3362 -3.8986
  789MOL0     H 6495   5.869   9.299   1.955  2.8683  0.7208  1.0641
  789MOL0     H 6496   5.899   9.273   1.786 -2.2069  0.4744 -0.1083
  789MOL0     H 6497   5.725   9.529   2.540 -2.7203 -1.0367  1.2290
  789MOL0     H 6498   5.605   9.335   2.698 -0.2471  0.9298  4.6488
  789MOL0     H 6499   5.577   9.261   3.092 -1.4514 -0.1720  1.1954
  789MOL0     H 6500   5.488   9.166   3.296 -0.8467 -0.3994 -0.1461
  789MOL0     H 6501   6.376   9.431   4.131  0.4763  1.3235  1.1571
  789MOL0     H 6502   6.601   9.454   4.079  1.0160  0.5081  0.3991
  789MOL0     H 6503   6.968   9.526   4.057 -0.5359 -0.0784  0.5525
  789MOL0     H 6504   7.192   9.578   3.957 -2.8499 -1.1916 -1.6076
  789MOL0     H 6505   7.435   9.701   4.014  0.4435 -1.0939  1.1389
  789MOL0     H 6506   7.355   9.697   4.179 -0.9501 -1.6327  1.0336
  789MOL0     H 6507   7.590   9.639   4.263  1.2368  4.1135  1.6193
  789MOL0     H 6508   7.574   9.794   4.184 -2.7513 -1.0313  4.2289
  789MOL0     H 6509   7.713   9.698   4.000  2.6474 -0.3409 -0.2861
  789MOL0     H 6510   7.662   9.537   4.043 -1.7171  1.8830 -1.5809
  789MOL0     H 6511   7.825   9.536   4.212 -2.1888 -0.2487  0.7358
  789MOL0     H 6512   7.790   9.707   4.253 -3.2883 -1.6933 -0.3844
  789MOL0     H 6513   8.125   9.748   4.010 -0.0955  3.3074  0.1371
  789MOL0     H 6514   7.374   9.368   4.286  0.2142  0.8922 -1.5671
  789MOL0     H 6515   7.160   9.276   4.355 -0.6116 -1.3255 -0.4541
  790MOL0     O 6516   3.072  11.345   8.303  0.1405  0.4825  1.1329
  790MOL0     C 6517   3.184  11.363   8.347  0.1863  0.8243 -0.4450
  790MOL0     O 6518   3.292  11.307   8.288  0.2548  0.0112  0.0328
  790MOL0     C 6519   3.272  11.241   8.168 -0.9694  0.0207  1.0275
  790MOL0     C 6520   3.219  11.104   8.161  1.2878 -0.3910 -0.1582
  790MOL0     C 6521   3.202  11.057   8.037  0.3359  0.0791  0.8254
  790MOL0     C 6522   3.236  11.130   7.919  0.4290  0.0634  0.6679
  790MOL0     O 6523   3.226  11.096   7.789  0.7226 -0.5870  0.1743
  790MOL0     C 6524   3.126  10.994   7.751  0.5386  0.6521 -0.2348
  790MOL0     C 6525   3.133  10.977   7.597  1.1572  0.3439 -0.0821
  790MOL0     C 6526   3.099  11.114   7.543  0.0417  0.1107  0.1931
  790MOL0     C 6527   3.022  11.104   7.407  0.6730  0.8985  0.0443
  790MOL0     C 6528   3.112  11.144   7.292 -0.4955 -0.8546 -0.8245
  790MOL0     C 6529   3.046  11.138   7.156 -0.4338  0.0232 -0.0558
  790MOL0     C 6530   3.141  11.104   7.040 -0.1816  0.3311 -0.2880
  790MOL0     C 6531   3.170  10.950   7.018  0.5289  0.2973 -0.6497
  790MOL0     N 6532   3.265  10.886   7.113  0.7296 -0.4493  0.3445
  790MOL0     C 6533   3.233  10.799   7.215  0.6512  0.7789 -0.1361
  790MOL0     C 6534   3.342  10.740   7.257  0.8506 -0.1408 -0.4510
  790MOL0     C 6535   3.364  10.638   7.373  0.3194 -0.2703 -0.2294
  790MOL0     C 6536   3.382  10.699   7.515 -0.3483 -1.3633 -0.3114
  790MOL0     C 6537   3.504  10.802   7.529  0.2911 -0.4514  0.4644
  790MOL0     C 6538   3.508  10.868   7.665 -0.7859  0.0667  0.1666
  790MOL0     O 6539   3.545  10.771   7.752  0.1691  0.0722 -0.4592
  790MOL0     C 6540   3.573  10.811   7.883  0.3147  0.0411  0.0554
  790MOL0     C 6541   3.639  10.724   7.973 -0.4076  0.5124 -0.8436
  790MOL0     C 6542   3.678  10.757   8.106 -0.5646  0.7592 -0.6389
  790MOL0     C 6543   3.766  10.663   8.172  0.3748  0.0236  0.3268
  790MOL0     C 6544   3.651  10.895   8.147  0.3379 -0.6756  0.4490
  790MOL0     C 6545   3.678  10.949   8.280 -0.1313 -0.4439  0.3072
  790MOL0     O 6546   3.657  11.079   8.289 -0.1279  0.4008 -0.3126
  790MOL0     C 6547   3.726  11.158   8.381 -0.8808  0.1301 -0.3203
  790MOL0     C 6548   3.862  11.149   8.410 -0.7154  0.6856 -0.1568
  790MOL0     C 6549   3.927  11.234   8.502  0.7251  0.3406  0.1715
  790MOL0     C 6550   3.852  11.332   8.570 -0.2675 -0.3401 -0.0752
  790MOL0     O 6551   3.916  11.411   8.656 -0.0223 -0.1059 -0.1098
  790MOL0     C 6552   4.042  11.473   8.616  0.4887 -0.5851 -0.3267
  790MOL0     C 6553   4.105  11.549   8.724  0.7854  0.0391  0.3408
  790MOL0     C 6554   4.027  11.672   8.758  1.2870 -0.2781  0.5248
  790MOL0     C 6555   4.090  11.780   8.857  0.3458  0.6264  0.0896
  790MOL0     C 6556   3.988  11.891   8.900  0.8811  0.1255  0.7631
  790MOL0     C 6557   4.049  11.968   9.020  0.3186  0.5059  1.1839
  790MOL0     C 6558   4.113  12.106   8.990 -0.3111 -0.5162  0.3532
  790MOL0     C 6559   4.101  12.186   9.123 -0.5102 -0.5183  0.8744
  790MOL0    Cl 6560   4.066  12.354   9.077  0.0727 -0.1803  0.4552
  790MOL0     C 6561   3.710  11.336   8.544  0.8762  0.8490  0.0344
  790MOL0     C 6562   3.651  11.254   8.453 -0.0511  0.0131 -0.1876
  790MOL0     O 6563   3.724  10.877   8.371 -0.9194 -0.0702  0.3717
  790MOL0     C 6564   3.577  10.977   8.057  0.3357 -0.8162 -0.0729
  790MOL0     C 6565   3.547  10.938   7.936  0.5215 -0.5685  0.3929
  790MOL0     N 6566   3.444  10.794   7.182 -0.1777 -0.7287 -1.3198
  790MOL0     N 6567   3.396  10.863   7.094  0.0424  0.7851  0.3257
  790MOL0     C 6568   3.289  11.257   7.933  0.1709 -0.4207  0.1831
  790MOL0     C 6569   3.304  11.309   8.057 -1.0653 -0.6307 -0.2567
  790MOL0     C 6570   3.215  11.460   8.450  0.7931 -0.5465  2.0235
  790MOL0     C 6571   3.343  11.501   8.485 -0.3767 -0.5487 -0.9873
  790MOL0     C 6572   3.366  11.583   8.599  0.5146 -0.0112  0.4411
  790MOL0     C 6573   3.257  11.648   8.673  0.6912  0.6609 -0.5961
  790MOL0     O 6574   3.276  11.747   8.764  0.4358 -0.8327  0.4484
  790MOL0     C 6575   3.189  11.782   8.871 -0.2941  0.0079 -0.8366
  790MOL0     C 6576   3.143  11.925   8.850 -0.0368  0.1736  0.5862
  790MOL0     C 6577   3.021  11.971   8.927 -1.1735  1.2670 -0.0488
  790MOL0     C 6578   3.031  11.939   9.083 -0.6345 -0.5337  0.0394
  790MOL0     C 6579   3.150  12.008   9.140 -0.4305  0.3703 -1.2151
  790MOL0     C 6580   3.249  12.063   9.193  1.5568 -1.1094  0.5538
  790MOL0     C 6581   3.125  11.604   8.635 -1.6825 -1.0698  0.7223
  790MOL0     C 6582   3.112  11.510   8.529  0.2121 -0.3481  0.3035
  790MOL0     H 6583   3.175  11.051   8.245  1.4243 -0.5556 -0.1897
  790MOL0     H 6584   3.153  10.961   8.046  2.2480 -0.9480  0.7580
  790MOL0     H 6585   3.139  10.893   7.791 -0.1072  0.7642  0.2911
  790MOL0     H 6586   3.026  11.018   7.791 -1.2215 -3.1739 -1.8304
  790MOL0     H 6587   3.237  10.950   7.577  1.1350 -0.9408  1.3669
  790MOL0     H 6588   3.068  10.896   7.562 -0.8957 -0.5619  5.0026
  790MOL0     H 6589   3.029  11.164   7.611 -1.4778 -1.7779  0.0816
  790MOL0     H 6590   3.188  11.177   7.533  0.3749 -0.6095 -2.0086
  790MOL0     H 6591   2.992  11.000   7.386  2.6264  0.3840 -0.3993
  790MOL0     H 6592   2.941  11.176   7.390 -0.2945  0.0698  0.9418
  790MOL0     H 6593   3.142  11.248   7.304 -1.7903 -0.4677 -0.7053
  790MOL0     H 6594   3.206  11.088   7.291 -0.3614 -0.9127  2.8535
  790MOL0     H 6595   2.967  11.063   7.165 -0.3672 -0.1613 -0.8785
  790MOL0     H 6596   3.008  11.235   7.123 -2.3297 -0.4672  0.5829
  790MOL0     H 6597   3.098  11.145   6.948 -1.4154 -1.9394 -0.8061
  790MOL0     H 6598   3.232  11.163   7.053  0.3407 -0.3837 -0.6246
  790MOL0     H 6599   3.200  10.941   6.913 -1.7901  1.1193 -1.4495
  790MOL0     H 6600   3.072  10.902   7.024 -0.1776  1.7178 -0.1826
  790MOL0     H 6601   3.139  10.786   7.268  2.0154 -0.2258  2.1877
  790MOL0     H 6602   3.269  10.584   7.369 -1.9907  3.3766  0.4990
  790MOL0     H 6603   3.457  10.583   7.354  2.6556  2.5410  2.2007
  790MOL0     H 6604   3.403  10.612   7.578  1.8942  0.6355  1.9298
  790MOL0     H 6605   3.281  10.735   7.541 -1.1732 -2.3194 -2.0185
  790MOL0     H 6606   3.492  10.887   7.461  2.5318 -0.4412  0.0205
  790MOL0     H 6607   3.594  10.753   7.492 -1.2222 -0.5967 -3.5819
  790MOL0     H 6608   3.408  10.902   7.695 -3.3182 -4.3308 -2.2454
  790MOL0     H 6609   3.570  10.958   7.659 -0.3886 -0.1884  0.3956
  790MOL0     H 6610   3.655  10.620   7.945 -1.6631 -0.1428  0.7052
  790MOL0     H 6611   3.725  10.653   8.273 -1.3643 -3.9402 -0.5497
  790MOL0     H 6612   3.769  10.564   8.125 -1.1373  0.8847 -1.7415
  790MOL0     H 6613   3.871  10.694   8.174  1.0176 -1.8335 -1.0188
  790MOL0     H 6614   3.913  11.080   8.344 -1.6839  1.2217 -1.5048
  790MOL0     H 6615   4.035  11.231   8.515  0.5898  2.3822  2.5393
  790MOL0     H 6616   4.116  11.405   8.574  2.0788  0.7759  0.1915
  790MOL0     H 6617   4.022  11.539   8.532  2.0618  0.6486  0.2160
  790MOL0     H 6618   4.109  11.491   8.817 -2.9439 -1.2435 -0.1416
  790MOL0     H 6619   4.205  11.581   8.692  0.4472  2.0292  1.1026
  790MOL0     H 6620   3.927  11.648   8.797  1.6252  1.0432  2.3753
  790MOL0     H 6621   3.998  11.733   8.672 -1.0301  1.1513  2.1910
  790MOL0     H 6622   4.109  11.714   8.942  1.2180 -2.1736 -2.1243
  790MOL0     H 6623   4.180  11.820   8.810 -0.2464  1.1618 -0.6139
  790MOL0     H 6624   3.895  11.859   8.947  1.5534  1.3950  3.1187
  790MOL0     H 6625   3.974  11.957   8.814 -2.1722 -2.4676 -0.9693
  790MOL0     H 6626   3.965  11.976   9.090 -0.7269 -4.2391  0.8056
  790MOL0     H 6627   4.119  11.902   9.072  0.5636 -0.7313 -0.6016
  790MOL0     H 6628   4.047  12.138   8.909 -2.6771 -3.4618  0.9593
  790MOL0     H 6629   4.220  12.108   8.967 -0.2664  0.7460  0.5727
  790MOL0     H 6630   4.197  12.183   9.176  0.2207 -1.5554 -0.4495
  790MOL0     H 6631   4.017  12.157   9.187 -1.3776 -1.0260 -0.4625
  790MOL0     H 6632   3.653  11.414   8.592 -1.5822 -1.1530  0.5780
  790MOL0     H 6633   3.546  11.265   8.425 -0.2805 -2.3438 -0.4213
  790MOL0     H 6634   3.550  11.080   8.083 -3.3578 -1.5814 -0.3045
  790MOL0     H 6635   3.517  11.017   7.868  0.1279 -0.9442  0.1217
  790MOL0     H 6636   3.306  11.324   7.849  0.9337  0.2622  0.8641
  790MOL0     H 6637   3.319  11.416   8.062 -1.6715 -0.5513  4.2788
  790MOL0     H 6638   3.433  11.469   8.435  0.4377  2.0425 -1.3349
  790MOL0     H 6639   3.465  11.619   8.626  0.3735 -1.2818  2.9641
  790MOL0     H 6640   3.108  11.708   8.873 -1.0122  0.7056 -2.4342
  790MOL0     H 6641   3.242  11.774   8.966 -2.9086  2.6748  1.0013
  790MOL0     H 6642   3.110  11.934   8.746 -0.3058 -0.0704  0.6504
  790MOL0     H 6643   3.223  11.997   8.866  0.2468 -0.3834  1.7695
  790MOL0     H 6644   2.936  11.911   8.892  0.0803 -2.0596  2.0428
  790MOL0     H 6645   2.992  12.076   8.916  2.1529  2.5477  1.8930
  790MOL0     H 6646   3.052  11.832   9.094  4.0665  0.0316 -1.4531
  790MOL0     H 6647   2.935  11.958   9.133 -1.1072 -0.5299 -0.8337
  790MOL0     H 6648   3.329  12.115   9.243  0.4478 -1.2802  2.6350
  790MOL0     H 6649   3.034  11.647   8.676  0.6509  2.1467  2.9824
  790MOL0     H 6650   3.009  11.484   8.507  0.3570 -0.9575  0.3158
  791MOL0     O 6651  11.481   0.350   8.324  0.0870 -0.3018 -0.0719
  791MOL0     C 6652  11.366   0.318   8.322 -0.7312  0.5277 -0.6475
  791MOL0     O 6653  11.316   0.193   8.352  0.2213 -0.1808 -0.0334
  791MOL0     C 6654  11.406   0.107   8.401 -0.7306  0.0880  0.4319
  791MOL0     C 6655  11.431   0.111   8.538 -0.3558  1.0059 -0.6928
  791MOL0     C 6656  11.506   0.002   8.589 -0.5102  0.6464 -0.0705
  791MOL0     C 6657  11.551  -0.102   8.506  0.0563  0.2401  0.9251
  791MOL0     O 6658  11.610  -0.218   8.568  0.4939 -0.1945 -0.2266
  791MOL0     C 6659  11.705  -0.293   8.491  0.7379 -0.2703  0.0272
  791MOL0     C 6660  11.809  -0.352   8.575 -0.4669 -0.2820  0.8295
  791MOL0     C 6661  11.891  -0.252   8.659  0.3706  0.2784  1.0221
  791MOL0     C 6662  12.040  -0.296   8.686  0.3865  0.6024  0.4838
  791MOL0     C 6663  12.126  -0.179   8.740 -0.2809  0.4822 -0.1396
  791MOL0     C 6664  12.127  -0.056   8.649  0.6090 -0.4476 -0.6626
  791MOL0     C 6665  12.233   0.041   8.694  1.1419 -0.2684 -0.4270
  791MOL0     C 6666  12.199   0.179   8.636 -0.1611  0.3533  0.5965
  791MOL0     N 6667  12.098   0.261   8.707 -0.1506  0.1825 -0.2385
  791MOL0     C 6668  11.960   0.259   8.675  0.3496 -0.8199  0.2117
  791MOL0     C 6669  11.906   0.341   8.770 -0.9634  0.0787 -0.7468
  791MOL0     C 6670  11.759   0.377   8.775  0.1330 -0.4660  0.5606
  791MOL0     C 6671  11.718   0.459   8.637 -0.5063 -0.4070  0.5020
  791MOL0     C 6672  11.743   0.609   8.659 -0.2723  0.8400 -0.7198
  791MOL0     C 6673  11.720   0.694   8.532  0.3004 -0.4380 -0.4413
  791MOL0     O 6674  11.597   0.765   8.558 -0.1464  0.4191  0.3845
  791MOL0     C 6675  11.587   0.901   8.517  0.1230  0.1832 -0.5380
  791MOL0     C 6676  11.695   0.988   8.474  0.3254 -1.6671 -0.1602
  791MOL0     C 6677  11.658   1.123   8.433  0.1718 -0.6887  0.1415
  791MOL0     C 6678  11.767   1.220   8.408 -0.5514  0.9849 -0.5463
  791MOL0     C 6679  11.523   1.175   8.433 -0.6122  0.1797 -1.1026
  791MOL0     C 6680  11.497   1.306   8.384  0.1803 -0.2163 -0.5340
  791MOL0     O 6681  11.542   1.413   8.445 -1.1634  0.7113 -0.3675
  791MOL0     C 6682  11.499   1.538   8.432 -0.0919 -0.0530 -0.1302
  791MOL0     C 6683  11.584   1.653   8.404 -0.5627 -0.1185  0.4540
  791MOL0     C 6684  11.523   1.777   8.416 -0.4602 -0.4043  1.1854
  791MOL0     C 6685  11.392   1.803   8.434 -0.0306  0.6347 -0.5523
  791MOL0     O 6686  11.362   1.939   8.433 -0.3540 -0.5725 -0.4151
  791MOL0     C 6687  11.223   1.965   8.387  0.2891 -0.5855  0.3847
  791MOL0     C 6688  11.256   2.052   8.263  0.3103  0.0782  0.9848
  791MOL0     C 6689  11.129   2.125   8.225 -0.6824 -0.0377  0.3047
  791MOL0     C 6690  11.156   2.221   8.111  0.2721  1.6187  1.1132
  791MOL0     C 6691  11.027   2.262   8.046  0.5322  0.5086  0.9653
  791MOL0     C 6692  11.058   2.381   7.958  0.0548  0.1370  0.1879
  791MOL0     C 6693  10.936   2.408   7.872  0.1662 -0.1456 -0.3602
  791MOL0     C 6694  10.964   2.475   7.741  0.1515 -0.1407 -0.4625
  791MOL0    Cl 6695  10.928   2.650   7.757 -0.2621  0.1120  0.4075
  791MOL0     C 6696  11.304   1.701   8.451  0.5067  0.1534 -0.6256
  791MOL0     C 6697  11.360   1.567   8.454  0.5072 -0.4056  0.1403
  791MOL0     O 6698  11.404   1.306   8.305 -0.5217 -0.1268  0.3912
  791MOL0     C 6699  11.419   1.085   8.473  0.1302  0.2991  0.1327
  791MOL0     C 6700  11.452   0.953   8.517 -1.0129 -0.0112  1.1458
  791MOL0     N 6701  12.012   0.385   8.853 -0.0864 -0.7972 -0.1218
  791MOL0     N 6702  12.128   0.344   8.813  0.3065 -0.3467 -1.8690
  791MOL0     C 6703  11.541  -0.091   8.365  0.4163  0.1821  0.3865
  791MOL0     C 6704  11.458   0.011   8.317  0.0344 -0.0089 -0.5759
  791MOL0     C 6705  11.265   0.429   8.294 -0.6806 -0.4130  1.3986
  791MOL0     C 6706  11.287   0.567   8.295 -1.0087  1.5201 -0.4475
  791MOL0     C 6707  11.179   0.658   8.258 -0.5024  0.2262  0.3669
  791MOL0     C 6708  11.058   0.607   8.214  0.6238 -0.9774  0.2867
  791MOL0     O 6709  10.968   0.707   8.166  0.0342  0.1978  0.3689
  791MOL0     C 6710  10.880   0.655   8.064 -0.3010 -0.5240  0.0101
  791MOL0     C 6711  10.791   0.772   8.026 -0.4018  0.6120  0.7621
  791MOL0     C 6712  10.695   0.714   7.921  0.0250  0.2138  0.4154
  791MOL0     C 6713  10.594   0.823   7.869  0.9235  0.1664  0.9516
  791MOL0     C 6714  10.630   0.961   7.855  0.2804  0.6691  0.6405
  791MOL0     C 6715  10.681   1.078   7.854  0.1652  0.2238 -1.4555
  791MOL0     C 6716  11.035   0.470   8.211  0.8180  0.5606  0.5456
  791MOL0     C 6717  11.136   0.388   8.263  0.4908  0.3014  1.1156
  791MOL0     H 6718  11.397   0.190   8.604 -2.0707 -0.8063  0.7299
  791MOL0     H 6719  11.542  -0.014   8.690  1.1492  0.5465 -0.6301
  791MOL0     H 6720  11.666  -0.381   8.439  0.3921 -2.3333  3.5245
  791MOL0     H 6721  11.754  -0.223   8.422  1.4081 -2.2808 -1.6399
  791MOL0     H 6722  11.766  -0.424   8.645 -3.3584 -0.0071 -0.5368
  791MOL0     H 6723  11.876  -0.406   8.507 -1.7913 -1.8950  0.7607
  791MOL0     H 6724  11.890  -0.151   8.616  1.5348  1.1875  2.9676
  791MOL0     H 6725  11.834  -0.247   8.752  2.3273 -4.3529  2.7914
  791MOL0     H 6726  12.046  -0.384   8.750 -0.2841 -1.8717 -2.6148
  791MOL0     H 6727  12.083  -0.330   8.592  0.6186 -3.4538  1.8822
  791MOL0     H 6728  12.101  -0.155   8.843  0.9681 -1.6654  0.7355
  791MOL0     H 6729  12.232  -0.206   8.749  0.1935  2.3761  0.3438
  791MOL0     H 6730  12.132  -0.092   8.546  1.0298 -0.1695 -0.7433
  791MOL0     H 6731  12.033  -0.001   8.654  0.6239 -0.5084  0.5349
  791MOL0     H 6732  12.227   0.038   8.803  2.4534  1.0727 -0.2824
  791MOL0     H 6733  12.336   0.026   8.664  0.8757  0.4965 -1.7894
  791MOL0     H 6734  12.159   0.162   8.535 -0.0169 -3.2701  0.9908
  791MOL0     H 6735  12.297   0.227   8.640  1.5935 -2.2006 -3.9135
  791MOL0     H 6736  11.910   0.205   8.596 -0.2108 -0.6986  0.4793
  791MOL0     H 6737  11.706   0.281   8.774  0.6172 -0.7652 -1.4428
  791MOL0     H 6738  11.737   0.429   8.868 -4.3741 -1.3600  0.2562
  791MOL0     H 6739  11.613   0.451   8.608 -2.0353 -3.3875  5.5560
  791MOL0     H 6740  11.777   0.419   8.554 -0.3734  1.6238 -0.4476
  791MOL0     H 6741  11.850   0.620   8.678  0.0885 -2.1490 -0.4823
  791MOL0     H 6742  11.684   0.643   8.744  2.2596  2.8951  0.3565
  791MOL0     H 6743  11.705   0.628   8.446 -0.7499  1.9058 -2.1494
  791MOL0     H 6744  11.798   0.769   8.516 -1.5745  1.5296 -0.8329
  791MOL0     H 6745  11.801   0.965   8.474  0.5175 -1.1638  2.8518
  791MOL0     H 6746  11.755   1.307   8.473 -2.0742  0.8895 -0.6798
  791MOL0     H 6747  11.868   1.176   8.412 -1.2180 -0.5141  1.6718
  791MOL0     H 6748  11.758   1.259   8.307 -0.8562 -1.5318 -1.5736
  791MOL0     H 6749  11.690   1.637   8.390 -0.2824  0.2950  1.9709
  791MOL0     H 6750  11.596   1.855   8.397  0.5170 -1.4629  0.4637
  791MOL0     H 6751  11.176   1.875   8.345 -0.3621  0.0363 -0.2574
  791MOL0     H 6752  11.167   2.003   8.472  0.4074  1.9088 -0.5686
  791MOL0     H 6753  11.335   2.124   8.289 -1.3765  2.6731 -0.6006
  791MOL0     H 6754  11.290   1.985   8.184  2.3381 -0.0571  1.9199
  791MOL0     H 6755  11.079   2.180   8.305 -0.6510  2.8788 -1.5051
  791MOL0     H 6756  11.060   2.051   8.183  0.5482 -2.5151  2.3846
  791MOL0     H 6757  11.212   2.312   8.138  0.5005  1.7738  0.1297
  791MOL0     H 6758  11.217   2.162   8.043 -1.9832 -0.2762  0.6279
  791MOL0     H 6759  10.959   2.286   8.128 -0.9086 -0.1909  0.0186
  791MOL0     H 6760  10.971   2.178   8.006  0.4181  0.7002  0.7111
  791MOL0     H 6761  11.086   2.463   8.025  4.0686 -0.1811 -0.8143
  791MOL0     H 6762  11.140   2.361   7.888  0.4482 -0.2098  0.7275
  791MOL0     H 6763  10.861   2.466   7.928 -1.8813 -3.5338  0.7682
  791MOL0     H 6764  10.891   2.309   7.858 -0.3926  0.1496 -0.7004
  791MOL0     H 6765  10.902   2.431   7.663 -0.3110  2.2787 -1.5550
  791MOL0     H 6766  11.068   2.455   7.712  0.3661 -1.5558  1.0822
  791MOL0     H 6767  11.198   1.705   8.475 -0.5121 -1.9161 -4.0434
  791MOL0     H 6768  11.284   1.494   8.481  0.3784  0.3094  1.8525
  791MOL0     H 6769  11.315   1.115   8.477  0.3260  0.8425  1.5566
  791MOL0     H 6770  11.370   0.895   8.559 -0.5357  0.5556  2.9119
  791MOL0     H 6771  11.576  -0.173   8.302  0.8429 -0.0149  0.8760
  791MOL0     H 6772  11.440   0.023   8.211  1.0559  1.5845 -0.5901
  791MOL0     H 6773  11.379   0.606   8.336 -1.8898  0.3541  3.0080
  791MOL0     H 6774  11.187   0.766   8.250 -0.1097  0.3897  2.5745
  791MOL0     H 6775  10.946   0.629   7.981  1.3723  1.0928  0.7797
  791MOL0     H 6776  10.818   0.570   8.095  2.1580 -2.0484  0.9937
  791MOL0     H 6777  10.853   0.853   7.988 -0.2791  1.8607  3.4247
  791MOL0     H 6778  10.720   0.798   8.104 -0.8622  0.7633  0.2973
  791MOL0     H 6779  10.650   0.626   7.968  0.7027  1.3326  3.3615
  791MOL0     H 6780  10.749   0.689   7.829 -2.2915  0.6693 -1.1687
  791MOL0     H 6781  10.508   0.835   7.936 -2.1281  0.9779 -2.7679
  791MOL0     H 6782  10.548   0.789   7.776 -0.2929  1.4087  1.0591
  791MOL0     H 6783  10.729   1.173   7.854  1.4552 -0.4000 -2.5101
  791MOL0     H 6784  10.938   0.429   8.186 -0.0992  2.2276  1.2184
  791MOL0     H 6785  11.101   0.286   8.255  0.7852  0.0715  2.4537
  792MOL0     O 6786   7.235  10.258   2.656  0.2921  0.4503 -0.0483
  792MOL0     C 6787   7.155  10.284   2.750  0.0110  0.3712 -0.0966
  792MOL0     O 6788   7.016  10.303   2.745 -0.1448 -0.0142 -0.2193
  792MOL0     C 6789   6.957  10.288   2.625  0.2810  0.1163 -0.4452
  792MOL0     C 6790   6.866  10.183   2.621  0.5393  0.1395  0.2586
  792MOL0     C 6791   6.775  10.170   2.509  0.2618  0.6651 -1.0330
  792MOL0     C 6792   6.810  10.240   2.398  0.2589 -1.1954 -0.2411
  792MOL0     O 6793   6.747  10.200   2.285  0.2210  0.7042  0.3131
  792MOL0     C 6794   6.750  10.276   2.166 -0.0636 -0.6084 -1.4582
  792MOL0     C 6795   6.662  10.220   2.062  0.2454  0.1642  0.3142
  792MOL0     C 6796   6.696  10.274   1.923 -0.8692  0.6548 -0.0755
  792MOL0     C 6797   6.588  10.244   1.822  1.4967  0.2248 -0.1241
  792MOL0     C 6798   6.640  10.262   1.680  0.0116 -0.4896  1.0469
  792MOL0     C 6799   6.531  10.250   1.567 -0.2223  0.6578 -0.3005
  792MOL0     C 6800   6.582  10.272   1.426  0.0926 -0.4709  0.7237
  792MOL0     C 6801   6.478  10.283   1.310  0.1204  0.3467 -1.0712
  792MOL0     N 6802   6.534  10.352   1.194  0.0230  0.6015  0.3235
  792MOL0     C 6803   6.580  10.288   1.080 -0.1696 -0.4445  0.7466
  792MOL0     C 6804   6.611  10.389   0.999  0.1323  0.0418 -0.6936
  792MOL0     C 6805   6.674  10.384   0.860 -0.1791 -0.0500  0.0529
  792MOL0     C 6806   6.559  10.381   0.753  0.1695  0.0004 -0.3682
  792MOL0     C 6807   6.450  10.488   0.758 -0.8048 -0.4005 -0.5149
  792MOL0     C 6808   6.498  10.617   0.700 -0.1411  0.2412  0.5854
  792MOL0     O 6809   6.401  10.716   0.676 -0.0114 -0.1773 -0.6701
  792MOL0     C 6810   6.359  10.808   0.765  0.8039  0.6444  1.0977
  792MOL0     C 6811   6.289  10.916   0.708 -0.3301  0.1685 -0.5471
  792MOL0     C 6812   6.245  11.023   0.796 -0.3077  0.2623 -0.3334
  792MOL0     C 6813   6.165  11.139   0.733  0.1315  0.3782  0.8614
  792MOL0     C 6814   6.276  11.014   0.935  0.8528 -0.2226  1.0128
  792MOL0     C 6815   6.235  11.120   1.030 -0.6388  0.6196  0.7187
  792MOL0     O 6816   6.312  11.223   1.029  0.1236  0.1690 -0.1937
  792MOL0     C 6817   6.295  11.333   1.107 -1.2840  0.2488 -0.8936
  792MOL0     C 6818   6.412  11.401   1.145  0.1421  0.9676  0.1909
  792MOL0     C 6819   6.412  11.509   1.227 -0.5224 -1.4098 -0.2555
  792MOL0     C 6820   6.293  11.557   1.275  0.3171 -0.1339  1.0134
  792MOL0     O 6821   6.292  11.665   1.361  0.1487 -0.2541 -0.2084
  792MOL0     C 6822   6.170  11.740   1.393 -0.2198 -0.2322  0.9170
  792MOL0     C 6823   6.196  11.859   1.480  0.4660 -0.0578 -0.6524
  792MOL0     C 6824   6.289  11.953   1.409 -0.4187  0.0252 -0.0435
  792MOL0     C 6825   6.313  12.078   1.476  1.0685 -0.2529 -0.0274
  792MOL0     C 6826   6.400  12.058   1.592 -0.8124 -1.0239 -0.7966
  792MOL0     C 6827   6.469  12.194   1.622 -0.0480  0.4084  0.0673
  792MOL0     C 6828   6.528  12.189   1.762  0.9311 -0.1283 -0.7364
  792MOL0     C 6829   6.565  12.336   1.805  0.5791  0.0793  0.3488
  792MOL0    Cl 6830   6.610  12.351   1.983  0.2768  0.6371  0.2692
  792MOL0     C 6831   6.174  11.483   1.251 -0.0063 -0.6604 -0.4400
  792MOL0     C 6832   6.176  11.376   1.164  0.3320  0.4593 -0.1233
  792MOL0     O 6833   6.143  11.095   1.108 -0.2377 -0.5866  0.3783
  792MOL0     C 6834   6.334  10.900   0.990 -0.3561 -0.4022 -0.2568
  792MOL0     C 6835   6.369  10.792   0.910 -0.8671  0.1229  0.0196
  792MOL0     N 6836   6.592  10.514   1.069 -0.1085  0.1928 -0.6575
  792MOL0     N 6837   6.536  10.483   1.187 -0.1030  0.4188 -0.3795
  792MOL0     C 6838   6.902  10.342   2.397  0.0221 -0.5906 -0.1793
  792MOL0     C 6839   6.977  10.368   2.517 -0.6474  0.5085  0.1695
  792MOL0     C 6840   7.211  10.306   2.884 -0.5642  0.3330 -0.4244
  792MOL0     C 6841   7.137  10.309   2.998 -0.7135 -0.0932 -0.0559
  792MOL0     C 6842   7.200  10.324   3.130 -0.1613 -0.4863  0.8222
  792MOL0     C 6843   7.336  10.345   3.139  0.3692 -1.2250  0.2229
  792MOL0     O 6844   7.389  10.356   3.264 -0.3132  0.5924  0.2034
  792MOL0     C 6845   7.526  10.353   3.283  0.3316  0.0702 -0.3127
  792MOL0     C 6846   7.590  10.492   3.310 -0.5567  0.1447 -0.1547
  792MOL0     C 6847   7.545  10.615   3.227 -0.1996 -0.4642 -0.1314
  792MOL0     C 6848   7.642  10.729   3.250 -0.2393 -0.8231  0.1558
  792MOL0     C 6849   7.749  10.708   3.152 -0.9646  0.7144 -0.6386
  792MOL0     C 6850   7.855  10.684   3.095 -0.0912  0.4247  0.5916
  792MOL0     C 6851   7.407  10.344   3.018 -0.2367 -0.0908 -0.5646
  792MOL0     C 6852   7.354  10.316   2.899 -1.2221  0.1796 -0.1958
  792MOL0     H 6853   6.848  10.124   2.711  1.5273 -1.7595 -0.7178
  792MOL0     H 6854   6.702  10.089   2.502 -0.3452  1.1714 -0.6880
  792MOL0     H 6855   6.711  10.378   2.179  0.3975 -0.8104  2.8505
  792MOL0     H 6856   6.851  10.275   2.125  0.3804  0.4323 -0.4596
  792MOL0     H 6857   6.674  10.111   2.065 -0.6847  0.0755  1.6033
  792MOL0     H 6858   6.555  10.234   2.077 -0.2677  0.7969 -3.1374
  792MOL0     H 6859   6.699  10.384   1.928 -2.0571  0.7262 -0.5359
  792MOL0     H 6860   6.797  10.241   1.900 -1.0771  0.1182 -0.2201
  792MOL0     H 6861   6.556  10.141   1.841 -2.6269  1.7034  2.3803
  792MOL0     H 6862   6.500  10.307   1.840  1.1598 -0.8904  2.6544
  792MOL0     H 6863   6.696  10.356   1.671 -2.5002  1.1012  1.1042
  792MOL0     H 6864   6.711  10.180   1.669  3.0333  2.1261 -0.6919
  792MOL0     H 6865   6.486  10.150   1.561 -0.4358  0.2112  4.6414
  792MOL0     H 6866   6.466  10.332   1.596  0.6030  0.4294  2.5610
  792MOL0     H 6867   6.640  10.365   1.430 -0.4672  0.0886 -2.0926
  792MOL0     H 6868   6.656  10.197   1.399  1.6177  1.4330 -0.6610
  792MOL0     H 6869   6.399  10.356   1.330 -0.8370  0.2214 -3.8979
  792MOL0     H 6870   6.427  10.187   1.293 -0.3513  0.4336 -0.2232
  792MOL0     H 6871   6.573  10.180   1.069 -0.7075 -0.2428 -1.3767
  792MOL0     H 6872   6.742  10.470   0.855  0.1911 -0.0579  3.0002
  792MOL0     H 6873   6.733  10.292   0.857 -0.4038 -0.2023  0.2756
  792MOL0     H 6874   6.520  10.280   0.767  2.3687 -0.5739  2.8833
  792MOL0     H 6875   6.593  10.383   0.649  0.0653 -0.9457 -0.4295
  792MOL0     H 6876   6.423  10.512   0.861  1.7736  0.9156 -0.0788
  792MOL0     H 6877   6.360  10.465   0.700  0.5117  0.5785 -3.0843
  792MOL0     H 6878   6.548  10.594   0.606 -0.7040 -0.1262  0.3713
  792MOL0     H 6879   6.576  10.668   0.757  4.0011 -0.5612 -3.7733
  792MOL0     H 6880   6.288  10.934   0.601 -2.9465  1.1024 -0.4344
  792MOL0     H 6881   6.199  11.150   0.629 -0.0415  0.0422  0.7677
  792MOL0     H 6882   6.063  11.101   0.737  1.3468 -3.4193  0.3451
  792MOL0     H 6883   6.172  11.232   0.790 -2.6366  2.9343 -2.5649
  792MOL0     H 6884   6.501  11.361   1.100  1.1608  1.9098  1.2828
  792MOL0     H 6885   6.504  11.559   1.254 -1.0651 -1.4339  1.8249
  792MOL0     H 6886   6.125  11.758   1.295  1.9530 -0.6916 -0.2285
  792MOL0     H 6887   6.102  11.686   1.459  0.2595  1.9480  3.3363
  792MOL0     H 6888   6.102  11.908   1.507  0.4504 -1.0606  1.2586
  792MOL0     H 6889   6.231  11.831   1.579 -0.6166  2.8756  0.6845
  792MOL0     H 6890   6.239  11.978   1.314  3.4694  2.5593 -1.6871
  792MOL0     H 6891   6.383  11.908   1.377 -1.9145 -0.8575 -3.8596
  792MOL0     H 6892   6.365  12.141   1.402  1.4954  1.1674  1.4227
  792MOL0     H 6893   6.212  12.112   1.502  0.1995 -2.9559  0.4357
  792MOL0     H 6894   6.475  11.980   1.576 -2.4655 -2.1928 -3.5307
  792MOL0     H 6895   6.340  12.014   1.673 -1.5396  1.0577 -0.1198
  792MOL0     H 6896   6.545  12.217   1.547 -1.1497  0.4713 -1.0628
  792MOL0     H 6897   6.396  12.275   1.632  0.3599  0.8170 -0.2088
  792MOL0     H 6898   6.625  12.139   1.756  2.6906  2.8952  0.3019
  792MOL0     H 6899   6.455  12.151   1.834  2.0942 -0.0259  0.5390
  792MOL0     H 6900   6.481  12.405   1.792 -0.4225 -0.6354  2.5059
  792MOL0     H 6901   6.638  12.377   1.735  3.1838 -1.3269  2.0745
  792MOL0     H 6902   6.078  11.504   1.298  0.4412  1.3254 -0.3176
  792MOL0     H 6903   6.080  11.327   1.148 -0.2191  1.7473 -0.9126
  792MOL0     H 6904   6.335  10.906   1.098  1.9960  4.6830 -0.2659
  792MOL0     H 6905   6.425  10.711   0.956  2.6044  0.0939 -3.6578
  792MOL0     H 6906   6.918  10.409   2.313 -2.2981 -2.8788 -2.6617
  792MOL0     H 6907   7.052  10.446   2.514 -0.4389  0.2989 -2.5448
  792MOL0     H 6908   7.029  10.293   2.995 -0.8764  0.3767  1.6765
  792MOL0     H 6909   7.138  10.330   3.219  1.8911  2.7704  2.2044
  792MOL0     H 6910   7.548  10.288   3.368 -0.9223 -1.4207 -1.0798
  792MOL0     H 6911   7.578  10.294   3.208  0.6346 -0.5858  0.4019
  792MOL0     H 6912   7.698  10.475   3.298 -1.2320 -3.8347 -2.6157
  792MOL0     H 6913   7.568  10.517   3.414  0.8353  1.8152 -0.2268
  792MOL0     H 6914   7.442  10.634   3.259 -1.1424 -1.0369 -2.5940
  792MOL0     H 6915   7.541  10.595   3.119  2.8147 -0.1094 -0.3850
  792MOL0     H 6916   7.675  10.743   3.353  0.0858 -2.4737  0.3009
  792MOL0     H 6917   7.580  10.814   3.220 -1.0372 -0.9984  1.2446
  792MOL0     H 6918   7.946  10.651   3.050 -0.3558  2.0854 -1.2747
  792MOL0     H 6919   7.512  10.370   3.026 -0.6302  1.5485 -0.4860
  792MOL0     H 6920   7.423  10.305   2.816 -1.4897  1.9218 -0.6891
  793MOL0     O 6921   5.789  11.258   4.775  0.2513  0.5950  0.3146
  793MOL0     C 6922   5.708  11.235   4.685 -0.4639 -0.5291 -0.7745
  793MOL0     O 6923   5.609  11.146   4.708  0.1180 -0.0134 -0.4035
  793MOL0     C 6924   5.598  11.094   4.834 -0.2373 -0.9200 -0.3020
  793MOL0     C 6925   5.687  11.002   4.886 -0.5062 -0.1753 -0.2998
  793MOL0     C 6926   5.676  10.955   5.021 -0.0635  0.6408 -0.0729
  793MOL0     C 6927   5.577  10.995   5.102 -1.3385 -0.2718 -0.4093
  793MOL0     O 6928   5.559  10.953   5.233 -0.0150 -0.2923  0.6833
  793MOL0     C 6929   5.569  10.812   5.264  0.3855 -0.6607 -0.9252
  793MOL0     C 6930   5.432  10.743   5.236 -0.1586  0.4194 -1.6319
  793MOL0     C 6931   5.434  10.599   5.263  0.4849  0.9658 -0.9354
  793MOL0     C 6932   5.492  10.566   5.404 -0.1002 -0.2833  0.0295
  793MOL0     C 6933   5.389  10.607   5.509  0.3606 -0.5481 -0.1933
  793MOL0     C 6934   5.406  10.549   5.646  1.2158 -0.3346 -0.9534
  793MOL0     C 6935   5.296  10.596   5.747 -0.0617 -0.3324 -0.3280
  793MOL0     C 6936   5.157  10.556   5.711  0.8202  0.1615 -0.5707
  793MOL0     N 6937   5.142  10.414   5.699 -0.2884 -0.7747 -0.7794
  793MOL0     C 6938   5.157  10.319   5.807  0.5602 -0.4344  0.6034
  793MOL0     C 6939   5.109  10.201   5.758 -1.0224 -0.5482  0.3449
  793MOL0     C 6940   5.124  10.072   5.819 -0.1794  1.3882 -0.3827
  793MOL0     C 6941   5.006  10.024   5.911  0.1023  0.7950 -0.1489
  793MOL0     C 6942   5.004  10.076   6.059  0.0306  0.4074  0.6041
  793MOL0     C 6943   5.134  10.060   6.153  0.7595  0.2876 -0.2923
  793MOL0     O 6944   5.179   9.927   6.146 -0.4870 -0.3399  0.5282
  793MOL0     C 6945   5.242   9.894   6.257  0.0075 -0.0390  0.4678
  793MOL0     C 6946   5.368   9.942   6.280 -0.1703 -0.9528  1.0878
  793MOL0     C 6947   5.440   9.901   6.394  0.2391 -0.6633 -0.1616
  793MOL0     C 6948   5.584   9.936   6.406 -0.2037 -0.1839  0.8796
  793MOL0     C 6949   5.371   9.808   6.491 -0.1628  0.4807 -0.7666
  793MOL0     C 6950   5.433   9.736   6.593 -0.3830  0.2641 -0.5763
  793MOL0     O 6951   5.444   9.774   6.724  0.4153 -0.9696 -0.0622
  793MOL0     C 6952   5.508   9.701   6.818 -0.2816  0.0096  0.7212
  793MOL0     C 6953   5.643   9.712   6.838  1.1775  0.6985 -0.0647
  793MOL0     C 6954   5.695   9.619   6.935  0.0248  0.2652  0.7912
  793MOL0     C 6955   5.617   9.517   7.003  1.0819 -0.1542  0.5862
  793MOL0     O 6956   5.659   9.432   7.103 -0.4321  0.7385 -0.8323
  793MOL0     C 6957   5.802   9.444   7.140  0.0274  0.1921 -0.4317
  793MOL0     C 6958   5.815   9.572   7.238 -0.4275 -0.1409 -0.6284
  793MOL0     C 6959   5.960   9.617   7.286 -1.1577  0.1642 -0.3576
  793MOL0     C 6960   5.956   9.756   7.351 -0.1749 -0.4852  0.2839
  793MOL0     C 6961   6.091   9.806   7.392  0.3701  0.8603 -0.1669
  793MOL0     C 6962   6.086   9.944   7.450 -0.1103  0.6250  0.5913
  793MOL0     C 6963   6.079   9.943   7.604  0.0393  0.2927  0.0125
  793MOL0     C 6964   6.051  10.084   7.656  0.0298 -0.1028 -0.3876
  793MOL0    Cl 6965   6.141  10.086   7.800  0.3339 -0.4016 -0.0052
  793MOL0     C 6966   5.475   9.501   6.977 -0.7053  0.1182  0.2200
  793MOL0     C 6967   5.428   9.602   6.888 -0.1024 -0.6704  0.2722
  793MOL0     O 6968   5.491   9.636   6.548  0.2901 -0.4815  0.3428
  793MOL0     C 6969   5.238   9.775   6.466  1.2585  0.8927  0.1930
  793MOL0     C 6970   5.175   9.807   6.343 -0.1726  0.4975 -0.7264
  793MOL0     N 6971   5.068  10.219   5.631  0.5454  0.0353  0.1943
  793MOL0     N 6972   5.082  10.350   5.597 -0.2369 -0.1948  0.3993
  793MOL0     C 6973   5.484  11.086   5.048  0.3420 -0.1540  0.2221
  793MOL0     C 6974   5.492  11.135   4.914  0.0070 -0.3975  0.6457
  793MOL0     C 6975   5.711  11.294   4.547 -0.7746 -0.1855 -0.7375
  793MOL0     C 6976   5.597  11.314   4.469 -0.2786 -0.1668 -0.3672
  793MOL0     C 6977   5.610  11.380   4.347  0.1398 -0.7701  0.0153
  793MOL0     C 6978   5.730  11.396   4.283 -0.5456  0.1354  1.1410
  793MOL0     O 6979   5.720  11.470   4.167 -0.0192 -0.0609  0.2493
  793MOL0     C 6980   5.840  11.520   4.097  0.4052  0.0667 -0.3808
  793MOL0     C 6981   5.888  11.405   4.006 -0.1801 -0.2955  0.3594
  793MOL0     C 6982   5.786  11.383   3.903 -0.3813  0.4579  0.2072
  793MOL0     C 6983   5.829  11.284   3.788  0.7563 -0.1484 -0.9346
  793MOL0     C 6984   5.729  11.258   3.687  0.5435  0.2790 -0.3580
  793MOL0     C 6985   5.658  11.228   3.591  0.2124 -0.8528 -0.4241
  793MOL0     C 6986   5.847  11.348   4.354 -0.8872  0.2838  0.4683
  793MOL0     C 6987   5.838  11.304   4.480 -0.8435  0.7400 -1.6289
  793MOL0     H 6988   5.765  10.963   4.822  0.2035 -0.2833  0.6101
  793MOL0     H 6989   5.756  10.891   5.058 -1.8226 -1.6320 -0.0314
  793MOL0     H 6990   5.642  10.764   5.198  0.4339  1.1269 -2.2621
  793MOL0     H 6991   5.612  10.808   5.364 -2.9877  0.6974  0.7411
  793MOL0     H 6992   5.355  10.782   5.303  0.8373 -1.0877  0.4768
  793MOL0     H 6993   5.413  10.778   5.134 -0.2034  1.3329 -1.3249
  793MOL0     H 6994   5.330  10.565   5.256  0.0403  1.4767  1.9376
  793MOL0     H 6995   5.485  10.537   5.188 -3.0464 -2.1484 -1.0314
  793MOL0     H 6996   5.510  10.459   5.417 -2.1977 -0.5202  1.6368
  793MOL0     H 6997   5.589  10.611   5.425  0.5905 -1.6578 -0.0805
  793MOL0     H 6998   5.388  10.715   5.526 -1.1375 -0.5501 -0.1640
  793MOL0     H 6999   5.293  10.577   5.467  1.8735 -1.0104 -3.6107
  793MOL0     H 7000   5.394  10.442   5.626 -2.5991  0.3737 -3.4557
  793MOL0     H 7001   5.503  10.564   5.694  0.2384  2.5655  0.3207
  793MOL0     H 7002   5.314  10.550   5.844  2.6531 -3.9570 -2.3012
  793MOL0     H 7003   5.292  10.705   5.762 -0.8116 -0.5128  0.9507
  793MOL0     H 7004   5.103  10.592   5.623 -0.7122 -1.3086 -0.2795
  793MOL0     H 7005   5.095  10.588   5.795  2.7914  1.5147  0.4336
  793MOL0     H 7006   5.204  10.338   5.903  0.2947  1.9475  0.3239
  793MOL0     H 7007   5.126  10.004   5.734  0.1936 -1.5246  1.8067
  793MOL0     H 7008   5.215  10.054   5.875  1.9080  0.8465 -3.6770
  793MOL0     H 7009   5.000   9.915   5.917 -0.6305  0.7455 -1.4809
  793MOL0     H 7010   4.918  10.058   5.856 -1.4143 -0.9899  1.0659
  793MOL0     H 7011   4.916  10.027   6.102 -0.5959 -0.4492 -1.4938
  793MOL0     H 7012   4.973  10.181   6.054 -2.2880 -0.2700 -1.0241
  793MOL0     H 7013   5.116  10.078   6.260  3.1380  2.2893 -0.1438
  793MOL0     H 7014   5.201  10.140   6.121 -0.1944  0.3634 -2.2027
  793MOL0     H 7015   5.400  10.006   6.199 -0.5609 -0.2079  1.5133
  793MOL0     H 7016   5.613   9.903   6.506 -2.1224  2.8770  2.6306
  793MOL0     H 7017   5.646   9.896   6.325 -0.5866 -0.2626  0.6212
  793MOL0     H 7018   5.609  10.042   6.416 -0.3764 -0.0509 -0.0127
  793MOL0     H 7019   5.697   9.781   6.775 -1.9702  4.4232  0.9189
  793MOL0     H 7020   5.799   9.638   6.957 -0.0323  2.7603 -0.6940
  793MOL0     H 7021   5.843   9.358   7.194  0.3253  0.5201 -0.1305
  793MOL0     H 7022   5.857   9.455   7.046  1.8251 -0.3903  0.5044
  793MOL0     H 7023   5.771   9.660   7.190  0.1342 -0.1815 -1.2377
  793MOL0     H 7024   5.754   9.561   7.328 -0.7237  0.1069 -0.7983
  793MOL0     H 7025   6.018   9.619   7.193 -0.4464 -0.2843  0.0618
  793MOL0     H 7026   6.007   9.538   7.346 -0.1092  1.0722  0.0713
  793MOL0     H 7027   5.903   9.823   7.282 -0.8081 -3.1223 -2.0086
  793MOL0     H 7028   5.892   9.756   7.440  0.7257 -0.5614  0.9469
  793MOL0     H 7029   6.159   9.805   7.307  4.0035 -0.7538  2.4901
  793MOL0     H 7030   6.128   9.731   7.462 -0.0622 -0.3105 -1.1542
  793MOL0     H 7031   6.175   9.996   7.413 -1.6689  2.2442 -1.1065
  793MOL0     H 7032   6.008  10.003   7.402  1.2249  2.5762  0.6945
  793MOL0     H 7033   6.176   9.907   7.639  1.8247  3.0649 -1.7152
  793MOL0     H 7034   6.000   9.873   7.631  1.7647 -2.0063 -0.6135
  793MOL0     H 7035   5.946  10.099   7.680 -0.0090 -3.5825  2.4650
  793MOL0     H 7036   6.093  10.163   7.593  3.2203 -0.9149  0.5289
  793MOL0     H 7037   5.405   9.432   7.024 -0.9061  0.3650  0.2788
  793MOL0     H 7038   5.321   9.609   6.871 -0.0280 -2.1918 -1.0549
  793MOL0     H 7039   5.180   9.715   6.535  0.5519 -1.9874 -2.6216
  793MOL0     H 7040   5.071   9.775   6.336 -1.2752  3.0332  1.9930
  793MOL0     H 7041   5.394  11.116   5.100  0.3687  1.6809 -0.7037
  793MOL0     H 7042   5.409  11.194   4.876  0.2018 -0.2654  0.4226
  793MOL0     H 7043   5.498  11.295   4.511 -1.1416  2.1840 -1.1687
  793MOL0     H 7044   5.519  11.427   4.313 -1.4506 -1.4284  2.9776
  793MOL0     H 7045   5.822  11.619   4.055  0.4754  0.8382  1.3055
  793MOL0     H 7046   5.916  11.543   4.173 -1.3345  0.8291  1.2138
  793MOL0     H 7047   5.892  11.307   4.054 -0.6747 -0.7406 -0.4940
  793MOL0     H 7048   5.983  11.423   3.954  0.6363 -0.4493  1.7335
  793MOL0     H 7049   5.762  11.480   3.858 -4.1716  0.0041  0.9423
  793MOL0     H 7050   5.693  11.340   3.941  0.7132 -2.8447 -0.4834
  793MOL0     H 7051   5.866  11.188   3.827 -3.1398 -0.3380  2.9708
  793MOL0     H 7052   5.917  11.322   3.734  3.5636 -1.7045  2.1209
  793MOL0     H 7053   5.611  11.201   3.499 -0.0776  2.9830 -1.5920
  793MOL0     H 7054   5.937  11.357   4.294 -1.7993  1.7411 -0.7531
  793MOL0     H 7055   5.916  11.261   4.543 -1.9785  1.5064  0.4012
  794MOL0     O 7056   5.820   1.605   5.750  0.2102 -0.2256  0.1042
  794MOL0     C 7057   5.743   1.587   5.654 -0.2497  0.4911  0.5119
  794MOL0     O 7058   5.773   1.517   5.538  0.0661 -0.5232  0.0770
  794MOL0     C 7059   5.865   1.417   5.540 -0.3507 -0.1827 -0.6347
  794MOL0     C 7060   5.998   1.428   5.583 -0.3887 -0.6964  0.9064
  794MOL0     C 7061   6.087   1.316   5.578  0.2687  0.7238  0.3719
  794MOL0     C 7062   6.037   1.200   5.507 -1.3095 -0.3468  0.4589
  794MOL0     O 7063   6.114   1.089   5.478 -0.5369  0.2765 -0.5948
  794MOL0     C 7064   6.189   1.043   5.594  0.4627  0.9933 -0.6507
  794MOL0     C 7065   6.249   0.903   5.564 -0.4352  0.7180 -0.1233
  794MOL0     C 7066   6.333   0.852   5.687  1.7528  0.0922  0.1992
  794MOL0     C 7067   6.460   0.927   5.713  1.3991 -1.0377 -0.0162
  794MOL0     C 7068   6.557   0.860   5.807  0.7203  0.1924 -0.0783
  794MOL0     C 7069   6.494   0.772   5.925  1.2331 -0.3823 -0.4727
  794MOL0     C 7070   6.589   0.742   6.043 -1.1835  0.3237 -0.1452
  794MOL0     C 7071   6.544   0.607   6.099 -0.3772  0.5261  0.1482
  794MOL0     N 7072   6.613   0.566   6.224  0.0538  0.8286  1.3987
  794MOL0     C 7073   6.709   0.467   6.240 -0.0933 -0.5950 -0.4058
  794MOL0     C 7074   6.755   0.456   6.365 -0.6744  0.4406 -0.7136
  794MOL0     C 7075   6.853   0.350   6.416  0.0639 -0.5811  0.5624
  794MOL0     C 7076   6.995   0.400   6.451  0.7508 -0.6754 -0.2483
  794MOL0     C 7077   7.060   0.294   6.536 -0.7086  0.7888 -0.7989
  794MOL0     C 7078   7.201   0.344   6.595  0.3425  0.2616  1.4996
  794MOL0     O 7079   7.304   0.373   6.493 -0.3660 -0.3077 -0.2080
  794MOL0     C 7080   7.336   0.278   6.393  0.4582  0.2427  0.4930
  794MOL0     C 7081   7.320   0.142   6.405  0.2321 -0.0798 -0.3532
  794MOL0     C 7082   7.360   0.058   6.306  0.1678  0.1634  0.9577
  794MOL0     C 7083   7.357  -0.087   6.333  0.4080 -1.3886 -0.5012
  794MOL0     C 7084   7.427   0.109   6.189 -0.4982 -0.5596 -0.2988
  794MOL0     C 7085   7.482   0.034   6.080  0.1425  0.7523  1.1934
  794MOL0     O 7086   7.406  -0.071   6.041 -0.1595  0.4438  0.5194
  794MOL0     C 7087   7.451  -0.176   5.966 -0.3808 -0.5920 -0.5886
  794MOL0     C 7088   7.345  -0.263   5.941  0.8968  1.4719  0.7002
  794MOL0     C 7089   7.363  -0.389   5.875  0.0023  0.9936 -0.1960
  794MOL0     C 7090   7.498  -0.430   5.847  0.4207 -0.3900 -0.1759
  794MOL0     O 7091   7.536  -0.547   5.793 -0.5507 -0.1693  0.4553
  794MOL0     C 7092   7.456  -0.661   5.834  0.3654 -0.3929 -0.2223
  794MOL0     C 7093   7.549  -0.760   5.906 -0.0667  0.2983 -0.0670
  794MOL0     C 7094   7.484  -0.885   5.967  0.3232  0.1076  0.0584
  794MOL0     C 7095   7.586  -0.982   6.032  0.3154 -0.6523 -0.8411
  794MOL0     C 7096   7.526  -1.109   6.091 -0.7244  0.5331  0.5678
  794MOL0     C 7097   7.638  -1.216   6.107 -0.3537  0.2039  0.7241
  794MOL0     C 7098   7.595  -1.361   6.133  0.0801  0.0652 -0.1161
  794MOL0     C 7099   7.459  -1.358   6.197  0.1041 -0.3822  0.0239
  794MOL0    Cl 7100   7.417  -1.537   6.220 -0.1448  0.5326  0.1805
  794MOL0     C 7101   7.606  -0.338   5.868 -0.5257  0.5630 -0.5208
  794MOL0     C 7102   7.579  -0.211   5.929 -0.2347 -0.1391  0.4791
  794MOL0     O 7103   7.585   0.073   6.032 -0.5290  0.6404  0.7933
  794MOL0     C 7104   7.447   0.247   6.184  0.0831  0.0211 -0.2028
  794MOL0     C 7105   7.401   0.324   6.283  0.0027  0.5906 -0.2045
  794MOL0     N 7106   6.696   0.552   6.438  0.5502 -0.3258  0.1425
  794MOL0     N 7107   6.603   0.612   6.352  0.1450 -0.5968  0.4215
  794MOL0     C 7108   5.904   1.203   5.463  0.4227 -0.3442  0.0423
  794MOL0     C 7109   5.821   1.310   5.485 -0.6767  0.4828  0.7066
  794MOL0     C 7110   5.613   1.661   5.653 -0.1638  0.4243 -0.4833
  794MOL0     C 7111   5.591   1.768   5.740  0.1679  0.2861 -0.2187
  794MOL0     C 7112   5.469   1.836   5.741 -0.7995  0.3154 -0.2991
  794MOL0     C 7113   5.358   1.795   5.659 -0.6357  0.4009 -0.4811
  794MOL0     O 7114   5.245   1.863   5.634  0.3157 -0.5092  0.4993
  794MOL0     C 7115   5.225   1.987   5.698 -0.7879 -1.0384  1.0766
  794MOL0     C 7116   5.148   1.966   5.827  0.5512  0.2130 -0.7955
  794MOL0     C 7117   5.084   2.097   5.861 -0.1883 -0.0798  1.2241
  794MOL0     C 7118   5.016   2.083   6.000 -0.2949  0.1012 -0.2568
  794MOL0     C 7119   4.877   2.026   6.002 -0.6783 -0.1122  0.3581
  794MOL0     C 7120   4.768   1.989   6.000  0.2195 -1.1920 -0.0273
  794MOL0     C 7121   5.383   1.685   5.583 -0.4948  0.2164 -0.6909
  794MOL0     C 7122   5.505   1.610   5.585 -0.0074  0.4123  0.6909
  794MOL0     H 7123   6.037   1.524   5.614  1.6977  0.1145 -3.4541
  794MOL0     H 7124   6.186   1.337   5.617  0.0438  0.4863  1.0944
  794MOL0     H 7125   6.270   1.113   5.618  1.7881  0.2442 -2.6538
  794MOL0     H 7126   6.126   1.041   5.683  3.4920  0.6944  1.6514
  794MOL0     H 7127   6.164   0.838   5.541  0.2962  0.4973 -2.5259
  794MOL0     H 7128   6.315   0.896   5.476 -1.8715 -1.9531 -1.1235
  794MOL0     H 7129   6.267   0.853   5.774  1.2369  0.3435 -0.1876
  794MOL0     H 7130   6.363   0.751   5.660  2.1107  0.7190 -1.9648
  794MOL0     H 7131   6.509   0.961   5.621 -2.5368  1.6782 -1.4065
  794MOL0     H 7132   6.448   1.018   5.773  3.9224 -2.1163  2.3200
  794MOL0     H 7133   6.596   0.788   5.734 -0.6730  0.3169 -0.9703
  794MOL0     H 7134   6.628   0.935   5.843  0.5603  0.5684 -0.5284
  794MOL0     H 7135   6.397   0.812   5.958  0.8276  0.0040 -2.0604
  794MOL0     H 7136   6.469   0.675   5.882 -1.8013 -1.4548  3.1102
  794MOL0     H 7137   6.688   0.748   5.998 -0.4150  1.8100  1.6503
  794MOL0     H 7138   6.584   0.824   6.115 -0.7909  0.8442 -0.6986
  794MOL0     H 7139   6.551   0.529   6.023 -3.6052  0.6297 -0.3891
  794MOL0     H 7140   6.437   0.624   6.118 -0.9818 -2.7583  0.1841
  794MOL0     H 7141   6.734   0.392   6.165  1.8490 -0.7593  0.3555
  794MOL0     H 7142   6.810   0.308   6.508  0.6964 -1.5662  0.4103
  794MOL0     H 7143   6.857   0.282   6.331 -2.2519  0.1049 -0.1756
  794MOL0     H 7144   7.000   0.499   6.497  2.6425 -0.6704 -0.3646
  794MOL0     H 7145   7.052   0.410   6.358  1.5880 -0.6150  0.2558
  794MOL0     H 7146   7.074   0.200   6.483 -0.4761  0.1132  0.4335
  794MOL0     H 7147   6.999   0.257   6.619  0.6131  1.2261  0.3964
  794MOL0     H 7148   7.239   0.276   6.672 -2.9342 -0.8448  2.3137
  794MOL0     H 7149   7.193   0.442   6.645  1.8619  2.7985 -2.7352
  794MOL0     H 7150   7.273   0.107   6.496 -1.7613  0.7208 -1.0359
  794MOL0     H 7151   7.253  -0.110   6.357  0.6025 -1.0110  0.7717
  794MOL0     H 7152   7.393  -0.153   6.253 -1.7507 -1.3360 -1.5996
  794MOL0     H 7153   7.416  -0.108   6.423 -2.0792 -0.8961  1.3550
  794MOL0     H 7154   7.245  -0.230   5.968  1.2564  0.7607  3.1837
  794MOL0     H 7155   7.277  -0.454   5.861  0.3213  0.4249  0.3937
  794MOL0     H 7156   7.384  -0.645   5.916  0.3145  1.0591 -0.5192
  794MOL0     H 7157   7.401  -0.707   5.752 -0.7820 -0.3150  0.4745
  794MOL0     H 7158   7.627  -0.790   5.835  0.0513 -1.1960  0.6472
  794MOL0     H 7159   7.599  -0.716   5.992  0.6621 -1.5361  0.5140
  794MOL0     H 7160   7.436  -0.940   5.886  2.5865  1.8270 -2.6183
  794MOL0     H 7161   7.422  -0.837   6.044  2.1864  0.2131  1.5538
  794MOL0     H 7162   7.661  -0.999   5.954  1.3687 -1.5708  0.3283
  794MOL0     H 7163   7.649  -0.926   6.101  0.6278  1.0078 -2.3701
  794MOL0     H 7164   7.451  -1.135   6.016  0.1154  0.2765 -0.2002
  794MOL0     H 7165   7.472  -1.083   6.182 -2.8001  0.7413 -0.6382
  794MOL0     H 7166   7.695  -1.220   6.014 -3.4598  2.4239 -1.4897
  794MOL0     H 7167   7.696  -1.187   6.195 -0.6614  2.3283  0.2673
  794MOL0     H 7168   7.673  -1.414   6.189 -1.7382 -0.9344  1.6278
  794MOL0     H 7169   7.584  -1.413   6.038  0.8915  0.4864 -0.4447
  794MOL0     H 7170   7.380  -1.310   6.137  0.4871 -0.6498 -0.7063
  794MOL0     H 7171   7.462  -1.313   6.296  0.0099 -0.4126  0.0411
  794MOL0     H 7172   7.702  -0.362   5.822 -0.1756  1.1470 -0.1164
  794MOL0     H 7173   7.660  -0.138   5.931 -0.5464  0.1975  2.0738
  794MOL0     H 7174   7.512   0.283   6.105  3.3030 -3.9017  0.3425
  794MOL0     H 7175   7.423   0.430   6.286  1.1816  0.4079 -1.4041
  794MOL0     H 7176   5.877   1.110   5.414  1.2511  0.3798 -1.8964
  794MOL0     H 7177   5.720   1.312   5.446 -1.3056 -0.1836  2.1953
  794MOL0     H 7178   5.667   1.808   5.807 -0.7138  0.2850  0.8177
  794MOL0     H 7179   5.459   1.927   5.800 -0.8749 -0.0645  0.2846
  794MOL0     H 7180   5.314   2.050   5.694 -1.1289 -0.4832 -3.1255
  794MOL0     H 7181   5.164   2.040   5.624  2.2818  0.4608 -0.5611
  794MOL0     H 7182   5.225   1.955   5.903  0.9815  1.9290 -0.9499
  794MOL0     H 7183   5.070   1.889   5.823  0.0509  0.7608 -2.3778
  794MOL0     H 7184   5.013   2.118   5.780  0.8716 -1.4943 -0.1530
  794MOL0     H 7185   5.165   2.169   5.876  2.0110 -1.9254 -0.8489
  794MOL0     H 7186   4.994   2.181   6.042 -1.3821 -0.4285  0.4771
  794MOL0     H 7187   5.064   2.020   6.075  1.2912  2.3471  0.7099
  794MOL0     H 7188   4.662   1.973   5.997 -0.1480  0.1496  2.7477
  794MOL0     H 7189   5.314   1.651   5.506  0.2699 -2.7144 -0.2149
  794MOL0     H 7190   5.520   1.530   5.514  1.5358  0.9438  0.3732
  795MOL0     O 7191   2.711   8.012   6.881  0.1349 -0.0649 -0.1172
  795MOL0     C 7192   2.829   8.002   6.832  0.3214  0.1570 -0.4810
  795MOL0     O 7193   2.887   7.888   6.808  0.2249 -0.1573  0.3686
  795MOL0     C 7194   2.834   7.763   6.845  0.8830 -0.2129  0.3507
  795MOL0     C 7195   2.767   7.734   6.957  0.6195 -0.3396 -1.2797
  795MOL0     C 7196   2.731   7.606   6.989  0.4266  0.3171  0.5230
  795MOL0     C 7197   2.781   7.504   6.911 -1.1503 -0.1733 -0.6148
  795MOL0     O 7198   2.776   7.375   6.939  0.1760 -0.7018 -0.1698
  795MOL0     C 7199   2.696   7.329   7.050 -0.5551 -0.8580 -0.1683
  795MOL0     C 7200   2.733   7.189   7.075 -0.2355  0.7771 -0.3880
  795MOL0     C 7201   2.730   7.151   7.221 -0.7660  0.1987  0.7283
  795MOL0     C 7202   2.733   7.000   7.233  0.1584  0.1304 -0.0698
  795MOL0     C 7203   2.755   6.946   7.378 -0.8150 -0.0444  0.9979
  795MOL0     C 7204   2.771   6.793   7.398 -0.3108 -0.3492  0.2800
  795MOL0     C 7205   2.806   6.747   7.544 -0.1252 -0.0187  0.4092
  795MOL0     C 7206   2.869   6.608   7.558  1.2003 -0.4392  0.1378
  795MOL0     N 7207   2.759   6.505   7.534 -0.7229 -0.1790 -0.1288
  795MOL0     C 7208   2.717   6.448   7.412  0.5690 -0.0573  0.2328
  795MOL0     C 7209   2.633   6.349   7.443  0.5472  0.0908  0.1936
  795MOL0     C 7210   2.581   6.263   7.330  0.6577  0.4886 -0.2530
  795MOL0     C 7211   2.472   6.338   7.249  1.1031  0.0995 -0.9402
  795MOL0     C 7212   2.439   6.267   7.116 -0.5147  0.0454 -0.1999
  795MOL0     C 7213   2.552   6.258   7.006  0.3544 -0.0974 -0.0302
  795MOL0     O 7214   2.553   6.388   6.958 -0.7523  0.2022  0.3376
  795MOL0     C 7215   2.585   6.397   6.821  0.2681  0.5152 -0.2185
  795MOL0     C 7216   2.703   6.463   6.786  0.2122 -0.7056 -0.6054
  795MOL0     C 7217   2.752   6.461   6.644 -0.3458 -0.2538  0.9005
  795MOL0     C 7218   2.859   6.554   6.601 -0.4580 -0.2764 -0.9752
  795MOL0     C 7219   2.669   6.393   6.555  0.6669 -0.5612 -0.7175
  795MOL0     C 7220   2.688   6.391   6.410  0.4380 -1.6165 -0.2412
  795MOL0     O 7221   2.571   6.415   6.342 -0.0359 -0.2075 -0.5817
  795MOL0     C 7222   2.556   6.344   6.227  0.5710 -0.6094  0.1638
  795MOL0     C 7223   2.550   6.405   6.098  0.2933 -1.1035  0.7230
  795MOL0     C 7224   2.507   6.334   5.978  0.6466 -1.0530 -0.2683
  795MOL0     C 7225   2.496   6.192   5.979  0.1872 -0.5432 -0.1750
  795MOL0     O 7226   2.478   6.127   5.857 -0.2394  0.1077  0.4080
  795MOL0     C 7227   2.572   6.164   5.746 -0.0485 -0.5378 -0.2432
  795MOL0     C 7228   2.510   6.204   5.612  0.2190 -0.5090 -0.3315
  795MOL0     C 7229   2.620   6.251   5.508  0.1078  0.0540  0.1267
  795MOL0     C 7230   2.545   6.239   5.375 -1.1816  0.4082  1.1768
  795MOL0     C 7231   2.631   6.285   5.261  0.2037 -0.0699 -0.0472
  795MOL0     C 7232   2.642   6.436   5.255  0.6248 -0.7464  0.4182
  795MOL0     C 7233   2.726   6.477   5.140  0.4299  0.7342 -0.1519
  795MOL0     C 7234   2.818   6.595   5.179  0.9838 -0.0085  1.0375
  795MOL0    Cl 7235   2.934   6.621   5.052 -0.5311  0.1204  0.0441
  795MOL0     C 7236   2.512   6.122   6.102 -0.7559  0.4176 -1.4906
  795MOL0     C 7237   2.539   6.195   6.221 -0.3846  0.2401  0.6975
  795MOL0     O 7238   2.788   6.338   6.364 -0.5416  0.2433 -0.4143
  795MOL0     C 7239   2.547   6.328   6.599 -0.0129 -0.2467  0.3059
  795MOL0     C 7240   2.507   6.340   6.727 -0.8411  0.4678 -0.4892
  795MOL0     N 7241   2.602   6.354   7.579 -0.9075 -0.1924  0.6681
  795MOL0     N 7242   2.675   6.451   7.627 -0.5436 -0.1655  0.7640
  795MOL0     C 7243   2.849   7.534   6.788 -0.6828  0.5151  0.6524
  795MOL0     C 7244   2.871   7.664   6.758 -0.6440  0.3835  0.7527
  795MOL0     C 7245   2.904   8.117   6.790  0.1792  0.3398 -0.1951
  795MOL0     C 7246   2.840   8.243   6.786  0.0247 -0.2880  0.3958
  795MOL0     C 7247   2.905   8.356   6.734 -0.0383 -0.6562 -0.5474
  795MOL0     C 7248   3.043   8.348   6.710  0.7233  0.5391 -0.3424
  795MOL0     O 7249   3.110   8.448   6.648  0.3600  0.5221 -0.0113
  795MOL0     C 7250   3.060   8.575   6.622  0.0572 -0.4360 -0.1966
  795MOL0     C 7251   3.157   8.636   6.520  0.1367  0.3490  0.2816
  795MOL0     C 7252   3.088   8.751   6.444  0.2443  0.7655  0.2278
  795MOL0     C 7253   2.949   8.716   6.397  0.4037 -0.8162  0.3149
  795MOL0     C 7254   2.912   8.817   6.293 -0.5156 -0.7526 -0.3090
  795MOL0     C 7255   2.925   8.909   6.207 -0.6770  0.2229 -0.7425
  795MOL0     C 7256   3.107   8.230   6.731 -0.3049  0.2692  0.4057
  795MOL0     C 7257   3.042   8.113   6.762  0.5489 -0.2394 -0.1145
  795MOL0     H 7258   2.743   7.821   7.018 -0.2103 -1.0637 -0.5561
  795MOL0     H 7259   2.683   7.577   7.082  1.6305 -0.7008  0.8655
  795MOL0     H 7260   2.719   7.386   7.141 -1.1932 -0.9584  0.0585
  795MOL0     H 7261   2.590   7.349   7.032 -0.0421 -0.6255 -3.8707
  795MOL0     H 7262   2.674   7.126   7.007  1.0250 -2.6381  1.4773
  795MOL0     H 7263   2.838   7.193   7.047 -0.0197  2.1553  0.5007
  795MOL0     H 7264   2.817   7.196   7.270  1.7730 -1.7326 -1.6374
  795MOL0     H 7265   2.636   7.194   7.256  0.0920  3.2452 -0.4414
  795MOL0     H 7266   2.635   6.980   7.191 -0.8450  0.1875  2.1290
  795MOL0     H 7267   2.819   6.969   7.172  2.3068  2.3232  1.6312
  795MOL0     H 7268   2.847   6.985   7.423  1.5798 -3.0848 -0.8187
  795MOL0     H 7269   2.666   6.975   7.433  0.3161  3.5481  1.1936
  795MOL0     H 7270   2.678   6.739   7.376 -1.4010 -0.5157  4.3951
  795MOL0     H 7271   2.847   6.768   7.323 -0.1702 -0.7915  0.5636
  795MOL0     H 7272   2.876   6.827   7.570  2.5301 -0.8789 -3.2183
  795MOL0     H 7273   2.715   6.744   7.605 -1.5618 -0.2036 -1.6016
  795MOL0     H 7274   2.907   6.601   7.660  5.0382  2.1974 -0.8944
  795MOL0     H 7275   2.952   6.602   7.487  2.3545 -3.3062  1.5651
  795MOL0     H 7276   2.744   6.461   7.308  1.9435  0.9000  0.6784
  795MOL0     H 7277   2.666   6.235   7.267  2.2991  3.8115  0.2351
  795MOL0     H 7278   2.544   6.174   7.382  0.7523  1.3717  1.4084
  795MOL0     H 7279   2.498   6.444   7.245  0.5190  0.6083  3.4269
  795MOL0     H 7280   2.379   6.331   7.305  1.5156  4.2339  0.6537
  795MOL0     H 7281   2.358   6.323   7.069 -2.3399 -1.7715  0.6190
  795MOL0     H 7282   2.408   6.166   7.144  3.7226 -0.9569  1.6354
  795MOL0     H 7283   2.509   6.179   6.944  1.6641 -2.7092  2.1962
  795MOL0     H 7284   2.640   6.220   7.059 -0.3028  0.9365  1.9129
  795MOL0     H 7285   2.762   6.512   6.863  0.9208 -0.4099 -1.3230
  795MOL0     H 7286   2.871   6.551   6.492  2.2326 -2.8722 -0.7489
  795MOL0     H 7287   2.837   6.658   6.627 -2.0884 -0.3084 -2.1061
  795MOL0     H 7288   2.950   6.529   6.657 -3.1021  0.5230  4.2226
  795MOL0     H 7289   2.559   6.513   6.101  1.2420 -1.1889  1.0474
  795MOL0     H 7290   2.508   6.383   5.881 -0.1059  1.8491  1.0879
  795MOL0     H 7291   2.634   6.247   5.782  2.2213 -2.1017 -0.3424
  795MOL0     H 7292   2.646   6.084   5.740 -1.6590 -2.0462 -0.7414
  795MOL0     H 7293   2.448   6.124   5.570  2.0341 -1.5043 -1.2760
  795MOL0     H 7294   2.461   6.297   5.641  3.9995  0.1891  5.3449
  795MOL0     H 7295   2.711   6.191   5.508  1.2158  1.6608  1.3716
  795MOL0     H 7296   2.645   6.355   5.531 -0.5709  0.3081 -0.2664
  795MOL0     H 7297   2.516   6.137   5.345  0.4766  0.3508 -0.4342
  795MOL0     H 7298   2.447   6.287   5.366 -0.1173  2.5934  0.6285
  795MOL0     H 7299   2.604   6.259   5.158 -0.3329  3.6908 -1.0302
  795MOL0     H 7300   2.731   6.246   5.279  0.0363 -0.1716  0.6733
  795MOL0     H 7301   2.543   6.481   5.244 -0.0940 -0.9605  4.3087
  795MOL0     H 7302   2.671   6.486   5.348 -3.7404  2.2725  0.4899
  795MOL0     H 7303   2.662   6.516   5.060  0.4903  1.3990  0.1216
  795MOL0     H 7304   2.790   6.396   5.102 -0.3640 -0.0825  0.2233
  795MOL0     H 7305   2.871   6.566   5.270 -2.1571 -3.6669  1.9755
  795MOL0     H 7306   2.764   6.690   5.191  0.2214 -0.5212  1.6890
  795MOL0     H 7307   2.501   6.014   6.096  1.2030  0.2343 -2.3710
  795MOL0     H 7308   2.565   6.140   6.311  1.2542 -0.2525 -0.0414
  795MOL0     H 7309   2.474   6.282   6.533  0.3812 -1.8402  0.9144
  795MOL0     H 7310   2.409   6.301   6.754  0.6555 -2.6797  0.9144
  795MOL0     H 7311   2.882   7.454   6.723  0.5296  0.1717  1.6388
  795MOL0     H 7312   2.928   7.681   6.667 -1.6546  1.1632  0.2498
  795MOL0     H 7313   2.733   8.260   6.795  0.5041  5.3950 -0.9327
  795MOL0     H 7314   2.844   8.438   6.697  0.6342 -0.7770 -2.0314
  795MOL0     H 7315   2.954   8.561   6.597 -0.8706  1.6037  2.2076
  795MOL0     H 7316   3.068   8.653   6.698 -1.2639 -0.3333 -0.1465
  795MOL0     H 7317   3.198   8.563   6.450  2.5276  2.1653 -0.3369
  795MOL0     H 7318   3.253   8.659   6.567  0.9350 -1.4078 -0.3809
  795MOL0     H 7319   3.161   8.775   6.366  1.7308 -0.3254  1.2167
  795MOL0     H 7320   3.076   8.841   6.504 -0.0777  0.5983  0.4162
  795MOL0     H 7321   2.882   8.721   6.483  1.3873 -0.8531  1.1029
  795MOL0     H 7322   2.954   8.609   6.373 -1.6089 -2.0222  4.4197
  795MOL0     H 7323   2.951   8.987   6.139 -0.7853 -0.6072 -1.7528
  795MOL0     H 7324   3.213   8.238   6.710  0.6241 -0.4933  4.0682
  795MOL0     H 7325   3.084   8.013   6.760  2.6903  0.6100 -1.0184
  796MOL0     O 7326   2.916   3.380  10.843  0.2063 -0.6078 -0.8393
  796MOL0     C 7327   2.936   3.305  10.748 -0.3787 -0.0417 -0.1139
  796MOL0     O 7328   2.861   3.204  10.697 -0.0278 -0.2419  0.0339
  796MOL0     C 7329   2.725   3.191  10.718 -0.4017  0.4879  0.2993
  796MOL0     C 7330   2.640   3.300  10.754 -1.4431 -0.2503 -0.1095
  796MOL0     C 7331   2.506   3.286  10.777  0.0781 -0.1027 -0.0338
  796MOL0     C 7332   2.439   3.166  10.752  0.2772  0.3329 -0.1367
  796MOL0     O 7333   2.309   3.133  10.769 -0.1999  0.5324 -0.0601
  796MOL0     C 7334   2.204   3.222  10.774 -0.1395 -0.1833  0.1794
  796MOL0     C 7335   2.085   3.161  10.699 -0.2889 -0.3628  0.0523
  796MOL0     C 7336   1.959   3.224  10.755  0.0456  0.1417 -0.2461
  796MOL0     C 7337   1.836   3.145  10.696 -0.7841  0.9737  0.1376
  796MOL0     C 7338   1.702   3.202  10.729  1.0247 -0.2697  0.0725
  796MOL0     C 7339   1.675   3.340  10.675 -0.2115 -0.0854 -1.1726
  796MOL0     C 7340   1.530   3.373  10.633  0.6342 -0.1647  0.9339
  796MOL0     C 7341   1.508   3.331  10.486 -0.2100 -0.0944  0.8041
  796MOL0     N 7342   1.367   3.350  10.440 -0.4064  0.5121  0.2893
  796MOL0     C 7343   1.325   3.374  10.316  0.2195  0.0123  0.1588
  796MOL0     C 7344   1.191   3.355  10.324 -0.3706  0.4039  0.7820
  796MOL0     C 7345   1.119   3.364  10.192 -0.3031 -1.3092 -0.3129
  796MOL0     C 7346   0.967   3.351  10.190 -0.6555 -0.2293 -0.4531
  796MOL0     C 7347   0.896   3.420  10.310 -0.7521 -0.3240 -0.4990
  796MOL0     C 7348   0.807   3.526  10.265  0.1707 -0.1158  0.6787
  796MOL0     O 7349   0.679   3.478  10.240  0.1588 -0.9378 -1.1592
  796MOL0     C 7350   0.637   3.434  10.122  0.1231  0.5430  0.3130
  796MOL0     C 7351   0.624   3.300  10.093 -0.3732  0.1714 -0.2009
  796MOL0     C 7352   0.597   3.252   9.964  0.5239 -0.0477  0.3166
  796MOL0     C 7353   0.571   3.095   9.951  0.1613  0.1679 -0.3848
  796MOL0     C 7354   0.597   3.346   9.854  0.0171 -1.2597 -0.6462
  796MOL0     C 7355   0.573   3.315   9.709  0.1864 -0.0708  0.6278
  796MOL0     O 7356   0.614   3.397   9.605  0.3123 -0.2271 -0.0051
  796MOL0     C 7357   0.560   3.390   9.477  0.3519  0.4700  0.6727
  796MOL0     C 7358   0.639   3.441   9.370 -0.3987  0.3268  1.1129
  796MOL0     C 7359   0.596   3.454   9.231  0.3854  0.4166  0.1557
  796MOL0     C 7360   0.466   3.429   9.199  0.2105 -0.7164 -0.0477
  796MOL0     O 7361   0.415   3.466   9.066 -1.4163 -0.2504 -0.5031
  796MOL0     C 7362   0.280   3.506   9.044  0.5790  0.1107 -0.1857
  796MOL0     C 7363   0.262   3.559   8.897 -0.5444  0.3498 -0.7648
  796MOL0     C 7364   0.135   3.501   8.834 -0.1706 -0.5359 -0.3330
  796MOL0     C 7365   0.101   3.558   8.708 -0.5279 -0.4746 -0.2289
  796MOL0     C 7366  -0.044   3.504   8.667  0.6723  0.9851 -0.7666
  796MOL0     C 7367  -0.170   3.556   8.742  1.0891 -0.5302  0.4049
  796MOL0     C 7368  -0.190   3.711   8.741 -0.4347  0.1955  0.4207
  796MOL0     C 7369  -0.174   3.788   8.868 -0.0954  1.1236  0.0965
  796MOL0    Cl 7370  -0.291   3.749   9.001  0.3142  0.2886  0.3728
  796MOL0     C 7371   0.383   3.380   9.301  0.6830 -0.3525 -0.8239
  796MOL0     C 7372   0.427   3.355   9.438  0.8563  0.0208  0.0195
  796MOL0     O 7373   0.497   3.217   9.690  0.1484 -0.3183  0.0023
  796MOL0     C 7374   0.604   3.482   9.894  0.7396  0.7129  0.7030
  796MOL0     C 7375   0.625   3.529  10.022  0.8199  0.0689 -0.0393
  796MOL0     N 7376   1.149   3.327  10.453  0.0248  0.3625 -0.0040
  796MOL0     N 7377   1.262   3.324  10.519  0.6306  0.2311  0.0761
  796MOL0     C 7378   2.520   3.061  10.699  0.0849 -0.2182  0.6213
  796MOL0     C 7379   2.661   3.073  10.698 -0.5851 -0.0145 -0.2072
  796MOL0     C 7380   3.081   3.314  10.704  0.6265  0.4298 -0.1348
  796MOL0     C 7381   3.125   3.251  10.582 -0.0142 -0.4891 -0.1566
  796MOL0     C 7382   3.263   3.243  10.548 -0.5505  0.3019 -0.5521
  796MOL0     C 7383   3.360   3.292  10.640 -0.3792  0.4536 -0.5590
  796MOL0     O 7384   3.493   3.281  10.599  0.1683 -0.4416  0.0054
  796MOL0     C 7385   3.534   3.179  10.500 -0.6565  0.5026 -0.5219
  796MOL0     C 7386   3.515   3.034  10.539  0.0141 -0.1391  0.8337
  796MOL0     C 7387   3.568   2.993  10.672 -0.1499  0.4067  0.2619
  796MOL0     C 7388   3.641   2.853  10.673  0.0935  0.0582 -0.6074
  796MOL0     C 7389   3.678   2.822  10.811 -0.8594  0.3874  0.0218
  796MOL0     C 7390   3.697   2.804  10.927  1.6298 -0.7084  0.1789
  796MOL0     C 7391   3.324   3.360  10.751  0.2928 -0.0672 -0.6635
  796MOL0     C 7392   3.184   3.369  10.786  0.5774 -0.2944 -0.8289
  796MOL0     H 7393   2.676   3.402  10.765  0.2877 -0.8238 -0.1434
  796MOL0     H 7394   2.449   3.377  10.792  1.1018  0.5891 -0.1929
  796MOL0     H 7395   2.172   3.225  10.879  4.9887  0.7715  1.9583
  796MOL0     H 7396   2.226   3.326  10.751 -2.5666  1.1269  2.9889
  796MOL0     H 7397   2.103   3.191  10.596  1.4790 -2.7078 -0.4063
  796MOL0     H 7398   2.096   3.053  10.713  1.2521 -0.1057  1.0695
  796MOL0     H 7399   1.967   3.230  10.864  4.9800 -1.8846 -0.1852
  796MOL0     H 7400   1.963   3.325  10.715  0.5452 -0.3508 -1.5146
  796MOL0     H 7401   1.871   3.141  10.592  1.0686 -1.5895  0.7686
  796MOL0     H 7402   1.842   3.053  10.755  4.6583  0.9389 -0.0200
  796MOL0     H 7403   1.631   3.133  10.684  1.4718 -1.1512  0.7003
  796MOL0     H 7404   1.685   3.217  10.836 -0.9656 -1.9767  0.0692
  796MOL0     H 7405   1.699   3.410  10.755  1.6438 -1.9895  0.0387
  796MOL0     H 7406   1.736   3.364  10.588 -1.0679  1.7217 -1.3365
  796MOL0     H 7407   1.461   3.320  10.700  5.1197 -4.7912  2.4973
  796MOL0     H 7408   1.510   3.481  10.639  0.1590 -0.2975  2.1902
  796MOL0     H 7409   1.548   3.229  10.487  1.0761  0.3804  0.3529
  796MOL0     H 7410   1.577   3.387  10.423 -1.4629  1.4142  0.7124
  796MOL0     H 7411   1.393   3.394  10.233 -1.4884 -4.1892 -2.5797
  796MOL0     H 7412   1.141   3.458  10.139 -1.7690 -0.3303  0.7256
  796MOL0     H 7413   1.164   3.282  10.134  1.2592  1.4994 -3.4519
  796MOL0     H 7414   0.933   3.248  10.207  0.4400 -0.4318  0.6890
  796MOL0     H 7415   0.928   3.378  10.092 -3.2175  1.1181  0.8373
  796MOL0     H 7416   0.967   3.463  10.381 -1.0219  1.7035 -1.3848
  796MOL0     H 7417   0.840   3.342  10.363 -2.1340  0.3810 -0.8611
  796MOL0     H 7418   0.843   3.578  10.175 -0.9038 -0.0265  0.2744
  796MOL0     H 7419   0.795   3.607  10.338 -0.9687 -0.1364  0.5407
  796MOL0     H 7420   0.644   3.224  10.168 -0.8604 -0.4149 -0.6486
  796MOL0     H 7421   0.632   3.034  10.018  0.0559  1.7997  1.2783
  796MOL0     H 7422   0.466   3.081   9.977  0.4604  2.3802  2.5791
  796MOL0     H 7423   0.581   3.054   9.850 -1.6996  0.7621 -0.8540
  796MOL0     H 7424   0.739   3.481   9.388  0.5567 -1.9396  1.1566
  796MOL0     H 7425   0.650   3.496   9.147  1.6746 -2.1562 -0.3918
  796MOL0     H 7426   0.203   3.431   9.063 -0.1444  0.4710 -1.5365
  796MOL0     H 7427   0.253   3.582   9.117 -6.2714 -2.7490  1.0350
  796MOL0     H 7428   0.275   3.668   8.904  3.6209 -0.1129  2.4531
  796MOL0     H 7429   0.349   3.517   8.845  1.0245 -0.4313  2.2806
  796MOL0     H 7430   0.058   3.532   8.905 -0.6311 -0.7088 -0.7545
  796MOL0     H 7431   0.143   3.392   8.826 -2.6906 -0.7893 -0.2092
  796MOL0     H 7432   0.082   3.664   8.726 -2.2766 -1.0666  1.8205
  796MOL0     H 7433   0.172   3.549   8.626  0.6150  2.8029  0.2496
  796MOL0     H 7434  -0.032   3.396   8.684  4.5049  1.7258  2.7023
  796MOL0     H 7435  -0.064   3.518   8.560  2.5871 -2.0059 -1.6341
  796MOL0     H 7436  -0.259   3.511   8.699  0.9703  2.0980 -2.4464
  796MOL0     H 7437  -0.179   3.538   8.849  0.8500  2.1776  0.9136
  796MOL0     H 7438  -0.278   3.744   8.686  0.1988  1.7219  0.2719
  796MOL0     H 7439  -0.117   3.754   8.671 -3.4506  4.0944 -0.6732
  796MOL0     H 7440  -0.189   3.895   8.851 -0.7577  1.2334  1.2738
  796MOL0     H 7441  -0.075   3.767   8.909 -0.2949  2.5786  1.4131
  796MOL0     H 7442   0.284   3.343   9.275  0.7441 -0.5668 -0.7571
  796MOL0     H 7443   0.360   3.318   9.514 -0.9646  0.1631 -1.4336
  796MOL0     H 7444   0.594   3.555   9.814 -3.0138 -0.8800 -0.4773
  796MOL0     H 7445   0.629   3.634  10.047 -1.4635 -0.6092  4.1046
  796MOL0     H 7446   2.473   2.966  10.674 -0.0980  0.4780 -1.9402
  796MOL0     H 7447   2.715   2.982  10.676 -3.2219 -2.1213  1.4316
  796MOL0     H 7448   3.060   3.199  10.512 -1.2032  1.0342 -0.2214
  796MOL0     H 7449   3.282   3.203  10.449 -0.6290  0.4708 -0.6369
  796MOL0     H 7450   3.512   3.194  10.394  0.8632 -1.6580 -1.2160
  796MOL0     H 7451   3.642   3.189  10.514 -0.9899  2.5401  0.9600
  796MOL0     H 7452   3.552   2.966  10.463 -2.5037 -0.0810 -0.5562
  796MOL0     H 7453   3.409   3.009  10.540 -0.5193  1.9112  1.2055
  796MOL0     H 7454   3.480   2.995  10.736 -2.9870  2.5737 -3.3344
  796MOL0     H 7455   3.647   3.060  10.709 -1.1780  0.8713  1.7017
  796MOL0     H 7456   3.731   2.854  10.610 -3.3509  0.4451 -6.1030
  796MOL0     H 7457   3.575   2.776  10.634 -2.8919  2.1888 -0.0546
  796MOL0     H 7458   3.702   2.789  11.033  1.6945  2.1311  0.6629
  796MOL0     H 7459   3.389   3.411  10.820 -0.7244  1.5814 -0.8747
  796MOL0     H 7460   3.154   3.429  10.871  1.0817 -1.9713  0.5842
  797MOL0     O 7461   6.198   0.368   4.446  0.7264  0.0348 -0.3353
  797MOL0     C 7462   6.240   0.253   4.457 -0.8754  0.3413  0.3843
  797MOL0     O 7463   6.157   0.136   4.474 -0.7092 -0.3843  0.5061
  797MOL0     C 7464   6.017   0.169   4.504 -0.3166  0.3982 -0.1393
  797MOL0     C 7465   5.967   0.112   4.618  0.7510 -0.5960 -0.9375
  797MOL0     C 7466   5.837   0.135   4.642 -0.2191  0.3193 -0.3379
  797MOL0     C 7467   5.751   0.198   4.556 -0.0148 -0.2288  0.0457
  797MOL0     O 7468   5.614   0.212   4.575 -0.2517  0.6079  0.6677
  797MOL0     C 7469   5.538   0.092   4.598  0.0771 -0.3822  0.0624
  797MOL0     C 7470   5.523   0.051   4.747 -0.1898 -0.0972  0.5330
  797MOL0     C 7471   5.477   0.151   4.855  0.1395  0.2988 -0.1897
  797MOL0     C 7472   5.353   0.226   4.800 -0.4755  0.1262 -0.9361
  797MOL0     C 7473   5.291   0.327   4.905  0.2061  0.5500  0.4895
  797MOL0     C 7474   5.377   0.369   5.022 -0.7795 -0.0468 -0.0261
  797MOL0     C 7475   5.311   0.474   5.127  0.4999 -0.3353  0.3971
  797MOL0     C 7476   5.278   0.610   5.064 -0.4681  0.4043  0.1758
  797MOL0     N 7477   5.326   0.718   5.144  0.5739  0.1490  0.6956
  797MOL0     C 7478   5.448   0.788   5.129  0.0292 -0.1829  0.4835
  797MOL0     C 7479   5.425   0.896   5.209 -0.9806  1.1559 -0.2107
  797MOL0     C 7480   5.522   1.009   5.209  0.4902  0.6981 -0.5585
  797MOL0     C 7481   5.577   1.024   5.352 -0.1812 -0.6134  0.1667
  797MOL0     C 7482   5.500   1.106   5.453 -0.1262 -0.6430  0.0525
  797MOL0     C 7483   5.548   1.106   5.594 -0.0317  0.3654 -0.3784
  797MOL0     O 7484   5.509   1.220   5.666 -0.1535 -0.8419 -0.1865
  797MOL0     C 7485   5.550   1.228   5.799 -0.0152  0.0946 -1.2967
  797MOL0     C 7486   5.554   1.357   5.856  0.4304  0.6462  0.1071
  797MOL0     C 7487   5.615   1.387   5.979 -0.7343 -0.5859 -0.5586
  797MOL0     C 7488   5.620   1.527   6.023  0.3732 -0.4733 -0.2818
  797MOL0     C 7489   5.661   1.279   6.055 -0.2968 -0.2268 -0.1577
  797MOL0     C 7490   5.697   1.303   6.194  0.8708 -0.6581  0.9929
  797MOL0     O 7491   5.815   1.268   6.237  0.4117 -0.2629  0.9069
  797MOL0     C 7492   5.826   1.218   6.358 -0.4563 -0.3145 -0.2514
  797MOL0     C 7493   5.897   1.291   6.450  0.3371  0.4752  0.3042
  797MOL0     C 7494   5.928   1.226   6.574  0.7692 -0.4798 -0.5608
  797MOL0     C 7495   5.894   1.095   6.605 -1.3653 -0.3481 -0.8859
  797MOL0     O 7496   5.943   1.021   6.712  0.1013 -0.3289 -0.5260
  797MOL0     C 7497   5.982   1.100   6.829  0.7156 -0.5470 -1.0993
  797MOL0     C 7498   5.970   1.016   6.957  0.2814 -0.7087 -0.3126
  797MOL0     C 7499   6.000   1.101   7.085  1.3109 -0.7172 -0.3806
  797MOL0     C 7500   6.147   1.102   7.111  0.7183 -0.7583  0.6790
  797MOL0     C 7501   6.176   1.195   7.231  0.3639 -0.4003 -0.0538
  797MOL0     C 7502   6.110   1.144   7.370 -0.2879 -0.2287  0.4031
  797MOL0     C 7503   6.170   1.223   7.477  0.0909 -0.1892 -0.6844
  797MOL0     C 7504   6.306   1.205   7.526 -1.0443  0.1588  0.4228
  797MOL0    Cl 7505   6.342   1.344   7.639  0.0255 -0.6283 -0.5303
  797MOL0     C 7506   5.819   1.028   6.513  0.2814  0.5256  1.2783
  797MOL0     C 7507   5.780   1.082   6.379 -0.2797  0.2422 -1.0546
  797MOL0     O 7508   5.602   1.337   6.264  0.2787 -0.1433  0.2316
  797MOL0     C 7509   5.644   1.146   6.010  0.6035 -0.1950 -0.3739
  797MOL0     C 7510   5.589   1.122   5.880 -0.4803  0.2374 -0.8612
  797MOL0     N 7511   5.303   0.883   5.274  0.1401  0.7636 -0.5071
  797MOL0     N 7512   5.239   0.785   5.224 -0.5980 -0.3188 -0.1375
  797MOL0     C 7513   5.800   0.264   4.439 -0.8988 -0.4957  0.3661
  797MOL0     C 7514   5.940   0.247   4.417  0.6990  0.2535 -0.4599
  797MOL0     C 7515   6.392   0.235   4.449  0.5057 -0.0103 -0.0197
  797MOL0     C 7516   6.449   0.106   4.443 -0.0423  0.3335 -0.1853
  797MOL0     C 7517   6.586   0.091   4.435 -0.5849 -0.1429 -0.1466
  797MOL0     C 7518   6.669   0.201   4.428  0.0729 -0.4603 -0.1272
  797MOL0     O 7519   6.805   0.174   4.442  0.4661  0.3430 -0.2999
  797MOL0     C 7520   6.898   0.287   4.458 -0.6634 -0.4596 -0.5341
  797MOL0     C 7521   7.038   0.223   4.481 -0.2084 -0.1272  0.9651
  797MOL0     C 7522   7.056   0.099   4.572 -0.4240  0.2910 -0.3076
  797MOL0     C 7523   7.016   0.126   4.718 -0.5234 -0.6586 -0.1472
  797MOL0     C 7524   7.066   0.025   4.811 -0.1226 -0.8607  1.1949
  797MOL0     C 7525   7.090  -0.058   4.890 -0.4886 -0.1587  0.3163
  797MOL0     C 7526   6.616   0.332   4.402 -0.1340  0.1297 -0.4972
  797MOL0     C 7527   6.476   0.342   4.414 -0.7351  0.6791 -0.0131
  797MOL0     H 7528   6.035   0.067   4.689 -0.5454 -0.0295  0.7516
  797MOL0     H 7529   5.803   0.099   4.739  2.7250 -1.1136  0.2654
  797MOL0     H 7530   5.439   0.118   4.559  0.7348  2.6124  0.1388
  797MOL0     H 7531   5.589   0.013   4.541  3.5522  2.3742 -1.0028
  797MOL0     H 7532   5.465  -0.041   4.758  0.3294 -0.3870  0.9232
  797MOL0     H 7533   5.618   0.005   4.776  1.1442  0.3602 -2.7636
  797MOL0     H 7534   5.453   0.102   4.950  1.8737 -0.3108 -0.0204
  797MOL0     H 7535   5.561   0.220   4.867  0.4628 -0.0665 -0.3029
  797MOL0     H 7536   5.399   0.286   4.721  0.8875 -0.4522 -0.6090
  797MOL0     H 7537   5.278   0.155   4.762 -0.5480  0.9748 -2.4697
  797MOL0     H 7538   5.260   0.414   4.847 -1.2211 -1.3205 -1.7334
  797MOL0     H 7539   5.195   0.289   4.943  0.4405 -1.1530 -0.5473
  797MOL0     H 7540   5.412   0.278   5.072 -1.9863 -1.9583 -2.4261
  797MOL0     H 7541   5.465   0.420   4.981 -1.3134 -0.1863 -1.3947
  797MOL0     H 7542   5.219   0.425   5.162 -0.0291  2.1879  2.9722
  797MOL0     H 7543   5.376   0.487   5.214 -1.1627  2.4964  1.3858
  797MOL0     H 7544   5.173   0.610   5.033 -0.2217 -0.0678 -0.6860
  797MOL0     H 7545   5.336   0.615   4.971 -0.7811 -0.4592 -0.0774
  797MOL0     H 7546   5.528   0.756   5.062  0.9432  0.8060  1.0764
  797MOL0     H 7547   5.610   0.989   5.147 -0.2205 -1.0970 -1.0494
  797MOL0     H 7548   5.469   1.099   5.176 -1.6188 -0.2468  0.0710
  797MOL0     H 7549   5.677   1.067   5.340 -2.0827  3.8980 -1.2888
  797MOL0     H 7550   5.586   0.926   5.401 -0.1906 -2.4579 -3.1833
  797MOL0     H 7551   5.399   1.066   5.440  0.3439 -0.8413 -4.1228
  797MOL0     H 7552   5.501   1.208   5.413  1.0871 -1.2103 -1.4467
  797MOL0     H 7553   5.657   1.098   5.589 -0.1250 -1.7459 -0.0659
  797MOL0     H 7554   5.523   1.012   5.645 -0.1168  0.7229  0.2451
  797MOL0     H 7555   5.518   1.444   5.802  0.7629  2.1263  2.1263
  797MOL0     H 7556   5.559   1.547   6.112 -2.9162 -1.3101 -2.1739
  797MOL0     H 7557   5.722   1.562   6.042  0.8032 -1.3143 -0.9558
  797MOL0     H 7558   5.585   1.602   5.952 -0.5082  0.4120  1.0518
  797MOL0     H 7559   5.922   1.396   6.444 -2.3997  1.1194 -2.0517
  797MOL0     H 7560   5.981   1.293   6.642 -1.7773 -0.1757  1.2641
  797MOL0     H 7561   6.087   1.129   6.820  1.1778 -0.3189  3.1437
  797MOL0     H 7562   5.930   1.196   6.839 -1.5675 -1.8304  0.2015
  797MOL0     H 7563   5.871   0.974   6.977  0.8237 -0.9624  2.2329
  797MOL0     H 7564   6.032   0.929   6.935 -1.4820 -1.8908 -0.9085
  797MOL0     H 7565   5.941   1.055   7.165 -1.7360  0.7655 -1.6632
  797MOL0     H 7566   5.964   1.203   7.072 -0.9402 -1.3460  0.5846
  797MOL0     H 7567   6.175   0.997   7.123 -4.1174 -2.3871  0.0922
  797MOL0     H 7568   6.201   1.148   7.028  0.9716 -3.0221 -0.4900
  797MOL0     H 7569   6.136   1.296   7.217 -3.8092 -1.6270  1.3527
  797MOL0     H 7570   6.285   1.192   7.240  0.3785 -2.1385 -0.3314
  797MOL0     H 7571   6.001   1.153   7.365 -0.2284 -0.0491 -0.8266
  797MOL0     H 7572   6.135   1.038   7.385  0.0830  0.1601  3.1018
  797MOL0     H 7573   6.114   1.227   7.571  0.6423 -0.4277 -0.3429
  797MOL0     H 7574   6.170   1.331   7.456  1.7383 -0.1861 -0.8102
  797MOL0     H 7575   6.386   1.194   7.452 -0.3935  3.2909  0.5177
  797MOL0     H 7576   6.313   1.108   7.575 -2.6884  0.3419  1.0798
  797MOL0     H 7577   5.787   0.927   6.534  0.9451  0.3851  1.6211
  797MOL0     H 7578   5.727   1.018   6.310 -0.2399  0.9989 -1.8009
  797MOL0     H 7579   5.666   1.055   6.064  2.2742  0.3190 -0.1178
  797MOL0     H 7580   5.572   1.018   5.852 -0.9591 -0.0215  0.3220
  797MOL0     H 7581   5.736   0.303   4.361  2.0212  2.8984 -0.5729
  797MOL0     H 7582   5.983   0.300   4.333  0.7041 -0.6038 -1.0060
  797MOL0     H 7583   6.380   0.022   4.447  0.9701 -0.7068 -2.6200
  797MOL0     H 7584   6.633  -0.007   4.436  0.0343  0.1492 -0.6106
  797MOL0     H 7585   6.899   0.343   4.364 -1.5311  1.0520  0.3195
  797MOL0     H 7586   6.866   0.354   4.538  0.6111  0.1909 -0.5557
  797MOL0     H 7587   7.100   0.304   4.521 -0.7571  0.6631  0.2614
  797MOL0     H 7588   7.060   0.182   4.382 -2.1763  0.2058  0.3544
  797MOL0     H 7589   7.162   0.075   4.564  0.1836  3.0088 -1.5182
  797MOL0     H 7590   6.999   0.013   4.538 -0.9103  0.9900 -1.3262
  797MOL0     H 7591   6.908   0.139   4.722 -0.1858  3.8595  0.6004
  797MOL0     H 7592   7.060   0.217   4.761  1.2610 -1.8963  0.7845
  797MOL0     H 7593   7.113  -0.144   4.951 -2.7919  0.3775  2.0737
  797MOL0     H 7594   6.669   0.426   4.389 -0.0452  0.5630  2.3802
  797MOL0     H 7595   6.436   0.439   4.388  1.4363  1.5964 -0.1527
  798MOL0     O 7596   2.051   2.350  10.746  0.0831 -0.4129  1.1091
  798MOL0     C 7597   2.020   2.257  10.818  0.4915 -0.1591  0.6090
  798MOL0     O 7598   1.934   2.158  10.778 -0.4628 -0.0235 -0.5195
  798MOL0     C 7599   1.882   2.150  10.661 -0.0848 -0.3321 -0.0416
  798MOL0     C 7600   1.745   2.130  10.645 -0.5539 -0.3186  0.6143
  798MOL0     C 7601   1.690   2.109  10.517  0.0755 -0.0784 -0.6282
  798MOL0     C 7602   1.767   2.104  10.406 -0.4419  0.4314  0.3745
  798MOL0     O 7603   1.708   2.071  10.287 -0.9193 -0.1731 -0.1143
  798MOL0     C 7604   1.760   2.104  10.157 -0.1432 -0.1867 -1.2183
  798MOL0     C 7605   1.661   2.101  10.038 -0.2702 -0.3990  0.1853
  798MOL0     C 7606   1.727   2.142   9.912 -0.7566  0.7688 -0.2776
  798MOL0     C 7607   1.633   2.186   9.802  0.5000  0.2707  0.4848
  798MOL0     C 7608   1.724   2.225   9.681  0.6074  0.6121 -0.5813
  798MOL0     C 7609   1.649   2.315   9.585  0.4864 -0.0523 -0.9072
  798MOL0     C 7610   1.724   2.314   9.454  0.6166 -0.4822 -0.3190
  798MOL0     C 7611   1.872   2.380   9.444  0.6803 -0.0389 -0.4502
  798MOL0     N 7612   1.920   2.392   9.298 -0.1672  0.3057 -1.1600
  798MOL0     C 7613   1.969   2.291   9.222 -1.1698 -0.3521 -0.7496
  798MOL0     C 7614   2.025   2.354   9.114  0.0398  0.8888 -0.2685
  798MOL0     C 7615   2.079   2.279   8.994 -0.3157  0.2099  0.2953
  798MOL0     C 7616   1.967   2.177   8.956  0.5784  0.9132  0.4521
  798MOL0     C 7617   2.015   2.113   8.825 -1.1719  0.0624  0.4495
  798MOL0     C 7618   2.079   1.979   8.845 -0.4317 -0.2428  0.7377
  798MOL0     O 7619   1.986   1.872   8.870  0.0080  0.2318  0.3167
  798MOL0     C 7620   2.057   1.768   8.925  0.1198  0.5623  0.3746
  798MOL0     C 7621   2.067   1.660   8.848  0.2478  0.8672 -0.1882
  798MOL0     C 7622   2.121   1.541   8.911 -0.3410  0.5758  1.2036
  798MOL0     C 7623   2.137   1.414   8.829  0.9132 -1.3729  0.1605
  798MOL0     C 7624   2.159   1.538   9.045 -0.4514  0.1475 -0.2602
  798MOL0     C 7625   2.195   1.412   9.124  0.2899 -0.3262  0.4123
  798MOL0     O 7626   2.303   1.405   9.215  0.0870  0.1191  0.5993
  798MOL0     C 7627   2.329   1.289   9.285  0.3308  0.8014 -0.1521
  798MOL0     C 7628   2.304   1.282   9.422  0.0839 -0.5695 -0.3179
  798MOL0     C 7629   2.340   1.160   9.488  0.2465 -1.1460  0.2407
  798MOL0     C 7630   2.404   1.048   9.428  0.2551  0.3616 -0.1951
  798MOL0     O 7631   2.447   0.942   9.494  0.7181 -0.1160  0.0031
  798MOL0     C 7632   2.408   0.813   9.443 -0.4995 -0.9861 -0.9484
  798MOL0     C 7633   2.268   0.814   9.377 -0.4280 -0.9132  0.0133
  798MOL0     C 7634   2.194   0.676   9.401  1.0026  0.3529  0.2565
  798MOL0     C 7635   2.253   0.571   9.311 -0.2875  0.7400 -0.0237
  798MOL0     C 7636   2.155   0.452   9.288  0.4325  0.6526  0.5936
  798MOL0     C 7637   2.087   0.388   9.403  0.5006  0.3750  0.0694
  798MOL0     C 7638   1.944   0.445   9.445 -0.0515 -0.8548 -0.6031
  798MOL0     C 7639   1.915   0.432   9.599 -0.3216  0.0905  0.9543
  798MOL0    Cl 7640   1.970   0.592   9.667 -0.3756  0.0773  0.5080
  798MOL0     C 7641   2.417   1.065   9.293 -0.2976 -0.0694 -0.4629
  798MOL0     C 7642   2.382   1.178   9.219  1.2614  0.4826  1.0201
  798MOL0     O 7643   2.109   1.328   9.108 -0.4419  0.7931  0.8540
  798MOL0     C 7644   2.141   1.656   9.123 -0.0665 -0.0681  0.0603
  798MOL0     C 7645   2.103   1.772   9.055 -0.1292 -0.0021 -0.0917
  798MOL0     N 7646   1.983   2.479   9.118  0.0726 -0.3010  0.0254
  798MOL0     N 7647   1.929   2.506   9.226  0.0573  0.3613 -0.9272
  798MOL0     C 7648   1.903   2.133  10.425  0.5712  0.2407  0.1953
  798MOL0     C 7649   1.959   2.156  10.546  0.3111 -0.3913  0.0721
  798MOL0     C 7650   2.061   2.272  10.955  0.6050 -0.2869  0.4711
  798MOL0     C 7651   2.105   2.403  11.003 -0.1215 -0.5111  0.1662
  798MOL0     C 7652   2.155   2.420  11.128  0.5574 -0.6596 -0.0576
  798MOL0     C 7653   2.160   2.307  11.207 -0.7636  0.0899  1.1259
  798MOL0     O 7654   2.216   2.295  11.327  0.2352 -0.5847 -0.4675
  798MOL0     C 7655   2.173   2.378  11.435  1.3442 -0.1682 -1.2002
  798MOL0     C 7656   2.196   2.303  11.567  0.4375 -0.6361  0.1373
  798MOL0     C 7657   2.337   2.272  11.591  0.0509  0.0725 -0.7459
  798MOL0     C 7658   2.433   2.382  11.633 -0.8605  0.3854  0.4665
  798MOL0     C 7659   2.547   2.329  11.713  0.3310  1.0459 -0.8385
  798MOL0     C 7660   2.630   2.269  11.782  0.4301 -0.0720  0.2255
  798MOL0     C 7661   2.130   2.180  11.164  0.5141  0.2401  0.1255
  798MOL0     C 7662   2.063   2.158  11.042  0.7897  0.1001  0.0203
  798MOL0     H 7663   1.677   2.118  10.728 -2.2036  2.3557 -0.2347
  798MOL0     H 7664   1.583   2.093  10.514 -0.4005  2.6909 -1.1689
  798MOL0     H 7665   1.788   2.209  10.175 -3.2328  1.0197 -2.8113
  798MOL0     H 7666   1.851   2.045  10.145  0.2853  0.4725 -1.2917
  798MOL0     H 7667   1.615   2.002  10.036  2.2329 -1.6306 -1.3894
  798MOL0     H 7668   1.582   2.175  10.055  1.8021  2.8731 -2.8261
  798MOL0     H 7669   1.804   2.212   9.944  1.3431 -2.3568  2.2811
  798MOL0     H 7670   1.791   2.058   9.883  3.6959  2.0493  4.2329
  798MOL0     H 7671   1.565   2.105   9.775  1.2345 -0.3461  0.4229
  798MOL0     H 7672   1.581   2.272   9.845  3.5997  2.0154  1.0512
  798MOL0     H 7673   1.808   2.284   9.719  0.7154 -1.1850  2.2690
  798MOL0     H 7674   1.758   2.133   9.632  0.0454 -0.1675  0.4608
  798MOL0     H 7675   1.552   2.278   9.550  0.6184 -1.5469  0.2087
  798MOL0     H 7676   1.637   2.412   9.634 -2.9847  0.1449 -1.8437
  798MOL0     H 7677   1.740   2.216   9.407  0.6920 -0.8159  0.3943
  798MOL0     H 7678   1.651   2.369   9.394 -2.9893 -3.4084  0.9895
  798MOL0     H 7679   1.953   2.330   9.498  1.4963  0.3752 -1.2562
  798MOL0     H 7680   1.868   2.482   9.485  1.4364  0.6493 -2.0181
  798MOL0     H 7681   1.981   2.185   9.243  1.7118 -0.7533 -3.6663
  798MOL0     H 7682   2.104   2.352   8.916 -0.1008  0.8023  0.9011
  798MOL0     H 7683   2.162   2.215   9.025 -0.5231 -0.6641 -0.8868
  798MOL0     H 7684   1.869   2.224   8.944 -1.0884 -2.1849  1.0907
  798MOL0     H 7685   1.953   2.101   9.034 -3.0139 -1.9775 -2.6420
  798MOL0     H 7686   2.088   2.185   8.788 -1.5627  0.1812 -0.0851
  798MOL0     H 7687   1.939   2.090   8.751  0.9460 -3.7215 -0.8315
  798MOL0     H 7688   2.162   1.990   8.916  1.5276 -2.5092 -0.9888
  798MOL0     H 7689   2.116   1.940   8.750 -3.2673 -0.0733 -0.5077
  798MOL0     H 7690   2.004   1.652   8.760 -1.9710 -0.9346  1.4161
  798MOL0     H 7691   2.152   1.444   8.725 -3.9182 -0.2739 -0.4328
  798MOL0     H 7692   2.226   1.358   8.861  2.5370  0.7294 -0.4105
  798MOL0     H 7693   2.047   1.353   8.833 -0.3927  0.4141  5.0383
  798MOL0     H 7694   2.276   1.365   9.486 -1.4343 -3.6105  3.3160
  798MOL0     H 7695   2.321   1.168   9.595 -1.4294 -0.6152 -0.0641
  798MOL0     H 7696   2.491   0.775   9.383 -2.5186 -3.6151 -2.2813
  798MOL0     H 7697   2.394   0.754   9.534 -5.9568  2.9570  1.3652
  798MOL0     H 7698   2.207   0.890   9.426  0.1961 -0.1889 -0.3276
  798MOL0     H 7699   2.277   0.834   9.270  4.3309  0.6031  0.4691
  798MOL0     H 7700   2.095   0.705   9.364  2.2521  0.3261 -3.5283
  798MOL0     H 7701   2.171   0.644   9.503  0.0478  4.6336  1.6164
  798MOL0     H 7702   2.268   0.610   9.210 -1.2018 -3.7206 -2.1344
  798MOL0     H 7703   2.350   0.540   9.352  0.8920  0.0735 -2.9947
  798MOL0     H 7704   2.217   0.383   9.230  0.1320  0.7174  0.1903
  798MOL0     H 7705   2.075   0.486   9.220  0.2060 -3.1091 -1.2627
  798MOL0     H 7706   2.089   0.279   9.397  0.9335  0.0791  3.5019
  798MOL0     H 7707   2.153   0.418   9.485  1.0735  3.4817 -1.3874
  798MOL0     H 7708   1.862   0.402   9.388  0.0890 -0.9965 -0.6985
  798MOL0     H 7709   1.952   0.553   9.426 -0.2650 -0.6927  0.2035
  798MOL0     H 7710   1.963   0.344   9.642 -0.2644  0.5576  1.8749
  798MOL0     H 7711   1.807   0.424   9.615 -0.6571 -0.0115 -1.1087
  798MOL0     H 7712   2.456   0.985   9.231  1.6784  0.2036  0.3530
  798MOL0     H 7713   2.386   1.191   9.111 -0.9489 -0.9625  0.7004
  798MOL0     H 7714   2.154   1.663   9.231 -1.6520  0.7049  0.2297
  798MOL0     H 7715   2.104   1.855   9.126  1.1516 -2.3224  2.8273
  798MOL0     H 7716   1.978   2.110  10.350  0.9099  1.6569  0.0769
  798MOL0     H 7717   2.062   2.183  10.563 -0.2860  1.0982  1.5324
  798MOL0     H 7718   2.104   2.495  10.945  2.5824  2.9630  4.9374
  798MOL0     H 7719   2.177   2.519  11.165  4.2967 -1.0132 -0.9815
  798MOL0     H 7720   2.230   2.470  11.448  1.6419 -0.7772  3.5545
  798MOL0     H 7721   2.065   2.392  11.422  1.6978  2.0942 -2.1021
  798MOL0     H 7722   2.139   2.210  11.563  1.3534 -1.2134 -3.4759
  798MOL0     H 7723   2.158   2.373  11.642  2.8390 -2.2564  3.0978
  798MOL0     H 7724   2.387   2.228  11.505  2.1072  0.9585 -0.0698
  798MOL0     H 7725   2.328   2.212  11.682 -1.1104  2.4511  0.8387
  798MOL0     H 7726   2.372   2.459  11.681 -1.3163  0.8056 -0.7554
  798MOL0     H 7727   2.470   2.424  11.540  0.0304 -2.4156 -0.5663
  798MOL0     H 7728   2.698   2.210  11.840  0.0122 -0.3935  0.3909
  798MOL0     H 7729   2.153   2.095  11.228  2.3219  2.0308  2.0140
  798MOL0     H 7730   2.040   2.056  11.013  0.0240 -0.0442  1.0512
  799MOL0     O 7731   2.487   6.575   8.389 -0.5260  0.0405  0.0354
  799MOL0     C 7732   2.581   6.505   8.374 -1.0111  0.6732  0.9989
  799MOL0     O 7733   2.652   6.477   8.256  0.1111 -0.9367 -0.1269
  799MOL0     C 7734   2.580   6.520   8.141  0.6950  0.4591 -0.0908
  799MOL0     C 7735   2.635   6.613   8.055 -0.9271  1.0322  1.0601
  799MOL0     C 7736   2.566   6.670   7.951  0.1572  0.3780 -0.6293
  799MOL0     C 7737   2.431   6.645   7.922 -0.3654  0.8556  0.4803
  799MOL0     O 7738   2.373   6.702   7.813  0.0971  0.0894 -0.2510
  799MOL0     C 7739   2.419   6.662   7.684 -0.4671 -0.3437  0.3737
  799MOL0     C 7740   2.311   6.688   7.579 -0.0302 -0.1899 -0.0693
  799MOL0     C 7741   2.356   6.658   7.441 -0.5998 -0.3339 -0.1525
  799MOL0     C 7742   2.244   6.687   7.340  0.3371 -0.6821 -0.4073
  799MOL0     C 7743   2.285   6.682   7.197  1.0546 -0.8990  0.7462
  799MOL0     C 7744   2.154   6.710   7.108 -0.3715 -1.1016  0.3139
  799MOL0     C 7745   2.196   6.696   6.963  0.7649 -0.3211 -0.5541
  799MOL0     C 7746   2.213   6.559   6.914  0.1377  0.5783 -0.8347
  799MOL0     N 7747   2.242   6.553   6.774  0.0106 -1.1516 -0.8980
  799MOL0     C 7748   2.352   6.625   6.725  0.0157  0.1845  0.7826
  799MOL0     C 7749   2.335   6.625   6.589  0.2885 -0.8537  0.0978
  799MOL0     C 7750   2.430   6.689   6.487  0.1281  0.1049 -0.5463
  799MOL0     C 7751   2.399   6.840   6.461 -0.5853 -0.2253  0.1974
  799MOL0     C 7752   2.447   6.889   6.326  0.2404 -0.4516 -0.3751
  799MOL0     C 7753   2.586   6.849   6.290  0.5584  0.1625 -0.4813
  799MOL0     O 7754   2.617   6.913   6.168 -0.9308  0.7716  0.5991
  799MOL0     C 7755   2.734   6.906   6.102 -0.6852  0.2550 -0.0290
  799MOL0     C 7756   2.758   6.970   5.987  0.2850  0.7398 -0.4707
  799MOL0     C 7757   2.875   6.955   5.907 -0.0332  0.8251  0.1596
  799MOL0     C 7758   2.881   7.012   5.772  0.4537  0.2025 -0.4092
  799MOL0     C 7759   2.974   6.861   5.966  0.1763 -0.6482  0.6670
  799MOL0     C 7760   3.102   6.825   5.898 -0.3424  0.1243 -0.6088
  799MOL0     O 7761   3.135   6.690   5.890  0.7766 -0.3333  0.7924
  799MOL0     C 7762   3.251   6.646   5.827  0.2463 -0.1373  0.0613
  799MOL0     C 7763   3.375   6.709   5.788  0.1280  0.1517  0.2607
  799MOL0     C 7764   3.485   6.625   5.750  0.3036  0.9172  0.7079
  799MOL0     C 7765   3.473   6.491   5.721 -0.0331  1.0898 -0.3239
  799MOL0     O 7766   3.580   6.414   5.682  0.2931  0.1245  0.6788
  799MOL0     C 7767   3.606   6.441   5.547 -0.0504  0.5905  1.1172
  799MOL0     C 7768   3.751   6.404   5.526 -0.5086 -0.7740 -0.1540
  799MOL0     C 7769   3.779   6.252   5.548 -0.3570  0.6885 -0.1095
  799MOL0     C 7770   3.789   6.202   5.696 -0.0534 -1.0680  0.7042
  799MOL0     C 7771   3.845   6.056   5.694  0.1585 -1.0599 -0.2338
  799MOL0     C 7772   3.996   6.055   5.671 -0.9608  0.3400  0.0103
  799MOL0     C 7773   4.036   5.906   5.674 -0.8277  1.0239 -1.0141
  799MOL0     C 7774   4.074   5.851   5.818  0.8724  0.6813  0.9205
  799MOL0    Cl 7775   4.200   5.931   5.897 -0.3161  0.5347  0.0369
  799MOL0     C 7776   3.352   6.427   5.761 -0.3532  0.7114  0.5637
  799MOL0     C 7777   3.243   6.502   5.808  0.1311 -0.3437  0.2861
  799MOL0     O 7778   3.175   6.915   5.856  0.4497 -0.0229 -0.5973
  799MOL0     C 7779   2.956   6.817   6.092 -0.3418  0.3603 -1.0788
  799MOL0     C 7780   2.841   6.839   6.161  0.3700 -0.1540 -0.2962
  799MOL0     N 7781   2.211   6.564   6.559 -0.0911  0.4763  0.0318
  799MOL0     N 7782   2.158   6.515   6.675  0.9586 -0.1003  0.0949
  799MOL0     C 7783   2.368   6.554   8.005  0.3265  0.5061  0.8505
  799MOL0     C 7784   2.442   6.481   8.102 -1.2385 -1.1419 -0.0872
  799MOL0     C 7785   2.612   6.429   8.493  0.8431  0.9565  0.2370
  799MOL0     C 7786   2.570   6.472   8.622 -0.8092 -0.1010  0.4397
  799MOL0     C 7787   2.587   6.380   8.735 -0.7390 -0.1705 -0.2057
  799MOL0     C 7788   2.653   6.252   8.726  0.0696 -0.1962 -0.0380
  799MOL0     O 7789   2.635   6.169   8.831  0.5265 -0.0518 -0.0743
  799MOL0     C 7790   2.686   6.039   8.821 -1.3424  0.3548  0.4905
  799MOL0     C 7791   2.726   5.983   8.959 -0.1900 -0.6356 -0.5283
  799MOL0     C 7792   2.786   5.837   8.948  0.8904 -0.5356 -0.4234
  799MOL0     C 7793   2.871   5.794   9.065 -0.5084 -0.2610  0.8926
  799MOL0     C 7794   2.930   5.670   9.016 -0.0379 -0.2082  0.1138
  799MOL0     C 7795   2.987   5.573   8.973 -0.4457 -0.3272 -0.1808
  799MOL0     C 7796   2.697   6.220   8.595  0.1533  0.6780  0.7875
  799MOL0     C 7797   2.675   6.299   8.480  0.9150  1.0839 -0.4235
  799MOL0     H 7798   2.734   6.650   8.081 -0.5110  1.0550 -0.4738
  799MOL0     H 7799   2.600   6.757   7.896 -0.9952  1.8262  0.8471
  799MOL0     H 7800   2.510   6.718   7.658 -1.2255 -0.2584 -2.4399
  799MOL0     H 7801   2.427   6.553   7.683 -1.5819 -0.4409 -0.6030
  799MOL0     H 7802   2.232   6.614   7.595  0.8987 -1.8913 -2.6402
  799MOL0     H 7803   2.268   6.788   7.588 -5.2247 -2.1644  1.0165
  799MOL0     H 7804   2.425   6.736   7.408  2.2571 -2.9608 -0.8241
  799MOL0     H 7805   2.402   6.559   7.441  1.8849  0.7234 -0.4984
  799MOL0     H 7806   2.161   6.618   7.356 -0.4640  0.5231  0.8739
  799MOL0     H 7807   2.204   6.786   7.363  1.3510 -1.0268  3.4584
  799MOL0     H 7808   2.356   6.763   7.176  1.0972 -1.3368 -0.9671
  799MOL0     H 7809   2.337   6.588   7.174  0.7428 -0.8680 -0.1390
  799MOL0     H 7810   2.069   6.651   7.142  0.1535  0.1465  4.3031
  799MOL0     H 7811   2.110   6.808   7.128 -0.0887 -0.7748 -0.6156
  799MOL0     H 7812   2.114   6.740   6.904  1.5012  1.5064 -0.2783
  799MOL0     H 7813   2.292   6.747   6.951  1.1069 -0.7369  0.3594
  799MOL0     H 7814   2.124   6.500   6.938  0.8255 -0.5393 -0.9471
  799MOL0     H 7815   2.297   6.507   6.960  0.5046  2.4176  0.6941
  799MOL0     H 7816   2.440   6.669   6.771 -0.6680  0.0471  2.2484
  799MOL0     H 7817   2.534   6.661   6.508 -0.8635 -2.5901  1.5092
  799MOL0     H 7818   2.393   6.640   6.397 -1.9114 -1.1480  0.8718
  799MOL0     H 7819   2.442   6.897   6.544  0.8024 -1.2839  0.2390
  799MOL0     H 7820   2.291   6.857   6.461 -0.8904 -1.5775 -2.4806
  799MOL0     H 7821   2.447   6.998   6.321 -1.2868 -0.3637  0.7932
  799MOL0     H 7822   2.371   6.871   6.250 -0.8404  3.0261 -0.2896
  799MOL0     H 7823   2.589   6.740   6.284  0.2107 -0.0623  2.1813
  799MOL0     H 7824   2.653   6.888   6.368  1.6881 -1.9089 -0.3388
  799MOL0     H 7825   2.677   7.016   5.930 -1.8069 -4.0119 -1.9195
  799MOL0     H 7826   2.846   7.115   5.779  0.4228  0.1047  3.5660
  799MOL0     H 7827   2.978   7.013   5.721 -0.2693  1.6946 -1.8154
  799MOL0     H 7828   2.827   6.943   5.707  0.7892  0.1934 -0.6813
  799MOL0     H 7829   3.391   6.816   5.790 -3.0597  0.7090  0.3821
  799MOL0     H 7830   3.567   6.684   5.710  0.5470  0.9434  1.2349
  799MOL0     H 7831   3.538   6.375   5.494  1.1231  0.3305 -0.1086
  799MOL0     H 7832   3.602   6.543   5.506 -1.8179 -0.4843 -1.6702
  799MOL0     H 7833   3.778   6.441   5.427 -0.1434  0.0302  0.2418
  799MOL0     H 7834   3.817   6.455   5.596  0.6206 -2.6214  0.1976
  799MOL0     H 7835   3.872   6.231   5.494 -1.2951  0.1004 -1.5523
  799MOL0     H 7836   3.709   6.192   5.490  1.9437 -1.6867 -0.6186
  799MOL0     H 7837   3.850   6.272   5.754 -1.2181  0.5189  0.0775
  799MOL0     H 7838   3.689   6.200   5.739  0.3432 -0.4003  1.6816
  799MOL0     H 7839   3.788   6.011   5.612 -0.2447 -0.3023 -0.3753
  799MOL0     H 7840   3.822   6.000   5.785  2.9855  1.5419  2.2807
  799MOL0     H 7841   4.022   6.082   5.568 -2.1524 -2.2977 -1.0950
  799MOL0     H 7842   4.050   6.109   5.749 -0.3878  2.2847 -1.6642
  799MOL0     H 7843   4.123   5.904   5.608 -2.0262 -0.3677 -2.6268
  799MOL0     H 7844   3.972   5.830   5.629 -0.4726 -1.0934  1.7535
  799MOL0     H 7845   4.110   5.748   5.813  0.2890  0.3172  3.2528
  799MOL0     H 7846   3.990   5.865   5.887  1.6953  4.2925  1.4142
  799MOL0     H 7847   3.328   6.322   5.742 -0.3577  1.0531 -1.5936
  799MOL0     H 7848   3.151   6.455   5.840  0.6579 -0.2773  2.0056
  799MOL0     H 7849   3.031   6.762   6.149 -1.0194  1.6543  1.1539
  799MOL0     H 7850   2.843   6.786   6.255 -1.1523 -0.4763 -0.4191
  799MOL0     H 7851   2.263   6.538   7.983  0.6412 -0.7231  0.0874
  799MOL0     H 7852   2.391   6.406   8.162 -5.0797  0.0156 -1.6106
  799MOL0     H 7853   2.530   6.571   8.638 -0.7665  0.2621 -1.4476
  799MOL0     H 7854   2.535   6.406   8.827 -0.5258 -0.2262 -0.0682
  799MOL0     H 7855   2.611   5.974   8.775 -3.6065  0.3230  3.9083
  799MOL0     H 7856   2.781   6.040   8.767 -1.5325  0.7826  0.1617
  799MOL0     H 7857   2.641   5.992   9.028  1.0347  1.1054  0.8392
  799MOL0     H 7858   2.804   6.050   8.996 -2.3971  1.5717  0.3847
  799MOL0     H 7859   2.864   5.835   8.871  3.0097 -0.4874  1.6380
  799MOL0     H 7860   2.706   5.764   8.929  0.1357  0.0473  0.4189
  799MOL0     H 7861   2.811   5.783   9.155 -0.6464 -1.1795  0.7000
  799MOL0     H 7862   2.956   5.862   9.079 -1.1187  1.3014 -2.0363
  799MOL0     H 7863   3.052   5.495   8.938 -0.1536 -1.2969  2.3118
  799MOL0     H 7864   2.747   6.124   8.582 -0.8705  0.3987 -1.8521
  799MOL0     H 7865   2.693   6.254   8.383 -0.2946  1.1969 -0.7190
  800MOL0     O 7866   8.315   2.175   5.655  0.3532 -0.0976  0.5039
  800MOL0     C 7867   8.307   2.071   5.595 -0.2647 -0.1420 -0.4023
  800MOL0     O 7868   8.303   1.938   5.650  0.5236  0.6224  0.0471
  800MOL0     C 7869   8.345   1.919   5.774 -0.4779  0.3445 -0.5338
  800MOL0     C 7870   8.262   1.940   5.885 -0.3535 -0.2521 -0.2692
  800MOL0     C 7871   8.312   1.913   6.019 -0.0251  0.3569 -0.4129
  800MOL0     C 7872   8.439   1.863   6.039 -0.5004 -0.1792  0.6369
  800MOL0     O 7873   8.507   1.853   6.155  0.4687 -0.1939 -0.3705
  800MOL0     C 7874   8.472   1.917   6.284  0.1024 -0.2048  0.9565
  800MOL0     C 7875   8.581   1.899   6.391  0.0147 -0.2048  0.7140
  800MOL0     C 7876   8.701   1.988   6.357  0.2197  0.5166  0.0004
  800MOL0     C 7877   8.786   1.984   6.481 -0.4668  0.1585 -0.7165
  800MOL0     C 7878   8.924   2.044   6.447 -0.1453  0.3464 -0.0903
  800MOL0     C 7879   8.919   2.191   6.478  0.3990 -0.3020 -0.5594
  800MOL0     C 7880   9.060   2.248   6.448  0.5107  0.0840 -0.0688
  800MOL0     C 7881   9.051   2.393   6.475  0.3169  0.2321  1.6532
  800MOL0     N 7882   9.176   2.461   6.440  0.4683  0.3395  0.3703
  800MOL0     C 7883   9.189   2.583   6.385 -0.7664 -0.1541  1.0050
  800MOL0     C 7884   9.322   2.620   6.393  1.2284  0.3705 -0.1405
  800MOL0     C 7885   9.393   2.740   6.344 -0.2899  0.5254 -0.1197
  800MOL0     C 7886   9.363   2.873   6.413  0.0340  0.3505 -0.0797
  800MOL0     C 7887   9.422   2.986   6.330  0.9210  0.5200  0.9344
  800MOL0     C 7888   9.395   3.115   6.409 -0.4855 -0.1034 -0.0038
  800MOL0     O 7889   9.391   3.223   6.314  0.8449 -0.0159 -0.2992
  800MOL0     C 7890   9.268   3.284   6.280 -0.4044  1.1864 -0.0581
  800MOL0     C 7891   9.234   3.400   6.350  0.1005 -0.3150  0.5327
  800MOL0     C 7892   9.115   3.471   6.307 -0.3506  0.1388 -0.9503
  800MOL0     C 7893   9.089   3.603   6.367  0.2205 -0.1601  0.5938
  800MOL0     C 7894   9.040   3.414   6.201 -0.4726  0.5137 -0.1528
  800MOL0     C 7895   8.911   3.467   6.153 -0.9857  0.1683 -1.4163
  800MOL0     O 7896   8.908   3.602   6.142 -0.2321 -0.3200  0.8092
  800MOL0     C 7897   8.775   3.644   6.140  0.4272  0.4029  1.2318
  800MOL0     C 7898   8.700   3.664   6.254 -0.0245 -0.4646  0.3978
  800MOL0     C 7899   8.570   3.725   6.250 -0.5453  0.3287 -0.4581
  800MOL0     C 7900   8.516   3.762   6.128  0.2743  1.2709 -0.3150
  800MOL0     O 7901   8.396   3.835   6.134  0.3637 -0.4884 -1.1778
  800MOL0     C 7902   8.331   3.846   6.009 -0.3888  0.2133 -0.1120
  800MOL0     C 7903   8.200   3.922   6.025  0.2042 -0.0829 -0.7329
  800MOL0     C 7904   8.211   4.059   6.091 -0.5020 -1.1125 -0.4097
  800MOL0     C 7905   8.083   4.145   6.091 -0.3165 -0.0119 -0.5293
  800MOL0     C 7906   8.092   4.271   6.173  0.5615 -0.6885  0.4364
  800MOL0     C 7907   7.990   4.382   6.115 -0.2029 -0.8231  0.4333
  800MOL0     C 7908   7.950   4.496   6.213  0.0422  0.9371  0.8621
  800MOL0     C 7909   7.851   4.586   6.137  0.8014  0.2388  0.3384
  800MOL0    Cl 7910   7.794   4.717   6.242 -0.0972 -0.0292  0.0847
  800MOL0     C 7911   8.592   3.728   6.004  0.7020 -0.1206  0.5869
  800MOL0     C 7912   8.718   3.679   6.013  0.0116 -0.2855 -0.9281
  800MOL0     O 7913   8.822   3.389   6.117 -0.2404  0.8897 -0.4167
  800MOL0     C 7914   9.076   3.283   6.150 -1.4958 -0.5587  0.3822
  800MOL0     C 7915   9.194   3.217   6.189 -0.9013 -1.2040  0.1219
  800MOL0     N 7916   9.382   2.510   6.449  0.3115 -1.0342 -0.2764
  800MOL0     N 7917   9.300   2.420   6.474 -0.5925 -0.1200 -0.0796
  800MOL0     C 7918   8.510   1.822   5.913 -0.1310  0.3080 -0.8505
  800MOL0     C 7919   8.470   1.859   5.789 -1.1969  0.1923 -0.5744
  800MOL0     C 7920   8.274   2.074   5.450  0.0722 -0.2545 -0.3732
  800MOL0     C 7921   8.197   2.184   5.399  0.1205 -0.9098  0.4440
  800MOL0     C 7922   8.150   2.189   5.270 -0.4125 -0.4127 -0.0004
  800MOL0     C 7923   8.186   2.083   5.187 -0.2860  0.3708 -0.6482
  800MOL0     O 7924   8.164   2.075   5.057  0.4586 -0.0150 -0.3178
  800MOL0     C 7925   8.037   2.024   5.021  0.1591 -0.6375 -0.1413
  800MOL0     C 7926   8.056   1.973   4.880  0.4357  0.2281  0.4790
  800MOL0     C 7927   7.916   1.956   4.809  0.5680  0.5468  0.3466
  800MOL0     C 7928   7.868   2.075   4.728  0.6881 -0.5767 -0.2461
  800MOL0     C 7929   7.723   2.062   4.690  0.0956  0.7276 -0.8845
  800MOL0     C 7930   7.619   2.041   4.632  0.5348 -0.5173  0.1418
  800MOL0     C 7931   8.247   1.961   5.245  0.7704 -0.3044  1.3740
  800MOL0     C 7932   8.298   1.963   5.371 -0.1697 -0.8281 -0.6593
  800MOL0     H 7933   8.157   1.951   5.863 -0.3717 -0.3550 -0.2387
  800MOL0     H 7934   8.244   1.931   6.102  0.1608 -1.0008  0.0420
  800MOL0     H 7935   8.472   2.024   6.263  4.3090 -0.6778 -3.0581
  800MOL0     H 7936   8.370   1.889   6.310  0.8556 -1.4004  2.8483
  800MOL0     H 7937   8.531   1.912   6.487 -0.7349  3.3275 -0.0127
  800MOL0     H 7938   8.622   1.798   6.380 -1.2019 -0.6505  0.1398
  800MOL0     H 7939   8.747   1.958   6.262 -1.6528  1.2990 -1.2158
  800MOL0     H 7940   8.664   2.091   6.349 -1.1786  0.1835  1.7502
  800MOL0     H 7941   8.732   2.031   6.564  1.2402  0.8850  0.0387
  800MOL0     H 7942   8.793   1.881   6.516  1.0781 -0.5262 -2.8797
  800MOL0     H 7943   9.003   1.999   6.508 -1.6206 -2.3163  0.0115
  800MOL0     H 7944   8.942   2.031   6.340  0.8562 -1.4612  0.2596
  800MOL0     H 7945   8.843   2.227   6.408 -0.2630 -2.2338 -0.8737
  800MOL0     H 7946   8.903   2.216   6.583 -2.1855  2.1882 -1.4111
  800MOL0     H 7947   9.130   2.213   6.524  0.2515  2.7640  1.5015
  800MOL0     H 7948   9.099   2.235   6.346  3.2553  3.1669  0.4399
  800MOL0     H 7949   9.032   2.412   6.581 -0.8225 -0.8595  1.6581
  800MOL0     H 7950   8.975   2.437   6.410  2.1474  1.2054  0.0718
  800MOL0     H 7951   9.106   2.649   6.363  0.0408  1.1725  1.8140
  800MOL0     H 7952   9.500   2.718   6.353 -1.0712 -3.4209  1.4044
  800MOL0     H 7953   9.381   2.740   6.235  1.1124 -0.7039 -0.3165
  800MOL0     H 7954   9.417   2.860   6.507 -0.0391  0.4592 -0.0220
  800MOL0     H 7955   9.255   2.891   6.422 -0.3114 -1.4616 -0.2441
  800MOL0     H 7956   9.362   2.986   6.238 -1.1940 -1.9722  2.1946
  800MOL0     H 7957   9.526   2.969   6.302  0.7175 -1.3942  1.2483
  800MOL0     H 7958   9.468   3.117   6.491 -2.8154  0.1777  2.2088
  800MOL0     H 7959   9.301   3.120   6.466  0.0308 -0.7137  0.9197
  800MOL0     H 7960   9.299   3.468   6.404 -0.1963  0.8522 -0.5232
  800MOL0     H 7961   9.149   3.635   6.453  0.5689 -1.5123  0.8719
  800MOL0     H 7962   9.105   3.676   6.287  1.5538  1.0223  1.8756
  800MOL0     H 7963   8.986   3.616   6.400  1.0422  1.4769  2.8059
  800MOL0     H 7964   8.740   3.639   6.351 -1.3734  0.3094  1.1918
  800MOL0     H 7965   8.524   3.748   6.346  0.4325 -2.1720  0.7005
  800MOL0     H 7966   8.395   3.880   5.927 -0.7023 -0.2917 -0.5694
  800MOL0     H 7967   8.318   3.745   5.971 -1.3442  0.7493 -1.2864
  800MOL0     H 7968   8.147   3.931   5.929 -2.9057  3.4558  1.0797
  800MOL0     H 7969   8.136   3.863   6.091 -1.3282  1.3883 -0.8244
  800MOL0     H 7970   8.290   4.111   6.036 -2.3534  1.3354 -0.9553
  800MOL0     H 7971   8.249   4.050   6.193  2.9717 -4.2709 -1.7982
  800MOL0     H 7972   8.049   4.168   5.989  0.5830  0.7149 -0.6850
  800MOL0     H 7973   7.998   4.086   6.125 -1.8419  0.9647 -2.3961
  800MOL0     H 7974   8.190   4.318   6.163  0.4183  0.0074  2.0238
  800MOL0     H 7975   8.065   4.237   6.273  1.8695 -2.5000  0.2411
  800MOL0     H 7976   8.046   4.435   6.037 -4.3244  4.2124  0.3780
  800MOL0     H 7977   7.895   4.341   6.079 -0.3528 -3.0460  3.0635
  800MOL0     H 7978   8.041   4.549   6.245 -1.1367  3.5102  0.2547
  800MOL0     H 7979   7.899   4.451   6.298  0.4872  1.0508  1.1957
  800MOL0     H 7980   7.777   4.522   6.088  2.1296  0.6354 -2.3628
  800MOL0     H 7981   7.912   4.623   6.054  1.5556 -1.4495  0.1120
  800MOL0     H 7982   8.562   3.757   5.904  0.2583 -3.0191 -0.2152
  800MOL0     H 7983   8.770   3.645   5.924  0.6799 -2.0195  0.0646
  800MOL0     H 7984   9.006   3.231   6.086 -1.7471  0.9060 -0.5704
  800MOL0     H 7985   9.221   3.126   6.137  1.6486  0.6641 -2.0840
  800MOL0     H 7986   8.610   1.781   5.898  0.9347  0.9999  3.1026
  800MOL0     H 7987   8.536   1.845   5.704 -1.0016 -4.9493  0.0889
  800MOL0     H 7988   8.170   2.270   5.460 -3.0914  0.1135 -2.1208
  800MOL0     H 7989   8.086   2.272   5.241 -1.9053 -0.7300  2.0834
  800MOL0     H 7990   8.000   1.948   5.091 -0.5907 -0.5689 -0.4559
  800MOL0     H 7991   7.976   2.114   5.012  3.0168  1.2246 -2.4907
  800MOL0     H 7992   8.099   1.872   4.888 -0.5897 -0.1405  1.7899
  800MOL0     H 7993   8.120   2.044   4.828  1.7586 -1.9699 -1.0618
  800MOL0     H 7994   7.843   1.926   4.885  0.5516  0.7057  0.3947
  800MOL0     H 7995   7.932   1.888   4.725  2.4160 -1.2379  2.0399
  800MOL0     H 7996   7.932   2.093   4.641 -2.1508 -0.9974 -2.5789
  800MOL0     H 7997   7.877   2.166   4.789  3.4708 -0.2789 -0.9349
  800MOL0     H 7998   7.535   2.026   4.566 -0.8182  5.4165 -0.0861
  800MOL0     H 7999   8.250   1.874   5.180 -4.7525  0.2128 -0.1100
  800MOL0     H 8000   8.351   1.876   5.407 -2.0134 -0.7836  2.5992
  801MOL0     O 8001   9.812   7.054   8.883 -0.4547  0.4548  0.3036
  801MOL0     C 8002   9.926   7.097   8.887 -0.5322 -0.2122  0.8122
  801MOL0     O 8003   9.977   7.196   8.813  1.3429  0.1734 -0.2603
  801MOL0     C 8004   9.891   7.275   8.746 -0.4438  0.0554  0.4751
  801MOL0     C 8005   9.776   7.234   8.672  0.0583  0.0414  0.5785
  801MOL0     C 8006   9.708   7.336   8.600  1.1433 -0.0472  0.3642
  801MOL0     C 8007   9.736   7.468   8.598 -0.4027  0.3495  0.0204
  801MOL0     O 8008   9.648   7.560   8.545 -0.3266  0.5542 -0.3077
  801MOL0     C 8009   9.652   7.692   8.594  0.4461 -0.2213 -1.0120
  801MOL0     C 8010   9.517   7.756   8.555 -0.0079  0.7784 -0.7772
  801MOL0     C 8011   9.459   7.725   8.412  0.5317 -0.6900 -0.3342
  801MOL0     C 8012   9.305   7.731   8.409  0.3387 -0.2742 -0.4668
  801MOL0     C 8013   9.257   7.622   8.317  0.8065 -0.3622  0.0302
  801MOL0     C 8014   9.098   7.615   8.320 -0.1608  0.4540  0.6171
  801MOL0     C 8015   9.053   7.550   8.185 -0.3441  0.1639  0.3878
  801MOL0     C 8016   8.912   7.485   8.206 -0.3666  0.6987 -0.9515
  801MOL0     N 8017   8.892   7.400   8.090 -0.7357 -0.9991  0.2148
  801MOL0     C 8018   8.867   7.268   8.096 -0.8612  0.1820 -0.4187
  801MOL0     C 8019   8.802   7.242   7.987  0.5606  0.6172  0.7939
  801MOL0     C 8020   8.726   7.118   7.949 -0.6318  0.2867 -0.0076
  801MOL0     C 8021   8.620   7.089   8.061  0.6601  0.0316 -0.7964
  801MOL0     C 8022   8.519   7.206   8.100  0.6714 -0.4549  0.1131
  801MOL0     C 8023   8.443   7.275   7.990  0.0370 -0.5167 -0.8135
  801MOL0     O 8024   8.353   7.168   7.930  0.0203  0.1634 -0.2213
  801MOL0     C 8025   8.284   7.213   7.825 -0.5017  0.5425 -0.0262
  801MOL0     C 8026   8.259   7.126   7.718  0.0145  0.3107  0.1802
  801MOL0     C 8027   8.176   7.162   7.616  0.0873  0.3158 -0.1956
  801MOL0     C 8028   8.154   7.051   7.514 -0.6339  0.5847 -0.2139
  801MOL0     C 8029   8.123   7.289   7.611  0.2952  0.3388 -0.0787
  801MOL0     C 8030   8.030   7.331   7.508 -0.6931  0.0388  0.9795
  801MOL0     O 8031   7.923   7.252   7.500 -0.9802 -0.7336  0.0229
  801MOL0     C 8032   7.804   7.301   7.448 -0.3510  0.0545 -0.6117
  801MOL0     C 8033   7.777   7.436   7.417 -0.6866  0.7181 -0.4729
  801MOL0     C 8034   7.649   7.474   7.387  0.1822 -0.0317 -0.1046
  801MOL0     C 8035   7.535   7.393   7.394  0.5868  0.9348  0.1518
  801MOL0     O 8036   7.415   7.444   7.369  0.6698  0.4860  0.6550
  801MOL0     C 8037   7.297   7.359   7.366  0.5986 -0.2752 -0.4440
  801MOL0     C 8038   7.172   7.444   7.380  0.5124 -0.0331  0.6818
  801MOL0     C 8039   7.143   7.523   7.255  1.0334  0.6540  0.6584
  801MOL0     C 8040   7.006   7.502   7.183 -0.1331  0.0984  0.3753
  801MOL0     C 8041   7.022   7.506   7.028  0.2940 -0.1493 -0.4909
  801MOL0     C 8042   6.883   7.510   6.943  0.6985 -0.1303  0.2718
  801MOL0     C 8043   6.898   7.513   6.797 -0.6210 -0.5732  0.3538
  801MOL0     C 8044   6.889   7.364   6.746  0.4892 -0.0097 -1.1740
  801MOL0    Cl 8045   6.734   7.297   6.783 -0.1248 -0.1106 -0.0168
  801MOL0     C 8046   7.561   7.257   7.411 -0.1583 -0.3758 -0.4503
  801MOL0     C 8047   7.693   7.211   7.431 -0.0059  0.2625 -0.4901
  801MOL0     O 8048   8.058   7.431   7.442 -0.6822  0.6721  0.9968
  801MOL0     C 8049   8.152   7.380   7.709  0.9585  0.4365 -0.6329
  801MOL0     C 8050   8.227   7.338   7.817 -0.3216 -0.4000 -0.2688
  801MOL0     N 8051   8.810   7.351   7.901  0.1857  0.2768  0.0039
  801MOL0     N 8052   8.858   7.456   7.971  0.7801  0.5259  0.2983
  801MOL0     C 8053   9.851   7.508   8.666  0.4067  0.4790  0.1771
  801MOL0     C 8054   9.931   7.414   8.742  0.9643 -0.5665  0.2824
  801MOL0     C 8055  10.015   7.008   8.962  1.1887 -0.4161  0.1656
  801MOL0     C 8056   9.963   6.909   9.042  0.4702  0.5669 -0.6334
  801MOL0     C 8057  10.046   6.848   9.136  0.7504  1.0785 -0.0468
  801MOL0     C 8058  10.174   6.883   9.159  0.0986 -0.5820  0.8244
  801MOL0     O 8059  10.229   6.828   9.267  0.1122 -0.0912 -0.6323
  801MOL0     C 8060  10.363   6.863   9.307 -0.7487  0.2154  0.3817
  801MOL0     C 8061  10.366   6.830   9.456  0.2999  0.0248 -0.8934
  801MOL0     C 8062  10.505   6.847   9.525  0.1240  1.3569 -0.3789
  801MOL0     C 8063  10.573   6.715   9.512  0.5618 -0.4596 -0.1740
  801MOL0     C 8064  10.507   6.613   9.598 -0.0860 -0.7984  0.5145
  801MOL0     C 8065  10.458   6.518   9.650  0.1832  0.2426 -0.8480
  801MOL0     C 8066  10.228   6.972   9.070  0.4888  0.0334 -0.2819
  801MOL0     C 8067  10.149   7.037   8.975 -0.9996  0.2523 -0.1382
  801MOL0     H 8068   9.755   7.129   8.657  0.1662  0.1041 -0.0385
  801MOL0     H 8069   9.628   7.313   8.531  0.7694  0.4602  0.6227
  801MOL0     H 8070   9.657   7.698   8.703 -5.5492 -0.2756 -0.3977
  801MOL0     H 8071   9.733   7.750   8.549 -0.7659 -0.3766 -3.5271
  801MOL0     H 8072   9.444   7.720   8.628 -1.6490  3.5903 -0.9080
  801MOL0     H 8073   9.528   7.863   8.571  7.7538  0.5649 -0.7954
  801MOL0     H 8074   9.488   7.812   8.352 -0.8208  0.8763  1.1574
  801MOL0     H 8075   9.499   7.635   8.364  1.6579  0.4088 -1.5149
  801MOL0     H 8076   9.261   7.709   8.507 -1.9452  0.4228 -1.2747
  801MOL0     H 8077   9.269   7.827   8.371  1.6039 -0.5069 -2.3943
  801MOL0     H 8078   9.280   7.632   8.210  1.1799 -1.4260 -0.0028
  801MOL0     H 8079   9.292   7.522   8.345  2.6392  0.0823 -0.5436
  801MOL0     H 8080   9.074   7.566   8.414  3.1458  2.4478  2.6771
  801MOL0     H 8081   9.051   7.714   8.321 -1.1995  0.0871 -1.8735
  801MOL0     H 8082   9.043   7.616   8.099 -1.3389 -1.2103 -0.6041
  801MOL0     H 8083   9.130   7.475   8.164 -1.6165 -0.5887 -1.9716
  801MOL0     H 8084   8.835   7.562   8.218 -4.0948 -3.0369  2.4324
  801MOL0     H 8085   8.915   7.422   8.296  4.8398  0.8029 -0.7648
  801MOL0     H 8086   8.887   7.210   8.185 -0.1470 -0.0603 -0.7308
  801MOL0     H 8087   8.674   7.120   7.853 -2.4670 -0.3257  0.9146
  801MOL0     H 8088   8.792   7.033   7.929  0.8308  1.1031  1.1270
  801MOL0     H 8089   8.667   7.050   8.152 -2.4987  0.8244  1.3402
  801MOL0     H 8090   8.562   6.997   8.049  1.6965 -1.1631  2.2796
  801MOL0     H 8091   8.568   7.284   8.158 -2.0245  1.4740 -0.0183
  801MOL0     H 8092   8.438   7.160   8.158  0.9875 -0.7491  0.3266
  801MOL0     H 8093   8.503   7.328   7.916 -1.8473  0.9580 -1.3469
  801MOL0     H 8094   8.374   7.350   8.030 -0.5015  1.4643 -4.9419
  801MOL0     H 8095   8.295   7.024   7.715 -1.4172 -0.3349  2.3705
  801MOL0     H 8096   8.072   6.985   7.544  2.0309 -2.5775  0.6807
  801MOL0     H 8097   8.136   7.095   7.416  0.1889 -1.6989 -1.4506
  801MOL0     H 8098   8.250   6.999   7.510  1.9405  4.7155  0.6917
  801MOL0     H 8099   7.860   7.506   7.418 -0.6681  0.6888 -0.1249
  801MOL0     H 8100   7.640   7.579   7.362  0.6990  1.3313  4.6012
  801MOL0     H 8101   7.307   7.286   7.285  1.9536 -2.7754  1.7933
  801MOL0     H 8102   7.298   7.291   7.451  5.7218  0.0458  0.1223
  801MOL0     H 8103   7.093   7.371   7.402  2.0100 -1.1353  2.7110
  801MOL0     H 8104   7.191   7.516   7.460  0.3063  1.2246 -0.3458
  801MOL0     H 8105   7.227   7.515   7.185  1.1802 -0.8785  0.9931
  801MOL0     H 8106   7.133   7.622   7.301 -3.1966 -0.0594  1.6197
  801MOL0     H 8107   6.969   7.401   7.203  0.0441 -0.2631 -1.0281
  801MOL0     H 8108   6.939   7.578   7.225 -1.4345 -2.5649  3.5371
  801MOL0     H 8109   7.082   7.420   6.999  0.2588  0.2206 -1.6853
  801MOL0     H 8110   7.078   7.596   7.006  1.7739 -0.4136  1.8133
  801MOL0     H 8111   6.823   7.428   6.983 -1.8747  1.3321 -0.3737
  801MOL0     H 8112   6.823   7.593   6.982 -3.7486 -1.7968 -2.3084
  801MOL0     H 8113   7.000   7.546   6.776  0.4898 -3.9167 -0.1097
  801MOL0     H 8114   6.826   7.578   6.746 -1.9051 -0.3930  2.2888
  801MOL0     H 8115   6.968   7.310   6.799  0.0697  0.6946  0.2247
  801MOL0     H 8116   6.917   7.358   6.640  3.3008 -1.0576 -0.4424
  801MOL0     H 8117   7.477   7.189   7.400 -0.5149 -0.2589  1.2751
  801MOL0     H 8118   7.710   7.106   7.449 -0.3895  0.4376  1.0842
  801MOL0     H 8119   8.098   7.474   7.717 -0.1706 -0.3418  3.8220
  801MOL0     H 8120   8.253   7.416   7.888  5.8096  0.7179 -3.0182
  801MOL0     H 8121   9.885   7.610   8.679  0.6308  0.2350  1.6593
  801MOL0     H 8122  10.021   7.454   8.788  0.6305  2.8768 -1.6978
  801MOL0     H 8123   9.857   6.887   9.048  0.2154  0.1212 -4.1924
  801MOL0     H 8124   9.991   6.789   9.208  1.3456  0.5175 -0.0410
  801MOL0     H 8125  10.443   6.801   9.265  0.4017  2.0001 -0.2340
  801MOL0     H 8126  10.390   6.968   9.289 -3.0579  0.4480 -2.5882
  801MOL0     H 8127  10.319   6.734   9.482 -0.2779  1.2692  3.3009
  801MOL0     H 8128  10.301   6.896   9.514  1.3899  1.0911 -0.8652
  801MOL0     H 8129  10.498   6.866   9.633  0.3498  2.4413 -0.5377
  801MOL0     H 8130  10.566   6.930   9.489  0.5076  1.1710 -0.1559
  801MOL0     H 8131  10.679   6.728   9.536  0.2638  1.0290  0.4277
  801MOL0     H 8132  10.584   6.671   9.412 -0.8112 -3.9386  1.0536
  801MOL0     H 8133  10.417   6.430   9.696 -1.0261  0.4399 -1.5158
  801MOL0     H 8134  10.331   7.006   9.074  0.5002  0.1159 -1.1572
  801MOL0     H 8135  10.207   7.104   8.912 -1.2653  2.5855  1.9363
  802MOL0     O 8136   4.493   6.591   8.642  0.2608  0.1557  0.8002
  802MOL0     C 8137   4.454   6.707   8.626  0.3746  0.0088  1.0150
  802MOL0     O 8138   4.492   6.788   8.525  0.0106 -0.0096  0.4198
  802MOL0     C 8139   4.581   6.749   8.431  0.4528  0.0934 -0.2299
  802MOL0     C 8140   4.532   6.739   8.303  0.5639 -0.6818 -0.1442
  802MOL0     C 8141   4.617   6.710   8.198  0.0847 -0.3889  0.2379
  802MOL0     C 8142   4.757   6.681   8.224  0.7344  0.7590 -0.4124
  802MOL0     O 8143   4.863   6.650   8.135 -0.1734 -0.4320 -0.0046
  802MOL0     C 8144   4.832   6.666   7.993 -0.8839  0.4330 -0.1639
  802MOL0     C 8145   4.956   6.693   7.911  0.2372 -0.6005 -1.0666
  802MOL0     C 8146   4.932   6.766   7.784 -0.3105  0.1082 -0.4828
  802MOL0     C 8147   5.074   6.792   7.719  0.1727  0.2341  1.5149
  802MOL0     C 8148   5.080   6.907   7.611  0.1311 -0.9256 -0.2102
  802MOL0     C 8149   5.223   6.924   7.555  0.1677  0.5222 -0.3196
  802MOL0     C 8150   5.224   7.041   7.452 -0.2525 -0.1082 -0.2635
  802MOL0     C 8151   5.365   7.068   7.405 -0.2878 -0.1075 -0.0051
  802MOL0     N 8152   5.433   6.967   7.319  0.6901 -0.5889  0.6341
  802MOL0     C 8153   5.393   6.939   7.188  0.0400  0.5660  0.2163
  802MOL0     C 8154   5.486   6.852   7.155 -1.5259  0.4790 -0.2210
  802MOL0     C 8155   5.484   6.790   7.017  0.6725 -0.1835 -0.7886
  802MOL0     C 8156   5.513   6.887   6.895 -0.3526 -0.0595 -0.9625
  802MOL0     C 8157   5.521   6.802   6.755 -0.5624  0.8683 -0.6187
  802MOL0     C 8158   5.403   6.740   6.686  0.0549 -0.3426  0.1397
  802MOL0     O 8159   5.320   6.661   6.774 -0.2815  0.3415  0.7606
  802MOL0     C 8160   5.348   6.528   6.775  0.3012  0.8426  0.1797
  802MOL0     C 8161   5.261   6.437   6.830  0.6695  0.0462 -1.5975
  802MOL0     C 8162   5.281   6.295   6.834  0.1632 -0.7945  0.5452
  802MOL0     C 8163   5.201   6.205   6.927 -0.2914  0.0993  0.0000
  802MOL0     C 8164   5.376   6.235   6.753 -0.5477  0.7690  0.6031
  802MOL0     C 8165   5.375   6.086   6.715  1.1170 -0.3415 -0.2100
  802MOL0     O 8166   5.496   6.037   6.698  0.1282 -0.0604  0.3698
  802MOL0     C 8167   5.513   5.936   6.611 -0.1887 -0.0696 -0.2216
  802MOL0     C 8168   5.534   5.950   6.474 -0.3297  0.2020  0.1359
  802MOL0     C 8169   5.540   5.844   6.385  0.3771 -0.7426  0.2973
  802MOL0     C 8170   5.534   5.711   6.431 -0.4327  0.1531  0.1986
  802MOL0     O 8171   5.549   5.595   6.369  0.2392  0.0999 -0.6701
  802MOL0     C 8172   5.572   5.613   6.233  0.1739 -0.3671  0.7600
  802MOL0     C 8173   5.641   5.485   6.189  1.1766 -0.4782  0.5344
  802MOL0     C 8174   5.772   5.463   6.255  0.5195 -0.7909 -0.1644
  802MOL0     C 8175   5.847   5.351   6.204 -0.4912  0.0721 -0.0471
  802MOL0     C 8176   5.973   5.318   6.276  0.3431  0.2820  0.4163
  802MOL0     C 8177   6.083   5.419   6.250 -1.7969 -0.3240  0.1369
  802MOL0     C 8178   6.207   5.388   6.330 -0.6436  0.1292  0.2142
  802MOL0     C 8179   6.290   5.521   6.356 -0.4906 -1.1117  1.0928
  802MOL0    Cl 8180   6.458   5.518   6.278  0.1459 -0.2307 -0.0886
  802MOL0     C 8181   5.514   5.695   6.569 -0.3898 -0.0543 -0.3833
  802MOL0     C 8182   5.512   5.802   6.661 -0.3361 -0.5567  0.0910
  802MOL0     O 8183   5.268   6.029   6.699 -0.3514  0.1870  0.2151
  802MOL0     C 8184   5.470   6.326   6.698  0.7140 -0.4689  0.2924
  802MOL0     C 8185   5.460   6.465   6.715  0.1635 -0.5892  0.7006
  802MOL0     N 8186   5.567   6.816   7.260 -0.7112  0.1200 -0.6083
  802MOL0     N 8187   5.536   6.887   7.355  0.3877  0.0945 -0.0228
  802MOL0     C 8188   4.803   6.689   8.355  0.1646 -0.3065  0.5120
  802MOL0     C 8189   4.721   6.740   8.462  0.0274  1.2849  0.2308
  802MOL0     C 8190   4.356   6.750   8.724  0.3926  0.7335  0.2618
  802MOL0     C 8191   4.231   6.679   8.739 -0.0771  0.1565  0.2881
  802MOL0     C 8192   4.138   6.700   8.835  0.1490  0.3820  0.1046
  802MOL0     C 8193   4.170   6.793   8.933 -0.0372 -0.5959 -0.8131
  802MOL0     O 8194   4.074   6.803   9.032  0.5865 -1.2768 -1.6637
  802MOL0     C 8195   4.104   6.886   9.154 -0.4452  0.9513 -0.0414
  802MOL0     C 8196   4.023   7.008   9.148 -0.1580 -0.2923  0.0237
  802MOL0     C 8197   3.871   6.993   9.157  0.3466 -0.0628 -0.2138
  802MOL0     C 8198   3.798   7.128   9.138  0.4450 -0.3562  0.6217
  802MOL0     C 8199   3.666   7.122   9.199  0.0458 -0.2877 -0.4884
  802MOL0     C 8200   3.551   7.111   9.237  0.6076 -0.3327  1.8310
  802MOL0     C 8201   4.284   6.878   8.914  0.3416  0.8873 -0.5408
  802MOL0     C 8202   4.378   6.853   8.815 -0.1084  0.7552 -0.5439
  802MOL0     H 8203   4.429   6.756   8.273  0.8708  0.5358 -0.5927
  802MOL0     H 8204   4.581   6.702   8.096 -1.3915 -1.8690  0.8320
  802MOL0     H 8205   4.788   6.571   7.960  2.5552 -0.9531 -1.2803
  802MOL0     H 8206   4.759   6.746   7.978  0.1319  1.3814 -0.2372
  802MOL0     H 8207   5.022   6.757   7.971 -0.0222 -1.1231 -0.2038
  802MOL0     H 8208   5.005   6.597   7.892  3.6274  1.2875 -2.7891
  802MOL0     H 8209   4.874   6.699   7.720  0.7293 -0.0185 -1.3254
  802MOL0     H 8210   4.892   6.867   7.788  2.6895  1.5111 -2.5844
  802MOL0     H 8211   5.139   6.820   7.802 -3.5604 -0.6023  5.0292
  802MOL0     H 8212   5.110   6.699   7.674  1.4892  1.4527 -0.0782
  802MOL0     H 8213   4.997   6.898   7.540  0.4260 -2.3091 -0.4192
  802MOL0     H 8214   5.064   7.004   7.660  3.9578  0.3709 -1.2031
  802MOL0     H 8215   5.294   6.950   7.633 -0.4811 -0.0481  0.4811
  802MOL0     H 8216   5.266   6.828   7.527  0.7023 -0.0926  2.3812
  802MOL0     H 8217   5.163   7.022   7.363  0.0627 -1.2917 -0.2398
  802MOL0     H 8218   5.182   7.125   7.508 -1.0437 -0.8861  0.3298
  802MOL0     H 8219   5.426   7.070   7.496  0.4750 -0.5740 -0.5004
  802MOL0     H 8220   5.362   7.156   7.340  1.5101 -2.2276 -3.1922
  802MOL0     H 8221   5.304   6.959   7.129  1.2293 -1.4918 -2.5163
  802MOL0     H 8222   5.558   6.708   7.016 -1.0162 -1.8942  1.7131
  802MOL0     H 8223   5.384   6.748   7.005 -0.0951  1.3947 -0.1414
  802MOL0     H 8224   5.596   6.957   6.906 -1.3186  1.1743 -1.2353
  802MOL0     H 8225   5.436   6.964   6.890  0.3748  0.6705 -1.1443
  802MOL0     H 8226   5.611   6.741   6.761  0.3185  1.2476 -5.6469
  802MOL0     H 8227   5.559   6.877   6.685 -0.6802  0.4228 -1.1631
  802MOL0     H 8228   5.451   6.690   6.601  2.4562 -1.3249  1.9811
  802MOL0     H 8229   5.334   6.815   6.646  1.3857  0.7839 -0.1156
  802MOL0     H 8230   5.177   6.488   6.876  3.0673  3.7048 -0.8227
  802MOL0     H 8231   5.268   6.128   6.965 -0.7435  0.1716  0.9540
  802MOL0     H 8232   5.168   6.259   7.016 -1.0584 -2.4132  1.3260
  802MOL0     H 8233   5.114   6.168   6.871 -0.6188  0.2792  0.3871
  802MOL0     H 8234   5.534   6.055   6.448 -3.1898  0.3744  0.5172
  802MOL0     H 8235   5.544   5.876   6.282  0.9482  2.4121  1.1823
  802MOL0     H 8236   5.474   5.618   6.185  0.8712 -3.9777 -1.3567
  802MOL0     H 8237   5.638   5.697   6.209  0.5771 -0.9030 -0.0262
  802MOL0     H 8238   5.571   5.405   6.214  0.8813 -0.0924  0.9750
  802MOL0     H 8239   5.641   5.496   6.080 -1.1599 -1.6093  0.3454
  802MOL0     H 8240   5.763   5.454   6.364  4.0315  3.4150  0.7620
  802MOL0     H 8241   5.831   5.555   6.253  3.0033 -2.2675 -2.7840
  802MOL0     H 8242   5.785   5.261   6.209  0.2494 -0.4671 -0.3440
  802MOL0     H 8243   5.874   5.367   6.099  1.7286 -1.5834  0.1891
  802MOL0     H 8244   6.009   5.222   6.238 -0.1915 -0.4519  1.7024
  802MOL0     H 8245   5.937   5.311   6.379  0.0910  0.4397  0.3412
  802MOL0     H 8246   6.111   5.418   6.144  0.3729  1.1746  0.6330
  802MOL0     H 8247   6.039   5.516   6.271  1.3679  1.6213 -1.4354
  802MOL0     H 8248   6.274   5.323   6.273  1.5444  1.3824  1.2295
  802MOL0     H 8249   6.197   5.329   6.422 -1.4002 -2.0608 -1.2157
  802MOL0     H 8250   6.287   5.552   6.461  1.4119  0.7243  0.6653
  802MOL0     H 8251   6.245   5.605   6.303 -1.8100 -0.0061  3.7556
  802MOL0     H 8252   5.521   5.592   6.599 -0.3919 -0.9392 -3.1223
  802MOL0     H 8253   5.513   5.773   6.766  2.8064 -1.3580 -0.0746
  802MOL0     H 8254   5.550   6.280   6.641  0.2524  0.3896 -1.0822
  802MOL0     H 8255   5.533   6.512   6.651 -1.7086 -1.2388 -2.0685
  802MOL0     H 8256   4.911   6.695   8.365  0.6253 -2.6664 -1.8655
  802MOL0     H 8257   4.764   6.765   8.558 -0.5718  1.0123  0.5721
  802MOL0     H 8258   4.202   6.595   8.678 -0.8914 -1.3698  2.6345
  802MOL0     H 8259   4.053   6.635   8.854  0.2277  0.0456 -0.6195
  802MOL0     H 8260   4.099   6.823   9.243 -1.1678 -1.0155 -1.3974
  802MOL0     H 8261   4.211   6.908   9.161 -1.0542  4.5596 -0.0246
  802MOL0     H 8262   4.044   7.059   9.054  0.1248  0.1270  0.3136
  802MOL0     H 8263   4.055   7.075   9.228 -2.5887 -1.3510  2.0322
  802MOL0     H 8264   3.842   6.943   9.250  1.1713  3.6985  2.3427
  802MOL0     H 8265   3.830   6.941   9.070 -2.4032  0.4495  0.6970
  802MOL0     H 8266   3.774   7.162   9.037 -2.4769 -0.2160  1.2964
  802MOL0     H 8267   3.856   7.212   9.178 -1.6618  1.9963 -0.9728
  802MOL0     H 8268   3.450   7.108   9.271  0.4011  1.1235  1.4231
  802MOL0     H 8269   4.294   6.970   8.971 -1.5962  0.6169  0.3232
  802MOL0     H 8270   4.467   6.915   8.807  0.0611  0.6266  0.2639
  803MOL0     O 8271   9.208   9.386  10.590 -0.6225  0.7718  0.1882
  803MOL0     C 8272   9.285   9.389  10.689 -0.5586 -0.4642 -0.0624
  803MOL0     O 8273   9.389   9.300  10.710  0.1242 -0.0692  0.0361
  803MOL0     C 8274   9.369   9.181  10.640 -1.6965  0.7762 -0.6184
  803MOL0     C 8275   9.310   9.063  10.702 -1.2578 -0.9134  1.4944
  803MOL0     C 8276   9.277   8.955  10.620 -0.3584  0.1404  0.9955
  803MOL0     C 8277   9.313   8.942  10.490 -0.7841 -0.6674 -0.5784
  803MOL0     O 8278   9.285   8.841  10.406 -0.9924 -0.0679  0.3516
  803MOL0     C 8279   9.296   8.713  10.471 -0.3369  0.1655 -0.5354
  803MOL0     C 8280   9.310   8.603  10.363 -0.0690  0.2116  0.0011
  803MOL0     C 8281   9.454   8.606  10.297 -0.2044 -0.5887 -0.3867
  803MOL0     C 8282   9.564   8.573  10.396  0.6767  0.0291  0.3096
  803MOL0     C 8283   9.701   8.546  10.318  0.2169  0.5133 -0.0095
  803MOL0     C 8284   9.824   8.609  10.389  0.1108 -0.6637  0.0646
  803MOL0     C 8285   9.851   8.563  10.535  0.0071  0.1103  0.3692
  803MOL0     C 8286   9.993   8.605  10.586  0.6901  0.4679  0.5254
  803MOL0     N 8287  10.106   8.529  10.511  0.5016  0.5970  0.5305
  803MOL0     C 8288  10.245   8.531  10.540  0.1209  0.5443  0.3144
  803MOL0     C 8289  10.308   8.453  10.446  0.0757  0.6531  0.2393
  803MOL0     C 8290  10.451   8.433  10.418  0.0750  0.2642 -0.5349
  803MOL0     C 8291  10.488   8.532  10.303  0.1853  0.2064  0.3837
  803MOL0     C 8292  10.432   8.491  10.164 -0.0929 -0.2925 -0.4033
  803MOL0     C 8293  10.496   8.362  10.102 -0.5865  0.0819  0.0449
  803MOL0     O 8294  10.643   8.360  10.101 -0.1504 -0.1848  0.2380
  803MOL0     C 8295  10.705   8.278  10.024  0.0287  0.4924  1.0468
  803MOL0     C 8296  10.803   8.336   9.947 -0.8128  0.4701 -0.3012
  803MOL0     C 8297  10.868   8.266   9.841 -0.6332  0.5771  0.2534
  803MOL0     C 8298  10.986   8.332   9.761 -0.0299  0.7780 -0.4014
  803MOL0     C 8299  10.842   8.133   9.818  0.1822 -0.4007 -0.0544
  803MOL0     C 8300  10.890   8.045   9.710 -0.8233 -0.2264 -0.0892
  803MOL0     O 8301  10.904   8.102   9.586 -0.3164  0.5406  0.0738
  803MOL0     C 8302  10.931   8.032   9.466  0.5431 -0.6261 -0.5548
  803MOL0     C 8303  10.869   7.901   9.430  0.5524 -0.4698  0.7479
  803MOL0     C 8304  10.880   7.846   9.302 -0.2006  0.1404  0.3872
  803MOL0     C 8305  10.947   7.922   9.204  1.2930 -0.3122 -0.1501
  803MOL0     O 8306  10.958   7.876   9.073  1.0824  0.4216 -0.3325
  803MOL0     C 8307  10.831   7.844   9.008  0.2213 -0.5337  0.5333
  803MOL0     C 8308  10.861   7.758   8.885 -0.2254 -0.2538  0.3620
  803MOL0     C 8309  10.972   7.824   8.789 -0.1409 -0.3931 -0.2571
  803MOL0     C 8310  10.990   7.739   8.672 -1.0009  0.0260  0.7254
  803MOL0     C 8311  11.077   7.797   8.568 -0.3346 -0.3289 -0.1139
  803MOL0     C 8312  11.222   7.835   8.610 -0.2440  0.2383 -0.4656
  803MOL0     C 8313  11.310   7.736   8.682  0.0476  0.7307 -0.1341
  803MOL0     C 8314  11.350   7.597   8.624  0.0014  0.5155  1.2991
  803MOL0    Cl 8315  11.221   7.496   8.588 -0.1127  0.3193  0.3122
  803MOL0     C 8316  11.012   8.037   9.235  0.7858 -0.1457  0.0659
  803MOL0     C 8317  11.010   8.082   9.365  0.3573 -0.6220 -0.0537
  803MOL0     O 8318  10.914   7.933   9.736  0.0318  0.0655  1.3159
  803MOL0     C 8319  10.752   8.075   9.903  0.6436 -0.4520 -0.8658
  803MOL0     C 8320  10.680   8.146  10.002 -0.3740 -0.3060 -1.0577
  803MOL0     N 8321  10.201   8.393  10.365  0.3915 -0.0244  0.7091
  803MOL0     N 8322  10.088   8.432  10.412  0.1173  0.2812  0.1553
  803MOL0     C 8323   9.385   9.053  10.434  0.8101 -0.6182 -0.3744
  803MOL0     C 8324   9.405   9.173  10.509  0.1505  1.0700 -0.2550
  803MOL0     C 8325   9.268   9.496  10.793  0.0079 -0.3212 -0.3176
  803MOL0     C 8326   9.344   9.504  10.909  0.0995  0.6626 -0.8195
  803MOL0     C 8327   9.339   9.613  10.994  0.5233  0.6312 -0.0783
  803MOL0     C 8328   9.264   9.721  10.964 -0.2098 -0.1225  1.0883
  803MOL0     O 8329   9.255   9.819  11.064 -0.6722 -0.2008 -0.0123
  803MOL0     C 8330   9.197   9.944  11.024  0.1037  0.1983 -0.7369
  803MOL0     C 8331   9.244  10.076  11.093  0.6955  0.6358 -0.1415
  803MOL0     C 8332   9.168  10.194  11.024  0.9946 -0.1467 -0.5592
  803MOL0     C 8333   9.231  10.257  10.904 -0.2696  0.4968 -0.2130
  803MOL0     C 8334   9.225  10.403  10.904  1.0447 -0.1316 -0.8022
  803MOL0     C 8335   9.225  10.524  10.889  0.3477  0.8769 -0.4977
  803MOL0     C 8336   9.184   9.712  10.843 -0.2734 -0.4895  0.9808
  803MOL0     C 8337   9.187   9.603  10.752  0.0328 -0.7098  0.1288
  803MOL0     H 8338   9.269   9.076  10.802  0.4164  1.1743  1.9912
  803MOL0     H 8339   9.203   8.882  10.653 -0.2957  0.3818  1.6787
  803MOL0     H 8340   9.376   8.724  10.545 -1.3528  3.9999  0.2261
  803MOL0     H 8341   9.214   8.677  10.535  2.6630 -0.4649  3.3078
  803MOL0     H 8342   9.284   8.504  10.403  1.7594  0.3151  1.5613
  803MOL0     H 8343   9.228   8.625  10.294  0.2486  1.0977 -0.1075
  803MOL0     H 8344   9.451   8.529  10.219 -2.5605  2.4826 -3.6703
  803MOL0     H 8345   9.462   8.708  10.260  3.1047 -0.1505  1.1085
  803MOL0     H 8346   9.576   8.662  10.458 -3.2120  0.7035  0.3487
  803MOL0     H 8347   9.538   8.482  10.452 -0.9524  1.7924  2.6329
  803MOL0     H 8348   9.714   8.437  10.317  1.7065  0.6620 -1.5233
  803MOL0     H 8349   9.692   8.596  10.221 -0.3876 -0.1272 -0.2954
  803MOL0     H 8350   9.913   8.573  10.336 -0.1946 -1.6634  0.2072
  803MOL0     H 8351   9.820   8.718  10.384  2.6289 -0.4243  1.4017
  803MOL0     H 8352   9.784   8.608  10.609  0.3194 -0.3596  0.9580
  803MOL0     H 8353   9.833   8.456  10.552 -2.2069  0.4674  0.5226
  803MOL0     H 8354  10.003   8.583  10.693  0.8368 -0.1115  0.3973
  803MOL0     H 8355  10.003   8.713  10.572 -1.3595  0.7302  0.8092
  803MOL0     H 8356  10.306   8.573  10.619  0.6247  1.1268 -0.3757
  803MOL0     H 8357  10.508   8.458  10.509 -0.3476  0.5767 -0.3558
  803MOL0     H 8358  10.474   8.327  10.405  0.6118  0.5035 -1.6484
  803MOL0     H 8359  10.593   8.560  10.301 -0.7869  4.5506 -0.2465
  803MOL0     H 8360  10.434   8.623  10.330 -1.4308 -0.1982 -1.2729
  803MOL0     H 8361  10.444   8.569  10.088  0.0912  0.2445  0.1710
  803MOL0     H 8362  10.323   8.481  10.170 -0.5101  3.0205 -0.4091
  803MOL0     H 8363  10.451   8.368  10.002  0.1420  0.0974 -0.2905
  803MOL0     H 8364  10.465   8.267  10.147 -0.8681 -0.4116 -1.1465
  803MOL0     H 8365  10.839   8.436   9.970  0.4154  1.6395 -5.8459
  803MOL0     H 8366  11.062   8.264   9.722 -0.5804 -0.8557  1.2279
  803MOL0     H 8367  10.951   8.382   9.670  0.1066  1.9342  0.1681
  803MOL0     H 8368  11.035   8.414   9.813 -1.6323  1.4107  0.1521
  803MOL0     H 8369  10.836   7.842   9.515  2.8970 -2.7693  0.1825
  803MOL0     H 8370  10.835   7.750   9.279 -0.8994  0.6433 -0.4187
  803MOL0     H 8371  10.776   7.786   9.083 -0.0738 -0.0468  0.7012
  803MOL0     H 8372  10.773   7.930   8.973  2.8364  1.6362  1.1706
  803MOL0     H 8373  10.892   7.657   8.913 -0.0852 -0.8715 -1.8380
  803MOL0     H 8374  10.764   7.740   8.837 -0.4997  0.9368  0.4254
  803MOL0     H 8375  11.064   7.843   8.845 -0.1901 -0.3675 -0.1849
  803MOL0     H 8376  10.932   7.918   8.751  3.6270  0.9277 -1.4108
  803MOL0     H 8377  11.038   7.646   8.702 -2.2220 -0.9691 -0.2804
  803MOL0     H 8378  10.899   7.715   8.616 -0.7257  1.7336 -0.5404
  803MOL0     H 8379  11.033   7.893   8.540 -3.7748 -1.3293  1.3602
  803MOL0     H 8380  11.079   7.708   8.506 -0.3842 -0.1734 -0.3390
  803MOL0     H 8381  11.271   7.846   8.513 -2.3211 -1.7804 -1.8370
  803MOL0     H 8382  11.213   7.934   8.655 -0.5123  0.6484 -1.4084
  803MOL0     H 8383  11.274   7.714   8.783  1.5488  0.2954  0.3436
  803MOL0     H 8384  11.405   7.786   8.700 -0.1597  0.9904  0.2448
  803MOL0     H 8385  11.407   7.531   8.691 -1.2602 -2.5299 -0.3858
  803MOL0     H 8386  11.412   7.604   8.533  1.6695 -4.2479  1.7747
  803MOL0     H 8387  11.075   8.100   9.172  1.7166  0.0743  1.1687
  803MOL0     H 8388  11.066   8.170   9.395  0.6545 -1.0210  0.5793
  803MOL0     H 8389  10.730   7.969   9.902  0.5937 -0.4521 -0.3077
  803MOL0     H 8390  10.613   8.099  10.073  0.4573 -1.5189 -1.0451
  803MOL0     H 8391   9.419   9.051  10.331  1.9489 -0.7915 -0.0103
  803MOL0     H 8392   9.447   9.259  10.458 -4.4303  3.1749 -1.0033
  803MOL0     H 8393   9.413   9.429  10.946 -0.1675  1.4206  1.3546
  803MOL0     H 8394   9.387   9.629  11.090  0.4320  0.7398 -0.0493
  803MOL0     H 8395   9.222   9.963  10.919  2.6808  1.3646 -0.0108
  803MOL0     H 8396   9.089   9.940  11.035  0.2230  1.1485  1.0997
  803MOL0     H 8397   9.351  10.097  11.103  0.8222  0.3906 -0.9230
  803MOL0     H 8398   9.204  10.074  11.194  0.2670  1.4243 -0.2840
  803MOL0     H 8399   9.162  10.272  11.100 -1.2687  0.0340 -0.8539
  803MOL0     H 8400   9.069  10.157  10.999  0.2298  2.2242 -1.3093
  803MOL0     H 8401   9.187  10.207  10.817  1.4150  0.8678 -1.3408
  803MOL0     H 8402   9.336  10.228  10.914 -0.1144  0.6534 -1.2550
  803MOL0     H 8403   9.219  10.631  10.885 -2.5886  0.9208  1.7311
  803MOL0     H 8404   9.119   9.796  10.819  0.7871 -0.3650 -1.8285
  803MOL0     H 8405   9.133   9.601  10.658 -1.7525  2.2004  0.9466
  804MOL0     O 8406   8.204   5.147   2.475 -0.5095 -0.4853 -0.6216
  804MOL0     C 8407   8.315   5.189   2.442  0.0674 -0.1182 -0.6632
  804MOL0     O 8408   8.404   5.245   2.529 -0.2681 -0.6481 -0.6155
  804MOL0     C 8409   8.382   5.284   2.660  0.6298  0.3179  0.9270
  804MOL0     C 8410   8.409   5.418   2.695 -0.0120 -0.6989  0.3904
  804MOL0     C 8411   8.395   5.467   2.824 -0.0846  0.1568 -0.2655
  804MOL0     C 8412   8.361   5.389   2.927  0.3001  0.1297  0.2738
  804MOL0     O 8413   8.353   5.462   3.049 -0.3775  0.6215 -0.0404
  804MOL0     C 8414   8.346   5.372   3.162 -0.4921  0.2574  0.6396
  804MOL0     C 8415   8.432   5.431   3.275 -0.5671  0.1029 -0.1683
  804MOL0     C 8416   8.391   5.567   3.319 -0.1109 -0.7897  0.3327
  804MOL0     C 8417   8.251   5.560   3.376 -0.5090 -0.4846 -0.0153
  804MOL0     C 8418   8.235   5.678   3.476 -0.1317  0.6293  0.7829
  804MOL0     C 8419   8.129   5.640   3.593 -0.6090  0.3243 -0.4740
  804MOL0     C 8420   8.113   5.744   3.714 -0.5090  0.0487  0.1071
  804MOL0     C 8421   8.238   5.761   3.804 -0.3317 -1.0163  0.5755
  804MOL0     N 8422   8.212   5.886   3.894 -0.1097 -0.0094  0.0578
  804MOL0     C 8423   8.140   5.879   4.009  0.0061  0.1701  0.2711
  804MOL0     C 8424   8.144   6.000   4.064  0.2609  0.5134 -0.4499
  804MOL0     C 8425   8.068   6.055   4.193 -0.0246  0.7423  0.0934
  804MOL0     C 8426   7.920   6.018   4.184  0.6889  0.5447 -0.1222
  804MOL0     C 8427   7.849   6.101   4.079 -0.5170  0.2622 -0.3812
  804MOL0     C 8428   7.695   6.124   4.104  0.6594 -0.4442 -0.1405
  804MOL0     O 8429   7.634   6.001   4.070  0.1367  0.5692  0.4036
  804MOL0     C 8430   7.522   5.999   3.992  0.2288  0.3591 -0.0393
  804MOL0     C 8431   7.405   6.048   4.043 -0.3931  0.6788  0.4508
  804MOL0     C 8432   7.308   6.077   3.953  0.3648  0.0170 -0.6079
  804MOL0     C 8433   7.177   6.144   4.003  0.1578 -0.8515  0.0046
  804MOL0     C 8434   7.327   6.058   3.813  0.3930 -0.4587  0.0034
  804MOL0     C 8435   7.225   6.096   3.716  0.9689  0.5675 -0.1294
  804MOL0     O 8436   7.104   6.036   3.732 -0.3076  0.0054  0.0180
  804MOL0     C 8437   7.013   6.058   3.637  0.5657  0.1191 -0.3533
  804MOL0     C 8438   6.887   6.128   3.662 -0.0152 -0.3813 -0.1150
  804MOL0     C 8439   6.799   6.149   3.552  0.0956  0.1875  0.0428
  804MOL0     C 8440   6.829   6.085   3.429  0.3807 -0.1590 -0.7983
  804MOL0     O 8441   6.739   6.099   3.327  0.2135  0.6958  0.8405
  804MOL0     C 8442   6.796   6.166   3.217  0.0517 -0.0761  0.6505
  804MOL0     C 8443   6.696   6.242   3.143 -0.4586 -0.7345  0.0788
  804MOL0     C 8444   6.758   6.288   3.005  0.5633 -0.8116  0.4057
  804MOL0     C 8445   6.688   6.407   2.942 -0.4183 -0.3201  0.8698
  804MOL0     C 8446   6.777   6.492   2.849  0.7779  0.5658  0.1848
  804MOL0     C 8447   6.702   6.630   2.838  0.8528 -0.6900  0.5370
  804MOL0     C 8448   6.755   6.704   2.722 -0.3987  0.5901  0.9579
  804MOL0     C 8449   6.658   6.800   2.646  0.0928 -0.1489  1.1348
  804MOL0    Cl 8450   6.560   6.906   2.738 -0.2840  0.5098 -0.5049
  804MOL0     C 8451   6.938   6.017   3.401 -0.8463 -0.2656  0.2777
  804MOL0     C 8452   7.031   6.001   3.504  0.0341 -0.2322 -0.3076
  804MOL0     O 8453   7.252   6.177   3.621  0.7567  0.0287 -0.3328
  804MOL0     C 8454   7.440   5.999   3.757  0.3175 -0.3191 -0.3869
  804MOL0     C 8455   7.532   5.962   3.859 -1.2221  0.0087  0.3664
  804MOL0     N 8456   8.211   6.086   3.971  0.3596  0.3773 -0.7827
  804MOL0     N 8457   8.265   6.016   3.879 -0.0832 -0.6349  0.3261
  804MOL0     C 8458   8.326   5.249   2.886  1.2088 -1.1041 -0.3890
  804MOL0     C 8459   8.329   5.201   2.756 -0.3828 -0.1242 -0.6688
  804MOL0     C 8460   8.367   5.164   2.311  0.7163 -0.8758 -0.3681
  804MOL0     C 8461   8.506   5.156   2.292 -1.0803 -0.5318 -0.8237
  804MOL0     C 8462   8.555   5.157   2.159 -0.1973  0.4802 -0.5547
  804MOL0     C 8463   8.472   5.154   2.044 -0.3392 -0.1123 -0.3559
  804MOL0     O 8464   8.510   5.150   1.919 -0.2436 -0.6884 -0.2508
  804MOL0     C 8465   8.616   5.238   1.889  0.5432 -0.6953  0.1293
  804MOL0     C 8466   8.686   5.220   1.761 -0.7562 -0.9847  0.1392
  804MOL0     C 8467   8.824   5.295   1.736 -0.0870  0.2119  0.1975
  804MOL0     C 8468   8.880   5.247   1.599 -0.3317  0.7516  0.1023
  804MOL0     C 8469   9.016   5.300   1.589  0.1323  0.0620  0.1002
  804MOL0     C 8470   9.123   5.355   1.569  0.6865 -0.2885  1.0562
  804MOL0     C 8471   8.341   5.147   2.065  0.6214  0.1865  0.7486
  804MOL0     C 8472   8.284   5.157   2.199 -0.1326  0.3230 -0.5522
  804MOL0     H 8473   8.449   5.488   2.622  2.5150 -0.3383  2.0272
  804MOL0     H 8474   8.421   5.567   2.858  0.1110 -0.1334  0.4588
  804MOL0     H 8475   8.245   5.344   3.194  0.1911 -3.0409  0.2479
  804MOL0     H 8476   8.399   5.280   3.136  2.0454  1.5628  0.8399
  804MOL0     H 8477   8.430   5.369   3.365 -2.1050 -0.7234 -0.7355
  804MOL0     H 8478   8.537   5.424   3.245 -0.7733 -0.7169 -0.7414
  804MOL0     H 8479   8.462   5.618   3.386  1.8017  0.2022 -2.2315
  804MOL0     H 8480   8.393   5.639   3.236  1.7970 -0.2540  0.7698
  804MOL0     H 8481   8.177   5.543   3.297 -0.3635  1.0543 -0.5114
  804MOL0     H 8482   8.237   5.470   3.436 -2.5934 -1.7290 -2.1523
  804MOL0     H 8483   8.329   5.709   3.523  0.7537 -1.4118  0.4485
  804MOL0     H 8484   8.206   5.766   3.418  0.3971  0.0889 -0.3304
  804MOL0     H 8485   8.028   5.624   3.552 -0.1195 -1.4988 -1.0795
  804MOL0     H 8486   8.158   5.545   3.639  3.0195 -0.3670 -3.6777
  804MOL0     H 8487   8.079   5.843   3.682 -0.5567  0.6193  1.8545
  804MOL0     H 8488   8.028   5.704   3.769 -0.6090  1.9038  1.4089
  804MOL0     H 8489   8.329   5.779   3.746 -0.1785 -0.3572  1.0130
  804MOL0     H 8490   8.257   5.664   3.850  1.9350 -1.1849 -0.6002
  804MOL0     H 8491   8.091   5.791   4.050  0.1541  0.6589  1.5512
  804MOL0     H 8492   8.110   5.996   4.275 -1.9075 -1.1586 -0.2062
  804MOL0     H 8493   8.085   6.163   4.193  0.2610  0.8568 -4.4288
  804MOL0     H 8494   7.878   6.044   4.281  0.0722  2.8113 -0.9232
  804MOL0     H 8495   7.908   5.910   4.168  0.6044  0.1372  2.2997
  804MOL0     H 8496   7.861   6.065   3.977  1.4265 -5.4672  1.5002
  804MOL0     H 8497   7.899   6.199   4.080 -0.2279  0.1192 -0.7126
  804MOL0     H 8498   7.661   6.203   4.037  0.5692  1.7684  2.3516
  804MOL0     H 8499   7.667   6.169   4.199  1.9678  0.6863 -0.2692
  804MOL0     H 8500   7.398   6.056   4.151  0.1337 -1.0830  0.6548
  804MOL0     H 8501   7.191   6.209   4.090 -2.0730  0.1040 -0.2857
  804MOL0     H 8502   7.134   6.208   3.925  2.5230  2.6824  1.3412
  804MOL0     H 8503   7.108   6.065   4.035 -3.3154  2.2535  0.9148
  804MOL0     H 8504   6.875   6.184   3.754  2.5009  3.1399 -1.7104
  804MOL0     H 8505   6.709   6.208   3.558  0.4593  0.6207  1.7223
  804MOL0     H 8506   6.872   6.240   3.240  0.3895 -0.6165  1.2935
  804MOL0     H 8507   6.846   6.101   3.145  0.5275  1.4684 -0.4533
  804MOL0     H 8508   6.609   6.181   3.117  0.3080 -0.9783 -2.1222
  804MOL0     H 8509   6.665   6.336   3.188  2.8412  2.8057 -4.1497
  804MOL0     H 8510   6.740   6.203   2.938 -0.4326  1.3720 -2.2656
  804MOL0     H 8511   6.866   6.306   3.011  0.5077 -0.7345  1.3332
  804MOL0     H 8512   6.594   6.379   2.894 -0.8203  3.2037 -0.6640
  804MOL0     H 8513   6.643   6.466   3.022 -3.6026  1.9934 -2.3033
  804MOL0     H 8514   6.777   6.445   2.751  0.3089 -0.7663  0.7978
  804MOL0     H 8515   6.879   6.514   2.881  1.2754  1.9852 -2.1302
  804MOL0     H 8516   6.595   6.612   2.832  0.9681 -1.0929 -0.7302
  804MOL0     H 8517   6.716   6.684   2.931  1.7682 -0.9523  0.5649
  804MOL0     H 8518   6.807   6.645   2.646 -1.5972  0.3831  0.2845
  804MOL0     H 8519   6.834   6.771   2.759 -1.6314  1.4936  2.0152
  804MOL0     H 8520   6.594   6.739   2.583  1.0169 -0.2647  0.2819
  804MOL0     H 8521   6.722   6.856   2.576 -2.7405  1.6251 -0.2070
  804MOL0     H 8522   6.957   5.980   3.301  1.7657  1.7769 -0.1036
  804MOL0     H 8523   7.120   5.946   3.474  0.7093  0.9087 -0.4183
  804MOL0     H 8524   7.451   5.986   3.650 -0.4457 -1.6505 -0.3226
  804MOL0     H 8525   7.614   5.900   3.823 -1.1424 -2.2617  4.0191
  804MOL0     H 8526   8.299   5.177   2.963 -1.2041 -0.2658 -0.3352
  804MOL0     H 8527   8.302   5.107   2.709  0.8603 -0.6316 -0.3938
  804MOL0     H 8528   8.579   5.152   2.373 -0.0783 -0.2053 -1.6899
  804MOL0     H 8529   8.663   5.147   2.154 -0.4243 -2.1981 -2.4004
  804MOL0     H 8530   8.577   5.340   1.892 -0.5243 -1.0108 -1.6690
  804MOL0     H 8531   8.700   5.226   1.958  0.0811  3.7341  1.8429
  804MOL0     H 8532   8.608   5.250   1.690 -1.7332 -3.5216  0.0011
  804MOL0     H 8533   8.714   5.114   1.752  2.8870 -0.0513 -1.0946
  804MOL0     H 8534   8.890   5.265   1.818  0.3193  0.9649  0.1608
  804MOL0     H 8535   8.806   5.403   1.743 -2.3522  0.0393 -1.7788
  804MOL0     H 8536   8.814   5.269   1.514  1.5127  0.5797 -1.4545
  804MOL0     H 8537   8.904   5.140   1.597  0.6384  0.9693 -0.9002
  804MOL0     H 8538   9.219   5.385   1.532 -0.3762  0.8660 -0.9324
  804MOL0     H 8539   8.273   5.145   1.980  1.2692 -0.0022  0.2315
  804MOL0     H 8540   8.176   5.155   2.216 -0.1341 -1.9112 -0.5000
  805MOL0     O 8541   1.989   0.612   2.730 -0.3380  0.7991 -0.7726
  805MOL0     C 8542   2.059   0.535   2.797  0.1876  0.7058  0.6486
  805MOL0     O 8543   2.127   0.432   2.735 -0.2795 -0.2225 -0.3108
  805MOL0     C 8544   2.149   0.435   2.594 -0.9346 -0.1276  0.3711
  805MOL0     C 8545   2.184   0.548   2.521 -0.0379  0.9840 -0.3113
  805MOL0     C 8546   2.206   0.537   2.388 -0.1138  0.7126  0.0602
  805MOL0     C 8547   2.192   0.412   2.320 -0.4523 -0.1864 -0.0348
  805MOL0     O 8548   2.218   0.409   2.186  0.2710  1.0203 -0.4861
  805MOL0     C 8549   2.125   0.485   2.103 -0.1652  0.3723  0.0312
  805MOL0     C 8550   2.079   0.393   1.983 -0.3918  0.5373  0.0579
  805MOL0     C 8551   1.975   0.286   1.984  1.3773  0.1744  1.1159
  805MOL0     C 8552   1.842   0.348   2.025  0.3310  0.0167 -0.5585
  805MOL0     C 8553   1.791   0.463   1.937 -0.6534 -0.0322 -0.1579
  805MOL0     C 8554   1.748   0.413   1.796 -0.0727  0.2886  0.2310
  805MOL0     C 8555   1.712   0.544   1.714 -0.6358 -0.5975  0.2943
  805MOL0     C 8556   1.837   0.588   1.628  0.3055  0.3937  0.2344
  805MOL0     N 8557   1.875   0.485   1.518  0.2558  0.0598 -1.0596
  805MOL0     C 8558   1.808   0.445   1.406 -0.3156 -0.8133 -1.0179
  805MOL0     C 8559   1.906   0.413   1.313  1.1762  0.0927  0.6032
  805MOL0     C 8560   1.871   0.401   1.170 -0.1584 -0.7359  0.6629
  805MOL0     C 8561   1.777   0.269   1.148  0.7705 -0.0297  0.0095
  805MOL0     C 8562   1.714   0.271   1.011  0.2912  0.4103 -0.0601
  805MOL0     C 8563   1.587   0.358   1.013 -0.0706  0.6290  0.4088
  805MOL0     O 8564   1.478   0.313   1.097 -0.0527  0.0909 -0.0517
  805MOL0     C 8565   1.445   0.396   1.204 -0.1943 -0.5183 -0.6926
  805MOL0     C 8566   1.383   0.519   1.191  0.5748 -0.4085 -0.2774
  805MOL0     C 8567   1.342   0.609   1.301 -0.2915  0.6765  0.6549
  805MOL0     C 8568   1.294   0.754   1.270 -0.9580 -0.5567 -0.7732
  805MOL0     C 8569   1.354   0.556   1.430 -1.0716 -0.6672  0.8415
  805MOL0     C 8570   1.333   0.629   1.559 -0.5504 -0.2085 -0.5549
  805MOL0     O 8571   1.292   0.557   1.670 -0.7814 -0.5847 -0.1794
  805MOL0     C 8572   1.301   0.630   1.788 -1.4137  0.7448 -0.3838
  805MOL0     C 8573   1.412   0.622   1.878 -0.4473  0.3207 -0.9602
  805MOL0     C 8574   1.420   0.696   1.995  0.0625  0.6764  0.4317
  805MOL0     C 8575   1.310   0.778   2.017  0.4801  0.2066 -0.2841
  805MOL0     O 8576   1.325   0.855   2.130  0.7279 -0.1868 -0.6162
  805MOL0     C 8577   1.201   0.894   2.188  0.6413  0.4209  1.2020
  805MOL0     C 8578   1.238   0.954   2.330  0.1497  0.0863 -0.0447
  805MOL0     C 8579   1.300   1.090   2.296  0.1835  0.5405 -0.8960
  805MOL0     C 8580   1.327   1.164   2.426  0.1916 -0.2722  0.0238
  805MOL0     C 8581   1.433   1.265   2.394  0.2690 -0.4081  0.5394
  805MOL0     C 8582   1.364   1.392   2.328  0.0804  0.6998 -0.6679
  805MOL0     C 8583   1.307   1.475   2.447  0.1862  0.3786 -0.7800
  805MOL0     C 8584   1.284   1.606   2.383  1.0443 -1.0101 -0.5576
  805MOL0    Cl 8585   1.195   1.697   2.515  0.3829 -0.2186 -0.0737
  805MOL0     C 8586   1.207   0.796   1.928  0.1458  0.6723 -1.0543
  805MOL0     C 8587   1.198   0.709   1.820 -1.4375 -1.0433  0.7823
  805MOL0     O 8588   1.361   0.749   1.553  0.0399  0.0111  0.3542
  805MOL0     C 8589   1.397   0.423   1.440  0.1084  0.7827  0.5864
  805MOL0     C 8590   1.453   0.351   1.338 -0.1538  0.1249 -0.3119
  805MOL0     N 8591   2.026   0.408   1.376 -0.1500 -0.4577 -1.2987
  805MOL0     N 8592   2.004   0.443   1.494  0.1321 -0.9173  0.0437
  805MOL0     C 8593   2.163   0.298   2.395  0.4709 -0.2161 -0.3197
  805MOL0     C 8594   2.141   0.312   2.531 -0.3765  0.7733 -0.2143
  805MOL0     C 8595   2.070   0.548   2.940  0.6721  0.3735  0.9172
  805MOL0     C 8596   2.008   0.648   3.011 -0.2393 -0.7537 -0.8102
  805MOL0     C 8597   2.022   0.667   3.149 -0.6482  0.9872 -0.7655
  805MOL0     C 8598   2.078   0.558   3.225  0.9919 -0.1357 -0.5695
  805MOL0     O 8599   2.087   0.550   3.365  0.3665  0.1581  0.5924
  805MOL0     C 8600   2.019   0.646   3.448 -0.8474 -0.1049  0.1752
  805MOL0     C 8601   1.872   0.614   3.463 -0.0379  0.7183  0.3331
  805MOL0     C 8602   1.799   0.586   3.339 -0.4247  0.6524 -0.2027
  805MOL0     C 8603   1.645   0.556   3.354 -0.5801 -0.0922 -0.1555
  805MOL0     C 8604   1.621   0.455   3.454 -0.0364 -0.1827  0.0889
  805MOL0     C 8605   1.587   0.360   3.526  0.6026  0.5472 -0.2905
  805MOL0     C 8606   2.145   0.457   3.161  0.5820  0.6033  0.4387
  805MOL0     C 8607   2.142   0.457   3.024  0.6133  0.0872 -0.4889
  805MOL0     H 8608   2.181   0.648   2.562  1.2549  1.2863 -0.9052
  805MOL0     H 8609   2.231   0.623   2.325  0.3549 -1.6742 -3.2854
  805MOL0     H 8610   2.034   0.528   2.146  0.2985  1.0251  0.3717
  805MOL0     H 8611   2.179   0.569   2.058 -0.5503  0.1169 -0.9315
  805MOL0     H 8612   2.050   0.452   1.896  2.3532  1.3080 -0.4438
  805MOL0     H 8613   2.178   0.361   1.947 -0.4619  0.1970  0.1601
  805MOL0     H 8614   1.962   0.250   1.882  0.8324  1.6622  0.6302
  805MOL0     H 8615   1.997   0.199   2.045 -1.8391 -2.1487 -0.7486
  805MOL0     H 8616   1.762   0.272   2.028  1.5402 -1.2592  0.6280
  805MOL0     H 8617   1.844   0.393   2.125 -2.2522 -2.2098  0.6357
  805MOL0     H 8618   1.703   0.507   1.986 -0.7909  0.4610 -0.8428
  805MOL0     H 8619   1.864   0.545   1.938 -0.3162 -0.2942 -1.6207
  805MOL0     H 8620   1.816   0.344   1.746 -1.8233 -0.7978 -0.7507
  805MOL0     H 8621   1.665   0.346   1.818 -0.0490  0.5623  1.1980
  805MOL0     H 8622   1.631   0.530   1.642  0.8367 -2.0401 -1.1887
  805MOL0     H 8623   1.684   0.624   1.783 -1.0918  1.1226 -1.7773
  805MOL0     H 8624   1.917   0.608   1.699 -0.9264  0.6150  1.6313
  805MOL0     H 8625   1.822   0.678   1.569 -2.3913 -1.4753 -2.2047
  805MOL0     H 8626   1.700   0.442   1.396 -0.4371 -2.1402  0.2897
  805MOL0     H 8627   1.812   0.484   1.131 -0.9803 -2.9589 -3.3979
  805MOL0     H 8628   1.961   0.391   1.109 -1.0234  0.8698 -0.9495
  805MOL0     H 8629   1.705   0.267   1.230  1.4748  0.1805  0.6506
  805MOL0     H 8630   1.831   0.176   1.167  0.0344 -0.5188 -0.2502
  805MOL0     H 8631   1.684   0.172   0.974 -0.0768  0.6893 -0.5199
  805MOL0     H 8632   1.789   0.296   0.935  0.2863  0.5363 -0.0232
  805MOL0     H 8633   1.548   0.368   0.911  2.1509  0.9351 -0.4771
  805MOL0     H 8634   1.609   0.461   1.044 -3.2717  1.0476  1.6625
  805MOL0     H 8635   1.373   0.553   1.088  3.2724  0.0059 -0.4559
  805MOL0     H 8636   1.366   0.833   1.295 -0.1020 -1.9615  1.5468
  805MOL0     H 8637   1.279   0.761   1.162 -1.3526 -0.2838 -0.7019
  805MOL0     H 8638   1.204   0.771   1.330 -0.0184 -0.7340  0.7539
  805MOL0     H 8639   1.501   0.561   1.864  1.2117  2.2471  0.5785
  805MOL0     H 8640   1.504   0.688   2.063 -0.3692  0.7435  0.9867
  805MOL0     H 8641   1.157   0.968   2.121  1.9456  0.5331  0.4459
  805MOL0     H 8642   1.140   0.804   2.205  2.5574 -1.8005 -2.3285
  805MOL0     H 8643   1.154   0.952   2.400  0.2893 -0.0923  0.1194
  805MOL0     H 8644   1.310   0.888   2.380  2.0948  0.6134 -1.9865
  805MOL0     H 8645   1.229   1.149   2.237 -0.2916  0.0607 -0.8082
  805MOL0     H 8646   1.389   1.070   2.235 -1.1027  0.3123 -2.7725
  805MOL0     H 8647   1.239   1.213   2.469 -0.0100  0.6792 -1.4132
  805MOL0     H 8648   1.359   1.094   2.504  0.8713 -1.2312 -1.0834
  805MOL0     H 8649   1.516   1.226   2.335 -1.2012 -0.4359 -1.5934
  805MOL0     H 8650   1.479   1.285   2.492  0.4338 -1.9285  0.8012
  805MOL0     H 8651   1.439   1.454   2.279 -1.6222  2.7106 -0.8916
  805MOL0     H 8652   1.286   1.361   2.257  0.2188  1.7712 -1.3097
  805MOL0     H 8653   1.378   1.476   2.530 -0.2231  3.8182 -0.3517
  805MOL0     H 8654   1.209   1.439   2.480 -0.3143  1.5883 -0.9121
  805MOL0     H 8655   1.232   1.602   2.287 -0.2320 -0.5797  0.0967
  805MOL0     H 8656   1.380   1.657   2.373 -0.2864  2.0284  0.9344
  805MOL0     H 8657   1.122   0.865   1.926  0.8197  1.6307  0.8718
  805MOL0     H 8658   1.124   0.707   1.741  1.1518 -0.8157 -1.8060
  805MOL0     H 8659   1.406   0.383   1.541  2.4910 -3.0545 -0.9275
  805MOL0     H 8660   1.494   0.255   1.368  0.4958  0.6978  0.6588
  805MOL0     H 8661   2.146   0.206   2.339 -2.6499  1.5593 -2.6619
  805MOL0     H 8662   2.127   0.224   2.592  2.1732  0.9858  0.7965
  805MOL0     H 8663   1.955   0.727   2.957 -2.8271 -1.9944 -0.2377
  805MOL0     H 8664   1.963   0.750   3.186 -1.4381  0.9218 -1.8268
  805MOL0     H 8665   2.079   0.665   3.537 -2.2611 -3.4374  2.0368
  805MOL0     H 8666   2.014   0.746   3.403 -1.5400  0.9159  2.3832
  805MOL0     H 8667   1.818   0.687   3.524  2.0216 -0.1040  3.3967
  805MOL0     H 8668   1.877   0.515   3.510  1.7636  0.5403 -0.1937
  805MOL0     H 8669   1.824   0.489   3.296 -1.6561 -0.7257  1.9878
  805MOL0     H 8670   1.790   0.672   3.273 -0.5606 -1.2142 -2.7401
  805MOL0     H 8671   1.596   0.517   3.265 -2.4121  0.1917  0.6898
  805MOL0     H 8672   1.596   0.648   3.385  2.3114  0.4961  3.4314
  805MOL0     H 8673   1.563   0.270   3.579  0.1284 -1.4944 -3.6320
  805MOL0     H 8674   2.189   0.380   3.224  2.5809 -1.8293 -3.5247
  805MOL0     H 8675   2.203   0.378   2.981 -2.1838 -2.5699  0.0481
  806MOL0     O 8676   4.375   2.507   6.502  0.1455  0.2257  0.0388
  806MOL0     C 8677   4.278   2.453   6.544 -0.4355  0.3647 -0.2176
  806MOL0     O 8678   4.265   2.348   6.642  0.4430 -0.1454  0.0184
  806MOL0     C 8679   4.380   2.270   6.643  0.4952 -0.2259 -0.0954
  806MOL0     C 8680   4.411   2.227   6.778  0.5108  0.2495  0.4467
  806MOL0     C 8681   4.530   2.149   6.800  0.9030  0.0984  0.0933
  806MOL0     C 8682   4.601   2.095   6.695  0.1638 -0.9923  0.2641
  806MOL0     O 8683   4.699   1.999   6.723  0.0992  0.7345 -0.8080
  806MOL0     C 8684   4.767   1.930   6.612  0.1455  0.7744 -0.9378
  806MOL0     C 8685   4.672   1.842   6.532  0.0284 -0.1372  1.1529
  806MOL0     C 8686   4.739   1.785   6.408 -0.3845  0.6249  0.4698
  806MOL0     C 8687   4.626   1.732   6.315 -0.1215 -0.2847 -0.6015
  806MOL0     C 8688   4.622   1.576   6.303  0.0100  0.0706 -0.2330
  806MOL0     C 8689   4.534   1.533   6.195 -0.3225  0.4569  0.3227
  806MOL0     C 8690   4.560   1.382   6.163  0.8158 -0.4936 -0.2802
  806MOL0     C 8691   4.452   1.318   6.076 -0.6265 -0.5795  0.6774
  806MOL0     N 8692   4.374   1.223   6.159 -0.0080 -0.7245 -0.4114
  806MOL0     C 8693   4.279   1.243   6.255 -0.2518 -0.1829  0.2898
  806MOL0     C 8694   4.234   1.122   6.280  0.3794 -0.4967 -0.6707
  806MOL0     C 8695   4.135   1.087   6.383  0.0082 -0.3685  0.3766
  806MOL0     C 8696   3.998   1.149   6.352 -0.5317 -0.2992  0.0353
  806MOL0     C 8697   3.892   1.116   6.456  0.7151  0.7036 -0.1488
  806MOL0     C 8698   3.917   1.179   6.591 -0.5515  0.2153 -1.1146
  806MOL0     O 8699   3.811   1.147   6.682  1.1922  0.6921 -0.0665
  806MOL0     C 8700   3.776   1.239   6.779  0.5139  0.7592  0.4691
  806MOL0     C 8701   3.657   1.225   6.851  0.5360  0.0907  0.2637
  806MOL0     C 8702   3.602   1.323   6.936  0.5291  0.3528 -0.0094
  806MOL0     C 8703   3.464   1.305   7.002 -0.3092 -0.7309  0.0341
  806MOL0     C 8704   3.691   1.430   6.966 -0.8037  0.4946  0.5839
  806MOL0     C 8705   3.654   1.546   7.043 -0.3093  0.2807 -0.1971
  806MOL0     O 8706   3.742   1.593   7.124 -0.0293 -0.2310  0.1270
  806MOL0     C 8707   3.745   1.711   7.193  0.2150 -0.4356 -0.2412
  806MOL0     C 8708   3.870   1.741   7.257  0.6845  0.6468  0.4294
  806MOL0     C 8709   3.899   1.863   7.325  0.8442  0.3992  0.3893
  806MOL0     C 8710   3.789   1.959   7.327 -0.5840 -0.4016  0.2723
  806MOL0     O 8711   3.823   2.084   7.391 -0.6042  0.0561 -0.3792
  806MOL0     C 8712   3.762   2.203   7.337 -0.2549 -0.3221 -0.5660
  806MOL0     C 8713   3.839   2.334   7.380  0.5982  0.6584 -0.7448
  806MOL0     C 8714   3.764   2.449   7.310 -0.6154 -0.0919  0.9454
  806MOL0     C 8715   3.817   2.471   7.169 -0.2755 -0.3804 -0.5835
  806MOL0     C 8716   3.703   2.452   7.063 -0.6232 -0.5988  1.0014
  806MOL0     C 8717   3.638   2.590   7.039  0.3351 -0.6677 -0.3843
  806MOL0     C 8718   3.515   2.585   6.947  0.2217  0.2888  0.9270
  806MOL0     C 8719   3.558   2.597   6.800  1.2641 -0.0689  0.2551
  806MOL0    Cl 8720   3.627   2.447   6.725  0.0872 -0.5654  0.4534
  806MOL0     C 8721   3.672   1.932   7.263  2.0805  0.0882 -0.4076
  806MOL0     C 8722   3.655   1.816   7.190  0.1404  0.4513  0.6016
  806MOL0     O 8723   3.542   1.599   7.022 -0.2781 -0.4060 -0.4550
  806MOL0     C 8724   3.816   1.432   6.903  0.9866 -0.5644 -0.4221
  806MOL0     C 8725   3.863   1.343   6.811 -0.5702  0.2174  0.3782
  806MOL0     N 8726   4.301   1.034   6.208  0.1692  0.3516  0.0968
  806MOL0     N 8727   4.389   1.097   6.135  1.0856  0.3250  0.3193
  806MOL0     C 8728   4.570   2.144   6.571  0.2783 -0.3560  0.2654
  806MOL0     C 8729   4.458   2.217   6.540  0.5212 -0.2716 -0.3770
  806MOL0     C 8730   4.151   2.498   6.477  0.4164 -0.3802  0.2374
  806MOL0     C 8731   4.054   2.406   6.458  0.5420 -0.7294  0.5032
  806MOL0     C 8732   3.928   2.443   6.407 -0.9068  0.7948 -0.3331
  806MOL0     C 8733   3.899   2.573   6.380 -0.4229 -1.1499  0.3877
  806MOL0     O 8734   3.775   2.608   6.326 -0.5907 -0.8691  0.3925
  806MOL0     C 8735   3.692   2.668   6.420 -0.5051  0.5429 -0.6266
  806MOL0     C 8736   3.626   2.796   6.354 -0.7802  0.9406  0.0600
  806MOL0     C 8737   3.719   2.916   6.372  0.2819 -0.4675  0.5508
  806MOL0     C 8738   3.665   3.043   6.314  0.7620  0.0227  1.0366
  806MOL0     C 8739   3.534   3.077   6.373  0.6417  0.6794  0.1025
  806MOL0     C 8740   3.438   3.104   6.446 -0.8824  0.4309 -0.9264
  806MOL0     C 8741   3.999   2.672   6.394 -0.5250  1.0293 -0.3720
  806MOL0     C 8742   4.128   2.630   6.437 -0.0623 -0.3360 -0.4331
  806MOL0     H 8743   4.344   2.255   6.858  1.1909  0.0074  1.1091
  806MOL0     H 8744   4.541   2.117   6.904 -0.4029  0.2902  0.3091
  806MOL0     H 8745   4.812   2.014   6.558 -4.1339  2.3754 -2.4631
  806MOL0     H 8746   4.841   1.865   6.659 -0.7348 -0.5339 -1.3164
  806MOL0     H 8747   4.635   1.761   6.595  3.2328 -2.5069  0.2615
  806MOL0     H 8748   4.586   1.905   6.507  0.4679 -0.2563 -0.8576
  806MOL0     H 8749   4.810   1.849   6.355 -0.9487  2.7815  2.1839
  806MOL0     H 8750   4.797   1.700   6.447 -2.7204 -0.7210  1.2052
  806MOL0     H 8751   4.532   1.781   6.343 -1.1956 -1.4501 -2.0403
  806MOL0     H 8752   4.653   1.761   6.213  0.9352  0.3257 -0.1669
  806MOL0     H 8753   4.719   1.530   6.282  0.3072  0.3726  0.4578
  806MOL0     H 8754   4.581   1.533   6.396  0.7286  0.0704  0.0896
  806MOL0     H 8755   4.430   1.556   6.219 -0.3981  2.1224 -1.3516
  806MOL0     H 8756   4.560   1.592   6.106  0.3201  4.0979  2.7070
  806MOL0     H 8757   4.649   1.395   6.102 -1.2238  2.6048 -2.9142
  806MOL0     H 8758   4.571   1.325   6.256 -1.2907  3.1438  2.5189
  806MOL0     H 8759   4.505   1.268   5.995 -0.1882  0.9075 -0.0053
  806MOL0     H 8760   4.393   1.391   6.020 -0.0235  0.2090  1.0460
  806MOL0     H 8761   4.257   1.343   6.292 -1.1161  0.1209 -0.9826
  806MOL0     H 8762   4.130   0.979   6.396  2.0210 -0.6726 -0.8880
  806MOL0     H 8763   4.168   1.118   6.482 -1.2258 -0.6356  0.8831
  806MOL0     H 8764   3.960   1.122   6.252  0.6660 -0.9473 -0.2564
  806MOL0     H 8765   4.004   1.258   6.358 -0.4594 -0.3856  4.3658
  806MOL0     H 8766   3.868   1.009   6.466  1.0308 -0.2033 -5.7544
  806MOL0     H 8767   3.797   1.165   6.430 -0.0205  0.5343  2.0395
  806MOL0     H 8768   3.933   1.287   6.581  0.9243  0.2198  0.7229
  806MOL0     H 8769   4.006   1.136   6.637 -3.0296 -2.6979  1.4151
  806MOL0     H 8770   3.596   1.136   6.840  2.8379 -1.5964  0.4330
  806MOL0     H 8771   3.406   1.397   6.997 -5.7719 -3.7478  0.3464
  806MOL0     H 8772   3.400   1.234   6.949  1.2592  0.7166 -4.2409
  806MOL0     H 8773   3.467   1.271   7.105 -2.4422  1.7901  1.0466
  806MOL0     H 8774   3.940   1.658   7.255 -1.5551 -1.3401 -0.7036
  806MOL0     H 8775   3.997   1.889   7.363 -0.3112  1.4843  2.8337
  806MOL0     H 8776   3.756   2.206   7.228  0.1961  1.1249 -0.5653
  806MOL0     H 8777   3.658   2.199   7.370  0.3190  2.2171  1.9349
  806MOL0     H 8778   3.819   2.341   7.487 -4.1153 -3.1048 -1.0250
  806MOL0     H 8779   3.943   2.339   7.348 -0.7562  1.6508 -5.9101
  806MOL0     H 8780   3.798   2.537   7.366  1.2996  0.6142 -1.1568
  806MOL0     H 8781   3.655   2.443   7.308 -0.7448  1.9263  0.2245
  806MOL0     H 8782   3.879   2.560   7.160  0.1194 -0.6073 -0.1287
  806MOL0     H 8783   3.894   2.398   7.143  0.4031 -0.9906  2.7031
  806MOL0     H 8784   3.628   2.375   7.084 -1.0978 -1.6416 -3.5557
  806MOL0     H 8785   3.757   2.422   6.973 -0.5459 -0.0682  0.8665
  806MOL0     H 8786   3.610   2.624   7.139 -0.7919 -3.8826  0.5154
  806MOL0     H 8787   3.710   2.668   7.011  0.6485  0.9978  4.1028
  806MOL0     H 8788   3.455   2.672   6.976 -0.9630 -1.0546  2.7153
  806MOL0     H 8789   3.443   2.505   6.965 -1.0114  1.4885  1.5452
  806MOL0     H 8790   3.626   2.682   6.793  2.7315 -1.2001  0.3980
  806MOL0     H 8791   3.461   2.622   6.755  3.1478  0.0163 -4.2121
  806MOL0     H 8792   3.598   2.011   7.270  0.2168 -1.6795  1.1585
  806MOL0     H 8793   3.567   1.814   7.127  0.6313 -0.7025 -0.0851
  806MOL0     H 8794   3.879   1.519   6.910 -0.5751  0.7006 -1.3775
  806MOL0     H 8795   3.959   1.356   6.761 -1.7245 -2.5740 -2.9887
  806MOL0     H 8796   4.616   2.103   6.482  0.3543  2.9715 -1.3726
  806MOL0     H 8797   4.438   2.233   6.435 -0.6405 -0.9161 -0.2733
  806MOL0     H 8798   4.076   2.300   6.472 -1.9162 -1.7533 -2.3723
  806MOL0     H 8799   3.848   2.373   6.385 -0.1602 -1.0967  2.3959
  806MOL0     H 8800   3.613   2.606   6.462 -0.2934  0.1389 -0.8162
  806MOL0     H 8801   3.736   2.701   6.515 -1.5609  2.3729 -0.7288
  806MOL0     H 8802   3.525   2.815   6.393 -1.6095  0.8882 -1.9362
  806MOL0     H 8803   3.604   2.775   6.249  0.6391 -0.3459 -0.0118
  806MOL0     H 8804   3.810   2.910   6.311 -0.2771 -2.5794 -0.1657
  806MOL0     H 8805   3.752   2.932   6.475  2.6019 -1.6309  0.0409
  806MOL0     H 8806   3.644   3.022   6.209 -2.1416  0.1080  1.5155
  806MOL0     H 8807   3.738   3.123   6.331  4.5986 -2.4770 -1.9055
  806MOL0     H 8808   3.377   3.141   6.526  1.4060  2.0436  0.2068
  806MOL0     H 8809   3.961   2.773   6.384  0.8308  1.5488 -0.5299
  806MOL0     H 8810   4.196   2.712   6.458 -1.5501  0.8706 -0.1240
  807MOL0     O 8811   8.468   3.775  10.888 -0.2296  0.7240 -0.1095
  807MOL0     C 8812   8.521   3.816  10.789 -0.2708 -0.2396 -0.8080
  807MOL0     O 8813   8.516   3.766  10.662 -0.0785 -0.4714  0.0115
  807MOL0     C 8814   8.431   3.664  10.630 -1.7213  0.8517 -0.5250
  807MOL0     C 8815   8.481   3.536  10.606 -0.1200  0.3324  0.9882
  807MOL0     C 8816   8.398   3.430  10.561  0.1760 -0.8348 -0.0454
  807MOL0     C 8817   8.262   3.459  10.554  0.2202 -0.8531  0.1606
  807MOL0     O 8818   8.180   3.353  10.521  0.4288  0.3288 -0.7075
  807MOL0     C 8819   8.101   3.375  10.408 -0.3811 -0.9416 -0.3943
  807MOL0     C 8820   8.026   3.247  10.365  0.5012  0.6710 -0.2801
  807MOL0     C 8821   7.908   3.288  10.262 -0.6056  0.0120 -0.2829
  807MOL0     C 8822   7.954   3.306  10.116 -0.0492  0.2167  0.4006
  807MOL0     C 8823   7.824   3.298  10.038 -0.4266 -0.2296 -0.5933
  807MOL0     C 8824   7.864   3.309   9.885 -0.0438 -0.1958  0.5205
  807MOL0     C 8825   7.746   3.278   9.795 -0.3808  0.6749 -0.0206
  807MOL0     C 8826   7.644   3.387   9.805 -0.6050  0.4397 -0.1994
  807MOL0     N 8827   7.540   3.381   9.707 -0.8711  0.6999  0.1125
  807MOL0     C 8828   7.416   3.331   9.739 -0.2139  0.3961 -0.1335
  807MOL0     C 8829   7.336   3.368   9.639 -0.9961  1.0505  0.1078
  807MOL0     C 8830   7.192   3.347   9.653  0.8632  0.6863 -0.6030
  807MOL0     C 8831   7.094   3.457   9.601 -0.4092  0.1167  0.3397
  807MOL0     C 8832   6.954   3.398   9.604  0.3150 -0.6929 -0.3665
  807MOL0     C 8833   6.848   3.484   9.540  0.0002 -0.1400  0.5422
  807MOL0     O 8834   6.874   3.516   9.405 -0.0944 -0.4191  0.7674
  807MOL0     C 8835   6.764   3.508   9.311  0.0373 -0.1237  0.3648
  807MOL0     C 8836   6.733   3.619   9.232  0.2427  0.0477  0.0288
  807MOL0     C 8837   6.638   3.608   9.119  0.8855 -0.4055  0.5597
  807MOL0     C 8838   6.609   3.732   9.036 -0.6610 -0.4059  0.3507
  807MOL0     C 8839   6.576   3.475   9.099 -1.4156  0.5616  0.7867
  807MOL0     C 8840   6.478   3.446   8.991  0.3707 -0.1726 -0.3476
  807MOL0     O 8841   6.434   3.315   8.986 -1.0252  0.0995 -0.1717
  807MOL0     C 8842   6.339   3.267   8.900 -0.2592  0.4213  0.6266
  807MOL0     C 8843   6.299   3.323   8.774  0.3654 -0.5966 -0.2316
  807MOL0     C 8844   6.201   3.259   8.694 -0.1614  0.9670 -0.0061
  807MOL0     C 8845   6.141   3.138   8.727 -0.2212  0.3441  0.1435
  807MOL0     O 8846   6.042   3.078   8.652 -0.3048  0.1374 -0.2963
  807MOL0     C 8847   6.051   3.106   8.512 -0.5213  0.3959 -0.3231
  807MOL0     C 8848   5.960   3.007   8.436 -0.1215  0.2245  0.2113
  807MOL0     C 8849   5.937   3.067   8.298 -0.3678 -0.3157  0.2696
  807MOL0     C 8850   5.840   2.988   8.217 -0.0719  0.0783 -0.6017
  807MOL0     C 8851   5.843   3.015   8.070 -0.4344 -0.0954 -0.1865
  807MOL0     C 8852   5.851   3.175   8.040 -0.1971  0.6255  0.2685
  807MOL0     C 8853   5.715   3.236   8.079  0.3957  0.2744 -0.3275
  807MOL0     C 8854   5.704   3.367   8.024  0.0539 -0.3408  0.4444
  807MOL0    Cl 8855   5.855   3.467   8.058  0.6427 -0.6286  0.5519
  807MOL0     C 8856   6.179   3.092   8.855  0.0709  0.7863  1.0090
  807MOL0     C 8857   6.277   3.151   8.930  2.1565 -0.1263 -0.1173
  807MOL0     O 8858   6.433   3.540   8.926 -0.4966 -0.2003 -0.8850
  807MOL0     C 8859   6.625   3.359   9.180 -0.8648 -0.2171  0.2340
  807MOL0     C 8860   6.712   3.383   9.280  0.3359  0.0034 -0.4474
  807MOL0     N 8861   7.406   3.448   9.561 -0.0945 -0.4848 -0.0822
  807MOL0     N 8862   7.524   3.465   9.600 -0.4270  0.8004 -0.0396
  807MOL0     C 8863   8.213   3.590  10.576 -0.9821 -0.0646  0.3799
  807MOL0     C 8864   8.302   3.693  10.614  0.4199  0.6351  0.3967
  807MOL0     C 8865   8.600   3.945  10.803  0.2588  0.4571 -0.9563
  807MOL0     C 8866   8.682   3.999  10.703  0.5582  0.8703 -0.2054
  807MOL0     C 8867   8.751   4.119  10.717 -0.1513  0.9071  0.4355
  807MOL0     C 8868   8.727   4.190  10.835 -0.5642 -0.4610 -0.1821
  807MOL0     O 8869   8.767   4.316  10.852 -0.3372 -0.4740 -0.0261
  807MOL0     C 8870   8.781   4.401  10.734 -0.4558  0.6621  0.9126
  807MOL0     C 8871   8.794   4.540  10.794  0.1225  1.8172  0.0782
  807MOL0     C 8872   8.774   4.646  10.691 -0.0029 -0.1811 -1.0612
  807MOL0     C 8873   8.702   4.764  10.755  0.0613 -0.2421 -0.2552
  807MOL0     C 8874   8.730   4.882  10.681  0.6257 -1.2749 -0.1939
  807MOL0     C 8875   8.760   4.988  10.631 -0.1690 -0.4863 -0.4656
  807MOL0     C 8876   8.652   4.138  10.940  0.3653 -0.0119  0.8181
  807MOL0     C 8877   8.605   4.011  10.923  0.5677 -0.0269 -0.3101
  807MOL0     H 8878   8.586   3.509  10.613 -1.1522 -4.0929  2.5463
  807MOL0     H 8879   8.434   3.329  10.545 -3.9377 -2.1877 -2.3316
  807MOL0     H 8880   8.023   3.450  10.426  2.7620  2.2708  0.9882
  807MOL0     H 8881   8.172   3.398  10.329  1.7568 -0.3246  1.6138
  807MOL0     H 8882   8.091   3.166  10.329 -0.2938 -0.5799  0.9666
  807MOL0     H 8883   7.977   3.211  10.457 -0.3579 -1.1963 -1.4089
  807MOL0     H 8884   7.842   3.201  10.256  0.5351 -0.8097 -1.4206
  807MOL0     H 8885   7.858   3.372  10.311 -1.2237 -1.7430  2.2495
  807MOL0     H 8886   8.002   3.399  10.086  0.9217 -0.8497 -1.5730
  807MOL0     H 8887   8.023   3.224  10.094  2.9272  2.7355 -0.3936
  807MOL0     H 8888   7.782   3.201  10.067  1.3689 -0.7950  0.3066
  807MOL0     H 8889   7.757   3.378  10.072  1.3448  0.3572  1.8095
  807MOL0     H 8890   7.904   3.411   9.886  2.0580 -0.8660  3.9462
  807MOL0     H 8891   7.936   3.230   9.863 -1.5225 -0.9089 -2.1443
  807MOL0     H 8892   7.773   3.271   9.689 -2.4229  0.2172 -0.5597
  807MOL0     H 8893   7.709   3.180   9.827  1.4483 -1.3306 -3.3277
  807MOL0     H 8894   7.690   3.487   9.799 -2.9330  1.7781  2.1695
  807MOL0     H 8895   7.600   3.389   9.905  0.3092  1.0794  0.2118
  807MOL0     H 8896   7.387   3.281   9.831  1.5436  2.6851  1.7895
  807MOL0     H 8897   7.155   3.247   9.631  1.5872 -0.0168  1.1801
  807MOL0     H 8898   7.169   3.348   9.760 -1.7272  2.1844 -1.0832
  807MOL0     H 8899   7.118   3.493   9.501  1.8262  2.6298  1.6416
  807MOL0     H 8900   7.102   3.543   9.668 -0.6363  1.2194 -1.0293
  807MOL0     H 8901   6.919   3.375   9.705 -0.2862  1.5023 -0.0288
  807MOL0     H 8902   6.955   3.303   9.548 -0.4464 -0.2067 -1.2325
  807MOL0     H 8903   6.845   3.580   9.593  4.3950 -0.9564  2.7518
  807MOL0     H 8904   6.752   3.434   9.550 -2.5108  3.6698 -1.9470
  807MOL0     H 8905   6.777   3.715   9.254 -2.5363  1.8647 -1.8104
  807MOL0     H 8906   6.645   3.716   8.934  1.0314  0.3979  0.7948
  807MOL0     H 8907   6.503   3.760   9.029  0.1646  3.6359  1.5491
  807MOL0     H 8908   6.661   3.819   9.078 -1.4224  0.7173 -0.9523
  807MOL0     H 8909   6.331   3.422   8.743  0.2251 -0.5843 -0.3379
  807MOL0     H 8910   6.173   3.305   8.600 -1.6904 -2.4798 -1.4184
  807MOL0     H 8911   6.021   3.209   8.492 -0.1795  0.1882 -2.0460
  807MOL0     H 8912   6.152   3.073   8.483 -1.3865 -4.4858  1.2960
  807MOL0     H 8913   5.999   2.905   8.430 -1.7467 -0.3631 -1.6389
  807MOL0     H 8914   5.859   3.009   8.478 -0.3583  2.7840 -0.3267
  807MOL0     H 8915   6.034   3.060   8.246  0.3657  2.8694  0.9695
  807MOL0     H 8916   5.909   3.172   8.313  0.4959  0.2613 -1.7612
  807MOL0     H 8917   5.861   2.885   8.245  1.8901  1.4050  3.5849
  807MOL0     H 8918   5.739   3.004   8.256  0.4200  1.4769  0.1986
  807MOL0     H 8919   5.752   2.982   8.019 -1.9398  4.0159 -0.5432
  807MOL0     H 8920   5.928   2.970   8.018 -1.8476 -0.3581 -2.3793
  807MOL0     H 8921   5.931   3.241   8.073  1.1346  0.4885 -2.3832
  807MOL0     H 8922   5.857   3.168   7.931  0.7387 -4.5721  0.3673
  807MOL0     H 8923   5.698   3.245   8.187 -0.0214 -0.9360 -0.2753
  807MOL0     H 8924   5.636   3.177   8.031 -1.2726  2.0376  0.0899
  807MOL0     H 8925   5.627   3.428   8.073  2.6324  1.3772  2.6206
  807MOL0     H 8926   5.692   3.357   7.915  0.2015 -0.9361  0.4777
  807MOL0     H 8927   6.127   3.012   8.906  0.4336 -1.0069 -1.2792
  807MOL0     H 8928   6.301   3.119   9.031 -0.5944 -2.5734 -0.1229
  807MOL0     H 8929   6.587   3.259   9.161 -3.3380  0.8367 -0.8078
  807MOL0     H 8930   6.756   3.296   9.329 -0.1957 -1.0238 -1.7299
  807MOL0     H 8931   8.112   3.618  10.550 -0.5976  1.0128  0.0068
  807MOL0     H 8932   8.267   3.793  10.639 -0.1862 -0.0685  2.5087
  807MOL0     H 8933   8.669   3.945  10.610 -0.3459 -5.1662  2.8938
  807MOL0     H 8934   8.803   4.163  10.633  0.1140 -3.7276 -2.1731
  807MOL0     H 8935   8.865   4.375  10.669  0.9569  1.2109  2.4625
  807MOL0     H 8936   8.688   4.399  10.677  1.0976  0.5361 -1.7983
  807MOL0     H 8937   8.893   4.558  10.838 -0.3238  4.8269  0.0474
  807MOL0     H 8938   8.733   4.546  10.884 -0.4079 -0.1652 -0.0904
  807MOL0     H 8939   8.715   4.622  10.602 -3.1602  1.5292  0.4165
  807MOL0     H 8940   8.872   4.690  10.669  1.2718 -1.2638  1.9195
  807MOL0     H 8941   8.742   4.778  10.856  0.3908  0.0503 -0.4255
  807MOL0     H 8942   8.595   4.743  10.755  0.0721 -1.9966 -5.8557
  807MOL0     H 8943   8.781   5.091  10.610 -0.5315 -0.2348  0.3326
  807MOL0     H 8944   8.636   4.201  11.027  1.2972  2.1401 -0.4728
  807MOL0     H 8945   8.556   3.959  11.005  1.2974 -2.6399 -1.4171
  808MOL0     O 8946   8.723   2.628   2.368 -0.1492 -0.2637  0.7378
  808MOL0     C 8947   8.727   2.702   2.269  0.5296  0.4983  1.0556
  808MOL0     O 8948   8.617   2.757   2.217 -0.0679  0.1899 -0.0297
  808MOL0     C 8949   8.496   2.719   2.266  0.1705  0.0791 -0.4062
  808MOL0     C 8950   8.444   2.784   2.382  1.4408  0.2609  0.8695
  808MOL0     C 8951   8.315   2.749   2.423 -0.0294  0.8995  1.6230
  808MOL0     C 8952   8.251   2.645   2.369 -0.5973  0.5013  0.3248
  808MOL0     O 8953   8.119   2.608   2.414 -0.4768 -0.2583 -0.1761
  808MOL0     C 8954   8.116   2.536   2.537 -0.5853 -0.5605 -0.0964
  808MOL0     C 8955   7.980   2.544   2.609  0.2418  0.9751 -0.2172
  808MOL0     C 8956   7.858   2.471   2.534 -0.0206  0.6078 -0.9519
  808MOL0     C 8957   7.729   2.540   2.580  0.5638  0.1709  0.5573
  808MOL0     C 8958   7.615   2.446   2.532  0.9111 -0.3697  0.7703
  808MOL0     C 8959   7.584   2.319   2.611 -0.4695  0.3285 -0.4603
  808MOL0     C 8960   7.457   2.256   2.561 -0.0285  0.0948  0.0763
  808MOL0     C 8961   7.330   2.306   2.625 -0.1358 -1.1978 -0.4130
  808MOL0     N 8962   7.202   2.263   2.565 -0.0957  1.1719  0.5923
  808MOL0     C 8963   7.149   2.141   2.557 -0.5139  1.1342  0.3983
  808MOL0     C 8964   7.041   2.153   2.487  0.1910 -0.0288  0.2071
  808MOL0     C 8965   6.956   2.035   2.477 -0.1221 -0.7139  0.0115
  808MOL0     C 8966   6.938   2.017   2.326 -0.1012  0.4882 -0.6719
  808MOL0     C 8967   6.859   1.885   2.301  0.5669 -0.5120 -0.3372
  808MOL0     C 8968   6.855   1.845   2.151 -0.0113  0.4087  0.3531
  808MOL0     O 8969   6.735   1.784   2.109  0.0471  1.1018  0.7918
  808MOL0     C 8970   6.724   1.727   1.980 -1.4189 -0.1292 -0.2501
  808MOL0     C 8971   6.841   1.707   1.908 -0.2686 -0.3560 -0.8572
  808MOL0     C 8972   6.832   1.670   1.773  0.0787 -0.5539  0.0879
  808MOL0     C 8973   6.961   1.663   1.699 -0.7293  0.0789  0.4608
  808MOL0     C 8974   6.704   1.630   1.719 -0.1552  0.6239 -0.1006
  808MOL0     C 8975   6.686   1.563   1.589  0.0023 -0.3024  0.0426
  808MOL0     O 8976   6.584   1.479   1.576  0.1182  0.7007 -1.3136
  808MOL0     C 8977   6.569   1.408   1.459 -1.1253  0.1113 -0.5352
  808MOL0     C 8978   6.670   1.331   1.400  0.5672 -0.6242  0.1981
  808MOL0     C 8979   6.648   1.271   1.274 -0.2276 -0.5073  0.0435
  808MOL0     C 8980   6.529   1.290   1.205 -0.3080 -1.0674  0.0293
  808MOL0     O 8981   6.522   1.243   1.078 -0.1830 -0.4185  0.0875
  808MOL0     C 8982   6.403   1.267   1.002 -0.4013 -0.0049 -0.5708
  808MOL0     C 8983   6.431   1.224   0.865 -0.2005 -0.2475  0.6259
  808MOL0     C 8984   6.294   1.199   0.786  0.9045 -0.2191  0.5473
  808MOL0     C 8985   6.220   1.066   0.834  0.8929 -1.0260  0.5651
  808MOL0     C 8986   6.076   1.044   0.777 -0.3394  0.6381 -1.0051
  808MOL0     C 8987   6.061   0.984   0.636  0.8705 -1.1649  0.6880
  808MOL0     C 8988   5.908   0.956   0.608  0.3079 -0.3433  0.2562
  808MOL0     C 8989   5.897   0.918   0.453 -0.9442 -0.7629 -0.2176
  808MOL0    Cl 8990   5.920   1.061   0.343 -0.1160  0.0683 -0.1616
  808MOL0     C 8991   6.423   1.353   1.274 -0.3444  0.1410 -1.4672
  808MOL0     C 8992   6.448   1.410   1.396  0.5076  0.7078 -0.7887
  808MOL0     O 8993   6.756   1.600   1.502 -0.0765  0.3401  0.6212
  808MOL0     C 8994   6.592   1.641   1.803  0.2562 -0.4439 -0.2648
  808MOL0     C 8995   6.608   1.687   1.935  0.5582  0.1058 -0.3594
  808MOL0     N 8996   7.028   2.280   2.441  0.2671  0.2561  0.7638
  808MOL0     N 8997   7.138   2.342   2.478 -0.1143 -0.2756  0.6266
  808MOL0     C 8998   8.305   2.575   2.254  0.5354  0.5202 -0.4930
  808MOL0     C 8999   8.422   2.613   2.204 -0.5430 -0.0714 -0.3424
  808MOL0     C 9000   8.853   2.716   2.201  0.4510  0.1138  0.7181
  808MOL0     C 9001   8.866   2.750   2.072 -0.0495 -0.7132 -0.0255
  808MOL0     C 9002   8.992   2.757   2.007 -1.1796 -0.1310  0.2527
  808MOL0     C 9003   9.110   2.740   2.073 -0.4153  0.2888 -0.1411
  808MOL0     O 9004   9.220   2.750   1.987  0.6475 -0.2670  0.0030
  808MOL0     C 9005   9.330   2.679   2.035 -0.7478  0.6098  0.3198
  808MOL0     C 9006   9.422   2.639   1.914  0.8800  0.5001 -0.6173
  808MOL0     C 9007   9.525   2.516   1.939 -0.8639  0.6165 -0.0612
  808MOL0     C 9008   9.662   2.548   1.992 -0.4208  0.0532 -0.4659
  808MOL0     C 9009   9.639   2.626   2.115  0.2821 -0.5539  0.3403
  808MOL0     C 9010   9.611   2.692   2.217  0.5056  0.1594 -0.2977
  808MOL0     C 9011   9.105   2.707   2.212  0.7028 -0.1511  0.4905
  808MOL0     C 9012   8.972   2.702   2.269  0.2185 -0.0958 -0.1761
  808MOL0     H 9013   8.489   2.873   2.424  1.5646 -0.0237  1.3453
  808MOL0     H 9014   8.273   2.799   2.510 -2.4891  1.1082  0.4036
  808MOL0     H 9015   8.134   2.434   2.503 -0.1825  0.7616 -4.6398
  808MOL0     H 9016   8.186   2.581   2.607 -2.8954  5.8810 -1.1477
  808MOL0     H 9017   7.986   2.506   2.711 -0.3494  0.0174 -0.5189
  808MOL0     H 9018   7.940   2.646   2.613 -0.6906  0.6139 -0.1173
  808MOL0     H 9019   7.868   2.460   2.425  2.7847 -1.0233 -0.6481
  808MOL0     H 9020   7.855   2.367   2.569 -0.2840  1.3797  1.5304
  808MOL0     H 9021   7.715   2.540   2.688  0.7646 -2.2702  0.6406
  808MOL0     H 9022   7.713   2.642   2.542  2.8607  0.0092 -1.0390
  808MOL0     H 9023   7.516   2.494   2.529 -0.0377 -2.2706 -0.3211
  808MOL0     H 9024   7.622   2.412   2.428 -1.6995 -2.8737  1.2651
  808MOL0     H 9025   7.671   2.254   2.596  1.9560  3.0362  0.8934
  808MOL0     H 9026   7.584   2.340   2.719  3.8308 -1.9681  0.2349
  808MOL0     H 9027   7.454   2.266   2.453  1.5218  0.0999  0.0044
  808MOL0     H 9028   7.463   2.148   2.580  1.6488  0.5398  2.6604
  808MOL0     H 9029   7.328   2.414   2.614  3.0117 -1.1006 -1.0143
  808MOL0     H 9030   7.332   2.277   2.730  1.4172 -2.1504 -0.6656
  808MOL0     H 9031   7.169   2.042   2.596 -0.4922  0.7714 -0.5078
  808MOL0     H 9032   7.000   1.952   2.534 -2.5901 -0.4825  2.4673
  808MOL0     H 9033   6.860   2.058   2.524  1.3114  2.9830  1.4672
  808MOL0     H 9034   7.038   2.023   2.282 -0.2761  1.5048 -0.9517
  808MOL0     H 9035   6.886   2.101   2.278 -3.0379 -0.0773  1.2269
  808MOL0     H 9036   6.758   1.899   2.339  1.0777 -1.2632  1.4005
  808MOL0     H 9037   6.891   1.797   2.357 -1.4686 -0.8492  0.3632
  808MOL0     H 9038   6.931   1.767   2.146 -0.0438  0.4221 -0.4883
  808MOL0     H 9039   6.885   1.927   2.086  1.0015  1.3264  1.9247
  808MOL0     H 9040   6.941   1.716   1.948 -2.1959  0.0208  4.7518
  808MOL0     H 9041   7.053   1.688   1.752  1.2528 -0.5596 -2.4328
  808MOL0     H 9042   6.967   1.562   1.658 -2.0156  0.5828 -1.0957
  808MOL0     H 9043   6.965   1.740   1.620 -3.0183 -1.2058 -1.0163
  808MOL0     H 9044   6.766   1.318   1.450  0.3410  2.2199  1.5588
  808MOL0     H 9045   6.730   1.209   1.240 -0.9006 -2.1647  1.2623
  808MOL0     H 9046   6.317   1.213   1.041 -1.3585  1.2869 -0.8020
  808MOL0     H 9047   6.380   1.374   0.993 -2.9050 -0.6133 -2.8858
  808MOL0     H 9048   6.501   1.288   0.810  2.6097 -1.3573  2.6705
  808MOL0     H 9049   6.486   1.129   0.868 -2.3241 -1.6214 -0.8977
  808MOL0     H 9050   6.304   1.198   0.678 -0.5758 -1.5390  0.3757
  808MOL0     H 9051   6.231   1.284   0.815  0.1876 -0.0026 -1.4967
  808MOL0     H 9052   6.280   0.979   0.806 -0.2621 -1.2297 -1.5026
  808MOL0     H 9053   6.212   1.069   0.943  0.4169 -1.0383  0.5302
  808MOL0     H 9054   6.035   1.145   0.778 -0.5234  0.5633 -0.8308
  808MOL0     H 9055   6.022   0.970   0.838 -4.0019  2.6249 -1.5289
  808MOL0     H 9056   6.101   1.059   0.567  2.6458 -3.6098 -1.1061
  808MOL0     H 9057   6.126   0.897   0.625  2.5741  0.3338 -2.6897
  808MOL0     H 9058   5.854   1.051   0.613  3.9190  1.8924  0.8037
  808MOL0     H 9059   5.856   0.882   0.668 -4.4761  1.2400 -1.4273
  808MOL0     H 9060   5.804   0.863   0.433 -0.5437 -1.1470 -1.0946
  808MOL0     H 9061   5.973   0.840   0.441 -0.9751 -0.5339 -2.2134
  808MOL0     H 9062   6.324   1.360   1.229 -2.3694 -1.8094  2.1415
  808MOL0     H 9063   6.363   1.460   1.441  0.5854 -0.0838  0.2804
  808MOL0     H 9064   6.502   1.587   1.774  0.3388 -1.8842  1.9598
  808MOL0     H 9065   6.520   1.683   1.998  0.0108 -2.7958 -1.1714
  808MOL0     H 9066   8.237   2.504   2.208 -1.1892  0.5807  1.7806
  808MOL0     H 9067   8.463   2.564   2.116  0.6966  3.6353 -2.0309
  808MOL0     H 9068   8.787   2.764   1.998 -1.8535 -2.3440  1.4630
  808MOL0     H 9069   9.002   2.784   1.902  1.8627  0.2779  0.5479
  808MOL0     H 9070   9.379   2.748   2.105  1.5785 -2.1528  1.6264
  808MOL0     H 9071   9.300   2.593   2.095 -0.8572  0.1732 -0.3493
  808MOL0     H 9072   9.483   2.725   1.884  1.2465 -0.3200 -2.3342
  808MOL0     H 9073   9.347   2.608   1.840  0.3701  4.5612 -2.0499
  808MOL0     H 9074   9.555   2.469   1.845  0.3088 -3.1277  1.9590
  808MOL0     H 9075   9.476   2.434   1.992 -1.3172  0.5239 -0.6148
  808MOL0     H 9076   9.709   2.606   1.912  0.0544 -1.0321 -0.9790
  808MOL0     H 9077   9.725   2.464   2.021  0.3535  0.4457 -0.9672
  808MOL0     H 9078   9.590   2.753   2.303  2.4630  1.3186 -0.5864
  808MOL0     H 9079   9.204   2.692   2.254  1.5467  1.0277 -0.9680
  808MOL0     H 9080   8.971   2.680   2.375 -0.0873 -0.8348 -0.3276
  809MOL0     O 9081   4.860   7.377   6.265  0.3292 -0.0061  0.3699
  809MOL0     C 9082   4.784   7.329   6.353  0.0128 -0.6623 -0.8861
  809MOL0     O 9083   4.752   7.395   6.460  0.3112  0.1365 -0.5252
  809MOL0     C 9084   4.801   7.517   6.483 -0.3497 -0.9687  0.5928
  809MOL0     C 9085   4.733   7.632   6.465  0.3338  0.8065  0.5202
  809MOL0     C 9086   4.782   7.756   6.496  0.8513  0.5736  0.0472
  809MOL0     C 9087   4.900   7.776   6.539  0.3690 -0.6078 -1.0763
  809MOL0     O 9088   4.923   7.915   6.549 -0.4853  0.4296 -0.3592
  809MOL0     C 9089   5.047   7.955   6.602 -0.4374 -0.4657  0.0681
  809MOL0     C 9090   5.074   8.103   6.619  0.2667 -0.7016 -0.9747
  809MOL0     C 9091   4.966   8.182   6.685 -0.5127  0.4583  0.0670
  809MOL0     C 9092   5.003   8.325   6.713 -0.9895 -0.3933 -0.3778
  809MOL0     C 9093   4.879   8.406   6.761 -0.0909  0.1619  0.7131
  809MOL0     C 9094   4.888   8.556   6.731  0.5076  0.6323 -0.1546
  809MOL0     C 9095   5.028   8.610   6.788 -0.7082  0.1293 -0.8056
  809MOL0     C 9096   5.028   8.763   6.788 -0.2627 -0.0501  1.1754
  809MOL0     N 9097   4.964   8.820   6.911  0.8407 -0.2572 -0.5808
  809MOL0     C 9098   5.037   8.890   7.015 -0.1038  1.0952  0.4158
  809MOL0     C 9099   4.946   8.933   7.100  0.0838 -1.4989 -0.2240
  809MOL0     C 9100   4.963   9.018   7.218 -0.6391  0.2474 -0.8218
  809MOL0     C 9101   5.041   9.153   7.180 -0.1084  0.1146 -0.3836
  809MOL0     C 9102   4.960   9.250   7.104  0.5671  0.4828 -0.0902
  809MOL0     C 9103   5.031   9.380   7.064  0.7228 -0.5985  0.1117
  809MOL0     O 9104   5.143   9.356   6.975 -0.3042 -0.2576 -0.0503
  809MOL0     C 9105   5.112   9.353   6.842 -0.6590 -0.6521  0.0477
  809MOL0     C 9106   5.217   9.321   6.758  0.4444 -0.1303 -0.1521
  809MOL0     C 9107   5.202   9.316   6.619 -0.3211 -0.6612  0.4802
  809MOL0     C 9108   5.330   9.308   6.525 -1.4775 -0.7173 -0.0451
  809MOL0     C 9109   5.074   9.326   6.565  0.8160  0.4510 -0.7204
  809MOL0     C 9110   5.045   9.329   6.413  0.1451 -0.7027 -0.6711
  809MOL0     O 9111   4.944   9.417   6.378 -0.5614  0.0108  0.1046
  809MOL0     C 9112   4.913   9.410   6.245  0.8504 -0.0351  0.7157
  809MOL0     C 9113   4.850   9.296   6.181  0.2077 -0.2468 -0.2333
  809MOL0     C 9114   4.822   9.307   6.042  1.4143  0.3285 -0.2778
  809MOL0     C 9115   4.857   9.415   5.965  0.5247 -0.0296  0.2058
  809MOL0     O 9116   4.843   9.428   5.827 -0.7977 -0.0600 -0.4109
  809MOL0     C 9117   4.787   9.312   5.754  0.2377  0.1535 -0.1804
  809MOL0     C 9118   4.787   9.343   5.601  0.1726 -0.2130 -1.3351
  809MOL0     C 9119   4.696   9.456   5.573 -0.0687  0.5270  0.1251
  809MOL0     C 9120   4.675   9.467   5.424  0.3297  0.1929 -0.0622
  809MOL0     C 9121   4.795   9.550   5.360 -0.1226  0.8936  0.3996
  809MOL0     C 9122   4.765   9.693   5.354  0.0860  0.2139  0.0913
  809MOL0     C 9123   4.878   9.787   5.308  0.6352 -0.4540 -0.1366
  809MOL0     C 9124   4.958   9.753   5.181 -0.4090 -0.8913  0.0120
  809MOL0    Cl 9125   4.848   9.802   5.049  0.2825  0.8580 -0.3089
  809MOL0     C 9126   4.919   9.521   6.027  0.0535 -0.0964  0.0592
  809MOL0     C 9127   4.954   9.523   6.161 -0.6140  1.0117 -0.4993
  809MOL0     O 9128   5.106   9.254   6.341  0.7888 -0.4214  0.1466
  809MOL0     C 9129   4.962   9.357   6.651 -0.2204  0.4751  1.1154
  809MOL0     C 9130   4.987   9.369   6.781 -0.5245  0.4903 -0.5114
  809MOL0     N 9131   4.820   8.895   7.050  0.1512  0.2407 -0.5710
  809MOL0     N 9132   4.829   8.834   6.939  0.1692  0.1055  0.1713
  809MOL0     C 9133   4.982   7.665   6.567  0.3808  0.8795 -0.4200
  809MOL0     C 9134   4.929   7.532   6.532  0.1140  0.0373 -0.3371
  809MOL0     C 9135   4.717   7.204   6.318 -0.0702 -0.5963  0.2908
  809MOL0     C 9136   4.762   7.134   6.206  0.2172 -0.6615  0.2296
  809MOL0     C 9137   4.694   7.018   6.175 -0.6784 -0.1962 -0.1470
  809MOL0     C 9138   4.584   6.974   6.245 -0.0849  0.1279  0.2164
  809MOL0     O 9139   4.514   6.873   6.182  0.5256 -0.6878 -0.7896
  809MOL0     C 9140   4.369   6.847   6.204 -0.6379  0.7448  0.2211
  809MOL0     C 9141   4.297   6.939   6.098  0.4765  0.5556 -0.6394
  809MOL0     C 9142   4.329   6.889   5.967  0.3350  0.9168  0.6181
  809MOL0     C 9143   4.230   6.936   5.858 -0.2568  0.1118 -0.2946
  809MOL0     C 9144   4.233   7.087   5.841 -0.0590  0.0356  0.5235
  809MOL0     C 9145   4.221   7.211   5.833 -0.3173 -0.1162  0.6989
  809MOL0     C 9146   4.543   7.053   6.356  0.5849 -0.3418 -0.3172
  809MOL0     C 9147   4.609   7.164   6.388  0.1036 -0.5131 -0.0983
  809MOL0     H 9148   4.635   7.636   6.418  0.9964 -0.1422 -1.0341
  809MOL0     H 9149   4.720   7.838   6.460 -0.6952 -1.9238 -3.6008
  809MOL0     H 9150   5.060   7.892   6.690  1.6412  2.4773  2.0892
  809MOL0     H 9151   5.135   7.932   6.540  3.6396  0.5106  4.8082
  809MOL0     H 9152   5.157   8.101   6.691  1.0460  1.5668 -1.7155
  809MOL0     H 9153   5.111   8.158   6.532 -1.1240  1.1164 -0.4673
  809MOL0     H 9154   4.890   8.182   6.607  0.5435 -0.8639 -1.0039
  809MOL0     H 9155   4.930   8.118   6.766 -0.2416 -2.9531 -2.3451
  809MOL0     H 9156   5.085   8.330   6.787 -0.4583  0.6925 -1.0236
  809MOL0     H 9157   5.050   8.367   6.624  3.8642 -0.8023  1.6426
  809MOL0     H 9158   4.790   8.361   6.717 -0.1156  1.0605 -0.2031
  809MOL0     H 9159   4.878   8.403   6.870 -1.6956 -1.6060  0.6886
  809MOL0     H 9160   4.894   8.570   6.623  4.4928 -1.9526 -0.4842
  809MOL0     H 9161   4.801   8.604   6.776 -0.7722 -1.4049 -0.3225
  809MOL0     H 9162   5.044   8.575   6.891 -2.8646  1.4091  0.0155
  809MOL0     H 9163   5.110   8.564   6.732 -0.4220  0.4502 -0.6587
  809MOL0     H 9164   4.982   8.808   6.699  2.6095 -1.0484 -0.9512
  809MOL0     H 9165   5.134   8.788   6.776 -0.5833  0.1503 -2.3245
  809MOL0     H 9166   5.145   8.904   7.009  0.5402 -3.1398 -2.5022
  809MOL0     H 9167   4.864   9.047   7.254 -0.1157 -0.3297  1.2416
  809MOL0     H 9168   5.013   8.955   7.292 -0.5427 -1.3924 -2.2315
  809MOL0     H 9169   5.133   9.131   7.126  0.0223 -0.7559  0.1754
  809MOL0     H 9170   5.062   9.199   7.277  0.3934 -3.1569  1.2043
  809MOL0     H 9171   4.874   9.276   7.167 -0.0853  2.0729 -1.5677
  809MOL0     H 9172   4.921   9.203   7.013  2.3463  3.5693 -2.6045
  809MOL0     H 9173   5.077   9.427   7.152 -0.7004 -1.1035  1.1555
  809MOL0     H 9174   4.959   9.457   7.036  0.0773 -1.8284 -1.6969
  809MOL0     H 9175   5.318   9.316   6.796  1.3982 -1.9607 -2.5986
  809MOL0     H 9176   5.406   9.370   6.573  0.7577 -2.9817 -0.4658
  809MOL0     H 9177   5.360   9.203   6.521 -5.4189 -1.9768 -1.3900
  809MOL0     H 9178   5.309   9.341   6.422 -4.1644 -1.6714  0.1160
  809MOL0     H 9179   4.826   9.216   6.250  1.2213 -1.3536 -1.1327
  809MOL0     H 9180   4.763   9.224   6.003 -0.3505  0.7732  1.3110
  809MOL0     H 9181   4.843   9.221   5.775  0.0609  0.5568  2.2936
  809MOL0     H 9182   4.685   9.291   5.788 -0.5721 -0.6369 -2.8146
  809MOL0     H 9183   4.889   9.366   5.570  0.4054  0.2033 -0.2965
  809MOL0     H 9184   4.747   9.257   5.545 -2.7219 -0.9883  1.6097
  809MOL0     H 9185   4.711   9.553   5.621  3.5310  1.3635 -2.2489
  809MOL0     H 9186   4.596   9.438   5.613 -0.7194  1.9868 -0.7480
  809MOL0     H 9187   4.661   9.369   5.378 -1.6626  0.2392  0.3396
  809MOL0     H 9188   4.579   9.518   5.416 -0.2461 -0.3743  2.2904
  809MOL0     H 9189   4.820   9.528   5.255 -2.2212  1.2216 -0.2329
  809MOL0     H 9190   4.881   9.527   5.422 -2.2050 -2.5241  2.3474
  809MOL0     H 9191   4.679   9.703   5.286 -0.0446  1.0363  0.3744
  809MOL0     H 9192   4.736   9.728   5.453 -1.8084 -2.2567  0.5000
  809MOL0     H 9193   4.957   9.793   5.383  1.4280  1.4994 -1.0315
  809MOL0     H 9194   4.831   9.884   5.290 -0.3528 -0.6754  1.1341
  809MOL0     H 9195   4.989   9.648   5.185 -0.7527 -1.0018 -0.1553
  809MOL0     H 9196   5.050   9.811   5.183 -1.0565  0.1775 -0.3892
  809MOL0     H 9197   4.940   9.607   5.965 -1.9342 -1.1115 -2.1807
  809MOL0     H 9198   4.997   9.609   6.210  0.0609  2.4506 -3.3885
  809MOL0     H 9199   4.865   9.376   6.607 -0.7444 -2.6419  0.7097
  809MOL0     H 9200   4.907   9.390   6.851  0.5141  3.3682 -0.0765
  809MOL0     H 9201   5.076   7.680   6.618  1.4100  1.6416 -2.4450
  809MOL0     H 9202   4.991   7.443   6.543 -2.7315 -2.0908 -0.1497
  809MOL0     H 9203   4.849   7.162   6.147 -1.1518 -1.1372 -2.1120
  809MOL0     H 9204   4.736   6.968   6.087 -1.0378  1.4376 -1.2838
  809MOL0     H 9205   4.343   6.742   6.184 -1.0132  1.0547 -0.9862
  809MOL0     H 9206   4.347   6.874   6.308 -3.5938 -3.2118  0.8595
  809MOL0     H 9207   4.335   7.038   6.124 -3.4706  2.5592 -1.7219
  809MOL0     H 9208   4.189   6.941   6.115  0.6550 -3.3129  2.4013
  809MOL0     H 9209   4.319   6.780   5.960  0.5581  0.8693  1.0402
  809MOL0     H 9210   4.432   6.912   5.940  0.8341 -1.0298  0.7507
  809MOL0     H 9211   4.126   6.921   5.887 -0.4694  4.4109  1.9943
  809MOL0     H 9212   4.244   6.883   5.763 -3.1221  0.1978 -0.8578
  809MOL0     H 9213   4.217   7.317   5.847  1.2599  0.4020 -2.2366
  809MOL0     H 9214   4.458   7.021   6.415  2.0549  0.5465  2.4745
  809MOL0     H 9215   4.592   7.218   6.480  1.4757  0.8972 -0.6317
  810MOL0     O 9216   5.474   5.348  10.947  0.3396  0.6125 -0.0570
  810MOL0     C 9217   5.390   5.374  10.867 -0.3355  0.5147 -0.5175
  810MOL0     O 9218   5.321   5.279  10.790 -0.3136 -0.0254  0.1438
  810MOL0     C 9219   5.356   5.153  10.801 -0.4874  0.3533  0.1308
  810MOL0     C 9220   5.268   5.062  10.841  0.3728 -0.3668 -0.7503
  810MOL0     C 9221   5.301   4.926  10.849  0.8225 -1.1653 -0.1336
  810MOL0     C 9222   5.425   4.871  10.805  0.3920 -0.0873  0.3950
  810MOL0     O 9223   5.457   4.739  10.795  0.2782 -0.3365  0.0536
  810MOL0     C 9224   5.379   4.645  10.865  0.2483  1.0110  0.4448
  810MOL0     C 9225   5.425   4.505  10.799  0.8819  0.9916 -0.2028
  810MOL0     C 9226   5.353   4.476  10.669 -0.3276 -0.8321  0.4823
  810MOL0     C 9227   5.459   4.403  10.585  1.4769  0.9666 -0.2448
  810MOL0     C 9228   5.568   4.490  10.517  0.1604 -0.0787  0.3667
  810MOL0     C 9229   5.509   4.588  10.414  0.6513  0.0997 -0.5068
  810MOL0     C 9230   5.617   4.669  10.340  0.1141 -0.2213  0.5337
  810MOL0     C 9231   5.564   4.770  10.244 -0.3000 -0.6322 -0.1040
  810MOL0     N 9232   5.670   4.868  10.206 -0.1538  0.9805  0.4143
  810MOL0     C 9233   5.694   4.994  10.256  0.2682  1.0067 -0.1797
  810MOL0     C 9234   5.795   5.042  10.177  0.4491 -1.0107  0.5840
  810MOL0     C 9235   5.863   5.172  10.209  0.6451 -0.2293 -0.1708
  810MOL0     C 9236   5.988   5.147  10.289  0.4886 -0.1447 -0.8648
  810MOL0     C 9237   5.968   5.109  10.440  0.2141 -0.9792 -0.4928
  810MOL0     C 9238   5.880   5.212  10.519 -0.1618 -0.1402  0.5817
  810MOL0     O 9239   5.953   5.342  10.530  0.1138  0.2397 -0.7490
  810MOL0     C 9240   5.924   5.424  10.637  0.1862  1.0384 -0.3249
  810MOL0     C 9241   6.027   5.456  10.715  0.2505 -0.3809  0.1492
  810MOL0     C 9242   6.020   5.544  10.818  0.4274 -0.7696  0.5483
  810MOL0     C 9243   6.142   5.591  10.887 -0.2553 -0.3099  0.4753
  810MOL0     C 9244   5.887   5.588  10.853 -0.3492 -0.4096  0.3590
  810MOL0     C 9245   5.862   5.668  10.974  0.3924 -0.0849  0.5981
  810MOL0     O 9246   5.772   5.617  11.053  0.0869 -0.7027  0.1579
  810MOL0     C 9247   5.762   5.629  11.191  0.4150 -0.6336  0.4959
  810MOL0     C 9248   5.665   5.557  11.253 -1.0404 -0.2498  0.2628
  810MOL0     C 9249   5.633   5.567  11.384 -0.7664 -1.2175  0.2470
  810MOL0     C 9250   5.712   5.638  11.463  1.4983  0.2818  0.3765
  810MOL0     O 9251   5.691   5.637  11.599  0.4909  1.1961  0.8086
  810MOL0     C 9252   5.689   5.503  11.658 -0.0544 -0.5192  0.1635
  810MOL0     C 9253   5.782   5.514  11.787 -0.6837 -0.8826  0.8830
  810MOL0     C 9254   5.824   5.365  11.837  0.9599 -0.2088 -0.6309
  810MOL0     C 9255   5.723   5.282  11.913  0.7719  1.3907 -0.5004
  810MOL0     C 9256   5.769   5.139  11.943 -0.2882  0.4508 -0.9348
  810MOL0     C 9257   5.881   5.116  12.043 -0.3524 -0.4116  0.7312
  810MOL0     C 9258   5.954   4.977  12.047  0.5291 -0.2462 -0.7329
  810MOL0     C 9259   6.076   4.968  12.133  1.0071  1.4777 -0.1035
  810MOL0    Cl 9260   6.024   4.975  12.303  0.2410  0.0976  0.0392
  810MOL0     C 9261   5.822   5.702  11.412 -0.1489 -0.2202 -0.3837
  810MOL0     C 9262   5.849   5.715  11.276 -0.8138  0.3720  0.3668
  810MOL0     O 9263   5.931   5.770  10.983  0.0916  0.1940 -0.4334
  810MOL0     C 9264   5.778   5.546  10.779 -0.3569 -0.0554 -0.0077
  810MOL0     C 9265   5.802   5.460  10.668  0.3364  0.1644 -1.1886
  810MOL0     N 9266   5.826   4.942  10.082 -0.3172  0.8278 -0.0242
  810MOL0     N 9267   5.759   4.843  10.114  0.0812  1.2158  0.1154
  810MOL0     C 9268   5.517   4.974  10.771  0.4925 -0.0378  0.2918
  810MOL0     C 9269   5.486   5.111  10.764  0.3128  0.4560 -0.4227
  810MOL0     C 9270   5.365   5.518  10.843  0.1365  0.5945 -0.0363
  810MOL0     C 9271   5.423   5.622  10.910 -0.3960  0.3510 -0.2622
  810MOL0     C 9272   5.422   5.756  10.869 -0.0215  0.0357  0.2816
  810MOL0     C 9273   5.340   5.788  10.764  0.6433  0.3269 -0.1660
  810MOL0     O 9274   5.331   5.916  10.728  0.9988 -0.0104 -0.3267
  810MOL0     C 9275   5.197   5.953  10.674  0.1883  0.1726 -0.1359
  810MOL0     C 9276   5.168   6.100  10.694 -0.7919  0.0771  0.7492
  810MOL0     C 9277   5.168   6.155  10.841 -0.5905  0.1306  0.3523
  810MOL0     C 9278   5.163   6.305  10.841  0.0946 -0.2476 -0.3193
  810MOL0     C 9279   5.297   6.364  10.809 -1.2176 -0.1850 -0.2374
  810MOL0     C 9280   5.407   6.420  10.818 -0.0547 -0.5868  0.2534
  810MOL0     C 9281   5.269   5.683  10.695 -0.7802  0.6505 -0.0157
  810MOL0     C 9282   5.294   5.549  10.727 -0.9403 -0.8628 -0.8473
  810MOL0     H 9283   5.172   5.091  10.883  0.1958 -0.6586 -0.9510
  810MOL0     H 9284   5.232   4.863  10.905  0.4260  0.2213  0.9905
  810MOL0     H 9285   5.404   4.646  10.971  1.0644 -1.0415  0.3357
  810MOL0     H 9286   5.272   4.664  10.854  0.3327  0.5602 -1.6313
  810MOL0     H 9287   5.534   4.502  10.804  0.8119  0.4127  2.0356
  810MOL0     H 9288   5.383   4.425  10.861 -1.9538  3.7254  1.6886
  810MOL0     H 9289   5.259   4.421  10.682 -3.1641  3.5682  0.8291
  810MOL0     H 9290   5.325   4.571  10.623 -0.1641 -0.0305  1.9923
  810MOL0     H 9291   5.504   4.329  10.651  0.3999  0.1114 -0.4598
  810MOL0     H 9292   5.401   4.348  10.510  3.3327 -1.6884  0.1388
  810MOL0     H 9293   5.641   4.541  10.580  1.3946  1.0664 -1.8752
  810MOL0     H 9294   5.615   4.416  10.452 -1.0796  0.1608 -0.8572
  810MOL0     H 9295   5.441   4.551  10.337  1.3129  1.3849 -1.7710
  810MOL0     H 9296   5.464   4.656  10.486 -2.2350 -1.1461 -1.0081
  810MOL0     H 9297   5.668   4.721  10.422  3.2949 -2.2078 -0.0345
  810MOL0     H 9298   5.695   4.605  10.298  1.4397  1.2565  0.6299
  810MOL0     H 9299   5.471   4.819  10.275 -1.6572 -0.3910 -3.9711
  810MOL0     H 9300   5.536   4.711  10.156 -1.8326  0.3567 -0.3117
  810MOL0     H 9301   5.641   5.044  10.336  0.0991 -1.3552  1.2576
  810MOL0     H 9302   5.890   5.228  10.118 -0.0906 -0.9447 -0.8493
  810MOL0     H 9303   5.790   5.239  10.257 -0.1667 -0.8780 -0.4643
  810MOL0     H 9304   6.030   5.249  10.290 -0.6384  0.3348 -1.0130
  810MOL0     H 9305   6.043   5.069  10.235  1.3590 -0.5631  0.5915
  810MOL0     H 9306   6.060   5.090  10.495  1.0025  1.6064 -0.7944
  810MOL0     H 9307   5.911   5.019  10.466  1.5771 -0.9710  3.1214
  810MOL0     H 9308   5.877   5.166  10.618 -1.3900  2.0795  1.6376
  810MOL0     H 9309   5.783   5.229  10.472  0.1264 -2.3237 -1.0309
  810MOL0     H 9310   6.129   5.420  10.711  0.9149  1.1777  1.6705
  810MOL0     H 9311   6.227   5.528  10.859 -1.5084 -1.1933 -1.5234
  810MOL0     H 9312   6.172   5.691  10.851 -0.5262 -0.2645  0.3772
  810MOL0     H 9313   6.127   5.604  10.994 -1.2445 -2.9767  0.7255
  810MOL0     H 9314   5.606   5.490  11.189  2.6658 -2.4091 -1.2020
  810MOL0     H 9315   5.553   5.500  11.414  1.5393 -4.1564  0.3094
  810MOL0     H 9316   5.590   5.459  11.676  0.9331 -3.8504 -1.6965
  810MOL0     H 9317   5.729   5.423  11.594 -1.2974 -0.8141 -0.2759
  810MOL0     H 9318   5.873   5.568  11.760 -2.7205  0.1795 -5.4318
  810MOL0     H 9319   5.737   5.564  11.873  1.4858 -0.1793  1.6802
  810MOL0     H 9320   5.911   5.372  11.903  2.5065 -2.9259 -2.2133
  810MOL0     H 9321   5.876   5.303  11.764  0.0166 -0.1844 -1.3476
  810MOL0     H 9322   5.679   5.332  12.000 -2.8352 -0.3906 -1.1321
  810MOL0     H 9323   5.635   5.267  11.850 -0.6559 -0.1401  1.7174
  810MOL0     H 9324   5.800   5.091  11.849  1.3325 -1.3684  0.4468
  810MOL0     H 9325   5.682   5.077  11.964  0.7175 -0.1614  1.8088
  810MOL0     H 9326   5.967   5.182  12.027 -1.3519  1.4638  2.5312
  810MOL0     H 9327   5.838   5.131  12.143 -1.9119 -0.6501  0.1245
  810MOL0     H 9328   5.975   4.951  11.943 -1.1936 -1.4164 -0.8377
  810MOL0     H 9329   5.876   4.902  12.067  1.1613 -0.6749  0.2047
  810MOL0     H 9330   6.134   5.051  12.093 -1.1277  1.5065 -3.4975
  810MOL0     H 9331   6.124   4.870  12.124 -1.2829  0.2560  0.3549
  810MOL0     H 9332   5.883   5.772  11.468  1.2732  1.1255 -3.4106
  810MOL0     H 9333   5.923   5.781  11.234 -1.2228  0.5370 -0.1031
  810MOL0     H 9334   5.677   5.576  10.806  0.7730  3.2022  1.0614
  810MOL0     H 9335   5.707   5.437  10.622 -0.1205  1.0408 -0.7042
  810MOL0     H 9336   5.613   4.939  10.734  1.0837  1.0980  0.6874
  810MOL0     H 9337   5.561   5.182  10.728 -0.2212  0.2597 -1.9934
  810MOL0     H 9338   5.495   5.599  10.988 -0.0416  2.1925 -0.0014
  810MOL0     H 9339   5.472   5.844  10.909 -0.4032  1.4906 -2.2184
  810MOL0     H 9340   5.214   5.931  10.568  2.3169 -3.3335  0.7678
  810MOL0     H 9341   5.116   5.885  10.702  0.8326  0.5747  3.0224
  810MOL0     H 9342   5.073   6.120  10.644  0.6657  3.3978 -1.0295
  810MOL0     H 9343   5.244   6.153  10.636 -0.5389  0.2620  1.2449
  810MOL0     H 9344   5.249   6.105  10.895 -2.0383 -2.7357  0.0584
  810MOL0     H 9345   5.080   6.134  10.901  0.2729  0.2794  1.7119
  810MOL0     H 9346   5.137   6.350  10.938  1.2856 -3.6943  1.8037
  810MOL0     H 9347   5.098   6.337  10.760 -1.1082 -1.1932  0.2423
  810MOL0     H 9348   5.497   6.477  10.831 -0.6127  0.0101  1.6963
  810MOL0     H 9349   5.218   5.701  10.601  0.0803 -2.3125 -1.1670
  810MOL0     H 9350   5.248   5.474  10.664 -1.7393  2.0022 -4.0116
  811MOL0     O 9351   9.811   6.574   0.997 -0.1801  0.8546 -0.4425
  811MOL0     C 9352   9.844   6.503   0.898  0.1616 -0.6100  0.1933
  811MOL0     O 9353   9.980   6.452   0.879 -0.4301 -0.6466  0.4702
  811MOL0     C 9354  10.081   6.497   0.965  0.9324  0.1462  0.3005
  811MOL0     C 9355  10.157   6.418   1.048  0.1689 -0.2397 -0.1731
  811MOL0     C 9356  10.271   6.476   1.110  0.7754  0.1939  0.0785
  811MOL0     C 9357  10.299   6.605   1.113 -0.8339  0.0482 -0.2886
  811MOL0     O 9358  10.425   6.646   1.166  0.4065 -0.4418  0.4615
  811MOL0     C 9359  10.442   6.791   1.183  1.0153 -0.0652  0.6042
  811MOL0     C 9360  10.571   6.836   1.249 -0.1196  0.0642  0.8326
  811MOL0     C 9361  10.564   6.984   1.278  0.8304  0.0211  0.5863
  811MOL0     C 9362  10.453   7.039   1.371 -0.0316 -1.1994 -0.1461
  811MOL0     C 9363  10.496   7.182   1.418 -0.4334  0.1462  0.6467
  811MOL0     C 9364  10.587   7.172   1.533  0.6815  0.2094  0.2879
  811MOL0     C 9365  10.516   7.153   1.663 -0.6027 -0.2703  0.2200
  811MOL0     C 9366  10.611   7.106   1.770 -1.1213 -0.8926  0.6012
  811MOL0     N 9367  10.709   7.202   1.820  0.3675 -0.0885  0.0272
  811MOL0     C 9368  10.836   7.217   1.772 -0.2926 -0.1694  0.6281
  811MOL0     C 9369  10.901   7.279   1.877  0.9577 -0.2368 -0.0138
  811MOL0     C 9370  11.039   7.345   1.874  0.2573  0.2148  0.0585
  811MOL0     C 9371  11.130   7.281   1.976 -1.3088 -0.9321  0.2737
  811MOL0     C 9372  11.095   7.293   2.127  0.8222  0.2337 -0.4537
  811MOL0     C 9373  11.218   7.274   2.212  0.0821  0.7011  0.0089
  811MOL0     O 9374  11.328   7.365   2.173 -0.0681  0.1219 -0.8269
  811MOL0     C 9375  11.343   7.485   2.238 -0.2901 -0.4347  0.2811
  811MOL0     C 9376  11.241   7.552   2.315 -0.0656  0.4337  0.1899
  811MOL0     C 9377  11.276   7.683   2.368 -0.5682 -0.3384 -0.1757
  811MOL0     C 9378  11.166   7.756   2.445 -0.6765  0.2262  0.7575
  811MOL0     C 9379  11.404   7.737   2.336  0.0167 -1.0139  0.2871
  811MOL0     C 9380  11.460   7.868   2.392 -0.2142  0.5292  0.0426
  811MOL0     O 9381  11.381   7.925   2.487 -0.5497 -0.9543 -0.0009
  811MOL0     C 9382  11.391   8.061   2.521  0.9922 -0.4542  0.2108
  811MOL0     C 9383  11.481   8.158   2.469 -0.3297  0.0230 -1.0732
  811MOL0     C 9384  11.467   8.290   2.501  0.3679 -0.7352 -0.3905
  811MOL0     C 9385  11.368   8.331   2.599  0.3384  0.6974 -0.4750
  811MOL0     O 9386  11.342   8.457   2.633 -0.6885  0.3297  0.3894
  811MOL0     C 9387  11.447   8.547   2.630 -0.0302  0.2980 -0.1794
  811MOL0     C 9388  11.391   8.691   2.659 -0.4829  0.5886  0.4448
  811MOL0     C 9389  11.295   8.741   2.549 -0.5238  0.5495 -0.5709
  811MOL0     C 9390  11.258   8.882   2.575  0.2064 -0.6232 -0.3498
  811MOL0     C 9391  11.362   8.989   2.547 -0.4508  0.3394  0.2887
  811MOL0     C 9392  11.294   9.105   2.489  0.7622 -0.1151 -0.5345
  811MOL0     C 9393  11.165   9.153   2.580 -0.2505  0.2260  1.1152
  811MOL0     C 9394  11.112   9.290   2.542 -0.9164  0.5761 -0.2196
  811MOL0    Cl 9395  11.089   9.319   2.364 -0.1028  0.0009 -0.1609
  811MOL0     C 9396  11.290   8.237   2.664  0.3721  0.4946 -0.0318
  811MOL0     C 9397  11.300   8.108   2.618 -0.2780  0.0024 -0.2198
  811MOL0     O 9398  11.569   7.907   2.348 -0.3436 -0.4385 -0.4585
  811MOL0     C 9399  11.494   7.673   2.250  0.9489 -0.2102  0.9380
  811MOL0     C 9400  11.462   7.545   2.215 -0.5967 -0.0699  0.2281
  811MOL0     N 9401  10.822   7.288   1.988 -0.5294 -0.1815 -0.2327
  811MOL0     N 9402  10.699   7.249   1.945 -0.1359  0.8919  0.1684
  811MOL0     C 9403  10.214   6.689   1.045 -0.4188 -0.1997  0.4086
  811MOL0     C 9404  10.113   6.634   0.964 -0.0827 -0.5855 -0.0023
  811MOL0     C 9405   9.737   6.457   0.810  0.0455  0.6024  0.8889
  811MOL0     C 9406   9.606   6.469   0.840  0.0268 -0.1724  1.6775
  811MOL0     C 9407   9.504   6.412   0.761  0.7601 -0.1806 -0.6673
  811MOL0     C 9408   9.538   6.351   0.637  1.0156 -1.3407 -0.0487
  811MOL0     O 9409   9.446   6.312   0.542 -0.4232  0.4235  0.9759
  811MOL0     C 9410   9.316   6.367   0.565 -0.6457 -0.2362  0.6730
  811MOL0     C 9411   9.237   6.353   0.430  0.0840 -0.8074  0.2041
  811MOL0     C 9412   9.090   6.419   0.430 -0.7528 -0.3953  0.7726
  811MOL0     C 9413   9.032   6.432   0.290  0.0226  0.3088  0.2670
  811MOL0     C 9414   9.093   6.539   0.220 -0.1894  0.2655  0.6616
  811MOL0     C 9415   9.156   6.623   0.155  0.6657 -0.6697  0.1743
  811MOL0     C 9416   9.674   6.325   0.613  0.1342  0.0313 -0.5680
  811MOL0     C 9417   9.772   6.386   0.694 -0.1163 -0.0120  0.3751
  811MOL0     H 9418  10.144   6.310   1.059 -2.7722  0.0818  0.3896
  811MOL0     H 9419  10.349   6.403   1.131 -0.7317 -1.6491 -0.4890
  811MOL0     H 9420  10.439   6.838   1.084 -1.4235  2.0391  1.5715
  811MOL0     H 9421  10.366   6.840   1.243  0.1967 -0.1738 -0.3141
  811MOL0     H 9422  10.597   6.788   1.344  0.8346  2.0071  1.6208
  811MOL0     H 9423  10.654   6.844   1.179 -0.7090  1.8859  0.2757
  811MOL0     H 9424  10.657   7.013   1.328  0.5580  2.9574 -0.4401
  811MOL0     H 9425  10.572   7.036   1.183 -0.6683  3.8911  2.3486
  811MOL0     H 9426  10.361   7.056   1.314  1.7750  0.0878 -2.9072
  811MOL0     H 9427  10.431   6.987   1.464  0.7487  2.0143  1.9831
  811MOL0     H 9428  10.547   7.221   1.329 -0.9386  1.2886  0.8384
  811MOL0     H 9429  10.410   7.244   1.445 -0.3385 -0.7861  3.3095
  811MOL0     H 9430  10.659   7.090   1.522 -1.5275 -1.8683  0.5248
  811MOL0     H 9431  10.653   7.260   1.536  0.9761  0.2061 -2.8362
  811MOL0     H 9432  10.485   7.254   1.695 -1.4888  0.2502 -2.0969
  811MOL0     H 9433  10.428   7.092   1.642  0.8751 -2.0971 -0.8719
  811MOL0     H 9434  10.663   7.013   1.747  2.5805  1.6766 -2.6255
  811MOL0     H 9435  10.544   7.083   1.854  0.0965 -0.0638  1.8415
  811MOL0     H 9436  10.881   7.186   1.678  0.9193  0.6275  0.9271
  811MOL0     H 9437  11.082   7.312   1.779 -1.8541 -2.2568 -0.1529
  811MOL0     H 9438  11.028   7.452   1.891  2.2710  0.8335 -2.0742
  811MOL0     H 9439  11.233   7.309   1.953 -0.9776 -0.7400  1.9001
  811MOL0     H 9440  11.127   7.172   1.968  3.4384 -1.4822  2.3736
  811MOL0     H 9441  11.020   7.221   2.162  1.1110 -0.9967 -2.1961
  811MOL0     H 9442  11.050   7.391   2.146 -1.3672 -0.3748 -2.0682
  811MOL0     H 9443  11.248   7.170   2.196 -0.6412  0.6786 -1.3689
  811MOL0     H 9444  11.191   7.304   2.314  0.8850 -0.4233  0.5668
  811MOL0     H 9445  11.145   7.502   2.315 -0.3237  0.8137 -2.0971
  811MOL0     H 9446  11.120   7.832   2.382  2.9938  1.4523 -0.7121
  811MOL0     H 9447  11.088   7.685   2.474  0.6219 -2.4743 -1.8092
  811MOL0     H 9448  11.204   7.800   2.538 -0.6198  0.2617  0.7174
  811MOL0     H 9449  11.553   8.143   2.389  1.0965  2.9546 -0.4645
  811MOL0     H 9450  11.528   8.361   2.446  1.1794 -0.6992  0.5331
  811MOL0     H 9451  11.524   8.525   2.705  2.3770  1.0285 -2.2715
  811MOL0     H 9452  11.505   8.555   2.537  0.4593  0.8961  0.1677
  811MOL0     H 9453  11.339   8.680   2.755  2.6303 -0.5166  2.1297
  811MOL0     H 9454  11.469   8.767   2.662 -0.1014  0.2327 -0.1853
  811MOL0     H 9455  11.206   8.678   2.543 -1.9832  2.5879 -1.6771
  811MOL0     H 9456  11.341   8.732   2.450 -2.4697 -0.6396 -1.4538
  811MOL0     H 9457  11.173   8.891   2.507 -1.5172 -1.2037  1.6060
  811MOL0     H 9458  11.208   8.899   2.671  3.4431 -1.9442  1.7527
  811MOL0     H 9459  11.439   8.962   2.474 -0.5689 -1.1437  0.6769
  811MOL0     H 9460  11.416   9.010   2.640 -0.0309 -1.3257  0.4659
  811MOL0     H 9461  11.365   9.185   2.466  0.9881  0.9088  3.0794
  811MOL0     H 9462  11.247   9.073   2.395 -0.8809 -0.2156  0.2783
  811MOL0     H 9463  11.182   9.162   2.687  2.7903  0.8250  0.6596
  811MOL0     H 9464  11.083   9.085   2.553  2.8897 -2.4331 -3.0482
  811MOL0     H 9465  11.177   9.374   2.567 -2.2873  1.8411 -0.7501
  811MOL0     H 9466  11.014   9.315   2.585 -0.5464  2.8622 -0.5884
  811MOL0     H 9467  11.203   8.267   2.721  0.6885 -0.1310  0.8114
  811MOL0     H 9468  11.240   8.031   2.666  2.7829 -0.8400  2.6660
  811MOL0     H 9469  11.592   7.712   2.224  0.5188 -0.7821 -1.8261
  811MOL0     H 9470  11.543   7.483   2.179  1.8498  2.3978  1.2100
  811MOL0     H 9471  10.230   6.795   1.026  3.3217 -0.6709  0.0538
  811MOL0     H 9472  10.064   6.701   0.894 -0.4722  1.4096  2.0644
  811MOL0     H 9473   9.580   6.538   0.920  0.7854 -1.2102  2.8462
  811MOL0     H 9474   9.400   6.425   0.790  0.6067 -1.7116 -0.4299
  811MOL0     H 9475   9.273   6.317   0.652  0.6893  0.2210  1.6113
  811MOL0     H 9476   9.326   6.472   0.597  2.9514 -0.9581  2.4271
  811MOL0     H 9477   9.238   6.249   0.395 -1.8992 -0.0941 -2.2353
  811MOL0     H 9478   9.292   6.401   0.349 -2.1036 -1.4745 -1.7877
  811MOL0     H 9479   9.099   6.519   0.475  2.0972 -0.1979 -0.0090
  811MOL0     H 9480   9.021   6.358   0.488 -1.3307 -1.7528 -1.2387
  811MOL0     H 9481   8.924   6.436   0.304 -0.1590 -2.9795  0.5561
  811MOL0     H 9482   9.061   6.339   0.241  1.5762 -0.1028  1.8609
  811MOL0     H 9483   9.177   6.713   0.101  2.8924 -2.0221 -1.3749
  811MOL0     H 9484   9.698   6.270   0.523  1.3909  1.6358 -1.2666
  811MOL0     H 9485   9.876   6.376   0.663 -0.4523 -1.3240 -0.4665
  812MOL0     O 9486   7.010   0.351   0.382  0.3508  0.4889 -0.9015
  812MOL0     C 9487   7.075   0.253   0.406  0.0868  1.0200 -1.1384
  812MOL0     O 9488   7.097   0.142   0.320  0.3103  0.4214 -0.2204
  812MOL0     C 9489   7.046   0.148   0.197 -0.5788 -0.2849 -0.1390
  812MOL0     C 9490   6.931   0.092   0.159  0.7175 -1.8789 -0.9011
  812MOL0     C 9491   6.884   0.101   0.029  0.3544  0.2252 -0.4234
  812MOL0     C 9492   6.957   0.170  -0.068  0.0022  0.6474 -1.0261
  812MOL0     O 9493   6.921   0.155  -0.197  0.7228 -0.1690 -0.4680
  812MOL0     C 9494   6.919   0.280  -0.251  0.2546 -1.2148 -0.6778
  812MOL0     C 9495   6.876   0.261  -0.401  0.2452  0.1783  0.4143
  812MOL0     C 9496   6.761   0.157  -0.414  0.1956  0.3167  0.9680
  812MOL0     C 9497   6.721   0.134  -0.567  0.4227  0.1065  0.2189
  812MOL0     C 9498   6.623   0.013  -0.594 -0.4241 -0.9798 -0.4097
  812MOL0     C 9499   6.701  -0.103  -0.642 -0.2447  0.5315 -0.8548
  812MOL0     C 9500   6.626  -0.234  -0.637  0.9313 -0.7068  0.9952
  812MOL0     C 9501   6.716  -0.351  -0.608 -0.5779  0.1685 -0.5736
  812MOL0     N 9502   6.814  -0.362  -0.718 -0.7921 -0.4574 -1.0728
  812MOL0     C 9503   6.945  -0.311  -0.704  1.1692 -0.1066  0.3351
  812MOL0     C 9504   6.995  -0.353  -0.820  0.1711 -0.4658 -0.5336
  812MOL0     C 9505   7.142  -0.334  -0.860  0.5282 -0.1556  0.4888
  812MOL0     C 9506   7.242  -0.324  -0.745  0.0894  0.5904  0.2761
  812MOL0     C 9507   7.382  -0.285  -0.787  1.0745 -0.0030  0.3298
  812MOL0     C 9508   7.476  -0.264  -0.675  0.4311 -0.6499 -1.0616
  812MOL0     O 9509   7.421  -0.171  -0.582  0.0514  0.9018  0.3312
  812MOL0     C 9510   7.510  -0.121  -0.496  0.4763  0.3745  1.0703
  812MOL0     C 9511   7.446  -0.035  -0.411  0.8406  0.3203  0.4206
  812MOL0     C 9512   7.501  -0.009  -0.290 -0.2937 -0.2916 -0.4637
  812MOL0     C 9513   7.404   0.063  -0.197  0.1934  0.2297 -0.0145
  812MOL0     C 9514   7.635  -0.040  -0.261  0.5398  0.0094 -0.3614
  812MOL0     C 9515   7.705   0.012  -0.129  0.1140 -0.1356  0.1698
  812MOL0     O 9516   7.795  -0.084  -0.078  0.6682 -0.6943  0.1003
  812MOL0     C 9517   7.858  -0.050   0.043 -0.3977  0.1999  1.3252
  812MOL0     C 9518   7.860  -0.149   0.139 -0.0609 -0.3954  0.6720
  812MOL0     C 9519   7.933  -0.125   0.256 -0.2868  0.4371  0.5357
  812MOL0     C 9520   7.999  -0.005   0.270 -0.4326 -0.2824 -1.2420
  812MOL0     O 9521   8.054   0.029   0.387 -0.5132  0.0112  0.4455
  812MOL0     C 9522   8.194   0.039   0.391 -0.1058  0.0017 -0.8087
  812MOL0     C 9523   8.242   0.173   0.415 -0.1460 -0.1622  0.7653
  812MOL0     C 9524   8.352   0.219   0.326  0.4362 -0.3228  0.2056
  812MOL0     C 9525   8.384   0.372   0.334  0.7863  0.4466 -0.3404
  812MOL0     C 9526   8.444   0.396   0.465 -1.2261  0.1479 -0.9221
  812MOL0     C 9527   8.508   0.541   0.480  0.2433 -0.0033 -0.2936
  812MOL0     C 9528   8.647   0.557   0.416 -0.3489  0.2200  0.1392
  812MOL0     C 9529   8.682   0.701   0.431 -0.0238 -0.4863  0.4521
  812MOL0    Cl 9530   8.571   0.792   0.310  0.2476  0.1407 -0.2273
  812MOL0     C 9531   7.994   0.089   0.169  0.1853 -1.4777  1.2235
  812MOL0     C 9532   7.924   0.071   0.057 -0.1694 -0.8083 -0.4915
  812MOL0     O 9533   7.678   0.120  -0.078 -0.5766 -0.4205  0.1650
  812MOL0     C 9534   7.699  -0.127  -0.350 -0.3524  0.5256  0.1727
  812MOL0     C 9535   7.637  -0.171  -0.467 -0.2128  0.6800 -0.0803
  812MOL0     N 9536   6.901  -0.420  -0.893 -0.1221 -0.2760 -0.6034
  812MOL0     N 9537   6.796  -0.433  -0.824  0.0471 -0.0624  0.3943
  812MOL0     C 9538   7.082   0.227  -0.027 -0.5923 -0.0243  0.1845
  812MOL0     C 9539   7.119   0.224   0.106 -0.1449  0.2136 -0.0698
  812MOL0     C 9540   7.144   0.253   0.540 -0.0664  0.6365 -0.2239
  812MOL0     C 9541   7.208   0.141   0.591  0.6348 -0.4611 -0.0825
  812MOL0     C 9542   7.262   0.145   0.723 -0.3249 -0.5011 -0.2625
  812MOL0     C 9543   7.243   0.263   0.799 -0.2605  0.2556 -0.7291
  812MOL0     O 9544   7.288   0.262   0.933  0.6640 -0.7185  0.7798
  812MOL0     C 9545   7.242   0.154   1.013 -0.6593 -0.3083 -0.3427
  812MOL0     C 9546   7.148   0.195   1.115 -0.2183 -0.3677  0.8931
  812MOL0     C 9547   7.124   0.081   1.213  0.5997 -0.4192 -1.0332
  812MOL0     C 9548   7.249   0.059   1.310  0.1992  1.3694 -0.0869
  812MOL0     C 9549   7.191  -0.001   1.437  0.6834 -0.2175  0.0523
  812MOL0     C 9550   7.152  -0.040   1.547  0.2278 -0.6804 -0.6430
  812MOL0     C 9551   7.172   0.363   0.755 -0.1593 -0.0464 -0.4445
  812MOL0     C 9552   7.131   0.361   0.622 -0.1499  0.3976  0.2992
  812MOL0     H 9553   6.870   0.031   0.225  0.6403 -3.7611 -2.6253
  812MOL0     H 9554   6.789   0.050   0.011  0.1129 -0.7538  2.9445
  812MOL0     H 9555   6.831   0.335  -0.217  1.2403  0.9820 -1.4994
  812MOL0     H 9556   7.007   0.344  -0.243 -0.2212 -0.5628 -0.6483
  812MOL0     H 9557   6.821   0.352  -0.426 -2.4556 -1.2939  0.6198
  812MOL0     H 9558   6.959   0.227  -0.463  0.0086 -3.6001  1.8622
  812MOL0     H 9559   6.791   0.061  -0.370  2.3886  1.5210  2.2721
  812MOL0     H 9560   6.677   0.200  -0.358 -1.5469 -0.5382 -0.8681
  812MOL0     H 9561   6.659   0.222  -0.588  1.4437  0.6583 -0.6031
  812MOL0     H 9562   6.801   0.141  -0.641 -0.0829 -0.6935 -0.4248
  812MOL0     H 9563   6.563   0.001  -0.504 -1.0086  4.6566  0.3522
  812MOL0     H 9564   6.554   0.041  -0.673 -1.6289 -3.5025 -0.3218
  812MOL0     H 9565   6.728  -0.094  -0.748 -0.3095 -0.8862 -1.0197
  812MOL0     H 9566   6.797  -0.106  -0.589  0.1780  0.8270 -1.5750
  812MOL0     H 9567   6.555  -0.224  -0.555 -4.7653 -0.7786 -3.3196
  812MOL0     H 9568   6.552  -0.251  -0.715  0.0559  2.5103  0.9710
  812MOL0     H 9569   6.653  -0.440  -0.595  0.5199 -0.3819  1.3374
  812MOL0     H 9570   6.764  -0.333  -0.512  2.3298 -3.7118 -1.0677
  812MOL0     H 9571   6.989  -0.254  -0.623 -1.8249  4.1905 -0.7333
  812MOL0     H 9572   7.183  -0.413  -0.923 -0.5342 -2.4157  2.5033
  812MOL0     H 9573   7.138  -0.242  -0.920 -0.0911  0.9808  2.1981
  812MOL0     H 9574   7.247  -0.422  -0.696  0.3633 -0.0015 -0.8982
  812MOL0     H 9575   7.202  -0.255  -0.671 -0.2884 -0.9304  1.5527
  812MOL0     H 9576   7.359  -0.199  -0.851 -0.7705 -1.3925 -0.9838
  812MOL0     H 9577   7.419  -0.363  -0.854  3.7220  1.6798 -0.3543
  812MOL0     H 9578   7.577  -0.234  -0.706  0.0989  0.2366 -1.3233
  812MOL0     H 9579   7.498  -0.361  -0.629 -2.3204  0.2713  2.6280
  812MOL0     H 9580   7.354   0.010  -0.445  0.6175  1.1337  2.0250
  812MOL0     H 9581   7.428   0.058  -0.090  2.5755  0.7032 -0.4563
  812MOL0     H 9582   7.401   0.170  -0.220 -0.1623 -0.0736 -1.4950
  812MOL0     H 9583   7.301   0.034  -0.216 -0.5903  2.4084  0.6405
  812MOL0     H 9584   7.799  -0.238   0.121 -2.0310  0.9792  0.1582
  812MOL0     H 9585   7.956  -0.206   0.325  3.6276  0.6839 -0.2262
  812MOL0     H 9586   8.231  -0.028   0.469 -2.2438  1.0985  1.2613
  812MOL0     H 9587   8.245  -0.002   0.303 -0.0973  3.3432 -2.5262
  812MOL0     H 9588   8.176   0.257   0.392  1.0146  0.5866  0.0066
  812MOL0     H 9589   8.270   0.180   0.521 -0.6102 -1.0956  0.9514
  812MOL0     H 9590   8.322   0.198   0.223  2.4887 -2.8901  0.0183
  812MOL0     H 9591   8.439   0.161   0.358  1.8626  1.8915  0.5768
  812MOL0     H 9592   8.450   0.399   0.252 -0.3848  4.0955 -0.2531
  812MOL0     H 9593   8.288   0.425   0.335  0.2706 -0.4514  1.0160
  812MOL0     H 9594   8.533   0.333   0.473 -2.3949 -1.5075 -0.3066
  812MOL0     H 9595   8.368   0.374   0.542 -0.6389 -1.2777 -0.7108
  812MOL0     H 9596   8.438   0.612   0.436 -1.6455 -1.9240 -0.5500
  812MOL0     H 9597   8.509   0.572   0.585 -2.0129  1.4798 -0.6398
  812MOL0     H 9598   8.645   0.526   0.311  4.0742  0.0455 -0.0935
  812MOL0     H 9599   8.704   0.479   0.469 -0.7941 -0.2731 -0.1010
  812MOL0     H 9600   8.778   0.738   0.394 -0.9576  1.9458  0.2592
  812MOL0     H 9601   8.671   0.734   0.535  2.0756  0.8562  0.3210
  812MOL0     H 9602   8.027   0.192   0.183 -5.2297  0.9557 -1.0340
  812MOL0     H 9603   7.915   0.154  -0.012 -3.3311 -0.6137 -0.0243
  812MOL0     H 9604   7.801  -0.161  -0.337 -0.4533  1.1104  3.2952
  812MOL0     H 9605   7.678  -0.243  -0.536 -4.0726  0.9636 -2.9623
  812MOL0     H 9606   7.151   0.277  -0.094  0.1407 -1.2052  0.0308
  812MOL0     H 9607   7.207   0.274   0.144 -0.7546  0.2186  1.3679
  812MOL0     H 9608   7.216   0.054   0.525 -0.3416 -2.3392  2.1481
  812MOL0     H 9609   7.326   0.072   0.772  0.7403  0.9615  0.5857
  812MOL0     H 9610   7.204   0.078   0.945 -1.1751  1.2864 -1.9297
  812MOL0     H 9611   7.328   0.107   1.061  1.3590 -0.6866 -3.9819
  812MOL0     H 9612   7.060   0.240   1.069  1.9216  3.9752  0.5227
  812MOL0     H 9613   7.190   0.273   1.179  1.2667 -1.7948  1.7289
  812MOL0     H 9614   7.090  -0.005   1.155 -2.0813  1.6170 -2.7325
  812MOL0     H 9615   7.032   0.090   1.273  1.2672 -1.9114  0.2924
  812MOL0     H 9616   7.304   0.150   1.337  1.7924  0.7764 -1.2064
  812MOL0     H 9617   7.320  -0.011   1.265  0.6636  1.6481  0.2120
  812MOL0     H 9618   7.127  -0.066   1.648 -1.4987  0.4891 -0.7221
  812MOL0     H 9619   7.160   0.449   0.821  0.0727  1.4247 -2.2136
  812MOL0     H 9620   7.085   0.458   0.606 -2.8626 -0.6922  1.0102
  813MOL0     O 9621   8.304   3.675   0.844 -0.0469 -0.0443 -0.1872
  813MOL0     C 9622   8.382   3.758   0.802 -0.5210  0.6556 -0.4153
  813MOL0     O 9623   8.513   3.774   0.852  0.2571 -0.9026 -0.2929
  813MOL0     C 9624   8.538   3.712   0.973  1.1444 -0.2900 -0.4404
  813MOL0     C 9625   8.666   3.648   0.989  0.2578 -0.3788  0.8445
  813MOL0     C 9626   8.697   3.590   1.108  0.6135 -0.6339  0.4585
  813MOL0     C 9627   8.613   3.587   1.215 -0.2560 -0.1432 -1.3949
  813MOL0     O 9628   8.647   3.525   1.335 -0.1457  0.1249 -0.5668
  813MOL0     C 9629   8.781   3.479   1.359  0.3270  1.2876  0.3377
  813MOL0     C 9630   8.793   3.417   1.490 -0.3970 -0.4510 -0.4514
  813MOL0     C 9631   8.742   3.503   1.599  0.2226  0.0352 -0.0386
  813MOL0     C 9632   8.754   3.441   1.740  0.2949 -0.5265 -0.1090
  813MOL0     C 9633   8.702   3.556   1.839  0.2166 -0.0549  0.3682
  813MOL0     C 9634   8.800   3.669   1.870  0.3329 -0.3786 -0.7205
  813MOL0     C 9635   8.742   3.755   1.968  0.6366 -0.7061 -0.1952
  813MOL0     C 9636   8.847   3.827   2.056  0.1851 -0.1050  0.3183
  813MOL0     N 9637   8.963   3.908   1.990  0.4363  0.2506  0.1005
  813MOL0     C 9638   9.082   3.949   2.051  0.0093  0.4912 -0.2197
  813MOL0     C 9639   9.161   4.004   1.954  0.8346 -0.2314  0.9343
  813MOL0     C 9640   9.297   4.060   1.974  0.0291 -0.7634  1.6317
  813MOL0     C 9641   9.378   4.087   1.850 -0.2272  0.6322  0.4518
  813MOL0     C 9642   9.389   3.964   1.755 -0.2785 -0.2546  0.6648
  813MOL0     C 9643   9.531   3.954   1.696  0.5746 -0.3435 -0.7899
  813MOL0     O 9644   9.540   3.856   1.586 -0.1329  0.3869 -0.3626
  813MOL0     C 9645   9.555   3.905   1.469  0.0830 -0.2723  0.6064
  813MOL0     C 9646   9.678   3.914   1.400 -0.2799 -0.2327 -0.0777
  813MOL0     C 9647   9.687   3.960   1.273 -0.2119 -0.1401 -0.2587
  813MOL0     C 9648   9.827   3.958   1.210  0.2832 -0.1115 -0.6495
  813MOL0     C 9649   9.578   4.018   1.211  0.5721  0.3008 -1.0540
  813MOL0     C 9650   9.596   4.088   1.080 -0.8236 -1.1248  1.3057
  813MOL0     O 9651   9.504   4.074   0.974  0.8827 -0.5793 -0.8617
  813MOL0     C 9652   9.497   4.165   0.868 -1.2572  0.8434 -0.2458
  813MOL0     C 9653   9.498   4.303   0.881  0.2804 -1.0255  0.4331
  813MOL0     C 9654   9.506   4.387   0.776 -1.0445  0.2269 -0.0761
  813MOL0     C 9655   9.541   4.341   0.649  0.0698  0.2829 -0.6246
  813MOL0     O 9656   9.583   4.413   0.540 -0.1378 -0.3867  0.6553
  813MOL0     C 9657   9.598   4.554   0.555  0.0507  0.8595 -0.8232
  813MOL0     C 9658   9.500   4.637   0.480  0.2254 -0.3052  0.9753
  813MOL0     C 9659   9.550   4.778   0.437 -0.2994 -0.7387 -0.4319
  813MOL0     C 9660   9.510   4.887   0.537  0.6230 -0.3150  0.4531
  813MOL0     C 9661   9.587   5.011   0.488  0.1928 -0.3019  0.5334
  813MOL0     C 9662   9.658   5.090   0.599  0.2690 -0.2682 -0.2691
  813MOL0     C 9663   9.548   5.134   0.712 -0.7394 -0.6991  0.2534
  813MOL0     C 9664   9.581   5.276   0.749 -0.4809  0.2949 -0.1282
  813MOL0    Cl 9665   9.745   5.282   0.823  0.0603  0.3946 -0.6023
  813MOL0     C 9666   9.514   4.204   0.628 -0.1182  0.3180 -0.4905
  813MOL0     C 9667   9.506   4.120   0.737  0.7146  0.0343  0.3473
  813MOL0     O 9668   9.688   4.168   1.073  0.9093 -0.3074 -0.8164
  813MOL0     C 9669   9.451   3.997   1.273  0.0283  0.7906  0.8087
  813MOL0     C 9670   9.440   3.953   1.397  0.0913 -0.1199 -0.7504
  813MOL0     N 9671   9.084   4.009   1.844 -0.4071 -0.6813  0.0026
  813MOL0     N 9672   8.973   3.942   1.858 -0.2654  0.3326 -0.3984
  813MOL0     C 9673   8.489   3.643   1.205  0.4918 -0.2977  0.3803
  813MOL0     C 9674   8.450   3.713   1.085  0.9766 -0.0763 -0.4089
  813MOL0     C 9675   8.333   3.838   0.700  0.4523  0.4076 -0.0219
  813MOL0     C 9676   8.203   3.832   0.651  0.8309 -0.5219 -0.6497
  813MOL0     C 9677   8.170   3.916   0.542  0.3612 -0.3562 -0.3316
  813MOL0     C 9678   8.251   4.017   0.488  0.0031  0.9065  0.0946
  813MOL0     O 9679   8.184   4.092   0.390 -0.7230  0.2014 -0.4266
  813MOL0     C 9680   8.267   4.191   0.325 -0.2357 -0.7137 -1.1086
  813MOL0     C 9681   8.366   4.124   0.223 -0.1083 -0.3134 -0.2315
  813MOL0     C 9682   8.502   4.207   0.188  0.0101 -0.6315 -0.4054
  813MOL0     C 9683   8.463   4.330   0.123  0.7216  0.1226  0.7465
  813MOL0     C 9684   8.570   4.398   0.057  0.0753  0.0112 -0.8959
  813MOL0     C 9685   8.669   4.454   0.024  0.5639 -0.7926 -0.2513
  813MOL0     C 9686   8.384   4.020   0.535 -0.6929 -0.0868 -0.2897
  813MOL0     C 9687   8.424   3.932   0.640 -0.3765  0.2661 -0.6020
  813MOL0     H 9688   8.725   3.631   0.899 -0.4648  2.9817 -0.3845
  813MOL0     H 9689   8.794   3.541   1.115 -1.5343 -5.1577  2.5661
  813MOL0     H 9690   8.817   3.407   1.285  1.6643  1.5375  0.7114
  813MOL0     H 9691   8.849   3.565   1.362  0.3612  1.2460  0.7475
  813MOL0     H 9692   8.726   3.330   1.486 -2.1034  0.6526  2.0682
  813MOL0     H 9693   8.898   3.387   1.497 -0.2305  0.1475 -0.4056
  813MOL0     H 9694   8.799   3.597   1.599  1.6713 -0.8232 -0.4748
  813MOL0     H 9695   8.637   3.527   1.577  0.4216  0.3996 -0.6083
  813MOL0     H 9696   8.698   3.348   1.749 -0.0214 -0.3037  0.2683
  813MOL0     H 9697   8.859   3.415   1.751  0.5405  0.6208  0.4666
  813MOL0     H 9698   8.616   3.607   1.794  0.6023 -1.2075 -1.8258
  813MOL0     H 9699   8.660   3.505   1.926 -0.2481  0.5989  0.5349
  813MOL0     H 9700   8.894   3.620   1.898 -1.0013 -1.4764  2.2742
  813MOL0     H 9701   8.817   3.737   1.786  2.1450  0.5850  0.3691
  813MOL0     H 9702   8.671   3.816   1.912 -0.6235 -2.5384 -0.7259
  813MOL0     H 9703   8.670   3.697   2.026 -0.3374  0.5025 -0.1548
  813MOL0     H 9704   8.887   3.753   2.125 -1.8935 -0.6436  1.0395
  813MOL0     H 9705   8.796   3.906   2.112  1.0556  0.3538  0.4734
  813MOL0     H 9706   9.088   3.936   2.159  3.3259  1.2035 -0.2255
  813MOL0     H 9707   9.276   4.154   2.025 -1.0298 -1.2079  2.0425
  813MOL0     H 9708   9.354   3.990   2.036 -0.5332 -3.0017 -0.2373
  813MOL0     H 9709   9.480   4.122   1.866  0.0241  0.7345 -1.2312
  813MOL0     H 9710   9.333   4.171   1.797 -1.4022  1.1321  2.1697
  813MOL0     H 9711   9.323   3.981   1.670  1.2348  3.3332  0.0159
  813MOL0     H 9712   9.364   3.869   1.804  2.7457 -2.0524 -0.9426
  813MOL0     H 9713   9.595   3.915   1.776 -0.0250 -2.2519 -1.1814
  813MOL0     H 9714   9.571   4.053   1.672 -0.1846  1.3673  3.9457
  813MOL0     H 9715   9.767   3.885   1.456  0.3966 -1.1182 -1.5587
  813MOL0     H 9716   9.882   4.042   1.254  2.5188 -1.5459 -0.5832
  813MOL0     H 9717   9.883   3.870   1.242  1.1984 -0.4902 -3.1093
  813MOL0     H 9718   9.832   3.965   1.101  0.5285  1.4273 -0.5625
  813MOL0     H 9719   9.486   4.347   0.980  6.3861  1.2444  0.5410
  813MOL0     H 9720   9.500   4.495   0.791  4.0426  1.2906 -3.1143
  813MOL0     H 9721   9.600   4.578   0.661 -1.4984  0.2761 -0.6325
  813MOL0     H 9722   9.701   4.575   0.525  0.2247 -0.3861 -1.1346
  813MOL0     H 9723   9.489   4.577   0.389 -2.1025  1.0068  0.3073
  813MOL0     H 9724   9.408   4.656   0.536 -0.9780  1.6164 -1.4701
  813MOL0     H 9725   9.497   4.817   0.349 -3.8617  0.5157  2.0401
  813MOL0     H 9726   9.657   4.769   0.420 -0.0446 -1.1592  1.2382
  813MOL0     H 9727   9.403   4.910   0.531  0.3065 -0.4691  3.7386
  813MOL0     H 9728   9.536   4.883   0.643  1.2731  2.6919  0.4972
  813MOL0     H 9729   9.516   5.075   0.434 -1.6734 -0.8406  2.2148
  813MOL0     H 9730   9.674   4.986   0.426  0.6983  3.4645 -0.5260
  813MOL0     H 9731   9.732   5.025   0.647 -2.1998 -2.1644  1.2286
  813MOL0     H 9732   9.707   5.174   0.548  1.0836 -0.1667  0.6638
  813MOL0     H 9733   9.545   5.070   0.800 -3.0681  0.7436  1.3232
  813MOL0     H 9734   9.446   5.129   0.672 -2.0412  4.0827  2.2279
  813MOL0     H 9735   9.507   5.301   0.826  0.7216  1.7531  0.5968
  813MOL0     H 9736   9.573   5.338   0.659  2.0576  0.1104 -0.5558
  813MOL0     H 9737   9.513   4.159   0.530  1.2697 -1.8935  0.4239
  813MOL0     H 9738   9.489   4.017   0.707 -0.6149  0.7567 -1.5304
  813MOL0     H 9739   9.358   4.026   1.224 -0.6675 -0.6273  1.2373
  813MOL0     H 9740   9.340   3.940   1.437 -0.0009 -1.3834 -1.3148
  813MOL0     H 9741   8.420   3.653   1.289  1.0243  2.9072  0.5697
  813MOL0     H 9742   8.367   3.778   1.059  2.0478  0.0835 -3.8174
  813MOL0     H 9743   8.130   3.761   0.688  2.4801 -2.9412 -1.8023
  813MOL0     H 9744   8.080   3.896   0.484 -0.5854  0.1894  0.8851
  813MOL0     H 9745   8.201   4.267   0.282 -1.3725 -0.7320  0.5477
  813MOL0     H 9746   8.330   4.238   0.401 -0.2661 -2.9716  0.3985
  813MOL0     H 9747   8.316   4.109   0.127  2.4333 -1.0669 -1.5358
  813MOL0     H 9748   8.403   4.032   0.269 -1.0491 -0.7055 -0.2391
  813MOL0     H 9749   8.558   4.137   0.125  3.1107 -0.0880  1.5687
  813MOL0     H 9750   8.551   4.226   0.283  0.0468  2.4616 -0.9471
  813MOL0     H 9751   8.403   4.403   0.178 -2.8920 -0.8908 -1.5368
  813MOL0     H 9752   8.394   4.293   0.047  2.1980 -0.8664 -0.1811
  813MOL0     H 9753   8.752   4.508  -0.016  0.7495  0.1911  1.3678
  813MOL0     H 9754   8.458   4.094   0.505 -1.9466  1.5257  0.4010
  813MOL0     H 9755   8.519   3.952   0.688 -0.5446 -0.1893 -0.0696
  814MOL0     O 9756   1.931   6.208   3.852  0.3112 -0.6132  0.1654
  814MOL0     C 9757   1.981   6.201   3.965  0.5014  0.3019  0.4960
  814MOL0     O 9758   2.092   6.259   4.001  0.8750 -0.1390 -0.2163
  814MOL0     C 9759   2.168   6.331   3.905  0.3878 -0.1621  0.4524
  814MOL0     C 9760   2.118   6.441   3.826  0.7316 -0.0550  0.1475
  814MOL0     C 9761   2.199   6.508   3.734 -1.2362 -0.5194 -0.0209
  814MOL0     C 9762   2.344   6.472   3.717 -0.1405 -0.4194  1.0378
  814MOL0     O 9763   2.421   6.554   3.637 -0.1974 -0.1775  0.2158
  814MOL0     C 9764   2.380   6.633   3.525  0.6948 -0.3042 -0.2733
  814MOL0     C 9765   2.488   6.714   3.461 -0.6855  0.2915 -1.3559
  814MOL0     C 9766   2.560   6.629   3.352  0.3387 -0.9031 -0.3693
  814MOL0     C 9767   2.691   6.582   3.412 -0.5298 -0.2967  0.1877
  814MOL0     C 9768   2.742   6.462   3.344 -1.0632  1.2105 -0.3018
  814MOL0     C 9769   2.798   6.475   3.195  0.1761  0.2872 -0.5549
  814MOL0     C 9770   2.842   6.343   3.141  0.2773 -0.0583  1.0661
  814MOL0     C 9771   2.951   6.273   3.217 -0.1604 -1.1087  0.2217
  814MOL0     N 9772   3.011   6.170   3.129 -0.3933 -0.0111 -0.0389
  814MOL0     C 9773   2.931   6.076   3.075 -0.9037  0.6131  0.1100
  814MOL0     C 9774   3.024   5.976   3.054  0.8050 -0.7730  0.0308
  814MOL0     C 9775   2.988   5.847   2.978 -0.5073 -0.6687  0.1656
  814MOL0     C 9776   2.947   5.738   3.070  1.3915  1.1191  0.3084
  814MOL0     C 9777   3.048   5.645   3.139  0.0271  0.0436  0.7722
  814MOL0     C 9778   3.026   5.493   3.144  0.3497 -0.3557 -0.3705
  814MOL0     O 9779   2.900   5.459   3.193  0.4379 -0.2359  0.7275
  814MOL0     C 9780   2.867   5.498   3.321 -0.2512 -0.3061  0.5684
  814MOL0     C 9781   2.948   5.494   3.434  0.1518 -0.7404 -0.6888
  814MOL0     C 9782   2.895   5.532   3.558 -0.8812  0.3254 -0.7707
  814MOL0     C 9783   2.987   5.549   3.677  0.3810 -0.4535  1.5752
  814MOL0     C 9784   2.753   5.572   3.577 -0.7916 -1.0630  0.3141
  814MOL0     C 9785   2.677   5.597   3.695 -0.9352 -0.1671  0.4861
  814MOL0     O 9786   2.559   5.668   3.673 -0.2616 -0.4428 -0.5854
  814MOL0     C 9787   2.474   5.683   3.786 -0.9631  0.7886  0.0786
  814MOL0     C 9788   2.440   5.811   3.828  0.1562 -0.4114 -0.7849
  814MOL0     C 9789   2.350   5.833   3.938 -1.1991 -0.3188  0.6445
  814MOL0     C 9790   2.277   5.720   3.987  0.2813 -0.9678  0.2476
  814MOL0     O 9791   2.169   5.749   4.073  0.7035 -0.4172 -0.2388
  814MOL0     C 9792   2.063   5.657   4.086  0.3824 -0.0528 -0.4465
  814MOL0     C 9793   1.938   5.733   4.123  0.7436  0.8097  0.9418
  814MOL0     C 9794   1.858   5.790   4.004  0.8051 -0.1041  0.1194
  814MOL0     C 9795   1.807   5.678   3.901 -0.5290  0.0782 -1.2546
  814MOL0     C 9796   1.680   5.721   3.822 -0.2004  0.9159  0.4275
  814MOL0     C 9797   1.697   5.842   3.730 -0.4430 -0.8102 -0.3752
  814MOL0     C 9798   1.564   5.870   3.658 -1.2931  0.6632  0.0896
  814MOL0     C 9799   1.573   5.999   3.577 -0.5397  0.4709 -0.4979
  814MOL0    Cl 9800   1.631   6.134   3.674 -0.1992 -0.4448 -0.1721
  814MOL0     C 9801   2.308   5.593   3.951 -0.7346  0.4170  0.5955
  814MOL0     C 9802   2.414   5.576   3.854 -0.5340 -1.1934  1.4746
  814MOL0     O 9803   2.707   5.536   3.799  0.0967 -0.4014  0.6314
  814MOL0     C 9804   2.681   5.566   3.461 -0.0338  0.4469 -0.4164
  814MOL0     C 9805   2.737   5.532   3.335 -0.1946 -0.1190  0.7434
  814MOL0     N 9806   3.147   6.001   3.093 -0.3118 -0.7268  0.1972
  814MOL0     N 9807   3.139   6.127   3.132  0.8992 -0.4440 -0.5943
  814MOL0     C 9808   2.385   6.375   3.808  0.2043 -0.4519 -0.3168
  814MOL0     C 9809   2.305   6.312   3.904 -1.5209 -0.8036  0.7146
  814MOL0     C 9810   1.918   6.135   4.084  0.2416 -0.3566  0.9488
  814MOL0     C 9811   1.777   6.106   4.080 -0.1101 -1.4199  1.1079
  814MOL0     C 9812   1.704   6.085   4.195 -0.0684 -0.0613 -0.7441
  814MOL0     C 9813   1.769   6.065   4.319  0.3516 -0.5657  0.2454
  814MOL0     O 9814   1.726   6.037   4.442 -0.0342  1.0382 -0.6772
  814MOL0     C 9815   1.596   6.002   4.478 -1.2909 -0.2576 -0.0933
  814MOL0     C 9816   1.566   5.982   4.625  0.1385  1.1729 -0.2160
  814MOL0     C 9817   1.558   6.112   4.704 -0.3613 -0.5388 -0.1991
  814MOL0     C 9818   1.481   6.088   4.834  0.3741 -0.3760 -0.3257
  814MOL0     C 9819   1.491   5.953   4.896 -0.7652 -1.3864  0.0071
  814MOL0     C 9820   1.473   5.845   4.941 -0.2816  0.5841  0.3784
  814MOL0     C 9821   1.909   6.083   4.320 -0.9920  0.1601 -0.0818
  814MOL0     C 9822   1.981   6.122   4.210 -0.9095  0.6481  0.0643
  814MOL0     H 9823   2.015   6.465   3.848  1.3636  0.6945  2.7023
  814MOL0     H 9824   2.142   6.588   3.688  2.1858  2.0291 -0.2714
  814MOL0     H 9825   2.323   6.573   3.454 -1.0922  1.8186 -0.7302
  814MOL0     H 9826   2.304   6.707   3.550 -0.0511 -0.7363 -1.2083
  814MOL0     H 9827   2.438   6.789   3.398 -3.1420  0.1621  0.3082
  814MOL0     H 9828   2.562   6.753   3.530 -0.6290 -0.3385 -1.0558
  814MOL0     H 9829   2.498   6.549   3.311 -2.3476  1.7029 -1.7085
  814MOL0     H 9830   2.587   6.682   3.261  1.3479 -0.0989  0.3653
  814MOL0     H 9831   2.773   6.653   3.400 -0.8663 -0.0251 -0.5199
  814MOL0     H 9832   2.683   6.561   3.519  0.6238 -0.6331  0.2192
  814MOL0     H 9833   2.823   6.417   3.403 -2.5533 -2.5940 -0.8352
  814MOL0     H 9834   2.665   6.385   3.336 -1.1318  1.2224  0.2132
  814MOL0     H 9835   2.720   6.527   3.139 -0.1941  1.0581  0.6421
  814MOL0     H 9836   2.885   6.542   3.199  0.6841 -0.3961  0.2654
  814MOL0     H 9837   2.754   6.278   3.133 -0.4171  0.4506  3.6789
  814MOL0     H 9838   2.874   6.362   3.038  1.8933 -0.1213  1.5238
  814MOL0     H 9839   2.916   6.228   3.311 -2.1212  0.3453  0.2630
  814MOL0     H 9840   3.026   6.342   3.255 -1.8496  0.0871  1.5790
  814MOL0     H 9841   2.823   6.077   3.063 -0.9269 -0.1301  0.2210
  814MOL0     H 9842   2.911   5.860   2.901 -0.0800 -0.6282 -0.2603
  814MOL0     H 9843   3.081   5.819   2.928  0.0712  0.9133  0.2933
  814MOL0     H 9844   2.884   5.664   3.020 -0.8198  1.4781  2.4382
  814MOL0     H 9845   2.883   5.774   3.150 -0.4754 -0.9939 -0.1381
  814MOL0     H 9846   3.042   5.677   3.243  0.3738  3.2796 -0.0909
  814MOL0     H 9847   3.141   5.663   3.084 -0.4149  0.8534  0.2740
  814MOL0     H 9848   3.097   5.448   3.214 -0.1139  0.8765  0.9319
  814MOL0     H 9849   3.045   5.458   3.042 -1.2023  2.6499 -1.8133
  814MOL0     H 9850   3.051   5.463   3.436  0.2699 -0.3905 -1.0648
  814MOL0     H 9851   2.946   5.517   3.773  0.1958  2.2243  2.4854
  814MOL0     H 9852   3.071   5.481   3.659  1.8846  1.5499  0.6403
  814MOL0     H 9853   3.022   5.651   3.694 -3.1856  1.6729 -2.1215
  814MOL0     H 9854   2.489   5.892   3.775 -0.7725 -0.4141 -1.6686
  814MOL0     H 9855   2.336   5.934   3.975  2.2517  0.7980 -0.7109
  814MOL0     H 9856   2.054   5.619   3.984  1.3704 -1.4930 -0.0375
  814MOL0     H 9857   2.086   5.576   4.156  0.2532 -1.0242 -1.4911
  814MOL0     H 9858   1.881   5.661   4.182  4.1606 -0.9154  2.3739
  814MOL0     H 9859   1.974   5.822   4.175  0.0660  3.1147 -2.1830
  814MOL0     H 9860   1.911   5.867   3.947  2.4776 -1.3436 -0.0573
  814MOL0     H 9861   1.771   5.830   4.058 -0.5494 -2.0176 -0.5330
  814MOL0     H 9862   1.897   5.645   3.850  0.5479 -1.2832  1.3256
  814MOL0     H 9863   1.767   5.596   3.962  1.6948 -1.0417 -1.1898
  814MOL0     H 9864   1.599   5.757   3.887 -0.0381  0.1957  1.0447
  814MOL0     H 9865   1.633   5.639   3.767 -1.4710  1.7084  0.2714
  814MOL0     H 9866   1.729   5.927   3.790 -1.6901  0.0349 -0.8451
  814MOL0     H 9867   1.774   5.811   3.659  1.0418  2.8958 -0.5825
  814MOL0     H 9868   1.486   5.873   3.735 -0.8044 -3.4303  0.9866
  814MOL0     H 9869   1.548   5.781   3.596 -1.7426 -0.7397  2.1186
  814MOL0     H 9870   1.470   6.030   3.559 -1.8764 -1.5518  2.7874
  814MOL0     H 9871   1.617   5.987   3.477  3.9401 -3.0774  1.5358
  814MOL0     H 9872   2.267   5.498   3.983  1.9603 -0.8080  0.6951
  814MOL0     H 9873   2.448   5.482   3.813 -1.6145  0.1613 -3.0938
  814MOL0     H 9874   2.580   5.605   3.450  0.3476  1.6746  0.2348
  814MOL0     H 9875   2.677   5.533   3.245  1.0138  1.0217 -0.0921
  814MOL0     H 9876   2.491   6.356   3.794  0.2599  0.9503 -2.1552
  814MOL0     H 9877   2.337   6.241   3.979  1.9897 -0.4027 -0.2156
  814MOL0     H 9878   1.732   6.107   3.981  1.6222 -0.8997  0.2793
  814MOL0     H 9879   1.596   6.074   4.185 -0.5662  3.5439 -0.6467
  814MOL0     H 9880   1.534   6.082   4.437 -2.9182 -1.4958 -0.1562
  814MOL0     H 9881   1.564   5.914   4.421 -2.2795  0.6205 -0.9316
  814MOL0     H 9882   1.635   5.916   4.678 -2.8453 -3.2007 -1.3229
  814MOL0     H 9883   1.468   5.936   4.617  0.5179  0.6740 -3.4660
  814MOL0     H 9884   1.507   6.196   4.656  1.9282  0.5629 -0.8076
  814MOL0     H 9885   1.662   6.126   4.732  0.5379 -2.4098 -2.2637
  814MOL0     H 9886   1.374   6.103   4.820  0.5757  1.5322 -0.0286
  814MOL0     H 9887   1.518   6.157   4.911  2.4910 -2.9656  1.2082
  814MOL0     H 9888   1.456   5.744   4.974 -0.2417  1.2020  2.4968
  814MOL0     H 9889   1.966   6.063   4.410  1.0835 -1.1593 -1.5740
  814MOL0     H 9890   2.085   6.149   4.227 -0.5563 -0.5843 -0.0743
  815MOL0     O 9891   9.314   3.166   0.703  0.9140 -0.3231 -0.0809
  815MOL0     C 9892   9.343   3.137   0.819 -0.0538  1.3729  0.4138
  815MOL0     O 9893   9.447   3.183   0.892  0.2699  0.1799 -0.1269
  815MOL0     C 9894   9.524   3.296   0.862  0.4757  0.0750  0.3288
  815MOL0     C 9895   9.477   3.413   0.805  1.0538 -0.2756 -1.7876
  815MOL0     C 9896   9.570   3.521   0.778  0.7814 -0.1527 -0.5221
  815MOL0     C 9897   9.708   3.508   0.796 -0.3283  0.0746  0.5543
  815MOL0     O 9898   9.781   3.624   0.763  1.3131 -0.2412 -0.5554
  815MOL0     C 9899   9.920   3.630   0.786  0.0182 -0.0567 -0.6944
  815MOL0     C 9900   9.987   3.773   0.778 -0.4328  0.8003  0.7476
  815MOL0     C 9901   9.907   3.867   0.857 -0.1295  0.8854  0.0737
  815MOL0     C 9902   9.982   4.001   0.869 -0.8697  0.0602 -0.4217
  815MOL0     C 9903  10.036   4.060   0.739  0.6288  0.4348  0.1492
  815MOL0     C 9904   9.928   4.122   0.633  0.7555  0.0089  0.4370
  815MOL0     C 9905   9.976   4.147   0.488  0.5990 -0.0874  0.9614
  815MOL0     C 9906   9.878   4.231   0.416  0.0729 -0.4883  0.1903
  815MOL0     N 9907   9.802   4.158   0.313  0.0932 -0.2033  0.2060
  815MOL0     C 9908   9.847   4.085   0.209  0.1491  0.8897 -0.2881
  815MOL0     C 9909   9.739   4.030   0.146 -0.3691 -0.9838  0.4841
  815MOL0     C 9910   9.740   3.935   0.037 -0.9820 -0.2674  0.7990
  815MOL0     C 9911   9.643   3.822   0.065  0.6709 -0.7722  0.5450
  815MOL0     C 9912   9.664   3.702  -0.032  0.1821 -0.1006  0.2930
  815MOL0     C 9913   9.649   3.736  -0.177  0.6699 -0.2951 -0.9229
  815MOL0     O 9914   9.673   3.620  -0.251 -0.0213 -0.0561  0.4208
  815MOL0     C 9915   9.662   3.628  -0.397  0.2586 -0.2742  0.0228
  815MOL0     C 9916   9.628   3.745  -0.467  1.5408 -0.0947  0.1871
  815MOL0     C 9917   9.614   3.741  -0.609 -0.7148  0.7576  0.2282
  815MOL0     C 9918   9.573   3.874  -0.669  0.5633 -0.3533 -0.1117
  815MOL0     C 9919   9.650   3.621  -0.682  0.2267  0.7187 -0.5062
  815MOL0     C 9920   9.640   3.610  -0.826 -0.3515 -0.4072  1.2987
  815MOL0     O 9921   9.629   3.484  -0.875  0.0721  0.9993  0.4821
  815MOL0     C 9922   9.619   3.460  -1.012  0.0852  0.0576 -0.5539
  815MOL0     C 9923   9.723   3.483  -1.105 -0.3624 -0.1928 -0.1477
  815MOL0     C 9924   9.724   3.432  -1.238  0.1964  1.6153  0.3055
  815MOL0     C 9925   9.611   3.352  -1.282  0.2035  0.9109 -0.4751
  815MOL0     O 9926   9.600   3.306  -1.411  0.9617 -0.3105 -0.2745
  815MOL0     C 9927   9.534   3.394  -1.500 -0.6379 -0.0152 -0.2608
  815MOL0     C 9928   9.536   3.313  -1.628  0.4541  0.0631 -0.2248
  815MOL0     C 9929   9.523   3.373  -1.764  0.7865  0.6658 -0.5139
  815MOL0     C 9930   9.390   3.373  -1.838  0.6519  0.3260  0.4305
  815MOL0     C 9931   9.338   3.232  -1.885 -0.4069 -0.5028  0.1155
  815MOL0     C 9932   9.448   3.143  -1.944  0.4568 -0.6137 -0.1067
  815MOL0     C 9933   9.404   3.061  -2.057 -0.2708  0.8655  0.4003
  815MOL0     C 9934   9.357   2.927  -2.003 -0.1318 -1.0303  0.6043
  815MOL0    Cl 9935   9.312   2.822  -2.135  0.1442 -0.1339 -0.2843
  815MOL0     C 9936   9.505   3.333  -1.194  0.1158 -0.4992 -1.1589
  815MOL0     C 9937   9.511   3.380  -1.059  0.7708  0.5639 -0.4069
  815MOL0     O 9938   9.629   3.712  -0.893  0.2052  0.0631 -0.2309
  815MOL0     C 9939   9.692   3.509  -0.600  0.7534 -0.1590 -0.1945
  815MOL0     C 9940   9.693   3.516  -0.463  0.8205  0.2913 -0.2831
  815MOL0     N 9941   9.629   4.082   0.211  1.0762 -0.9212 -0.3006
  815MOL0     N 9942   9.666   4.170   0.300  0.3871 -0.2003 -0.2849
  815MOL0     C 9943   9.754   3.393   0.846 -0.0566 -0.1064  0.3271
  815MOL0     C 9944   9.665   3.290   0.880  0.8579 -0.0267 -0.2921
  815MOL0     C 9945   9.262   3.020   0.867  0.4444  0.6712 -0.0319
  815MOL0     C 9946   9.309   2.942   0.975 -0.4678 -0.1702  0.5386
  815MOL0     C 9947   9.254   2.818   1.015  0.2707 -0.4130 -0.1093
  815MOL0     C 9948   9.130   2.771   0.952 -0.2176  0.3526 -0.5887
  815MOL0     O 9949   9.055   2.656   0.985  0.2953 -0.4726 -0.2812
  815MOL0     C 9950   9.134   2.546   1.025  0.8552  0.9074  0.6518
  815MOL0     C 9951   9.065   2.414   1.000  0.0848  0.5805 -0.5546
  815MOL0     C 9952   8.931   2.383   1.075  0.0622  0.2545  0.2008
  815MOL0     C 9953   8.961   2.353   1.226  0.0291  0.4842 -0.8344
  815MOL0     C 9954   8.845   2.334   1.315  0.6041  0.2566 -0.8447
  815MOL0     C 9955   8.754   2.310   1.390 -0.9752 -0.6009 -0.0761
  815MOL0     C 9956   9.079   2.853   0.860 -0.2941  1.0427 -0.2033
  815MOL0     C 9957   9.133   2.979   0.815 -1.2749  0.3112 -0.2894
  815MOL0     H 9958   9.369   3.420   0.796  0.8034  1.7937  1.1897
  815MOL0     H 9959   9.528   3.618   0.750 -1.8690 -1.3378 -1.0168
  815MOL0     H 9960   9.930   3.593   0.889 -1.7675 -0.0237 -0.4744
  815MOL0     H 9961   9.965   3.545   0.733 -0.2794 -1.0763  0.6038
  815MOL0     H 9962  10.090   3.769   0.817 -0.6721  2.7482  1.7387
  815MOL0     H 9963  10.002   3.787   0.671  2.8480 -3.8764  0.2671
  815MOL0     H 9964   9.809   3.880   0.810 -2.2798 -1.8244  3.2878
  815MOL0     H 9965   9.889   3.836   0.961 -3.5823  3.9373  0.6213
  815MOL0     H 9966   9.916   4.073   0.917 -0.1219 -0.2675  1.1790
  815MOL0     H 9967  10.070   4.009   0.935 -1.5145  0.9509  0.3481
  815MOL0     H 9968  10.100   4.142   0.772 -1.5420  0.9418  3.6071
  815MOL0     H 9969  10.098   3.984   0.691  0.7456 -0.4323  1.6151
  815MOL0     H 9970   9.852   4.044   0.621 -1.0387  1.8302 -0.9676
  815MOL0     H 9971   9.880   4.214   0.669 -2.9129 -1.3404 -0.5939
  815MOL0     H 9972  10.070   4.202   0.489  0.9126 -0.6191  0.7542
  815MOL0     H 9973   9.999   4.053   0.437  0.9494 -0.5603  1.9669
  815MOL0     H 9974   9.925   4.306   0.353 -1.6575 -0.6235 -1.3325
  815MOL0     H 9975   9.804   4.285   0.476  0.4171 -2.2841  2.4036
  815MOL0     H 9976   9.951   4.081   0.179  0.6273  2.7855  0.9609
  815MOL0     H 9977   9.707   3.985  -0.053  0.9898 -0.3046  0.0016
  815MOL0     H 9978   9.842   3.894   0.029 -0.5990  0.8346 -0.2190
  815MOL0     H 9979   9.539   3.852   0.048  0.8235  0.2999  1.3700
  815MOL0     H 9980   9.664   3.784   0.166  1.0516 -1.7225  0.1170
  815MOL0     H 9981   9.594   3.626   0.005 -0.3834  1.3074  2.3062
  815MOL0     H 9982   9.768   3.667  -0.029 -0.2104 -1.3049  0.4715
  815MOL0     H 9983   9.727   3.810  -0.197  0.5929  0.1831  0.3865
  815MOL0     H 9984   9.560   3.792  -0.206  2.2745  3.1140  0.1773
  815MOL0     H 9985   9.612   3.834  -0.406  4.3254 -2.2204  4.5488
  815MOL0     H 9986   9.550   3.945  -0.589 -1.3489 -2.2971  1.1897
  815MOL0     H 9987   9.639   3.915  -0.745 -1.5568 -2.1904 -3.1735
  815MOL0     H 9988   9.479   3.851  -0.720 -0.7365  1.2316  1.4427
  815MOL0     H 9989   9.812   3.537  -1.076  0.5473 -1.8243  0.1596
  815MOL0     H 9990   9.805   3.463  -1.304  1.9674 -1.1639  1.0247
  815MOL0     H 9991   9.431   3.398  -1.463  0.0166  0.5873  1.5750
  815MOL0     H 9992   9.574   3.495  -1.512 -1.4751  0.5347  1.2787
  815MOL0     H 9993   9.618   3.242  -1.635 -1.9834 -2.9222 -0.4859
  815MOL0     H 9994   9.454   3.241  -1.621  0.1052  0.5963  4.4689
  815MOL0     H 9995   9.596   3.327  -1.831  0.0718  0.1880 -0.9881
  815MOL0     H 9996   9.528   3.481  -1.746  2.1523  0.3302  1.5092
  815MOL0     H 9997   9.310   3.411  -1.774 -1.3219  0.6765 -2.0893
  815MOL0     H 9998   9.393   3.432  -1.930 -0.9002 -3.4318 -2.2677
  815MOL0     H 9999   9.262   3.261  -1.959 -0.1979 -0.4521 -0.0803
  815MOL0     H10000   9.282   3.168  -1.816  0.7980 -2.3928 -0.5752
  815MOL0     H10001   9.515   3.204  -2.005 -2.0252 -0.3746 -2.7994
  815MOL0     H10002   9.499   3.082  -1.869 -3.0959 -3.3632  0.3669
  815MOL0     H10003   9.485   3.034  -2.126 -0.5603 -0.9442  0.7120
  815MOL0     H10004   9.320   3.102  -2.114  0.9181 -1.0820 -3.0855
  815MOL0     H10005   9.276   2.944  -1.932  0.7350 -0.4056  1.4736
  815MOL0     H10006   9.441   2.876  -1.955  0.1913  0.3467  1.5560
  815MOL0     H10007   9.416   3.280  -1.228 -1.1854 -0.5611  2.0519
  815MOL0     H10008   9.433   3.357  -0.988  1.7646  0.9424  0.8589
  815MOL0     H10009   9.729   3.420  -0.651  0.1746 -1.4137  1.4966
  815MOL0     H10010   9.711   3.421  -0.416  0.4252 -0.9598 -2.5078
  815MOL0     H10011   9.860   3.373   0.859 -0.3266 -2.3535 -0.5647
  815MOL0     H10012   9.686   3.196   0.931 -2.0907 -0.8818 -0.4817
  815MOL0     H10013   9.389   2.984   1.034 -0.8699 -2.7219  3.1275
  815MOL0     H10014   9.309   2.782   1.102  1.0432  1.4462  0.2191
  815MOL0     H10015   9.227   2.550   0.968  1.2302 -0.4352  1.1397
  815MOL0     H10016   9.177   2.561   1.124  0.7154  2.1613  0.5406
  815MOL0     H10017   9.141   2.339   1.021  0.7252  1.2142 -0.5375
  815MOL0     H10018   9.057   2.416   0.891  2.9787 -2.6413 -0.9812
  815MOL0     H10019   8.888   2.292   1.031 -1.1240  0.0679  1.6703
  815MOL0     H10020   8.866   2.470   1.073 -1.7083 -0.8859  2.6358
  815MOL0     H10021   9.024   2.433   1.267 -1.1532 -0.2293  2.8152
  815MOL0     H10022   9.015   2.258   1.226 -0.9626 -0.1831  1.8155
  815MOL0     H10023   8.687   2.261   1.458 -0.3506  0.1146  1.0926
  815MOL0     H10024   8.983   2.816   0.823  0.1962 -2.5219  1.6141
  815MOL0     H10025   9.080   3.037   0.740 -3.1936  0.4908  1.1209
  816MOL0     O10026   2.574   7.934   4.070 -0.5443 -0.0597 -0.1784
  816MOL0     C10027   2.637   7.997   3.987  0.6205  0.4840  0.2114
  816MOL0     O10028   2.598   8.005   3.855 -0.3971  0.1687 -0.3702
  816MOL0     C10029   2.485   7.944   3.806  0.2333  0.1931  0.0265
  816MOL0     C10030   2.494   7.880   3.691  0.3302  0.1774  0.8731
  816MOL0     C10031   2.387   7.806   3.635  0.5514  0.1927 -0.1924
  816MOL0     C10032   2.269   7.804   3.710  0.1089  0.0602 -0.4017
  816MOL0     O10033   2.161   7.724   3.681 -0.2192  0.8687 -0.3675
  816MOL0     C10034   2.185   7.582   3.685  0.1284  0.2024 -0.1305
  816MOL0     C10035   2.054   7.515   3.636  0.5877  0.9536  1.3878
  816MOL0     C10036   2.031   7.497   3.477 -0.6164 -0.1452  1.6167
  816MOL0     C10037   1.994   7.632   3.410 -0.4133  0.9047 -0.5919
  816MOL0     C10038   1.914   7.615   3.289 -0.2422  0.0512  1.5364
  816MOL0     C10039   1.875   7.754   3.235  1.3961 -0.5847  0.0783
  816MOL0     C10040   1.805   7.777   3.100 -0.3967  0.7651 -0.0298
  816MOL0     C10041   1.688   7.674   3.077  0.0940  0.2283 -0.1759
  816MOL0     N10042   1.568   7.706   3.153  0.3763 -0.6527 -0.8445
  816MOL0     C10043   1.474   7.797   3.134 -0.2812 -0.3723  0.1810
  816MOL0     C10044   1.393   7.803   3.244 -0.0327  0.6481 -1.0034
  816MOL0     C10045   1.280   7.898   3.272 -0.0709  0.2992  0.7685
  816MOL0     C10046   1.298   7.970   3.402  0.1885 -0.6300  0.7323
  816MOL0     C10047   1.170   8.046   3.438 -0.4529 -0.4716 -0.5617
  816MOL0     C10048   1.202   8.199   3.422  0.2061 -0.8639 -0.9100
  816MOL0     O10049   1.305   8.237   3.506 -0.6016 -1.1677  0.0523
  816MOL0     C10050   1.325   8.374   3.535  0.7028 -0.1530  0.9231
  816MOL0     C10051   1.460   8.407   3.558 -0.0697  0.3817  0.6997
  816MOL0     C10052   1.500   8.540   3.562  0.3592 -0.1694  0.6564
  816MOL0     C10053   1.647   8.567   3.557 -0.3875  0.2727 -0.0519
  816MOL0     C10054   1.400   8.644   3.558  0.5231 -0.0818  0.6137
  816MOL0     C10055   1.437   8.787   3.541 -0.9838  1.1385  0.2777
  816MOL0     O10056   1.393   8.859   3.434 -0.4461  0.0390  0.0471
  816MOL0     C10057   1.374   8.788   3.317 -0.4010 -0.1442  0.0532
  816MOL0     C10058   1.481   8.739   3.243 -0.7727 -0.7477 -0.2316
  816MOL0     C10059   1.459   8.652   3.139 -0.4653 -0.0545 -0.0280
  816MOL0     C10060   1.330   8.617   3.105  0.1421 -0.4068 -1.0237
  816MOL0     O10061   1.319   8.520   3.011 -0.3319 -0.8972 -0.6205
  816MOL0     C10062   1.189   8.486   2.951 -0.4933  0.6562 -0.7845
  816MOL0     C10063   1.148   8.587   2.845 -0.1026  0.4455  0.2733
  816MOL0     C10064   1.225   8.581   2.710  0.2514  0.4333  0.0184
  816MOL0     C10065   1.223   8.441   2.643 -0.1438 -0.6168  0.7031
  816MOL0     C10066   1.310   8.448   2.516  0.1250  0.1159  0.0551
  816MOL0     C10067   1.235   8.520   2.409 -0.6890  0.5633 -0.1068
  816MOL0     C10068   1.298   8.493   2.268  0.3222 -0.2520 -0.5234
  816MOL0     C10069   1.227   8.573   2.157 -0.7206 -0.6098  0.8811
  816MOL0    Cl10070   1.314   8.558   2.000  0.3813  0.0803  0.6243
  816MOL0     C10071   1.223   8.673   3.167  0.1464 -0.1154  0.2769
  816MOL0     C10072   1.247   8.758   3.271  0.7327 -0.4980  0.4980
  816MOL0     O10073   1.505   8.825   3.639  0.2905  0.9447  0.3024
  816MOL0     C10074   1.263   8.607   3.548  0.2550  0.6814  0.5396
  816MOL0     C10075   1.231   8.476   3.532  0.7794  0.1772  0.0783
  816MOL0     N10076   1.437   7.689   3.324 -0.0192 -0.3144 -0.0015
  816MOL0     N10077   1.533   7.635   3.264 -0.6123  0.0638 -0.5528
  816MOL0     C10078   2.256   7.882   3.818 -0.0108  0.1539  0.1548
  816MOL0     C10079   2.366   7.951   3.874  0.1622  0.2667 -0.7234
  816MOL0     C10080   2.744   8.089   4.020  0.0276 -0.1115  0.1142
  816MOL0     C10081   2.789   8.192   3.939 -0.0981  0.1211 -0.3869
  816MOL0     C10082   2.891   8.273   3.985  1.0506  0.4367 -0.6995
  816MOL0     C10083   2.969   8.247   4.099 -0.0970  0.2229 -0.2403
  816MOL0     O10084   3.074   8.330   4.148 -0.1494 -0.6093  0.5344
  816MOL0     C10085   3.112   8.448   4.068  0.1202  0.1149  0.8749
  816MOL0     C10086   3.202   8.531   4.158  0.0287 -1.2078 -1.0375
  816MOL0     C10087   3.105   8.618   4.246  0.4800 -0.1552  0.2281
  816MOL0     C10088   3.018   8.717   4.169 -0.0881 -0.0037 -0.0276
  816MOL0     C10089   3.099   8.809   4.091 -0.7038  0.5242  0.9736
  816MOL0     C10090   3.186   8.869   4.028  0.0077  0.9224  0.7434
  816MOL0     C10091   2.915   8.153   4.184 -0.5224  0.9675  0.2707
  816MOL0     C10092   2.810   8.074   4.143 -0.3719 -1.7056 -0.5044
  816MOL0     H10093   2.596   7.889   3.654 -0.3990  0.9515 -1.0626
  816MOL0     H10094   2.395   7.753   3.540  1.8082 -0.0913  0.0657
  816MOL0     H10095   2.273   7.542   3.633  0.3440 -2.1751  1.8622
  816MOL0     H10096   2.194   7.547   3.788 -4.0224 -1.6723 -0.1725
  816MOL0     H10097   2.046   7.415   3.681 -0.2187 -0.1612 -1.0649
  816MOL0     H10098   1.967   7.565   3.678 -2.7084 -2.5157 -0.6970
  816MOL0     H10099   2.122   7.478   3.419 -1.2591  1.2182  0.0991
  816MOL0     H10100   1.957   7.417   3.466 -1.4563  0.4782  2.5241
  816MOL0     H10101   1.943   7.703   3.476  0.9878  2.8309 -1.4883
  816MOL0     H10102   2.090   7.678   3.384 -0.6874  0.4398 -2.5522
  816MOL0     H10103   1.965   7.558   3.211 -2.4324  0.7321 -0.4885
  816MOL0     H10104   1.816   7.570   3.309  0.1510 -1.1340  0.8961
  816MOL0     H10105   1.804   7.797   3.307  0.9297  1.0879 -1.3025
  816MOL0     H10106   1.960   7.823   3.235 -0.8827  2.4421 -0.5656
  816MOL0     H10107   1.771   7.880   3.104  1.7314  1.5104  3.0012
  816MOL0     H10108   1.869   7.759   3.013 -0.8198  0.1715 -0.2211
  816MOL0     H10109   1.717   7.570   3.094  2.4496  0.9367  0.5031
  816MOL0     H10110   1.656   7.679   2.972 -2.4846 -0.1617  0.5315
  816MOL0     H10111   1.479   7.873   3.056  2.1482  1.2172  1.7458
  816MOL0     H10112   1.278   7.972   3.192  2.5156  0.8484  1.1097
  816MOL0     H10113   1.187   7.841   3.273 -2.4560  3.8067 -0.7708
  816MOL0     H10114   1.389   8.031   3.393  0.1377 -0.8393 -3.4026
  816MOL0     H10115   1.318   7.894   3.477  2.1910 -2.1696 -1.2077
  816MOL0     H10116   1.136   8.021   3.539  1.3779 -1.6250 -0.1737
  816MOL0     H10117   1.086   8.028   3.370  0.3916 -0.8238 -1.5482
  816MOL0     H10118   1.109   8.247   3.452  0.8072 -0.1480 -0.1647
  816MOL0     H10119   1.227   8.205   3.316 -0.3859  1.8580 -0.9728
  816MOL0     H10120   1.533   8.328   3.542 -0.1863  0.2281  0.9221
  816MOL0     H10121   1.679   8.630   3.474  0.0523 -0.0189 -0.1101
  816MOL0     H10122   1.672   8.619   3.650 -0.7730  0.3372  0.0183
  816MOL0     H10123   1.702   8.476   3.535 -2.2688 -1.8618  3.1989
  816MOL0     H10124   1.579   8.772   3.277 -0.4016 -2.0889  0.0719
  816MOL0     H10125   1.546   8.608   3.090  0.6667  1.9716  0.0382
  816MOL0     H10126   1.199   8.387   2.905 -4.6761 -1.7684  2.7889
  816MOL0     H10127   1.104   8.473   3.019  1.2177 -1.0601  1.1650
  816MOL0     H10128   1.047   8.564   2.810  1.0975 -0.0757 -3.2464
  816MOL0     H10129   1.156   8.688   2.885 -0.9989  0.2639  0.9508
  816MOL0     H10130   1.330   8.597   2.737  0.7051 -0.4427 -1.1450
  816MOL0     H10131   1.180   8.658   2.647 -0.5732 -0.8706 -1.0450
  816MOL0     H10132   1.264   8.368   2.713  0.7531 -0.9504 -0.1431
  816MOL0     H10133   1.118   8.414   2.623  0.3112 -1.1697 -1.2054
  816MOL0     H10134   1.316   8.347   2.475 -3.5738  0.1820 -0.9758
  816MOL0     H10135   1.410   8.490   2.530 -0.5903  4.0141 -4.2317
  816MOL0     H10136   1.131   8.488   2.415 -0.1339 -1.3049 -0.0471
  816MOL0     H10137   1.242   8.627   2.432  0.2894  0.4333  0.2709
  816MOL0     H10138   1.293   8.388   2.239 -1.2907 -1.3003  3.0152
  816MOL0     H10139   1.404   8.516   2.285 -0.0774  0.7077  0.8638
  816MOL0     H10140   1.234   8.678   2.187  0.8881 -0.5912  0.5196
  816MOL0     H10141   1.119   8.556   2.147 -0.8788  0.3193  0.9052
  816MOL0     H10142   1.124   8.630   3.154  1.4366 -3.2924  0.1797
  816MOL0     H10143   1.159   8.787   3.326  1.1420 -1.4095  1.6960
  816MOL0     H10144   1.191   8.688   3.546 -0.8899 -0.3107 -1.9016
  816MOL0     H10145   1.126   8.449   3.524  1.2454 -1.4665 -0.8109
  816MOL0     H10146   2.158   7.897   3.862  0.6486  0.4915  1.5687
  816MOL0     H10147   2.358   8.012   3.963  4.3534  2.9705 -1.8735
  816MOL0     H10148   2.734   8.197   3.845 -0.7419 -0.9052 -0.0908
  816MOL0     H10149   2.932   8.355   3.927  2.5112 -0.2303 -0.6631
  816MOL0     H10150   3.166   8.417   3.978  1.6754 -2.3449  2.5226
  816MOL0     H10151   3.021   8.500   4.036 -0.3011 -2.0310 -1.7728
  816MOL0     H10152   3.269   8.601   4.108 -0.1548 -0.4757 -0.2736
  816MOL0     H10153   3.267   8.459   4.209 -0.2842 -2.0460 -1.7958
  816MOL0     H10154   3.172   8.661   4.321 -0.8467  1.9662  0.2685
  816MOL0     H10155   3.041   8.547   4.299  2.1802 -2.5163 -0.6991
  816MOL0     H10156   2.971   8.784   4.241 -0.3317 -0.7189  0.4851
  816MOL0     H10157   2.933   8.678   4.112  0.3727  0.9823 -1.4475
  816MOL0     H10158   3.265   8.913   3.970 -0.8083 -2.3821 -3.3975
  816MOL0     H10159   2.960   8.143   4.282 -2.0237 -0.8450  0.8414
  816MOL0     H10160   2.790   7.999   4.219  0.8418  2.1301  4.0591
  817MOL0     O10161   2.864   6.714   7.096 -0.0491 -0.2185  0.3659
  817MOL0     C10162   2.937   6.682   7.005  0.9176  0.0348  0.1901
  817MOL0     O10163   2.917   6.711   6.872 -0.2559 -0.0468 -0.1666
  817MOL0     C10164   2.829   6.807   6.840 -0.0609 -0.0632 -0.3054
  817MOL0     C10165   2.888   6.913   6.778  0.2949 -1.3507 -0.0632
  817MOL0     C10166   2.817   7.026   6.744 -1.1525  0.2487 -0.4297
  817MOL0     C10167   2.682   7.024   6.758  1.1648 -0.3446  0.5092
  817MOL0     O10168   2.603   7.124   6.723  0.3516  0.0247  0.9846
  817MOL0     C10169   2.620   7.195   6.596 -0.1667  0.2122  0.3301
  817MOL0     C10170   2.497   7.290   6.577 -0.1944 -0.4129  0.7018
  817MOL0     C10171   2.512   7.414   6.670  1.3533  0.1779  1.0676
  817MOL0     C10172   2.380   7.506   6.658 -0.8471  1.0288 -0.9847
  817MOL0     C10173   2.318   7.524   6.516  1.1992 -0.3015  0.2099
  817MOL0     C10174   2.381   7.623   6.413 -0.5444 -0.6720 -0.6983
  817MOL0     C10175   2.398   7.767   6.464 -0.7185  0.5311 -0.6779
  817MOL0     C10176   2.267   7.842   6.511 -0.4417 -0.4659 -1.3125
  817MOL0     N10177   2.309   7.979   6.543  0.0550 -0.8433  0.7934
  817MOL0     C10178   2.374   8.037   6.651  0.7439 -0.3636 -0.2575
  817MOL0     C10179   2.391   8.163   6.611 -0.0830  0.0570 -0.0428
  817MOL0     C10180   2.439   8.278   6.696 -0.4053 -0.4927 -0.4479
  817MOL0     C10181   2.314   8.347   6.757  1.2468  0.3550 -0.3249
  817MOL0     C10182   2.349   8.441   6.871 -0.7343  0.5663  0.8160
  817MOL0     C10183   2.247   8.429   6.989 -0.1924 -0.0553 -0.0699
  817MOL0     O10184   2.290   8.485   7.109 -0.2913 -0.8503 -0.3950
  817MOL0     C10185   2.194   8.481   7.212  0.1000 -0.2956  0.3533
  817MOL0     C10186   2.065   8.439   7.204  0.5007  1.1199 -0.3899
  817MOL0     C10187   1.978   8.443   7.319 -0.7267 -0.5575 -0.0608
  817MOL0     C10188   1.843   8.383   7.298  0.3433 -0.6880 -0.6092
  817MOL0     C10189   2.020   8.510   7.441  0.3014  0.1575 -0.2365
  817MOL0     C10190   1.938   8.530   7.574 -0.6431  1.1227 -0.2070
  817MOL0     O10191   1.821   8.462   7.592  0.3382 -0.3049  0.3662
  817MOL0     C10192   1.745   8.501   7.692  0.4052  0.2780  0.1908
  817MOL0     C10193   1.617   8.549   7.655  0.3529  0.7390 -0.9241
  817MOL0     C10194   1.529   8.594   7.756 -1.1955  0.5107 -0.5019
  817MOL0     C10195   1.576   8.618   7.890  0.3890  0.3146  0.5619
  817MOL0     O10196   1.501   8.686   7.981  0.0141  0.1577  0.2042
  817MOL0     C10197   1.374   8.733   7.958  0.7376 -0.7028 -0.3051
  817MOL0     C10198   1.369   8.846   7.856  0.2468 -0.0216 -0.4936
  817MOL0     C10199   1.228   8.892   7.816 -0.5822  0.0518  0.2707
  817MOL0     C10200   1.247   9.011   7.720 -0.9847  0.0032  0.0664
  817MOL0     C10201   1.120   9.040   7.633  0.3914  0.3347  0.1160
  817MOL0     C10202   1.147   9.078   7.494 -0.3123  0.2442  0.3847
  817MOL0     C10203   1.217   9.215   7.464  0.3805 -0.2165 -0.4969
  817MOL0     C10204   1.115   9.327   7.463  1.4004  0.4759  0.3521
  817MOL0    Cl10205   1.020   9.323   7.310 -0.0025  0.2699 -0.4600
  817MOL0     C10206   1.703   8.574   7.925  0.3462  0.6080  0.0003
  817MOL0     C10207   1.782   8.506   7.831 -0.4845 -0.7496  0.3991
  817MOL0     O10208   1.986   8.608   7.656  0.4765  0.6304  0.3862
  817MOL0     C10209   2.159   8.550   7.444 -0.1751  0.2424 -0.1578
  817MOL0     C10210   2.239   8.530   7.338 -0.6908  0.6187  0.6248
  817MOL0     N10211   2.343   8.189   6.485  0.2453  0.0379 -0.3501
  817MOL0     N10212   2.288   8.080   6.452 -0.0405 -0.4116 -0.1478
  817MOL0     C10213   2.612   6.908   6.808  0.7959 -0.0905  0.7074
  817MOL0     C10214   2.689   6.802   6.859  0.0145 -1.0461  1.2999
  817MOL0     C10215   3.051   6.595   7.031 -0.7796  0.0490  1.3456
  817MOL0     C10216   3.073   6.526   7.158  0.2926  0.3319  0.6665
  817MOL0     C10217   3.189   6.433   7.169  0.8040  0.4231 -0.3023
  817MOL0     C10218   3.258   6.410   7.057 -1.0944 -0.2115 -0.7180
  817MOL0     O10219   3.355   6.309   7.056  0.7702 -0.1069 -0.1032
  817MOL0     C10220   3.373   6.224   7.174 -0.1484 -1.2434  0.9954
  817MOL0     C10221   3.459   6.098   7.130  0.0017 -0.1607 -0.5518
  817MOL0     C10222   3.383   5.993   7.052  0.4326  0.3543 -1.0644
  817MOL0     C10223   3.273   5.912   7.140 -0.6069 -0.0172 -1.1172
  817MOL0     C10224   3.325   5.798   7.220 -0.9131  0.0955  0.2334
  817MOL0     C10225   3.385   5.704   7.262  0.3735 -0.2539  0.1562
  817MOL0     C10226   3.234   6.482   6.941  0.5789 -0.6902  0.0806
  817MOL0     C10227   3.147   6.583   6.929  0.4435  0.4488  0.3234
  817MOL0     H10228   2.992   6.911   6.747 -0.2174  1.1511 -2.2589
  817MOL0     H10229   2.873   7.102   6.690  1.7216 -0.8655  0.7882
  817MOL0     H10230   2.713   7.250   6.610  0.2994 -1.2244  3.8305
  817MOL0     H10231   2.616   7.127   6.510 -5.4681 -2.5711  2.3061
  817MOL0     H10232   2.508   7.334   6.478 -1.4440  0.6183  0.9909
  817MOL0     H10233   2.403   7.233   6.577  2.0790 -4.5287  0.8392
  817MOL0     H10234   2.537   7.381   6.771  1.6952  1.3400  1.3877
  817MOL0     H10235   2.597   7.468   6.626  1.0359  0.5517  0.9024
  817MOL0     H10236   2.304   7.463   6.725 -1.1495  2.3488 -0.4444
  817MOL0     H10237   2.404   7.607   6.691 -0.2039  1.8950 -3.8088
  817MOL0     H10238   2.284   7.434   6.465 -0.1896 -0.0366  0.6208
  817MOL0     H10239   2.215   7.561   6.514  0.9795 -0.9177 -1.9042
  817MOL0     H10240   2.476   7.578   6.381  0.2096  0.3125  0.0629
  817MOL0     H10241   2.319   7.615   6.323 -0.8878 -1.3691 -0.4107
  817MOL0     H10242   2.475   7.761   6.541 -1.9239  0.3832  0.5472
  817MOL0     H10243   2.440   7.821   6.378 -0.5419  2.4552  0.5677
  817MOL0     H10244   2.227   7.803   6.606  2.8853 -0.0024  0.4287
  817MOL0     H10245   2.190   7.843   6.433 -2.4311 -1.8231  0.5018
  817MOL0     H10246   2.404   8.001   6.749 -0.1979  3.1107  1.4708
  817MOL0     H10247   2.508   8.248   6.775 -1.4240 -0.6240  0.4234
  817MOL0     H10248   2.484   8.341   6.618 -2.3358 -0.1054 -1.3278
  817MOL0     H10249   2.251   8.264   6.790  2.0572 -0.1511 -0.0117
  817MOL0     H10250   2.263   8.406   6.680  0.0775  1.3910  1.1876
  817MOL0     H10251   2.363   8.545   6.839  2.3579  0.0841  0.3300
  817MOL0     H10252   2.449   8.411   6.902 -0.6532  1.3890  1.3533
  817MOL0     H10253   2.210   8.326   6.999 -0.2035 -0.3792 -2.7222
  817MOL0     H10254   2.161   8.487   6.954  0.3988  2.0945  1.7938
  817MOL0     H10255   2.043   8.380   7.115  5.3419 -1.5853 -0.1315
  817MOL0     H10256   1.837   8.317   7.211 -1.1961 -0.8014 -0.4550
  817MOL0     H10257   1.810   8.332   7.389  1.2009  1.1797  0.8103
  817MOL0     H10258   1.766   8.459   7.286  0.1633 -0.8088 -0.2537
  817MOL0     H10259   1.579   8.540   7.554  2.3799  2.9227 -1.9824
  817MOL0     H10260   1.429   8.627   7.726 -1.9072 -2.5113 -1.9053
  817MOL0     H10261   1.321   8.645   7.921  2.2486 -2.3997  1.3437
  817MOL0     H10262   1.324   8.770   8.048 -0.7267 -0.2961 -1.2569
  817MOL0     H10263   1.411   8.942   7.888  0.0828  0.2815 -1.1689
  817MOL0     H10264   1.424   8.818   7.766  0.2193  2.4346 -1.3582
  817MOL0     H10265   1.161   8.911   7.901  1.0118  1.1809  1.3282
  817MOL0     H10266   1.176   8.807   7.772 -1.0302  0.1887  0.5281
  817MOL0     H10267   1.273   9.103   7.774  0.1996  1.3514 -2.5775
  817MOL0     H10268   1.334   8.983   7.659 -2.7476 -3.4610 -1.1039
  817MOL0     H10269   1.054   9.111   7.684  0.0265 -1.2796  2.0055
  817MOL0     H10270   1.065   8.947   7.615 -1.1497  1.4817 -1.4403
  817MOL0     H10271   1.204   9.001   7.441 -1.9224 -0.2925 -0.6346
  817MOL0     H10272   1.052   9.077   7.440  0.9354  1.4500 -2.0113
  817MOL0     H10273   1.247   9.209   7.359 -0.5930  2.2819 -0.9859
  817MOL0     H10274   1.298   9.233   7.536 -0.9596 -2.7923  1.8208
  817MOL0     H10275   1.174   9.419   7.457  1.4974  0.4280  0.5616
  817MOL0     H10276   1.047   9.315   7.548 -0.2447 -0.0369 -0.9995
  817MOL0     H10277   1.752   8.602   8.018 -0.1169  2.2764 -0.2308
  817MOL0     H10278   1.876   8.469   7.870  0.4471  2.1178  1.1220
  817MOL0     H10279   2.195   8.593   7.537  0.0242  2.2356 -1.1056
  817MOL0     H10280   2.342   8.558   7.354 -0.7294  2.0645 -1.3051
  817MOL0     H10281   2.504   6.917   6.806  0.9386  2.0223  0.0934
  817MOL0     H10282   2.649   6.713   6.906 -1.3910 -0.1529  1.8643
  817MOL0     H10283   3.020   6.556   7.247  1.4852  2.0073  0.8633
  817MOL0     H10284   3.227   6.406   7.266 -0.5678  1.6934  0.6390
  817MOL0     H10285   3.429   6.275   7.253  0.8155 -1.7441  0.6543
  817MOL0     H10286   3.281   6.189   7.221 -0.3792  0.5669  1.9754
  817MOL0     H10287   3.503   6.042   7.213 -0.6301 -2.9903 -1.9957
  817MOL0     H10288   3.537   6.143   7.068  0.3390  0.6207  0.4023
  817MOL0     H10289   3.454   5.928   7.001  0.5053  0.2872 -0.8803
  817MOL0     H10290   3.324   6.046   6.976 -0.1531  1.4781  0.1310
  817MOL0     H10291   3.206   5.861   7.071 -2.1984 -0.0309  0.3698
  817MOL0     H10292   3.211   5.972   7.207 -2.4396 -0.3632 -2.4217
  817MOL0     H10293   3.441   5.617   7.288  2.8814  1.6155  1.5081
  817MOL0     H10294   3.296   6.444   6.860 -0.1300 -0.5590 -0.5394
  817MOL0     H10295   3.144   6.641   6.837  0.8843 -0.1314 -0.0626
  818MOL0     O10296   3.817   3.275   9.573 -0.1131  0.5394 -0.2291
  818MOL0     C10297   3.702   3.272   9.612  0.8714 -0.0914 -0.3748
  818MOL0     O10298   3.627   3.162   9.624 -0.3040 -0.0126 -0.5418
  818MOL0     C10299   3.665   3.030   9.626 -0.4487 -0.8744  0.3548
  818MOL0     C10300   3.558   2.949   9.617 -0.5795 -0.0950 -0.6468
  818MOL0     C10301   3.571   2.807   9.622 -0.2550  0.0010 -0.7094
  818MOL0     C10302   3.699   2.757   9.667  0.1969  0.4374  0.4733
  818MOL0     O10303   3.718   2.619   9.683 -0.1566 -0.1669 -0.2550
  818MOL0     C10304   3.827   2.571   9.608 -0.9206  1.0364 -0.2226
  818MOL0     C10305   3.816   2.422   9.589 -0.6669 -0.6118  0.1374
  818MOL0     C10306   3.800   2.383   9.446 -0.1701 -0.8129  0.2340
  818MOL0     C10307   3.666   2.448   9.398  0.9674  0.6803 -0.1184
  818MOL0     C10308   3.643   2.407   9.257  0.8534  0.2461  0.2353
  818MOL0     C10309   3.736   2.464   9.143 -0.1830  0.9394  0.1224
  818MOL0     C10310   3.697   2.393   9.017  0.3044 -0.2846 -0.8507
  818MOL0     C10311   3.705   2.495   8.906 -1.0882  0.2150  0.0152
  818MOL0     N10312   3.667   2.429   8.778 -1.0355 -0.9386 -0.2814
  818MOL0     C10313   3.555   2.456   8.705 -1.3112  0.4475 -0.4803
  818MOL0     C10314   3.575   2.396   8.588  0.4020  0.5995  0.5474
  818MOL0     C10315   3.464   2.399   8.475  0.4239  0.9426 -0.3371
  818MOL0     C10316   3.355   2.283   8.488  0.7712  0.4017 -0.2881
  818MOL0     C10317   3.229   2.303   8.403 -0.7215  0.0648  0.0201
  818MOL0     C10318   3.230   2.242   8.257  0.0403  0.4630 -0.5153
  818MOL0     O10319   3.277   2.111   8.269 -0.4645 -1.0610 -0.3412
  818MOL0     C10320   3.250   2.032   8.162  0.3169  0.4072  0.0147
  818MOL0     C10321   3.273   1.899   8.190 -0.4469 -0.9296  0.3375
  818MOL0     C10322   3.249   1.796   8.093  0.1917 -0.0001 -0.3151
  818MOL0     C10323   3.284   1.661   8.147 -0.2060  0.1104  0.8422
  818MOL0     C10324   3.188   1.827   7.963 -0.3706 -0.0432  0.7631
  818MOL0     C10325   3.126   1.735   7.860 -0.8256 -1.1364  0.5281
  818MOL0     O10326   3.086   1.803   7.747  0.0147  0.5098 -0.7493
  818MOL0     C10327   3.023   1.737   7.638  0.1211  1.0366 -0.9859
  818MOL0     C10328   3.030   1.816   7.518 -0.4651  0.0180  0.5122
  818MOL0     C10329   2.971   1.775   7.401 -0.0988  0.2289  0.5424
  818MOL0     C10330   2.922   1.637   7.389 -0.0073  0.3288  0.1469
  818MOL0     O10331   2.880   1.579   7.267  0.4420  0.3699  0.4596
  818MOL0     C10332   2.946   1.615   7.150  0.5828 -0.7993 -0.0663
  818MOL0     C10333   2.851   1.696   7.058  0.9123  0.5099  0.1868
  818MOL0     C10334   2.703   1.650   7.040 -0.7925 -0.0238 -0.3753
  818MOL0     C10335   2.616   1.715   7.141  0.8168 -0.3881  0.1277
  818MOL0     C10336   2.460   1.687   7.140 -1.1256  0.1181 -0.7170
  818MOL0     C10337   2.407   1.732   7.012  0.5350  1.0530 -0.1866
  818MOL0     C10338   2.260   1.684   6.989  0.8521 -0.1615  0.8962
  818MOL0     C10339   2.144   1.720   7.076 -0.5105 -0.7495 -0.5972
  818MOL0    Cl10340   2.108   1.900   7.088  0.2710  0.0995  0.1447
  818MOL0     C10341   2.908   1.563   7.507 -0.4623  0.0290  0.4897
  818MOL0     C10342   2.958   1.615   7.631  0.1334  0.0905  0.5921
  818MOL0     O10343   3.130   1.615   7.883 -0.7825  0.4142 -0.7285
  818MOL0     C10344   3.164   1.970   7.948  0.4432  0.6010  0.2679
  818MOL0     C10345   3.191   2.065   8.041 -0.0435 -0.2682 -0.5272
  818MOL0     N10346   3.705   2.331   8.587  0.0430 -0.3252 -0.3653
  818MOL0     N10347   3.755   2.350   8.709  0.8727  0.5728 -0.8771
  818MOL0     C10348   3.807   2.847   9.687 -0.4869 -0.0765  0.9492
  818MOL0     C10349   3.789   2.981   9.664  0.1612 -0.7513 -0.8534
  818MOL0     C10350   3.637   3.400   9.617  0.4464  0.5964  0.8188
  818MOL0     C10351   3.498   3.402   9.654  0.4138 -0.0549  0.2492
  818MOL0     C10352   3.439   3.539   9.661  0.5282  0.5150  0.5710
  818MOL0     C10353   3.521   3.655   9.646 -0.2995  0.3048  0.3158
  818MOL0     O10354   3.460   3.780   9.656 -0.2894 -0.1632  0.4516
  818MOL0     C10355   3.334   3.800   9.717 -0.3567  1.0515  0.5482
  818MOL0     C10356   3.288   3.952   9.723 -0.8114 -0.5961  0.3053
  818MOL0     C10357   3.376   4.042   9.815  0.6003 -0.3517 -0.1909
  818MOL0     C10358   3.327   4.193   9.803 -0.0277  0.2328  0.7149
  818MOL0     C10359   3.356   4.268   9.673 -1.3661 -0.1536  0.2654
  818MOL0     C10360   3.388   4.325   9.572 -0.2677  0.4799 -0.9476
  818MOL0     C10361   3.653   3.647   9.601 -0.5153 -0.1680  0.1594
  818MOL0     C10362   3.714   3.516   9.590  0.0015  0.4911  0.2481
  818MOL0     H10363   3.464   2.991   9.581 -0.5987  2.6592  2.2190
  818MOL0     H10364   3.480   2.749   9.609  0.5708 -1.0959 -1.9077
  818MOL0     H10365   3.847   2.621   9.513  0.3769 -0.3474 -0.7082
  818MOL0     H10366   3.910   2.577   9.679  0.0426 -1.3530 -1.0376
  818MOL0     H10367   3.898   2.368   9.636  1.3902 -0.8356 -3.3256
  818MOL0     H10368   3.727   2.392   9.644 -1.4005  0.9653 -0.1385
  818MOL0     H10369   3.875   2.417   9.374  0.3136 -0.7643  0.7540
  818MOL0     H10370   3.778   2.278   9.463  0.9750 -1.2337 -0.7783
  818MOL0     H10371   3.585   2.405   9.457 -1.1747 -2.4100 -4.6517
  818MOL0     H10372   3.661   2.557   9.398  2.1900  0.7522  1.0404
  818MOL0     H10373   3.669   2.301   9.248 -1.8855 -0.3659 -1.7769
  818MOL0     H10374   3.537   2.409   9.230 -0.5167 -3.7135  4.1834
  818MOL0     H10375   3.744   2.572   9.129  1.4774  1.2300  2.5599
  818MOL0     H10376   3.835   2.420   9.162 -1.1794 -1.0538  0.9696
  818MOL0     H10377   3.762   2.307   8.997 -0.4493 -1.7295  2.3272
  818MOL0     H10378   3.597   2.349   9.025  0.4376 -0.2310  2.3075
  818MOL0     H10379   3.813   2.511   8.906 -1.0685  0.1977  1.0363
  818MOL0     H10380   3.642   2.580   8.934 -1.3958 -0.7933  2.8178
  818MOL0     H10381   3.471   2.513   8.743 -1.1162 -0.4422  1.3672
  818MOL0     H10382   3.414   2.495   8.462 -2.0900 -0.6348 -3.8714
  818MOL0     H10383   3.511   2.390   8.377 -2.1003 -1.5849 -1.4554
  818MOL0     H10384   3.332   2.288   8.595  2.1653  2.0098 -0.0240
  818MOL0     H10385   3.386   2.179   8.470 -3.2662 -1.0600  0.1933
  818MOL0     H10386   3.204   2.410   8.395 -1.9418 -0.2886 -1.5279
  818MOL0     H10387   3.151   2.249   8.458  1.5334 -2.7052  0.6744
  818MOL0     H10388   3.306   2.299   8.202  1.1420  0.4837  0.9695
  818MOL0     H10389   3.137   2.257   8.202 -0.7934 -0.6107  0.5421
  818MOL0     H10390   3.310   1.883   8.291 -2.2321  0.0153  1.1933
  818MOL0     H10391   3.384   1.627   8.119 -0.4430  0.3262 -0.3218
  818MOL0     H10392   3.269   1.655   8.255 -0.6474 -0.3942  0.7556
  818MOL0     H10393   3.210   1.588   8.113 -0.6072  0.2895  1.3140
  818MOL0     H10394   3.070   1.917   7.521 -3.3636  1.2627  0.8929
  818MOL0     H10395   2.988   1.845   7.320  1.1360 -1.9707 -1.2048
  818MOL0     H10396   3.028   1.684   7.173  0.1186  0.7534 -2.6163
  818MOL0     H10397   2.981   1.527   7.095  0.8713 -0.2782 -0.7267
  818MOL0     H10398   2.855   1.799   7.097  3.1947 -0.5692  3.1657
  818MOL0     H10399   2.902   1.717   6.964  2.0853  4.7925  1.5260
  818MOL0     H10400   2.698   1.541   7.044  0.7024 -0.0795  0.9571
  818MOL0     H10401   2.683   1.678   6.937  0.6704  0.0526 -0.6559
  818MOL0     H10402   2.643   1.674   7.239 -0.1684 -1.0148  0.1539
  818MOL0     H10403   2.624   1.824   7.137 -3.5306  0.0559 -1.5988
  818MOL0     H10404   2.414   1.738   7.225 -0.1114 -1.9408  1.1418
  818MOL0     H10405   2.440   1.580   7.149 -0.6323  0.0513 -0.4197
  818MOL0     H10406   2.403   1.840   7.028  3.1728  1.2434 -0.3542
  818MOL0     H10407   2.467   1.717   6.922 -2.1536  1.9355 -2.2376
  818MOL0     H10408   2.238   1.580   6.965 -2.1332  0.4132  0.8003
  818MOL0     H10409   2.240   1.732   6.892  1.2979 -0.4118  0.6759
  818MOL0     H10410   2.168   1.673   7.172  2.2947 -0.5195 -1.0910
  818MOL0     H10411   2.048   1.675   7.050 -1.4058 -0.4601  1.9475
  818MOL0     H10412   2.860   1.465   7.503 -1.1634  0.4037 -2.5841
  818MOL0     H10413   2.945   1.548   7.716 -0.1625  1.3807  1.5978
  818MOL0     H10414   3.109   2.005   7.861 -3.9126 -2.5104  1.4409
  818MOL0     H10415   3.182   2.170   8.015  1.2227  0.0991  0.3904
  818MOL0     H10416   3.891   2.815   9.749 -0.5392  4.2490  3.6088
  818MOL0     H10417   3.876   3.046   9.669  1.0870 -2.0302  1.1675
  818MOL0     H10418   3.438   3.312   9.667  0.1890 -0.1163 -1.1207
  818MOL0     H10419   3.332   3.537   9.678 -0.1676 -0.8805 -2.9925
  818MOL0     H10420   3.258   3.751   9.655 -0.4562  1.2131  0.5422
  818MOL0     H10421   3.345   3.760   9.818 -0.8004  1.5066  0.7819
  818MOL0     H10422   3.180   3.960   9.737 -0.8083 -0.6358  0.3526
  818MOL0     H10423   3.312   3.982   9.621 -0.1911  2.1201  1.1588
  818MOL0     H10424   3.481   4.042   9.784  1.6510 -0.3885  2.9817
  818MOL0     H10425   3.371   4.021   9.922 -0.4726 -0.6969 -0.2997
  818MOL0     H10426   3.381   4.235   9.888 -0.0130 -1.7384  1.7362
  818MOL0     H10427   3.219   4.198   9.818 -0.5377 -2.4335 -1.2727
  818MOL0     H10428   3.431   4.370   9.484  2.6241  0.0240  0.1091
  818MOL0     H10429   3.708   3.736   9.573 -2.3556  0.5378 -1.4384
  818MOL0     H10430   3.820   3.509   9.568  0.0083  1.7295 -0.2075
  819MOL0     O10431   0.896   7.859   3.217  0.3946 -0.6464 -0.4289
  819MOL0     C10432   0.910   7.735   3.229 -0.5047 -0.2643 -0.3327
  819MOL0     O10433   0.847   7.640   3.150 -0.2963 -0.3642  0.3256
  819MOL0     C10434   0.776   7.672   3.035  0.5765  0.2141 -0.8433
  819MOL0     C10435   0.668   7.593   3.012  0.0841 -0.3207  0.8794
  819MOL0     C10436   0.583   7.607   2.901 -0.4739 -0.2418  0.6269
  819MOL0     C10437   0.611   7.699   2.800 -0.3515  1.0576 -0.1900
  819MOL0     O10438   0.537   7.698   2.684 -0.3322 -0.4026 -0.4920
  819MOL0     C10439   0.599   7.776   2.569 -0.7179  0.5609 -1.0061
  819MOL0     C10440   0.710   7.693   2.508 -0.1974 -0.0106 -0.0909
  819MOL0     C10441   0.667   7.557   2.468  0.2091  0.0331  0.2840
  819MOL0     C10442   0.716   7.441   2.569 -0.5167 -0.2140  0.1497
  819MOL0     C10443   0.663   7.298   2.521 -0.1909  0.3514  0.1091
  819MOL0     C10444   0.695   7.202   2.637  0.0838 -0.0975  0.4007
  819MOL0     C10445   0.616   7.076   2.625 -0.2829  0.0866  0.2665
  819MOL0     C10446   0.658   6.980   2.736 -0.2690  0.3298 -0.4518
  819MOL0     N10447   0.557   6.871   2.742  0.2536  0.4581  1.0464
  819MOL0     C10448   0.568   6.757   2.666 -0.0327 -0.4618 -0.0534
  819MOL0     C10449   0.462   6.676   2.707 -0.5567 -0.5299  0.0491
  819MOL0     C10450   0.422   6.548   2.642 -0.0119 -0.1082 -1.1313
  819MOL0     C10451   0.471   6.418   2.723 -0.1449  0.4417  0.4516
  819MOL0     C10452   0.431   6.402   2.873 -0.5638 -0.0350 -0.2118
  819MOL0     C10453   0.482   6.277   2.933  0.4261  0.0858 -0.2288
  819MOL0     O10454   0.430   6.160   2.858 -0.4850  0.0111 -0.3306
  819MOL0     C10455   0.402   6.049   2.935 -1.1176 -0.2498 -0.8750
  819MOL0     C10456   0.279   6.026   2.973  1.4299  0.0108 -0.1978
  819MOL0     C10457   0.250   5.909   3.043  0.5667 -0.0321  0.5236
  819MOL0     C10458   0.095   5.896   3.060 -0.9969 -0.4487 -0.4005
  819MOL0     C10459   0.354   5.822   3.087  0.1551 -0.4769 -0.4518
  819MOL0     C10460   0.328   5.700   3.164 -0.2183  0.1207 -0.2595
  819MOL0     O10461   0.221   5.681   3.258 -0.4956  0.1483  0.3724
  819MOL0     C10462   0.162   5.561   3.288  0.0058 -0.7393  0.2011
  819MOL0     C10463   0.156   5.507   3.416  0.4914 -1.0664  0.2067
  819MOL0     C10464   0.084   5.387   3.436  0.0370  0.2312  0.1071
  819MOL0     C10465   0.010   5.323   3.333 -0.0129 -0.1705 -0.5008
  819MOL0     O10466  -0.058   5.203   3.335 -0.2189  0.7058  0.0487
  819MOL0     C10467  -0.063   5.136   3.459 -0.6715 -0.2564 -0.1041
  819MOL0     C10468  -0.124   4.996   3.436 -0.3474  0.2534  0.3812
  819MOL0     C10469  -0.132   4.920   3.575 -0.1050  0.3477  0.1620
  819MOL0     C10470  -0.109   4.770   3.562  0.1159 -0.4622  0.0833
  819MOL0     C10471  -0.135   4.695   3.698  0.2987 -0.2858  0.1646
  819MOL0     C10472  -0.130   4.534   3.694 -0.5176  0.1524  0.7091
  819MOL0     C10473  -0.003   4.477   3.624  0.1808  1.0097 -0.6977
  819MOL0     C10474  -0.003   4.329   3.624 -0.3935  0.2796  0.4151
  819MOL0    Cl10475   0.010   4.258   3.785 -0.1598 -0.2859  0.4532
  819MOL0     C10476   0.013   5.388   3.207 -0.8406  0.0581  0.2018
  819MOL0     C10477   0.098   5.502   3.178 -0.2621  0.6247  0.1218
  819MOL0     O10478   0.394   5.610   3.122 -0.3592  0.4128  0.3692
  819MOL0     C10479   0.483   5.859   3.061 -0.2582  0.8426 -0.2359
  819MOL0     C10480   0.509   5.970   2.977 -0.0520 -0.0550  0.2056
  819MOL0     N10481   0.401   6.741   2.813  0.6892 -0.7547  0.3743
  819MOL0     N10482   0.449   6.862   2.823 -0.4987  0.4636 -0.0545
  819MOL0     C10483   0.717   7.788   2.830 -0.3504  1.2040  0.4025
  819MOL0     C10484   0.802   7.778   2.950  0.8065  0.2298 -0.4010
  819MOL0     C10485   0.992   7.680   3.341 -0.4114  0.4650 -0.2429
  819MOL0     C10486   1.067   7.558   3.321 -0.0203  0.2927  0.3616
  819MOL0     C10487   1.152   7.516   3.415 -0.6494 -0.5436 -0.3409
  819MOL0     C10488   1.183   7.601   3.529  0.4056  0.5287  0.6388
  819MOL0     O10489   1.281   7.560   3.615  1.3544 -0.3396 -0.4991
  819MOL0     C10490   1.315   7.653   3.722 -0.1227  0.0811  0.2698
  819MOL0     C10491   1.440   7.595   3.791  0.2401 -0.8664  0.4319
  819MOL0     C10492   1.485   7.682   3.909 -0.4123  0.2370 -0.9140
  819MOL0     C10493   1.607   7.612   3.969 -0.6259 -0.5779 -0.5971
  819MOL0     C10494   1.691   7.679   4.062 -0.0172 -0.0959  0.4929
  819MOL0     C10495   1.755   7.724   4.154  0.1264 -0.7645  0.7513
  819MOL0     C10496   1.103   7.715   3.559 -0.9948 -0.6249  0.1032
  819MOL0     C10497   1.012   7.758   3.456  0.6146  0.4483  0.6173
  819MOL0     H10498   0.652   7.518   3.088 -1.9500  1.5939  2.4911
  819MOL0     H10499   0.505   7.535   2.878 -2.0827  1.9866 -1.4872
  819MOL0     H10500   0.517   7.782   2.497 -1.2652 -1.5679 -0.6222
  819MOL0     H10501   0.620   7.880   2.597 -1.2271  0.2212  0.7601
  819MOL0     H10502   0.733   7.750   2.418 -0.4844 -1.5069 -1.1346
  819MOL0     H10503   0.799   7.691   2.572 -1.3173 -1.9311  1.5251
  819MOL0     H10504   0.558   7.564   2.470  0.1654 -0.6832  1.1533
  819MOL0     H10505   0.712   7.534   2.371  1.1438 -0.5445  0.8364
  819MOL0     H10506   0.825   7.438   2.560 -0.2627  0.9867  2.1814
  819MOL0     H10507   0.698   7.455   2.676  0.0156  0.1093  0.2030
  819MOL0     H10508   0.554   7.294   2.519 -0.1561 -2.1988 -1.2496
  819MOL0     H10509   0.700   7.278   2.420 -0.9302  0.3696 -0.1652
  819MOL0     H10510   0.802   7.178   2.639  0.1043  0.0437  2.0005
  819MOL0     H10511   0.667   7.248   2.732 -0.2124  0.3645  0.0909
  819MOL0     H10512   0.507   7.087   2.621 -0.2561  0.0532 -1.2199
  819MOL0     H10513   0.656   7.039   2.530  1.6880 -0.3015  1.1950
  819MOL0     H10514   0.645   7.029   2.833 -2.9549 -0.5885 -0.2642
  819MOL0     H10515   0.760   6.942   2.721 -0.2914 -1.8288  3.5696
  819MOL0     H10516   0.636   6.730   2.585  1.4412  0.3300  0.8656
  819MOL0     H10517   0.313   6.547   2.637  0.0075 -2.2486 -2.4581
  819MOL0     H10518   0.448   6.534   2.536  1.4295  3.0988 -1.3374
  819MOL0     H10519   0.579   6.412   2.712 -0.2539  1.1137 -1.1131
  819MOL0     H10520   0.429   6.338   2.661 -0.7755  1.8016 -0.9278
  819MOL0     H10521   0.324   6.422   2.885 -0.6649  1.8792 -3.2619
  819MOL0     H10522   0.476   6.494   2.911  2.2185  0.5947 -4.3450
  819MOL0     H10523   0.448   6.257   3.036  0.2568  0.0619 -0.2892
  819MOL0     H10524   0.589   6.269   2.956  0.4249 -1.3004 -0.6027
  819MOL0     H10525   0.201   6.084   2.925  2.3982 -0.7218 -2.7874
  819MOL0     H10526   0.075   5.830   3.145 -1.3354 -3.6991 -2.8272
  819MOL0     H10527   0.050   5.993   3.085  0.6475  0.2629  0.0292
  819MOL0     H10528   0.057   5.848   2.970 -0.7910 -2.3715  0.4894
  819MOL0     H10529   0.205   5.558   3.498  3.6237 -1.0635 -1.4971
  819MOL0     H10530   0.068   5.331   3.527  3.7545 -1.1592  0.0919
  819MOL0     H10531   0.036   5.123   3.505 -1.9077 -2.0986  2.2640
  819MOL0     H10532  -0.124   5.192   3.530 -2.0673 -0.6455 -0.9696
  819MOL0     H10533  -0.220   5.001   3.384  0.8286  5.5799 -1.9179
  819MOL0     H10534  -0.055   4.947   3.367 -1.2473  0.5160 -0.7458
  819MOL0     H10535  -0.230   4.941   3.619  0.1336  0.9953  0.3974
  819MOL0     H10536  -0.059   4.973   3.637  2.5530  0.0361 -2.4832
  819MOL0     H10537  -0.191   4.731   3.501  0.8412 -1.3901 -0.3179
  819MOL0     H10538  -0.018   4.736   3.514  1.5095  1.3523  1.3073
  819MOL0     H10539  -0.225   4.737   3.746  0.9845  3.2456 -1.3448
  819MOL0     H10540  -0.050   4.726   3.760  0.4127 -0.7169  0.2312
  819MOL0     H10541  -0.137   4.480   3.790 -1.2829  0.2353  0.7041
  819MOL0     H10542  -0.221   4.502   3.643 -2.2229  2.6797  1.9509
  819MOL0     H10543   0.083   4.507   3.684 -0.4224 -0.1896  0.8056
  819MOL0     H10544  -0.000   4.500   3.517 -1.9420 -2.6040 -1.6871
  819MOL0     H10545   0.080   4.279   3.574 -0.6712 -0.1913  0.4158
  819MOL0     H10546  -0.091   4.292   3.572  0.9179 -0.9393 -1.0263
  819MOL0     H10547  -0.039   5.346   3.121  1.7147  0.8101 -1.8606
  819MOL0     H10548   0.102   5.544   3.078  1.3686 -0.2222 -0.1975
  819MOL0     H10549   0.562   5.806   3.113 -1.7727 -2.4186 -0.9522
  819MOL0     H10550   0.611   6.001   2.957 -1.1461  2.6680 -1.6488
  819MOL0     H10551   0.745   7.857   2.750  1.4735 -1.6091 -1.6101
  819MOL0     H10552   0.869   7.861   2.966  0.2607  0.7979 -0.9965
  819MOL0     H10553   1.036   7.507   3.230  0.5020  1.9356 -0.8109
  819MOL0     H10554   1.214   7.427   3.417 -0.9232 -0.7480  2.0147
  819MOL0     H10555   1.330   7.749   3.673 -1.4594 -0.4401 -1.2400
  819MOL0     H10556   1.234   7.668   3.794  1.5320  0.8434  2.0394
  819MOL0     H10557   1.519   7.603   3.716  1.8056 -1.0591  1.9911
  819MOL0     H10558   1.432   7.491   3.823  3.3005 -1.2586  0.2115
  819MOL0     H10559   1.407   7.707   3.982  0.3072  3.3285 -1.0659
  819MOL0     H10560   1.512   7.781   3.873 -1.1947  1.8072  2.3836
  819MOL0     H10561   1.673   7.581   3.887  0.2627 -0.5702  0.1053
  819MOL0     H10562   1.574   7.521   4.018  4.3081 -3.3425 -1.7081
  819MOL0     H10563   1.829   7.756   4.224  1.1420 -5.0705  1.9385
  819MOL0     H10564   1.111   7.774   3.650  2.5195 -1.0853  0.2321
  819MOL0     H10565   0.947   7.843   3.476 -2.9408 -1.8532 -0.3071
  820MOL0     O10566   2.297   8.153   4.690  0.2705  0.2384 -0.4666
  820MOL0     C10567   2.399   8.125   4.622 -0.6841  0.4214  0.0365
  820MOL0     O10568   2.461   8.004   4.608  0.3362  0.1017 -0.4594
  820MOL0     C10569   2.431   7.900   4.692  0.4506 -0.3011 -0.2470
  820MOL0     C10570   2.437   7.771   4.640  0.9273 -0.3179  0.1348
  820MOL0     C10571   2.425   7.658   4.732  0.2810 -0.3819 -0.1863
  820MOL0     C10572   2.402   7.676   4.867  0.3855  0.0538 -0.2631
  820MOL0     O10573   2.409   7.563   4.950  0.3347  0.1919  0.8210
  820MOL0     C10574   2.313   7.554   5.058 -0.0882 -0.3420 -0.4976
  820MOL0     C10575   2.260   7.413   5.092 -0.4049  0.5804 -0.7839
  820MOL0     C10576   2.198   7.390   5.232  0.2497  0.1807 -1.3076
  820MOL0     C10577   2.217   7.249   5.277 -0.8905  0.1287  0.1415
  820MOL0     C10578   2.157   7.206   5.404 -0.2333  0.1312  0.3358
  820MOL0     C10579   2.230   7.257   5.532 -0.5450  0.0382  0.1422
  820MOL0     C10580   2.155   7.211   5.665  0.7054 -0.5594 -1.0447
  820MOL0     C10581   2.148   7.061   5.697 -0.4909  0.6714  1.0740
  820MOL0     N10582   2.041   7.027   5.795  0.1099 -0.5384 -0.7514
  820MOL0     C10583   1.985   6.905   5.823  0.5386  1.0626 -0.0602
  820MOL0     C10584   1.887   6.939   5.916  0.3176  0.0893  0.1870
  820MOL0     C10585   1.799   6.835   5.989 -0.2124  0.2340 -0.1467
  820MOL0     C10586   1.744   6.861   6.132 -0.8534 -0.8158  0.8552
  820MOL0     C10587   1.829   6.802   6.239  0.1486  0.1782 -0.3191
  820MOL0     C10588   1.736   6.767   6.358 -0.5518  0.2785  1.0680
  820MOL0     O10589   1.820   6.712   6.453 -0.0394 -0.5401 -0.6697
  820MOL0     C10590   1.830   6.786   6.568 -0.8212  0.1172  1.0765
  820MOL0     C10591   1.960   6.843   6.593  0.0613 -0.2669  0.0186
  820MOL0     C10592   1.977   6.922   6.711  0.6244  0.3104  0.1931
  820MOL0     C10593   2.114   6.970   6.743  0.0009  0.1624 -0.5751
  820MOL0     C10594   1.870   6.934   6.811 -0.2527 -0.3321  0.9697
  820MOL0     C10595   1.889   7.023   6.927  0.0274 -0.3383  0.1564
  820MOL0     O10596   1.828   6.963   7.033  0.2646  0.2464 -0.2083
  820MOL0     C10597   1.798   7.024   7.151 -0.2342  1.0650  0.2712
  820MOL0     C10598   1.799   7.161   7.182  0.0080 -0.3215  1.2102
  820MOL0     C10599   1.746   7.198   7.306 -0.5658 -0.0051 -0.1778
  820MOL0     C10600   1.693   7.110   7.395 -0.7521 -0.0983 -0.1100
  820MOL0     O10601   1.617   7.136   7.505 -0.2865  0.2051  0.4273
  820MOL0     C10602   1.504   7.225   7.481 -0.4379 -0.1942  1.3740
  820MOL0     C10603   1.387   7.157   7.561 -0.2669 -0.3858  0.2323
  820MOL0     C10604   1.390   7.196   7.714 -1.0783 -0.0033 -1.0682
  820MOL0     C10605   1.278   7.139   7.799  0.6584 -0.4953  0.5141
  820MOL0     C10606   1.286   7.169   7.947 -0.2723  0.2135 -0.5537
  820MOL0     C10607   1.274   7.320   7.994 -0.5095  0.0812 -0.2847
  820MOL0     C10608   1.271   7.344   8.147 -1.0212 -0.7383 -0.1920
  820MOL0     C10609   1.386   7.437   8.203 -0.8513  0.7232  0.1434
  820MOL0    Cl10610   1.527   7.342   8.183 -0.1323  0.3938 -0.4064
  820MOL0     C10611   1.703   6.973   7.366  0.4993 -0.0233  0.5480
  820MOL0     C10612   1.753   6.933   7.244  0.7313  0.2223  0.3047
  820MOL0     O10613   1.962   7.124   6.936 -0.1223 -0.0119 -0.0709
  820MOL0     C10614   1.752   6.865   6.792  0.2153 -0.0626  0.0937
  820MOL0     C10615   1.734   6.786   6.670  0.7604 -0.7047  0.3181
  820MOL0     N10616   1.904   7.070   5.959 -0.0180 -0.2121 -0.2354
  820MOL0     N10617   2.000   7.123   5.892 -1.0941 -0.3356 -0.3378
  820MOL0     C10618   2.390   7.809   4.914 -0.4084 -0.0500  0.0162
  820MOL0     C10619   2.406   7.916   4.827 -0.4940  0.6358 -0.4248
  820MOL0     C10620   2.441   8.230   4.534 -0.7408 -0.1320  0.4408
  820MOL0     C10621   2.402   8.361   4.564 -0.2430 -0.3410  0.5825
  820MOL0     C10622   2.440   8.477   4.485  0.3416  1.0750  0.6007
  820MOL0     C10623   2.540   8.457   4.386  0.8984 -0.0036  0.2435
  820MOL0     O10624   2.568   8.565   4.303  0.3637 -1.3400  0.0352
  820MOL0     C10625   2.639   8.547   4.182  0.0674  0.4591  0.5890
  820MOL0     C10626   2.640   8.673   4.117  0.4072  0.0494  0.3826
  820MOL0     C10627   2.497   8.724   4.095 -0.4491  0.2579  1.2793
  820MOL0     C10628   2.516   8.878   4.049  0.2113 -0.6414  0.4242
  820MOL0     C10629   2.596   8.886   3.926  0.0840  0.7973  0.5488
  820MOL0     C10630   2.656   8.891   3.819 -1.3311  0.1149 -0.1773
  820MOL0     C10631   2.583   8.323   4.363  0.1560 -0.3904 -0.0336
  820MOL0     C10632   2.537   8.214   4.439  0.3304 -0.1275  0.4823
  820MOL0     H10633   2.436   7.753   4.533 -0.3398 -2.0756  0.4029
  820MOL0     H10634   2.412   7.556   4.698 -2.0075 -0.6205  1.2061
  820MOL0     H10635   2.365   7.587   5.148 -0.5928 -0.4670 -0.1611
  820MOL0     H10636   2.228   7.622   5.051 -0.3523 -0.6579 -0.3520
  820MOL0     H10637   2.194   7.380   5.012  1.1571 -0.9188 -1.5316
  820MOL0     H10638   2.344   7.343   5.081  0.1671  0.5419  2.6992
  820MOL0     H10639   2.236   7.461   5.306 -3.2918 -1.0107  1.9945
  820MOL0     H10640   2.091   7.414   5.231 -0.0621  0.3012  4.0733
  820MOL0     H10641   2.166   7.190   5.201 -0.8537 -0.5692  0.6478
  820MOL0     H10642   2.326   7.234   5.284 -1.0738 -0.4637  2.2920
  820MOL0     H10643   2.052   7.239   5.404  0.4116  2.5286  2.0631
  820MOL0     H10644   2.159   7.097   5.405 -0.0790 -0.0004 -3.3705
  820MOL0     H10645   2.326   7.206   5.529 -2.0451 -2.9621 -0.3179
  820MOL0     H10646   2.239   7.366   5.533 -1.2369  0.1247  2.0979
  820MOL0     H10647   2.190   7.262   5.756 -1.5659  0.1672 -0.5271
  820MOL0     H10648   2.054   7.246   5.642  1.0271  0.3145 -1.1957
  820MOL0     H10649   2.248   7.028   5.726  0.0727 -1.7005 -2.7671
  820MOL0     H10650   2.133   7.012   5.600  1.1455  3.0219 -0.4760
  820MOL0     H10651   2.007   6.810   5.775  2.7667 -0.1256  2.9978
  820MOL0     H10652   1.717   6.810   5.921  1.4305 -0.1032 -2.1026
  820MOL0     H10653   1.863   6.747   6.006 -0.1589  0.1798 -0.6317
  820MOL0     H10654   1.639   6.831   6.140 -0.6806 -1.3320  1.2014
  820MOL0     H10655   1.749   6.971   6.137  0.6522 -0.6018 -2.4252
  820MOL0     H10656   1.919   6.862   6.259  0.4973  0.2318 -1.8916
  820MOL0     H10657   1.886   6.711   6.218 -0.7401  0.2147 -3.3624
  820MOL0     H10658   1.684   6.678   6.322  3.9579 -1.9393 -0.7343
  820MOL0     H10659   1.682   6.856   6.391  1.1992  1.0350  2.0223
  820MOL0     H10660   2.045   6.835   6.526 -2.0824 -1.5762 -2.7493
  820MOL0     H10661   2.193   6.930   6.679 -0.1629 -1.1611  0.0199
  820MOL0     H10662   2.130   7.078   6.738  1.0640  0.5310  4.7862
  820MOL0     H10663   2.139   6.950   6.848 -0.7242  2.9408  0.2433
  820MOL0     H10664   1.845   7.230   7.112 -1.0869 -3.1135 -2.5543
  820MOL0     H10665   1.733   7.305   7.323 -0.9596  0.2163 -1.6737
  820MOL0     H10666   1.514   7.329   7.514 -3.1617  0.6192 -0.1032
  820MOL0     H10667   1.464   7.236   7.380  0.3622 -3.1889  0.6518
  820MOL0     H10668   1.294   7.202   7.523  0.0434  2.2773  2.2979
  820MOL0     H10669   1.397   7.049   7.553 -0.0780 -0.3032 -0.8022
  820MOL0     H10670   1.385   7.299   7.751 -0.2229 -1.0104  2.2311
  820MOL0     H10671   1.480   7.154   7.760 -1.6505 -1.3533 -1.1178
  820MOL0     H10672   1.180   7.170   7.762  1.1299  1.5662  0.8700
  820MOL0     H10673   1.286   7.031   7.783  2.5905 -0.4938  1.1542
  820MOL0     H10674   1.386   7.131   7.966 -0.6957  0.9350  4.5808
  820MOL0     H10675   1.213   7.111   8.005 -0.4814 -0.5943 -1.6086
  820MOL0     H10676   1.342   7.390   7.946  0.8632  0.6174  2.2692
  820MOL0     H10677   1.171   7.343   7.964 -2.0841 -2.3817  2.5989
  820MOL0     H10678   1.281   7.247   8.198 -1.3265 -0.8884 -0.4126
  820MOL0     H10679   1.170   7.366   8.183 -1.6676 -0.8114 -1.8635
  820MOL0     H10680   1.348   7.476   8.298 -4.6604 -0.2025 -0.8463
  820MOL0     H10681   1.401   7.525   8.141  1.1838  1.1851  1.1901
  820MOL0     H10682   1.655   6.890   7.417  2.8437 -1.0122  1.3243
  820MOL0     H10683   1.774   6.832   7.210  2.7031  0.3704  0.9327
  820MOL0     H10684   1.677   6.865   6.870  1.1519 -2.8918  1.1214
  820MOL0     H10685   1.648   6.723   6.650  0.1115  1.3846 -4.7744
  820MOL0     H10686   2.386   7.828   5.021  2.5657 -0.0378  0.2074
  820MOL0     H10687   2.413   8.015   4.872  2.7860 -0.1080  1.0213
  820MOL0     H10688   2.338   8.371   4.651  0.7870 -0.7507  1.4147
  820MOL0     H10689   2.415   8.581   4.505  0.0933  1.5998 -2.0447
  820MOL0     H10690   2.744   8.518   4.193 -0.6509 -2.3007  1.0701
  820MOL0     H10691   2.600   8.468   4.116 -2.4734 -0.6105  3.1602
  820MOL0     H10692   2.693   8.665   4.021 -1.8404  0.4033 -0.9697
  820MOL0     H10693   2.688   8.744   4.185 -1.6121  0.3365  1.5796
  820MOL0     H10694   2.435   8.719   4.184  0.2207  0.2244  1.7534
  820MOL0     H10695   2.442   8.676   4.014 -0.6284 -0.9301  2.0848
  820MOL0     H10696   2.564   8.935   4.128 -0.1179  0.7425 -0.3461
  820MOL0     H10697   2.415   8.919   4.038 -0.1626 -1.0689  2.0670
  820MOL0     H10698   2.721   8.901   3.734  0.0025 -1.4607  0.5978
  820MOL0     H10699   2.649   8.290   4.284 -2.1441 -1.7764 -1.4884
  820MOL0     H10700   2.592   8.122   4.422 -0.2874 -1.0429  2.9617
  821MOL0     O10701   1.938   9.110   6.391  0.7562  0.2811  0.6401
  821MOL0     C10702   1.921   9.212   6.455 -0.0432  0.7887 -0.2161
  821MOL0     O10703   1.828   9.225   6.555  0.3101  0.8187  0.3369
  821MOL0     C10704   1.759   9.118   6.606  0.1773 -0.1732  0.2356
  821MOL0     C10705   1.814   8.992   6.617  0.3467  0.0747 -0.1004
  821MOL0     C10706   1.735   8.881   6.660 -1.0548 -0.3085 -0.1605
  821MOL0     C10707   1.606   8.897   6.686 -0.2277 -0.5540  0.7136
  821MOL0     O10708   1.526   8.799   6.733  0.5881  0.6482 -0.2712
  821MOL0     C10709   1.576   8.670   6.765  0.6306  0.4862 -0.3543
  821MOL0     C10710   1.448   8.596   6.829 -0.5820 -0.4928 -0.1053
  821MOL0     C10711   1.482   8.453   6.884 -0.4483  0.7352  0.2174
  821MOL0     C10712   1.464   8.447   7.042 -1.0044 -0.1423  0.5157
  821MOL0     C10713   1.466   8.300   7.094 -0.3593 -0.6164  0.3815
  821MOL0     C10714   1.461   8.305   7.248 -0.4968 -1.3350  0.2912
  821MOL0     C10715   1.469   8.170   7.318 -0.2958 -0.2210  0.2859
  821MOL0     C10716   1.496   8.189   7.469 -0.4090 -0.3843 -0.4517
  821MOL0     N10717   1.373   8.239   7.534 -0.3414  0.4517 -0.0532
  821MOL0     C10718   1.255   8.164   7.536  0.2890  0.6180 -0.4265
  821MOL0     C10719   1.167   8.245   7.602 -0.6661  0.0238 -0.2535
  821MOL0     C10720   1.037   8.201   7.655 -0.0555  1.1750  0.1514
  821MOL0     C10721   1.019   8.208   7.807  0.6647 -0.3032  0.1161
  821MOL0     C10722   0.971   8.349   7.867  0.2689  0.3110  0.7312
  821MOL0     C10723   1.072   8.460   7.863  0.1411  0.3869  0.0988
  821MOL0     O10724   1.055   8.568   7.965  0.1880 -0.2669 -0.0037
  821MOL0     C10725   1.034   8.538   8.103 -0.4186 -1.3430  0.3683
  821MOL0     C10726   1.152   8.524   8.182 -0.7233  0.4651 -0.1022
  821MOL0     C10727   1.147   8.515   8.320 -1.0222 -0.1456  0.6368
  821MOL0     C10728   1.281   8.499   8.387  0.3911 -0.0514 -0.4758
  821MOL0     C10729   1.018   8.522   8.381 -0.1122 -0.2356 -0.2137
  821MOL0     C10730   0.994   8.503   8.528 -0.1224 -0.1046  0.6912
  821MOL0     O10731   0.865   8.524   8.573 -0.2225  0.1261 -0.2647
  821MOL0     C10732   0.850   8.473   8.702  0.8086  0.1512  0.0678
  821MOL0     C10733   0.800   8.567   8.788 -1.0759  1.2914  0.0731
  821MOL0     C10734   0.755   8.521   8.909 -0.7828  0.6537  0.2202
  821MOL0     C10735   0.761   8.386   8.956 -0.2155  0.6838 -0.6997
  821MOL0     O10736   0.731   8.356   9.081 -0.5712 -0.7460  0.0002
  821MOL0     C10737   0.827   8.389   9.179 -0.4363  0.5655 -0.2345
  821MOL0     C10738   0.814   8.289   9.306 -0.1570  0.4893 -0.0645
  821MOL0     C10739   0.916   8.171   9.295 -0.1485  0.4910 -0.8450
  821MOL0     C10740   1.062   8.200   9.266 -0.1778  0.5833 -0.5079
  821MOL0     C10741   1.151   8.084   9.308  0.1652  0.3764  0.3076
  821MOL0     C10742   1.297   8.116   9.271 -0.3946 -0.5542 -0.0074
  821MOL0     C10743   1.391   8.034   9.359  0.4225  0.4520  0.1365
  821MOL0     C10744   1.537   8.042   9.310 -0.4892 -0.9971 -0.0028
  821MOL0    Cl10745   1.607   8.186   9.383  0.1116 -0.3282 -0.5997
  821MOL0     C10746   0.815   8.297   8.869 -0.4785 -0.9089 -1.1222
  821MOL0     C10747   0.858   8.339   8.736 -0.5290 -0.0672  0.5552
  821MOL0     O10748   1.091   8.464   8.593 -0.0685  0.3736  0.0545
  821MOL0     C10749   0.904   8.525   8.296  0.6469 -0.4804 -0.6451
  821MOL0     C10750   0.916   8.518   8.164 -0.6524 -0.9777 -1.1997
  821MOL0     N10751   1.225   8.370   7.635  0.4158  0.2993  0.1898
  821MOL0     N10752   1.342   8.364   7.577 -0.7083  0.7358  0.7454
  821MOL0     C10753   1.544   9.026   6.668  0.3050 -0.3876 -0.2057
  821MOL0     C10754   1.620   9.137   6.629  0.2422 -0.1328  0.1082
  821MOL0     C10755   1.996   9.329   6.411  0.9423 -1.5399 -0.5351
  821MOL0     C10756   2.097   9.336   6.308  0.2197  0.2263 -0.1414
  821MOL0     C10757   2.152   9.449   6.262 -0.8653 -0.2513 -0.0457
  821MOL0     C10758   2.109   9.567   6.308  1.0388 -0.9202  0.1600
  821MOL0     O10759   2.169   9.679   6.257 -0.2432 -0.2942  0.0514
  821MOL0     C10760   2.144   9.812   6.313 -0.1374  0.3780 -0.1940
  821MOL0     C10761   2.248   9.904   6.240 -0.5203 -1.1547 -0.0642
  821MOL0     C10762   2.207   9.916   6.098 -0.3563 -0.2325 -0.7421
  821MOL0     C10763   2.296  10.007   6.029 -0.7010  0.6367  0.8640
  821MOL0     C10764   2.421   9.943   6.005 -0.3162 -0.0070 -0.1285
  821MOL0     C10765   2.537   9.895   5.989  0.0796  0.4812 -0.7603
  821MOL0     C10766   2.018   9.568   6.417 -0.1339 -0.6542 -0.5541
  821MOL0     C10767   1.966   9.450   6.472 -0.1931  0.0701 -0.4812
  821MOL0     H10768   1.917   8.971   6.589  0.1345 -1.1170 -0.0543
  821MOL0     H10769   1.789   8.787   6.666 -0.0080  0.1986 -1.2316
  821MOL0     H10770   1.622   8.613   6.684  0.1333  0.9330 -0.9625
  821MOL0     H10771   1.646   8.672   6.849  0.4957 -0.4264 -0.2079
  821MOL0     H10772   1.393   8.645   6.909  0.1766 -1.6686  1.1789
  821MOL0     H10773   1.374   8.578   6.750 -4.0332 -1.0992  3.0408
  821MOL0     H10774   1.423   8.370   6.845 -1.1797  1.8726 -1.2233
  821MOL0     H10775   1.587   8.425   6.868 -1.0785 -0.8994 -1.4463
  821MOL0     H10776   1.542   8.508   7.090 -0.8822 -0.3457  0.5732
  821MOL0     H10777   1.368   8.491   7.073 -2.3575 -3.4154  1.4182
  821MOL0     H10778   1.381   8.245   7.053 -0.2271 -1.9250  1.7642
  821MOL0     H10779   1.559   8.254   7.061 -1.2930 -1.1835 -1.6180
  821MOL0     H10780   1.548   8.368   7.269 -1.9522  0.1050  2.3009
  821MOL0     H10781   1.369   8.347   7.289  2.2344  2.8246  2.7849
  821MOL0     H10782   1.376   8.112   7.312  0.2039 -1.2058  1.5865
  821MOL0     H10783   1.548   8.109   7.272 -0.0534 -0.4058  0.9333
  821MOL0     H10784   1.581   8.255   7.489  0.6893 -1.3382 -1.8101
  821MOL0     H10785   1.518   8.093   7.517 -0.2436  0.1685  0.6220
  821MOL0     H10786   1.232   8.060   7.513 -0.4397  0.0893  2.3405
  821MOL0     H10787   0.967   8.266   7.601  0.5575  5.3166  3.7508
  821MOL0     H10788   1.016   8.098   7.625  1.9102 -0.0554  2.6321
  821MOL0     H10789   1.109   8.168   7.855  0.8373 -0.5782 -0.4301
  821MOL0     H10790   0.938   8.137   7.822 -0.7257  1.5158  1.8599
  821MOL0     H10791   0.944   8.337   7.973 -5.0795  1.5030 -0.2138
  821MOL0     H10792   0.884   8.380   7.809  0.2715  0.0750  0.6008
  821MOL0     H10793   1.080   8.513   7.768 -2.5636 -0.4966 -0.7205
  821MOL0     H10794   1.160   8.405   7.896  0.8215  1.9677  0.9898
  821MOL0     H10795   1.247   8.532   8.130 -1.5425  2.8604 -1.3925
  821MOL0     H10796   1.286   8.548   8.485 -3.0787 -0.1681 -0.1215
  821MOL0     H10797   1.289   8.393   8.410  0.4362  0.3050  1.3237
  821MOL0     H10798   1.368   8.540   8.334 -0.8165  2.3827 -0.7340
  821MOL0     H10799   0.791   8.671   8.759 -1.4413  1.6522  1.3857
  821MOL0     H10800   0.698   8.603   8.952  1.6481  2.6195 -0.0886
  821MOL0     H10801   0.931   8.389   9.146 -0.5758 -0.1987 -0.6959
  821MOL0     H10802   0.801   8.491   9.209 -0.8092  0.0196  1.3843
  821MOL0     H10803   0.829   8.343   9.400  2.6106  0.4480 -0.3963
  821MOL0     H10804   0.714   8.245   9.314  0.6833 -1.1627  2.1171
  821MOL0     H10805   0.899   8.101   9.213 -0.3229  1.9199 -2.0561
  821MOL0     H10806   0.909   8.109   9.386  1.3787  1.6678  0.1252
  821MOL0     H10807   1.093   8.230   9.165  2.9012 -1.4946 -0.3133
  821MOL0     H10808   1.085   8.284   9.333  2.3297 -1.2945  1.1682
  821MOL0     H10809   1.114   7.994   9.257 -0.3954  0.9803 -0.3704
  821MOL0     H10810   1.140   8.070   9.416 -5.0528  1.0196  0.1152
  821MOL0     H10811   1.319   8.115   9.164  2.0610 -1.5568  0.4461
  821MOL0     H10812   1.315   8.219   9.303  0.1800 -0.0682 -1.8032
  821MOL0     H10813   1.361   7.929   9.355  0.5361  0.0637  4.7052
  821MOL0     H10814   1.387   8.067   9.463  0.6647 -1.6013  0.8478
  821MOL0     H10815   1.537   8.071   9.204 -0.8475  0.3415  0.3380
  821MOL0     H10816   1.601   7.957   9.335  0.3656 -0.3268  0.1607
  821MOL0     H10817   0.818   8.197   8.912  2.4441  0.5732  2.7428
  821MOL0     H10818   0.886   8.267   8.659  3.2389 -0.3215  1.9398
  821MOL0     H10819   0.802   8.507   8.327  0.2245  0.6136 -1.3379
  821MOL0     H10820   0.824   8.503   8.108 -2.0762  1.4217  0.3033
  821MOL0     H10821   1.442   9.043   6.699  0.8667 -0.4227  1.8130
  821MOL0     H10822   1.583   9.238   6.616  2.6997  1.2333  2.6235
  821MOL0     H10823   2.133   9.243   6.265  0.9880  1.0577 -1.3675
  821MOL0     H10824   2.224   9.435   6.182 -3.1618 -1.9605 -1.9700
  821MOL0     H10825   2.039   9.843   6.318 -0.4029 -0.6976  4.0958
  821MOL0     H10826   2.175   9.798   6.417  1.9775  1.8572 -0.5504
  821MOL0     H10827   2.351   9.866   6.243  0.4990  1.4508  0.0928
  821MOL0     H10828   2.248  10.004   6.285 -1.3198 -0.6424 -1.1632
  821MOL0     H10829   2.104   9.952   6.089 -0.5714  0.7030  3.4190
  821MOL0     H10830   2.203   9.818   6.049 -1.1708 -0.4890 -0.1917
  821MOL0     H10831   2.317  10.093   6.093  0.3149  1.1512 -0.1133
  821MOL0     H10832   2.251  10.042   5.935  0.8175 -0.2617 -0.2477
  821MOL0     H10833   2.641   9.871   5.976 -0.3087 -2.0378  0.1902
  821MOL0     H10834   1.991   9.668   6.451 -1.5653 -0.7371 -1.3724
  821MOL0     H10835   1.904   9.452   6.561 -0.4964 -0.5193 -0.6773
  822MOL0     O10836   2.859   6.239   2.051  0.0660  0.4928  0.4603
  822MOL0     C10837   2.919   6.344   2.067 -0.3057  0.1293 -0.5077
  822MOL0     O10838   2.872   6.459   2.130  0.5267  0.6210 -0.2672
  822MOL0     C10839   2.749   6.436   2.180  0.0386  0.7556  0.3968
  822MOL0     C10840   2.634   6.499   2.128  0.4600 -0.7931 -0.2467
  822MOL0     C10841   2.505   6.493   2.195  1.0512  0.4464 -0.2538
  822MOL0     C10842   2.495   6.405   2.311  0.0587  0.5672  0.4446
  822MOL0     O10843   2.384   6.387   2.380  0.0154  0.0225  0.2032
  822MOL0     C10844   2.266   6.393   2.308  0.5360 -0.9650  0.7887
  822MOL0     C10845   2.152   6.356   2.409  0.1782 -0.4576 -0.3081
  822MOL0     C10846   2.020   6.322   2.338  0.1616  0.2625 -1.1526
  822MOL0     C10847   1.916   6.435   2.313  0.1561 -0.4345 -0.0531
  822MOL0     C10848   1.810   6.407   2.208 -0.0420  0.6704  0.4761
  822MOL0     C10849   1.712   6.516   2.183  0.0876  0.1906 -0.1299
  822MOL0     C10850   1.592   6.476   2.106 -0.2712  0.2786 -0.2456
  822MOL0     C10851   1.626   6.430   1.971  0.3566 -0.5246  0.0913
  822MOL0     N10852   1.509   6.458   1.881  0.6266 -0.4791  0.8165
  822MOL0     C10853   1.393   6.380   1.880  0.4650 -0.5913 -0.3218
  822MOL0     C10854   1.300   6.468   1.817 -0.2137  0.0526 -0.4390
  822MOL0     C10855   1.156   6.437   1.794  0.4775 -0.8483  0.2693
  822MOL0     C10856   1.061   6.462   1.917 -0.0135 -0.2450  0.3113
  822MOL0     C10857   1.031   6.612   1.957  0.3239  0.5660  0.4882
  822MOL0     C10858   1.136   6.668   2.056 -0.6607  0.2077 -0.5565
  822MOL0     O10859   1.169   6.588   2.174  0.8226  0.3951  0.3865
  822MOL0     C10860   1.268   6.623   2.258  0.6234 -0.2601 -0.1347
  822MOL0     C10861   1.323   6.753   2.248 -0.1272  0.2930  0.2868
  822MOL0     C10862   1.420   6.790   2.351  0.6689  0.5379 -0.0015
  822MOL0     C10863   1.467   6.930   2.361  0.4473  0.0784 -0.3812
  822MOL0     C10864   1.470   6.687   2.435  0.0618  0.0412  0.0472
  822MOL0     C10865   1.592   6.700   2.517 -0.0252 -0.0082 -0.2755
  822MOL0     O10866   1.676   6.781   2.479 -0.2116  0.0833 -0.1278
  822MOL0     C10867   1.807   6.779   2.532  1.5146  0.2541 -0.8349
  822MOL0     C10868   1.877   6.694   2.622 -0.6739 -0.2531 -0.5933
  822MOL0     C10869   2.023   6.706   2.636  0.1570  0.7538 -0.1987
  822MOL0     C10870   2.098   6.792   2.562  0.7608 -0.2123 -1.4204
  822MOL0     O10871   2.232   6.782   2.555 -0.6220 -0.3474  0.1086
  822MOL0     C10872   2.302   6.669   2.615  0.5431  0.3940  0.7571
  822MOL0     C10873   2.449   6.691   2.611 -0.4011  0.0802 -0.4003
  822MOL0     C10874   2.502   6.751   2.480  0.5927 -0.5462 -0.5456
  822MOL0     C10875   2.649   6.733   2.475 -0.3726  1.0077  0.6484
  822MOL0     C10876   2.700   6.808   2.356 -0.9862 -0.9696  1.0906
  822MOL0     C10877   2.853   6.790   2.353  0.0149  0.2157  0.0279
  822MOL0     C10878   2.913   6.891   2.254 -0.0442 -0.1597 -0.0226
  822MOL0     C10879   2.903   6.853   2.099 -1.0410  1.1973  0.6199
  822MOL0    Cl10880   2.755   6.885   2.027  0.3247  0.2235  0.4672
  822MOL0     C10881   2.024   6.884   2.488  1.0678  0.5108 -0.3065
  822MOL0     C10882   1.884   6.869   2.472  0.9195  0.3216  0.3918
  822MOL0     O10883   1.594   6.647   2.627  0.6401  0.3491 -0.3775
  822MOL0     C10884   1.419   6.556   2.426  0.1836  0.2076  0.0041
  822MOL0     C10885   1.311   6.527   2.351 -0.4694 -0.0257  0.2851
  822MOL0     N10886   1.378   6.580   1.774  0.7602 -0.6111 -0.7417
  822MOL0     N10887   1.497   6.581   1.814  0.0755  0.1053 -1.3727
  822MOL0     C10888   2.616   6.350   2.361  0.5074  0.5637  0.0473
  822MOL0     C10889   2.738   6.357   2.293  0.4442 -0.3441 -0.3791
  822MOL0     C10890   3.062   6.361   2.012 -0.1591 -0.5177 -0.2582
  822MOL0     C10891   3.112   6.495   2.005 -0.3075 -0.7892  0.2210
  822MOL0     C10892   3.239   6.525   1.961  0.4541  0.6800 -1.1526
  822MOL0     C10893   3.322   6.419   1.913 -1.0173  1.4884  0.7299
  822MOL0     O10894   3.446   6.453   1.866  0.1121  0.0296 -0.0181
  822MOL0     C10895   3.546   6.360   1.821 -0.4154 -0.2148 -0.1242
  822MOL0     C10896   3.635   6.310   1.945  0.1270 -0.0770 -0.2476
  822MOL0     C10897   3.722   6.420   2.017  0.4353  0.1233  0.9622
  822MOL0     C10898   3.808   6.333   2.114 -0.3573 -0.1953 -0.3369
  822MOL0     C10899   3.870   6.426   2.208  0.0473  0.5682  1.4059
  822MOL0     C10900   3.918   6.517   2.271 -0.7442 -0.2378 -0.1528
  822MOL0     C10901   3.274   6.287   1.914 -0.2045 -0.5096 -0.1369
  822MOL0     C10902   3.136   6.267   1.956 -1.4392  0.0446 -0.5153
  822MOL0     H10903   2.648   6.561   2.040  1.8676  0.6991  0.9592
  822MOL0     H10904   2.423   6.556   2.164  1.0960  2.8324  3.7230
  822MOL0     H10905   2.246   6.497   2.279  0.3703 -0.5861  2.2229
  822MOL0     H10906   2.274   6.337   2.214  1.3995 -0.5517  0.6044
  822MOL0     H10907   2.203   6.268   2.452  1.3872  0.2479 -0.2480
  822MOL0     H10908   2.140   6.424   2.493  3.7363 -1.2254  1.0086
  822MOL0     H10909   2.056   6.275   2.246  2.8097 -0.2162  0.0348
  822MOL0     H10910   1.974   6.244   2.400  0.0767  1.1606 -0.0583
  822MOL0     H10911   1.871   6.470   2.406  2.3176  3.0774 -0.1378
  822MOL0     H10912   1.978   6.512   2.266  0.2395 -1.0366 -0.9447
  822MOL0     H10913   1.852   6.373   2.113 -3.4623  0.9624 -1.2960
  822MOL0     H10914   1.752   6.322   2.246  0.2975 -0.2735 -1.0534
  822MOL0     H10915   1.677   6.541   2.283 -2.1290 -0.6182 -0.6501
  822MOL0     H10916   1.757   6.606   2.139 -1.9304  0.3438 -2.0642
  822MOL0     H10917   1.537   6.398   2.159 -0.0473  1.6217  2.1142
  822MOL0     H10918   1.524   6.562   2.110 -1.9103 -0.9795  2.2945
  822MOL0     H10919   1.667   6.329   1.966  1.9415  0.1166 -0.2525
  822MOL0     H10920   1.708   6.488   1.927 -1.1415  1.9156  0.3308
  822MOL0     H10921   1.369   6.288   1.932 -2.1879 -0.3948 -1.0715
  822MOL0     H10922   1.103   6.497   1.719  2.2393  0.3130 -0.1234
  822MOL0     H10923   1.134   6.335   1.763  0.2563 -0.7319  0.0316
  822MOL0     H10924   1.098   6.408   2.005  1.2971 -1.7971 -1.1130
  822MOL0     H10925   0.962   6.429   1.885 -0.4963  2.0429 -0.7355
  822MOL0     H10926   0.930   6.622   1.998  0.6993  2.1429  1.1031
  822MOL0     H10927   1.027   6.677   1.869 -0.5526  0.3017  0.3259
  822MOL0     H10928   1.103   6.770   2.076 -0.4525  0.3636 -1.0159
  822MOL0     H10929   1.227   6.685   1.998 -1.2051  4.2030 -0.5316
  822MOL0     H10930   1.276   6.822   2.178 -2.8200  0.0443  1.7131
  822MOL0     H10931   1.471   6.956   2.467 -2.3678  0.3174 -0.2522
  822MOL0     H10932   1.566   6.936   2.317  0.3027 -0.4574 -0.7894
  822MOL0     H10933   1.397   6.999   2.314  0.8540  1.1945  0.6143
  822MOL0     H10934   1.827   6.616   2.678 -0.2406 -0.2084 -0.1392
  822MOL0     H10935   2.064   6.637   2.709 -2.5147 -1.3240 -0.4856
  822MOL0     H10936   2.279   6.671   2.722 -0.8013 -0.6956  0.5202
  822MOL0     H10937   2.279   6.583   2.551  3.5026  2.4145 -3.5059
  822MOL0     H10938   2.473   6.756   2.696  0.3228 -0.4311 -0.2070
  822MOL0     H10939   2.494   6.592   2.620 -0.8436 -0.1485 -0.6870
  822MOL0     H10940   2.500   6.860   2.484 -1.0478 -0.5830  0.4083
  822MOL0     H10941   2.448   6.724   2.388 -2.6749  1.3681  0.6806
  822MOL0     H10942   2.694   6.779   2.563  0.5542  0.3837  0.5167
  822MOL0     H10943   2.671   6.627   2.461 -0.7646  0.7099  2.1672
  822MOL0     H10944   2.679   6.914   2.379 -1.5280 -0.9150  0.3862
  822MOL0     H10945   2.660   6.768   2.263 -0.3242 -0.9222  0.7810
  822MOL0     H10946   2.908   6.805   2.446 -0.1445 -1.2937  0.3867
  822MOL0     H10947   2.869   6.691   2.310  0.2333  0.8778 -1.4827
  822MOL0     H10948   3.021   6.897   2.272  0.0154  1.3128 -0.7422
  822MOL0     H10949   2.864   6.987   2.269 -3.8301 -1.7500 -0.9535
  822MOL0     H10950   2.924   6.748   2.079 -1.2133  1.5437 -1.6145
  822MOL0     H10951   2.980   6.904   2.040 -0.0644  0.6654  1.3858
  822MOL0     H10952   2.083   6.955   2.431 -1.6405  1.5287 -2.0309
  822MOL0     H10953   1.850   6.944   2.402  1.6410 -0.9923 -1.4636
  822MOL0     H10954   1.453   6.479   2.494 -3.9569  0.5152  2.7792
  822MOL0     H10955   1.260   6.431   2.349 -2.0643  0.7806 -2.2662
  822MOL0     H10956   2.611   6.298   2.456  1.4535 -1.0240 -0.7122
  822MOL0     H10957   2.833   6.316   2.326 -0.0550 -2.2435 -1.1999
  822MOL0     H10958   3.060   6.586   2.033  0.7787 -0.4225  1.1231
  822MOL0     H10959   3.257   6.631   1.975 -1.4683  1.0517 -1.2284
  822MOL0     H10960   3.501   6.278   1.764 -2.9536  2.0667 -1.6738
  822MOL0     H10961   3.619   6.408   1.755 -2.6296  0.6884 -2.0694
  822MOL0     H10962   3.705   6.231   1.915 -1.8954 -1.6566 -1.0684
  822MOL0     H10963   3.556   6.273   2.011 -1.3691  1.8998 -0.8378
  822MOL0     H10964   3.663   6.498   2.066  0.2692  1.3715 -1.1407
  822MOL0     H10965   3.793   6.477   1.957  3.3381 -2.6979  1.4301
  822MOL0     H10966   3.893   6.285   2.064 -2.3961 -4.8297  0.1459
  822MOL0     H10967   3.751   6.253   2.163 -0.6171 -0.4031 -0.9692
  822MOL0     H10968   3.950   6.607   2.319  0.0500 -0.8006  0.3930
  822MOL0     H10969   3.328   6.200   1.877  0.7117 -0.3263  0.7121
  822MOL0     H10970   3.104   6.163   1.963 -3.0635  0.6698  3.0886
  823MOL0     O10971   6.549   0.234   5.777 -0.7070 -0.2246  0.0967
  823MOL0     C10972   6.495   0.343   5.777  0.6991 -0.2137 -0.3933
  823MOL0     O10973   6.556   0.463   5.755  1.1129  0.0274  0.0777
  823MOL0     C10974   6.684   0.474   5.697 -0.4113  0.6568 -0.3807
  823MOL0     C10975   6.767   0.576   5.743  0.3010  0.7398 -0.3998
  823MOL0     C10976   6.899   0.593   5.682  0.1501  0.2137  1.1571
  823MOL0     C10977   6.953   0.499   5.595 -0.3132 -0.2295  0.0834
  823MOL0     O10978   7.067   0.518   5.523 -0.0415  0.3764 -0.3376
  823MOL0     C10979   7.117   0.417   5.442 -0.1945 -0.7352  0.3265
  823MOL0     C10980   7.273   0.447   5.417 -0.5617 -0.2969  0.2747
  823MOL0     C10981   7.293   0.558   5.309 -0.2999  0.0224  0.2245
  823MOL0     C10982   7.444   0.600   5.312 -0.3375  0.3935 -0.6940
  823MOL0     C10983   7.539   0.496   5.234 -0.3271 -0.9232 -0.2979
  823MOL0     C10984   7.656   0.573   5.206  0.9456  0.0494  1.0634
  823MOL0     C10985   7.775   0.495   5.148 -0.0253 -0.3740  0.3751
  823MOL0     C10986   7.840   0.394   5.239 -0.0311 -0.6385 -0.5738
  823MOL0     N10987   7.868   0.455   5.371  0.0934 -0.6419  0.3631
  823MOL0     C10988   7.961   0.559   5.387 -0.2329 -0.4533  0.0595
  823MOL0     C10989   7.981   0.559   5.521  0.0261  1.0879 -0.3992
  823MOL0     C10990   8.070   0.638   5.601  0.2909  0.5016  0.5941
  823MOL0     C10991   8.210   0.654   5.543 -1.0759 -0.1876  0.1137
  823MOL0     C10992   8.276   0.527   5.481  0.4584  0.0110 -0.2403
  823MOL0     C10993   8.255   0.390   5.556  0.1957  0.3975 -0.1204
  823MOL0     O10994   8.316   0.269   5.507  0.8437 -0.0782 -0.0369
  823MOL0     C10995   8.264   0.219   5.399 -0.7756  0.8417 -0.1513
  823MOL0     C10996   8.178   0.102   5.399 -0.3978 -0.4166 -0.9331
  823MOL0     C10997   8.119   0.047   5.282  0.2020 -0.3422 -0.7823
  823MOL0     C10998   8.033  -0.079   5.287  0.1859 -0.3861 -1.4403
  823MOL0     C10999   8.169   0.098   5.157  0.1276  0.3153 -0.3880
  823MOL0     C11000   8.112   0.070   5.022  0.0547  0.6433 -0.4862
  823MOL0     O11001   8.193   0.097   4.917  0.4401  0.0477 -0.2759
  823MOL0     C11002   8.166   0.065   4.783 -0.0558 -0.4857 -0.5752
  823MOL0     C11003   8.084  -0.039   4.750 -0.4186 -0.3997  0.1017
  823MOL0     C11004   8.066  -0.065   4.611 -0.3349  0.2467 -0.6188
  823MOL0     C11005   8.121   0.012   4.510 -0.2467 -0.4552  0.7531
  823MOL0     O11006   8.084  -0.019   4.378 -0.6922  0.9706 -0.7290
  823MOL0     C11007   8.112   0.083   4.281 -0.3313  0.1140 -0.6144
  823MOL0     C11008   8.050   0.040   4.140 -0.3089  1.1891 -1.0610
  823MOL0     C11009   7.906   0.003   4.121 -0.0520 -1.8345 -0.4503
  823MOL0     C11010   7.791   0.086   4.178  0.0279  0.1214 -0.8077
  823MOL0     C11011   7.673   0.043   4.101  0.7715  0.9134  0.2956
  823MOL0     C11012   7.563   0.158   4.077  0.0829  0.1527 -0.1188
  823MOL0     C11013   7.561   0.258   4.192  0.1600 -0.1600 -0.2755
  823MOL0     C11014   7.412   0.303   4.211 -0.6750  0.2482 -0.9399
  823MOL0    Cl11015   7.346   0.178   4.329  0.2598 -0.0757 -0.0206
  823MOL0     C11016   8.206   0.114   4.546  0.5193 -0.5729  0.3395
  823MOL0     C11017   8.226   0.146   4.687  0.0648 -0.1301 -0.0076
  823MOL0     O11018   7.989   0.049   5.017 -0.1181 -0.1615 -0.4955
  823MOL0     C11019   8.263   0.206   5.160 -0.8140  1.1595  0.7919
  823MOL0     C11020   8.303   0.264   5.277  0.3254  0.6485 -0.9899
  823MOL0     N11021   7.898   0.467   5.588  0.2665 -0.5448 -0.3451
  823MOL0     N11022   7.830   0.411   5.497 -0.0137 -0.0325 -0.3588
  823MOL0     C11023   6.861   0.404   5.544 -1.1141  0.5496 -0.2343
  823MOL0     C11024   6.740   0.383   5.602  0.7022  1.0655  0.4678
  823MOL0     C11025   6.358   0.352   5.823  0.3667  0.1717 -0.7058
  823MOL0     C11026   6.290   0.241   5.870 -1.1479  0.0410 -0.3376
  823MOL0     C11027   6.148   0.249   5.902  0.0867  0.6113  0.4339
  823MOL0     C11028   6.087   0.379   5.887  0.7853  0.4121 -0.6801
  823MOL0     O11029   5.946   0.380   5.915 -0.6277  0.1472  0.8745
  823MOL0     C11030   5.865   0.489   5.871 -0.7815 -0.1957  0.4128
  823MOL0     C11031   5.722   0.431   5.834  0.2343 -0.8115  0.0209
  823MOL0     C11032   5.663   0.343   5.950 -0.0890 -0.8691  0.7478
  823MOL0     C11033   5.534   0.266   5.912 -1.2406 -0.1135 -0.8039
  823MOL0     C11034   5.419   0.348   5.881 -0.1281  0.5798 -0.4725
  823MOL0     C11035   5.335   0.428   5.852  0.2748  0.4017  0.2895
  823MOL0     C11036   6.159   0.497   5.847  0.2007  0.9637  0.4680
  823MOL0     C11037   6.291   0.475   5.819 -0.3131 -0.7770 -0.4071
  823MOL0     H11038   6.741   0.643   5.824 -1.8619 -3.1171  2.4073
  823MOL0     H11039   6.960   0.680   5.705  0.2460  0.9930 -1.6977
  823MOL0     H11040   7.101   0.314   5.475  2.9136 -2.4121 -2.7993
  823MOL0     H11041   7.066   0.419   5.345  1.3184 -0.8618 -0.4969
  823MOL0     H11042   7.321   0.462   5.515  1.2697 -0.0427 -0.6210
  823MOL0     H11043   7.327   0.360   5.379  0.4090 -1.3127  3.6071
  823MOL0     H11044   7.237   0.533   5.219 -4.7876  0.1301  2.6486
  823MOL0     H11045   7.234   0.638   5.355  1.4900 -0.6449  4.1588
  823MOL0     H11046   7.437   0.697   5.263  2.2185  1.0107  0.0291
  823MOL0     H11047   7.491   0.613   5.410  3.6503  0.3574 -2.4332
  823MOL0     H11048   7.564   0.409   5.295 -1.1824 -0.7345  0.3374
  823MOL0     H11049   7.508   0.460   5.136  0.8655  0.6379 -1.3053
  823MOL0     H11050   7.635   0.646   5.128  2.3256 -1.8655 -1.2301
  823MOL0     H11051   7.683   0.635   5.293  1.3880  3.6749 -1.4451
  823MOL0     H11052   7.740   0.436   5.063 -1.8424 -0.0805  0.8775
  823MOL0     H11053   7.855   0.558   5.107  0.2549 -2.6338 -2.8974
  823MOL0     H11054   7.937   0.375   5.192  1.1931  5.0043 -1.0018
  823MOL0     H11055   7.772   0.308   5.246 -1.3539  0.4554  0.7177
  823MOL0     H11056   8.014   0.624   5.318  0.3269 -0.1332  0.7814
  823MOL0     H11057   8.038   0.741   5.624 -0.3859  0.6531 -0.8837
  823MOL0     H11058   8.068   0.590   5.700  0.4943 -3.4566 -1.1644
  823MOL0     H11059   8.269   0.701   5.623 -2.5754 -0.9788  1.7344
  823MOL0     H11060   8.211   0.731   5.465  0.8162  0.1533  0.4146
  823MOL0     H11061   8.375   0.552   5.441 -1.1058  2.3832 -3.0129
  823MOL0     H11062   8.212   0.514   5.393 -3.1029  4.1986  1.3742
  823MOL0     H11063   8.150   0.360   5.562 -0.1431  1.7801  2.3353
  823MOL0     H11064   8.294   0.391   5.658  0.3350 -1.7192 -0.1140
  823MOL0     H11065   8.152   0.057   5.494  3.1525  1.6612  1.2394
  823MOL0     H11066   7.961  -0.060   5.367 -0.2236  0.7729 -2.0684
  823MOL0     H11067   7.979  -0.103   5.195 -5.1211 -0.6103  1.3866
  823MOL0     H11068   8.098  -0.165   5.308 -0.2631 -0.7341 -1.4660
  823MOL0     H11069   8.045  -0.090   4.837 -0.4203  0.5082  0.6507
  823MOL0     H11070   8.002  -0.150   4.591 -2.3809  1.1834  1.4247
  823MOL0     H11071   8.057   0.175   4.302  1.5300  1.0980  0.1847
  823MOL0     H11072   8.220   0.100   4.281 -0.6829  2.7477 -1.9130
  823MOL0     H11073   8.061   0.126   4.073 -0.0373  1.0223 -1.2355
  823MOL0     H11074   8.120  -0.041   4.117 -2.8011 -1.4205  0.0796
  823MOL0     H11075   7.890  -0.093   4.172  2.1457 -1.1810  1.6787
  823MOL0     H11076   7.899  -0.013   4.013  1.3345  2.0520 -1.2801
  823MOL0     H11077   7.779   0.075   4.286  1.0377 -1.9218 -0.8566
  823MOL0     H11078   7.828   0.186   4.153  2.6299 -1.3716 -3.6223
  823MOL0     H11079   7.627  -0.039   4.158 -0.2978  0.0471 -1.7055
  823MOL0     H11080   7.704  -0.002   4.006  2.0375  2.4290 -0.0463
  823MOL0     H11081   7.582   0.220   3.989  2.3454 -2.3853 -1.5592
  823MOL0     H11082   7.462   0.115   4.068  0.2635  0.0890 -2.8238
  823MOL0     H11083   7.620   0.343   4.157 -2.6205  2.8715  1.8466
  823MOL0     H11084   7.606   0.234   4.288  2.1678  2.7171 -0.3832
  823MOL0     H11085   7.347   0.303   4.124 -0.4142  1.6340 -1.1688
  823MOL0     H11086   7.405   0.401   4.259 -0.1332  0.0056 -0.3443
  823MOL0     H11087   8.266   0.156   4.465 -1.6706 -0.0481 -1.1128
  823MOL0     H11088   8.287   0.232   4.714 -0.2899  0.9519 -2.4026
  823MOL0     H11089   8.318   0.244   5.075 -2.1514 -1.0317 -1.1852
  823MOL0     H11090   8.379   0.342   5.282 -0.5970  1.5165  1.2149
  823MOL0     H11091   6.888   0.340   5.461  1.2198 -1.7216  2.0650
  823MOL0     H11092   6.677   0.299   5.576  0.7089  1.0491  0.5040
  823MOL0     H11093   6.346   0.150   5.886 -1.6391 -0.2341 -0.1532
  823MOL0     H11094   6.097   0.165   5.948  0.3297 -0.2115 -0.7612
  823MOL0     H11095   5.851   0.563   5.950 -2.2596  0.8502 -0.7845
  823MOL0     H11096   5.898   0.547   5.785 -3.0145  0.7337  0.1185
  823MOL0     H11097   5.716   0.379   5.739  2.5595 -2.6772  0.8166
  823MOL0     H11098   5.658   0.519   5.818 -1.5479 -1.6354  2.0692
  823MOL0     H11099   5.640   0.404   6.037 -1.8309 -3.5161  2.3017
  823MOL0     H11100   5.742   0.276   5.985  2.3770  0.8389 -1.2159
  823MOL0     H11101   5.517   0.185   5.983  0.1334 -2.9848 -3.4949
  823MOL0     H11102   5.560   0.213   5.819  0.8403 -0.8788  0.1468
  823MOL0     H11103   5.267   0.509   5.841 -1.5796 -1.2308 -0.8437
  823MOL0     H11104   6.115   0.593   5.822  1.9698  1.1603 -2.2960
  823MOL0     H11105   6.348   0.563   5.792  3.1897 -2.4701  0.9093
  824MOL0     O11106  10.241   1.766   5.957 -0.3131 -0.2765 -0.6941
  824MOL0     C11107  10.288   1.654   5.908  0.2123 -0.3114 -0.5792
  824MOL0     O11108  10.223   1.581   5.819 -0.8146 -0.2148 -0.2649
  824MOL0     C11109  10.093   1.613   5.788 -0.2805 -0.0902 -0.4236
  824MOL0     C11110   9.983   1.528   5.821 -0.2391 -0.6673  0.5136
  824MOL0     C11111   9.853   1.571   5.780  0.2460  0.3063 -0.3362
  824MOL0     C11112   9.828   1.685   5.711  0.7961  0.8340 -0.2086
  824MOL0     O11113   9.699   1.726   5.677  0.1508  0.5564 -1.0527
  824MOL0     C11114   9.610   1.756   5.789 -1.0257  0.7313  0.1064
  824MOL0     C11115   9.499   1.852   5.761 -0.0975  0.3116 -0.0786
  824MOL0     C11116   9.524   1.929   5.627 -0.3171 -0.9800 -0.5959
  824MOL0     C11117   9.399   2.012   5.594 -0.4576 -0.1554 -0.0462
  824MOL0     C11118   9.338   2.118   5.684 -0.5252 -0.3105 -0.5373
  824MOL0     C11119   9.222   2.196   5.605  0.4939 -0.3639  0.6351
  824MOL0     C11120   9.124   2.276   5.699  0.5450 -0.3129  0.9261
  824MOL0     C11121   9.163   2.431   5.717 -0.5219  0.5632  0.4395
  824MOL0     N11122   9.156   2.506   5.590  0.4043  0.8512 -0.1524
  824MOL0     C11123   9.038   2.507   5.518 -0.7927  0.1541  0.8999
  824MOL0     C11124   9.076   2.586   5.411 -1.3873  0.0597 -0.0173
  824MOL0     C11125   8.993   2.628   5.290 -0.4309  0.2480  0.5532
  824MOL0     C11126   8.999   2.521   5.182 -0.7257  0.4768  0.2964
  824MOL0     C11127   8.899   2.396   5.198 -0.5452  0.6388  0.6899
  824MOL0     C11128   8.967   2.264   5.152  0.6177 -0.4064 -0.4153
  824MOL0     O11129   8.858   2.169   5.106  0.5046  0.4476 -0.3682
  824MOL0     C11130   8.895   2.069   5.020  1.1015 -0.1113  0.2906
  824MOL0     C11131   8.812   2.029   4.915 -0.0768 -1.1125 -0.1732
  824MOL0     C11132   8.839   1.924   4.831  0.6899 -0.7316 -0.8798
  824MOL0     C11133   8.730   1.878   4.741  0.8317  0.0410  0.5230
  824MOL0     C11134   8.960   1.856   4.837 -0.4725  0.5011  1.2482
  824MOL0     C11135   8.992   1.736   4.747  0.3061  0.0796 -0.0564
  824MOL0     O11136   8.906   1.681   4.655  0.1092 -0.6705  0.7068
  824MOL0     C11137   8.942   1.564   4.592  0.5872  0.2078  0.2127
  824MOL0     C11138   9.009   1.454   4.655  0.5860 -1.0313 -0.8292
  824MOL0     C11139   9.021   1.331   4.602  0.5786 -0.8646 -0.2867
  824MOL0     C11140   8.956   1.302   4.480  0.0428 -0.9937 -0.3002
  824MOL0     O11141   8.946   1.174   4.450  0.0835 -0.6623  0.6386
  824MOL0     C11142   8.962   1.148   4.310 -0.2027 -0.5619 -1.0895
  824MOL0     C11143   9.067   1.032   4.315 -0.4354  0.7579 -0.0832
  824MOL0     C11144   9.195   1.075   4.403 -0.6874  0.2767 -0.4183
  824MOL0     C11145   9.312   0.966   4.387  1.1511  0.3336  0.8556
  824MOL0     C11146   9.423   1.021   4.296 -0.4511  0.1015  0.1234
  824MOL0     C11147   9.367   1.086   4.170  0.5288  0.4755  0.6040
  824MOL0     C11148   9.485   1.094   4.067 -0.0264  0.6252  1.8463
  824MOL0     C11149   9.430   1.158   3.927 -0.4229 -0.6204 -0.7023
  824MOL0    Cl11150   9.290   1.070   3.844 -0.3235 -0.3540 -0.6541
  824MOL0     C11151   8.885   1.401   4.415 -0.0876  0.4097 -0.2253
  824MOL0     C11152   8.884   1.529   4.470  0.0219 -0.8030  0.0661
  824MOL0     O11153   9.107   1.700   4.760 -0.0650 -0.2638 -0.1732
  824MOL0     C11154   9.049   1.900   4.935 -0.0530 -0.0987  0.5808
  824MOL0     C11155   9.020   2.002   5.023  0.9467  0.6584 -0.0755
  824MOL0     N11156   9.209   2.627   5.424  0.0179 -0.3841  0.0898
  824MOL0     N11157   9.258   2.575   5.535 -0.2257  0.5908 -0.2811
  824MOL0     C11158   9.937   1.760   5.674  0.3561  0.5315 -0.0564
  824MOL0     C11159  10.063   1.733   5.716 -0.2546  0.1205 -0.3378
  824MOL0     C11160  10.435   1.627   5.946  0.2574  0.2620  0.1795
  824MOL0     C11161  10.477   1.674   6.078  0.6042 -0.7466 -0.3967
  824MOL0     C11162  10.608   1.640   6.101 -0.1466 -1.4744 -0.2165
  824MOL0     C11163  10.701   1.576   6.021  0.2464 -0.5122  0.2940
  824MOL0     O11164  10.826   1.554   6.065  0.2186  0.7742  0.7527
  824MOL0     C11165  10.901   1.468   5.971 -1.0354 -0.3777 -0.1524
  824MOL0     C11166  11.030   1.426   6.040 -0.3956  0.7667 -1.1746
  824MOL0     C11167  11.095   1.305   5.962  0.8540 -0.4465  0.1108
  824MOL0     C11168  11.197   1.233   6.038  0.6119 -0.3294 -0.4495
  824MOL0     C11169  11.139   1.160   6.155 -0.9056 -0.6694 -0.4101
  824MOL0     C11170  11.086   1.100   6.244 -0.1600  0.9481 -0.6318
  824MOL0     C11171  10.653   1.547   5.888 -0.4623 -0.0547 -0.9374
  824MOL0     C11172  10.526   1.578   5.852 -0.3340  0.5866  0.3650
  824MOL0     H11173   9.997   1.431   5.868  2.9100 -2.5093 -3.5603
  824MOL0     H11174   9.765   1.514   5.806  0.3102 -0.2829 -1.3904
  824MOL0     H11175   9.566   1.659   5.810  1.6195 -0.8533 -1.1307
  824MOL0     H11176   9.670   1.802   5.868  1.3941 -1.9253 -0.0161
  824MOL0     H11177   9.401   1.803   5.765  0.9300 -1.7669  1.5843
  824MOL0     H11178   9.508   1.926   5.841  2.4578  1.3329 -1.1856
  824MOL0     H11179   9.617   1.986   5.640 -0.0956 -1.1550 -1.3759
  824MOL0     H11180   9.539   1.852   5.552 -0.7767 -1.0293 -0.6410
  824MOL0     H11181   9.414   2.055   5.494  1.8082 -1.4632 -0.3334
  824MOL0     H11182   9.325   1.933   5.582  1.8378 -2.0229 -4.2497
  824MOL0     H11183   9.294   2.062   5.767 -0.1958  0.6126  0.2719
  824MOL0     H11184   9.409   2.195   5.714  0.2096  0.0576 -3.0195
  824MOL0     H11185   9.255   2.257   5.520 -0.2831  0.3563  0.8285
  824MOL0     H11186   9.160   2.127   5.548  0.0319 -0.0502  0.7562
  824MOL0     H11187   9.021   2.268   5.663  1.7940 -1.2448 -2.9496
  824MOL0     H11188   9.120   2.222   5.794 -1.7552 -1.1207  0.4168
  824MOL0     H11189   9.263   2.442   5.759 -0.9581  3.9263  0.8839
  824MOL0     H11190   9.088   2.473   5.785 -1.5850 -1.8608  0.8646
  824MOL0     H11191   8.941   2.460   5.530 -0.4911 -0.6960  0.0709
  824MOL0     H11192   8.890   2.643   5.323  0.4553  0.8069  3.3196
  824MOL0     H11193   9.038   2.719   5.251  1.9125 -0.4793  1.4191
  824MOL0     H11194   9.101   2.485   5.196 -1.1255  0.1937  2.8922
  824MOL0     H11195   8.976   2.552   5.079  0.4003 -0.0377 -0.1355
  824MOL0     H11196   8.808   2.407   5.139  0.5634  0.9678 -1.0542
  824MOL0     H11197   8.872   2.387   5.304 -0.0047 -0.3792  0.7551
  824MOL0     H11198   9.020   2.220   5.236  1.5596  0.4745 -0.5317
  824MOL0     H11199   9.043   2.263   5.074 -1.6935 -0.0183 -2.8540
  824MOL0     H11200   8.713   2.072   4.913 -0.9197 -2.9599 -1.3262
  824MOL0     H11201   8.644   1.945   4.754 -0.9197 -1.7890 -1.0808
  824MOL0     H11202   8.758   1.878   4.636  1.0084 -0.8966  0.5696
  824MOL0     H11203   8.681   1.783   4.764  1.5325 -0.5171 -0.2831
  824MOL0     H11204   9.018   1.460   4.763 -1.7879 -0.7830 -0.5912
  824MOL0     H11205   9.060   1.236   4.638  0.4780 -0.0618  2.0821
  824MOL0     H11206   8.862   1.124   4.274 -0.6286 -0.2071 -0.1733
  824MOL0     H11207   9.012   1.226   4.252  0.9492  1.3598  2.1811
  824MOL0     H11208   9.037   0.936   4.359  0.6129  0.2212 -0.5066
  824MOL0     H11209   9.086   1.014   4.209 -2.3409  1.2170 -0.5325
  824MOL0     H11210   9.161   1.081   4.507 -0.5298 -0.2813 -0.3289
  824MOL0     H11211   9.226   1.178   4.384 -1.3361  0.6355  0.3877
  824MOL0     H11212   9.355   0.940   4.484  1.0043  0.1900  0.8824
  824MOL0     H11213   9.278   0.875   4.335  1.2920 -0.8001  2.6412
  824MOL0     H11214   9.483   0.937   4.259  0.8827  1.9310 -2.1613
  824MOL0     H11215   9.489   1.084   4.357 -0.9566 -0.1071  0.9051
  824MOL0     H11216   9.288   1.018   4.137  2.5827 -2.3288  1.1643
  824MOL0     H11217   9.335   1.189   4.190  1.6532  0.7954  0.7956
  824MOL0     H11218   9.511   0.991   4.041 -0.9914  0.7596  0.2115
  824MOL0     H11219   9.569   1.154   4.101 -0.4234  2.4744 -0.2120
  824MOL0     H11220   9.514   1.150   3.856  1.2537  0.8795  1.0160
  824MOL0     H11221   9.410   1.263   3.945  2.5834 -0.2556  1.2034
  824MOL0     H11222   8.841   1.362   4.324 -3.1290 -2.2789  2.1744
  824MOL0     H11223   8.821   1.609   4.432 -0.5229 -1.9952 -1.6559
  824MOL0     H11224   9.155   1.874   4.942  0.2624  0.5554 -1.2436
  824MOL0     H11225   9.103   2.041   5.082  0.8622 -1.9852  1.9657
  824MOL0     H11226   9.926   1.847   5.611  0.2470  1.1202  0.7618
  824MOL0     H11227  10.142   1.798   5.680 -0.4096  1.5170  1.6724
  824MOL0     H11228  10.415   1.716   6.156  0.5747 -2.4604  0.5552
  824MOL0     H11229  10.644   1.669   6.199  1.0592 -3.6777  0.0537
  824MOL0     H11230  10.843   1.382   5.935  2.7431 -1.9553 -3.2694
  824MOL0     H11231  10.940   1.520   5.883  0.4594  4.9548  3.2379
  824MOL0     H11232  11.015   1.398   6.145 -0.3717 -0.4186 -1.4704
  824MOL0     H11233  11.103   1.507   6.041 -1.4216  1.7137  0.2460
  824MOL0     H11234  11.147   1.338   5.871  0.7171 -1.1540 -0.2283
  824MOL0     H11235  11.006   1.245   5.941 -1.9350  1.8609  3.8908
  824MOL0     H11236  11.264   1.311   6.076  2.3205 -1.0107 -1.9049
  824MOL0     H11237  11.257   1.169   5.973 -0.1755 -1.9825  0.3734
  824MOL0     H11238  11.044   1.037   6.319 -0.1601 -2.2630 -3.1356
  824MOL0     H11239  10.704   1.496   5.807  0.8384  0.7155 -0.6399
  824MOL0     H11240  10.500   1.550   5.751  0.1165 -0.6571  0.5765
  825MOL0     O11241   4.410   2.247   2.536 -0.6914 -0.5006  0.1904
  825MOL0     C11242   4.341   2.346   2.545 -1.4148 -0.1187  0.1765
  825MOL0     O11243   4.215   2.359   2.495 -0.0804  0.1678 -0.0885
  825MOL0     C11244   4.141   2.252   2.444  0.5399  0.2497  0.8916
  825MOL0     C11245   4.007   2.273   2.431 -0.6282 -0.0253 -0.4367
  825MOL0     C11246   3.924   2.190   2.369 -0.4109 -0.3208  0.1112
  825MOL0     C11247   3.961   2.057   2.339  0.5031 -0.5168  0.2625
  825MOL0     O11248   3.860   1.971   2.299  0.5496  0.5647  0.1771
  825MOL0     C11249   3.875   1.843   2.345  0.6973 -0.5027 -0.1143
  825MOL0     C11250   3.750   1.758   2.336  0.4332 -0.9549 -0.7108
  825MOL0     C11251   3.639   1.785   2.439 -0.1206 -0.0927  0.1517
  825MOL0     C11252   3.530   1.891   2.402  0.3371 -0.0507  0.0394
  825MOL0     C11253   3.455   1.937   2.527  0.3234  0.1803 -0.4221
  825MOL0     C11254   3.352   2.041   2.478  0.1331  0.5791 -0.5490
  825MOL0     C11255   3.262   2.007   2.353  1.5082 -0.5685  0.0254
  825MOL0     C11256   3.163   2.117   2.336 -0.1733 -1.3958  0.7513
  825MOL0     N11257   3.074   2.113   2.218 -0.2205 -0.0882 -0.1250
  825MOL0     C11258   3.114   2.141   2.093  0.7714 -0.1744 -0.7177
  825MOL0     C11259   3.002   2.107   2.020 -0.0222 -0.0895  0.0742
  825MOL0     C11260   3.031   2.124   1.870  0.3588  0.1045 -0.7288
  825MOL0     C11261   2.917   2.189   1.791  0.3974  0.4986 -0.2210
  825MOL0     C11262   2.913   2.146   1.643  0.1030 -1.0453 -0.4284
  825MOL0     C11263   3.047   2.110   1.569 -0.5812  0.3830 -0.4362
  825MOL0     O11264   3.139   2.214   1.552 -0.1261  0.1211  0.0724
  825MOL0     C11265   3.091   2.331   1.498 -0.5743  0.1583 -0.1525
  825MOL0     C11266   3.035   2.344   1.375  0.0574  0.7690  0.7566
  825MOL0     C11267   2.994   2.463   1.314 -0.1246 -0.1393 -0.0221
  825MOL0     C11268   2.944   2.467   1.176 -0.7513  0.4734 -0.6081
  825MOL0     C11269   3.007   2.575   1.398  0.6498 -0.0004  0.3674
  825MOL0     C11270   2.940   2.701   1.368 -0.0343 -0.6616 -1.0305
  825MOL0     O11271   3.014   2.811   1.384 -0.0865 -0.7098  0.1911
  825MOL0     C11272   2.949   2.935   1.379 -0.9694  1.0052  0.9140
  825MOL0     C11273   2.940   3.008   1.493  0.6493  1.5787  0.7123
  825MOL0     C11274   2.868   3.126   1.502 -0.7884  0.2263  0.3907
  825MOL0     C11275   2.810   3.181   1.390  0.6846 -0.4467  1.1971
  825MOL0     O11276   2.738   3.303   1.393 -0.2110 -0.0015 -0.7351
  825MOL0     C11277   2.631   3.317   1.501 -0.1858  0.3379 -0.1098
  825MOL0     C11278   2.566   3.456   1.514  0.3794  0.2002 -0.3231
  825MOL0     C11279   2.441   3.492   1.436 -0.9950  0.0243  0.3248
  825MOL0     C11280   2.369   3.605   1.498  0.2184 -0.6498  0.0120
  825MOL0     C11281   2.281   3.673   1.384  1.0431 -0.8860 -0.1949
  825MOL0     C11282   2.230   3.810   1.429 -0.4701  0.7265  0.3649
  825MOL0     C11283   2.159   3.888   1.315  0.4586 -0.7511 -1.1510
  825MOL0     C11284   2.009   3.859   1.303  0.0326 -0.7361  0.3838
  825MOL0    Cl11285   1.949   3.972   1.172 -0.3894  0.3252  0.0184
  825MOL0     C11286   2.820   3.105   1.272  0.3525 -0.3664 -0.6533
  825MOL0     C11287   2.900   2.993   1.266 -0.1080  0.8569  0.0251
  825MOL0     O11288   2.831   2.698   1.313  0.3608  0.9016  0.4425
  825MOL0     C11289   3.063   2.562   1.527 -0.6670 -0.3997  0.2079
  825MOL0     C11290   3.106   2.441   1.579  0.2983  0.7574 -0.4809
  825MOL0     N11291   2.894   2.070   2.098 -1.2109  0.2699 -0.6888
  825MOL0     N11292   2.938   2.068   2.221  0.2350 -1.2341 -0.1057
  825MOL0     C11293   4.094   2.028   2.353  0.1773  0.3090  0.1938
  825MOL0     C11294   4.182   2.126   2.400  0.1469 -0.3448  1.0962
  825MOL0     C11295   4.401   2.470   2.594 -0.2737 -0.0091  1.1561
  825MOL0     C11296   4.543   2.496   2.579 -0.4703 -0.5007 -1.0832
  825MOL0     C11297   4.596   2.622   2.622 -0.0669  0.2072  0.6271
  825MOL0     C11298   4.518   2.707   2.696  0.1082 -0.7906 -0.0229
  825MOL0     O11299   4.581   2.816   2.749 -0.1991  0.1804  0.2775
  825MOL0     C11300   4.538   2.936   2.684  0.7740 -0.3722 -0.0690
  825MOL0     C11301   4.582   3.059   2.773  1.2085  0.0121  0.0793
  825MOL0     C11302   4.702   3.038   2.877 -0.5817  0.5453 -0.2422
  825MOL0     C11303   4.733   3.168   2.954 -0.8037 -0.0408  0.6299
  825MOL0     C11304   4.664   3.179   3.084 -0.2601 -0.9468 -0.1866
  825MOL0     C11305   4.601   3.199   3.188 -0.1859 -0.0996 -0.4557
  825MOL0     C11306   4.387   2.671   2.726 -0.0162  0.1733  0.0147
  825MOL0     C11307   4.323   2.567   2.667  1.1008  0.0310  0.2729
  825MOL0     H11308   3.958   2.364   2.464  0.1333 -0.1611  1.2145
  825MOL0     H11309   3.822   2.210   2.338 -0.1234  2.1023  0.5045
  825MOL0     H11310   3.952   1.806   2.276 -0.6246 -0.1236 -1.8673
  825MOL0     H11311   3.906   1.844   2.450 -1.7406  0.9677  0.6698
  825MOL0     H11312   3.715   1.762   2.232 -1.0319 -1.3876 -0.2687
  825MOL0     H11313   3.790   1.658   2.354  0.1556 -1.1362 -1.0805
  825MOL0     H11314   3.594   1.687   2.456 -0.2234  0.2316  1.8975
  825MOL0     H11315   3.677   1.817   2.536 -1.1802  0.4150  0.4151
  825MOL0     H11316   3.576   1.982   2.363  0.3182 -0.3814 -0.7783
  825MOL0     H11317   3.461   1.859   2.324  1.8693 -0.1939 -1.3099
  825MOL0     H11318   3.399   1.849   2.560  1.3772 -1.4592 -2.7726
  825MOL0     H11319   3.524   1.976   2.603  0.7204  0.9704 -1.1776
  825MOL0     H11320   3.277   2.058   2.556  1.1486 -1.9715  1.1041
  825MOL0     H11321   3.407   2.131   2.447 -1.1798  0.9697 -1.8652
  825MOL0     H11322   3.324   2.011   2.263  3.1014 -0.7657  1.0884
  825MOL0     H11323   3.201   1.916   2.359 -0.1390  0.4320 -0.5682
  825MOL0     H11324   3.222   2.209   2.335  0.0496 -1.5284 -0.6125
  825MOL0     H11325   3.098   2.129   2.424 -2.3984  3.6940 -1.1735
  825MOL0     H11326   3.206   2.192   2.066  2.9826 -3.8916 -1.0527
  825MOL0     H11327   3.132   2.155   1.843  2.4579 -3.3983  2.1507
  825MOL0     H11328   3.024   2.021   1.832  1.5646  0.7665 -2.9077
  825MOL0     H11329   2.944   2.294   1.806  1.8987  0.0049  0.7115
  825MOL0     H11330   2.822   2.170   1.843  1.4284  0.5666  1.7728
  825MOL0     H11331   2.867   2.229   1.589  2.2746  1.8923  1.8715
  825MOL0     H11332   2.847   2.059   1.638  1.5619 -2.1765 -0.5470
  825MOL0     H11333   3.023   2.090   1.464  4.2258  3.0776 -2.3978
  825MOL0     H11334   3.094   2.021   1.612 -0.2961  1.0616  0.7168
  825MOL0     H11335   3.031   2.252   1.318  1.9931  0.7165  0.6599
  825MOL0     H11336   2.999   2.547   1.127  2.1264  1.7717  4.0587
  825MOL0     H11337   2.962   2.374   1.120  0.3099 -0.1281  0.6750
  825MOL0     H11338   2.841   2.502   1.162 -0.1415  1.2690 -3.7223
  825MOL0     H11339   2.973   2.963   1.585 -1.2050  1.9709  1.6277
  825MOL0     H11340   2.865   3.162   1.604  1.4083  3.0528 -0.3959
  825MOL0     H11341   2.554   3.240   1.491 -2.3021  2.4322 -0.5990
  825MOL0     H11342   2.678   3.297   1.598 -2.4406  1.1767  1.2073
  825MOL0     H11343   2.544   3.471   1.620  2.6672 -1.9133  0.5347
  825MOL0     H11344   2.643   3.532   1.501  2.4829 -2.0915 -2.2669
  825MOL0     H11345   2.381   3.401   1.438  1.5993 -1.7985  0.8205
  825MOL0     H11346   2.476   3.510   1.334 -0.0108 -2.0510  0.2403
  825MOL0     H11347   2.309   3.572   1.583 -1.9006 -1.1921 -1.6160
  825MOL0     H11348   2.428   3.693   1.525 -1.9938  0.7703  0.4793
  825MOL0     H11349   2.192   3.612   1.367  0.2641  0.8184 -3.0061
  825MOL0     H11350   2.340   3.672   1.292 -1.4008 -0.7166 -1.8693
  825MOL0     H11351   2.178   3.804   1.525 -0.6195 -1.8609  0.1686
  825MOL0     H11352   2.324   3.861   1.452 -1.0727  1.3612  1.5148
  825MOL0     H11353   2.206   3.860   1.220 -1.6431  0.7762 -2.7247
  825MOL0     H11354   2.185   3.991   1.341 -0.8460 -0.1829 -2.0086
  825MOL0     H11355   1.969   3.894   1.399  0.5114  1.6251 -0.1994
  825MOL0     H11356   1.990   3.755   1.278 -0.3164 -0.7867  0.8371
  825MOL0     H11357   2.765   3.137   1.184 -2.0343 -0.3271  0.7825
  825MOL0     H11358   2.909   2.934   1.176 -1.1966  0.4174  0.1849
  825MOL0     H11359   3.057   2.655   1.584  0.5766  0.1420 -0.5022
  825MOL0     H11360   3.150   2.410   1.674  2.2080  3.3492 -0.3981
  825MOL0     H11361   4.124   1.927   2.326 -1.6343  0.0227 -0.9423
  825MOL0     H11362   4.284   2.089   2.410  0.4963 -0.5861 -2.2731
  825MOL0     H11363   4.609   2.429   2.526  0.2746  0.9835 -2.1108
  825MOL0     H11364   4.698   2.651   2.603 -0.4094 -0.3379 -2.8075
  825MOL0     H11365   4.579   2.923   2.584  0.3375  2.9134 -0.7848
  825MOL0     H11366   4.430   2.944   2.670  1.1456 -0.5332 -4.0738
  825MOL0     H11367   4.490   3.097   2.817  0.3781  0.3567 -1.8314
  825MOL0     H11368   4.604   3.134   2.697  2.0415 -0.6346 -0.3483
  825MOL0     H11369   4.796   3.006   2.831 -0.3856 -1.2527  1.2952
  825MOL0     H11370   4.684   2.960   2.951 -2.4993  0.6967 -0.5184
  825MOL0     H11371   4.707   3.253   2.891  3.1283  1.1930  0.4580
  825MOL0     H11372   4.841   3.171   2.966 -0.6899  1.1226 -0.5083
  825MOL0     H11373   4.551   3.229   3.278 -0.5541 -2.1879  0.0942
  825MOL0     H11374   4.322   2.742   2.775 -0.5950  0.1432 -0.6913
  825MOL0     H11375   4.216   2.554   2.681  0.7954 -2.0292 -3.0072
  826MOL0     O11376   2.636   9.159  10.441 -0.6182 -0.0535 -0.6802
  826MOL0     C11377   2.569   9.137  10.340  0.0885 -0.5517 -0.4873
  826MOL0     O11378   2.554   9.225  10.226 -0.6561 -0.8123  0.3852
  826MOL0     C11379   2.625   9.341  10.230  0.1256  0.2520  0.0163
  826MOL0     C11380   2.566   9.449  10.296 -0.3835  0.9654  0.4583
  826MOL0     C11381   2.647   9.569  10.305  0.1381 -0.4012  0.4858
  826MOL0     C11382   2.759   9.587  10.235 -0.3522 -0.1844 -0.2062
  826MOL0     O11383   2.824   9.709  10.231 -1.0766 -0.4868 -0.9192
  826MOL0     C11384   2.745   9.802  10.171 -0.1548  0.4822 -1.0669
  826MOL0     C11385   2.833   9.901  10.085  0.1224 -0.0716 -0.4903
  826MOL0     C11386   2.922   9.974  10.194  0.3281 -1.0399  0.3770
  826MOL0     C11387   2.843  10.055  10.301 -0.1927  0.2082 -0.0019
  826MOL0     C11388   2.945  10.135  10.369 -0.1328 -0.0216 -0.0892
  826MOL0     C11389   2.899  10.232  10.485  0.6175  0.8547  1.1327
  826MOL0     C11390   2.846  10.147  10.619 -0.1708 -0.5426  0.8138
  826MOL0     C11391   2.951  10.101  10.722 -0.6895  0.9277 -0.6306
  826MOL0     N11392   2.980  10.211  10.816 -1.0253  0.4815  0.5231
  826MOL0     C11393   2.942  10.223  10.947 -0.3809 -0.1480 -1.0307
  826MOL0     C11394   3.001  10.339  10.992  0.0348  0.1744  0.6557
  826MOL0     C11395   3.002  10.377  11.135  0.9308  0.3449  0.3638
  826MOL0     C11396   2.974  10.528  11.152  0.0319  0.6450 -1.0806
  826MOL0     C11397   2.971  10.564  11.307  0.5806 -0.9915 -1.1180
  826MOL0     C11398   2.948  10.715  11.335  0.2793  1.0629  0.2273
  826MOL0     O11399   2.843  10.765  11.248 -0.8586  0.3359  1.0042
  826MOL0     C11400   2.814  10.895  11.255 -0.2350 -0.8714  0.5436
  826MOL0     C11401   2.712  10.935  11.175  0.4944  1.0465  0.9249
  826MOL0     C11402   2.655  11.057  11.188 -0.2535 -1.1619  0.1289
  826MOL0     C11403   2.564  11.101  11.077 -0.0223  0.5607 -0.4612
  826MOL0     C11404   2.691  11.145  11.293 -0.2373  0.4422  0.3560
  826MOL0     C11405   2.643  11.280  11.318  0.0686 -0.2132 -1.1718
  826MOL0     O11406   2.734  11.369  11.362  0.0060  0.0514  0.1102
  826MOL0     C11407   2.694  11.501  11.360  0.9102 -0.0647  0.4953
  826MOL0     C11408   2.770  11.592  11.279  0.6078  0.5065 -0.8485
  826MOL0     C11409   2.740  11.734  11.286 -0.4129 -0.8539  0.6885
  826MOL0     C11410   2.620  11.778  11.351 -0.2991  0.2032 -0.0265
  826MOL0     O11411   2.587  11.913  11.340 -0.1227  0.5310  0.2469
  826MOL0     C11412   2.557  11.958  11.209  0.0938  0.4424  0.4433
  826MOL0     C11413   2.470  12.078  11.201  0.1531 -0.0413  0.0606
  826MOL0     C11414   2.445  12.128  11.061 -0.4008  0.8748  0.8809
  826MOL0     C11415   2.332  12.230  11.039  0.1142  0.5224 -0.0529
  826MOL0     C11416   2.316  12.338  11.155  0.0214  0.3802  0.7686
  826MOL0     C11417   2.213  12.441  11.117  0.2083  0.4198  0.2139
  826MOL0     C11418   2.068  12.402  11.062 -0.2213 -0.3329 -0.5690
  826MOL0     C11419   1.959  12.505  11.095 -0.3876  0.2797  0.1676
  826MOL0    Cl11420   1.950  12.647  10.982  0.5224 -0.5984 -0.1468
  826MOL0     C11421   2.552  11.685  11.422  0.2278  0.1028 -0.4171
  826MOL0     C11422   2.592  11.553  11.439 -1.0082 -0.1394 -0.3925
  826MOL0     O11423   2.521  11.305  11.312 -0.1939  0.2228 -0.5131
  826MOL0     C11424   2.794  11.100  11.378 -0.5553 -0.2701  0.3586
  826MOL0     C11425   2.864  10.988  11.343  0.5278  0.4957 -0.0585
  826MOL0     N11426   3.057  10.397  10.879  0.3685  0.4453 -0.0084
  826MOL0     N11427   3.035  10.322  10.779 -0.1997 -0.1811 -0.1895
  826MOL0     C11428   2.822   9.485  10.166  0.7802 -0.1932  0.5046
  826MOL0     C11429   2.755   9.359  10.166 -0.1519 -0.2653  0.7592
  826MOL0     C11430   2.469   9.033  10.340 -1.3769 -0.4480 -0.2067
  826MOL0     C11431   2.342   9.049  10.276 -0.0341 -0.0607  1.4212
  826MOL0     C11432   2.253   8.947  10.289  0.2129  0.3290 -0.5090
  826MOL0     C11433   2.286   8.815  10.334  0.4505  0.2076  0.5057
  826MOL0     O11434   2.193   8.708  10.320 -0.0112 -0.6701  0.2043
  826MOL0     C11435   2.211   8.587  10.401 -0.3313 -1.3485 -0.0500
  826MOL0     C11436   2.268   8.479  10.311 -0.8936 -0.3198 -0.4167
  826MOL0     C11437   2.346   8.366  10.385 -0.3532  0.4883 -0.5030
  826MOL0     C11438   2.349   8.232  10.302 -0.1915  0.6007  0.8600
  826MOL0     C11439   2.223   8.158  10.279 -0.3322  0.2071 -0.6084
  826MOL0     C11440   2.123   8.087  10.282 -0.0948  0.8093 -0.3653
  826MOL0     C11441   2.420   8.799  10.387  0.6011 -0.4224  0.2706
  826MOL0     C11442   2.505   8.906  10.385  0.3833  0.4451 -0.7484
  826MOL0     H11443   2.478   9.447  10.359 -1.1136  1.8759 -0.5028
  826MOL0     H11444   2.596   9.657  10.342  0.2277 -0.0824 -0.1356
  826MOL0     H11445   2.670   9.768  10.099 -1.3444  0.2114  0.2420
  826MOL0     H11446   2.684   9.850  10.249 -1.1362 -2.9696  0.4820
  826MOL0     H11447   2.888   9.833  10.019  1.0001 -0.0448  0.1880
  826MOL0     H11448   2.767   9.971  10.033  2.2267  1.8427 -0.7501
  826MOL0     H11449   2.986   9.900  10.243  1.0046 -1.9105 -1.7044
  826MOL0     H11450   2.997  10.035  10.144 -1.0812 -0.2838 -0.8853
  826MOL0     H11451   2.770  10.114  10.244  0.9518 -0.7090 -2.5393
  826MOL0     H11452   2.779   9.994  10.366 -1.9792  0.9486 -0.9847
  826MOL0     H11453   3.022  10.069  10.410  1.7529  2.6647  0.9738
  826MOL0     H11454   2.985  10.208  10.298 -1.1640  2.1450  1.4152
  826MOL0     H11455   2.984  10.299  10.502  0.4226  1.1733  0.8531
  826MOL0     H11456   2.817  10.293  10.447  0.4145 -0.8151 -1.3390
  826MOL0     H11457   2.773  10.211  10.671  1.9404  2.1563  0.6991
  826MOL0     H11458   2.779  10.068  10.585 -3.1210  2.2412 -0.3593
  826MOL0     H11459   3.041  10.077  10.664  0.0492 -0.4977  1.0448
  826MOL0     H11460   2.915  10.018  10.783 -0.4163  2.6610  2.0677
  826MOL0     H11461   2.886  10.156  11.011  1.8368 -0.0441  1.2039
  826MOL0     H11462   2.917  10.329  11.184 -0.4409  2.0263 -0.2786
  826MOL0     H11463   3.101  10.343  11.169 -0.1042  0.5072  4.0161
  826MOL0     H11464   2.881  10.554  11.101 -0.4999  1.7497  0.3905
  826MOL0     H11465   3.057  10.574  11.096  0.1555 -1.1589 -2.4933
  826MOL0     H11466   3.071  10.546  11.347  0.2931  0.2109  0.2371
  826MOL0     H11467   2.903  10.500  11.363  0.6483 -0.3218 -0.2585
  826MOL0     H11468   3.040  10.772  11.319  0.5489  1.4980  2.8134
  826MOL0     H11469   2.921  10.725  11.441  0.5686 -1.2249  0.5673
  826MOL0     H11470   2.666  10.876  11.096 -2.5286  3.2510  0.8456
  826MOL0     H11471   2.469  11.048  11.084 -0.3890  1.1066 -1.1356
  826MOL0     H11472   2.551  11.210  11.080  1.9021  0.8293  1.3025
  826MOL0     H11473   2.603  11.072  10.979 -1.8324 -4.2859  0.0308
  826MOL0     H11474   2.829  11.541  11.204  0.0417 -0.6564 -0.5191
  826MOL0     H11475   2.791  11.802  11.219 -1.9432 -1.4138 -1.1253
  826MOL0     H11476   2.645  11.973  11.146  0.1113 -0.6764  0.1825
  826MOL0     H11477   2.501  11.872  11.170  2.4731 -1.7623  1.6046
  826MOL0     H11478   2.378  12.050  11.252 -0.4203  0.6988 -0.5520
  826MOL0     H11479   2.522  12.159  11.255 -0.9704 -0.1649  1.3851
  826MOL0     H11480   2.419  12.041  11.000 -2.1900  1.6113  0.5326
  826MOL0     H11481   2.534  12.180  11.025  0.4021  0.5781  2.3415
  826MOL0     H11482   2.343  12.282  10.943  2.7741  0.2510  0.0280
  826MOL0     H11483   2.240  12.172  11.041  1.8754 -2.5697 -1.3153
  826MOL0     H11484   2.415  12.383  11.166  0.6063 -0.6866  0.0601
  826MOL0     H11485   2.298  12.283  11.248 -0.0161 -0.7072  0.1389
  826MOL0     H11486   2.201  12.502  11.207  0.0190 -0.4603  0.7991
  826MOL0     H11487   2.252  12.513  11.045  0.5542  0.6357  0.6162
  826MOL0     H11488   2.039  12.313  11.119 -0.0588 -2.8160 -4.0630
  826MOL0     H11489   2.064  12.368  10.958 -0.1626 -2.0262 -0.0516
  826MOL0     H11490   1.981  12.537  11.197 -0.7193  1.2507 -0.0590
  826MOL0     H11491   1.864  12.452  11.098  1.0046 -3.0188 -4.1146
  826MOL0     H11492   2.465  11.724  11.474  1.4980  0.5577  1.4771
  826MOL0     H11493   2.543  11.487  11.509  0.7753 -3.5269 -2.0970
  826MOL0     H11494   2.820  11.163  11.462 -1.5098  2.5133 -1.3032
  826MOL0     H11495   2.951  10.953  11.397  1.0362  0.8830 -0.6113
  826MOL0     H11496   2.913   9.508  10.113  0.0450  0.7143 -0.4083
  826MOL0     H11497   2.797   9.280  10.105 -1.3441 -2.0345  2.1211
  826MOL0     H11498   2.307   9.146  10.243  0.3647 -0.5488 -0.5543
  826MOL0     H11499   2.154   8.965  10.248  0.0982  0.5996 -0.1215
  826MOL0     H11500   2.283   8.610  10.480  1.0604 -0.7512 -1.4368
  826MOL0     H11501   2.113   8.557  10.440 -1.9946  2.9577 -0.2967
  826MOL0     H11502   2.340   8.510  10.235  1.3101  2.4780  2.5222
  826MOL0     H11503   2.185   8.435  10.255 -0.4380 -1.3829 -0.2767
  826MOL0     H11504   2.285   8.346  10.473 -2.5662 -0.8114 -2.2270
  826MOL0     H11505   2.445   8.404  10.415 -0.7020  1.4070 -0.4896
  826MOL0     H11506   2.427   8.165  10.338 -1.3521 -0.9658  0.5541
  826MOL0     H11507   2.377   8.255  10.199 -2.0657  1.4983  0.4876
  826MOL0     H11508   2.041   8.020  10.299  0.8813 -0.7539 -1.6019
  826MOL0     H11509   2.460   8.703  10.420  0.8435 -1.5132 -2.8741
  826MOL0     H11510   2.598   8.899  10.441 -1.3983 -0.8704  2.3161
  827MOL0     O11511   2.050   8.024   6.995 -0.1140 -0.1705 -0.6940
  827MOL0     C11512   2.033   7.997   6.885  0.1440  0.2811  0.2445
  827MOL0     O11513   2.065   7.877   6.824  0.6231  0.1127  0.1776
  827MOL0     C11514   2.119   7.777   6.900 -0.0180  0.2864 -0.3516
  827MOL0     C11515   2.264   7.772   6.924  1.1070  0.4525  0.6116
  827MOL0     C11516   2.301   7.656   6.997  0.4279  0.0224 -0.7188
  827MOL0     C11517   2.211   7.549   7.037  0.0068 -0.3456  0.0828
  827MOL0     O11518   2.262   7.437   7.089  0.2993 -0.5005  0.5259
  827MOL0     C11519   2.231   7.311   7.019  0.2726 -0.2488 -0.1975
  827MOL0     C11520   2.199   7.201   7.126 -0.3175  0.2576  0.3341
  827MOL0     C11521   2.294   7.199   7.247  0.2005  1.0753  0.4660
  827MOL0     C11522   2.245   7.083   7.334  0.8356  0.1735  0.2956
  827MOL0     C11523   2.316   7.076   7.473 -0.3905  0.5330  0.6254
  827MOL0     C11524   2.246   7.144   7.582 -0.8264  0.1150 -0.2604
  827MOL0     C11525   2.350   7.141   7.701 -1.3603  0.1425 -0.3912
  827MOL0     C11526   2.284   7.159   7.842 -0.4479  0.1842  0.4786
  827MOL0     N11527   2.402   7.131   7.932  0.2798 -0.1867  1.1469
  827MOL0     C11528   2.421   7.018   8.006  0.6733 -0.1273 -0.1887
  827MOL0     C11529   2.513   7.054   8.100 -0.5266  0.4303  1.5791
  827MOL0     C11530   2.543   6.971   8.230 -0.2747  0.2829  1.0066
  827MOL0     C11531   2.501   7.038   8.356 -0.8367 -0.3071  0.0053
  827MOL0     C11532   2.527   6.949   8.478 -0.6148  0.4674  0.4784
  827MOL0     C11533   2.633   7.024   8.552 -0.3632  0.5295 -0.4290
  827MOL0     O11534   2.675   6.964   8.681 -0.2483 -0.2466  0.5135
  827MOL0     C11535   2.753   6.853   8.686 -0.2489  0.4070  0.2957
  827MOL0     C11536   2.821   6.794   8.579 -0.7660  0.6241 -0.2466
  827MOL0     C11537   2.893   6.683   8.582 -0.2163 -0.3952  0.1737
  827MOL0     C11538   2.923   6.617   8.452 -0.0163  0.5505 -0.4309
  827MOL0     C11539   2.925   6.626   8.700 -0.8289 -0.4720 -0.7399
  827MOL0     C11540   3.009   6.491   8.710  0.2857  0.5825 -0.0572
  827MOL0     O11541   3.018   6.461   8.848 -0.1616  0.3958  0.6828
  827MOL0     C11542   3.067   6.341   8.888 -0.5094 -0.3302 -0.2132
  827MOL0     C11543   3.192   6.331   8.960 -0.6490  0.2965  0.0990
  827MOL0     C11544   3.261   6.207   8.972  0.9401  0.9444  0.6945
  827MOL0     C11545   3.204   6.088   8.909  0.0398 -0.0196  0.1148
  827MOL0     O11546   3.280   5.979   8.907  0.8722  0.1634  0.0303
  827MOL0     C11547   3.239   5.886   8.804  0.2940  1.0237 -0.3174
  827MOL0     C11548   3.323   5.754   8.796 -0.1918 -0.0084  0.1405
  827MOL0     C11549   3.292   5.678   8.672 -0.5449  0.8599 -0.1892
  827MOL0     C11550   3.347   5.534   8.693 -0.1226 -1.2031 -0.8446
  827MOL0     C11551   3.281   5.441   8.588 -0.1322 -0.0713  0.1512
  827MOL0     C11552   3.335   5.302   8.609  0.4040 -0.1632  0.5664
  827MOL0     C11553   3.276   5.208   8.504 -0.7573 -0.0380  0.2686
  827MOL0     C11554   3.335   5.069   8.529  0.1797 -0.5519 -0.2971
  827MOL0    Cl11555   3.297   4.948   8.396 -0.1788  0.5455  0.6168
  827MOL0     C11556   3.073   6.105   8.853  0.3483 -0.4620  0.1185
  827MOL0     C11557   3.000   6.221   8.853 -0.5155 -0.3700  0.1835
  827MOL0     O11558   3.085   6.450   8.625  0.9672  0.9000  0.2208
  827MOL0     C11559   2.868   6.682   8.817 -0.2082 -0.3886  0.4346
  827MOL0     C11560   2.779   6.796   8.809 -1.1316 -0.1692 -0.7449
  827MOL0     N11561   2.557   7.180   8.060 -0.4643 -0.8886 -0.7311
  827MOL0     N11562   2.494   7.225   7.967  1.0469 -0.4328  0.2373
  827MOL0     C11563   2.079   7.569   6.998  0.4540 -0.3655  1.0758
  827MOL0     C11564   2.029   7.683   6.936  0.2119  0.3485  0.0838
  827MOL0     C11565   1.963   8.089   6.792  0.2236 -0.0201  0.1791
  827MOL0     C11566   1.896   8.199   6.846 -0.0212  0.0174  0.3904
  827MOL0     C11567   1.845   8.300   6.763 -0.6913 -0.6203  0.6007
  827MOL0     C11568   1.849   8.292   6.630  0.2102 -1.3753  0.4879
  827MOL0     O11569   1.803   8.401   6.551  0.4136 -0.6186  0.4176
  827MOL0     C11570   1.882   8.521   6.554  0.3116  0.0273  0.8646
  827MOL0     C11571   2.000   8.513   6.452 -0.0086 -0.6209 -0.1512
  827MOL0     C11572   1.939   8.547   6.308 -0.6703  0.1759 -0.3242
  827MOL0     C11573   2.052   8.585   6.212  0.4078  0.0527  0.9557
  827MOL0     C11574   2.138   8.480   6.156  0.6890  0.3733  0.4391
  827MOL0     C11575   2.195   8.399   6.093 -0.0350  0.1785  0.6635
  827MOL0     C11576   1.908   8.179   6.571 -0.4438  1.4058  0.1444
  827MOL0     C11577   1.972   8.086   6.653  0.1983 -0.6678 -0.1459
  827MOL0     H11578   2.331   7.852   6.895  0.2756  0.2787 -2.0341
  827MOL0     H11579   2.405   7.646   7.027  0.1309 -3.1335 -0.3926
  827MOL0     H11580   2.158   7.318   6.939  2.8627 -1.6048 -2.8601
  827MOL0     H11581   2.326   7.283   6.972  0.6462 -1.2915  1.1070
  827MOL0     H11582   2.101   7.225   7.168  0.9662  2.5127  2.2794
  827MOL0     H11583   2.193   7.111   7.064 -0.8040  1.7218 -1.8669
  827MOL0     H11584   2.391   7.174   7.202  0.2298 -0.9036  1.4800
  827MOL0     H11585   2.289   7.297   7.294 -0.0982  0.0975  2.5788
  827MOL0     H11586   2.140   7.110   7.347  0.3370 -0.1279 -2.4624
  827MOL0     H11587   2.253   6.989   7.278  2.5325 -1.0047  2.3597
  827MOL0     H11588   2.334   6.970   7.494 -2.0008 -0.1807 -1.2752
  827MOL0     H11589   2.418   7.110   7.455 -0.7587  2.6876  2.1885
  827MOL0     H11590   2.217   7.249   7.574 -0.2946  0.4942  2.0221
  827MOL0     H11591   2.155   7.086   7.603  0.6636 -2.1038  0.4218
  827MOL0     H11592   2.396   7.041   7.702 -3.3003 -0.8484 -2.2192
  827MOL0     H11593   2.426   7.219   7.688 -2.0362  0.6244 -1.6090
  827MOL0     H11594   2.200   7.090   7.857  0.8639 -1.0520  2.9081
  827MOL0     H11595   2.249   7.261   7.860  0.1948  0.0460  2.9215
  827MOL0     H11596   2.361   6.928   8.004  1.5847 -0.7428 -0.6412
  827MOL0     H11597   2.480   6.882   8.219  0.1946  0.0348  0.2367
  827MOL0     H11598   2.646   6.936   8.223 -0.6862 -0.8611  0.3404
  827MOL0     H11599   2.395   7.063   8.351 -1.4891 -2.0360  2.8649
  827MOL0     H11600   2.563   7.128   8.350  3.9144 -3.1170  1.4165
  827MOL0     H11601   2.571   6.855   8.446  2.3253  2.0659 -0.5514
  827MOL0     H11602   2.442   6.940   8.546  1.2070 -0.1664  2.8439
  827MOL0     H11603   2.608   7.127   8.578 -0.6281  1.0406 -2.5346
  827MOL0     H11604   2.725   7.019   8.493  1.1715  1.4058  1.7179
  827MOL0     H11605   2.799   6.838   8.482 -0.2392  0.2159 -0.5547
  827MOL0     H11606   2.868   6.655   8.365 -0.3205  0.0611 -0.4604
  827MOL0     H11607   3.030   6.638   8.442 -0.0153  3.1532  3.2558
  827MOL0     H11608   2.906   6.509   8.461 -3.3388  1.0567  0.5559
  827MOL0     H11609   3.230   6.430   8.982  2.5799 -1.1286  1.5722
  827MOL0     H11610   3.358   6.208   9.019  0.6506  2.2969  1.3147
  827MOL0     H11611   3.134   5.855   8.813  0.0595  2.2413  1.9944
  827MOL0     H11612   3.249   5.925   8.702  2.0261 -0.9777 -0.9904
  827MOL0     H11613   3.431   5.772   8.798 -0.1171 -0.1461 -1.4145
  827MOL0     H11614   3.302   5.702   8.890  1.9737  0.9671  1.2348
  827MOL0     H11615   3.341   5.731   8.590  0.6587 -1.9166 -1.3906
  827MOL0     H11616   3.186   5.672   8.647 -0.4320 -2.3361 -0.2626
  827MOL0     H11617   3.456   5.535   8.680 -0.1903 -3.8114 -2.1037
  827MOL0     H11618   3.322   5.493   8.792 -1.4342 -0.7347 -0.9570
  827MOL0     H11619   3.316   5.480   8.492  2.1659  1.8524  1.6501
  827MOL0     H11620   3.172   5.445   8.585 -0.0695  1.6087 -0.9297
  827MOL0     H11621   3.444   5.312   8.603  0.4638 -0.4617  1.1091
  827MOL0     H11622   3.314   5.274   8.712 -1.4628 -2.0310 -0.2680
  827MOL0     H11623   3.299   5.241   8.402 -0.8073  1.9906  0.8862
  827MOL0     H11624   3.167   5.211   8.510 -0.6441  1.0274  4.1347
  827MOL0     H11625   3.304   5.039   8.629  1.7004 -0.6766  0.1562
  827MOL0     H11626   3.444   5.067   8.535  0.1320 -0.8794  0.4715
  827MOL0     H11627   3.028   6.012   8.818  4.5936 -2.5380 -0.4494
  827MOL0     H11628   2.902   6.216   8.805  0.3644  2.0238 -2.0781
  827MOL0     H11629   2.882   6.646   8.918  1.5928  1.9296  1.1150
  827MOL0     H11630   2.729   6.837   8.896  0.1859 -1.4652  0.6862
  827MOL0     H11631   2.002   7.495   7.015 -0.4555  0.7542  1.9821
  827MOL0     H11632   1.928   7.687   6.897  0.8323  0.5483 -1.5608
  827MOL0     H11633   1.891   8.209   6.954  2.6163  0.2723  0.5541
  827MOL0     H11634   1.805   8.374   6.831  1.0894  1.0277 -0.0370
  827MOL0     H11635   1.828   8.614   6.534 -2.7795 -2.0960 -1.8970
  827MOL0     H11636   1.916   8.522   6.658 -1.2907 -0.4994  1.4239
  827MOL0     H11637   2.047   8.415   6.464 -0.8772 -1.0282  0.0415
  827MOL0     H11638   2.079   8.584   6.478  0.1415 -1.1920  0.9908
  827MOL0     H11639   1.872   8.633   6.319  1.0008  1.2963  1.8036
  827MOL0     H11640   1.898   8.451   6.274  2.2333 -2.0965  1.9663
  827MOL0     H11641   2.119   8.662   6.251  1.1314  0.4100 -0.8710
  827MOL0     H11642   1.997   8.622   6.125  0.7388  0.9456  1.1168
  827MOL0     H11643   2.257   8.328   6.041 -0.4053  1.1049 -1.1302
  827MOL0     H11644   1.913   8.157   6.464  2.1572  2.9957 -0.1512
  827MOL0     H11645   2.028   8.001   6.615  1.1915 -1.3547  2.6458
  828MOL0     O11646   3.704   1.143   1.481 -0.8519  0.0012 -1.0873
  828MOL0     C11647   3.723   1.023   1.470  0.1887 -1.1096  0.0505
  828MOL0     O11648   3.700   0.932   1.566  0.4645 -0.7106 -0.6565
  828MOL0     C11649   3.662   0.955   1.693  0.5791 -0.3781 -1.7064
  828MOL0     C11650   3.594   0.862   1.774 -0.2230  0.2199  0.5907
  828MOL0     C11651   3.575   0.877   1.909  0.6099 -0.0879 -0.5085
  828MOL0     C11652   3.616   0.991   1.968 -0.5658  0.3857 -1.0738
  828MOL0     O11653   3.619   1.005   2.105  0.8152  0.2754 -0.3739
  828MOL0     C11654   3.591   1.129   2.154 -0.0295 -0.3940 -0.1532
  828MOL0     C11655   3.707   1.223   2.209 -0.6014  0.3109 -1.2049
  828MOL0     C11656   3.748   1.176   2.345  0.2185 -0.2845  0.2606
  828MOL0     C11657   3.870   1.085   2.346 -0.6576 -0.2693  0.4322
  828MOL0     C11658   3.849   0.931   2.352  0.8848 -0.3337  0.2508
  828MOL0     C11659   3.975   0.849   2.375  0.3739  0.5341 -0.0105
  828MOL0     C11660   4.023   0.856   2.519 -0.0455  0.0443 -0.7982
  828MOL0     C11661   4.155   0.774   2.548  0.8608  1.2013  0.0308
  828MOL0     N11662   4.136   0.632   2.506 -0.2260 -0.1560 -0.2564
  828MOL0     C11663   4.235   0.571   2.434  0.8839  1.3274 -0.6043
  828MOL0     C11664   4.205   0.439   2.441  0.7724  0.7718  0.1805
  828MOL0     C11665   4.300   0.325   2.404 -1.2514  0.2810 -0.2943
  828MOL0     C11666   4.225   0.214   2.324 -0.0447 -0.6034  0.2071
  828MOL0     C11667   4.287   0.067   2.333 -0.3049  0.0651  0.0422
  828MOL0     C11668   4.225  -0.028   2.241 -0.1813  1.2431  0.1653
  828MOL0     O11669   4.211   0.007   2.098 -0.6712  0.3818  0.3307
  828MOL0     C11670   4.091  -0.014   2.044 -0.1706 -0.0426 -0.0634
  828MOL0     C11671   4.029  -0.135   2.054  0.2109  0.1596  1.1316
  828MOL0     C11672   3.896  -0.147   2.022 -1.4207 -0.1461  0.3623
  828MOL0     C11673   3.831  -0.282   2.042 -0.1508 -1.2614 -0.0646
  828MOL0     C11674   3.822  -0.032   1.988  0.5576  1.0409 -0.1360
  828MOL0     C11675   3.674  -0.025   1.972  0.4082 -0.0472  0.7543
  828MOL0     O11676   3.620   0.099   1.959  0.8991 -0.2208  0.2195
  828MOL0     C11677   3.483   0.112   1.969  0.8194  0.6441 -0.9528
  828MOL0     C11678   3.393   0.031   1.886  0.0217  0.0087 -0.0300
  828MOL0     C11679   3.259   0.034   1.911  1.0346 -0.5185  0.0491
  828MOL0     C11680   3.209   0.110   2.017 -0.1319 -0.1918 -0.1803
  828MOL0     O11681   3.077   0.094   2.044 -0.4718  0.1462  0.2480
  828MOL0     C11682   3.035  -0.033   2.093 -0.3102 -0.4487 -0.0285
  828MOL0     C11683   2.932  -0.080   1.985  0.0851 -0.3612 -0.0989
  828MOL0     C11684   2.877  -0.218   1.994 -0.1107  0.5425  0.0442
  828MOL0     C11685   2.737  -0.231   1.921  0.2918  0.2889  0.3375
  828MOL0     C11686   2.700  -0.384   1.890 -0.4531  0.0270  0.1694
  828MOL0     C11687   2.606  -0.411   1.768  0.6272 -0.4498 -0.2168
  828MOL0     C11688   2.480  -0.330   1.775 -1.9561  0.3667 -0.2835
  828MOL0     C11689   2.406  -0.327   1.647 -0.3663  0.0752 -0.6983
  828MOL0    Cl11690   2.512  -0.273   1.515 -0.2666  0.1301  0.2145
  828MOL0     C11691   3.292   0.190   2.099  0.3831 -0.0104  0.5212
  828MOL0     C11692   3.423   0.186   2.070 -0.0101  0.0200  0.0745
  828MOL0     O11693   3.610  -0.128   1.973  0.6169 -0.4828 -0.3444
  828MOL0     C11694   3.890   0.090   1.968 -0.7678 -0.3994  0.2386
  828MOL0     C11695   4.022   0.098   1.994 -0.7752  0.6404  0.2526
  828MOL0     N11696   4.100   0.424   2.523 -0.3967 -0.3931  0.4263
  828MOL0     N11697   4.060   0.536   2.561  1.4470 -0.3166 -0.8074
  828MOL0     C11698   3.707   1.077   1.898  0.4300 -0.3552 -1.5230
  828MOL0     C11699   3.718   1.069   1.760 -0.1863 -0.5695 -0.1545
  828MOL0     C11700   3.765   0.979   1.330  0.2367  0.6734 -0.4726
  828MOL0     C11701   3.795   0.848   1.294  0.5385 -0.6671  0.5652
  828MOL0     C11702   3.825   0.807   1.171  1.4052  0.0017  0.9149
  828MOL0     C11703   3.835   0.898   1.069 -0.7557 -0.1066  0.1631
  828MOL0     O11704   3.866   0.860   0.939 -0.2313  0.0155  0.3663
  828MOL0     C11705   3.921   0.939   0.838 -0.4562  0.1484 -0.4600
  828MOL0     C11706   4.051   1.006   0.892 -0.0182  0.9148 -0.0860
  828MOL0     C11707   4.075   1.155   0.853 -0.0364 -0.1491  0.3589
  828MOL0     C11708   4.109   1.183   0.698  0.0200  0.7858 -0.1731
  828MOL0     C11709   4.000   1.137   0.613  0.3399 -0.8595 -0.8958
  828MOL0     C11710   3.910   1.091   0.548  0.7059 -0.4636 -0.1607
  828MOL0     C11711   3.803   1.034   1.099 -0.5876 -0.1623  0.0710
  828MOL0     C11712   3.777   1.076   1.228  0.1797  0.3183  0.0056
  828MOL0     H11713   3.566   0.764   1.737 -0.7330  0.2965  0.7555
  828MOL0     H11714   3.532   0.793   1.962  1.2083 -0.4350 -0.5673
  828MOL0     H11715   3.549   1.192   2.075 -0.6976 -0.3095  0.2686
  828MOL0     H11716   3.506   1.113   2.221 -1.0677  0.1065 -1.3242
  828MOL0     H11717   3.790   1.215   2.138  1.0891  0.4238  0.6759
  828MOL0     H11718   3.678   1.328   2.198  1.5222  0.7995 -2.7401
  828MOL0     H11719   3.775   1.264   2.404 -3.3997  1.9215 -0.9815
  828MOL0     H11720   3.663   1.127   2.393  0.9450 -0.6784  1.1743
  828MOL0     H11721   3.928   1.102   2.255 -1.1974 -0.9090 -0.0390
  828MOL0     H11722   3.932   1.126   2.427  0.1512  1.1127 -0.8399
  828MOL0     H11723   3.770   0.909   2.424 -0.4763 -2.1548 -1.6685
  828MOL0     H11724   3.814   0.906   2.252  3.0596 -1.1569 -0.3655
  828MOL0     H11725   3.945   0.747   2.354  1.3338  0.6090 -1.9462
  828MOL0     H11726   4.051   0.884   2.305  0.0323  0.9935 -0.1602
  828MOL0     H11727   4.037   0.956   2.561 -0.6314 -0.7922  1.5194
  828MOL0     H11728   3.941   0.810   2.575  0.9959 -2.4149 -1.1946
  828MOL0     H11729   4.186   0.787   2.652  1.7772  1.2046 -0.2345
  828MOL0     H11730   4.229   0.806   2.474  1.1099  0.2096 -0.1630
  828MOL0     H11731   4.329   0.602   2.389  2.0132 -0.7169  0.1891
  828MOL0     H11732   4.387   0.358   2.347 -0.5225  3.1508  2.1968
  828MOL0     H11733   4.344   0.281   2.495 -1.5989 -0.6855 -0.5823
  828MOL0     H11734   4.222   0.237   2.217  0.4417  0.8094  0.4840
  828MOL0     H11735   4.118   0.225   2.346  0.2076 -0.6462  1.5728
  828MOL0     H11736   4.279   0.031   2.436  1.4860  0.7415  0.4643
  828MOL0     H11737   4.394   0.067   2.313 -0.5444 -2.2621 -1.5002
  828MOL0     H11738   4.132  -0.070   2.279  1.2935 -0.7588  1.8381
  828MOL0     H11739   4.297  -0.112   2.238  0.5418  1.8463 -2.7219
  828MOL0     H11740   4.073  -0.225   2.097 -1.3587 -1.9103 -1.2956
  828MOL0     H11741   3.905  -0.363   2.046  1.6140  0.2426 -0.7742
  828MOL0     H11742   3.769  -0.298   2.131 -1.0018  1.3988 -0.0937
  828MOL0     H11743   3.765  -0.298   1.956 -2.8025 -2.9220  2.1336
  828MOL0     H11744   3.446  -0.020   1.806  0.4993  1.2103 -0.5042
  828MOL0     H11745   3.184  -0.011   1.847  1.4837  0.3432 -1.1030
  828MOL0     H11746   3.118  -0.104   2.103 -0.9844 -1.2594 -0.1202
  828MOL0     H11747   3.006  -0.037   2.199  2.9197  2.7919  1.2113
  828MOL0     H11748   2.854  -0.004   1.998  2.0170  1.4888  1.2181
  828MOL0     H11749   2.960  -0.066   1.880 -0.8997  3.7647  0.0031
  828MOL0     H11750   2.887  -0.252   2.097  0.8975 -2.4077 -0.9078
  828MOL0     H11751   2.949  -0.285   1.946 -0.6575  1.5392 -2.3160
  828MOL0     H11752   2.657  -0.184   1.979  1.3853  1.0361  1.3069
  828MOL0     H11753   2.752  -0.171   1.831  0.1497 -3.0202 -2.0486
  828MOL0     H11754   2.657  -0.436   1.976  1.6170 -1.3223  0.4434
  828MOL0     H11755   2.791  -0.440   1.866  0.5396  1.9784 -0.8507
  828MOL0     H11756   2.668  -0.371   1.687 -0.1215 -1.4747 -1.3274
  828MOL0     H11757   2.578  -0.517   1.773 -1.6520 -0.0293 -2.3464
  828MOL0     H11758   2.513  -0.232   1.809 -1.3712  0.1333 -0.1697
  828MOL0     H11759   2.425  -0.372   1.861  1.2305  0.7945  2.1576
  828MOL0     H11760   2.324  -0.256   1.651 -1.0846 -0.7948  0.9304
  828MOL0     H11761   2.378  -0.428   1.614  0.6746  0.1996 -2.0696
  828MOL0     H11762   3.252   0.249   2.181  0.2900  0.1562  0.3573
  828MOL0     H11763   3.485   0.228   2.149  1.1715 -4.7003  2.0343
  828MOL0     H11764   3.838   0.182   1.943  3.1995  2.5496  1.7733
  828MOL0     H11765   4.080   0.188   1.985  0.6760 -0.2943 -0.0717
  828MOL0     H11766   3.768   1.158   1.935 -0.0322  1.1122 -3.7966
  828MOL0     H11767   3.770   1.147   1.705  0.7732 -1.3448 -0.3765
  828MOL0     H11768   3.800   0.777   1.376  1.1332 -1.2231  0.0512
  828MOL0     H11769   3.829   0.699   1.156 -0.6613 -0.2473  1.7914
  828MOL0     H11770   3.942   0.888   0.744  0.8663  0.7935 -0.5407
  828MOL0     H11771   3.847   1.015   0.811 -1.9422 -1.4969 -1.2130
  828MOL0     H11772   4.140   0.950   0.864  1.7619  3.8975 -0.8576
  828MOL0     H11773   4.057   1.003   1.002  2.6982 -2.7024 -0.1453
  828MOL0     H11774   4.164   1.182   0.911  1.4056  0.5724 -2.0555
  828MOL0     H11775   3.982   1.204   0.882 -0.8835 -1.5881  0.1782
  828MOL0     H11776   4.206   1.135   0.677 -0.7385 -1.8343  1.7778
  828MOL0     H11777   4.130   1.288   0.678 -0.1773  1.0928  1.1505
  828MOL0     H11778   3.843   1.020   0.504  0.8670 -2.2331  2.3125
  828MOL0     H11779   3.808   1.120   1.033 -0.0186 -0.5479 -0.4018
  828MOL0     H11780   3.744   1.177   1.249 -2.5203 -0.6733  1.0430
  829MOL0     O11781   4.323   0.085   3.193  0.1875 -0.1113  0.1286
  829MOL0     C11782   4.281  -0.014   3.139  0.4652  0.6351  0.0130
  829MOL0     O11783   4.279  -0.148   3.188 -0.0852  0.3173  0.1384
  829MOL0     C11784   4.322  -0.155   3.314 -0.6923  0.6494 -0.2088
  829MOL0     C11785   4.461  -0.162   3.345  1.6542 -0.8236  0.2738
  829MOL0     C11786   4.504  -0.170   3.477 -0.4013 -0.2385  1.0887
  829MOL0     C11787   4.419  -0.169   3.588  0.4123  0.2682  0.9388
  829MOL0     O11788   4.478  -0.196   3.714  0.4097 -0.3970 -0.0299
  829MOL0     C11789   4.386  -0.236   3.815 -0.2094 -0.0424 -0.2632
  829MOL0     C11790   4.438  -0.316   3.936  0.1483 -0.2793 -0.2762
  829MOL0     C11791   4.550  -0.247   4.017 -0.1464  0.1015  0.4309
  829MOL0     C11792   4.570  -0.302   4.158 -0.8560 -0.6145  0.6022
  829MOL0     C11793   4.704  -0.288   4.209 -0.2429 -0.1999 -0.6699
  829MOL0     C11794   4.757  -0.137   4.227 -0.2668  0.0768  0.3116
  829MOL0     C11795   4.887  -0.109   4.303  0.3553  0.5124  0.4159
  829MOL0     C11796   5.005  -0.175   4.231  0.1158  0.4329  0.2507
  829MOL0     N11797   5.125  -0.100   4.280  0.3550 -0.0644 -0.7851
  829MOL0     C11798   5.176   0.010   4.226  0.0489  0.2150  0.0706
  829MOL0     C11799   5.281   0.052   4.293  0.1669  0.0387 -0.0752
  829MOL0     C11800   5.366   0.164   4.246 -0.7257 -1.0593  0.5414
  829MOL0     C11801   5.465   0.123   4.132 -0.5334 -0.7567  0.5323
  829MOL0     C11802   5.499   0.233   4.026  0.2259 -0.0681  0.6117
  829MOL0     C11803   5.568   0.167   3.904 -0.9272 -0.4417 -0.5363
  829MOL0     O11804   5.660   0.243   3.821  0.2474 -0.7281 -0.2618
  829MOL0     C11805   5.781   0.292   3.853 -0.2001 -0.3473  0.0105
  829MOL0     C11806   5.856   0.353   3.754  0.1242  0.3932 -0.5505
  829MOL0     C11807   5.993   0.390   3.767 -0.4801  0.4287 -0.1226
  829MOL0     C11808   6.067   0.434   3.636 -0.7828  0.6447  0.4092
  829MOL0     C11809   6.051   0.397   3.898 -0.2787 -0.2963 -0.3361
  829MOL0     C11810   6.185   0.452   3.934  0.0580 -0.2731  0.1423
  829MOL0     O11811   6.240   0.415   4.058  0.2401  0.1992 -0.6217
  829MOL0     C11812   6.376   0.405   4.073  0.4554  0.9968  0.0637
  829MOL0     C11813   6.467   0.513   4.094  0.2534  0.6514 -0.1423
  829MOL0     C11814   6.604   0.482   4.092  0.3342 -0.9511 -0.7914
  829MOL0     C11815   6.654   0.348   4.084 -0.4607 -0.4330  0.4225
  829MOL0     O11816   6.792   0.348   4.072  0.6995  0.5592  0.0455
  829MOL0     C11817   6.850   0.222   4.038 -0.3228 -0.1273  0.1780
  829MOL0     C11818   7.008   0.220   4.002  0.1650  0.0162 -0.0470
  829MOL0     C11819   7.035   0.101   3.906  0.5756 -0.5895  0.1045
  829MOL0     C11820   7.175   0.060   3.920  0.3957 -0.5176  0.2889
  829MOL0     C11821   7.208  -0.065   3.832 -0.5237 -0.4341 -0.4572
  829MOL0     C11822   7.275  -0.033   3.694  0.6424  0.9342  1.4626
  829MOL0     C11823   7.298  -0.162   3.607  0.1162 -0.5791 -0.8992
  829MOL0     C11824   7.380  -0.277   3.681  0.1941 -0.0616  0.2153
  829MOL0    Cl11825   7.534  -0.218   3.739 -0.0692 -0.4291  0.0481
  829MOL0     C11826   6.562   0.249   4.073  0.3129  0.0784  0.0724
  829MOL0     C11827   6.429   0.275   4.067  0.2200  0.1303 -0.1309
  829MOL0     O11828   6.241   0.528   3.851  0.6141  0.4407 -0.4744
  829MOL0     C11829   5.966   0.367   4.002  0.3184 -0.0442  0.7437
  829MOL0     C11830   5.837   0.309   3.982 -0.4376 -0.0971  0.8274
  829MOL0     N11831   5.296  -0.039   4.390  0.4070 -0.0821  0.5664
  829MOL0     N11832   5.201  -0.124   4.385  0.4649  0.4443 -1.0990
  829MOL0     C11833   4.286  -0.152   3.558  0.0417 -0.5186  0.1150
  829MOL0     C11834   4.234  -0.146   3.421 -0.9812  0.1712 -0.8740
  829MOL0     C11835   4.221   0.013   3.007 -0.7691  0.3132  0.4311
  829MOL0     C11836   4.166  -0.096   2.940 -0.7502 -0.0557 -0.1226
  829MOL0     C11837   4.108  -0.079   2.814  0.9491 -0.3431 -0.0243
  829MOL0     C11838   4.123   0.048   2.739  0.4095  0.1859  0.4025
  829MOL0     O11839   4.081   0.071   2.610 -0.1017  0.6883 -0.9135
  829MOL0     C11840   3.965   0.005   2.570  0.9164  0.3278 -0.6107
  829MOL0     C11841   3.905   0.068   2.442  0.0652 -0.4433  0.4624
  829MOL0     C11842   3.773   0.027   2.398  0.5661 -0.0314 -0.7134
  829MOL0     C11843   3.660   0.071   2.498  0.5164  0.4202 -0.1708
  829MOL0     C11844   3.530   0.096   2.430  0.3143  0.5779 -1.3441
  829MOL0     C11845   3.417   0.115   2.394 -0.6766  0.1720  0.0807
  829MOL0     C11846   4.190   0.153   2.811  1.5046 -0.9455 -0.2247
  829MOL0     C11847   4.236   0.136   2.943 -0.0257 -0.5794  0.7030
  829MOL0     H11848   4.531  -0.158   3.262  2.7199  2.3903  1.2114
  829MOL0     H11849   4.610  -0.189   3.481 -0.5202 -2.2907 -1.7856
  829MOL0     H11850   4.323  -0.159   3.861  0.0207  0.8632 -1.4307
  829MOL0     H11851   4.312  -0.305   3.773 -0.6100  1.0852 -1.5052
  829MOL0     H11852   4.351  -0.335   4.000  0.6026 -2.5187 -0.2483
  829MOL0     H11853   4.476  -0.414   3.904 -2.1840 -1.6909  0.9876
  829MOL0     H11854   4.646  -0.251   3.965 -0.8466 -0.0168 -0.8997
  829MOL0     H11855   4.513  -0.144   4.026  2.5988  1.0781  1.4026
  829MOL0     H11856   4.507  -0.245   4.227 -0.4614 -2.9232  3.0398
  829MOL0     H11857   4.553  -0.410   4.155 -0.3662 -0.6886 -1.6684
  829MOL0     H11858   4.712  -0.346   4.301  2.2737 -3.0052 -2.4570
  829MOL0     H11859   4.773  -0.348   4.149  0.5770 -3.1181  2.7954
  829MOL0     H11860   4.754  -0.098   4.125  3.8508 -0.4092 -0.1710
  829MOL0     H11861   4.672  -0.097   4.282 -0.4939  1.9538 -1.3019
  829MOL0     H11862   4.891  -0.000   4.293 -3.8148  0.7344 -0.7082
  829MOL0     H11863   4.876  -0.134   4.409 -2.4347 -1.6463 -0.2807
  829MOL0     H11864   4.985  -0.164   4.124 -1.1344 -0.4863  0.3618
  829MOL0     H11865   5.009  -0.280   4.260  2.7966  0.1991 -0.7770
  829MOL0     H11866   5.133   0.055   4.137 -0.3673  2.1916  1.2091
  829MOL0     H11867   5.303   0.238   4.197  0.2486 -0.7542 -0.2717
  829MOL0     H11868   5.421   0.220   4.321  0.0209  0.2639 -0.9449
  829MOL0     H11869   5.434   0.030   4.084 -0.3965 -0.6549  0.2430
  829MOL0     H11870   5.557   0.102   4.188 -0.4475 -3.3371 -0.4777
  829MOL0     H11871   5.561   0.313   4.067 -1.5386  3.0905 -2.3489
  829MOL0     H11872   5.407   0.281   3.990  1.0977  2.5072  1.6052
  829MOL0     H11873   5.486   0.118   3.851 -1.8623  0.2408  0.2300
  829MOL0     H11874   5.624   0.088   3.955 -3.0672 -1.4483  0.3570
  829MOL0     H11875   5.815   0.346   3.654  2.0888  1.5046 -1.4981
  829MOL0     H11876   6.153   0.368   3.621 -1.3280 -0.1015  0.4998
  829MOL0     H11877   5.996   0.432   3.552 -2.6032 -0.7603  1.8864
  829MOL0     H11878   6.107   0.534   3.656  3.7163 -1.0410  0.9770
  829MOL0     H11879   6.404   0.601   4.106 -2.5247 -0.8742 -2.2737
  829MOL0     H11880   6.672   0.566   4.106 -2.9821  2.1322 -1.5935
  829MOL0     H11881   6.831   0.147   4.114 -2.8952 -1.2998 -1.4936
  829MOL0     H11882   6.793   0.185   3.953  1.0491 -2.7702  0.3153
  829MOL0     H11883   7.040   0.309   3.947  0.1197 -0.3293 -0.6322
  829MOL0     H11884   7.061   0.216   4.097  1.7683 -0.0534 -0.9242
  829MOL0     H11885   7.012   0.124   3.802  1.8368 -0.6301 -0.1922
  829MOL0     H11886   6.973   0.014   3.931  0.1144 -0.5232 -0.7476
  829MOL0     H11887   7.249   0.139   3.900 -0.4998  0.7611  1.7845
  829MOL0     H11888   7.185   0.029   4.024  0.9323  1.2536  0.8130
  829MOL0     H11889   7.119  -0.128   3.826  1.6999 -3.8738 -0.2569
  829MOL0     H11890   7.286  -0.119   3.887  0.6372  2.2219  0.6685
  829MOL0     H11891   7.201   0.036   3.651 -0.6216 -1.4170 -0.3633
  829MOL0     H11892   7.374   0.011   3.704  1.1128 -0.1252  1.5771
  829MOL0     H11893   7.350  -0.154   3.511 -0.4647 -0.3155 -1.1920
  829MOL0     H11894   7.199  -0.202   3.584  0.6607 -1.5499 -1.5919
  829MOL0     H11895   7.403  -0.360   3.613  2.1354 -0.3886  1.1861
  829MOL0     H11896   7.307  -0.311   3.755 -4.0132  2.3651 -2.3895
  829MOL0     H11897   6.598   0.146   4.074 -0.3282 -0.1518 -0.0592
  829MOL0     H11898   6.358   0.193   4.055  0.5700 -0.0896 -0.7636
  829MOL0     H11899   6.000   0.374   4.105  3.3899  1.4532 -0.2553
  829MOL0     H11900   5.801   0.264   4.074  3.0278  1.4613  3.1335
  829MOL0     H11901   4.228  -0.148   3.649 -1.3482 -1.9531 -0.6471
  829MOL0     H11902   4.133  -0.156   3.383 -0.7677  0.0813 -1.4372
  829MOL0     H11903   4.169  -0.203   2.959  0.6911 -0.1151 -0.6065
  829MOL0     H11904   4.071  -0.171   2.770  0.1464  0.0189 -0.1235
  829MOL0     H11905   3.989  -0.101   2.559  1.7897 -0.0857  3.5932
  829MOL0     H11906   3.893   0.013   2.651  1.5162  0.3588 -0.0755
  829MOL0     H11907   3.970   0.050   2.357  1.9037 -2.0693  2.1059
  829MOL0     H11908   3.897   0.174   2.465 -1.1393 -0.4743  0.2495
  829MOL0     H11909   3.758  -0.081   2.391  0.4203  0.0573 -1.9326
  829MOL0     H11910   3.746   0.068   2.301 -2.3679 -0.6260 -0.2609
  829MOL0     H11911   3.690   0.156   2.560 -0.1480  0.2557  0.3866
  829MOL0     H11912   3.646  -0.013   2.566  1.5611  0.6917  0.3818
  829MOL0     H11913   3.322   0.123   2.345 -2.1306 -1.7690  2.3475
  829MOL0     H11914   4.198   0.242   2.750  1.6514 -1.9638 -1.7577
  829MOL0     H11915   4.274   0.223   2.995 -1.7900 -0.8857  2.6603
  830MOL0     O11916   9.822   9.099   5.878  0.6389  0.3630 -0.2900
  830MOL0     C11917   9.706   9.131   5.904  0.2525  0.0711 -0.4106
  830MOL0     O11918   9.644   9.244   5.854 -0.3554  0.7784 -1.2534
  830MOL0     C11919   9.725   9.348   5.809  0.5452 -0.2250 -0.4057
  830MOL0     C11920   9.675   9.420   5.702  0.2480  0.1125 -0.4532
  830MOL0     C11921   9.744   9.521   5.637 -0.5242 -0.0058 -0.8210
  830MOL0     C11922   9.864   9.553   5.697  0.3126  0.0934 -0.6678
  830MOL0     O11923   9.940   9.650   5.649 -0.1917  0.2639 -0.5614
  830MOL0     C11924   9.876   9.778   5.627 -0.6724  0.2557 -0.5465
  830MOL0     C11925   9.985   9.886   5.620  0.3643  0.1124 -0.3597
  830MOL0     C11926   9.916  10.025   5.592 -0.5278  0.1623  0.0928
  830MOL0     C11927  10.012  10.117   5.518 -0.7875 -0.6470  0.1561
  830MOL0     C11928   9.928  10.234   5.461  0.0989 -0.6574  0.8602
  830MOL0     C11929  10.018  10.306   5.362 -0.0199  0.5746  0.6223
  830MOL0     C11930   9.954  10.428   5.312  0.1491 -0.5870  1.1403
  830MOL0     C11931  10.016  10.458   5.180  0.0319 -0.1763  0.8303
  830MOL0     N11932   9.944  10.566   5.117  0.6769  0.1844  0.0624
  830MOL0     C11933   9.930  10.689   5.162 -0.3013  0.5461  1.9011
  830MOL0     C11934   9.873  10.754   5.062 -0.6863 -0.6003 -0.3754
  830MOL0     C11935   9.851  10.901   5.052 -1.3758  1.2040 -1.0270
  830MOL0     C11936   9.759  10.966   5.150 -0.3379  0.6058 -0.6959
  830MOL0     C11937   9.615  10.924   5.122  0.5334 -0.0915  0.7589
  830MOL0     C11938   9.543  10.985   4.993 -0.0019 -0.4645 -0.0959
  830MOL0     O11939   9.505  11.119   5.011  0.0917 -0.4153  0.7216
  830MOL0     C11940   9.436  11.198   4.921 -0.5871  0.1693  0.6392
  830MOL0     C11941   9.448  11.337   4.947  0.1899  1.3972  0.0645
  830MOL0     C11942   9.393  11.427   4.858 -0.9004 -0.2639  0.5296
  830MOL0     C11943   9.402  11.566   4.900 -0.3520  0.1182  0.2663
  830MOL0     C11944   9.318  11.382   4.744 -0.1634  0.8489 -0.4533
  830MOL0     C11945   9.242  11.476   4.661  0.9891  0.2840  0.1373
  830MOL0     O11946   9.210  11.599   4.711 -0.4499  0.2655 -0.4059
  830MOL0     C11947   9.120  11.685   4.650  1.0041  0.5723  0.8282
  830MOL0     C11948   8.985  11.662   4.625 -0.4670 -0.5096 -0.7026
  830MOL0     C11949   8.910  11.759   4.565  0.2830 -0.6794 -1.3756
  830MOL0     C11950   8.965  11.874   4.509  0.3934  0.2892  0.2156
  830MOL0     O11951   8.911  11.962   4.415 -0.7586 -0.0264 -0.2828
  830MOL0     C11952   8.772  11.984   4.400  2.2315  0.4876 -0.3135
  830MOL0     C11953   8.738  12.082   4.290  0.9888 -0.0138 -0.2762
  830MOL0     C11954   8.782  12.226   4.312 -1.0165  0.2385 -0.5020
  830MOL0     C11955   8.712  12.318   4.212 -0.0322 -0.2058  0.3335
  830MOL0     C11956   8.768  12.301   4.072 -0.7317  0.0035 -0.2602
  830MOL0     C11957   8.723  12.417   3.973 -0.9989 -1.9236  0.6424
  830MOL0     C11958   8.820  12.444   3.853  0.1533 -0.7853  0.5467
  830MOL0     C11959   8.904  12.575   3.886  0.2248 -0.6501 -0.0689
  830MOL0    Cl11960   8.817  12.728   3.880  0.0009  0.7500  0.2360
  830MOL0     C11961   9.101  11.891   4.524 -0.4593  0.1460  0.3292
  830MOL0     C11962   9.179  11.794   4.593 -0.2090 -0.6724  0.6786
  830MOL0     O11963   9.187  11.431   4.563 -0.2908 -0.4996  1.1995
  830MOL0     C11964   9.310  11.239   4.728  0.5802 -0.2024 -0.7284
  830MOL0     C11965   9.371  11.146   4.816 -0.2068  0.1979  0.6419
  830MOL0     N11966   9.861  10.673   4.951  0.2513 -0.2760  0.1462
  830MOL0     N11967   9.896  10.554   4.984  0.1945 -0.9075 -0.4089
  830MOL0     C11968   9.911   9.495   5.810  0.8067  0.1039  0.0235
  830MOL0     C11969   9.843   9.384   5.862 -0.6593 -1.0277 -0.8302
  830MOL0     C11970   9.629   9.033   5.973 -0.4413 -0.2496 -0.5150
  830MOL0     C11971   9.489   9.055   5.999  0.5355  0.6373  1.3769
  830MOL0     C11972   9.414   8.949   6.063 -0.4756 -0.2813 -0.4622
  830MOL0     C11973   9.480   8.834   6.125  0.0435  0.0678  0.4842
  830MOL0     O11974   9.397   8.741   6.188 -0.6598 -0.6249 -0.1138
  830MOL0     C11975   9.456   8.616   6.242 -1.0972 -0.6035  0.2310
  830MOL0     C11976   9.347   8.513   6.277 -0.1293 -0.2502 -0.4019
  830MOL0     C11977   9.263   8.555   6.387  0.7403 -0.3367 -0.0743
  830MOL0     C11978   9.172   8.444   6.443  0.1802 -0.9345 -0.5866
  830MOL0     C11979   9.105   8.511   6.561  0.2421  1.8486  0.3049
  830MOL0     C11980   9.044   8.563   6.654 -1.3499  0.0342  0.3961
  830MOL0     C11981   9.625   8.819   6.107 -0.0117 -0.2223  0.6401
  830MOL0     C11982   9.691   8.908   6.025 -0.5154 -0.0604  0.0772
  830MOL0     H11983   9.575   9.395   5.669  0.8794  2.0863 -4.5397
  830MOL0     H11984   9.703   9.571   5.550 -1.7989 -0.9107 -0.7773
  830MOL0     H11985   9.820   9.790   5.534 -1.9211  0.7825  0.2513
  830MOL0     H11986   9.809   9.800   5.711  2.0784  1.0718  1.6010
  830MOL0     H11987  10.045   9.886   5.712  2.2581  1.9383 -1.4985
  830MOL0     H11988  10.047   9.870   5.532 -2.0022 -2.2447 -1.7667
  830MOL0     H11989   9.815  10.019   5.551 -1.2270 -2.9436  1.9586
  830MOL0     H11990   9.905  10.067   5.693  1.6589 -2.5818  1.6135
  830MOL0     H11991  10.080  10.181   5.575 -1.5525  1.8703 -1.5547
  830MOL0     H11992  10.079  10.057   5.455 -0.3335 -0.9615  0.9348
  830MOL0     H11993   9.839  10.199   5.409  1.9851  0.6247 -3.7227
  830MOL0     H11994   9.889  10.307   5.534  0.5702  2.9148 -2.1588
  830MOL0     H11995  10.113  10.327   5.411 -0.0284  2.8358 -0.1971
  830MOL0     H11996  10.046  10.238   5.282 -2.5125  1.2671 -0.9546
  830MOL0     H11997   9.847  10.423   5.289  0.8003 -1.8292 -2.2629
  830MOL0     H11998   9.967  10.516   5.375  1.6989  0.6676 -0.7872
  830MOL0     H11999  10.016  10.372   5.111 -1.3198  0.9588 -0.6536
  830MOL0     H12000  10.120  10.488   5.196  0.0246  0.3873 -0.0863
  830MOL0     H12001   9.972  10.716   5.259  3.9568  0.6074  0.2469
  830MOL0     H12002   9.951  10.938   5.077 -0.9444 -1.0688  1.0672
  830MOL0     H12003   9.821  10.941   4.955 -1.4351  2.9457 -0.3256
  830MOL0     H12004   9.770  11.075   5.146 -1.0021  0.6707 -0.9872
  830MOL0     H12005   9.790  10.931   5.249 -2.5717  0.9050  0.1903
  830MOL0     H12006   9.549  10.947   5.206 -2.3539  0.1939 -1.4526
  830MOL0     H12007   9.625  10.817   5.103  2.3188  0.1144  0.3359
  830MOL0     H12008   9.467  10.911   4.966 -1.3141  0.5853  0.5561
  830MOL0     H12009   9.615  10.985   4.911 -0.7166  0.4340 -0.7534
  830MOL0     H12010   9.501  11.365   5.037  0.3020  0.4680  0.2997
  830MOL0     H12011   9.308  11.611   4.935 -3.3770 -4.2249 -1.4426
  830MOL0     H12012   9.474  11.575   4.982  0.2530  0.5971 -0.3012
  830MOL0     H12013   9.451  11.623   4.820 -0.0690  1.4077  1.3097
  830MOL0     H12014   8.943  11.578   4.679 -2.3693  0.1163 -1.1361
  830MOL0     H12015   8.806  11.732   4.551  0.2708 -1.7769  0.5549
  830MOL0     H12016   8.714  11.893   4.380  2.6331  0.3160 -0.7082
  830MOL0     H12017   8.731  12.023   4.494  0.0134  0.6728 -1.2783
  830MOL0     H12018   8.792  12.047   4.202  1.8103 -1.9683  0.9232
  830MOL0     H12019   8.630  12.086   4.271  0.5781  0.1936  1.7986
  830MOL0     H12020   8.891  12.229   4.302 -1.0453  0.6947 -0.7185
  830MOL0     H12021   8.750  12.257   4.412 -1.4817  3.2279 -1.4727
  830MOL0     H12022   8.606  12.302   4.194 -0.0366  2.1014 -2.3884
  830MOL0     H12023   8.726  12.422   4.243 -2.3638  0.1062  0.5165
  830MOL0     H12024   8.731  12.209   4.024  0.6613  0.5219 -2.4698
  830MOL0     H12025   8.876  12.292   4.082 -0.9478 -0.0344  2.9369
  830MOL0     H12026   8.629  12.382   3.929 -1.5513 -0.0887  0.2838
  830MOL0     H12027   8.702  12.509   4.028 -0.4670  1.1904 -3.7915
  830MOL0     H12028   8.756  12.464   3.767  0.3332  0.7816  0.7300
  830MOL0     H12029   8.874  12.352   3.831 -2.1567 -2.0646 -0.0610
  830MOL0     H12030   8.985  12.581   3.812 -0.6029 -1.9688 -1.1326
  830MOL0     H12031   8.943  12.559   3.988 -0.0851 -2.3890 -0.1831
  830MOL0     H12032   9.150  11.973   4.472 -0.0697  0.5177  1.2676
  830MOL0     H12033   9.283  11.818   4.612 -0.2249 -0.8205  0.9601
  830MOL0     H12034   9.256  11.203   4.641 -0.3195  2.6333 -1.4830
  830MOL0     H12035   9.351  11.040   4.805  1.5449 -0.0013 -1.2005
  830MOL0     H12036   9.990   9.538   5.871 -0.4492 -0.4121  2.1418
  830MOL0     H12037   9.892   9.329   5.941  5.9625  1.2090 -2.7630
  830MOL0     H12038   9.441   9.134   5.942  0.9271 -0.8819 -1.1969
  830MOL0     H12039   9.311   8.954   6.096 -0.6284 -2.4353 -0.4755
  830MOL0     H12040   9.527   8.568   6.174 -2.2340  1.8527 -2.9687
  830MOL0     H12041   9.512   8.662   6.323  1.7836  0.8544 -2.3767
  830MOL0     H12042   9.395   8.419   6.304 -0.5904 -0.3911 -0.0660
  830MOL0     H12043   9.284   8.500   6.189 -0.0952 -1.3534 -0.2744
  830MOL0     H12044   9.200   8.642   6.368  1.0617 -0.2111 -0.5910
  830MOL0     H12045   9.328   8.604   6.460  1.3961 -0.2803 -0.6840
  830MOL0     H12046   9.237   8.361   6.474 -1.9694 -3.3194 -2.0744
  830MOL0     H12047   9.105   8.412   6.363  0.2883 -0.8090 -0.7281
  830MOL0     H12048   8.990   8.603   6.737 -2.7221  0.3719 -0.6335
  830MOL0     H12049   9.675   8.727   6.136  0.4817 -0.4421 -0.8015
  830MOL0     H12050   9.795   8.901   5.996 -0.5584 -1.0087  0.1049
  831MOL0     O12051   5.748   0.054   8.412  0.0419 -0.1089  0.2829
  831MOL0     C12052   5.745   0.011   8.526 -0.3790 -0.8798 -0.5222
  831MOL0     O12053   5.855   0.024   8.622 -0.2134 -0.0631 -0.2261
  831MOL0     C12054   5.960   0.103   8.601  0.4480  0.3325 -0.0036
  831MOL0     C12055   6.009   0.172   8.713 -0.1389  0.3682 -0.1345
  831MOL0     C12056   6.108   0.271   8.701 -0.4873  0.0110 -0.0600
  831MOL0     C12057   6.162   0.300   8.578  0.1615  0.7307  0.2089
  831MOL0     O12058   6.254   0.398   8.559  0.7907 -1.5026 -0.2833
  831MOL0     C12059   6.344   0.396   8.446  0.2823 -0.5946 -0.4848
  831MOL0     C12060   6.483   0.451   8.466  0.2583  0.0358 -0.0145
  831MOL0     C12061   6.566   0.440   8.338  0.5713 -0.2070  0.8781
  831MOL0     C12062   6.715   0.468   8.371 -0.9346  0.2605 -0.4209
  831MOL0     C12063   6.804   0.471   8.246 -0.2200  0.1185  0.2528
  831MOL0     C12064   6.776   0.363   8.151 -0.5521  0.0286  0.3527
  831MOL0     C12065   6.881   0.352   8.040  1.4887  0.7612 -0.7476
  831MOL0     C12066   6.833   0.271   7.918 -0.3315  0.6080 -1.2655
  831MOL0     N12067   6.937   0.299   7.817 -0.1360 -0.4917  0.5621
  831MOL0     C12068   6.925   0.385   7.706 -0.2683 -0.4424  0.2779
  831MOL0     C12069   7.026   0.350   7.625  0.6243  0.3387 -0.1931
  831MOL0     C12070   7.067   0.433   7.500  0.8918 -0.4529  0.4526
  831MOL0     C12071   6.942   0.485   7.414 -1.0237  0.5306 -0.9974
  831MOL0     C12072   6.992   0.564   7.297 -0.0629 -1.0705  0.8727
  831MOL0     C12073   6.887   0.655   7.233 -0.1345  0.4986 -0.0794
  831MOL0     O12074   6.825   0.750   7.317 -0.2172  0.3208  0.1007
  831MOL0     C12075   6.864   0.881   7.312 -0.6974 -0.3901  0.3463
  831MOL0     C12076   6.771   0.971   7.370 -0.7754 -0.8405  1.3517
  831MOL0     C12077   6.799   1.107   7.380  0.6486 -0.5787 -0.2135
  831MOL0     C12078   6.703   1.193   7.454 -0.1967 -0.0764  0.3380
  831MOL0     C12079   6.915   1.168   7.323  0.6430 -0.2251 -0.0072
  831MOL0     C12080   6.945   1.315   7.298  0.0752 -0.5552 -0.1938
  831MOL0     O12081   6.895   1.395   7.393  0.1360 -0.5394  0.0251
  831MOL0     C12082   6.930   1.530   7.396  0.8020  0.2352 -0.3211
  831MOL0     C12083   6.844   1.634   7.378 -0.4817  0.7522 -0.4035
  831MOL0     C12084   6.881   1.757   7.410  0.0932  0.1605 -0.6243
  831MOL0     C12085   7.007   1.783   7.460 -0.3865 -0.0584 -0.1791
  831MOL0     O12086   7.042   1.898   7.513  0.4802  0.1075 -0.5104
  831MOL0     C12087   6.999   2.010   7.439  0.3449  0.1587 -1.4706
  831MOL0     C12088   7.074   2.135   7.492  0.0564  0.0845  0.0493
  831MOL0     C12089   7.019   2.258   7.416 -0.1935 -0.6345 -0.1966
  831MOL0     C12090   7.114   2.382   7.414 -1.1525 -0.1269 -0.9226
  831MOL0     C12091   7.049   2.504   7.356  0.6260 -0.0526 -0.1292
  831MOL0     C12092   7.120   2.639   7.333  0.2768 -0.1562 -0.2753
  831MOL0     C12093   7.030   2.739   7.244 -0.2634 -0.3620  0.6402
  831MOL0     C12094   7.101   2.869   7.214  0.8885 -0.1260  0.3890
  831MOL0    Cl12095   7.103   2.979   7.355 -0.4566 -0.0834  0.4003
  831MOL0     C12096   7.106   1.678   7.469  0.2004 -0.0068  0.1825
  831MOL0     C12097   7.060   1.553   7.432 -0.2761 -1.7092  0.1487
  831MOL0     O12098   7.018   1.343   7.211  0.1176 -0.2009  0.1485
  831MOL0     C12099   7.009   1.072   7.272 -0.8046  0.2652  0.2414
  831MOL0     C12100   6.982   0.937   7.272 -0.3016  0.0427  0.0260
  831MOL0     N12101   7.102   0.257   7.694  0.1044 -1.0832 -0.1338
  831MOL0     N12102   7.051   0.225   7.798  0.1727 -1.2180 -0.6463
  831MOL0     C12103   6.108   0.235   8.468  0.7914  0.3996 -0.1422
  831MOL0     C12104   6.021   0.127   8.479  0.4585 -0.6720 -0.1289
  831MOL0     C12105   5.641  -0.076   8.571 -0.4299  1.0127 -0.8736
  831MOL0     C12106   5.546  -0.124   8.476 -0.3088 -0.7904 -0.3243
  831MOL0     C12107   5.433  -0.201   8.511 -0.0430 -1.2257  0.5743
  831MOL0     C12108   5.428  -0.253   8.637 -0.3363  0.3231 -0.1727
  831MOL0     O12109   5.339  -0.348   8.670 -0.2097 -0.3572 -0.0765
  831MOL0     C12110   5.310  -0.378   8.811  0.4896 -0.0458 -0.0439
  831MOL0     C12111   5.198  -0.470   8.841  0.0673  1.0801 -0.0934
  831MOL0     C12112   5.069  -0.431   8.770  0.3430  0.3879  0.6232
  831MOL0     C12113   4.946  -0.442   8.850  1.1244 -0.0505  0.3838
  831MOL0     C12114   4.938  -0.574   8.908 -0.1995  0.2014 -0.0742
  831MOL0     C12115   4.930  -0.687   8.951 -0.4350 -0.3767  0.2694
  831MOL0     C12116   5.520  -0.204   8.736 -0.9096 -0.7072 -0.1473
  831MOL0     C12117   5.633  -0.130   8.701  0.6596 -0.7033 -1.5233
  831MOL0     H12118   5.969   0.167   8.814  1.6970  2.2256  0.7571
  831MOL0     H12119   6.148   0.320   8.789 -2.3075  1.8157 -0.1359
  831MOL0     H12120   6.363   0.291   8.418 -0.1458 -2.1358  4.1483
  831MOL0     H12121   6.299   0.442   8.357 -1.1858  0.6169  0.8371
  831MOL0     H12122   6.460   0.556   8.483  1.8909  1.0558 -3.2754
  831MOL0     H12123   6.534   0.409   8.553 -0.8007  1.1359  1.1586
  831MOL0     H12124   6.549   0.340   8.296 -2.4336 -0.3435  2.1353
  831MOL0     H12125   6.537   0.510   8.259  1.7760 -1.8494 -1.1284
  831MOL0     H12126   6.728   0.565   8.421 -0.7168  0.6463 -1.2059
  831MOL0     H12127   6.744   0.398   8.450 -4.8833  1.6063  2.5054
  831MOL0     H12128   6.805   0.567   8.193 -2.8483  0.0758  0.0192
  831MOL0     H12129   6.904   0.447   8.286 -1.3088 -0.9088  2.5718
  831MOL0     H12130   6.778   0.269   8.207 -0.9029 -2.2268 -3.1209
  831MOL0     H12131   6.677   0.374   8.107 -0.6293  2.6289  0.9757
  831MOL0     H12132   6.911   0.452   8.008 -1.8903  1.9611 -0.5566
  831MOL0     H12133   6.976   0.307   8.071  1.6301  0.3135 -1.7603
  831MOL0     H12134   6.733   0.294   7.881 -0.7355  0.2988 -0.3933
  831MOL0     H12135   6.826   0.164   7.941  1.3201  0.3930 -1.6307
  831MOL0     H12136   6.868   0.477   7.694  0.4168  0.1212  1.2089
  831MOL0     H12137   7.129   0.518   7.530  0.6801  1.1504 -3.1234
  831MOL0     H12138   7.132   0.366   7.443 -1.1211 -0.5310 -1.9528
  831MOL0     H12139   6.876   0.546   7.477  0.2207 -0.6076  1.5669
  831MOL0     H12140   6.900   0.392   7.375  3.1223 -1.0630 -2.1480
  831MOL0     H12141   7.026   0.500   7.215 -2.0457  2.0917 -2.7464
  831MOL0     H12142   7.074   0.629   7.329 -1.0890  1.4071 -1.1550
  831MOL0     H12143   6.797   0.605   7.194  0.9000 -0.5394 -1.1889
  831MOL0     H12144   6.956   0.712   7.171  3.8376  0.3736  3.7831
  831MOL0     H12145   6.677   0.927   7.404  0.0547 -0.5845  4.1867
  831MOL0     H12146   6.728   1.263   7.535 -1.8460 -0.6038  1.3695
  831MOL0     H12147   6.644   1.252   7.383 -3.4517 -2.2020  1.0747
  831MOL0     H12148   6.627   1.123   7.491 -3.3723  3.6738  1.6720
  831MOL0     H12149   6.743   1.611   7.343  1.5197 -3.3057 -4.5948
  831MOL0     H12150   6.807   1.832   7.384  2.2545  3.5146  1.9944
  831MOL0     H12151   7.020   2.005   7.332  4.2758  0.4142 -0.8638
  831MOL0     H12152   6.891   2.015   7.454  0.7066 -1.0585  3.8474
  831MOL0     H12153   7.072   2.143   7.601  2.9763 -0.0027  0.1939
  831MOL0     H12154   7.176   2.109   7.461 -0.5564 -0.1492 -1.9198
  831MOL0     H12155   6.928   2.282   7.471 -0.3596 -0.0551 -0.7174
  831MOL0     H12156   6.983   2.225   7.318 -1.1219 -0.5622  0.1110
  831MOL0     H12157   7.144   2.414   7.514  1.0836  1.6960 -2.0747
  831MOL0     H12158   7.205   2.372   7.355  0.6868  1.1710  1.4939
  831MOL0     H12159   6.957   2.531   7.408 -0.2471  2.6703 -2.8176
  831MOL0     H12160   7.010   2.464   7.262 -3.1349 -1.4600  1.8098
  831MOL0     H12161   7.133   2.687   7.431 -5.6151  0.1857  0.7031
  831MOL0     H12162   7.213   2.627   7.276 -1.2174  2.8134 -3.6712
  831MOL0     H12163   6.939   2.767   7.298 -0.5175 -0.0220  0.0489
  831MOL0     H12164   7.002   2.692   7.149  3.0903 -1.6466  0.1382
  831MOL0     H12165   7.029   2.914   7.145 -1.3086  0.4145  2.8479
  831MOL0     H12166   7.200   2.860   7.169  0.0883 -0.6394 -1.3450
  831MOL0     H12167   7.209   1.697   7.495 -0.7838  1.7548  3.2559
  831MOL0     H12168   7.129   1.472   7.454  2.6205 -0.0816 -2.1953
  831MOL0     H12169   7.096   1.119   7.226 -1.4255  1.7489  0.5301
  831MOL0     H12170   7.056   0.874   7.224  1.9219  3.1106 -0.8801
  831MOL0     H12171   6.107   0.267   8.364  1.7758 -3.3359 -1.4606
  831MOL0     H12172   5.988   0.069   8.393 -0.5913  2.9347 -2.3894
  831MOL0     H12173   5.542  -0.083   8.375 -3.9991  0.3520  0.1419
  831MOL0     H12174   5.344  -0.214   8.451 -1.7037 -2.7632  3.1560
  831MOL0     H12175   5.393  -0.436   8.850 -0.9267 -2.2812 -0.1848
  831MOL0     H12176   5.293  -0.291   8.876  2.2725 -0.3063  0.8001
  831MOL0     H12177   5.173  -0.481   8.947 -3.2114 -3.2053 -1.0057
  831MOL0     H12178   5.232  -0.568   8.809 -1.2863  1.1220 -1.8158
  831MOL0     H12179   5.049  -0.480   8.675 -0.5045  1.1974  0.3726
  831MOL0     H12180   5.064  -0.325   8.743 -2.6780  0.3910  0.8601
  831MOL0     H12181   4.865  -0.415   8.782  0.8252  1.4354  1.2972
  831MOL0     H12182   4.934  -0.365   8.927  2.2809  1.1007 -0.5457
  831MOL0     H12183   4.920  -0.785   8.993 -0.8609 -1.1557 -1.5265
  831MOL0     H12184   5.518  -0.245   8.836  4.2773  1.8994  1.3838
  831MOL0     H12185   5.700  -0.085   8.773 -0.4146  0.6728 -1.3275
  832MOL0     O12186  11.412   3.501   2.958  0.5450 -0.4540  0.0265
  832MOL0     C12187  11.453   3.463   3.062  1.0541  0.5488  0.4934
  832MOL0     O12188  11.557   3.369   3.071  0.0184 -0.6290  0.2507
  832MOL0     C12189  11.635   3.342   2.961 -0.0053 -0.2092 -0.9676
  832MOL0     C12190  11.725   3.439   2.901  1.0393  0.6132  0.8017
  832MOL0     C12191  11.810   3.402   2.790  0.1818 -0.1235 -0.1496
  832MOL0     C12192  11.795   3.269   2.732  0.2455 -0.5503 -1.0367
  832MOL0     O12193  11.864   3.262   2.614  0.3969  0.0128  0.1718
  832MOL0     C12194  11.812   3.174   2.514 -0.7693  1.0054  0.1137
  832MOL0     C12195  11.671   3.189   2.461  0.6161  0.0443  0.6896
  832MOL0     C12196  11.636   3.313   2.374  0.5141  1.3391  0.1516
  832MOL0     C12197  11.694   3.458   2.411 -0.1040  0.0458 -0.3715
  832MOL0     C12198  11.666   3.566   2.313 -0.8074 -0.0928 -0.4550
  832MOL0     C12199  11.710   3.711   2.373 -0.4494 -0.2137  0.2453
  832MOL0     C12200  11.673   3.825   2.276 -0.4950 -0.3741  0.4209
  832MOL0     C12201  11.718   3.967   2.285  0.7764  0.0379  1.1102
  832MOL0     N12202  11.718   4.044   2.157 -0.7243 -0.6395  0.7791
  832MOL0     C12203  11.609   4.084   2.090 -0.1886  0.0755  1.4834
  832MOL0     C12204  11.646   4.136   1.974  0.4743 -1.4455 -0.4974
  832MOL0     C12205  11.570   4.199   1.856 -0.4501  0.2512  0.4154
  832MOL0     C12206  11.473   4.087   1.800 -0.3111 -0.7260  1.0455
  832MOL0     C12207  11.550   3.978   1.719  0.1556  1.3111  0.1501
  832MOL0     C12208  11.439   3.858   1.689 -0.6388 -1.1851 -0.6808
  832MOL0     O12209  11.389   3.826   1.558  0.3536  0.2090  0.3656
  832MOL0     C12210  11.330   3.704   1.536  0.6235  0.6018 -0.9048
  832MOL0     C12211  11.321   3.660   1.409  0.9837 -0.3389 -0.3090
  832MOL0     C12212  11.281   3.529   1.382  0.0579 -0.2117 -0.3202
  832MOL0     C12213  11.279   3.474   1.230 -0.0660 -0.6475 -0.2105
  832MOL0     C12214  11.229   3.442   1.493 -0.3485 -0.4389 -0.0395
  832MOL0     C12215  11.180   3.303   1.471  1.3859 -0.6709 -1.1723
  832MOL0     O12216  11.233   3.222   1.376 -0.6318 -0.4141 -0.0200
  832MOL0     C12217  11.202   3.089   1.377  0.6756  1.1049 -0.3369
  832MOL0     C12218  11.168   3.038   1.255  0.1516 -0.0629 -0.1775
  832MOL0     C12219  11.155   2.898   1.242  0.8086 -0.5459 -0.3617
  832MOL0     C12220  11.155   2.808   1.352  0.7437 -1.6717 -0.3252
  832MOL0     O12221  11.133   2.672   1.351 -0.1260  0.5711  0.2532
  832MOL0     C12222  11.057   2.622   1.241 -0.1759  0.1585 -0.4293
  832MOL0     C12223  11.083   2.468   1.240  0.1595 -0.1329 -0.8709
  832MOL0     C12224  10.965   2.394   1.187  0.0935  0.2603  0.5896
  832MOL0     C12225  10.994   2.236   1.172  0.6445  0.4072 -0.2914
  832MOL0     C12226  10.897   2.161   1.082 -0.2054 -0.7976  0.8977
  832MOL0     C12227  10.861   2.012   1.118 -0.1015 -0.3568  0.7153
  832MOL0     C12228  10.732   1.976   1.042  0.9053  0.4049 -0.2163
  832MOL0     C12229  10.718   1.823   1.008  1.0167  0.1470  0.1729
  832MOL0    Cl12230  10.758   1.724   1.147 -0.4892  0.0489 -0.1064
  832MOL0     C12231  11.190   2.862   1.481  0.3326  0.3300  0.5015
  832MOL0     C12232  11.214   2.995   1.491 -0.3918  0.5737 -0.0907
  832MOL0     O12233  11.088   3.277   1.542  0.4718  0.5087  0.1011
  832MOL0     C12234  11.227   3.493   1.623  0.7587  0.7528  0.1558
  832MOL0     C12235  11.292   3.616   1.645  0.0299 -0.8794  0.2518
  832MOL0     N12236  11.786   4.136   1.974 -0.2070  0.4723  0.6390
  832MOL0     N12237  11.829   4.090   2.085 -0.5242 -0.2814 -0.3553
  832MOL0     C12238  11.708   3.176   2.789  0.3347 -0.0378  0.0281
  832MOL0     C12239  11.632   3.209   2.898  0.8488  0.1772  0.4458
  832MOL0     C12240  11.391   3.512   3.182  0.2699  0.1402 -0.2540
  832MOL0     C12241  11.423   3.444   3.299  0.7952 -0.7517 -0.8171
  832MOL0     C12242  11.375   3.490   3.420 -0.3267  0.3296  0.1987
  832MOL0     C12243  11.277   3.592   3.427 -0.3204  0.8404  0.3719
  832MOL0     O12244  11.200   3.626   3.533 -0.0024 -0.4506  0.0902
  832MOL0     C12245  11.190   3.556   3.653  0.0002 -0.0965 -0.8193
  832MOL0     C12246  11.075   3.453   3.631 -0.3533 -0.1918 -0.1198
  832MOL0     C12247  11.045   3.377   3.755 -0.1096  0.1680 -0.8715
  832MOL0     C12248  11.161   3.282   3.802  0.8596  1.2342 -0.8695
  832MOL0     C12249  11.165   3.168   3.708 -0.2699  0.5551 -0.1084
  832MOL0     C12250  11.171   3.081   3.625  0.0366 -0.2407 -0.0159
  832MOL0     C12251  11.242   3.649   3.307  0.7325 -0.2794  1.0227
  832MOL0     C12252  11.296   3.617   3.188 -0.4440  0.5821  0.8419
  832MOL0     H12253  11.731   3.540   2.939 -0.5529  1.4126 -0.9176
  832MOL0     H12254  11.873   3.475   2.741 -1.3568 -0.0844 -2.1947
  832MOL0     H12255  11.885   3.171   2.432  3.1743 -1.7702  3.2935
  832MOL0     H12256  11.816   3.073   2.556  2.4801  0.8670 -0.2574
  832MOL0     H12257  11.664   3.103   2.393 -1.7144  1.2529 -0.7241
  832MOL0     H12258  11.592   3.168   2.534 -1.4417  1.2861 -1.0599
  832MOL0     H12259  11.691   3.296   2.281  1.2765  0.0984  0.8106
  832MOL0     H12260  11.528   3.322   2.357  0.4933 -0.9096 -1.4635
  832MOL0     H12261  11.651   3.478   2.509  0.7801  2.1277 -0.3525
  832MOL0     H12262  11.803   3.450   2.420  0.2545  1.1467 -3.0442
  832MOL0     H12263  11.719   3.536   2.223 -2.5379 -1.4271 -1.0748
  832MOL0     H12264  11.558   3.566   2.296 -0.6071 -0.8945 -1.8412
  832MOL0     H12265  11.662   3.727   2.470 -2.2437 -0.3458 -0.5899
  832MOL0     H12266  11.818   3.696   2.383 -0.7188 -3.2102 -0.4895
  832MOL0     H12267  11.736   3.802   2.189  2.2506  0.4078  2.0741
  832MOL0     H12268  11.567   3.816   2.250 -0.7696  1.3033  0.8375
  832MOL0     H12269  11.818   3.974   2.328  1.6660 -0.2342 -0.8139
  832MOL0     H12270  11.646   4.015   2.352 -1.2808 -0.2596 -0.7556
  832MOL0     H12271  11.509   4.077   2.133 -0.4169  1.0411  1.1359
  832MOL0     H12272  11.511   4.289   1.878  0.9598  1.3585 -0.1325
  832MOL0     H12273  11.639   4.217   1.773 -1.1849  1.4009  0.0271
  832MOL0     H12274  11.405   4.135   1.729  0.2094 -0.9012  0.4180
  832MOL0     H12275  11.418   4.038   1.880 -1.7442  0.8654  1.0883
  832MOL0     H12276  11.626   3.934   1.785  0.1901  1.2399  0.0643
  832MOL0     H12277  11.601   4.005   1.626 -1.7814  3.1558 -0.4606
  832MOL0     H12278  11.352   3.880   1.750  1.5244 -1.1312  2.6464
  832MOL0     H12279  11.481   3.762   1.723  1.4254 -0.7215 -1.7221
  832MOL0     H12280  11.352   3.727   1.329  1.4790 -0.1375  0.0469
  832MOL0     H12281  11.376   3.427   1.248  0.9545  1.4873  0.1237
  832MOL0     H12282  11.201   3.400   1.207  0.2698 -2.1432  2.9592
  832MOL0     H12283  11.301   3.550   1.155  2.8933 -0.5687  0.6287
  832MOL0     H12284  11.160   3.104   1.169 -3.2926  0.7880  0.6514
  832MOL0     H12285  11.148   2.857   1.142 -1.3369 -1.4199  0.0866
  832MOL0     H12286  10.949   2.640   1.243 -0.3917 -0.4086 -3.4262
  832MOL0     H12287  11.087   2.681   1.155 -0.6768  2.0902  0.6451
  832MOL0     H12288  11.165   2.444   1.173 -0.8752 -0.4009 -2.0827
  832MOL0     H12289  11.115   2.429   1.337  1.2284 -0.3326 -1.2893
  832MOL0     H12290  10.946   2.445   1.092 -0.1363  0.5715  0.7980
  832MOL0     H12291  10.867   2.396   1.236 -0.6177  0.8965 -0.7837
  832MOL0     H12292  11.091   2.230   1.122 -0.0049 -0.7613 -1.4565
  832MOL0     H12293  11.006   2.186   1.268  3.6068 -2.3429 -1.9069
  832MOL0     H12294  10.921   2.172   0.976  3.8435 -2.6610  1.4278
  832MOL0     H12295  10.805   2.220   1.085 -2.6101 -3.6824 -3.8190
  832MOL0     H12296  10.943   1.947   1.085 -0.7608  0.0669 -2.0488
  832MOL0     H12297  10.856   2.004   1.227 -3.3309 -0.0410  0.6832
  832MOL0     H12298  10.741   2.040   0.953  0.8078  2.8465  1.4124
  832MOL0     H12299  10.647   2.008   1.103  0.1162  1.6638 -1.8966
  832MOL0     H12300  10.785   1.787   0.929 -1.3284  0.0835 -1.9124
  832MOL0     H12301  10.624   1.804   0.954  1.1772 -0.7359  0.1821
  832MOL0     H12302  11.185   2.801   1.571  0.8555 -0.3359  0.0918
  832MOL0     H12303  11.240   3.031   1.591  3.0442 -0.1321 -0.5968
  832MOL0     H12304  11.179   3.433   1.700  0.1044 -0.5765 -1.2378
  832MOL0     H12305  11.296   3.639   1.750  2.0370  3.7156 -0.6059
  832MOL0     H12306  11.673   3.090   2.732 -2.6623  0.1682  1.3703
  832MOL0     H12307  11.565   3.133   2.936 -0.8859  1.1757 -0.4652
  832MOL0     H12308  11.499   3.366   3.298  1.4240 -0.1448 -1.1882
  832MOL0     H12309  11.417   3.434   3.503  1.0942 -0.5529 -1.0662
  832MOL0     H12310  11.280   3.510   3.694 -1.1035 -0.0885  1.8001
  832MOL0     H12311  11.147   3.620   3.730  0.5134 -4.1603  3.2515
  832MOL0     H12312  11.105   3.379   3.556  1.5284  2.8925 -2.6982
  832MOL0     H12313  10.983   3.505   3.604 -0.2683  1.6115  2.7197
  832MOL0     H12314  10.960   3.314   3.727 -0.7066  0.8245 -0.5623
  832MOL0     H12315  11.013   3.447   3.833  0.7845 -1.9168  1.5523
  832MOL0     H12316  11.137   3.234   3.897  0.0295 -2.2499 -2.6932
  832MOL0     H12317  11.257   3.328   3.828  2.3870 -1.8194 -0.7425
  832MOL0     H12318  11.161   2.993   3.564 -2.2878  0.6757 -1.0681
  832MOL0     H12319  11.177   3.736   3.317  1.4725  0.2745  1.0936
  832MOL0     H12320  11.258   3.658   3.095  0.7681  1.2600  0.6303
  833MOL0     O12321   2.068   4.450   9.184 -0.2899 -0.1493 -0.4663
  833MOL0     C12322   2.127   4.370   9.257 -0.2794 -0.3233  0.6837
  833MOL0     O12323   2.090   4.344   9.386 -0.0027  1.1315 -0.1713
  833MOL0     C12324   1.973   4.396   9.418  0.1042 -0.4468 -0.4199
  833MOL0     C12325   1.847   4.374   9.360 -0.1087  0.3934 -0.2713
  833MOL0     C12326   1.725   4.433   9.409 -0.1595 -0.3792 -0.0205
  833MOL0     C12327   1.734   4.506   9.530 -0.0058 -0.3298 -0.3596
  833MOL0     O12328   1.621   4.555   9.605  0.5415  1.2888 -0.3727
  833MOL0     C12329   1.494   4.580   9.542 -0.0165  0.3907  0.2509
  833MOL0     C12330   1.393   4.638   9.651  0.4498  0.6573 -0.2968
  833MOL0     C12331   1.437   4.780   9.686  0.6783 -0.1945 -0.4554
  833MOL0     C12332   1.347   4.857   9.787  0.5454  1.3159 -0.0814
  833MOL0     C12333   1.427   4.991   9.806  0.2713 -0.2275 -0.7504
  833MOL0     C12334   1.360   5.086   9.908 -0.4025  1.1218 -0.8758
  833MOL0     C12335   1.211   5.095   9.891 -0.0459 -0.1318  1.0008
  833MOL0     C12336   1.142   5.204   9.982  0.2703 -0.3529  0.5663
  833MOL0     N12337   1.160   5.177  10.124  0.7502 -0.2984  0.4822
  833MOL0     C12338   1.148   5.050  10.178  0.6772  0.0349 -0.2206
  833MOL0     C12339   1.123   5.075  10.313 -0.1335  0.5100  1.2584
  833MOL0     C12340   1.094   4.974  10.408 -0.0237  0.4105  0.4892
  833MOL0     C12341   1.226   4.961  10.491  0.6618 -0.3025 -0.8033
  833MOL0     C12342   1.190   5.007  10.638 -0.3441  0.3839 -0.4467
  833MOL0     C12343   1.140   5.149  10.658  0.5373  1.0553  0.0447
  833MOL0     O12344   1.167   5.190  10.788 -0.0639 -0.4126 -0.2338
  833MOL0     C12345   1.115   5.307  10.836 -0.5315  0.1253 -0.3807
  833MOL0     C12346   1.086   5.313  10.976  0.4136 -0.6145 -0.0594
  833MOL0     C12347   1.047   5.440  11.032 -0.0457  0.7131  0.1093
  833MOL0     C12348   1.028   5.437  11.189 -0.1681 -0.5488 -0.1341
  833MOL0     C12349   1.019   5.553  10.954 -0.4225 -1.1464  0.0140
  833MOL0     C12350   0.988   5.687  10.996  0.6335 -0.0601  0.5905
  833MOL0     O12351   1.025   5.722  11.126 -0.5779  0.2401  0.2821
  833MOL0     C12352   1.132   5.802  11.129 -0.1462  0.2387  0.0686
  833MOL0     C12353   1.244   5.793  11.041  0.2976  0.9955  0.1977
  833MOL0     C12354   1.352   5.868  11.061 -0.7224  1.1721 -0.6455
  833MOL0     C12355   1.351   5.968  11.162 -1.4406 -0.7955  1.0480
  833MOL0     O12356   1.459   6.051  11.188  0.3781 -0.6176  0.0288
  833MOL0     C12357   1.575   6.054  11.105  0.1746  0.0381 -0.2375
  833MOL0     C12358   1.679   6.155  11.162  0.5305 -0.7074  1.2563
  833MOL0     C12359   1.668   6.297  11.112 -0.3837 -0.2226  0.9825
  833MOL0     C12360   1.558   6.367  11.182  0.0939  0.6453  0.0175
  833MOL0     C12361   1.565   6.516  11.159 -0.1329 -0.1696  1.5538
  833MOL0     C12362   1.588   6.562  11.012  0.1082 -0.0342  0.3264
  833MOL0     C12363   1.555   6.715  10.995  0.5024  1.0304  0.8879
  833MOL0     C12364   1.481   6.758  10.867  0.9304  0.1114  0.1492
  833MOL0    Cl12365   1.578   6.744  10.728  0.3243 -0.3314  0.5821
  833MOL0     C12366   1.245   5.979  11.245  0.2365 -0.2923  0.7416
  833MOL0     C12367   1.132   5.896  11.229  0.2117 -0.1323  0.1596
  833MOL0     O12368   0.903   5.742  10.923  0.5830 -0.0484 -0.2319
  833MOL0     C12369   1.033   5.541  10.814  0.6771  0.1591 -0.3797
  833MOL0     C12370   1.096   5.423  10.761  0.3945 -1.0699  0.2189
  833MOL0     N12371   1.154   5.214  10.336  0.2100  0.2925  0.3931
  833MOL0     N12372   1.171   5.270  10.222  0.6601 -0.1341 -0.3137
  833MOL0     C12373   1.861   4.541   9.587  0.5985 -0.5757 -0.7064
  833MOL0     C12374   1.975   4.479   9.534  0.1031  0.1004  0.1232
  833MOL0     C12375   2.244   4.289   9.200  0.4504  0.2806 -0.2942
  833MOL0     C12376   2.334   4.219   9.286 -0.6068  0.6768 -0.2615
  833MOL0     C12377   2.433   4.141   9.231 -0.8327  0.2098 -0.0945
  833MOL0     C12378   2.451   4.138   9.089 -0.1257  0.4455 -1.1062
  833MOL0     O12379   2.550   4.059   9.041  0.1318  0.0480  0.1128
  833MOL0     C12380   2.625   4.126   8.940 -0.1379 -0.1432  1.4331
  833MOL0     C12381   2.755   4.041   8.917  0.6277 -0.1756  0.3133
  833MOL0     C12382   2.844   4.110   8.807 -0.0592  0.0039  0.0484
  833MOL0     C12383   2.958   4.003   8.792 -0.6162 -0.4581  1.2390
  833MOL0     C12384   3.080   4.057   8.723 -0.0152 -0.7680 -0.5158
  833MOL0     C12385   3.187   4.105   8.681  1.0684  0.4815 -0.1409
  833MOL0     C12386   2.375   4.209   9.009  0.2803  0.6154  0.6046
  833MOL0     C12387   2.268   4.287   9.061  0.2438  1.1139 -1.0306
  833MOL0     H12388   1.844   4.325   9.263  1.2134  1.2204 -0.7494
  833MOL0     H12389   1.636   4.388   9.366  1.6963 -2.0261 -2.4766
  833MOL0     H12390   1.489   4.632   9.446  0.5026 -2.1725 -1.2491
  833MOL0     H12391   1.454   4.480   9.524  0.5037  0.5342 -1.9515
  833MOL0     H12392   1.293   4.646   9.607  0.2138 -2.8901 -0.6846
  833MOL0     H12393   1.386   4.565   9.732 -0.6168  1.4551  0.3535
  833MOL0     H12394   1.539   4.768   9.724  1.1521 -0.6557 -1.7918
  833MOL0     H12395   1.441   4.841   9.594  0.4604 -0.5905 -0.7303
  833MOL0     H12396   1.242   4.860   9.754  1.0652  2.5081 -1.8054
  833MOL0     H12397   1.348   4.808   9.884  3.9936  0.5412 -0.3796
  833MOL0     H12398   1.532   4.975   9.831  0.6952  0.5463 -1.9321
  833MOL0     H12399   1.427   5.047   9.712 -1.3571  0.9707 -0.0761
  833MOL0     H12400   1.379   5.039  10.005  0.7077  1.7323 -0.7851
  833MOL0     H12401   1.412   5.182   9.907  3.2404 -0.6560 -3.8941
  833MOL0     H12402   1.181   5.130   9.792 -0.9193 -1.9324  0.5926
  833MOL0     H12403   1.176   4.991   9.895  0.4686 -0.5831 -2.8663
  833MOL0     H12404   1.036   5.218   9.964 -0.1658 -1.7105  1.8719
  833MOL0     H12405   1.195   5.298   9.961  0.8602 -0.5695  1.0490
  833MOL0     H12406   1.147   4.958  10.120  3.2281 -1.2911  1.6297
  833MOL0     H12407   0.999   4.997  10.456 -0.0708 -0.1168  0.6605
  833MOL0     H12408   1.081   4.876  10.360  1.5573 -0.3786  1.5691
  833MOL0     H12409   1.309   5.013  10.443  0.5250 -1.9422 -2.9377
  833MOL0     H12410   1.259   4.857  10.497  0.0469 -0.5659 -1.7723
  833MOL0     H12411   1.278   5.007  10.703 -0.6558  1.8873  0.0012
  833MOL0     H12412   1.124   4.929  10.677 -0.9447  0.7714 -0.6827
  833MOL0     H12413   1.032   5.164  10.646  0.7091  2.8524  0.4848
  833MOL0     H12414   1.186   5.208  10.578  0.8828  0.7095 -0.0172
  833MOL0     H12415   1.109   5.232  11.045  0.9251  0.1112  0.6404
  833MOL0     H12416   0.981   5.345  11.226 -2.9037  0.4983 -0.7321
  833MOL0     H12417   1.125   5.445  11.237 -1.4687  1.2121  2.4828
  833MOL0     H12418   0.958   5.511  11.229  1.1842 -0.3327  1.9787
  833MOL0     H12419   1.247   5.730  10.952  1.0217  0.4861  0.5762
  833MOL0     H12420   1.439   5.870  10.996  1.9267  2.0044  2.6568
  833MOL0     H12421   1.633   5.965  11.082  0.8019 -0.5097  2.9462
  833MOL0     H12422   1.541   6.093  11.009  0.1060  1.1610  0.2261
  833MOL0     H12423   1.666   6.154  11.271  2.5341  2.7679  1.6677
  833MOL0     H12424   1.780   6.121  11.137  1.9526  3.4083  0.6401
  833MOL0     H12425   1.636   6.296  11.008 -0.2084  0.4866  0.9162
  833MOL0     H12426   1.761   6.353  11.124 -0.0515 -0.5509  0.0417
  833MOL0     H12427   1.458   6.337  11.150  0.1143 -0.5639  1.0062
  833MOL0     H12428   1.575   6.352  11.289 -2.5613 -0.3805  0.3840
  833MOL0     H12429   1.644   6.556  11.223  0.8844 -0.8269  0.7517
  833MOL0     H12430   1.473   6.564  11.193  0.8356  1.8871  1.4467
  833MOL0     H12431   1.690   6.553  10.975 -0.0912  1.0457 -0.5249
  833MOL0     H12432   1.524   6.500  10.949 -1.9694  3.7442 -1.6107
  833MOL0     H12433   1.643   6.779  11.007  1.7450 -0.1163 -1.4304
  833MOL0     H12434   1.477   6.723  11.071 -1.8075  3.2172 -1.4866
  833MOL0     H12435   1.443   6.858  10.887 -1.2256 -0.6942  0.3539
  833MOL0     H12436   1.390   6.698  10.858  1.5184 -0.6448 -1.0799
  833MOL0     H12437   1.254   6.056  11.320 -0.1025  0.4862 -0.0014
  833MOL0     H12438   1.048   5.895  11.298 -1.5888 -3.3756 -1.7963
  833MOL0     H12439   1.020   5.623  10.743 -0.5390  1.1736  0.9489
  833MOL0     H12440   1.113   5.422  10.654 -0.9713 -3.7267 -0.0409
  833MOL0     H12441   1.864   4.607   9.673 -1.5465  1.1121 -1.8093
  833MOL0     H12442   2.073   4.505   9.570  0.7084  0.8282 -1.8926
  833MOL0     H12443   2.325   4.237   9.393 -1.7528 -0.0887 -0.2213
  833MOL0     H12444   2.509   4.100   9.297 -2.3269  3.4145  4.0561
  833MOL0     H12445   2.565   4.143   8.851  0.2178  0.4088  1.2893
  833MOL0     H12446   2.667   4.221   8.976  3.9764 -1.6098  1.0674
  833MOL0     H12447   2.735   3.939   8.884  1.9172 -0.9767  1.8652
  833MOL0     H12448   2.813   4.029   9.009  0.9851 -0.3993  0.0631
  833MOL0     H12449   2.872   4.209   8.845 -1.1298  1.0640 -1.7699
  833MOL0     H12450   2.794   4.122   8.711 -2.2000 -1.6656  0.8975
  833MOL0     H12451   2.925   3.921   8.728  2.0532 -1.5817  1.1723
  833MOL0     H12452   2.996   3.974   8.890 -1.0504  0.5517  1.7198
  833MOL0     H12453   3.279   4.158   8.665  0.1481  2.3509  0.4516
  833MOL0     H12454   2.382   4.196   8.902 -2.1581 -0.5553  0.5070
  833MOL0     H12455   2.207   4.350   8.996 -3.4063 -1.5263 -0.4439
  834MOL0     O12456   4.301   3.518   5.336  0.0102  0.8074  0.4466
  834MOL0     C12457   4.359   3.630   5.349  0.1032  0.4084  1.4869
  834MOL0     O12458   4.347   3.739   5.266  0.6547  0.3887 -0.3422
  834MOL0     C12459   4.255   3.732   5.169  0.0893  0.8893 -0.2104
  834MOL0     C12460   4.271   3.644   5.059 -0.6112  0.2249 -0.7735
  834MOL0     C12461   4.181   3.645   4.952 -0.6531  0.1362 -0.3563
  834MOL0     C12462   4.075   3.738   4.942  0.4513 -0.0406 -0.5105
  834MOL0     O12463   3.985   3.729   4.838  0.2704 -0.4559  0.3686
  834MOL0     C12464   3.899   3.846   4.815  0.3266  0.7983 -0.2296
  834MOL0     C12465   3.792   3.796   4.714 -0.1094  0.2687  0.7138
  834MOL0     C12466   3.868   3.777   4.585 -0.3094 -0.1519 -0.1317
  834MOL0     C12467   3.785   3.712   4.482 -0.1012 -0.0281  0.3722
  834MOL0     C12468   3.868   3.697   4.343 -0.0304 -1.4138  0.4689
  834MOL0     C12469   3.932   3.831   4.292  1.0205  0.1013 -0.6808
  834MOL0     C12470   3.951   3.834   4.136 -0.8287 -0.0966 -0.6040
  834MOL0     C12471   4.028   3.959   4.099 -0.3925  0.1804 -0.3061
  834MOL0     N12472   4.157   3.981   4.161 -0.5742  0.0751 -0.1138
  834MOL0     C12473   4.211   4.105   4.176  0.0374  0.3102  0.7511
  834MOL0     C12474   4.332   4.084   4.223  1.1212 -0.2455 -0.2439
  834MOL0     C12475   4.439   4.186   4.250  0.6808  0.1483 -0.1409
  834MOL0     C12476   4.437   4.249   4.399 -0.1589  0.3765  0.4059
  834MOL0     C12477   4.305   4.318   4.407 -0.4476  1.6494  0.4442
  834MOL0     C12478   4.287   4.398   4.540 -0.6337 -0.8156 -0.1742
  834MOL0     O12479   4.399   4.485   4.564 -0.9722 -0.1413 -0.9073
  834MOL0     C12480   4.379   4.586   4.650  0.1972  0.9367 -0.1180
  834MOL0     C12481   4.273   4.614   4.743  0.3829  0.1550 -0.1634
  834MOL0     C12482   4.276   4.729   4.826  0.1091 -0.6258 -0.4907
  834MOL0     C12483   4.167   4.742   4.922  0.6490  0.0662 -0.5801
  834MOL0     C12484   4.370   4.829   4.806  0.3173  0.6740  1.0167
  834MOL0     C12485   4.378   4.950   4.882  0.7741 -0.9715  0.0914
  834MOL0     O12486   4.364   4.953   5.016 -0.3140 -0.0010 -0.2243
  834MOL0     C12487   4.349   5.072   5.077  0.5933 -0.3825 -0.3826
  834MOL0     C12488   4.256   5.163   5.026  0.6474  0.0800 -0.2120
  834MOL0     C12489   4.266   5.300   5.058  0.3567  0.2586 -0.1935
  834MOL0     C12490   4.366   5.347   5.144 -0.2608  0.5163 -0.2950
  834MOL0     O12491   4.396   5.482   5.178  0.2476  0.0512  0.2446
  834MOL0     C12492   4.318   5.595   5.123 -0.6323  0.4958 -0.1775
  834MOL0     C12493   4.307   5.714   5.216 -1.0693 -1.4609 -0.7770
  834MOL0     C12494   4.454   5.766   5.238 -1.1396  0.2116 -0.1972
  834MOL0     C12495   4.476   5.832   5.379 -0.2927  0.2492  0.3929
  834MOL0     C12496   4.521   5.732   5.493  0.1962 -0.3090 -0.4720
  834MOL0     C12497   4.416   5.630   5.534  0.5456 -0.7142 -0.0477
  834MOL0     C12498   4.464   5.550   5.653 -0.5955  0.1662  0.6448
  834MOL0     C12499   4.358   5.546   5.753 -0.1158 -0.3950  0.1112
  834MOL0    Cl12500   4.405   5.454   5.904 -0.0600 -0.4025  0.8814
  834MOL0     C12501   4.442   5.254   5.210  0.0600  0.4604 -0.1930
  834MOL0     C12502   4.441   5.126   5.163  0.6453 -0.2491  0.6392
  834MOL0     O12503   4.400   5.043   4.807 -0.2286  0.2055  0.2725
  834MOL0     C12504   4.458   4.805   4.705  0.1197 -0.0711  0.7163
  834MOL0     C12505   4.473   4.681   4.641 -0.1982  0.1772  0.4260
  834MOL0     N12506   4.360   3.955   4.243 -0.2437  0.2656 -0.4654
  834MOL0     N12507   4.253   3.889   4.200  0.5672  0.8592  0.0547
  834MOL0     C12508   4.082   3.840   5.042  0.3417  0.2103 -0.3730
  834MOL0     C12509   4.166   3.838   5.160  0.2250 -0.2426 -0.2430
  834MOL0     C12510   4.475   3.626   5.439 -0.2603  0.6816  0.2356
  834MOL0     C12511   4.542   3.507   5.456 -1.0199  0.5111 -0.6250
  834MOL0     C12512   4.670   3.512   5.533  1.0897 -0.8311  0.3335
  834MOL0     C12513   4.714   3.631   5.591  0.7857 -0.2880  0.5424
  834MOL0     O12514   4.814   3.626   5.686 -0.1685 -0.7494 -0.2796
  834MOL0     C12515   4.881   3.748   5.726  0.6543  0.0811 -0.5029
  834MOL0     C12516   4.969   3.786   5.613  0.0556 -0.4405 -0.2765
  834MOL0     C12517   5.018   3.931   5.636 -0.5499 -0.2389  0.3655
  834MOL0     C12518   5.120   3.962   5.526 -0.0160  0.9062  0.1054
  834MOL0     C12519   5.244   3.994   5.586 -0.1386 -0.3545  0.3731
  834MOL0     C12520   5.340   4.051   5.623 -0.6691  0.5936 -0.1331
  834MOL0     C12521   4.638   3.755   5.568 -0.2995  0.2811  0.1415
  834MOL0     C12522   4.519   3.746   5.492  0.7437 -0.0222 -0.2870
  834MOL0     H12523   4.348   3.567   5.056  0.8406  1.6076 -0.5480
  834MOL0     H12524   4.185   3.582   4.864  0.4352  0.6868 -0.7270
  834MOL0     H12525   3.854   3.880   4.909  0.9330 -2.8132  1.5382
  834MOL0     H12526   3.955   3.927   4.768  0.0023 -0.7719 -3.6475
  834MOL0     H12527   3.737   3.704   4.736  0.5073 -0.4200 -0.5385
  834MOL0     H12528   3.720   3.878   4.704 -2.4903 -1.9597 -2.8564
  834MOL0     H12529   3.921   3.869   4.557  1.7202 -0.7422  1.5444
  834MOL0     H12530   3.945   3.704   4.612 -0.0763  0.7128  1.6967
  834MOL0     H12531   3.752   3.611   4.512 -1.4411  1.1400  3.2659
  834MOL0     H12532   3.691   3.767   4.472  0.1681  0.3709  0.0713
  834MOL0     H12533   3.950   3.625   4.349  2.2658  0.6327 -2.5183
  834MOL0     H12534   3.801   3.660   4.265 -1.0625  1.4524 -0.1315
  834MOL0     H12535   3.875   3.918   4.325  3.7425  3.5110 -4.0960
  834MOL0     H12536   4.029   3.840   4.342  0.3578 -0.0854  0.6839
  834MOL0     H12537   4.003   3.741   4.111 -0.5609 -1.0029  2.8997
  834MOL0     H12538   3.854   3.835   4.085 -1.7905  2.1988  1.0978
  834MOL0     H12539   3.970   4.051   4.112  1.0960  0.9309  1.4322
  834MOL0     H12540   4.048   3.961   3.991 -1.7893  2.1847 -0.5718
  834MOL0     H12541   4.154   4.188   4.136 -1.4261 -1.6924 -1.6460
  834MOL0     H12542   4.535   4.137   4.238  0.4615  0.1077 -1.9999
  834MOL0     H12543   4.439   4.259   4.169  0.2858  0.8682  0.4939
  834MOL0     H12544   4.524   4.314   4.414  1.8531 -0.7205 -4.6125
  834MOL0     H12545   4.430   4.166   4.470  2.0643 -1.7588 -1.7023
  834MOL0     H12546   4.226   4.242   4.405  2.0445 -1.2615  2.5851
  834MOL0     H12547   4.292   4.388   4.324 -0.3319  0.4964 -0.5793
  834MOL0     H12548   4.289   4.332   4.627  3.0131  1.8635  2.0749
  834MOL0     H12549   4.196   4.457   4.529  0.8000  1.2946 -1.4325
  834MOL0     H12550   4.182   4.555   4.753  1.5233 -1.1963  4.0577
  834MOL0     H12551   4.080   4.740   4.856 -0.9391  1.4049  1.3377
  834MOL0     H12552   4.153   4.659   4.992  1.0876  0.0914 -0.4600
  834MOL0     H12553   4.155   4.828   4.988 -2.1151  0.1461 -1.0427
  834MOL0     H12554   4.181   5.133   4.952  1.6788  0.6988 -1.5578
  834MOL0     H12555   4.209   5.380   5.013 -0.4192 -0.9126 -1.3726
  834MOL0     H12556   4.360   5.630   5.029 -2.3288 -1.1561 -1.6646
  834MOL0     H12557   4.213   5.572   5.102 -0.6822  1.3789 -0.9465
  834MOL0     H12558   4.258   5.797   5.165  0.5967 -0.5699 -0.9727
  834MOL0     H12559   4.271   5.692   5.317  0.8970  3.3002  1.2152
  834MOL0     H12560   4.484   5.851   5.176  0.4001  0.9931  1.5096
  834MOL0     H12561   4.526   5.684   5.228 -1.0865  0.1410  0.6285
  834MOL0     H12562   4.565   5.894   5.364  0.8909 -1.4325  0.2055
  834MOL0     H12563   4.396   5.896   5.415 -0.1890 -0.7137  2.4669
  834MOL0     H12564   4.544   5.806   5.569 -1.8740  2.5303 -2.3853
  834MOL0     H12565   4.616   5.678   5.479  2.0338  2.7546 -0.6269
  834MOL0     H12566   4.319   5.676   5.556 -0.2077  0.3615 -4.5139
  834MOL0     H12567   4.399   5.563   5.450 -0.7802 -0.8090  0.2776
  834MOL0     H12568   4.548   5.601   5.700  0.1485 -1.4401  1.1252
  834MOL0     H12569   4.489   5.451   5.611  0.4848  0.4568  0.5678
  834MOL0     H12570   4.270   5.498   5.711 -0.6490  1.7288 -1.3497
  834MOL0     H12571   4.322   5.644   5.787 -1.4758  0.7765 -4.1271
  834MOL0     H12572   4.525   5.285   5.273 -0.3574 -1.8645  1.6539
  834MOL0     H12573   4.531   5.071   5.189  0.1932  0.3070  3.6976
  834MOL0     H12574   4.542   4.871   4.686  0.6893 -0.6039  1.3326
  834MOL0     H12575   4.561   4.673   4.578  0.9726  3.2302  1.4645
  834MOL0     H12576   4.006   3.917   5.036 -1.2335 -1.0437  1.8194
  834MOL0     H12577   4.150   3.907   5.242  1.1270 -0.7355  0.3638
  834MOL0     H12578   4.513   3.421   5.397 -3.0467  0.4880  0.3366
  834MOL0     H12579   4.713   3.425   5.581  0.0874 -0.6521  1.6072
  834MOL0     H12580   4.817   3.823   5.775 -0.3084 -1.6452  1.0001
  834MOL0     H12581   4.944   3.710   5.807 -0.6350 -2.4261 -0.5716
  834MOL0     H12582   4.922   3.776   5.514 -1.2613 -4.0376  0.5397
  834MOL0     H12583   5.053   3.717   5.619  0.1384 -0.2552  1.0603
  834MOL0     H12584   5.063   3.941   5.736 -0.6085  1.2900  0.2609
  834MOL0     H12585   4.929   3.994   5.625 -1.0243 -0.3265  2.9601
  834MOL0     H12586   5.081   4.033   5.452 -1.5527 -1.1541 -1.1791
  834MOL0     H12587   5.144   3.874   5.465  1.0471  0.5606  0.9794
  834MOL0     H12588   5.419   4.095   5.680  0.3978  0.0757 -1.1642
  834MOL0     H12589   4.659   3.850   5.617 -0.6777  0.6183 -0.3461
  834MOL0     H12590   4.465   3.839   5.477 -0.0130 -0.2509  0.8739
  835MOL0     O12591   1.104   9.217   5.077 -0.4770  0.5230 -0.2124
  835MOL0     C12592   1.140   9.194   5.189  0.2926 -0.5724  0.5139
  835MOL0     O12593   1.099   9.268   5.300 -0.5662 -0.2779  0.2930
  835MOL0     C12594   1.059   9.392   5.293 -0.2960 -1.0361  0.1041
  835MOL0     C12595   1.124   9.492   5.371 -0.3217 -0.1059 -0.7758
  835MOL0     C12596   1.087   9.631   5.372  0.4160  1.0659  0.1304
  835MOL0     C12597   0.977   9.677   5.290 -0.1446 -0.5362  0.7234
  835MOL0     O12598   0.939   9.802   5.272 -0.3211 -0.3910 -0.5819
  835MOL0     C12599   0.843   9.845   5.178 -0.0080  0.8375  0.7285
  835MOL0     C12600   0.833   9.993   5.193 -0.5395 -0.1601  0.3759
  835MOL0     C12601   0.711  10.051   5.104 -1.0758  0.0359 -0.2738
  835MOL0     C12602   0.713  10.008   4.956 -0.4771  0.3458 -0.7078
  835MOL0     C12603   0.630  10.088   4.857  0.2969 -0.5609  0.7240
  835MOL0     C12604   0.480  10.109   4.891  0.3941  0.2067  0.1433
  835MOL0     C12605   0.441  10.246   4.822  0.6443 -0.1445 -0.6810
  835MOL0     C12606   0.318  10.313   4.879  0.8504 -0.6964 -0.2673
  835MOL0     N12607   0.309  10.452   4.825  0.1351 -0.6610  1.0546
  835MOL0     C12608   0.274  10.490   4.696 -0.4162  0.4801  0.3083
  835MOL0     C12609   0.261  10.621   4.713  0.4236 -0.3069  0.2999
  835MOL0     C12610   0.223  10.717   4.596 -0.1386 -0.0050  0.1205
  835MOL0     C12611   0.329  10.818   4.576  0.3963 -0.0359 -0.0590
  835MOL0     C12612   0.439  10.777   4.483  0.0784 -0.2396  0.3166
  835MOL0     C12613   0.410  10.800   4.330 -0.4577  0.7220 -0.4904
  835MOL0     O12614   0.272  10.767   4.301  0.2886  0.4130 -0.3393
  835MOL0     C12615   0.238  10.697   4.183 -0.0935 -0.4812 -0.2580
  835MOL0     C12616   0.323  10.668   4.075 -0.3395  0.2196  0.0292
  835MOL0     C12617   0.272  10.610   3.964 -0.6918  0.6912  0.1332
  835MOL0     C12618   0.375  10.597   3.848  0.4147 -0.3483 -0.9091
  835MOL0     C12619   0.139  10.574   3.958 -0.0768  0.3183 -0.3224
  835MOL0     C12620   0.079  10.483   3.855 -0.1768 -0.8425 -0.1325
  835MOL0     O12621  -0.054  10.477   3.840  0.3582 -0.0685 -0.1070
  835MOL0     C12622  -0.093  10.444   3.712 -0.1295 -0.3421  0.1805
  835MOL0     C12623  -0.049  10.336   3.628 -0.3788  0.2277 -0.7799
  835MOL0     C12624  -0.109  10.314   3.502  0.8256  0.2841 -0.2651
  835MOL0     C12625  -0.213  10.400   3.471 -0.2880 -0.8228  0.5584
  835MOL0     O12626  -0.286  10.381   3.354  0.5585  0.3598 -0.2072
  835MOL0     C12627  -0.221  10.357   3.226 -0.1728  0.2967 -0.2060
  835MOL0     C12628  -0.307  10.434   3.125  0.2732  0.1379  0.1405
  835MOL0     C12629  -0.447  10.361   3.096  0.7754  0.9669 -0.6545
  835MOL0     C12630  -0.543  10.430   3.177  0.6506 -0.3144 -0.6988
  835MOL0     C12631  -0.691  10.395   3.155  1.2062  0.4085  0.4672
  835MOL0     C12632  -0.741  10.429   3.016  0.7192 -0.0730  0.4842
  835MOL0     C12633  -0.901  10.418   2.982 -0.6294  0.2955 -0.7482
  835MOL0     C12634  -0.968  10.278   3.016 -0.3814 -0.2718  0.5944
  835MOL0    Cl12635  -0.988  10.234   3.181  0.1710  0.0469 -0.2420
  835MOL0     C12636  -0.246  10.519   3.545  0.2773  0.2259 -0.4223
  835MOL0     C12637  -0.182  10.533   3.660 -0.2519 -0.3479 -0.4513
  835MOL0     O12638   0.157  10.420   3.794 -0.2493 -0.4595 -0.0189
  835MOL0     C12639   0.059  10.600   4.073  0.2090  0.3416  0.1848
  835MOL0     C12640   0.109  10.669   4.179 -0.2828  0.2282 -0.4086
  835MOL0     N12641   0.283  10.662   4.844 -0.0425 -0.9414 -0.1920
  835MOL0     N12642   0.305  10.558   4.909 -0.7792 -0.8273  0.2057
  835MOL0     C12643   0.902   9.571   5.233  0.5396  0.1964 -0.3585
  835MOL0     C12644   0.945   9.438   5.233 -0.7925 -0.1979  0.0410
  835MOL0     C12645   1.199   9.058   5.224  0.1528  0.1267  0.3260
  835MOL0     C12646   1.199   8.956   5.121 -0.7891 -0.2421 -0.0196
  835MOL0     C12647   1.235   8.826   5.149  0.0425 -0.3202 -0.1200
  835MOL0     C12648   1.292   8.801   5.273  0.1679 -0.0045 -0.8206
  835MOL0     O12649   1.344   8.678   5.317  0.5947  0.0471 -0.2021
  835MOL0     C12650   1.345   8.577   5.209  0.7076  0.5569 -0.2949
  835MOL0     C12651   1.413   8.453   5.257  0.5078  0.6179  0.6738
  835MOL0     C12652   1.313   8.346   5.332 -0.2135  0.5184  0.3276
  835MOL0     C12653   1.327   8.376   5.480  0.4219 -0.0670 -0.3720
  835MOL0     C12654   1.237   8.308   5.572 -0.2921 -0.8323 -0.3046
  835MOL0     C12655   1.164   8.254   5.656  0.4777  0.0198  0.7869
  835MOL0     C12656   1.302   8.915   5.361  0.0730  1.0761 -0.9766
  835MOL0     C12657   1.259   9.046   5.341 -0.4507 -0.1824  0.7864
  835MOL0     H12658   1.202   9.470   5.444  0.7775 -1.5953 -2.3429
  835MOL0     H12659   1.155   9.684   5.438 -1.5711 -0.9103  4.1410
  835MOL0     H12660   0.891   9.813   5.085  2.4728 -2.8181  2.9930
  835MOL0     H12661   0.741   9.807   5.191 -0.8381  2.5701 -0.4411
  835MOL0     H12662   0.811  10.020   5.297  0.0562 -0.1838  0.5071
  835MOL0     H12663   0.922  10.049   5.163 -0.4086 -0.2868  0.5270
  835MOL0     H12664   0.615  10.023   5.147 -1.5640  2.1630  0.1115
  835MOL0     H12665   0.695  10.159   5.105 -0.6302  0.1794  3.0731
  835MOL0     H12666   0.821  10.011   4.935  0.0828  1.3185  1.8555
  835MOL0     H12667   0.686   9.903   4.944 -1.7964  0.8928 -3.1992
  835MOL0     H12668   0.677  10.186   4.847  0.4925 -0.8475 -1.9395
  835MOL0     H12669   0.636  10.039   4.759  2.1051  0.9760 -0.0011
  835MOL0     H12670   0.418  10.025   4.859  1.3498 -0.2745 -0.4877
  835MOL0     H12671   0.459  10.120   4.998 -1.9313 -1.2422 -0.0962
  835MOL0     H12672   0.517  10.325   4.821  0.4120  0.1891  1.9249
  835MOL0     H12673   0.431  10.209   4.720  0.2743  0.1494 -0.7536
  835MOL0     H12674   0.331  10.323   4.987 -0.2454  0.9634 -0.2524
  835MOL0     H12675   0.227  10.256   4.861  0.0410  0.4982 -0.0571
  835MOL0     H12676   0.262  10.437   4.602 -0.6895  2.5543 -0.8878
  835MOL0     H12677   0.189  10.658   4.510  0.6819  1.9098 -1.5985
  835MOL0     H12678   0.139  10.780   4.626 -1.6452 -1.0101 -1.7591
  835MOL0     H12679   0.360  10.859   4.673 -1.7054  1.6148 -0.0084
  835MOL0     H12680   0.277  10.904   4.533  0.5276 -0.6245 -1.4393
  835MOL0     H12681   0.460  10.673   4.512  3.5024  0.6738  1.5063
  835MOL0     H12682   0.534  10.824   4.509 -0.8969  1.4499  0.9929
  835MOL0     H12683   0.479  10.730   4.282 -0.7711  0.2643 -0.2851
  835MOL0     H12684   0.441  10.898   4.295  0.7442  0.1774 -1.0223
  835MOL0     H12685   0.428  10.695   4.081  0.7240 -3.5329  1.0476
  835MOL0     H12686   0.339  10.595   3.745  0.6578 -2.1665 -0.9927
  835MOL0     H12687   0.442  10.682   3.864  1.1273 -1.2051  0.8919
  835MOL0     H12688   0.448  10.517   3.869  3.0913  2.4403  1.3929
  835MOL0     H12689   0.021  10.259   3.659  0.4294  0.3677 -2.1794
  835MOL0     H12690  -0.083  10.225   3.445 -0.2096 -1.3991  1.7143
  835MOL0     H12691  -0.125  10.408   3.229  1.4826 -2.4094 -2.4224
  835MOL0     H12692  -0.221  10.250   3.204  1.3414  0.2739 -0.1467
  835MOL0     H12693  -0.315  10.538   3.157  0.5974 -0.3766  2.0229
  835MOL0     H12694  -0.252  10.414   3.032  2.0145  1.1897  0.9017
  835MOL0     H12695  -0.442  10.254   3.119  2.0489  0.5364 -2.7211
  835MOL0     H12696  -0.474  10.362   2.990 -0.7277 -1.0358 -0.3492
  835MOL0     H12697  -0.513  10.413   3.281  1.1284  0.3693 -0.7176
  835MOL0     H12698  -0.532  10.538   3.163 -2.1098  0.3854  1.5046
  835MOL0     H12699  -0.757  10.456   3.218 -0.9430 -0.8391 -0.4398
  835MOL0     H12700  -0.688  10.287   3.174 -0.7298  0.2874  0.3197
  835MOL0     H12701  -0.716  10.535   3.005 -2.7262  0.9608  1.3327
  835MOL0     H12702  -0.686  10.381   2.935  2.9783  0.8472  1.3806
  835MOL0     H12703  -0.916  10.442   2.876 -1.7251 -1.6197 -1.0663
  835MOL0     H12704  -0.959  10.489   3.041  0.2526 -0.5309  1.2047
  835MOL0     H12705  -0.894  10.206   2.979 -1.2181 -1.0998  0.4788
  835MOL0     H12706  -1.065  10.253   2.971  0.7191 -2.4282 -0.7392
  835MOL0     H12707  -0.321  10.587   3.506 -0.6984  0.9958  2.5590
  835MOL0     H12708  -0.210  10.619   3.720  1.4090 -0.5210  0.6275
  835MOL0     H12709  -0.046  10.574   4.077  0.1607  0.7576  2.6416
  835MOL0     H12710   0.041  10.698   4.259  1.0732 -0.9984  1.2543
  835MOL0     H12711   0.806   9.597   5.190 -0.2923 -0.9593  0.7294
  835MOL0     H12712   0.880   9.369   5.180 -1.1115  0.4021 -0.3625
  835MOL0     H12713   1.146   8.971   5.027 -0.1275 -1.3421 -0.5853
  835MOL0     H12714   1.212   8.757   5.069  0.7924  1.0130 -1.5208
  835MOL0     H12715   1.240   8.558   5.187  1.1619 -0.5551 -1.6568
  835MOL0     H12716   1.395   8.618   5.121 -0.2878  1.2002 -0.5717
  835MOL0     H12717   1.498   8.490   5.315  1.3681  1.8428 -1.2620
  835MOL0     H12718   1.445   8.397   5.169 -1.1538  0.5852  0.0600
  835MOL0     H12719   1.365   8.251   5.314 -1.8079 -0.7589  2.0076
  835MOL0     H12720   1.218   8.344   5.279  1.1948  0.3702 -2.3969
  835MOL0     H12721   1.311   8.483   5.488  4.4801  0.7114 -0.4688
  835MOL0     H12722   1.433   8.368   5.507  1.0201  0.7963 -2.2989
  835MOL0     H12723   1.086   8.200   5.706 -0.8984  4.9963  4.7803
  835MOL0     H12724   1.352   8.901   5.457 -0.7778  1.1523 -0.5044
  835MOL0     H12725   1.268   9.118   5.422 -1.3491  2.0097 -0.9584
  836MOL0     O12726   4.923   6.267  11.250 -0.7889 -0.3285  1.5863
  836MOL0     C12727   5.001   6.328  11.324  0.7599  1.1257 -1.0580
  836MOL0     O12728   4.961   6.383  11.440  0.2855 -0.4822 -0.0541
  836MOL0     C12729   4.856   6.337  11.522 -0.0792  0.2406 -0.1415
  836MOL0     C12730   4.764   6.239  11.480 -0.2219  0.0299 -0.0498
  836MOL0     C12731   4.657   6.202  11.570 -1.2631  0.9150 -0.9993
  836MOL0     C12732   4.656   6.255  11.703 -0.4947 -0.1507 -0.2462
  836MOL0     O12733   4.541   6.218  11.769 -0.9165 -0.5516 -0.4844
  836MOL0     C12734   4.522   6.264  11.905  0.4323 -0.0663 -0.7203
  836MOL0     C12735   4.403   6.186  11.965  0.7011 -0.2725  0.7590
  836MOL0     C12736   4.335   6.248  12.091  0.0073 -0.0037  1.3240
  836MOL0     C12737   4.373   6.152  12.201 -0.6192 -0.8513 -1.0997
  836MOL0     C12738   4.327   6.190  12.340 -0.7990  0.1627  0.8513
  836MOL0     C12739   4.442   6.154  12.438  0.1035  0.0656 -0.5153
  836MOL0     C12740   4.396   6.192  12.584  1.1487 -0.1044 -0.1042
  836MOL0     C12741   4.519   6.177  12.683  1.0177  0.6078 -0.4548
  836MOL0     N12742   4.470   6.176  12.817  0.0439  0.0752  0.0312
  836MOL0     C12743   4.551   6.140  12.920 -0.0672 -0.2327 -0.7733
  836MOL0     C12744   4.479   6.135  13.035 -0.3619  0.0527  0.3724
  836MOL0     C12745   4.531   6.079  13.167  0.1980  0.0571  0.4383
  836MOL0     C12746   4.452   5.968  13.218  1.6826 -0.7043 -0.4006
  836MOL0     C12747   4.530   5.885  13.321  0.0772  0.6676  0.5042
  836MOL0     C12748   4.477   5.735  13.307 -0.1502 -0.2523  0.4829
  836MOL0     O12749   4.527   5.638  13.397  0.7547 -1.1143  0.2419
  836MOL0     C12750   4.665   5.625  13.401 -0.2704  1.3531 -1.2727
  836MOL0     C12751   4.744   5.691  13.496  0.2789 -0.0930  0.0633
  836MOL0     C12752   4.881   5.686  13.510  0.5732  0.2733 -0.2922
  836MOL0     C12753   4.948   5.756  13.622 -0.7732 -0.1432  0.3144
  836MOL0     C12754   4.949   5.593  13.427 -0.3041 -0.4227  0.0621
  836MOL0     C12755   5.098   5.586  13.419 -0.0593  0.4983 -0.1907
  836MOL0     O12756   5.181   5.639  13.513  0.9283 -0.2158  0.1464
  836MOL0     C12757   5.316   5.611  13.513  1.0589 -1.0752  0.5498
  836MOL0     C12758   5.371   5.586  13.644  0.8036  0.0856 -0.0577
  836MOL0     C12759   5.504   5.545  13.674  1.0053  0.1310  0.8064
  836MOL0     C12760   5.585   5.542  13.562  0.3265  0.6563 -0.1940
  836MOL0     O12761   5.713   5.501  13.581 -0.1019  0.5616 -0.6778
  836MOL0     C12762   5.779   5.413  13.484  0.0605 -0.7187 -0.0486
  836MOL0     C12763   5.776   5.261  13.536 -1.1815  0.1706 -0.4418
  836MOL0     C12764   5.803   5.166  13.425 -0.3985 -1.0458  0.1898
  836MOL0     C12765   5.852   5.035  13.467 -0.6173  0.2795 -0.1505
  836MOL0     C12766   5.866   4.941  13.354 -0.1538 -0.1811  0.0934
  836MOL0     C12767   5.915   4.805  13.419 -1.5938  0.4467  0.4143
  836MOL0     C12768   6.071   4.806  13.421  0.4175  0.9726  0.0860
  836MOL0     C12769   6.126   4.665  13.436  0.8220 -0.3203 -0.1949
  836MOL0    Cl12770   6.189   4.644  13.591 -0.4008  0.1504 -0.2112
  836MOL0     C12771   5.537   5.588  13.437 -0.0551 -0.0702  0.1158
  836MOL0     C12772   5.404   5.615  13.409  0.1031 -0.4075  0.3484
  836MOL0     O12773   5.143   5.508  13.330 -0.5920 -0.6309 -0.9403
  836MOL0     C12774   4.879   5.521  13.333  0.9513  1.1733 -0.5334
  836MOL0     C12775   4.739   5.537  13.312  0.4051  0.3118  0.7205
  836MOL0     N12776   4.352   6.160  12.993  0.9651  0.6687 -0.7407
  836MOL0     N12777   4.347   6.180  12.867  0.5365  0.5920  0.8064
  836MOL0     C12778   4.752   6.342  11.743 -0.4354 -0.7852 -0.1260
  836MOL0     C12779   4.854   6.389  11.657  0.2105 -0.2303  0.3749
  836MOL0     C12780   5.143   6.334  11.294 -0.3606 -0.3180  0.4371
  836MOL0     C12781   5.210   6.246  11.209 -0.1187 -0.9544  0.1611
  836MOL0     C12782   5.353   6.260  11.205  0.3795  0.4204  0.6612
  836MOL0     C12783   5.431   6.347  11.279  0.9396 -0.3693 -0.4710
  836MOL0     O12784   5.569   6.346  11.293 -1.2310  0.2808  0.1119
  836MOL0     C12785   5.634   6.220  11.291  0.2980 -0.2369 -0.6989
  836MOL0     C12786   5.623   6.159  11.428  0.5178  0.3469  0.3341
  836MOL0     C12787   5.728   6.050  11.463 -1.1384 -0.4808  2.0893
  836MOL0     C12788   5.693   5.977  11.595  0.5126 -0.1800 -0.4192
  836MOL0     C12789   5.728   6.060  11.707 -0.4383  0.1046  0.4843
  836MOL0     C12790   5.736   6.141  11.800 -0.0823  0.3729  0.4104
  836MOL0     C12791   5.363   6.445  11.347 -0.5091 -0.7535  0.5476
  836MOL0     C12792   5.221   6.437  11.356  0.5802  1.0259 -0.1629
  836MOL0     H12793   4.758   6.189  11.384  3.7513  0.6913 -0.8140
  836MOL0     H12794   4.575   6.136  11.543 -0.6111 -0.4021  0.1479
  836MOL0     H12795   4.612   6.245  11.964 -0.7581 -1.0509  0.8668
  836MOL0     H12796   4.493   6.369  11.902 -0.2714 -0.2611 -1.0069
  836MOL0     H12797   4.332   6.193  11.881 -0.1402 -2.8712  1.1472
  836MOL0     H12798   4.421   6.078  11.970 -2.5323 -1.1812 -2.2229
  836MOL0     H12799   4.354   6.352  12.116  1.5432  0.4969 -1.4707
  836MOL0     H12800   4.228   6.241  12.072  0.6745 -0.0474 -3.5962
  836MOL0     H12801   4.339   6.049  12.190 -0.7918 -1.2177  1.9722
  836MOL0     H12802   4.482   6.157  12.201 -0.6377  1.5244  0.4619
  836MOL0     H12803   4.305   6.297  12.341  2.4673  0.9465  0.5380
  836MOL0     H12804   4.233   6.136  12.358  0.0634 -0.9613  2.2400
  836MOL0     H12805   4.466   6.048  12.425 -3.4385 -1.2254  2.0234
  836MOL0     H12806   4.536   6.209  12.423  1.6616 -3.2215 -5.3691
  836MOL0     H12807   4.379   6.300  12.586 -1.7643 -0.4386  2.8779
  836MOL0     H12808   4.309   6.139  12.626  1.3357  0.6595  1.2791
  836MOL0     H12809   4.587   6.262  12.670  1.7839  0.1193  0.2414
  836MOL0     H12810   4.574   6.083  12.671  0.2915  0.3136 -1.7192
  836MOL0     H12811   4.657   6.116  12.919  0.5946  1.6326  3.1393
  836MOL0     H12812   4.634   6.050  13.143 -0.4390 -0.6598 -1.6800
  836MOL0     H12813   4.532   6.162  13.239 -1.0108  1.2008 -0.7964
  836MOL0     H12814   4.422   5.901  13.137 -0.2476 -2.8724  1.9361
  836MOL0     H12815   4.355   6.001  13.256  1.8568 -0.5470 -0.0850
  836MOL0     H12816   4.512   5.924  13.422 -0.9069  3.1735 -0.5576
  836MOL0     H12817   4.637   5.888  13.300  0.2610 -0.2217  1.2448
  836MOL0     H12818   4.497   5.705  13.204 -2.6609 -3.8687  0.8654
  836MOL0     H12819   4.369   5.752  13.316 -0.6606 -1.5446 -2.1027
  836MOL0     H12820   4.686   5.761  13.555 -0.7026 -1.2801  0.5588
  836MOL0     H12821   4.987   5.680  13.691 -1.2524 -0.7201 -0.0351
  836MOL0     H12822   5.019   5.825  13.576 -1.2404 -1.0166 -1.8358
  836MOL0     H12823   4.891   5.810  13.698  0.9253 -2.7674  3.6969
  836MOL0     H12824   5.309   5.591  13.734 -2.3693  0.0240 -2.0922
  836MOL0     H12825   5.547   5.514  13.768  0.3384 -4.2172 -0.1063
  836MOL0     H12826   5.735   5.428  13.385 -1.2643  1.3079  0.7716
  836MOL0     H12827   5.880   5.454  13.478 -0.0229 -0.6079 -5.0000
  836MOL0     H12828   5.837   5.248  13.626  1.9772 -2.7864 -2.7627
  836MOL0     H12829   5.679   5.223  13.570 -0.8919 -0.7577 -0.6205
  836MOL0     H12830   5.867   5.206  13.345  0.3067 -0.8091  0.8679
  836MOL0     H12831   5.706   5.140  13.381 -2.1650 -0.2809  3.3596
  836MOL0     H12832   5.949   5.047  13.517  0.7958 -0.7192 -2.4980
  836MOL0     H12833   5.781   4.990  13.538 -1.4438  1.4363 -0.2110
  836MOL0     H12834   5.925   4.986  13.274  2.0911 -0.5412  1.4424
  836MOL0     H12835   5.770   4.919  13.308  0.3140  1.9560 -2.0943
  836MOL0     H12836   5.880   4.798  13.523 -0.8658  1.0625  0.7157
  836MOL0     H12837   5.876   4.722  13.360 -0.4243  0.3128 -0.2003
  836MOL0     H12838   6.104   4.869  13.504 -1.6426 -1.0099  2.5970
  836MOL0     H12839   6.108   4.853  13.330 -1.9127  1.2806 -0.7487
  836MOL0     H12840   6.204   4.651  13.361  3.3666  4.0669  1.2420
  836MOL0     H12841   6.049   4.588  13.421  2.2954 -1.8102 -0.3575
  836MOL0     H12842   5.596   5.583  13.346 -2.6988 -1.0794 -1.6432
  836MOL0     H12843   5.385   5.635  13.304  1.7760 -2.9164 -0.5257
  836MOL0     H12844   4.917   5.447  13.263 -1.0533 -1.6711  1.1606
  836MOL0     H12845   4.689   5.470  13.243 -0.0161  1.0584  0.2758
  836MOL0     H12846   4.740   6.384  11.842 -4.6750  1.7254 -1.4506
  836MOL0     H12847   4.926   6.462  11.692 -0.5417 -0.6607  2.9963
  836MOL0     H12848   5.158   6.175  11.145 -1.2160  1.7764 -2.2111
  836MOL0     H12849   5.405   6.187  11.144 -2.1757 -1.3265  0.4592
  836MOL0     H12850   5.594   6.157  11.211 -0.3052 -0.3917 -0.2897
  836MOL0     H12851   5.737   6.235  11.258  0.3357  0.2902 -0.3464
  836MOL0     H12852   5.524   6.123  11.456 -0.6771  2.5703 -0.7829
  836MOL0     H12853   5.647   6.248  11.487  0.7139  0.5396 -0.0349
  836MOL0     H12854   5.823   6.104  11.466 -1.2678  0.0907 -0.9093
  836MOL0     H12855   5.730   5.982  11.377 -0.3909  3.2894 -1.1557
  836MOL0     H12856   5.757   5.891  11.615 -0.0647 -0.3831  0.6023
  836MOL0     H12857   5.592   5.937  11.584  1.6200 -2.5693 -3.1226
  836MOL0     H12858   5.767   6.207  11.878  2.0512  0.8752 -0.7849
  836MOL0     H12859   5.418   6.526  11.395 -3.2373  1.9353 -0.5376
  836MOL0     H12860   5.177   6.506  11.427 -1.5277 -1.9535  1.6874
  837MOL0     O12861   1.065   2.770   8.070  0.5072  0.6496 -0.3131
  837MOL0     C12862   1.075   2.891   8.060 -0.2330  0.1810  0.2272
  837MOL0     O12863   1.147   2.973   8.144  0.4160  0.1269 -0.5282
  837MOL0     C12864   1.202   2.908   8.250 -0.0427  0.6910 -0.7023
  837MOL0     C12865   1.145   2.936   8.378  0.2529  0.2381  0.4171
  837MOL0     C12866   1.192   2.877   8.494 -0.0858  0.1199  0.0907
  837MOL0     C12867   1.288   2.781   8.487  1.1393 -0.6415  0.4996
  837MOL0     O12868   1.339   2.708   8.592  0.6310 -0.2814  0.0194
  837MOL0     C12869   1.284   2.701   8.717  0.5929  0.3666 -0.2223
  837MOL0     C12870   1.177   2.595   8.732 -0.4336 -0.6255  0.9902
  837MOL0     C12871   1.229   2.457   8.708  0.3164  0.2788 -0.2320
  837MOL0     C12872   1.110   2.362   8.742 -0.2939 -0.5509 -0.3820
  837MOL0     C12873   1.122   2.224   8.686 -1.2256  0.4175  0.0932
  837MOL0     C12874   1.244   2.139   8.712  0.1213 -0.9952 -0.7203
  837MOL0     C12875   1.217   1.994   8.673  0.2002  0.0735  0.3442
  837MOL0     C12876   1.337   1.901   8.685 -0.0374 -0.2338 -0.7056
  837MOL0     N12877   1.428   1.879   8.570  0.0866 -0.9920 -0.2266
  837MOL0     C12878   1.561   1.918   8.570  0.0304 -0.0173  0.1453
  837MOL0     C12879   1.610   1.873   8.453 -0.0210  0.7127 -0.7521
  837MOL0     C12880   1.759   1.885   8.436  0.5568  0.4887  1.1408
  837MOL0     C12881   1.842   1.775   8.500 -0.5821 -0.4086  0.2663
  837MOL0     C12882   1.815   1.639   8.438 -0.3174  0.0325 -0.2509
  837MOL0     C12883   1.908   1.617   8.303  0.4209  0.6849 -0.0009
  837MOL0     O12884   1.905   1.481   8.255 -0.1874  0.0116 -0.6189
  837MOL0     C12885   1.988   1.392   8.317 -0.0306 -0.3976 -0.6656
  837MOL0     C12886   1.931   1.268   8.335  0.7812  0.3922  0.6082
  837MOL0     C12887   1.987   1.175   8.421  0.7561  0.7907 -0.3715
  837MOL0     C12888   1.909   1.046   8.437 -0.1132  0.0215 -0.4180
  837MOL0     C12889   2.108   1.204   8.481  0.0060  0.0573  0.9538
  837MOL0     C12890   2.181   1.122   8.572 -0.7463 -0.1740  0.4560
  837MOL0     O12891   2.268   1.184   8.656 -0.6130  0.5249  0.4611
  837MOL0     C12892   2.350   1.090   8.721 -0.2221  0.3414 -0.1107
  837MOL0     C12893   2.326   1.037   8.853  0.5406  0.5578 -0.9353
  837MOL0     C12894   2.410   0.943   8.916  0.5641 -0.6823  0.7266
  837MOL0     C12895   2.535   0.919   8.850  0.2394 -0.2827  0.1977
  837MOL0     O12896   2.622   0.835   8.904 -0.8707  0.8449  0.7769
  837MOL0     C12897   2.716   0.892   8.990  0.4863  0.7115 -0.3491
  837MOL0     C12898   2.757   0.783   9.097  0.0345 -1.6349  0.3424
  837MOL0     C12899   2.849   0.851   9.211  1.0953  0.1807 -0.5106
  837MOL0     C12900   2.766   0.951   9.293  0.2605 -0.3063  0.3352
  837MOL0     C12901   2.865   1.023   9.388  0.4015  0.1546 -0.7469
  837MOL0     C12902   2.814   1.112   9.499 -0.4687  1.2847  0.3146
  837MOL0     C12903   2.750   1.239   9.458  0.3445  0.0823  0.7551
  837MOL0     C12904   2.649   1.292   9.558 -0.0614  0.5335 -0.9177
  837MOL0    Cl12905   2.578   1.435   9.500 -0.3803  0.0063 -0.2107
  837MOL0     C12906   2.555   0.968   8.722  1.3641  0.3036  0.0340
  837MOL0     C12907   2.474   1.053   8.660  0.7623  0.1746  0.3034
  837MOL0     O12908   2.170   1.000   8.543  0.3356 -0.6121 -0.0190
  837MOL0     C12909   2.174   1.324   8.451 -0.3725  0.1393 -0.5755
  837MOL0     C12910   2.110   1.415   8.379 -0.5166 -0.6431 -0.1326
  837MOL0     N12911   1.509   1.809   8.383  0.1331 -0.0515  0.4569
  837MOL0     N12912   1.400   1.806   8.456 -0.0045  0.4628 -0.2416
  837MOL0     C12913   1.341   2.744   8.358 -0.3313 -0.0075 -0.3704
  837MOL0     C12914   1.311   2.818   8.241  0.2551 -0.7828  0.1752
  837MOL0     C12915   0.992   2.955   7.956  0.1880  0.4296 -0.7625
  837MOL0     C12916   1.007   2.914   7.829 -0.1224 -0.8270  0.1196
  837MOL0     C12917   0.931   2.955   7.721 -0.2025  0.4827  0.6466
  837MOL0     C12918   0.819   3.045   7.739 -0.7950 -1.0865 -0.2169
  837MOL0     O12919   0.741   3.070   7.626  0.1140 -0.0275 -0.5187
  837MOL0     C12920   0.656   3.188   7.622 -0.5239  0.8456  0.0894
  837MOL0     C12921   0.588   3.200   7.492  0.3585 -0.7197 -1.1394
  837MOL0     C12922   0.691   3.197   7.376  0.5844 -0.0116  0.4947
  837MOL0     C12923   0.621   3.162   7.244 -0.5483 -1.0046  1.1905
  837MOL0     C12924   0.623   3.018   7.218 -0.8913 -0.5410 -0.4048
  837MOL0     C12925   0.589   2.903   7.214  0.8688  0.1625  1.0242
  837MOL0     C12926   0.810   3.097   7.873 -0.7661  0.4910 -0.3032
  837MOL0     C12927   0.894   3.050   7.984  0.0517 -0.5354 -0.2794
  837MOL0     H12928   1.068   3.013   8.379  0.9374  0.9597 -0.4108
  837MOL0     H12929   1.159   2.913   8.591  0.4884  1.5754 -0.2372
  837MOL0     H12930   1.364   2.668   8.784 -0.5633 -2.5615 -0.1204
  837MOL0     H12931   1.237   2.790   8.761  1.4652 -0.2840  2.2000
  837MOL0     H12932   1.151   2.603   8.838  2.3167  1.6683  1.6292
  837MOL0     H12933   1.096   2.616   8.661  2.1514 -0.1002 -2.0070
  837MOL0     H12934   1.252   2.439   8.602 -2.0476 -1.8102 -0.4900
  837MOL0     H12935   1.314   2.430   8.772 -0.3957 -0.6168  0.3632
  837MOL0     H12936   1.116   2.348   8.850  0.8812 -2.7654 -0.6782
  837MOL0     H12937   1.013   2.403   8.710 -0.8075 -2.5670 -1.5675
  837MOL0     H12938   1.038   2.163   8.719  0.2107 -0.3824  2.4847
  837MOL0     H12939   1.105   2.233   8.578  1.0822  1.9046 -0.2107
  837MOL0     H12940   1.336   2.156   8.655  0.7074  1.1429  0.7158
  837MOL0     H12941   1.264   2.135   8.819 -1.9757 -1.9259 -0.3119
  837MOL0     H12942   1.155   1.944   8.748  2.4043 -1.1756  1.4539
  837MOL0     H12943   1.185   1.986   8.569 -0.3864  1.4247  0.4014
  837MOL0     H12944   1.298   1.802   8.710 -0.1967  0.7771  3.8106
  837MOL0     H12945   1.391   1.936   8.774  0.1405  0.9560 -1.2567
  837MOL0     H12946   1.625   1.957   8.649  2.2868 -1.0380 -1.0964
  837MOL0     H12947   1.787   1.880   8.331  1.8018  0.3762  1.4571
  837MOL0     H12948   1.792   1.976   8.486 -1.3271  2.0181 -0.2724
  837MOL0     H12949   1.806   1.764   8.603  1.1476 -0.1437  0.9275
  837MOL0     H12950   1.950   1.790   8.496 -0.2436 -2.7280 -1.3229
  837MOL0     H12951   1.709   1.638   8.411 -0.3853 -0.8004  0.0542
  837MOL0     H12952   1.837   1.562   8.511 -2.1971  1.2400  1.6806
  837MOL0     H12953   2.009   1.655   8.316 -0.3236  2.5832  0.5221
  837MOL0     H12954   1.861   1.689   8.235 -0.7929  2.3364  2.4288
  837MOL0     H12955   1.841   1.239   8.281  2.5116  1.1686 -3.0112
  837MOL0     H12956   1.964   0.964   8.390 -1.4325 -0.5034 -1.1090
  837MOL0     H12957   1.904   1.024   8.544 -0.1125 -0.9925 -0.6104
  837MOL0     H12958   1.809   1.050   8.392  0.3305  0.7930 -1.3635
  837MOL0     H12959   2.240   1.081   8.903 -0.5073  1.3128 -3.2916
  837MOL0     H12960   2.389   0.889   9.007  1.6222 -5.3044 -1.4963
  837MOL0     H12961   2.797   0.905   8.918  0.4075 -0.3527 -0.6392
  837MOL0     H12962   2.696   0.991   9.032  0.8620  0.6551 -0.0365
  837MOL0     H12963   2.667   0.737   9.139  0.1558 -2.3277 -0.1445
  837MOL0     H12964   2.811   0.702   9.048  4.1716  0.9739  0.1644
  837MOL0     H12965   2.938   0.897   9.168  1.4586 -0.2269 -0.2047
  837MOL0     H12966   2.889   0.775   9.279 -0.8818  0.9373  1.6061
  837MOL0     H12967   2.714   1.015   9.222  2.2546 -1.0867 -1.9537
  837MOL0     H12968   2.681   0.906   9.345  0.3273 -2.3864 -1.2635
  837MOL0     H12969   2.925   1.093   9.328 -0.6646 -0.3866 -2.5186
  837MOL0     H12970   2.922   0.946   9.441 -2.7733 -0.6878  1.7709
  837MOL0     H12971   2.735   1.048   9.541  0.6092 -1.8341 -2.0035
  837MOL0     H12972   2.898   1.141   9.563 -0.5540 -1.0756  1.6234
  837MOL0     H12973   2.697   1.217   9.365  0.4129 -4.3566  1.5810
  837MOL0     H12974   2.821   1.321   9.440 -0.0462  0.0166 -1.3823
  837MOL0     H12975   2.699   1.328   9.649  1.5461  0.7703 -1.8649
  837MOL0     H12976   2.569   1.217   9.562  0.5901 -0.1451  0.2664
  837MOL0     H12977   2.648   0.934   8.677  0.5084 -3.5385  0.8529
  837MOL0     H12978   2.491   1.109   8.569 -3.9589  4.8042  1.7523
  837MOL0     H12979   2.273   1.346   8.489 -0.7367 -0.4994  0.8262
  837MOL0     H12980   2.163   1.508   8.357 -1.3035  0.5556  2.5889
  837MOL0     H12981   1.423   2.673   8.355 -0.9055 -0.6547 -1.5774
  837MOL0     H12982   1.350   2.792   8.143 -1.9184  2.5566 -1.7707
  837MOL0     H12983   1.092   2.854   7.799  0.1039 -1.7017  2.3067
  837MOL0     H12984   0.943   2.919   7.620 -1.8276  0.8804  0.2746
  837MOL0     H12985   0.587   3.172   7.705  2.1944 -1.0180  2.1600
  837MOL0     H12986   0.716   3.277   7.643  2.3007 -1.6889  4.1101
  837MOL0     H12987   0.528   3.291   7.492 -2.2523 -2.3299 -1.5569
  837MOL0     H12988   0.513   3.122   7.476 -1.6562  1.2859 -1.9150
  837MOL0     H12989   0.778   3.134   7.398  0.7995 -0.3763 -1.2098
  837MOL0     H12990   0.731   3.299   7.367  0.3915 -0.0065 -0.4357
  837MOL0     H12991   0.675   3.218   7.167 -4.5058 -0.1583 -1.2428
  837MOL0     H12992   0.516   3.189   7.234 -0.0302  0.1604 -2.1141
  837MOL0     H12993   0.543   2.808   7.198  1.2035  0.1583 -0.0094
  837MOL0     H12994   0.733   3.170   7.899 -0.7300  0.2947  0.3846
  837MOL0     H12995   0.882   3.088   8.085  0.6707  3.0304 -1.4110
  838MOL0     O12996   1.372   4.220   3.871 -0.1827  0.3490  0.0371
  838MOL0     C12997   1.264   4.250   3.919 -0.4826 -1.0463  0.3278
  838MOL0     O12998   1.144   4.248   3.856  0.0133 -0.2056 -0.5378
  838MOL0     C12999   1.117   4.140   3.763 -0.0500  0.1662  0.5838
  838MOL0     C13000   1.029   4.168   3.659  0.2423 -0.2536  0.2582
  838MOL0     C13001   0.994   4.057   3.573  1.0382 -0.4474  0.1747
  838MOL0     C13002   1.070   3.939   3.570 -0.3800 -0.0829  0.5006
  838MOL0     O13003   1.037   3.844   3.478  0.0474  0.6609  0.1043
  838MOL0     C13004   1.141   3.792   3.395 -0.4701 -0.0297  0.3689
  838MOL0     C13005   1.085   3.712   3.280  0.3849 -0.2076 -0.3064
  838MOL0     C13006   1.174   3.600   3.246 -0.2221 -0.3121 -0.3470
  838MOL0     C13007   1.125   3.538   3.119 -0.4824  0.7543  1.2448
  838MOL0     C13008   1.238   3.435   3.082 -0.1659  0.2494  0.9851
  838MOL0     C13009   1.193   3.333   2.979  0.1348 -0.4534 -0.2277
  838MOL0     C13010   1.319   3.276   2.921  1.1333  0.1396  0.5761
  838MOL0     C13011   1.373   3.173   3.000 -0.6888  0.1354 -0.7739
  838MOL0     N13012   1.493   3.113   2.929  0.1912 -0.4732 -0.1094
  838MOL0     C13013   1.493   3.013   2.844 -0.4252  0.2136  0.2014
  838MOL0     C13014   1.622   2.982   2.816 -0.4689  0.3278 -0.5743
  838MOL0     C13015   1.661   2.869   2.735 -0.4814 -0.0814 -0.1915
  838MOL0     C13016   1.746   2.897   2.616 -1.0952  0.2133 -0.5517
  838MOL0     C13017   1.749   2.776   2.533 -0.9345  0.4025 -0.6236
  838MOL0     C13018   1.845   2.772   2.414 -0.9578  0.4235  0.2927
  838MOL0     O13019   1.789   2.833   2.303 -0.3532 -0.8460  1.0153
  838MOL0     C13020   1.716   2.759   2.212  1.0259 -0.2878 -0.0774
  838MOL0     C13021   1.692   2.829   2.087  0.7837  0.4271  0.2205
  838MOL0     C13022   1.625   2.752   1.988  0.8811 -0.1531  0.3362
  838MOL0     C13023   1.567   2.846   1.874  0.5116  0.7185  0.7024
  838MOL0     C13024   1.595   2.617   2.002 -0.5151 -0.6471  0.5684
  838MOL0     C13025   1.547   2.521   1.891 -0.0410  1.2382  0.0116
  838MOL0     O13026   1.531   2.387   1.938  0.7280 -0.1879 -0.1072
  838MOL0     C13027   1.465   2.294   1.863  0.3669 -1.6201  0.8247
  838MOL0     C13028   1.541   2.195   1.807  0.3528  0.4017  0.2281
  838MOL0     C13029   1.483   2.089   1.736  1.1055 -0.0581 -0.0376
  838MOL0     C13030   1.342   2.077   1.727  0.1485 -0.9429 -0.1776
  838MOL0     O13031   1.293   1.974   1.650  0.4117 -0.2844 -0.8720
  838MOL0     C13032   1.146   1.950   1.633 -0.1237 -0.9020 -0.4193
  838MOL0     C13033   1.080   1.861   1.738 -1.1955 -0.4899 -0.7205
  838MOL0     C13034   1.149   1.727   1.750 -0.4028  0.2524  0.4003
  838MOL0     C13035   1.105   1.640   1.865 -0.2794  0.7727  0.5573
  838MOL0     C13036   1.193   1.523   1.866  0.6567  0.4926 -0.6200
  838MOL0     C13037   1.149   1.407   1.958  0.3644 -0.7341  0.1272
  838MOL0     C13038   1.228   1.287   1.919  0.7133 -0.2651  0.2818
  838MOL0     C13039   1.384   1.291   1.946 -0.1064  0.4902  0.6172
  838MOL0    Cl13040   1.474   1.311   1.781 -0.0410  0.0960 -0.1795
  838MOL0     C13041   1.265   2.173   1.803 -0.2591 -1.1107  0.3318
  838MOL0     C13042   1.328   2.287   1.860 -0.0840  0.4132  0.2787
  838MOL0     O13043   1.551   2.550   1.770  0.4720 -0.3595  0.0884
  838MOL0     C13044   1.636   2.556   2.126 -0.2765  0.6440  0.2787
  838MOL0     C13045   1.682   2.629   2.228 -0.0782  0.0508  0.4815
  838MOL0     N13046   1.708   3.075   2.882 -0.3790 -0.2495  0.0689
  838MOL0     N13047   1.624   3.154   2.945 -0.3188  0.3614 -0.0278
  838MOL0     C13048   1.154   3.913   3.675 -0.1112  0.6007 -0.0159
  838MOL0     C13049   1.183   4.008   3.767  0.0853 -0.2987  0.1249
  838MOL0     C13050   1.275   4.309   4.053 -0.2932 -1.0361  0.0468
  838MOL0     C13051   1.394   4.383   4.097  0.3229  0.0275  0.5626
  838MOL0     C13052   1.377   4.453   4.217 -0.0108 -0.6792  0.0941
  838MOL0     C13053   1.270   4.466   4.294  0.8551 -0.2768  1.5396
  838MOL0     O13054   1.292   4.546   4.400  0.0557 -0.8345 -0.5049
  838MOL0     C13055   1.187   4.551   4.493  0.7829 -0.6479  0.1707
  838MOL0     C13056   1.224   4.652   4.598 -0.3293 -0.0003  1.0833
  838MOL0     C13057   1.108   4.651   4.702  0.0746  0.2386  0.8100
  838MOL0     C13058   1.100   4.771   4.786  0.5990  0.5200  0.0309
  838MOL0     C13059   1.218   4.758   4.874  0.2564 -0.7869  0.1136
  838MOL0     C13060   1.322   4.770   4.932  0.5721 -0.6133  0.9880
  838MOL0     C13061   1.157   4.399   4.255  0.4491  0.0862  1.5182
  838MOL0     C13062   1.158   4.317   4.129  0.3455  1.3317  0.3497
  838MOL0     H13063   0.982   4.266   3.659 -2.8738 -1.5822 -1.4656
  838MOL0     H13064   0.921   4.063   3.493  2.4902 -0.7157 -1.2198
  838MOL0     H13065   1.199   3.876   3.357  4.5864 -2.0913  2.6398
  838MOL0     H13066   1.220   3.730   3.438  1.0117  1.2437 -0.4299
  838MOL0     H13067   0.983   3.678   3.297 -1.2723  2.8497 -2.9790
  838MOL0     H13068   1.076   3.794   3.207 -2.7325 -1.9471 -2.0650
  838MOL0     H13069   1.267   3.647   3.212 -0.9911  0.1787 -1.8691
  838MOL0     H13070   1.192   3.543   3.337  0.2750  0.5815  0.1199
  838MOL0     H13071   1.037   3.479   3.147 -0.5653  0.0310 -0.3893
  838MOL0     H13072   1.118   3.610   3.037  4.0757  1.1213  0.9159
  838MOL0     H13073   1.337   3.480   3.067  0.1638 -0.6518  0.4008
  838MOL0     H13074   1.262   3.374   3.169  0.8223 -1.5756 -0.5030
  838MOL0     H13075   1.124   3.254   3.010 -0.2717 -0.6054 -1.4524
  838MOL0     H13076   1.143   3.406   2.913  0.8738 -0.0931 -0.3969
  838MOL0     H13077   1.301   3.238   2.820  3.3317  1.1523 -0.2585
  838MOL0     H13078   1.390   3.359   2.912  0.2294  1.4728  4.0855
  838MOL0     H13079   1.286   3.109   3.017  0.9340 -1.6008  1.7991
  838MOL0     H13080   1.407   3.200   3.101  2.2915 -0.8397 -1.4152
  838MOL0     H13081   1.410   2.955   2.805  0.2193 -0.3537 -0.3401
  838MOL0     H13082   1.703   2.787   2.794  2.4601  0.6398 -1.1276
  838MOL0     H13083   1.566   2.832   2.695 -0.0883  0.1544 -1.3916
  838MOL0     H13084   1.843   2.936   2.651 -1.0967 -1.1726  1.1309
  838MOL0     H13085   1.686   2.968   2.559 -3.5255 -0.8124  0.6223
  838MOL0     H13086   1.649   2.752   2.496  0.1957 -3.1298 -1.7243
  838MOL0     H13087   1.782   2.701   2.606  2.1470  4.0699  2.1932
  838MOL0     H13088   1.880   2.674   2.381  0.8688  0.8828  0.7302
  838MOL0     H13089   1.940   2.808   2.455 -1.5186  0.0974  1.9765
  838MOL0     H13090   1.712   2.935   2.075 -0.0685  0.6750  0.8941
  838MOL0     H13091   1.462   2.868   1.895 -0.1735 -0.3461 -1.2589
  838MOL0     H13092   1.619   2.942   1.868 -0.4024  1.4403  3.2412
  838MOL0     H13093   1.559   2.795   1.777 -3.3497  0.6759  0.8685
  838MOL0     H13094   1.648   2.202   1.817  0.4639  1.0125 -1.1303
  838MOL0     H13095   1.545   2.024   1.675 -0.4177 -1.1293 -0.5106
  838MOL0     H13096   1.105   2.049   1.611 -1.0433 -1.6199 -2.1215
  838MOL0     H13097   1.134   1.897   1.538  1.5881  0.4181 -1.4278
  838MOL0     H13098   1.094   1.912   1.834  0.4084  2.9361 -2.5764
  838MOL0     H13099   0.976   1.838   1.717 -0.4393 -3.3548 -1.7132
  838MOL0     H13100   1.256   1.743   1.763 -0.8978  1.5310  4.3874
  838MOL0     H13101   1.127   1.671   1.658 -0.2127  0.9348 -0.0647
  838MOL0     H13102   1.104   1.702   1.956 -1.3261  0.6895  0.6130
  838MOL0     H13103   1.002   1.610   1.842  0.6454 -1.0029 -1.6508
  838MOL0     H13104   1.289   1.571   1.889 -0.7607  2.5094  1.6414
  838MOL0     H13105   1.199   1.479   1.766  0.3789 -1.9386  0.3699
  838MOL0     H13106   1.157   1.426   2.065  1.9852 -1.3545  0.1464
  838MOL0     H13107   1.046   1.382   1.933  0.1657  0.6328 -0.5424
  838MOL0     H13108   1.196   1.261   1.818  1.1737  1.1638 -0.2493
  838MOL0     H13109   1.179   1.204   1.971 -2.9798  1.6758  0.2741
  838MOL0     H13110   1.414   1.195   1.990 -1.5968 -0.6485 -0.7059
  838MOL0     H13111   1.410   1.372   2.014 -0.8578  1.2346  0.0220
  838MOL0     H13112   1.157   2.162   1.803 -0.2580 -1.2423 -0.6578
  838MOL0     H13113   1.279   2.367   1.915  2.1829  1.5294  0.7844
  838MOL0     H13114   1.615   2.452   2.151 -0.1361  0.2208 -1.2636
  838MOL0     H13115   1.688   2.583   2.326 -1.3431 -2.6831 -0.6503
  838MOL0     H13116   1.211   3.821   3.679  1.1001  1.3424  0.4409
  838MOL0     H13117   1.262   3.983   3.837  2.0012  1.1653 -1.3889
  838MOL0     H13118   1.480   4.384   4.031 -0.7327 -1.9646 -0.9762
  838MOL0     H13119   1.471   4.494   4.252  0.6636 -3.5619  1.9814
  838MOL0     H13120   1.094   4.584   4.444  2.6125  2.6254 -1.4531
  838MOL0     H13121   1.166   4.449   4.526  0.3156 -1.6804 -2.9113
  838MOL0     H13122   1.224   4.751   4.552  1.7749 -0.1626  0.6483
  838MOL0     H13123   1.318   4.627   4.647  0.3068 -0.3477 -0.2473
  838MOL0     H13124   1.114   4.569   4.773 -0.1859  2.4886  3.6100
  838MOL0     H13125   1.014   4.654   4.646 -0.1042  0.9037  1.1315
  838MOL0     H13126   0.999   4.781   4.827  0.3923 -0.7976 -0.1326
  838MOL0     H13127   1.098   4.857   4.718 -1.9472  2.1109  1.9176
  838MOL0     H13128   1.401   4.800   4.997  0.0557  0.0529  1.3178
  838MOL0     H13129   1.070   4.403   4.320  0.9665  1.0557  2.1678
  838MOL0     H13130   1.069   4.269   4.091  1.0286  1.1416 -1.0727
  839MOL0     O13131   5.942   2.208  10.350  0.0502 -0.9306 -0.0851
  839MOL0     C13132   6.019   2.296  10.383 -0.0953  0.3855  0.4854
  839MOL0     O13133   6.068   2.302  10.504 -0.3540  0.1932  1.0419
  839MOL0     C13134   6.026   2.210  10.595 -0.7844 -0.1785 -0.0180
  839MOL0     C13135   6.065   2.071  10.577  0.7800 -0.5773 -0.0335
  839MOL0     C13136   6.007   1.971  10.654 -0.0843 -0.9325  0.4844
  839MOL0     C13137   5.920   2.011  10.760 -0.5575  0.1380  0.1024
  839MOL0     O13138   5.863   1.916  10.847  0.0263  1.0751  0.4943
  839MOL0     C13139   5.834   1.781  10.801  0.3399 -0.9502 -0.0303
  839MOL0     C13140   5.935   1.694  10.876  0.0304 -0.7786  0.5561
  839MOL0     C13141   6.046   1.650  10.773  0.5873 -0.2738  0.6363
  839MOL0     C13142   6.105   1.514  10.818 -0.5845 -0.8229  0.8403
  839MOL0     C13143   6.158   1.427  10.704  0.8495  0.1492  1.0999
  839MOL0     C13144   6.275   1.348  10.755  0.2676  0.4316 -0.3878
  839MOL0     C13145   6.319   1.251  10.652 -0.1781  1.0434 -0.2447
  839MOL0     C13146   6.462   1.196  10.682  0.7219  0.2820  0.8507
  839MOL0     N13147   6.480   1.070  10.613 -0.0094  0.3434 -0.3865
  839MOL0     C13148   6.530   1.042  10.499 -0.5831 -0.1658  0.5883
  839MOL0     C13149   6.507   0.907  10.480  1.4433  0.0915  0.2612
  839MOL0     C13150   6.524   0.829  10.361 -0.2998 -0.1629  1.0561
  839MOL0     C13151   6.442   0.698  10.367 -1.1339 -0.3891  0.7930
  839MOL0     C13152   6.294   0.708  10.321 -0.4431 -0.0844  0.2738
  839MOL0     C13153   6.208   0.588  10.379 -0.9964  0.0479 -0.8020
  839MOL0     O13154   6.195   0.496  10.273  0.0012  0.5094  0.5485
  839MOL0     C13155   6.285   0.393  10.239  0.8002  0.4363  0.1348
  839MOL0     C13156   6.275   0.350  10.109 -0.7631  0.2228  0.7304
  839MOL0     C13157   6.371   0.264  10.054 -0.3177  1.1127 -0.0190
  839MOL0     C13158   6.346   0.222   9.910 -0.2589 -0.6306 -0.0884
  839MOL0     C13159   6.471   0.211  10.139  0.2365  1.0672  1.0500
  839MOL0     C13160   6.583   0.127  10.096 -0.0516  0.8708 -0.0607
  839MOL0     O13161   6.688   0.117  10.194  0.1661 -0.3770  0.2531
  839MOL0     C13162   6.794   0.037  10.171 -0.3305 -0.3952  0.9696
  839MOL0     C13163   6.790  -0.096  10.214  0.1704 -0.3009  0.1552
  839MOL0     C13164   6.905  -0.172  10.199  0.4455  0.0030  0.0376
  839MOL0     C13165   7.023  -0.129  10.143  0.2007 -0.6744  0.5593
  839MOL0     O13166   7.139  -0.210  10.120  0.9718  0.1125  0.2546
  839MOL0     C13167   7.123  -0.343  10.074  0.9536 -0.1355  0.1782
  839MOL0     C13168   7.147  -0.431  10.191  1.1111  0.0039  0.4751
  839MOL0     C13169   7.243  -0.550  10.153  0.6745 -0.0735  0.5633
  839MOL0     C13170   7.276  -0.659  10.262 -0.1119 -0.9274  1.2098
  839MOL0     C13171   7.302  -0.798  10.199  0.1231 -0.0326  1.3711
  839MOL0     C13172   7.408  -0.786  10.090  0.2953 -1.2762  0.5932
  839MOL0     C13173   7.439  -0.930  10.050 -0.5216  0.4367 -1.1022
  839MOL0     C13174   7.519  -0.921   9.926  0.1389 -1.0578  0.2857
  839MOL0    Cl13175   7.526  -1.070   9.837  0.0841 -0.1499 -0.3015
  839MOL0     C13176   7.034   0.005  10.108 -0.0200  0.5070  0.4250
  839MOL0     C13177   6.918   0.084  10.111 -0.7724 -0.1110 -0.0423
  839MOL0     O13178   6.575   0.055   9.993  0.1028  0.1939 -0.1774
  839MOL0     C13179   6.471   0.251  10.272 -0.7550 -0.0564  0.2537
  839MOL0     C13180   6.382   0.340  10.323 -0.1354 -0.6810  0.3236
  839MOL0     N13181   6.442   0.864  10.606  0.0736  0.5903  1.2397
  839MOL0     N13182   6.424   0.962  10.685  0.4748 -0.3253  0.7497
  839MOL0     C13183   5.907   2.148  10.788  0.7171 -0.3662  0.2397
  839MOL0     C13184   5.964   2.247  10.704  0.3819  0.0964  0.6389
  839MOL0     C13185   6.057   2.400  10.283  0.6364  1.3778  0.0290
  839MOL0     C13186   5.986   2.391  10.156  0.0191  0.0886 -0.7295
  839MOL0     C13187   6.002   2.503  10.068 -0.2056  0.0319 -1.0885
  839MOL0     C13188   6.063   2.623  10.111 -0.3895  0.4825  0.1982
  839MOL0     O13189   6.064   2.722  10.022 -0.2367  0.0933 -0.3029
  839MOL0     C13190   6.167   2.709   9.920 -0.6826 -0.1443 -0.9604
  839MOL0     C13191   6.300   2.723   9.986 -1.0158  0.6032  0.7180
  839MOL0     C13192   6.329   2.864  10.042 -0.6581 -1.2489 -0.9974
  839MOL0     C13193   6.458   2.868  10.137 -0.9059  0.0698 -0.3148
  839MOL0     C13194   6.582   2.861  10.057 -0.1928 -1.2019  0.0481
  839MOL0     C13195   6.672   2.859   9.975  0.0763  0.2592  0.5250
  839MOL0     C13196   6.120   2.634  10.233  0.0986 -0.2401  0.2559
  839MOL0     C13197   6.130   2.515  10.312 -0.0921 -0.5619  0.4414
  839MOL0     H13198   6.119   2.062  10.483 -1.5006  0.9209 -1.6043
  839MOL0     H13199   6.034   1.870  10.625  0.8814 -1.2356  2.3057
  839MOL0     H13200   5.734   1.757  10.839  0.5139  0.9108  1.8077
  839MOL0     H13201   5.837   1.775  10.692  1.9636  1.2693 -0.1730
  839MOL0     H13202   5.978   1.723  10.972 -0.1929 -0.2421  0.4949
  839MOL0     H13203   5.872   1.608  10.900 -3.6473  1.7544  0.8190
  839MOL0     H13204   6.014   1.644  10.669 -1.2818 -4.4071  1.2137
  839MOL0     H13205   6.123   1.726  10.780  1.0786 -0.5585 -1.1435
  839MOL0     H13206   6.192   1.539  10.879  1.5577 -0.2800 -2.2098
  839MOL0     H13207   6.030   1.449  10.864 -1.0811 -1.4472 -0.7786
  839MOL0     H13208   6.082   1.367  10.653  2.8056  0.4030 -2.3682
  839MOL0     H13209   6.195   1.495  10.627 -2.7648  0.6326 -0.4486
  839MOL0     H13210   6.354   1.415  10.791 -2.0652  3.0365  0.1825
  839MOL0     H13211   6.251   1.284  10.841  1.4500 -2.2584 -1.9085
  839MOL0     H13212   6.244   1.171  10.654  0.0623  0.7560 -1.8144
  839MOL0     H13213   6.314   1.281  10.547  2.8912 -1.2790 -1.1678
  839MOL0     H13214   6.476   1.169  10.787 -3.1786  0.8910  1.6639
  839MOL0     H13215   6.550   1.258  10.665 -0.2505  1.6285  0.5537
  839MOL0     H13216   6.574   1.119  10.437 -0.4818 -0.1038  0.7355
  839MOL0     H13217   6.495   0.872  10.264  1.1346 -0.6193  0.3974
  839MOL0     H13218   6.629   0.800  10.354 -0.7085 -1.4376 -0.3431
  839MOL0     H13219   6.457   0.635  10.455  1.4264 -3.5169 -1.6177
  839MOL0     H13220   6.486   0.634  10.290 -2.5463 -0.8857  0.3589
  839MOL0     H13221   6.289   0.709  10.212  1.7255  0.1635  0.1417
  839MOL0     H13222   6.244   0.792  10.369 -1.8502 -0.3129 -0.7349
  839MOL0     H13223   6.109   0.629  10.398 -0.9592  0.0591 -0.6302
  839MOL0     H13224   6.249   0.536  10.466  4.3270  2.4967 -1.4567
  839MOL0     H13225   6.206   0.392  10.037  0.8919 -1.9067 -2.3609
  839MOL0     H13226   6.294   0.300   9.853 -0.8343  0.6313  2.0683
  839MOL0     H13227   6.438   0.197   9.856 -0.5263  2.6990 -2.4199
  839MOL0     H13228   6.275   0.139   9.919  0.5367 -2.1859 -5.0469
  839MOL0     H13229   6.703  -0.139  10.264  2.2641 -1.6297  2.9346
  839MOL0     H13230   6.895  -0.277  10.223  2.9265 -0.4577 -0.7225
  839MOL0     H13231   7.019  -0.355  10.042  0.6689  2.7864 -0.2147
  839MOL0     H13232   7.198  -0.365   9.997  1.2540 -0.3267  0.5168
  839MOL0     H13233   7.208  -0.376  10.263 -1.8334 -0.8776  3.9498
  839MOL0     H13234   7.052  -0.457  10.238 -2.0450  0.3643 -4.9183
  839MOL0     H13235   7.338  -0.509  10.116  0.3120  0.4841  0.2448
  839MOL0     H13236   7.188  -0.604  10.075 -1.9064  0.0063  2.2209
  839MOL0     H13237   7.362  -0.640  10.326  3.1140  0.0122 -2.9765
  839MOL0     H13238   7.183  -0.658  10.320 -0.7137  0.5104  0.2937
  839MOL0     H13239   7.201  -0.830  10.171 -0.3290  1.4646  1.1872
  839MOL0     H13240   7.334  -0.871  10.274  2.1574 -1.3794 -0.6944
  839MOL0     H13241   7.356  -0.734  10.009  1.0429  0.1814  1.0184
  839MOL0     H13242   7.499  -0.733  10.120 -0.9643  0.7466  1.0266
  839MOL0     H13243   7.343  -0.979  10.033 -2.4486  2.7953  1.8209
  839MOL0     H13244   7.495  -0.986  10.126 -0.8175  1.4467 -0.1166
  839MOL0     H13245   7.621  -0.888   9.947  0.0057 -0.4780  0.0408
  839MOL0     H13246   7.473  -0.856   9.851  1.3568 -1.6181 -0.9877
  839MOL0     H13247   7.130   0.043  10.075  1.8952 -2.2972  2.2159
  839MOL0     H13248   6.939   0.179  10.064 -0.2166 -0.6680 -0.9502
  839MOL0     H13249   6.538   0.213  10.348 -0.5701  2.4069  1.4109
  839MOL0     H13250   6.388   0.364  10.429 -0.4748 -0.8834  0.3909
  839MOL0     H13251   5.856   2.171  10.881 -0.5631 -2.1931  0.0443
  839MOL0     H13252   5.941   2.352  10.721 -4.7456 -0.6868  0.0678
  839MOL0     H13253   5.936   2.295  10.143  1.0149 -1.0678  2.7659
  839MOL0     H13254   5.972   2.493   9.964 -0.5078 -1.0606 -0.9178
  839MOL0     H13255   6.157   2.610   9.875  2.3733 -0.9966 -0.0387
  839MOL0     H13256   6.142   2.776   9.837 -0.8765  0.4634 -0.4171
  839MOL0     H13257   6.377   2.690   9.915 -1.5372 -0.4215  0.6166
  839MOL0     H13258   6.306   2.646  10.063 -0.7162  0.7357  0.8304
  839MOL0     H13259   6.247   2.895  10.108 -0.2960 -2.0262 -0.1623
  839MOL0     H13260   6.345   2.938   9.964 -1.8510  1.1198  0.8535
  839MOL0     H13261   6.463   2.781  10.204 -1.0214 -0.1683 -0.6112
  839MOL0     H13262   6.454   2.962  10.192 -0.0431 -0.6567  1.0575
  839MOL0     H13263   6.749   2.871   9.902 -1.4827 -0.8617 -1.4330
  839MOL0     H13264   6.179   2.723  10.252 -0.1602 -0.7455  4.2638
  839MOL0     H13265   6.180   2.521  10.408 -2.3841 -1.9265  1.7992
  840MOL0     O13266   1.962   4.744   1.174 -0.0678 -0.2969  0.5364
  840MOL0     C13267   1.878   4.757   1.260  0.4467 -1.1783  0.0646
  840MOL0     O13268   1.865   4.680   1.376  0.4304 -0.3213  0.2411
  840MOL0     C13269   1.965   4.598   1.412  0.5352  0.2769  1.5017
  840MOL0     C13270   1.995   4.476   1.347  0.7928  0.3412  0.3447
  840MOL0     C13271   2.097   4.392   1.403  1.1563  0.2026  0.6002
  840MOL0     C13272   2.167   4.437   1.516 -0.2606  0.3300 -0.4986
  840MOL0     O13273   2.275   4.361   1.562 -1.5202 -0.2851 -0.1343
  840MOL0     C13274   2.405   4.423   1.595  0.2645 -0.1325 -0.3564
  840MOL0     C13275   2.470   4.475   1.468 -0.5185  0.2224  0.7360
  840MOL0     C13276   2.618   4.510   1.485 -0.6125  0.2738 -0.5871
  840MOL0     C13277   2.690   4.595   1.369 -0.3285  0.5028 -0.2534
  840MOL0     C13278   2.835   4.547   1.340 -0.5358  0.4030 -0.8895
  840MOL0     C13279   2.937   4.585   1.438 -0.1213 -0.3708  0.1003
  840MOL0     C13280   2.964   4.496   1.568 -0.7839  0.7774 -0.0425
  840MOL0     C13281   3.066   4.558   1.654 -0.7440 -0.5164  0.3130
  840MOL0     N13282   3.195   4.555   1.576  0.4389  0.0298 -0.1525
  840MOL0     C13283   3.257   4.441   1.519  0.6708 -0.2523 -0.3884
  840MOL0     C13284   3.360   4.482   1.446  0.3017 -0.8169  0.9865
  840MOL0     C13285   3.448   4.397   1.352  0.1955  0.1475 -0.4392
  840MOL0     C13286   3.589   4.438   1.349 -0.3926 -0.4622  1.0790
  840MOL0     C13287   3.683   4.359   1.263 -0.1036 -0.3793 -0.0897
  840MOL0     C13288   3.651   4.403   1.123 -1.0534  0.6867 -0.5509
  840MOL0     O13289   3.752   4.344   1.046  0.3949  0.6738 -0.0072
  840MOL0     C13290   3.769   4.406   0.926 -0.4050  0.1933  0.1220
  840MOL0     C13291   3.825   4.534   0.923  0.7712  0.1431 -1.2782
  840MOL0     C13292   3.838   4.600   0.806  0.3971 -0.1996  0.0154
  840MOL0     C13293   3.918   4.724   0.813  0.0118  0.1268  0.8688
  840MOL0     C13294   3.793   4.539   0.691  0.7737 -0.0283  0.5918
  840MOL0     C13295   3.789   4.612   0.563 -0.0287 -0.4105  0.7076
  840MOL0     O13296   3.745   4.738   0.538  0.2683 -0.4260  0.1935
  840MOL0     C13297   3.659   4.809   0.619 -0.9227 -0.7161  0.1010
  840MOL0     C13298   3.695   4.947   0.630 -0.1914 -1.2904  0.1661
  840MOL0     C13299   3.606   5.036   0.687 -0.1550 -0.3953  0.5656
  840MOL0     C13300   3.484   4.989   0.754 -0.0424  0.0925  0.4210
  840MOL0     O13301   3.395   5.088   0.800 -0.8786  0.6635  0.4230
  840MOL0     C13302   3.319   5.056   0.915  0.3208 -0.4650 -0.1484
  840MOL0     C13303   3.249   5.179   0.957  0.0301  0.1706 -0.1659
  840MOL0     C13304   3.180   5.237   0.835 -0.2418  0.2610 -0.3002
  840MOL0     C13305   3.057   5.319   0.885 -0.4688  0.4983 -0.7773
  840MOL0     C13306   2.984   5.375   0.766 -0.4050  0.7192 -0.3705
  840MOL0     C13307   3.072   5.471   0.686 -0.4946  0.2445 -0.1232
  840MOL0     C13308   2.989   5.581   0.603  0.7505  0.6591  0.2848
  840MOL0     C13309   3.071   5.712   0.583 -0.6817 -0.5880 -0.1620
  840MOL0    Cl13310   3.195   5.667   0.461 -0.1190  0.2340 -0.0861
  840MOL0     C13311   3.457   4.846   0.748 -0.3779 -0.4147  0.7241
  840MOL0     C13312   3.536   4.768   0.669  0.2908  0.2452  0.3661
  840MOL0     O13313   3.838   4.540   0.475 -0.3162 -0.3286 -0.3389
  840MOL0     C13314   3.729   4.414   0.691 -0.5008 -0.5916  0.7647
  840MOL0     C13315   3.727   4.346   0.810  0.0371 -0.6663  0.3890
  840MOL0     N13316   3.355   4.627   1.447 -0.7042 -0.6613 -0.3304
  840MOL0     N13317   3.256   4.659   1.516 -0.1767  0.6209 -0.3050
  840MOL0     C13318   2.127   4.554   1.582 -0.2202  0.0365 -0.1626
  840MOL0     C13319   2.042   4.632   1.520 -0.2055 -0.4539 -0.0320
  840MOL0     C13320   1.781   4.867   1.249 -0.7854  1.1659 -0.3150
  840MOL0     C13321   1.651   4.872   1.308 -1.1488  0.3122 -0.2623
  840MOL0     C13322   1.563   4.972   1.290 -0.0872 -0.4175  0.7164
  840MOL0     C13323   1.602   5.076   1.202 -0.3761  0.2130 -0.6484
  840MOL0     O13324   1.510   5.175   1.166  0.5306  0.8639  0.0477
  840MOL0     C13325   1.487   5.264   1.281 -0.1932  0.0567 -0.3476
  840MOL0     C13326   1.342   5.318   1.282  0.1553 -0.5928  0.8190
  840MOL0     C13327   1.307   5.395   1.158  0.1826  1.2939 -0.1280
  840MOL0     C13328   1.168   5.462   1.172  0.0631 -0.3916 -0.0323
  840MOL0     C13329   1.167   5.569   1.266  0.0676 -0.3706 -0.1139
  840MOL0     C13330   1.145   5.645   1.356  0.8010 -0.1898 -0.3361
  840MOL0     C13331   1.729   5.087   1.146  0.0255 -0.4271  0.2877
  840MOL0     C13332   1.814   4.982   1.167  0.0459 -0.1379 -0.4565
  840MOL0     H13333   1.933   4.438   1.267 -0.1694 -0.2671  1.3581
  840MOL0     H13334   2.132   4.300   1.358 -0.0840  0.1699 -0.3817
  840MOL0     H13335   2.396   4.479   1.689 -0.6254 -2.1201  0.8038
  840MOL0     H13336   2.458   4.331   1.621 -0.7942 -0.2447  1.5749
  840MOL0     H13337   2.454   4.397   1.393 -0.4990 -0.2874  1.2595
  840MOL0     H13338   2.419   4.568   1.440  2.0835  1.3139 -0.7445
  840MOL0     H13339   2.638   4.554   1.583  1.9659 -1.8918 -0.0227
  840MOL0     H13340   2.666   4.414   1.505 -0.9698  0.6012  2.3502
  840MOL0     H13341   2.639   4.579   1.274  3.9671 -0.9640 -2.6028
  840MOL0     H13342   2.684   4.704   1.378 -2.2560  0.6084 -2.2188
  840MOL0     H13343   2.838   4.440   1.319  0.7926  0.2391  0.0270
  840MOL0     H13344   2.857   4.598   1.245 -0.0120  2.1634  0.1312
  840MOL0     H13345   3.033   4.585   1.386  0.7918 -3.1275  1.5655
  840MOL0     H13346   2.917   4.687   1.472 -0.8416  0.2814 -2.1017
  840MOL0     H13347   2.872   4.484   1.625 -0.2863  2.1106  1.1084
  840MOL0     H13348   2.983   4.391   1.545 -0.5974  0.6734  0.5696
  840MOL0     H13349   3.090   4.488   1.735  0.4586  1.0630  1.3783
  840MOL0     H13350   3.042   4.662   1.679  0.8137 -0.7245  3.0598
  840MOL0     H13351   3.223   4.343   1.550 -0.3102  0.0056 -0.6005
  840MOL0     H13352   3.456   4.290   1.377  3.4966  0.3636 -0.0860
  840MOL0     H13353   3.410   4.404   1.250 -0.8608  0.2016 -0.0538
  840MOL0     H13354   3.637   4.433   1.447 -1.1827  0.5376  1.5336
  840MOL0     H13355   3.589   4.541   1.314  0.5137 -0.5392  0.8125
  840MOL0     H13356   3.675   4.252   1.286 -1.5654 -0.9609 -2.8764
  840MOL0     H13357   3.787   4.386   1.286  0.0462 -2.2010  1.6491
  840MOL0     H13358   3.646   4.510   1.104  2.5587  1.4166  1.6448
  840MOL0     H13359   3.554   4.368   1.084 -0.5950  0.5344 -1.6020
  840MOL0     H13360   3.858   4.573   1.019 -1.3677 -3.5647  1.2447
  840MOL0     H13361   4.009   4.719   0.753  0.7317 -0.4892  1.9824
  840MOL0     H13362   3.870   4.819   0.790  2.2417  0.7737 -1.6236
  840MOL0     H13363   3.958   4.738   0.914  2.1189 -0.0079  0.0948
  840MOL0     H13364   3.791   4.981   0.591 -0.8097 -0.9941 -1.1647
  840MOL0     H13365   3.616   5.144   0.682 -3.7927  0.0290 -0.3075
  840MOL0     H13366   3.239   4.984   0.894 -0.1469  0.0296 -0.0735
  840MOL0     H13367   3.376   5.017   1.001 -1.7107  1.9603  2.4737
  840MOL0     H13368   3.174   5.147   1.031 -0.0843 -3.2741 -1.5913
  840MOL0     H13369   3.316   5.252   1.002  0.5040  0.7817 -1.8336
  840MOL0     H13370   3.143   5.159   0.768 -0.2545 -0.0671  0.0879
  840MOL0     H13371   3.251   5.291   0.771 -0.5677  1.1835  0.0895
  840MOL0     H13372   2.998   5.258   0.953  0.4087  0.6683  0.1700
  840MOL0     H13373   3.082   5.394   0.961 -1.0282 -3.3459  3.6514
  840MOL0     H13374   2.905   5.437   0.808  0.0516  1.4504 -0.5787
  840MOL0     H13375   2.935   5.303   0.699 -2.7606  1.8256  0.0431
  840MOL0     H13376   3.142   5.514   0.758 -0.9537 -1.3245  1.3154
  840MOL0     H13377   3.127   5.413   0.611  0.7633 -0.9697  1.6621
  840MOL0     H13378   2.907   5.598   0.674  1.3227 -1.8697  1.6696
  840MOL0     H13379   2.959   5.552   0.502 -2.3818  0.2562  1.2253
  840MOL0     H13380   3.118   5.744   0.677  0.2661  0.0104 -0.8296
  840MOL0     H13381   3.010   5.798   0.554 -1.4088 -0.3123  1.9821
  840MOL0     H13382   3.370   4.805   0.797 -0.6738  2.9352  3.4250
  840MOL0     H13383   3.490   4.672   0.649 -1.5501  0.7016  2.1483
  840MOL0     H13384   3.685   4.363   0.605 -0.4338  0.5211  0.0440
  840MOL0     H13385   3.680   4.250   0.827 -1.3744  0.1275  1.1790
  840MOL0     H13386   2.173   4.586   1.675 -0.2721 -0.0728 -0.0997
  840MOL0     H13387   2.031   4.731   1.563  1.8501 -0.5973  0.9700
  840MOL0     H13388   1.625   4.794   1.379  1.9967 -0.3928  0.2386
  840MOL0     H13389   1.461   4.973   1.326 -0.9781  5.6427 -0.8648
  840MOL0     H13390   1.524   5.217   1.373  2.8283 -0.6062 -1.7814
  840MOL0     H13391   1.562   5.343   1.272  0.0329 -0.2469 -1.1861
  840MOL0     H13392   1.318   5.382   1.368 -1.0618  2.3520 -1.5101
  840MOL0     H13393   1.272   5.234   1.283  0.3544 -0.7564  0.6400
  840MOL0     H13394   1.310   5.327   1.072  3.0099 -0.8201  1.4563
  840MOL0     H13395   1.385   5.470   1.141  2.5426 -0.3336  2.5571
  840MOL0     H13396   1.089   5.387   1.187  0.6433 -1.0267 -0.0530
  840MOL0     H13397   1.146   5.519   1.082  3.6406  1.0921 -0.1519
  840MOL0     H13398   1.120   5.714   1.434  2.6452 -1.4737  1.4932
  840MOL0     H13399   1.754   5.167   1.078  0.1706 -0.0715  0.7501
  840MOL0     H13400   1.907   4.979   1.110  0.6007  3.5770  0.0337
  841MOL0     O13401   8.529   6.468   6.876  0.2206  0.8833 -0.7787
  841MOL0     C13402   8.589   6.468   6.774 -1.2280 -0.9208  0.4522
  841MOL0     O13403   8.538   6.444   6.650 -0.3307  0.0239 -0.0567
  841MOL0     C13404   8.402   6.424   6.630 -0.1274  0.7157  0.7530
  841MOL0     C13405   8.372   6.355   6.499 -0.8054 -1.1253 -1.2392
  841MOL0     C13406   8.232   6.338   6.468 -0.2132 -0.4175  0.2353
  841MOL0     C13407   8.129   6.391   6.544 -0.0922  0.0099 -0.4933
  841MOL0     O13408   7.999   6.410   6.510  1.0573 -0.1035 -0.1168
  841MOL0     C13409   7.894   6.372   6.606 -0.4163 -0.2514 -0.1533
  841MOL0     C13410   7.760   6.344   6.541  0.0453 -0.2347  0.0754
  841MOL0     C13411   7.657   6.310   6.649 -0.3798 -0.0313 -0.3319
  841MOL0     C13412   7.520   6.354   6.610  0.0462 -0.0740 -0.4684
  841MOL0     C13413   7.423   6.307   6.723 -0.6447  0.2496  0.3043
  841MOL0     C13414   7.299   6.389   6.722  0.4487 -0.7434  0.2674
  841MOL0     C13415   7.202   6.355   6.831  0.2253 -0.7261  0.5161
  841MOL0     C13416   7.129   6.222   6.812  0.8007 -0.1933  0.4698
  841MOL0     N13417   7.155   6.119   6.917  0.0260 -0.7570  0.1570
  841MOL0     C13418   7.065   6.048   6.984  0.7535 -0.0516  0.7540
  841MOL0     C13419   7.127   5.933   7.013 -0.5290 -0.7103  0.4577
  841MOL0     C13420   7.085   5.808   7.084 -1.1226  0.8630  0.3439
  841MOL0     C13421   7.109   5.690   6.997  0.2900  0.1991  0.7192
  841MOL0     C13422   7.015   5.566   7.033  0.1057  0.0477 -0.5823
  841MOL0     C13423   7.060   5.432   6.967  0.3403 -0.4019  0.7212
  841MOL0     O13424   7.017   5.448   6.825 -0.8428  0.0107 -0.1571
  841MOL0     C13425   6.891   5.415   6.787  0.3984  0.0525  0.3927
  841MOL0     C13426   6.863   5.391   6.648  0.1621  0.0264 -0.3108
  841MOL0     C13427   6.730   5.355   6.599  0.1603 -0.2628  0.6095
  841MOL0     C13428   6.709   5.353   6.448  0.2709  0.7027  0.3503
  841MOL0     C13429   6.624   5.340   6.692  0.4838  0.6049 -0.2232
  841MOL0     C13430   6.471   5.317   6.667  0.3063 -0.5525  0.7382
  841MOL0     O13431   6.380   5.377   6.756  0.0387 -0.8018  0.2468
  841MOL0     C13432   6.245   5.363   6.739  0.1628  1.1175 -0.4766
  841MOL0     C13433   6.161   5.471   6.710 -0.1910  0.1560  0.3314
  841MOL0     C13434   6.023   5.451   6.682 -0.1146  0.5865  0.0922
  841MOL0     C13435   5.959   5.327   6.705 -1.0985  0.6542  1.4202
  841MOL0     O13436   5.821   5.316   6.696 -0.2262  0.1617  0.1455
  841MOL0     C13437   5.760   5.185   6.686  1.0254  0.2625 -0.4619
  841MOL0     C13438   5.610   5.198   6.660 -0.1476 -0.4587  0.5429
  841MOL0     C13439   5.535   5.288   6.761  0.2080 -0.3910 -0.2273
  841MOL0     C13440   5.383   5.282   6.733 -0.7828 -0.4563 -0.0747
  841MOL0     C13441   5.310   5.408   6.781 -0.3364 -0.3060  0.3554
  841MOL0     C13442   5.163   5.397   6.720  0.1416 -0.1088  0.7755
  841MOL0     C13443   5.160   5.448   6.575  0.0486  0.0261  0.0540
  841MOL0     C13444   5.041   5.389   6.497 -0.4426 -0.8175 -0.7584
  841MOL0    Cl13445   5.069   5.390   6.322  0.2835  0.3059 -0.1300
  841MOL0     C13446   6.043   5.213   6.745 -0.0490 -0.1923 -0.8206
  841MOL0     C13447   6.182   5.240   6.751 -0.7446 -0.0024  0.3619
  841MOL0     O13448   6.438   5.243   6.578 -0.4586  0.1252  0.1365
  841MOL0     C13449   6.651   5.361   6.832 -1.2795 -0.0940 -0.5224
  841MOL0     C13450   6.781   5.392   6.878  0.6101 -0.5069  0.4728
  841MOL0     N13451   7.264   5.952   6.992  0.2333  0.3052 -0.1251
  841MOL0     N13452   7.277   6.065   6.931 -0.0356  0.4216  0.3487
  841MOL0     C13453   8.172   6.457   6.668  0.4211  0.5345 -0.3881
  841MOL0     C13454   8.300   6.466   6.714  0.4771  0.4539 -0.0315
  841MOL0     C13455   8.739   6.449   6.781  0.3045 -0.3014  0.0975
  841MOL0     C13456   8.808   6.449   6.909 -0.8369 -0.5245  0.5726
  841MOL0     C13457   8.942   6.413   6.912  0.8384 -0.0405 -0.1573
  841MOL0     C13458   9.015   6.387   6.798 -0.0703 -0.1870 -0.3594
  841MOL0     O13459   9.145   6.355   6.798 -0.5488 -0.4359 -0.4678
  841MOL0     C13460   9.230   6.341   6.909 -0.8359 -0.6813  0.7363
  841MOL0     C13461   9.207   6.210   6.986  0.1953  0.0377  0.0399
  841MOL0     C13462   9.160   6.087   6.906 -0.1035  0.3218  1.2461
  841MOL0     C13463   9.151   5.956   6.985  0.9454 -0.4021  0.1088
  841MOL0     C13464   9.078   5.852   6.913  0.3244 -0.7508  0.2716
  841MOL0     C13465   9.009   5.762   6.864 -0.2473 -0.5751 -0.2693
  841MOL0     C13466   8.951   6.390   6.678 -1.0856 -0.3715 -0.2113
  841MOL0     C13467   8.817   6.417   6.663  0.3532  0.9013 -0.6609
  841MOL0     H13468   8.438   6.333   6.416 -2.4204  2.5446 -3.7736
  841MOL0     H13469   8.197   6.301   6.372  1.5982 -0.7624 -0.3335
  841MOL0     H13470   7.922   6.306   6.689  1.2640  1.0127  0.3507
  841MOL0     H13471   7.874   6.459   6.669 -0.2207  0.4798 -1.0776
  841MOL0     H13472   7.722   6.433   6.490 -3.1146 -0.1323  2.3155
  841MOL0     H13473   7.772   6.264   6.466  2.5632 -1.2979  1.4925
  841MOL0     H13474   7.660   6.202   6.660 -1.0510  0.0669  1.1060
  841MOL0     H13475   7.677   6.342   6.752  1.0889  0.9224 -0.8723
  841MOL0     H13476   7.513   6.462   6.595 -2.6887 -0.1824 -0.3859
  841MOL0     H13477   7.486   6.316   6.514 -1.0749  0.8697 -0.4707
  841MOL0     H13478   7.389   6.204   6.708  1.0867 -0.6049  1.8055
  841MOL0     H13479   7.475   6.314   6.819 -1.7520 -0.4620  0.9750
  841MOL0     H13480   7.314   6.498   6.726 -4.2027  0.1260  0.6489
  841MOL0     H13481   7.255   6.370   6.624  0.4752  0.7549 -0.0678
  841MOL0     H13482   7.259   6.345   6.924 -0.8996  2.8084  1.7527
  841MOL0     H13483   7.137   6.442   6.844  1.8339  0.6507 -0.2301
  841MOL0     H13484   7.157   6.170   6.720 -0.0382 -1.5310  0.9401
  841MOL0     H13485   7.027   6.259   6.802  0.4262 -0.8321  1.6702
  841MOL0     H13486   6.962   6.074   7.009  1.6933  2.2663  2.5314
  841MOL0     H13487   7.143   5.794   7.175 -0.0986 -0.4875 -0.4784
  841MOL0     H13488   6.979   5.804   7.108 -1.2642  2.1796  0.0257
  841MOL0     H13489   7.213   5.659   7.004  0.3327 -0.1558 -0.9149
  841MOL0     H13490   7.074   5.728   6.900  3.4733  1.9825  0.1286
  841MOL0     H13491   6.914   5.586   6.996 -0.4875 -0.3351  0.7732
  841MOL0     H13492   7.009   5.562   7.143  0.2970  3.7637 -0.3244
  841MOL0     H13493   7.020   5.347   7.023  1.8274 -1.0672  0.7985
  841MOL0     H13494   7.168   5.419   6.961  0.3284 -0.0293 -0.5474
  841MOL0     H13495   6.940   5.406   6.573  0.0897  5.4956  0.2829
  841MOL0     H13496   6.736   5.455   6.420  1.9370  0.4300  0.8452
  841MOL0     H13497   6.772   5.273   6.408 -0.4382 -0.9852  2.3734
  841MOL0     H13498   6.605   5.332   6.422  0.6680 -0.6937 -0.1902
  841MOL0     H13499   6.195   5.574   6.717 -1.4991  0.5601  0.9564
  841MOL0     H13500   5.946   5.526   6.671  0.3263  1.6427  3.2210
  841MOL0     H13501   5.809   5.122   6.611 -0.3222 -0.6743 -0.5805
  841MOL0     H13502   5.784   5.136   6.781 -0.4032 -0.0590 -0.2491
  841MOL0     H13503   5.592   5.227   6.556  3.1705 -3.6847 -1.1521
  841MOL0     H13504   5.575   5.095   6.669  1.4238 -1.2306 -1.3342
  841MOL0     H13505   5.567   5.393   6.758 -2.9020  0.6527 -0.8990
  841MOL0     H13506   5.552   5.250   6.862  0.7331  0.4313  0.0042
  841MOL0     H13507   5.374   5.270   6.625  2.5970  3.8598 -1.1473
  841MOL0     H13508   5.338   5.196   6.783 -0.9671  0.3349  1.1873
  841MOL0     H13509   5.357   5.495   6.736 -0.2866 -2.2060 -3.6770
  841MOL0     H13510   5.304   5.414   6.890  0.4086  0.5661  0.3596
  841MOL0     H13511   5.130   5.293   6.731  0.0924 -0.0247  1.4228
  841MOL0     H13512   5.092   5.457   6.777  1.8232 -0.0018  2.8476
  841MOL0     H13513   5.256   5.426   6.527 -0.4963 -0.7424 -0.7131
  841MOL0     H13514   5.143   5.556   6.577  0.3268  0.0752 -0.1615
  841MOL0     H13515   4.952   5.448   6.519 -0.0242  0.6348 -2.6371
  841MOL0     H13516   5.016   5.286   6.524 -2.2955 -0.7022 -1.8303
  841MOL0     H13517   6.009   5.110   6.750  0.0310 -0.2818 -1.9099
  841MOL0     H13518   6.250   5.155   6.743 -0.0166  0.7164 -1.8259
  841MOL0     H13519   6.570   5.363   6.905  2.1331 -1.6623  3.7223
  841MOL0     H13520   6.794   5.402   6.986 -0.4265  3.7191  0.3878
  841MOL0     H13521   8.098   6.515   6.722  0.9054 -0.9812  2.0646
  841MOL0     H13522   8.312   6.528   6.803 -1.3647  4.5559 -2.3816
  841MOL0     H13523   8.753   6.466   7.001  0.6168  1.8670  1.0949
  841MOL0     H13524   8.975   6.392   7.014 -0.9794 -0.5207  0.3768
  841MOL0     H13525   9.331   6.331   6.868 -2.1078  0.8631 -3.3020
  841MOL0     H13526   9.232   6.433   6.969  1.2359  0.6045 -1.1126
  841MOL0     H13527   9.132   6.212   7.065  1.1486  3.3671  1.0241
  841MOL0     H13528   9.303   6.180   7.029  0.5442 -0.7506 -1.2358
  841MOL0     H13529   9.231   6.066   6.825 -0.6145  3.2868 -0.1109
  841MOL0     H13530   9.062   6.116   6.866 -0.2344 -1.2707  0.3452
  841MOL0     H13531   9.087   5.983   7.070 -1.7051  3.4324 -2.7460
  841MOL0     H13532   9.255   5.927   7.004  0.8962 -0.5010  0.2324
  841MOL0     H13533   8.952   5.687   6.814 -0.6292 -1.5044  1.4697
  841MOL0     H13534   9.016   6.372   6.592  1.7812  2.0781  1.2687
  841MOL0     H13535   8.775   6.411   6.563 -0.2133 -1.3682 -0.3590
  842MOL0     O13536  11.251   6.447   9.981 -0.3750 -0.2620  0.1740
  842MOL0     C13537  11.249   6.326   9.974  0.8776  0.4121  0.0542
  842MOL0     O13538  11.272   6.242  10.080 -0.4304  0.2052  0.1960
  842MOL0     C13539  11.322   6.290  10.202  0.0627 -0.3037 -0.0978
  842MOL0     C13540  11.429   6.381  10.205 -0.0594 -0.1655 -0.1361
  842MOL0     C13541  11.470   6.435  10.331 -0.4603 -0.5943  0.0735
  842MOL0     C13542  11.422   6.372  10.444 -0.2963 -0.7744  0.0520
  842MOL0     O13543  11.465   6.407  10.569  0.0089 -0.4539  0.2116
  842MOL0     C13544  11.486   6.538  10.617 -0.2429  0.1332  0.2660
  842MOL0     C13545  11.564   6.519  10.741  0.7308  0.1119 -0.1852
  842MOL0     C13546  11.619   6.647  10.800  0.0329  0.5943 -1.3606
  842MOL0     C13547  11.645   6.628  10.948  1.1920  0.0410 -0.2760
  842MOL0     C13548  11.715   6.747  11.007 -0.5316 -0.3954 -0.2521
  842MOL0     C13549  11.811   6.709  11.122 -0.1951  0.2743 -0.7781
  842MOL0     C13550  11.747   6.622  11.245  0.1026 -0.6582  1.1229
  842MOL0     C13551  11.855   6.557  11.318  0.4017 -0.5394  1.1803
  842MOL0     N13552  11.790   6.507  11.435 -0.0970  0.3157  0.4572
  842MOL0     C13553  11.839   6.534  11.558  0.6910  0.0764 -0.1273
  842MOL0     C13554  11.764   6.452  11.640  0.1938  0.5812 -0.3951
  842MOL0     C13555  11.772   6.449  11.790 -0.0458 -0.6972  0.0153
  842MOL0     C13556  11.894   6.365  11.823  0.4350 -0.1827 -0.6735
  842MOL0     C13557  11.889   6.208  11.817  0.6099 -0.3615  1.2377
  842MOL0     C13558  12.018   6.158  11.874 -0.3102  0.5747 -0.3756
  842MOL0     O13559  12.128   6.214  11.799 -0.5195  0.7655  0.3408
  842MOL0     C13560  12.252   6.169  11.813 -0.0807 -1.2097 -0.3534
  842MOL0     C13561  12.343   6.178  11.708 -0.4432 -0.2477  0.0828
  842MOL0     C13562  12.474   6.131  11.722 -0.1928  0.0426  0.3808
  842MOL0     C13563  12.560   6.151  11.603 -0.3292 -0.3717  0.1616
  842MOL0     C13564  12.513   6.071  11.839  0.1129 -0.4044 -0.1155
  842MOL0     C13565  12.646   6.002  11.848 -0.2039 -0.2617 -0.7537
  842MOL0     O13566  12.669   5.935  11.964 -0.4098 -0.2961  0.2561
  842MOL0     C13567  12.795   5.889  11.985  0.2483  0.3205  0.4420
  842MOL0     C13568  12.796   5.751  12.009  1.3948 -0.8054  0.7914
  842MOL0     C13569  12.917   5.683  12.016  0.4347  0.4020  0.8173
  842MOL0     C13570  13.041   5.750  12.015  0.6023  0.0866  0.0678
  842MOL0     O13571  13.168   5.689  12.019  0.5105 -0.5702  0.6646
  842MOL0     C13572  13.187   5.577  12.110  0.0898 -0.9626  0.3943
  842MOL0     C13573  13.332   5.558  12.151  0.5046 -0.6394 -0.1045
  842MOL0     C13574  13.385   5.672  12.236 -0.2753 -0.5531  0.3521
  842MOL0     C13575  13.539   5.652  12.254 -1.2247  0.0788 -0.1877
  842MOL0     C13576  13.595   5.750  12.359  0.1359 -0.1136 -0.0311
  842MOL0     C13577  13.743   5.758  12.348  0.5219 -0.3735  0.8369
  842MOL0     C13578  13.792   5.811  12.486  0.3711  0.1394 -0.2655
  842MOL0     C13579  13.935   5.861  12.484  0.5181 -0.2242 -0.1899
  842MOL0    Cl13580  13.961   5.999  12.594 -0.1018 -0.3008  0.0237
  842MOL0     C13581  13.042   5.885  12.005  0.2060  0.4503  0.2514
  842MOL0     C13582  12.922   5.955  11.977  1.0364 -1.1092 -0.6934
  842MOL0     O13583  12.721   5.994  11.749 -0.2730 -0.1215  0.4770
  842MOL0     C13584  12.422   6.068  11.947 -0.3852  0.7637  0.0652
  842MOL0     C13585  12.292   6.107  11.935  0.2536 -0.6262  1.1718
  842MOL0     N13586  11.685   6.366  11.564  0.0286 -0.1959  0.0075
  842MOL0     N13587  11.704   6.398  11.442  0.3608 -0.0047 -0.3763
  842MOL0     C13588  11.338   6.263  10.435 -0.1080  1.6283 -0.2787
  842MOL0     C13589  11.277   6.229  10.316 -0.3873  0.6862 -0.2100
  842MOL0     C13590  11.221   6.256   9.851 -0.2650 -0.6897  0.2980
  842MOL0     C13591  11.205   6.117   9.857  0.2700 -0.4859  0.1098
  842MOL0     C13592  11.188   6.049   9.737 -0.4428 -0.0563 -0.6092
  842MOL0     C13593  11.175   6.118   9.618 -0.3701  0.1335  0.4032
  842MOL0     O13594  11.152   6.025   9.508 -0.1303  0.0093 -0.7179
  842MOL0     C13595  11.192   6.077   9.382  0.3440  0.2220 -0.7945
  842MOL0     C13596  11.191   5.974   9.272 -0.4406  0.5540 -0.3160
  842MOL0     C13597  11.042   5.915   9.258  1.1443  0.5725  0.0201
  842MOL0     C13598  11.027   5.804   9.142 -0.3204 -1.1110 -0.7608
  842MOL0     C13599  11.006   5.883   9.012  0.4663  0.7302 -0.6824
  842MOL0     C13600  10.970   5.963   8.924 -0.5630 -0.5728  0.2025
  842MOL0     C13601  11.191   6.249   9.615 -0.2874 -0.4171 -0.8369
  842MOL0     C13602  11.222   6.324   9.732 -0.4608 -0.4166 -0.9457
  842MOL0     H13603  11.486   6.408  10.117 -1.0003  1.2396 -0.3545
  842MOL0     H13604  11.551   6.505  10.342 -0.5312 -0.1359 -1.8982
  842MOL0     H13605  11.557   6.585  10.548  2.4053 -2.1839  1.2660
  842MOL0     H13606  11.388   6.587  10.630  0.4001  2.1615 -1.8306
  842MOL0     H13607  11.498   6.474  10.816 -0.0226  1.8095  0.2072
  842MOL0     H13608  11.640   6.444  10.719 -1.6473 -2.2761 -0.8404
  842MOL0     H13609  11.715   6.655  10.748  0.5130 -2.3924 -1.1202
  842MOL0     H13610  11.542   6.723  10.784 -3.3462 -2.0677  0.8211
  842MOL0     H13611  11.556   6.611  11.010 -0.1661  1.4674 -1.7222
  842MOL0     H13612  11.710   6.542  10.963  3.0077  1.6264  1.4022
  842MOL0     H13613  11.784   6.789  10.933  0.2416 -3.5673 -1.4761
  842MOL0     H13614  11.646   6.824  11.041 -1.8589 -1.5848 -0.1593
  842MOL0     H13615  11.891   6.654  11.071  0.1326  1.9926 -2.2472
  842MOL0     H13616  11.849   6.797  11.175 -0.9396  0.4234 -0.4845
  842MOL0     H13617  11.701   6.689  11.318  0.3487 -0.8309  1.4427
  842MOL0     H13618  11.670   6.549  11.216  0.9787 -1.5391  0.9433
  842MOL0     H13619  11.932   6.622  11.361 -0.2184 -0.1932  1.7963
  842MOL0     H13620  11.890   6.475  11.255 -0.3367  0.7778 -1.0761
  842MOL0     H13621  11.894   6.625  11.580  0.0791  0.2405  0.8058
  842MOL0     H13622  11.783   6.552  11.825  2.3595  0.1916 -2.8705
  842MOL0     H13623  11.686   6.399  11.835  0.1341 -0.5039  0.5809
  842MOL0     H13624  11.913   6.382  11.929  4.1859 -1.1111 -1.0455
  842MOL0     H13625  11.982   6.415  11.782  0.5891  1.8702  1.9096
  842MOL0     H13626  11.855   6.168  11.721 -2.4979  0.9683  1.6687
  842MOL0     H13627  11.811   6.174  11.886 -0.7881 -2.0572 -1.0626
  842MOL0     H13628  12.021   6.049  11.881  0.7251  0.4081 -2.6282
  842MOL0     H13629  12.026   6.187  11.979 -0.3211 -0.8672  0.0411
  842MOL0     H13630  12.307   6.214  11.612 -1.6498  0.3852  0.7544
  842MOL0     H13631  12.571   6.054  11.553 -1.7693  0.9898 -3.1479
  842MOL0     H13632  12.518   6.222  11.531  2.6990  0.3208 -1.0798
  842MOL0     H13633  12.655   6.195  11.634 -1.2368  2.1288 -0.4011
  842MOL0     H13634  12.699   5.706  12.024  1.7477 -1.1487  2.2012
  842MOL0     H13635  12.921   5.577  12.038 -1.9961  0.4663  1.9727
  842MOL0     H13636  13.121   5.604  12.193 -1.3215  0.8826 -1.2251
  842MOL0     H13637  13.144   5.489  12.061  0.0163 -0.1788 -1.0088
  842MOL0     H13638  13.358   5.465  12.202 -0.8165  0.8443  3.6756
  842MOL0     H13639  13.394   5.553  12.062  0.8938 -0.2630  0.1419
  842MOL0     H13640  13.333   5.670  12.332 -2.1231  4.6562 -0.2254
  842MOL0     H13641  13.372   5.767  12.184 -1.6356 -1.8087 -1.7604
  842MOL0     H13642  13.554   5.552  12.298  2.4505 -0.6700 -2.6943
  842MOL0     H13643  13.586   5.664  12.156  0.5956 -2.5349  0.2233
  842MOL0     H13644  13.559   5.707  12.453 -2.6216  1.3353 -0.3022
  842MOL0     H13645  13.559   5.852  12.343  0.3359  0.0927  0.7897
  842MOL0     H13646  13.790   5.660  12.342 -0.6003 -1.0171  2.0878
  842MOL0     H13647  13.781   5.817  12.264  0.1516  1.0450  1.6213
  842MOL0     H13648  13.787   5.734  12.564  3.2263  0.1924  0.0590
  842MOL0     H13649  13.726   5.896  12.509  0.7366  0.8408 -1.7379
  842MOL0     H13650  13.964   5.885  12.382 -0.5662  1.0460 -0.2280
  842MOL0     H13651  14.005   5.783  12.515  0.9993 -0.0383 -0.7975
  842MOL0     H13652  13.135   5.941  12.000  1.0696 -0.1048  5.2437
  842MOL0     H13653  12.935   6.061  11.956  4.8806 -0.9191  1.7555
  842MOL0     H13654  12.449   6.039  12.048 -4.9386 -0.0325  1.2716
  842MOL0     H13655  12.230   6.093  12.023  1.0024  1.6957  2.1600
  842MOL0     H13656  11.301   6.216  10.525  3.3566 -1.0936 -0.0650
  842MOL0     H13657  11.200   6.152  10.315 -1.4398  1.6924  0.5586
  842MOL0     H13658  11.206   6.062   9.951 -0.6396 -0.2102  0.2886
  842MOL0     H13659  11.172   5.942   9.727 -1.6156  0.1839 -1.5837
  842MOL0     H13660  11.121   6.155   9.353 -0.8522 -0.1358  0.9951
  842MOL0     H13661  11.293   6.119   9.382  1.2085 -1.7255 -0.4120
  842MOL0     H13662  11.274   5.905   9.288 -1.4636 -0.4938  0.6852
  842MOL0     H13663  11.211   6.018   9.174 -0.8971 -0.6978 -1.0006
  842MOL0     H13664  10.987   6.007   9.236 -0.8724 -0.6157 -0.1720
  842MOL0     H13665  10.996   5.875   9.349 -0.5005  0.1509 -0.9645
  842MOL0     H13666  10.934   5.748   9.153  0.0336 -2.1618 -2.7494
  842MOL0     H13667  11.111   5.733   9.138  0.9982  0.4060 -1.2931
  842MOL0     H13668  10.941   6.046   8.863  0.3033  1.9545  2.9779
  842MOL0     H13669  11.188   6.301   9.519 -0.8982 -0.4995 -0.8700
  842MOL0     H13670  11.229   6.432   9.722 -4.5606  0.1281  0.2050
  843MOL0     O13671   4.723   5.502   5.079 -1.1505 -0.7894 -0.0237
  843MOL0     C13672   4.750   5.388   5.108 -0.3871  0.0102  0.7203
  843MOL0     O13673   4.789   5.338   5.226 -0.3588 -0.2353 -0.0746
  843MOL0     C13674   4.799   5.419   5.333 -0.3935 -1.4947  0.5407
  843MOL0     C13675   4.765   5.366   5.455  0.4722 -0.3333 -0.4434
  843MOL0     C13676   4.787   5.432   5.573 -0.6345  0.5156 -0.0863
  843MOL0     C13677   4.845   5.563   5.566  0.2803 -0.2794  0.2221
  843MOL0     O13678   4.869   5.641   5.676  0.8288  0.2605  0.5842
  843MOL0     C13679   4.934   5.590   5.786  0.5392 -0.5315 -0.1681
  843MOL0     C13680   4.995   5.707   5.872  0.5211 -0.0511 -0.5799
  843MOL0     C13681   5.053   5.652   6.007  0.3346 -0.8046 -0.2373
  843MOL0     C13682   5.107   5.764   6.097  0.5359 -0.6536  0.9140
  843MOL0     C13683   5.150   5.724   6.234  0.3638 -0.1683  0.4027
  843MOL0     C13684   5.209   5.842   6.313 -0.5204 -0.6187  0.1353
  843MOL0     C13685   5.094   5.910   6.397 -1.0212  0.3338 -0.2098
  843MOL0     C13686   5.096   6.064   6.386 -0.3939 -0.6716  0.6685
  843MOL0     N13687   5.005   6.151   6.466  0.2205  0.0483  1.5976
  843MOL0     C13688   4.991   6.145   6.598 -0.2484 -0.7953  0.6585
  843MOL0     C13689   4.917   6.261   6.629  0.8878  1.0424  1.4569
  843MOL0     C13690   4.865   6.288   6.768  0.3235  0.1130 -0.3907
  843MOL0     C13691   4.877   6.444   6.796 -0.2585  0.0550 -1.0515
  843MOL0     C13692   4.831   6.494   6.935 -0.6335  0.3209 -0.4642
  843MOL0     C13693   4.904   6.412   7.051  0.7105 -0.4163  0.3951
  843MOL0     O13694   4.872   6.458   7.186  0.9174  0.1775  0.5362
  843MOL0     C13695   4.910   6.372   7.284  1.4756  0.2649 -1.3218
  843MOL0     C13696   4.883   6.405   7.422  0.0286 -0.1127 -0.5895
  843MOL0     C13697   4.919   6.334   7.541  0.4582  0.3132 -0.1823
  843MOL0     C13698   4.863   6.390   7.673 -0.0065  0.1402  0.1665
  843MOL0     C13699   5.007   6.230   7.527 -0.9388  0.0658  1.0392
  843MOL0     C13700   5.057   6.147   7.643  0.2519 -0.1725 -0.1730
  843MOL0     O13701   5.068   6.201   7.765  0.4119 -0.0730  0.2509
  843MOL0     C13702   5.118   6.126   7.866  0.6885 -0.0067 -0.2368
  843MOL0     C13703   5.031   6.082   7.974  0.8884 -0.7767  0.3926
  843MOL0     C13704   5.079   6.035   8.096  0.1719 -0.7558 -0.7619
  843MOL0     C13705   5.215   6.009   8.115  0.2255  0.0721  0.6518
  843MOL0     O13706   5.262   5.967   8.235 -0.4985  0.2384  0.2464
  843MOL0     C13707   5.207   5.847   8.294 -0.2858 -0.0325 -0.9061
  843MOL0     C13708   5.209   5.853   8.453  0.3111 -0.5396  0.4526
  843MOL0     C13709   5.348   5.858   8.512  0.3722 -0.3965  0.3818
  843MOL0     C13710   5.355   5.963   8.621 -0.4734  0.3178 -0.3776
  843MOL0     C13711   5.500   5.985   8.686 -0.5173 -0.7694 -0.3728
  843MOL0     C13712   5.487   6.064   8.815 -0.2018  0.6473 -0.2857
  843MOL0     C13713   5.616   6.034   8.897 -0.0294 -0.1621  0.6338
  843MOL0     C13714   5.647   6.136   8.999  1.0138  0.8057 -1.0152
  843MOL0    Cl13715   5.813   6.105   9.079 -0.0308 -0.6105 -0.0050
  843MOL0     C13716   5.308   6.037   8.007  0.1092  0.3239  0.0672
  843MOL0     C13717   5.255   6.092   7.885 -0.1225 -0.3968 -0.8086
  843MOL0     O13718   5.085   6.030   7.613  0.0731 -0.5212  0.1673
  843MOL0     C13719   5.036   6.188   7.392  0.2770 -0.2176 -0.2091
  843MOL0     C13720   4.989   6.253   7.279  0.2664 -0.1150  0.8996
  843MOL0     N13721   4.883   6.329   6.510  0.2157 -0.3385 -0.8257
  843MOL0     N13722   4.942   6.267   6.414  0.2437  0.1705 -0.5022
  843MOL0     C13723   4.866   5.626   5.439  0.4557  0.0034 -0.3259
  843MOL0     C13724   4.850   5.549   5.324  0.1389 -0.1575 -0.4592
  843MOL0     C13725   4.751   5.294   4.991 -0.0406 -1.2123  0.0055
  843MOL0     C13726   4.754   5.340   4.860 -0.7888  1.4353  0.6899
  843MOL0     C13727   4.763   5.259   4.752  0.0222 -0.2913  0.1748
  843MOL0     C13728   4.773   5.114   4.770 -0.0407 -0.2734  0.2998
  843MOL0     O13729   4.796   5.030   4.661  0.3077  0.7778 -0.6336
  843MOL0     C13730   4.793   5.083   4.520 -0.0119  0.7655 -0.2421
  843MOL0     C13731   4.810   4.974   4.409  0.6222  0.2507  0.4309
  843MOL0     C13732   4.678   4.914   4.378 -0.0371 -0.3375  0.8665
  843MOL0     C13733   4.657   4.843   4.244 -0.6158 -0.0611 -0.0184
  843MOL0     C13734   4.715   4.704   4.261 -0.0155  0.1047 -0.2991
  843MOL0     C13735   4.748   4.595   4.301 -1.1465  0.7183 -0.3154
  843MOL0     C13736   4.759   5.068   4.901 -0.1026 -0.4094 -0.2219
  843MOL0     C13737   4.752   5.158   5.015 -0.0891 -0.3959  0.1582
  843MOL0     H13738   4.723   5.266   5.461  4.2139 -2.4053 -4.0352
  843MOL0     H13739   4.761   5.372   5.660 -2.0749 -0.3770 -1.0840
  843MOL0     H13740   4.869   5.527   5.848  0.8364 -0.1594  0.5353
  843MOL0     H13741   5.018   5.529   5.750  2.0290  0.8245  0.8334
  843MOL0     H13742   5.060   5.749   5.794 -1.9887  0.2825 -2.6430
  843MOL0     H13743   4.923   5.789   5.882 -1.8620 -1.5861 -3.3785
  843MOL0     H13744   4.979   5.585   6.051 -0.3622  1.2342  1.8889
  843MOL0     H13745   5.134   5.587   5.973 -0.8469 -1.8485 -1.1622
  843MOL0     H13746   5.202   5.792   6.052  0.2353 -1.6499 -0.3976
  843MOL0     H13747   5.039   5.850   6.096 -0.1080 -1.1579  0.8695
  843MOL0     H13748   5.061   5.690   6.288 -0.0732  1.2964  0.6402
  843MOL0     H13749   5.233   5.654   6.221 -0.8457 -1.5371 -0.3420
  843MOL0     H13750   5.285   5.791   6.373 -1.4546 -2.7853 -0.4403
  843MOL0     H13751   5.262   5.917   6.253  2.9490  0.3942  3.9256
  843MOL0     H13752   5.004   5.858   6.362  1.3249 -3.0975 -1.7744
  843MOL0     H13753   5.118   5.883   6.500 -0.3699 -2.6841 -1.0439
  843MOL0     H13754   5.072   6.077   6.280  1.2071 -1.7054  0.1428
  843MOL0     H13755   5.198   6.098   6.407 -0.0955 -0.1955 -1.3812
  843MOL0     H13756   5.029   6.071   6.669 -2.0742 -0.6518  1.8458
  843MOL0     H13757   4.763   6.250   6.781  0.2199  0.9853  1.6860
  843MOL0     H13758   4.925   6.235   6.842 -1.9191 -1.4896  0.3976
  843MOL0     H13759   4.812   6.499   6.728  2.1136 -0.2764 -3.8084
  843MOL0     H13760   4.981   6.470   6.771  1.4553  0.3834  4.9400
  843MOL0     H13761   4.725   6.469   6.947 -0.9637  1.7232 -0.3284
  843MOL0     H13762   4.845   6.602   6.940  0.6698  0.2102 -1.1221
  843MOL0     H13763   5.013   6.418   7.043  0.6898 -1.6416 -1.3211
  843MOL0     H13764   4.869   6.309   7.054  3.7818 -1.6268  4.7368
  843MOL0     H13765   4.827   6.495   7.447  0.3558 -0.3988  1.3017
  843MOL0     H13766   4.799   6.317   7.723  0.4765  0.1767  0.8500
  843MOL0     H13767   4.954   6.416   7.727  1.1476 -4.9735  1.2813
  843MOL0     H13768   4.807   6.482   7.654  0.6341 -0.2084 -4.6096
  843MOL0     H13769   4.931   6.124   7.963  2.7607  3.9677 -1.0398
  843MOL0     H13770   5.004   6.026   8.174 -3.2555  4.5286 -2.8307
  843MOL0     H13771   5.111   5.820   8.250  0.3313 -2.0339 -1.1441
  843MOL0     H13772   5.274   5.765   8.266  0.5660  0.6910 -1.0159
  843MOL0     H13773   5.153   5.942   8.481 -0.3952 -0.1882 -1.8584
  843MOL0     H13774   5.153   5.764   8.483 -3.2007 -0.1878 -4.0585
  843MOL0     H13775   5.424   5.885   8.438 -0.5650  0.3504 -0.3380
  843MOL0     H13776   5.362   5.757   8.551 -2.8695 -0.5077  1.5611
  843MOL0     H13777   5.331   6.056   8.569 -0.9902  0.2008 -0.3494
  843MOL0     H13778   5.280   5.943   8.698  0.0813 -0.4967 -0.0281
  843MOL0     H13779   5.569   6.047   8.629 -0.0040  0.8556  1.8747
  843MOL0     H13780   5.544   5.885   8.688  2.1648  0.3288  1.1249
  843MOL0     H13781   5.465   6.171   8.802 -2.2875  0.2500 -0.3319
  843MOL0     H13782   5.409   6.024   8.880  1.7846 -1.3493  1.0348
  843MOL0     H13783   5.704   6.017   8.834 -0.4011 -0.0281  0.0705
  843MOL0     H13784   5.609   5.939   8.952  4.7258  0.3945  2.6525
  843MOL0     H13785   5.577   6.128   9.083  0.3842 -0.7358 -1.6472
  843MOL0     H13786   5.634   6.235   8.955 -1.1201  1.6804  1.3187
  843MOL0     H13787   5.411   6.003   8.002  0.4180  1.3070 -0.5474
  843MOL0     H13788   5.330   6.108   7.808  1.0569  0.1212  0.4199
  843MOL0     H13789   5.091   6.094   7.390 -1.6010 -1.3607  0.0546
  843MOL0     H13790   5.010   6.194   7.191  2.2023 -0.0734  1.2960
  843MOL0     H13791   4.893   5.731   5.431 -1.8655  0.5971 -1.1329
  843MOL0     H13792   4.879   5.594   5.229  0.1525 -0.9698 -0.8471
  843MOL0     H13793   4.737   5.447   4.851 -2.4455  1.1911  0.5544
  843MOL0     H13794   4.770   5.308   4.656  0.8174 -0.7093  0.0108
  843MOL0     H13795   4.708   5.149   4.501 -2.0023 -1.4144  0.6412
  843MOL0     H13796   4.885   5.139   4.501  1.1960 -1.1060 -0.0865
  843MOL0     H13797   4.890   4.901   4.421  0.3256 -0.4260 -1.4726
  843MOL0     H13798   4.833   5.039   4.324  1.2489  1.6470  1.6260
  843MOL0     H13799   4.596   4.985   4.377  1.0325  1.0917 -2.9847
  843MOL0     H13800   4.657   4.848   4.463 -1.6154 -1.3217 -0.2466
  843MOL0     H13801   4.704   4.903   4.165 -1.3284 -1.0086 -1.1867
  843MOL0     H13802   4.551   4.816   4.237 -0.4984 -1.3668  2.1799
  843MOL0     H13803   4.779   4.497   4.331 -0.8410  1.6693  2.7868
  843MOL0     H13804   4.764   4.961   4.919 -1.1550 -0.2323  1.2816
  843MOL0     H13805   4.741   5.131   5.119 -0.6175  0.1382  0.2478
  844MOL0     O13806   2.186   3.573   2.698 -0.6938  0.6019  0.8975
  844MOL0     C13807   2.179   3.688   2.734  0.8978 -0.6389  0.4041
  844MOL0     O13808   2.265   3.751   2.811 -0.4463 -0.4564  0.0639
  844MOL0     C13809   2.382   3.694   2.857  0.1885 -0.2756  0.5082
  844MOL0     C13810   2.397   3.676   2.995 -0.1029  1.0590  0.5401
  844MOL0     C13811   2.519   3.633   3.044  0.1969 -0.4633 -0.0011
  844MOL0     C13812   2.630   3.616   2.952 -0.3778 -0.7927 -0.5294
  844MOL0     O13813   2.749   3.568   2.995  0.5339 -0.3714 -0.0092
  844MOL0     C13814   2.751   3.424   2.999  0.2029 -0.5576 -0.0435
  844MOL0     C13815   2.890   3.369   3.017 -0.7088  0.2301 -0.9062
  844MOL0     C13816   2.886   3.225   3.049 -0.4454 -0.1159  0.2444
  844MOL0     C13817   3.029   3.167   3.067  0.6222  0.1276  0.9450
  844MOL0     C13818   3.044   3.023   3.096  0.1675 -0.5960  0.9784
  844MOL0     C13819   2.960   2.931   3.002  0.1995  0.4969 -0.4588
  844MOL0     C13820   2.942   2.791   3.072  0.5885 -0.3223 -0.1293
  844MOL0     C13821   2.900   2.692   2.956 -0.4538 -0.5571  0.1704
  844MOL0     N13822   2.772   2.724   2.887  0.3929 -0.1212 -0.6398
  844MOL0     C13823   2.643   2.703   2.949 -0.5880  0.3410  0.0259
  844MOL0     C13824   2.561   2.754   2.854 -0.5367  0.2003 -0.7878
  844MOL0     C13825   2.418   2.808   2.867  0.7026 -0.3520 -0.0956
  844MOL0     C13826   2.363   2.916   2.780  0.7435 -0.1096  0.2231
  844MOL0     C13827   2.359   2.875   2.634  0.8971  0.9698 -0.6920
  844MOL0     C13828   2.270   2.952   2.537 -0.2582  0.0826 -0.2191
  844MOL0     O13829   2.146   3.000   2.600  0.3681  0.1983  0.4841
  844MOL0     C13830   2.060   3.082   2.522 -0.6206  0.3254 -0.3881
  844MOL0     C13831   1.981   3.170   2.591 -0.1252  0.8645  0.5933
  844MOL0     C13832   1.871   3.232   2.530  0.0285 -0.2194 -0.4237
  844MOL0     C13833   1.789   3.331   2.616 -0.4291  0.1979  0.4030
  844MOL0     C13834   1.842   3.210   2.389  0.6070 -0.1122  0.4110
  844MOL0     C13835   1.730   3.273   2.313  0.1901  0.0204  0.2702
  844MOL0     O13836   1.695   3.196   2.201  0.0879 -0.5518 -0.4511
  844MOL0     C13837   1.623   3.240   2.093 -1.0941 -0.0231  0.6358
  844MOL0     C13838   1.682   3.350   2.019  0.3986  0.1587 -1.2095
  844MOL0     C13839   1.615   3.405   1.911 -0.4082 -0.2479  0.2171
  844MOL0     C13840   1.501   3.346   1.859 -0.2474  0.4535  0.2540
  844MOL0     O13841   1.444   3.389   1.744  0.3495  0.2553  0.7866
  844MOL0     C13842   1.472   3.310   1.624  0.0742 -0.0347  0.1523
  844MOL0     C13843   1.429   3.366   1.488  0.5801 -0.2500  0.9002
  844MOL0     C13844   1.332   3.486   1.514 -0.4143  0.1540  0.6156
  844MOL0     C13845   1.251   3.526   1.388  0.6994  0.4789 -0.2236
  844MOL0     C13846   1.190   3.661   1.422  0.1071 -0.0261  0.0022
  844MOL0     C13847   1.310   3.768   1.434 -0.4178 -0.9964 -0.1869
  844MOL0     C13848   1.241   3.904   1.420 -0.0135  0.3680  0.4076
  844MOL0     C13849   1.265   3.997   1.545  0.3604  0.4331  0.2734
  844MOL0    Cl13850   1.177   4.147   1.533 -0.6593  0.2152 -0.0545
  844MOL0     C13851   1.446   3.238   1.924  0.4002  0.0947 -0.0964
  844MOL0     C13852   1.507   3.181   2.042 -0.6423  0.2024 -0.3897
  844MOL0     O13853   1.689   3.387   2.342 -0.6686 -0.5236  0.2373
  844MOL0     C13854   1.934   3.130   2.323 -0.0654 -0.2712 -0.3908
  844MOL0     C13855   2.048   3.072   2.385  0.6468  0.2655 -0.8816
  844MOL0     N13856   2.631   2.784   2.743 -0.9930 -0.1836 -0.1523
  844MOL0     N13857   2.753   2.768   2.760 -0.0917  0.1818 -0.2906
  844MOL0     C13858   2.614   3.639   2.814  0.4681  0.2294 -0.3179
  844MOL0     C13859   2.488   3.668   2.769 -0.2441  1.3354  0.0548
  844MOL0     C13860   2.063   3.769   2.699  0.9008 -0.1666  0.0409
  844MOL0     C13861   2.053   3.908   2.717  0.4573  0.0960 -2.0476
  844MOL0     C13862   1.939   3.972   2.687 -0.2945 -0.8229 -0.2014
  844MOL0     C13863   1.827   3.911   2.637 -0.6416  0.0479 -0.4122
  844MOL0     O13864   1.716   3.989   2.624  0.1717 -0.2494 -0.1112
  844MOL0     C13865   1.586   3.928   2.594 -0.8162 -0.1760  0.1385
  844MOL0     C13866   1.485   4.034   2.560 -0.2051  0.3534  0.1288
  844MOL0     C13867   1.446   4.138   2.666 -0.7942  0.2370 -0.7612
  844MOL0     C13868   1.366   4.263   2.613 -0.2107 -0.6476  0.5546
  844MOL0     C13869   1.270   4.331   2.693  0.6832  0.2895 -0.3898
  844MOL0     C13870   1.189   4.378   2.770  0.3833 -0.2287  0.1696
  844MOL0     C13871   1.836   3.775   2.609 -0.2426  0.2982 -1.0718
  844MOL0     C13872   1.946   3.705   2.644  0.9973  0.0489 -0.2056
  844MOL0     H13873   2.301   3.702   3.039  0.5112  2.6730  1.0236
  844MOL0     H13874   2.555   3.631   3.146 -0.4169  0.2508  0.2469
  844MOL0     H13875   2.689   3.395   3.084 -0.3008  2.0298  0.5604
  844MOL0     H13876   2.711   3.375   2.909  0.5049 -5.6421  2.2596
  844MOL0     H13877   2.937   3.375   2.918 -1.8870 -1.2142 -1.5912
  844MOL0     H13878   2.950   3.430   3.086  0.0017 -0.8374 -0.5536
  844MOL0     H13879   2.823   3.206   3.137  1.2523 -0.9978  1.3140
  844MOL0     H13880   2.834   3.179   2.964 -0.7409 -0.6179  0.6838
  844MOL0     H13881   3.085   3.180   2.975 -0.4424  0.7837  0.3679
  844MOL0     H13882   3.078   3.235   3.137  1.9331  0.0737  0.1172
  844MOL0     H13883   3.145   2.988   3.117 -0.5019 -2.8020  0.7495
  844MOL0     H13884   2.996   3.021   3.195  1.6353  0.5534  1.7620
  844MOL0     H13885   2.866   2.974   2.969 -1.7447 -2.4808  0.7585
  844MOL0     H13886   3.022   2.919   2.912  4.0815 -2.5633  2.2565
  844MOL0     H13887   3.032   2.748   3.115  1.2977  1.7268  0.5820
  844MOL0     H13888   2.868   2.798   3.153  0.7537  2.9221 -0.1220
  844MOL0     H13889   2.893   2.595   3.006  1.1366 -0.2085  1.1562
  844MOL0     H13890   2.976   2.710   2.879  0.3852  1.6196  1.4097
  844MOL0     H13891   2.620   2.675   3.051  2.3262 -0.6843  0.5158
  844MOL0     H13892   2.351   2.722   2.861 -2.0663  1.6774  0.0330
  844MOL0     H13893   2.418   2.846   2.969  1.3170 -1.2484  0.2481
  844MOL0     H13894   2.423   3.007   2.788 -0.1235  0.4985 -0.0338
  844MOL0     H13895   2.260   2.932   2.811  0.6693  3.7620 -1.4177
  844MOL0     H13896   2.331   2.770   2.647  1.1659  0.9012 -0.6509
  844MOL0     H13897   2.456   2.856   2.586  0.5673 -1.6996 -0.4315
  844MOL0     H13898   2.253   2.878   2.458  0.3302  2.5267 -2.7751
  844MOL0     H13899   2.325   3.030   2.484  0.0290  1.7014  2.2655
  844MOL0     H13900   1.992   3.186   2.698 -1.0757  2.4269  0.4749
  844MOL0     H13901   1.687   3.293   2.628 -1.5799  2.7874 -0.5120
  844MOL0     H13902   1.838   3.337   2.713 -0.2739  1.3978  0.2619
  844MOL0     H13903   1.775   3.432   2.577 -2.9102 -0.2797 -0.1144
  844MOL0     H13904   1.777   3.388   2.057 -0.5337  1.3517 -0.0046
  844MOL0     H13905   1.648   3.505   1.883 -2.9956  0.2091 -1.6211
  844MOL0     H13906   1.581   3.306   1.619  0.1288  1.5904 -0.8092
  844MOL0     H13907   1.422   3.213   1.624 -0.6437  0.3316  0.2412
  844MOL0     H13908   1.512   3.392   1.422 -0.2706 -1.1052 -0.5750
  844MOL0     H13909   1.366   3.287   1.445 -0.5295  1.6361 -1.1245
  844MOL0     H13910   1.399   3.568   1.544  0.5997  0.6329 -2.5496
  844MOL0     H13911   1.265   3.460   1.596  2.9050  2.6644  4.5559
  844MOL0     H13912   1.314   3.544   1.300 -0.3463  2.8913 -0.5724
  844MOL0     H13913   1.178   3.453   1.353 -1.1742  1.6470  1.0893
  844MOL0     H13914   1.134   3.657   1.516 -0.9624 -0.7857 -0.6464
  844MOL0     H13915   1.127   3.700   1.342 -0.0617 -1.0206 -0.3622
  844MOL0     H13916   1.362   3.755   1.529  1.0363  0.2712 -0.7519
  844MOL0     H13917   1.378   3.761   1.348  1.7846 -2.4851  1.5548
  844MOL0     H13918   1.141   3.892   1.378 -0.1974 -1.5286  1.3050
  844MOL0     H13919   1.298   3.955   1.341 -0.5390  1.5829  0.7878
  844MOL0     H13920   1.369   4.033   1.550 -0.0492  1.5227  3.0294
  844MOL0     H13921   1.241   3.937   1.634  2.3912  0.1617  0.6885
  844MOL0     H13922   1.359   3.198   1.873 -1.6420  0.1888  3.0451
  844MOL0     H13923   1.457   3.101   2.096 -0.5033  2.1467  2.9150
  844MOL0     H13924   1.924   3.120   2.215  2.5561 -2.5900 -0.5337
  844MOL0     H13925   2.111   3.008   2.325  2.0983  0.3093  0.5445
  844MOL0     H13926   2.693   3.617   2.744  0.0615  0.8511 -0.9825
  844MOL0     H13927   2.462   3.673   2.664 -1.1696  1.3319  0.2711
  844MOL0     H13928   2.123   3.976   2.763 -1.6992  1.1889 -0.1937
  844MOL0     H13929   1.936   4.080   2.699  1.1346 -0.6505 -1.1015
  844MOL0     H13930   1.602   3.861   2.509 -1.4326 -0.3358  0.1482
  844MOL0     H13931   1.535   3.879   2.678  2.6830 -0.9333  2.0673
  844MOL0     H13932   1.395   3.987   2.521  0.9396 -0.9970 -0.9818
  844MOL0     H13933   1.538   4.086   2.480  1.8727 -1.3253  0.3140
  844MOL0     H13934   1.539   4.169   2.715  1.6109 -2.6781 -3.1223
  844MOL0     H13935   1.383   4.096   2.745 -0.1162  0.4007 -0.1155
  844MOL0     H13936   1.318   4.247   2.516 -1.5959  1.0011  0.9051
  844MOL0     H13937   1.444   4.339   2.598 -0.3795 -0.1326  2.1545
  844MOL0     H13938   1.132   4.409   2.855  0.3458  1.5229 -0.4558
  844MOL0     H13939   1.759   3.711   2.567 -1.3008  2.0312 -1.8884
  844MOL0     H13940   1.951   3.597   2.636 -2.3950 -0.1817 -0.9458
  845MOL0     O13941   6.727   1.101   6.227  1.0956 -0.0085 -0.4371
  845MOL0     C13942   6.657   1.037   6.309  0.6901 -0.0384 -0.4278
  845MOL0     O13943   6.708   0.963   6.413  0.0064  0.2486 -0.5097
  845MOL0     C13944   6.845   0.939   6.438  0.5624 -0.9673  1.4610
  845MOL0     C13945   6.954   0.991   6.372  0.3717 -0.3889  0.3598
  845MOL0     C13946   7.077   0.937   6.400  0.3355 -0.6125  0.1590
  845MOL0     C13947   7.094   0.844   6.502  0.7538  0.0289 -0.4668
  845MOL0     O13948   7.202   0.767   6.517  0.1329  0.7717 -0.2122
  845MOL0     C13949   7.324   0.841   6.515  0.4196  0.1136  0.9568
  845MOL0     C13950   7.434   0.740   6.549  0.5306  0.3817  0.0652
  845MOL0     C13951   7.571   0.816   6.552  0.1957  0.6398  0.5805
  845MOL0     C13952   7.665   0.726   6.637 -0.7568  0.3575 -1.4345
  845MOL0     C13953   7.708   0.598   6.555 -0.0723  0.8942  0.7608
  845MOL0     C13954   7.786   0.492   6.639 -0.0256 -0.5179  0.0648
  845MOL0     C13955   7.816   0.370   6.553 -0.5266  0.2324  0.0944
  845MOL0     C13956   7.685   0.317   6.488  0.2873  0.7037 -0.2026
  845MOL0     N13957   7.718   0.182   6.439 -0.4832 -0.4647 -0.3635
  845MOL0     C13958   7.784   0.165   6.326 -1.0618  0.9934  0.4910
  845MOL0     C13959   7.797   0.033   6.308 -0.8187  0.3608  0.0391
  845MOL0     C13960   7.865  -0.044   6.195 -0.5986 -1.0286 -0.5718
  845MOL0     C13961   8.021  -0.041   6.227 -0.3747 -0.0576  0.8544
  845MOL0     C13962   8.062  -0.120   6.350 -0.5877 -0.9688 -0.4263
  845MOL0     C13963   8.027  -0.271   6.356  0.4514 -0.5603  0.3864
  845MOL0     O13964   8.097  -0.350   6.462  0.0944 -0.4444 -0.2983
  845MOL0     C13965   8.071  -0.485   6.462 -0.6544  0.1132  1.0551
  845MOL0     C13966   7.956  -0.571   6.437 -0.2836  0.2685  0.1705
  845MOL0     C13967   7.962  -0.710   6.458  0.2218  0.1414 -0.7541
  845MOL0     C13968   7.834  -0.796   6.425 -0.0590 -0.4169 -0.4298
  845MOL0     C13969   8.077  -0.776   6.508 -1.0629  0.0025 -0.8420
  845MOL0     C13970   8.117  -0.919   6.502 -0.0252 -0.5820  0.5625
  845MOL0     O13971   8.204  -0.968   6.586  0.8708 -0.3618  0.5064
  845MOL0     C13972   8.232  -1.103   6.588 -0.0661  0.6224  0.0661
  845MOL0     C13973   8.340  -1.157   6.522 -0.1975  0.2237 -1.0161
  845MOL0     C13974   8.385  -1.289   6.548  0.0699  0.4000  0.0253
  845MOL0     C13975   8.319  -1.375   6.631 -0.2710  0.0308 -0.9612
  845MOL0     O13976   8.346  -1.507   6.657 -0.2703  0.0885  0.9837
  845MOL0     C13977   8.450  -1.572   6.585  0.0414 -0.2383  1.4139
  845MOL0     C13978   8.487  -1.713   6.640  0.6169  0.0638  0.2225
  845MOL0     C13979   8.372  -1.807   6.631  0.1895  0.1108  0.0129
  845MOL0     C13980   8.409  -1.962   6.659 -0.7432  0.7236 -0.1192
  845MOL0     C13981   8.309  -2.076   6.610  0.8805  0.4697  0.1418
  845MOL0     C13982   8.182  -2.076   6.694 -0.3983 -0.2057  0.6184
  845MOL0     C13983   8.169  -2.211   6.763  0.6181  0.4603  0.7199
  845MOL0     C13984   8.015  -2.230   6.786  0.1600 -0.2255  0.5022
  845MOL0    Cl13985   7.992  -2.371   6.910 -0.4724 -0.0728 -0.0377
  845MOL0     C13986   8.205  -1.320   6.701  0.2958  0.2559 -1.5008
  845MOL0     C13987   8.160  -1.189   6.677 -0.3683 -0.6561  0.1401
  845MOL0     O13988   8.076  -0.979   6.405  1.2077  0.7599  0.0334
  845MOL0     C13989   8.185  -0.686   6.536 -0.7238 -0.6965 -0.1204
  845MOL0     C13990   8.177  -0.549   6.523  0.3620 -0.1868  0.2405
  845MOL0     N13991   7.745  -0.027   6.424 -0.7084 -0.3614 -0.1916
  845MOL0     N13992   7.702   0.064   6.506 -0.5515  0.0128  0.4418
  845MOL0     C13993   6.984   0.799   6.570 -0.6563  0.5640 -0.0021
  845MOL0     C13994   6.856   0.841   6.537  0.4906  0.0482  0.6083
  845MOL0     C13995   6.509   1.041   6.296 -0.1103  1.4730  0.2865
  845MOL0     C13996   6.441   1.142   6.224  0.9143 -0.9146 -0.0288
  845MOL0     C13997   6.302   1.144   6.222 -0.2918 -0.0502  0.5822
  845MOL0     C13998   6.238   1.022   6.268 -0.2838 -0.1390  0.4656
  845MOL0     O13999   6.095   1.021   6.280 -0.1575  1.2973  0.6766
  845MOL0     C14000   6.035   0.912   6.204 -0.3771  0.2590 -0.2258
  845MOL0     C14001   6.022   0.960   6.060  0.1498  0.6610 -0.6212
  845MOL0     C14002   5.937   0.861   5.982  0.6823  0.2320 -0.3092
  845MOL0     C14003   5.919   0.898   5.838  0.3570  0.1574  0.5461
  845MOL0     C14004   5.823   0.831   5.762  0.5624 -0.5816  0.9126
  845MOL0     C14005   5.733   0.764   5.703 -0.5024 -0.3330 -0.0504
  845MOL0     C14006   6.303   0.911   6.323 -0.5986  0.0440  0.0834
  845MOL0     C14007   6.438   0.923   6.339 -0.1407 -0.6978 -0.1832
  845MOL0     H14008   6.942   1.061   6.290 -1.1889 -1.0607 -0.0226
  845MOL0     H14009   7.164   0.967   6.343  1.0966  0.6250  1.8677
  845MOL0     H14010   7.351   0.877   6.416 -0.0864  0.8356  1.0681
  845MOL0     H14011   7.311   0.929   6.580 -0.2040  0.4632  0.3734
  845MOL0     H14012   7.406   0.706   6.650  2.5472  1.1696  0.9345
  845MOL0     H14013   7.425   0.659   6.476 -1.2040 -0.2586  0.9117
  845MOL0     H14014   7.609   0.816   6.450 -0.7605 -3.2070  0.0822
  845MOL0     H14015   7.559   0.912   6.603  0.3246 -0.3795  2.6293
  845MOL0     H14016   7.755   0.784   6.656  1.3357 -1.8273 -3.9673
  845MOL0     H14017   7.610   0.693   6.726 -2.0227  1.3396 -1.8046
  845MOL0     H14018   7.613   0.549   6.529  0.1427  0.1793  1.2943
  845MOL0     H14019   7.761   0.616   6.461 -1.8756 -0.2495 -0.5537
  845MOL0     H14020   7.887   0.520   6.668  0.1066  0.1259 -0.9724
  845MOL0     H14021   7.733   0.465   6.731 -2.6682  2.4537 -0.4150
  845MOL0     H14022   7.890   0.397   6.477 -1.5958  4.8635  0.3840
  845MOL0     H14023   7.853   0.296   6.625 -1.2497  0.3838  0.6317
  845MOL0     H14024   7.646   0.377   6.406  1.3871  2.7448  0.6746
  845MOL0     H14025   7.606   0.316   6.563 -1.6514  2.8176 -2.0597
  845MOL0     H14026   7.816   0.244   6.259 -1.4442  1.5158  0.9163
  845MOL0     H14027   7.826  -0.145   6.184 -2.4285 -0.4591  0.2294
  845MOL0     H14028   7.850   0.017   6.105 -1.6203  2.1607  1.5584
  845MOL0     H14029   8.062   0.059   6.245  2.3216 -0.6669 -1.2654
  845MOL0     H14030   8.068  -0.089   6.141  3.3881  3.4286  0.6550
  845MOL0     H14031   8.011  -0.081   6.438  1.2509  0.7503 -0.0518
  845MOL0     H14032   8.171  -0.106   6.354 -0.6794 -0.3510 -0.0335
  845MOL0     H14033   8.049  -0.307   6.255  2.4525 -0.2355  0.6752
  845MOL0     H14034   7.919  -0.288   6.364  0.2660 -1.6537 -2.7856
  845MOL0     H14035   7.876  -0.524   6.380  1.3631  0.6295 -1.9581
  845MOL0     H14036   7.842  -0.837   6.324 -0.6118  2.1673 -1.6175
  845MOL0     H14037   7.805  -0.872   6.498 -1.7032  0.9866  0.4497
  845MOL0     H14038   7.751  -0.725   6.428 -1.7896 -2.3787 -0.1472
  845MOL0     H14039   8.396  -1.106   6.444  1.2071 -1.0700 -0.9035
  845MOL0     H14040   8.469  -1.327   6.491  0.0770 -0.3634  0.5267
  845MOL0     H14041   8.418  -1.583   6.481  0.0567  0.6166  1.3122
  845MOL0     H14042   8.542  -1.513   6.593 -0.8686  0.9018  5.4091
  845MOL0     H14043   8.567  -1.746   6.572 -2.0858 -2.1780 -2.0994
  845MOL0     H14044   8.509  -1.703   6.747 -1.0617  0.2110  0.5762
  845MOL0     H14045   8.342  -1.812   6.525  2.1770  2.4392 -0.7377
  845MOL0     H14046   8.285  -1.767   6.683 -0.2646  0.3267 -0.8803
  845MOL0     H14047   8.499  -1.981   6.600 -1.8961 -0.1468 -1.6886
  845MOL0     H14048   8.447  -1.985   6.759  1.1714 -2.0600 -1.3609
  845MOL0     H14049   8.371  -2.166   6.610  3.6291  2.1510 -2.9234
  845MOL0     H14050   8.254  -2.063   6.517 -1.1850 -0.3705  1.1957
  845MOL0     H14051   8.196  -2.000   6.771 -1.5672  1.3985 -0.6920
  845MOL0     H14052   8.099  -2.057   6.626  0.2644  0.3826 -0.0402
  845MOL0     H14053   8.214  -2.213   6.863 -3.5437  1.5097  2.8331
  845MOL0     H14054   8.209  -2.293   6.703 -3.4939 -1.6278  0.4810
  845MOL0     H14055   7.970  -2.259   6.691  0.8277  1.9466 -0.5456
  845MOL0     H14056   7.967  -2.139   6.824  1.6738  0.5276  0.6608
  845MOL0     H14057   8.139  -1.384   6.758  0.0263  2.1415  0.4405
  845MOL0     H14058   8.066  -1.146   6.712  0.1413 -0.2786  1.0955
  845MOL0     H14059   8.277  -0.726   6.576  0.9639  1.6601 -1.4183
  845MOL0     H14060   8.269  -0.500   6.555  0.5783  0.5707 -1.4513
  845MOL0     H14061   7.003   0.724   6.646 -1.0746  0.5303  0.0760
  845MOL0     H14062   6.766   0.807   6.586 -0.7326 -1.4357 -2.3933
  845MOL0     H14063   6.510   1.221   6.196  3.1404 -2.1971  1.4682
  845MOL0     H14064   6.245   1.220   6.169 -1.7368 -1.6856 -0.3331
  845MOL0     H14065   6.092   0.820   6.221  1.2915  1.9724  5.6878
  845MOL0     H14066   5.937   0.887   6.246  0.2487 -1.9493  0.0189
  845MOL0     H14067   6.119   0.966   6.009  0.1955  0.6949 -0.5313
  845MOL0     H14068   5.978   1.059   6.049  0.2981  0.5121 -3.0380
  845MOL0     H14069   5.836   0.850   6.022  0.9184  1.5801  0.7159
  845MOL0     H14070   5.974   0.758   5.990  1.4368  0.4038 -1.3712
  845MOL0     H14071   6.011   0.888   5.779 -2.1902 -0.5720 -3.7239
  845MOL0     H14072   5.883   1.001   5.836 -0.6426 -0.1749  0.8874
  845MOL0     H14073   5.657   0.698   5.667 -2.2011  0.1874  2.2644
  845MOL0     H14074   6.250   0.825   6.362  3.3740 -2.0790  1.2788
  845MOL0     H14075   6.498   0.839   6.372  1.0678  0.4499  0.6563
  846MOL0     O14076   8.715   9.956   8.393 -0.3273 -0.5437 -0.2657
  846MOL0     C14077   8.654  10.023   8.476  0.2625  0.1837  0.9235
  846MOL0     O14078   8.642  10.161   8.476  0.2226 -0.9983 -0.0836
  846MOL0     C14079   8.701  10.254   8.383  0.0150  0.3097 -0.4735
  846MOL0     C14080   8.822  10.225   8.324  0.0488 -0.1918 -0.4523
  846MOL0     C14081   8.871  10.320   8.239 -0.0606 -0.1784 -0.1680
  846MOL0     C14082   8.817  10.446   8.225  0.4113  0.2425 -0.2210
  846MOL0     O14083   8.885  10.536   8.155  0.3734  0.5315 -0.2932
  846MOL0     C14084   8.828  10.660   8.127  0.2342  0.3051 -0.1713
  846MOL0     C14085   8.897  10.737   8.014  0.7021  0.4687  0.1643
  846MOL0     C14086   8.855  10.883   8.014 -0.5083  0.9018 -0.1565
  846MOL0     C14087   8.964  10.980   7.967  0.1718  0.1798  0.5135
  846MOL0     C14088   8.919  11.121   7.941  0.0933  1.2897 -0.7493
  846MOL0     C14089   9.032  11.218   7.901  0.7513  0.3132  0.7352
  846MOL0     C14090   8.979  11.358   7.868  0.1435  0.7532 -1.4273
  846MOL0     C14091   9.077  11.452   7.790  0.0895 -0.5235  0.0018
  846MOL0     N14092   9.040  11.591   7.798  0.4422 -1.0207 -0.1120
  846MOL0     C14093   8.914  11.644   7.809  1.2626  0.2874  0.6695
  846MOL0     C14094   8.926  11.776   7.768 -0.0099  0.3752 -0.2445
  846MOL0     C14095   8.817  11.885   7.748 -0.0772 -0.0334 -0.2054
  846MOL0     C14096   8.885  12.029   7.725  0.6685 -0.5028  0.5738
  846MOL0     C14097   8.927  12.061   7.583  0.1672  0.6027  1.1136
  846MOL0     C14098   8.970  12.211   7.583  0.0877  0.2137 -0.1000
  846MOL0     O14099   8.978  12.263   7.439 -0.2308  0.7605  0.0998
  846MOL0     C14100   9.095  12.248   7.364 -0.3430 -0.0285 -0.0399
  846MOL0     C14101   9.113  12.280   7.227  0.4326 -0.3986 -0.3035
  846MOL0     C14102   9.236  12.265   7.163 -0.7573  0.1299  0.4515
  846MOL0     C14103   9.250  12.322   7.021 -0.0575  0.3234  0.0162
  846MOL0     C14104   9.347  12.216   7.233  1.0707 -1.0088 -0.0119
  846MOL0     C14105   9.474  12.203   7.174 -0.8431 -0.2745  0.9196
  846MOL0     O14106   9.576  12.236   7.264 -0.5124 -0.0612 -0.3942
  846MOL0     C14107   9.710  12.206   7.232  0.4871 -1.1435 -0.4337
  846MOL0     C14108   9.801  12.311   7.220 -0.1353  0.9293 -1.0139
  846MOL0     C14109   9.940  12.280   7.211  0.2401 -0.2612  0.3201
  846MOL0     C14110   9.977  12.144   7.214  0.1207 -0.3299  0.1427
  846MOL0     O14111  10.115  12.129   7.209 -0.0883  0.8864  0.3082
  846MOL0     C14112  10.172  11.998   7.251 -0.4673  0.1557 -0.4269
  846MOL0     C14113  10.304  11.995   7.178 -0.2441  0.3792 -0.4675
  846MOL0     C14114  10.390  11.891   7.245 -0.0634 -0.4328 -0.0143
  846MOL0     C14115  10.521  11.862   7.164  0.9071 -0.3344  0.3395
  846MOL0     C14116  10.622  11.775   7.246  0.0996 -0.2076 -1.2268
  846MOL0     C14117  10.732  11.705   7.167 -0.2738 -0.4085 -1.2236
  846MOL0     C14118  10.830  11.646   7.274  0.6800  0.2930  0.2765
  846MOL0     C14119  10.931  11.571   7.203  0.3519  1.1350  0.3899
  846MOL0    Cl14120  11.014  11.473   7.336 -0.2968  0.0450 -0.2665
  846MOL0     C14121   9.880  12.044   7.222  0.6027 -0.2389 -0.7797
  846MOL0     C14122   9.745  12.075   7.229 -0.3007  0.2342 -0.1902
  846MOL0     O14123   9.502  12.174   7.054  0.9842 -0.0072 -0.4216
  846MOL0     C14124   9.328  12.189   7.373  0.8714  0.4663  0.0046
  846MOL0     C14125   9.208  12.201   7.439 -0.3474 -1.1418  0.9963
  846MOL0     N14126   9.051  11.791   7.721  0.2595  0.2270 -0.3929
  846MOL0     N14127   9.125  11.694   7.749  0.2204  0.7470 -0.6727
  846MOL0     C14128   8.696  10.475   8.283  0.1556  1.8328  0.3598
  846MOL0     C14129   8.635  10.373   8.361  0.9655  0.1664 -0.3458
  846MOL0     C14130   8.581   9.944   8.584 -0.2357  0.4939  1.0645
  846MOL0     C14131   8.575   9.806   8.579  0.3538  0.5012  0.1272
  846MOL0     C14132   8.484   9.735   8.662 -0.8755 -0.1952  0.0447
  846MOL0     C14133   8.420   9.810   8.766 -0.1789 -0.6830  0.3879
  846MOL0     O14134   8.351   9.750   8.870 -0.8637 -0.4951  0.0117
  846MOL0     C14135   8.316   9.609   8.876  0.2298  0.5381 -1.2305
  846MOL0     C14136   8.442   9.522   8.904  0.1028  0.0406 -0.6329
  846MOL0     C14137   8.431   9.370   8.859 -0.4390 -0.1842  0.5091
  846MOL0     C14138   8.294   9.322   8.900 -0.0127 -0.0731  0.6961
  846MOL0     C14139   8.263   9.342   9.040 -0.6435 -0.3827 -0.6108
  846MOL0     C14140   8.253   9.365   9.161  0.7553 -0.0261 -0.2081
  846MOL0     C14141   8.430   9.952   8.774  0.3575 -0.4286 -0.2623
  846MOL0     C14142   8.514  10.017   8.677  0.2858  0.1522 -0.6502
  846MOL0     H14143   8.882  10.138   8.346  0.5173  0.5978  1.6608
  846MOL0     H14144   8.968  10.301   8.195  0.5709  2.4105 -0.0633
  846MOL0     H14145   8.723  10.647   8.100  0.3961 -1.2617 -0.1550
  846MOL0     H14146   8.828  10.718   8.219 -1.4728  1.1732 -0.6781
  846MOL0     H14147   9.003  10.728   8.039  0.2692  0.7847  2.3141
  846MOL0     H14148   8.894  10.690   7.916  2.7777  2.6434 -1.0594
  846MOL0     H14149   8.773  10.916   7.950 -3.9723 -1.8542  2.4250
  846MOL0     H14150   8.836  10.909   8.119  1.2103 -2.2148  1.0718
  846MOL0     H14151   9.049  10.970   8.036 -0.8990 -1.0302  1.7110
  846MOL0     H14152   9.006  10.945   7.872 -1.4512 -2.5077  0.6708
  846MOL0     H14153   8.847  11.109   7.859 -1.5449  1.7345  0.5505
  846MOL0     H14154   8.875  11.171   8.027  0.7401  3.2934 -1.5212
  846MOL0     H14155   9.113  11.222   7.975  0.3532  0.3472  1.1733
  846MOL0     H14156   9.078  11.171   7.814  0.6809 -1.2610  1.5173
  846MOL0     H14157   8.890  11.354   7.805 -1.1638  1.8521  0.2517
  846MOL0     H14158   8.953  11.399   7.966  0.3335 -0.6496 -0.7694
  846MOL0     H14159   9.113  11.422   7.692  5.2216  0.4892  1.2782
  846MOL0     H14160   9.159  11.447   7.863  0.2182  1.0427 -0.0008
  846MOL0     H14161   8.819  11.591   7.811 -0.6160  3.0380 -2.7528
  846MOL0     H14162   8.762  11.865   7.656  0.9219  3.0050 -1.5752
  846MOL0     H14163   8.752  11.888   7.836  0.1225 -1.6790  0.0361
  846MOL0     H14164   8.971  12.032   7.792  0.6775  0.5266  0.5411
  846MOL0     H14165   8.808  12.098   7.763 -1.1488 -3.0552  1.8463
  846MOL0     H14166   8.838  12.041   7.522 -0.7223 -0.8148  2.7799
  846MOL0     H14167   9.014  11.998   7.563 -2.3879 -2.3406 -1.8519
  846MOL0     H14168   9.059  12.224   7.646 -1.5486  2.8860  1.8540
  846MOL0     H14169   8.892  12.270   7.631 -0.6820 -1.8433  1.3050
  846MOL0     H14170   9.034  12.322   7.166 -1.5210 -0.0260  2.2860
  846MOL0     H14171   9.166  12.388   6.996 -1.4713 -0.8364  1.4583
  846MOL0     H14172   9.341  12.382   7.016 -0.9139  1.7083  0.6798
  846MOL0     H14173   9.255  12.234   6.955 -2.5571 -1.2561  1.7531
  846MOL0     H14174   9.763  12.413   7.217 -1.3731  0.6669  2.2033
  846MOL0     H14175  10.017  12.357   7.204 -1.5853  2.2550  4.5410
  846MOL0     H14176  10.186  11.998   7.359 -1.7256  1.7201 -0.2258
  846MOL0     H14177  10.113  11.909   7.228  0.2945 -0.7546  0.9912
  846MOL0     H14178  10.291  11.954   7.077  2.1838 -2.5368  0.2454
  846MOL0     H14179  10.348  12.095   7.170 -0.5266  0.7335  1.7813
  846MOL0     H14180  10.330  11.802   7.267  1.3801 -1.4275  0.0292
  846MOL0     H14181  10.423  11.929   7.342 -2.0438  0.8025  0.2237
  846MOL0     H14182  10.485  11.797   7.084  1.2182 -1.1896  0.8817
  846MOL0     H14183  10.569  11.954   7.128 -1.8241  1.2935  0.6143
  846MOL0     H14184  10.573  11.695   7.301  2.3881 -0.1696  1.0705
  846MOL0     H14185  10.661  11.836   7.328 -0.7181 -2.0895  0.6279
  846MOL0     H14186  10.697  11.621   7.106  0.3145 -0.1534 -1.9421
  846MOL0     H14187  10.766  11.775   7.090  1.3060 -1.5729 -1.6647
  846MOL0     H14188  10.771  11.573   7.331 -0.8930  1.6238  0.4309
  846MOL0     H14189  10.884  11.725   7.326  1.8120  0.2628 -0.8186
  846MOL0     H14190  11.002  11.630   7.144  0.5246  0.0619 -0.5193
  846MOL0     H14191  10.890  11.509   7.122 -0.1438  1.6016  0.2727
  846MOL0     H14192   9.917  11.942   7.231  1.9325  0.3868  2.0492
  846MOL0     H14193   9.670  11.998   7.236 -1.1792  0.7931 -2.4776
  846MOL0     H14194   9.408  12.157   7.439 -2.1810 -0.3468  3.7069
  846MOL0     H14195   9.211  12.162   7.540  0.4970  1.7209  2.1648
  846MOL0     H14196   8.651  10.574   8.283 -0.0664  1.7322  0.5903
  846MOL0     H14197   8.544  10.398   8.416 -0.2736  1.0522 -2.6577
  846MOL0     H14198   8.634   9.745   8.511  0.3047 -0.1518  0.6631
  846MOL0     H14199   8.467   9.628   8.659 -1.3362 -0.1062 -0.8883
  846MOL0     H14200   8.243   9.595   8.957  1.8608  4.0771  1.0923
  846MOL0     H14201   8.266   9.585   8.781 -1.9772 -0.3757  0.0870
  846MOL0     H14202   8.469   9.518   9.010 -1.9628  1.4639  0.0103
  846MOL0     H14203   8.532   9.570   8.864 -1.0735  1.0921 -2.0982
  846MOL0     H14204   8.515   9.314   8.901  0.6997  0.6849 -0.5515
  846MOL0     H14205   8.447   9.360   8.752  0.2301 -0.4212  0.6261
  846MOL0     H14206   8.283   9.214   8.893 -1.0482  0.0124  0.7783
  846MOL0     H14207   8.215   9.362   8.835  0.7803  0.6787  0.1703
  846MOL0     H14208   8.243   9.394   9.264  2.1662  0.6041 -0.2417
  846MOL0     H14209   8.374  10.013   8.844  2.4232  3.2526 -1.4966
  846MOL0     H14210   8.522  10.125   8.675 -1.0225  0.2897  0.3800
  847MOL0     O14211   9.531   8.524   5.122  0.2926  0.0986  0.4999
  847MOL0     C14212   9.626   8.531   5.200 -0.7892  0.5292 -0.8603
  847MOL0     O14213   9.682   8.639   5.247 -0.2898 -0.1074  0.5631
  847MOL0     C14214   9.643   8.772   5.213 -0.5731  0.8453 -0.8081
  847MOL0     C14215   9.668   8.861   5.319 -0.5056 -0.4169  0.1508
  847MOL0     C14216   9.640   8.997   5.304  0.2046  0.4195  0.6037
  847MOL0     C14217   9.586   9.050   5.190  0.4692 -0.4841 -1.0118
  847MOL0     O14218   9.536   9.177   5.175  0.4967 -0.5925 -0.5111
  847MOL0     C14219   9.492   9.237   5.303 -0.2518 -0.3688 -0.4012
  847MOL0     C14220   9.462   9.386   5.264  0.4756  0.2059  1.2862
  847MOL0     C14221   9.586   9.477   5.230 -0.3440 -0.8482  0.6408
  847MOL0     C14222   9.595   9.555   5.095  0.7465  1.2551 -0.2380
  847MOL0     C14223   9.599   9.470   4.970  0.0919  0.1120  0.0945
  847MOL0     C14224   9.629   9.556   4.841 -0.7540 -0.7628 -1.0676
  847MOL0     C14225   9.521   9.646   4.784 -0.0037 -0.1159 -0.5994
  847MOL0     C14226   9.419   9.564   4.692  0.7777 -0.1828  0.7938
  847MOL0     N14227   9.308   9.655   4.665 -0.9800 -0.3604 -0.0995
  847MOL0     C14228   9.333   9.762   4.576  0.7557 -0.2521  0.7199
  847MOL0     C14229   9.213   9.832   4.600 -1.1107 -1.1341 -1.4124
  847MOL0     C14230   9.171   9.959   4.544  0.2147 -0.2707 -0.3207
  847MOL0     C14231   9.056   9.940   4.436  0.5231  0.2130 -0.3559
  847MOL0     C14232   9.051   9.800   4.372  0.2907  0.3707 -0.2267
  847MOL0     C14233   8.973   9.802   4.238  0.7772  1.1439 -0.2621
  847MOL0     O14234   9.054   9.855   4.126  0.7980  0.0895  0.6752
  847MOL0     C14235   8.991   9.899   4.013  0.3335  1.1187  0.9457
  847MOL0     C14236   8.884   9.988   4.006  0.8334  1.0661 -0.5070
  847MOL0     C14237   8.814  10.028   3.889 -1.5639  0.0621  0.4485
  847MOL0     C14238   8.702  10.124   3.906 -0.2278  0.1570  0.4369
  847MOL0     C14239   8.863   9.973   3.768  0.0310  0.0239  0.8129
  847MOL0     C14240   8.793   9.993   3.633  0.5825  0.1637 -0.3143
  847MOL0     O14241   8.653   9.984   3.632 -0.5904 -0.7021  0.4941
  847MOL0     C14242   8.591   9.959   3.503 -1.0447  0.7770 -0.6813
  847MOL0     C14243   8.586   9.828   3.456  0.0655 -0.0616 -0.1270
  847MOL0     C14244   8.516   9.792   3.342  0.2319  0.5688 -0.1438
  847MOL0     C14245   8.447   9.890   3.272  0.2238  1.2761  0.4902
  847MOL0     O14246   8.362   9.839   3.165 -0.4701 -0.7070 -0.0822
  847MOL0     C14247   8.426   9.763   3.067 -0.3145 -0.1067  0.4806
  847MOL0     C14248   8.536   9.838   2.988  0.7504  0.2849 -0.1201
  847MOL0     C14249   8.475   9.972   2.943 -0.3645  0.4898 -0.5789
  847MOL0     C14250   8.573  10.053   2.857 -0.7092  0.0781 -0.6459
  847MOL0     C14251   8.710  10.078   2.919 -0.2023  0.0239 -0.9435
  847MOL0     C14252   8.711  10.159   3.054 -0.0630 -0.7992  0.5949
  847MOL0     C14253   8.635  10.299   3.037  0.2246  0.4492  0.0881
  847MOL0     C14254   8.629  10.390   3.162  0.1526 -0.4344 -0.2505
  847MOL0    Cl14255   8.483  10.374   3.248 -0.2202 -0.0610  0.0405
  847MOL0     C14256   8.455  10.018   3.313 -0.3888 -1.5471 -0.6354
  847MOL0     C14257   8.521  10.055   3.433  1.4705 -0.8019  0.1729
  847MOL0     O14258   8.867  10.020   3.537 -0.1187  0.7357 -0.8376
  847MOL0     C14259   8.975   9.890   3.769  0.6285 -0.0665 -0.4712
  847MOL0     C14260   9.040   9.850   3.890 -0.6160 -0.4796 -0.4121
  847MOL0     N14261   9.143   9.770   4.706  1.1346  1.2817 -1.0648
  847MOL0     N14262   9.196   9.662   4.731 -0.7674 -0.6014 -0.2047
  847MOL0     C14263   9.574   8.958   5.085 -0.1132 -0.7425 -0.0034
  847MOL0     C14264   9.586   8.823   5.095  0.5990  0.6931 -0.7738
  847MOL0     C14265   9.665   8.399   5.268 -0.3707  0.1503  1.0579
  847MOL0     C14266   9.756   8.384   5.375  0.1149 -0.7292  0.6907
  847MOL0     C14267   9.772   8.252   5.428 -0.1936  0.0344  0.6734
  847MOL0     C14268   9.722   8.139   5.361  0.5681  0.5613  0.1673
  847MOL0     O14269   9.740   8.007   5.399 -0.1788 -0.1171 -0.3658
  847MOL0     C14270   9.782   7.983   5.536 -0.4600 -0.5358 -0.1062
  847MOL0     C14271   9.758   7.843   5.573  0.0736  1.0065 -0.6346
  847MOL0     C14272   9.609   7.800   5.580 -0.3165  0.1104 -0.2606
  847MOL0     C14273   9.602   7.649   5.610  0.2224 -0.0448 -0.2171
  847MOL0     C14274   9.510   7.623   5.719  0.8572 -0.2380 -0.3099
  847MOL0     C14275   9.413   7.603   5.795  0.5214  0.4583  0.2684
  847MOL0     C14276   9.650   8.165   5.243 -0.2309 -0.2275 -0.5869
  847MOL0     C14277   9.612   8.286   5.199 -0.8781  0.0499  1.3975
  847MOL0     H14278   9.716   8.824   5.408  0.0317  0.2404  0.1407
  847MOL0     H14279   9.666   9.051   5.395 -1.1995 -2.3738  2.8208
  847MOL0     H14280   9.412   9.189   5.359 -2.5474  2.6308 -0.8791
  847MOL0     H14281   9.577   9.233   5.371 -2.1950  0.7637  2.2499
  847MOL0     H14282   9.389   9.389   5.183  1.8472 -2.0307 -0.1304
  847MOL0     H14283   9.409   9.434   5.347 -1.1994  0.1848  0.2777
  847MOL0     H14284   9.595   9.554   5.307  1.2434 -0.7665  0.4151
  847MOL0     H14285   9.676   9.415   5.241  0.6122  0.6457  1.6430
  847MOL0     H14286   9.512   9.627   5.092 -1.3240 -0.7827  2.3777
  847MOL0     H14287   9.685   9.615   5.110  0.2620  1.3039  3.3513
  847MOL0     H14288   9.680   9.399   4.990  0.4361  0.6629  0.7015
  847MOL0     H14289   9.503   9.421   4.952 -0.2777  1.2209 -1.1499
  847MOL0     H14290   9.719   9.611   4.870 -0.9507 -0.2880 -1.3403
  847MOL0     H14291   9.660   9.480   4.769  0.0939 -4.8157  3.0892
  847MOL0     H14292   9.459   9.688   4.864 -0.4030 -2.8834  0.6760
  847MOL0     H14293   9.576   9.729   4.738 -1.2722  1.8587  1.2453
  847MOL0     H14294   9.375   9.477   4.743  0.1648 -1.9480 -2.4687
  847MOL0     H14295   9.459   9.527   4.597 -0.2981  2.6819 -0.8900
  847MOL0     H14296   9.416   9.777   4.508  1.1691 -3.5737  0.3337
  847MOL0     H14297   9.132  10.022   4.625  0.2235 -0.8129  0.1136
  847MOL0     H14298   9.260  10.008   4.505 -0.3911  0.9313 -0.2376
  847MOL0     H14299   9.082  10.015   4.360  3.5975  0.2892  0.6532
  847MOL0     H14300   8.965   9.958   4.493  1.8668 -0.1038  2.0105
  847MOL0     H14301   9.012   9.735   4.451  2.8055  1.0503  1.6838
  847MOL0     H14302   9.146   9.760   4.335 -0.2847 -1.2755 -0.0020
  847MOL0     H14303   8.880   9.855   4.264  0.2251 -0.9489  2.5126
  847MOL0     H14304   8.942   9.698   4.222 -0.4975  1.4896 -0.1847
  847MOL0     H14305   8.842  10.001   4.106  3.4229 -1.3097  1.0221
  847MOL0     H14306   8.715  10.184   3.996  0.6412 -0.3557  0.6630
  847MOL0     H14307   8.686  10.204   3.833 -3.7485  0.0385  0.8937
  847MOL0     H14308   8.610  10.065   3.916 -0.5741  0.8130  1.2253
  847MOL0     H14309   8.648   9.754   3.507  0.2329  0.0438 -0.1789
  847MOL0     H14310   8.520   9.686   3.320  2.6004  0.1883  1.7352
  847MOL0     H14311   8.471   9.672   3.108  0.6862  0.2588  0.2134
  847MOL0     H14312   8.349   9.720   3.002 -0.1614 -0.7506  0.7237
  847MOL0     H14313   8.622   9.845   3.055  1.1156  3.6860 -0.7999
  847MOL0     H14314   8.569   9.768   2.911 -1.5811 -1.5092  0.3708
  847MOL0     H14315   8.432  10.023   3.029 -3.4185  1.2605 -2.4108
  847MOL0     H14316   8.394   9.952   2.872  0.8187 -2.2601 -1.3036
  847MOL0     H14317   8.579   9.995   2.764  1.8753 -0.1404 -0.3966
  847MOL0     H14318   8.522  10.147   2.836 -0.6728 -0.2503 -2.3467
  847MOL0     H14319   8.769  10.131   2.845 -0.2097 -0.9418 -1.6598
  847MOL0     H14320   8.760   9.982   2.934 -2.7747 -1.5161 -1.5386
  847MOL0     H14321   8.654  10.105   3.130  1.0143 -1.5635  0.8700
  847MOL0     H14322   8.813  10.173   3.092  0.3768 -3.2658  0.4752
  847MOL0     H14323   8.535  10.284   2.995  0.3602 -0.8496  0.1664
  847MOL0     H14324   8.696  10.345   2.958  1.3083 -0.1969  0.5184
  847MOL0     H14325   8.639  10.496   3.136  1.5572  0.1891  2.4981
  847MOL0     H14326   8.720  10.371   3.220 -1.1619 -0.4959  1.9008
  847MOL0     H14327   8.398  10.093   3.259  0.1424 -1.1432 -0.6506
  847MOL0     H14328   8.532  10.162   3.453 -0.8843  0.0685 -2.5628
  847MOL0     H14329   9.004   9.844   3.675 -1.4009 -3.3641  0.3434
  847MOL0     H14330   9.136   9.800   3.893 -0.6951 -0.5792  1.2900
  847MOL0     H14331   9.551   9.006   4.990  2.0794 -0.2394 -0.3486
  847MOL0     H14332   9.576   8.770   5.000  4.2399  3.7875 -3.2111
  847MOL0     H14333   9.797   8.472   5.424 -1.9698  0.7672 -0.0752
  847MOL0     H14334   9.839   8.257   5.513 -1.5970  1.3620  1.7544
  847MOL0     H14335   9.891   7.996   5.545 -0.4927  0.6868 -1.1435
  847MOL0     H14336   9.732   8.050   5.606 -1.3119 -2.0774  0.7996
  847MOL0     H14337   9.812   7.817   5.665 -3.2319 -4.3794  0.2383
  847MOL0     H14338   9.813   7.785   5.497 -1.3613  0.8411 -1.5975
  847MOL0     H14339   9.561   7.826   5.485 -1.2404  2.7684  0.8399
  847MOL0     H14340   9.563   7.855   5.662 -0.3456 -1.5617  0.9081
  847MOL0     H14341   9.697   7.605   5.643 -0.4007 -0.9616  0.3750
  847MOL0     H14342   9.566   7.604   5.518  0.1782  0.6838 -0.5646
  847MOL0     H14343   9.321   7.595   5.850  1.8627  0.6911  2.6530
  847MOL0     H14344   9.616   8.082   5.182  1.9017 -2.2717  0.8367
  847MOL0     H14345   9.549   8.285   5.111  0.1969 -0.7809  0.6075
  848MOL0     O14346   2.195   3.725   4.102  0.1645 -0.7303 -0.0885
  848MOL0     C14347   2.104   3.648   4.145  0.1537  1.0637  0.2465
  848MOL0     O14348   1.984   3.701   4.193  0.2061  0.1785  0.2629
  848MOL0     C14349   1.974   3.842   4.196  0.9971  0.8521 -0.3002
  848MOL0     C14350   2.064   3.926   4.263 -0.0392  1.0051 -0.0661
  848MOL0     C14351   2.047   4.061   4.264 -0.0482  0.5379 -0.5194
  848MOL0     C14352   1.940   4.123   4.212 -0.5558  0.4340 -0.0984
  848MOL0     O14353   1.911   4.255   4.202 -0.0316  0.1874  0.3530
  848MOL0     C14354   1.995   4.353   4.269 -0.0815 -0.8125 -0.2984
  848MOL0     C14355   1.920   4.493   4.271  0.3477 -0.1696 -0.2471
  848MOL0     C14356   1.940   4.580   4.148 -0.0206 -0.4278  0.1904
  848MOL0     C14357   1.908   4.729   4.174 -0.2320 -0.2665  0.1174
  848MOL0     C14358   1.955   4.822   4.057  0.0266  0.2025 -0.4902
  848MOL0     C14359   1.952   4.969   4.099  0.5533 -0.6174 -0.5290
  848MOL0     C14360   2.006   5.060   3.980 -0.3913 -0.6415 -0.1261
  848MOL0     C14361   2.036   5.199   4.041  0.7050 -0.6676 -0.1199
  848MOL0     N14362   1.921   5.247   4.114 -0.5287 -0.2360  0.0098
  848MOL0     C14363   1.796   5.274   4.060 -0.9791 -0.2104  0.2263
  848MOL0     C14364   1.714   5.294   4.161  0.3564  0.1854  0.2855
  848MOL0     C14365   1.562   5.294   4.162 -0.0397  0.6537  0.0166
  848MOL0     C14366   1.506   5.404   4.074 -0.1241 -0.1705  0.6998
  848MOL0     C14367   1.351   5.408   4.062  0.2334 -0.1133 -1.1865
  848MOL0     C14368   1.295   5.529   3.978 -0.1951  0.7817  0.2060
  848MOL0     O14369   1.321   5.653   4.037  0.4707  0.3645  0.6911
  848MOL0     C14370   1.282   5.765   3.970 -0.0328 -0.2854  0.8460
  848MOL0     C14371   1.355   5.878   3.991 -1.1037  0.0530  0.2622
  848MOL0     C14372   1.340   5.995   3.914  0.0485 -0.9000  0.8095
  848MOL0     C14373   1.422   6.117   3.945  0.4098  1.0146  0.1498
  848MOL0     C14374   1.244   6.000   3.802  0.1308 -0.3217  0.3020
  848MOL0     C14375   1.241   6.109   3.695  0.7410  0.2197  0.0313
  848MOL0     O14376   1.272   6.241   3.731 -0.2983  0.6598 -0.7823
  848MOL0     C14377   1.286   6.345   3.641  0.4480  0.7820  0.8690
  848MOL0     C14378   1.251   6.470   3.690  0.3557  0.2191 -0.1870
  848MOL0     C14379   1.270   6.583   3.605 -0.0354 -0.3689 -0.1510
  848MOL0     C14380   1.322   6.576   3.471 -0.4289 -0.2990 -0.4997
  848MOL0     O14381   1.351   6.683   3.389 -0.0066  0.1532  1.0333
  848MOL0     C14382   1.232   6.765   3.370 -0.6673 -0.1422  0.0841
  848MOL0     C14383   1.257   6.840   3.237 -0.5221  1.0376 -0.9976
  848MOL0     C14384   1.190   6.980   3.230 -1.2308 -0.0298  0.1491
  848MOL0     C14385   1.205   7.045   3.089  0.0912 -0.7293 -0.5185
  848MOL0     C14386   1.106   7.159   3.080 -0.1714 -0.5681  0.1103
  848MOL0     C14387   1.104   7.241   2.952  0.2737  0.5121  0.2482
  848MOL0     C14388   0.982   7.326   2.929  0.2076  0.2995  0.2130
  848MOL0     C14389   1.005   7.432   2.818  0.3118 -0.7746 -0.2063
  848MOL0    Cl14390   1.076   7.578   2.893  0.1521  0.3108 -0.1776
  848MOL0     C14391   1.366   6.444   3.435  0.0050  0.9051 -0.1499
  848MOL0     C14392   1.336   6.334   3.514  1.2780 -0.0458  0.4220
  848MOL0     O14393   1.200   6.068   3.588  0.1027 -0.6143  0.5463
  848MOL0     C14394   1.159   5.893   3.792 -0.2834  0.4207  0.3867
  848MOL0     C14395   1.174   5.774   3.872 -0.4492 -0.4476 -0.1170
  848MOL0     N14396   1.785   5.278   4.275  0.4617 -0.0261  0.0308
  848MOL0     N14397   1.908   5.247   4.250  0.4332 -0.3710  0.0888
  848MOL0     C14398   1.855   4.041   4.137  0.7223  0.3723  0.2886
  848MOL0     C14399   1.868   3.906   4.134  0.7241  0.7558 -0.2077
  848MOL0     C14400   2.134   3.505   4.137 -0.3383  0.3770  0.1010
  848MOL0     C14401   2.049   3.417   4.196  0.3000  0.4419 -0.4437
  848MOL0     C14402   2.075   3.279   4.178 -0.0722  0.8790  0.1185
  848MOL0     C14403   2.178   3.223   4.107 -1.4942 -0.0788  0.5122
  848MOL0     O14404   2.189   3.082   4.098  0.5409 -0.2441 -0.2791
  848MOL0     C14405   2.316   3.012   4.071 -0.4874  0.4619  0.8469
  848MOL0     C14406   2.369   2.954   4.198 -0.8110  0.4158 -0.8210
  848MOL0     C14407   2.292   2.843   4.270  0.1346  0.1889 -0.0465
  848MOL0     C14408   2.323   2.711   4.212  0.3627 -0.3838  0.0179
  848MOL0     C14409   2.218   2.613   4.232 -0.5401  0.0806  0.2258
  848MOL0     C14410   2.131   2.532   4.241 -0.4145  0.1851 -0.1562
  848MOL0     C14411   2.268   3.318   4.047 -0.3631  0.2712 -0.2418
  848MOL0     C14412   2.249   3.453   4.055  0.2531 -0.3525 -0.9107
  848MOL0     H14413   2.155   3.883   4.305 -1.4633 -2.6610 -0.3449
  848MOL0     H14414   2.117   4.128   4.314 -2.0142  2.6365 -0.3981
  848MOL0     H14415   2.007   4.330   4.376 -4.3926  0.4613  0.6459
  848MOL0     H14416   2.086   4.370   4.211  0.1908 -3.8595 -0.9169
  848MOL0     H14417   1.813   4.494   4.295  0.1448  1.2244 -1.0915
  848MOL0     H14418   1.951   4.538   4.366  0.0690  2.0691 -1.1575
  848MOL0     H14419   2.046   4.569   4.122  0.2284 -0.2595  1.1162
  848MOL0     H14420   1.880   4.543   4.065  0.5376 -0.6543 -0.1188
  848MOL0     H14421   1.801   4.750   4.175 -0.0118  1.2287 -1.7675
  848MOL0     H14422   1.947   4.763   4.271 -0.2678  0.0058  0.0381
  848MOL0     H14423   2.061   4.805   4.034  0.4448  5.2938 -3.8073
  848MOL0     H14424   1.901   4.806   3.963  1.7417 -0.2314 -1.4464
  848MOL0     H14425   1.848   5.002   4.107  1.1392  1.3187 -0.3880
  848MOL0     H14426   2.012   4.969   4.191  1.3315 -1.7325 -1.0122
  848MOL0     H14427   2.105   5.027   3.949  0.3290 -0.7445  2.1418
  848MOL0     H14428   1.933   5.059   3.898 -2.5248 -5.4119  1.4966
  848MOL0     H14429   2.080   5.266   3.968  2.0241 -0.4906  0.8060
  848MOL0     H14430   2.111   5.186   4.119 -0.2734  1.3935  1.2613
  848MOL0     H14431   1.781   5.284   3.953  0.7583  0.0041 -0.0216
  848MOL0     H14432   1.526   5.194   4.138  1.3069 -0.2759  1.6489
  848MOL0     H14433   1.530   5.311   4.265 -0.9720 -0.1903 -0.1280
  848MOL0     H14434   1.555   5.382   3.979  1.3843 -3.0417  2.0150
  848MOL0     H14435   1.540   5.506   4.098  0.7736  0.5573 -3.0140
  848MOL0     H14436   1.309   5.409   4.163  0.8986 -5.4108 -0.5285
  848MOL0     H14437   1.312   5.315   4.020 -5.1254  1.3616 -0.1192
  848MOL0     H14438   1.186   5.517   3.975  0.0639 -2.6105 -0.7924
  848MOL0     H14439   1.332   5.512   3.876  0.3902  1.2214  0.3433
  848MOL0     H14440   1.427   5.862   4.070  1.1919  0.1055 -1.6961
  848MOL0     H14441   1.361   6.172   4.018 -1.0450 -1.7831  1.1692
  848MOL0     H14442   1.519   6.082   3.981 -0.0339 -1.1257 -0.6347
  848MOL0     H14443   1.454   6.172   3.856 -0.7029  0.5628 -0.5454
  848MOL0     H14444   1.206   6.492   3.786  0.5800  0.3643 -0.1121
  848MOL0     H14445   1.257   6.685   3.642 -2.4859 -0.3790 -0.8463
  848MOL0     H14446   1.141   6.705   3.370  0.5044 -2.0057 -1.2830
  848MOL0     H14447   1.226   6.831   3.457 -2.4595  1.5078 -1.1981
  848MOL0     H14448   1.365   6.847   3.218  0.1556 -1.5014  1.2988
  848MOL0     H14449   1.221   6.768   3.163  1.5671  0.5421 -1.5953
  848MOL0     H14450   1.227   7.042   3.312  0.1970 -2.2254  1.2417
  848MOL0     H14451   1.086   6.954   3.251 -0.4733 -2.7451  0.8502
  848MOL0     H14452   1.306   7.083   3.076  0.3710 -1.5803 -0.9227
  848MOL0     H14453   1.203   6.973   3.006  5.0702  0.1303 -1.7305
  848MOL0     H14454   1.120   7.232   3.160 -1.7836  2.5052 -2.2236
  848MOL0     H14455   1.003   7.121   3.086 -0.6139  0.1918 -1.8097
  848MOL0     H14456   1.198   7.298   2.950  1.6667 -1.5987  2.0820
  848MOL0     H14457   1.092   7.170   2.870 -1.8353  1.6668 -0.5284
  848MOL0     H14458   0.975   7.369   3.029 -0.8227 -2.5832  1.4731
  848MOL0     H14459   0.895   7.269   2.897 -0.2847  1.6414 -0.9528
  848MOL0     H14460   0.910   7.464   2.775  0.1445  0.0633  0.7418
  848MOL0     H14461   1.057   7.377   2.739 -0.2667 -2.4438  0.5190
  848MOL0     H14462   1.426   6.429   3.346  1.9822  2.6685  0.7901
  848MOL0     H14463   1.358   6.235   3.477  1.8765  0.5907 -1.0185
  848MOL0     H14464   1.081   5.890   3.716 -1.4093  0.0824  1.5026
  848MOL0     H14465   1.100   5.699   3.849 -3.2915  2.1937 -0.1721
  848MOL0     H14466   1.774   4.090   4.084  0.1090 -0.1780  0.7110
  848MOL0     H14467   1.801   3.854   4.066  0.8439  1.7854 -1.1426
  848MOL0     H14468   1.963   3.444   4.257  1.4304 -0.7716  1.8339
  848MOL0     H14469   2.015   3.212   4.238  2.4225 -0.7838  0.9299
  848MOL0     H14470   2.290   2.932   4.002  1.9455 -0.0100  0.3732
  848MOL0     H14471   2.390   3.074   4.019  1.5177 -0.2589  2.6984
  848MOL0     H14472   2.387   3.032   4.272  2.1160 -0.1680 -0.8195
  848MOL0     H14473   2.469   2.920   4.172 -1.3603 -1.3275 -0.8064
  848MOL0     H14474   2.184   2.864   4.266 -0.2109 -0.3081  3.5064
  848MOL0     H14475   2.317   2.851   4.376  0.1187 -1.2063  0.0763
  848MOL0     H14476   2.420   2.675   4.247  2.7104  0.5289 -4.6606
  848MOL0     H14477   2.339   2.724   4.104  3.5108 -2.7103  0.0642
  848MOL0     H14478   2.056   2.456   4.250  0.5389 -0.5201  3.5603
  848MOL0     H14479   2.355   3.292   3.987  1.1136  2.5470  0.7796
  848MOL0     H14480   2.314   3.523   4.003  0.5096  2.0721  2.3960
  849MOL0     O14481   1.620  10.141  11.102  0.7530 -0.6103 -0.2507
  849MOL0     C14482   1.510  10.151  11.045  0.4819 -0.0522 -0.7113
  849MOL0     O14483   1.478  10.103  10.927  0.9285  0.0989 -0.0336
  849MOL0     C14484   1.543   9.999  10.861 -0.0925  1.1553 -0.3396
  849MOL0     C14485   1.528   9.978  10.721 -0.2900 -0.0629 -0.1934
  849MOL0     C14486   1.598   9.887  10.654  0.9874  0.2007 -0.5448
  849MOL0     C14487   1.688   9.797  10.719  0.7842  0.1827  1.0499
  849MOL0     O14488   1.756   9.699  10.654  0.3345  0.5470 -0.1167
  849MOL0     C14489   1.798   9.728  10.515  0.9674  0.4349 -0.4092
  849MOL0     C14490   1.711   9.644  10.426  0.0355 -0.3488 -1.0532
  849MOL0     C14491   1.755   9.657  10.273  0.4393  0.2625  0.1361
  849MOL0     C14492   1.686   9.558  10.183 -0.7124 -0.5740 -0.3299
  849MOL0     C14493   1.722   9.593  10.039  0.7522 -0.4108 -0.0550
  849MOL0     C14494   1.643   9.487   9.949  0.4850  0.1117  0.2566
  849MOL0     C14495   1.657   9.521   9.799 -0.5397  0.3416  0.9795
  849MOL0     C14496   1.573   9.423   9.713  0.2613 -0.3423 -0.0716
  849MOL0     N14497   1.587   9.452   9.567  0.0996  0.5590 -0.2609
  849MOL0     C14498   1.691   9.412   9.485 -0.2432 -0.3637 -0.2103
  849MOL0     C14499   1.633   9.431   9.358  0.8538  0.4454 -0.5389
  849MOL0     C14500   1.709   9.421   9.224 -0.3799  0.6565 -0.7054
  849MOL0     C14501   1.770   9.280   9.215  0.5666  0.3118 -0.2215
  849MOL0     C14502   1.667   9.179   9.164  0.9606  0.6020  0.0191
  849MOL0     C14503   1.718   9.034   9.161 -0.5766  0.2386 -0.1923
  849MOL0     O14504   1.861   9.028   9.174  0.8250 -0.4392 -0.2592
  849MOL0     C14505   1.930   8.920   9.130 -0.7093  0.9017 -0.1159
  849MOL0     C14506   1.876   8.805   9.055 -0.6060  0.0639  0.3566
  849MOL0     C14507   1.950   8.697   9.015 -0.3462 -0.4783  0.3786
  849MOL0     C14508   1.859   8.590   8.944  0.8351 -0.3802 -0.5606
  849MOL0     C14509   2.083   8.693   9.059 -0.2997 -0.4671  0.8320
  849MOL0     C14510   2.162   8.574   9.030 -1.0060  0.0695  0.4374
  849MOL0     O14511   2.102   8.453   9.007  0.1324  0.4004  0.1512
  849MOL0     C14512   2.167   8.344   8.958 -0.9810 -0.5076  0.4035
  849MOL0     C14513   2.107   8.279   8.856  0.4119  0.3064  0.7487
  849MOL0     C14514   2.158   8.160   8.802 -0.7491  0.0682  0.1797
  849MOL0     C14515   2.281   8.108   8.851  0.4713  0.4518 -0.6982
  849MOL0     O14516   2.331   7.994   8.793  0.2901 -0.0382  0.2501
  849MOL0     C14517   2.460   8.014   8.732  0.1280  0.5244 -0.0351
  849MOL0     C14518   2.491   7.900   8.640  0.5129 -0.0737  0.7714
  849MOL0     C14519   2.626   7.915   8.570 -0.2650 -0.1566 -0.7063
  849MOL0     C14520   2.641   7.811   8.462  0.0452  0.1479 -0.0121
  849MOL0     C14521   2.761   7.826   8.376  0.6317 -0.9048 -0.3333
  849MOL0     C14522   2.905   7.824   8.440  0.6817 -0.8163 -1.0025
  849MOL0     C14523   2.923   7.700   8.539  0.1716  0.9560  0.4979
  849MOL0     C14524   3.067   7.704   8.592  0.4075 -0.1890  0.6717
  849MOL0    Cl14525   3.071   7.567   8.703  0.2457 -0.4206  0.0226
  849MOL0     C14526   2.345   8.180   8.951 -0.1582  0.7632  0.0113
  849MOL0     C14527   2.291   8.295   9.010 -0.0222  1.1556 -0.8337
  849MOL0     O14528   2.280   8.600   8.999  0.5718  0.4404 -1.0469
  849MOL0     C14529   2.141   8.807   9.131  0.3892 -0.0478  0.3667
  849MOL0     C14530   2.063   8.916   9.161 -0.5190 -0.1383 -0.2735
  849MOL0     N14531   1.509   9.489   9.371 -0.0807 -0.6214 -0.3606
  849MOL0     N14532   1.479   9.506   9.494  0.3366  0.4228  0.4663
  849MOL0     C14533   1.707   9.809  10.854  0.7549 -0.1529 -0.4789
  849MOL0     C14534   1.639   9.918  10.933  0.3192  0.5299 -0.0938
  849MOL0     C14535   1.416  10.231  11.114  0.0747 -0.0689  0.1751
  849MOL0     C14536   1.433  10.285  11.245  0.2957 -0.9524 -0.3421
  849MOL0     C14537   1.335  10.362  11.309  0.6008 -0.4037  0.2628
  849MOL0     C14538   1.209  10.371  11.246  0.6895  0.1836  0.6473
  849MOL0     O14539   1.104  10.445  11.293  0.1004  0.0106  0.6238
  849MOL0     C14540   1.086  10.465  11.437 -0.2785  0.6305  0.4638
  849MOL0     C14541   0.943  10.519  11.466  0.1730 -0.7582  0.1347
  849MOL0     C14542   0.928  10.663  11.415  0.5327 -0.7049  0.7004
  849MOL0     C14543   0.778  10.707  11.414  0.1498  0.3257 -0.1699
  849MOL0     C14544   0.780  10.853  11.396  1.2597 -0.6817 -0.3859
  849MOL0     C14545   0.755  10.963  11.346 -0.1109  0.0717  0.2755
  849MOL0     C14546   1.194  10.322  11.112 -0.1851  0.3123 -0.9177
  849MOL0     C14547   1.292  10.258  11.047 -0.1991  0.2461 -0.1313
  849MOL0     H14548   1.448  10.036  10.676 -0.3871  0.1327  0.2273
  849MOL0     H14549   1.575   9.884  10.548  1.8449 -1.8232 -0.7224
  849MOL0     H14550   1.791   9.836  10.496 -1.1307  0.8844  2.2623
  849MOL0     H14551   1.905   9.707  10.508  0.9211 -1.9039  3.2916
  849MOL0     H14552   1.718   9.539  10.457 -5.3911 -0.1351  2.1535
  849MOL0     H14553   1.604   9.664  10.431  0.0639 -0.4479  0.6178
  849MOL0     H14554   1.734   9.758  10.236  1.0704  0.6416  0.7840
  849MOL0     H14555   1.862   9.641  10.262  0.8441  0.9390  2.4917
  849MOL0     H14556   1.719   9.456  10.204  1.3093  0.1260  0.1273
  849MOL0     H14557   1.577   9.553  10.187 -0.7469 -0.6253 -1.2205
  849MOL0     H14558   1.681   9.692  10.013  0.0117 -0.2295  1.6515
  849MOL0     H14559   1.829   9.606  10.019  0.2187  2.4580 -1.7242
  849MOL0     H14560   1.686   9.390   9.976 -1.0972 -0.7269 -0.1359
  849MOL0     H14561   1.534   9.494   9.955  0.5606  1.0866  0.7338
  849MOL0     H14562   1.628   9.624   9.776 -0.0160  0.0373 -1.2069
  849MOL0     H14563   1.763   9.517   9.771 -0.5282 -0.7180  1.1250
  849MOL0     H14564   1.467   9.441   9.731 -0.9506 -2.4732 -3.8118
  849MOL0     H14565   1.608   9.324   9.743 -5.1665 -3.0690 -1.3493
  849MOL0     H14566   1.793   9.384   9.508  0.4650  0.5893 -2.0189
  849MOL0     H14567   1.646   9.431   9.135  0.3303  0.1089 -1.2787
  849MOL0     H14568   1.796   9.485   9.209 -0.7395  0.7495 -2.6204
  849MOL0     H14569   1.801   9.243   9.313  2.5725 -1.2004 -1.3699
  849MOL0     H14570   1.855   9.278   9.147  1.9468 -0.1627  1.4415
  849MOL0     H14571   1.638   9.188   9.059  2.3807 -0.3219 -0.4727
  849MOL0     H14572   1.574   9.179   9.223  1.0699 -0.8723  0.2541
  849MOL0     H14573   1.688   8.987   9.067  0.4960 -2.3048  0.6550
  849MOL0     H14574   1.679   8.984   9.251  4.2774  2.4249  3.6009
  849MOL0     H14575   1.769   8.800   9.035 -0.4425 -0.0626 -0.5299
  849MOL0     H14576   1.917   8.543   8.864  0.8326  1.6125 -1.7935
  849MOL0     H14577   1.838   8.515   9.022  1.7342  1.4661  1.5839
  849MOL0     H14578   1.765   8.625   8.901  0.0233  1.0676  2.1176
  849MOL0     H14579   2.015   8.319   8.815 -0.0296 -1.7206 -0.3612
  849MOL0     H14580   2.100   8.117   8.721  0.7461  0.6349 -1.2469
  849MOL0     H14581   2.459   8.103   8.669  1.3130  2.4431  2.4517
  849MOL0     H14582   2.533   8.002   8.813 -3.1308  1.2087  3.2840
  849MOL0     H14583   2.501   7.807   8.697  1.3767  1.0242  2.4875
  849MOL0     H14584   2.414   7.886   8.564  1.9002 -1.0491 -0.5131
  849MOL0     H14585   2.699   7.917   8.651  0.7524  2.8386 -1.5489
  849MOL0     H14586   2.653   8.012   8.528  1.6450 -0.9608 -1.4240
  849MOL0     H14587   2.652   7.718   8.519  2.1025 -0.1895 -0.8417
  849MOL0     H14588   2.550   7.806   8.402  0.5157  2.2791 -0.9665
  849MOL0     H14589   2.744   7.923   8.328  1.5492 -0.0634  0.9825
  849MOL0     H14590   2.751   7.748   8.300  0.9754 -0.3093 -1.0047
  849MOL0     H14591   2.967   7.805   8.352  1.3329 -1.2573 -0.4583
  849MOL0     H14592   2.918   7.921   8.489 -1.4252 -0.6811 -0.6199
  849MOL0     H14593   2.907   7.607   8.483  5.3505 -0.5063  0.8762
  849MOL0     H14594   2.851   7.709   8.620  1.1239 -2.7061  1.9314
  849MOL0     H14595   3.083   7.803   8.634  0.5676  0.9422 -1.8446
  849MOL0     H14596   3.133   7.682   8.507 -0.3868  0.9846 -0.2808
  849MOL0     H14597   2.443   8.156   8.991  1.0231  1.3975 -2.2921
  849MOL0     H14598   2.347   8.347   9.087 -1.0909  0.4613  0.4342
  849MOL0     H14599   2.242   8.804   9.169  0.5459 -0.6625 -0.0821
  849MOL0     H14600   2.116   8.998   9.210 -1.1381  0.1916 -0.1414
  849MOL0     H14601   1.771   9.741  10.909 -0.3735 -0.2151  0.7995
  849MOL0     H14602   1.629   9.912  11.041 -3.4272  4.6786  0.0634
  849MOL0     H14603   1.518  10.263  11.309 -0.5304 -2.0105  0.4432
  849MOL0     H14604   1.354  10.403  11.407  0.5398 -2.7919  1.3565
  849MOL0     H14605   1.084  10.370  11.492 -1.1746  1.6117  2.2087
  849MOL0     H14606   1.165  10.529  11.478 -0.1191  1.3902 -0.9579
  849MOL0     H14607   0.928  10.516  11.574  1.0028 -2.2102  0.2323
  849MOL0     H14608   0.870  10.446  11.430  3.6033 -4.3620 -0.2079
  849MOL0     H14609   0.958  10.653  11.310 -3.0841  2.0908 -0.8187
  849MOL0     H14610   0.993  10.730  11.472  0.8234 -0.3038 -0.0875
  849MOL0     H14611   0.730  10.698  11.512 -1.5980  4.6722 -0.4044
  849MOL0     H14612   0.712  10.658  11.342  1.9640 -0.7942 -1.1430
  849MOL0     H14613   0.735  11.056  11.298  1.6862  0.1328 -0.4364
  849MOL0     H14614   1.100  10.332  11.057  0.5882 -2.4029 -2.9967
  849MOL0     H14615   1.270  10.223  10.947 -1.8287 -1.0909  0.6496
  850MOL0     O14616   8.936   2.279  11.445 -0.2081  0.9565  0.2286
  850MOL0     C14617   8.842   2.249  11.529 -0.5112  0.2656 -0.2546
  850MOL0     O14618   8.823   2.294  11.654 -0.5490 -0.7465  0.2103
  850MOL0     C14619   8.898   2.398  11.694  0.2022 -0.9263 -0.1807
  850MOL0     C14620   8.954   2.401  11.810 -0.5711 -0.4766 -0.2588
  850MOL0     C14621   9.015   2.512  11.861 -0.6600 -0.0087  0.8648
  850MOL0     C14622   9.018   2.636  11.784  0.4568 -0.2603 -0.0333
  850MOL0     O14623   9.069   2.754  11.822 -1.1271  0.4905 -0.2774
  850MOL0     C14624   9.035   2.812  11.949 -0.0256 -0.1332 -0.5433
  850MOL0     C14625   9.126   2.935  11.968  0.1985 -0.1356  0.2861
  850MOL0     C14626   9.055   3.069  11.940  0.0564 -0.7121 -0.4017
  850MOL0     C14627   9.154   3.193  11.944  0.8112  0.2038 -0.0896
  850MOL0     C14628   9.081   3.327  11.906  0.4256  0.9680  0.1757
  850MOL0     C14629   8.981   3.374  12.009  0.0213  0.2385 -0.4668
  850MOL0     C14630   8.947   3.524  12.006 -0.4519 -0.2268  0.8139
  850MOL0     C14631   8.842   3.544  12.124 -0.2455 -0.9166 -0.2636
  850MOL0     N14632   8.913   3.541  12.252  0.0020  0.1705 -0.3344
  850MOL0     C14633   9.010   3.622  12.296 -0.6853  0.1972 -0.6020
  850MOL0     C14634   9.040   3.569  12.415 -0.2740 -1.7478 -0.5520
  850MOL0     C14635   9.162   3.620  12.494 -0.2748  0.1609  0.8214
  850MOL0     C14636   9.146   3.581  12.638 -0.3489  0.5859  0.4276
  850MOL0     C14637   9.248   3.642  12.727  0.0336 -0.3976 -0.1341
  850MOL0     C14638   9.207   3.619  12.874  0.6325 -0.5259  0.2689
  850MOL0     O14639   9.301   3.649  12.974 -0.2485 -0.2845 -0.4045
  850MOL0     C14640   9.256   3.601  13.101  0.2318 -0.0436  0.2023
  850MOL0     C14641   9.265   3.466  13.135 -0.6168  0.4243  0.3227
  850MOL0     C14642   9.207   3.405  13.248  0.3087  0.0734 -0.1088
  850MOL0     C14643   9.227   3.259  13.259 -0.7099 -0.0659 -0.5612
  850MOL0     C14644   9.141   3.500  13.340  0.3141 -0.3719  0.0714
  850MOL0     C14645   9.086   3.452  13.468 -0.0472 -0.7361  0.9919
  850MOL0     O14646   9.112   3.541  13.575  0.5878 -0.3736 -0.0973
  850MOL0     C14647   9.053   3.546  13.694  0.2104  0.7790  0.0188
  850MOL0     C14648   9.117   3.621  13.793  0.1296 -0.6564  0.0113
  850MOL0     C14649   9.074   3.615  13.934  0.4774 -0.0991  0.4206
  850MOL0     C14650   8.957   3.542  13.957 -0.0280  0.5154 -0.2105
  850MOL0     O14651   8.899   3.527  14.074  0.2096 -0.6381 -0.5990
  850MOL0     C14652   8.977   3.461  14.171  1.0044 -0.1080  0.4412
  850MOL0     C14653   8.923   3.500  14.302 -0.1498 -0.1426 -0.1350
  850MOL0     C14654   8.786   3.454  14.339  0.0800 -0.5552  0.2490
  850MOL0     C14655   8.683   3.559  14.288  0.1200  0.0553 -0.0878
  850MOL0     C14656   8.533   3.561  14.332 -0.9856 -0.0758 -0.5153
  850MOL0     C14657   8.477   3.703  14.297  1.1048  0.2474 -1.0026
  850MOL0     C14658   8.546   3.835  14.345 -0.8793 -0.5302  0.3890
  850MOL0     C14659   8.452   3.958  14.346  0.8632 -0.2524  0.8699
  850MOL0    Cl14660   8.382   3.990  14.184 -0.5852  0.6213 -0.2434
  850MOL0     C14661   8.888   3.474  13.858 -0.2106 -0.2626 -0.0296
  850MOL0     C14662   8.936   3.474  13.723  0.1593 -0.3608 -0.2966
  850MOL0     O14663   9.026   3.348  13.483  0.3655  0.4318 -0.1433
  850MOL0     C14664   9.134   3.638  13.295  0.9473  1.0272 -0.3395
  850MOL0     C14665   9.193   3.687  13.185 -0.7296 -0.0564  0.4890
  850MOL0     N14666   8.971   3.455  12.436 -0.9391 -0.3435 -1.4439
  850MOL0     N14667   8.895   3.436  12.335 -0.5325 -0.2487  0.1948
  850MOL0     C14668   8.962   2.633  11.652 -0.4889 -0.1166 -0.2113
  850MOL0     C14669   8.901   2.516  11.612  0.3702 -1.0527  0.7517
  850MOL0     C14670   8.747   2.144  11.496 -0.2944 -0.0603 -0.3350
  850MOL0     C14671   8.636   2.097  11.581  0.2489  0.7792  0.3245
  850MOL0     C14672   8.542   2.006  11.534 -0.1398 -0.1212 -0.4827
  850MOL0     C14673   8.561   1.946  11.412 -0.3390 -0.1912  0.5564
  850MOL0     O14674   8.476   1.850  11.358 -0.1840 -0.2445 -0.4304
  850MOL0     C14675   8.336   1.842  11.413  0.1545 -0.0222 -0.6662
  850MOL0     C14676   8.228   1.793  11.305  0.2291  1.0353 -1.0215
  850MOL0     C14677   8.189   1.893  11.202 -0.4093  0.5449  0.5334
  850MOL0     C14678   8.079   1.843  11.121 -0.3631 -0.0500  0.2139
  850MOL0     C14679   8.065   1.910  10.991  0.7996  0.3173 -1.1806
  850MOL0     C14680   8.029   1.972  10.900  0.7311 -0.5875  0.0415
  850MOL0     C14681   8.670   1.977  11.330  0.0972 -0.6968 -0.9310
  850MOL0     C14682   8.758   2.077  11.373 -0.4103 -0.0983  0.0121
  850MOL0     H14683   8.957   2.327  11.890 -0.6478  1.4446  1.5921
  850MOL0     H14684   9.063   2.509  11.958 -2.1088  1.5570  1.6830
  850MOL0     H14685   8.929   2.840  11.952  0.4403  1.8692 -1.3462
  850MOL0     H14686   9.058   2.745  12.032 -0.8435  1.3284  0.9126
  850MOL0     H14687   9.165   2.951  12.069 -0.4292  6.8307 -0.0939
  850MOL0     H14688   9.217   2.929  11.908  0.7964  2.1184  0.8787
  850MOL0     H14689   9.008   3.058  11.843 -1.0010 -0.3870  0.0659
  850MOL0     H14690   8.973   3.081  12.011 -1.2927 -1.7036 -1.7289
  850MOL0     H14691   9.214   3.192  12.035  0.5577  1.2221  0.0950
  850MOL0     H14692   9.223   3.176  11.860  0.5428 -0.5201 -0.1730
  850MOL0     H14693   9.149   3.408  11.880 -0.3616  1.9760  1.1060
  850MOL0     H14694   9.033   3.307  11.809  3.0645 -0.6097 -0.8879
  850MOL0     H14695   8.887   3.319  12.000 -0.2450  0.0268  2.4442
  850MOL0     H14696   9.012   3.362  12.113  2.4971  2.8154 -0.7974
  850MOL0     H14697   9.037   3.585  12.008  0.9331 -1.9522 -2.1204
  850MOL0     H14698   8.898   3.554  11.912 -1.3411 -0.2279  1.2611
  850MOL0     H14699   8.762   3.471  12.110  1.0896 -2.1993 -1.5130
  850MOL0     H14700   8.782   3.635  12.110 -0.5092 -1.0092  0.2221
  850MOL0     H14701   9.055   3.710  12.250 -0.3679  1.2823  1.6722
  850MOL0     H14702   9.246   3.560  12.460  1.2207  1.2537  2.4107
  850MOL0     H14703   9.186   3.727  12.487 -2.7296  0.8385  1.6876
  850MOL0     H14704   9.153   3.472  12.645  1.0818  0.7160  1.6183
  850MOL0     H14705   9.054   3.630  12.671 -0.0610  1.1748  0.3793
  850MOL0     H14706   9.265   3.749  12.716  1.3584 -0.4743  0.8535
  850MOL0     H14707   9.344   3.592  12.711 -0.4741 -0.8736 -1.8986
  850MOL0     H14708   9.175   3.515  12.886  0.4389 -0.5618 -0.5181
  850MOL0     H14709   9.126   3.691  12.893  1.6559  1.8974 -3.4949
  850MOL0     H14710   9.325   3.402  13.071  3.6303  1.6958  2.6362
  850MOL0     H14711   9.326   3.233  13.221 -0.2993  1.5431 -0.6738
  850MOL0     H14712   9.219   3.237  13.366  1.7564 -2.4451 -0.7752
  850MOL0     H14713   9.147   3.202  13.211  0.2248 -0.3562 -1.8305
  850MOL0     H14714   9.202   3.685  13.770 -0.7655  0.5110 -0.1197
  850MOL0     H14715   9.115   3.662  14.023 -0.7603 -1.4398  1.7615
  850MOL0     H14716   8.980   3.353  14.154  4.2392  0.0516 -0.7507
  850MOL0     H14717   9.081   3.495  14.165  0.7885  0.3380 -2.7853
  850MOL0     H14718   8.988   3.464  14.382  0.8047 -0.0572 -0.8526
  850MOL0     H14719   8.941   3.607  14.313  0.6538 -0.2308 -0.5097
  850MOL0     H14720   8.787   3.438  14.447 -2.9074 -1.2445  0.2671
  850MOL0     H14721   8.761   3.360  14.289 -0.2078  0.3317 -1.3446
  850MOL0     H14722   8.733   3.654  14.310  1.5623 -0.2728 -1.8154
  850MOL0     H14723   8.672   3.551  14.180  1.4896  2.6555 -0.4867
  850MOL0     H14724   8.528   3.553  14.441 -0.3188 -2.7836 -0.6114
  850MOL0     H14725   8.496   3.462  14.307 -1.5647 -0.5173  1.8288
  850MOL0     H14726   8.463   3.697  14.189 -0.6403 -2.2411 -0.7274
  850MOL0     H14727   8.377   3.703  14.341  1.7744 -2.3389  0.7097
  850MOL0     H14728   8.635   3.844  14.283 -1.8394 -0.7043 -1.0657
  850MOL0     H14729   8.593   3.831  14.443  3.2183  0.8095 -1.3181
  850MOL0     H14730   8.487   4.056  14.381 -3.0272  1.5664  0.2734
  850MOL0     H14731   8.368   3.938  14.412  0.8097  1.1891  1.2776
  850MOL0     H14732   8.802   3.414  13.887  1.4164 -1.7357  2.0692
  850MOL0     H14733   8.880   3.417  13.650  0.5501 -0.4047 -0.5645
  850MOL0     H14734   9.083   3.717  13.348 -1.4151 -0.7366  0.1703
  850MOL0     H14735   9.204   3.790  13.152  1.4145 -1.0554 -2.3113
  850MOL0     H14736   8.958   2.717  11.583 -1.4087  2.5770  2.8487
  850MOL0     H14737   8.858   2.519  11.512  0.3175 -2.4386  0.7131
  850MOL0     H14738   8.614   2.145  11.676 -1.9102  1.5799 -0.5242
  850MOL0     H14739   8.466   1.983  11.608  2.0542  1.8132  2.5899
  850MOL0     H14740   8.321   1.774  11.498  1.5004  2.5813  1.8540
  850MOL0     H14741   8.316   1.944  11.449 -1.3838  0.2781 -2.2032
  850MOL0     H14742   8.144   1.771  11.372  2.4152 -2.5157  0.8736
  850MOL0     H14743   8.259   1.699  11.259  3.8787  0.3708  2.2739
  850MOL0     H14744   8.271   1.922  11.136  0.5165 -0.1082  1.3812
  850MOL0     H14745   8.146   1.982  11.249  0.6711  0.4177  1.7979
  850MOL0     H14746   7.986   1.859  11.177  0.5472 -2.1222  2.4997
  850MOL0     H14747   8.078   1.738  11.089 -1.8816  0.5337 -1.8325
  850MOL0     H14748   7.984   2.023  10.817  2.9846 -1.5143 -1.8720
  850MOL0     H14749   8.698   1.909  11.251  0.1324 -1.6658 -0.1090
  850MOL0     H14750   8.846   2.100  11.312  0.3234  0.5238  1.2733
  851MOL0     O14751   9.775   2.033   5.886 -0.0828  0.3233  0.3615
  851MOL0     C14752   9.900   2.047   5.872  0.6219  0.2808 -0.4703
  851MOL0     O14753   9.987   2.021   5.971 -0.0066  0.0633 -0.4209
  851MOL0     C14754   9.945   1.956   6.082  0.9341 -0.9078  0.2343
  851MOL0     C14755   9.950   1.823   6.097  0.9162  0.6412  0.1674
  851MOL0     C14756   9.909   1.748   6.214 -0.4981  0.4033 -0.3573
  851MOL0     C14757   9.841   1.819   6.314 -0.8577 -1.2487 -0.1949
  851MOL0     O14758   9.769   1.759   6.424  0.8261  0.8205  1.6009
  851MOL0     C14759   9.823   1.637   6.472 -0.4623  0.1897 -0.1267
  851MOL0     C14760   9.757   1.608   6.608  0.9542  0.2470  0.5353
  851MOL0     C14761   9.609   1.565   6.602 -0.3747  0.0150  0.5774
  851MOL0     C14762   9.557   1.525   6.748 -0.6727 -0.0808 -0.2205
  851MOL0     C14763   9.419   1.476   6.762 -0.4245  0.4340  0.3860
  851MOL0     C14764   9.381   1.349   6.682  0.4383  0.9117  0.7589
  851MOL0     C14765   9.247   1.303   6.729  0.2990 -0.2913  0.4411
  851MOL0     C14766   9.215   1.172   6.655  0.5568  0.9114  0.8142
  851MOL0     N14767   9.089   1.124   6.701  0.9480 -0.6020 -0.4385
  851MOL0     C14768   8.970   1.170   6.651 -0.2390 -0.8568  1.1833
  851MOL0     C14769   8.871   1.092   6.699 -0.9509  0.1585  0.9387
  851MOL0     C14770   8.722   1.120   6.667 -0.5481  0.1208 -0.2261
  851MOL0     C14771   8.679   1.131   6.526  0.0615  0.3673 -0.0735
  851MOL0     C14772   8.661   1.002   6.444  0.3335  1.1587  0.5507
  851MOL0     C14773   8.641   1.025   6.291  0.2130  0.3479 -0.6608
  851MOL0     O14774   8.529   1.106   6.257  0.6041 -0.2296  0.6007
  851MOL0     C14775   8.408   1.037   6.220 -0.2226  0.3173 -0.7895
  851MOL0     C14776   8.365   0.904   6.242 -1.2303  0.0077  0.0777
  851MOL0     C14777   8.247   0.856   6.189  1.0899  0.3236 -0.8034
  851MOL0     C14778   8.220   0.709   6.190  0.3713 -0.1429 -0.2942
  851MOL0     C14779   8.154   0.951   6.137  0.1329  0.9485  0.1614
  851MOL0     C14780   8.021   0.908   6.096 -0.6980  0.4984  0.0582
  851MOL0     O14781   7.944   0.832   6.181  0.0791  0.5150  0.5898
  851MOL0     C14782   7.852   0.755   6.122  0.6506  0.0115 -0.5761
  851MOL0     C14783   7.898   0.649   6.037  0.6917 -1.1114  0.6219
  851MOL0     C14784   7.813   0.560   5.982  0.6987 -1.0060  0.5563
  851MOL0     C14785   7.679   0.570   6.015 -0.0040  0.1492 -0.1574
  851MOL0     O14786   7.597   0.466   5.968 -0.9937  0.6535  0.1744
  851MOL0     C14787   7.611   0.438   5.830 -0.3799  0.3440 -0.0256
  851MOL0     C14788   7.481   0.400   5.752  0.2472  0.4820 -0.3507
  851MOL0     C14789   7.438   0.260   5.795 -0.2186 -0.3495 -0.2343
  851MOL0     C14790   7.326   0.203   5.712  0.4338  0.1079 -0.8514
  851MOL0     C14791   7.278   0.069   5.758  0.5808  0.1852  0.5498
  851MOL0     C14792   7.149   0.026   5.690 -0.4507 -0.0551  0.2253
  851MOL0     C14793   7.077  -0.102   5.750  0.0187  0.2966 -0.3519
  851MOL0     C14794   6.957  -0.133   5.659  0.4966  0.6394 -0.8496
  851MOL0    Cl14795   6.836  -0.239   5.744  0.1968 -0.2920  0.2252
  851MOL0     C14796   7.628   0.658   6.106 -0.0189  0.1364 -0.0923
  851MOL0     C14797   7.714   0.754   6.156 -0.4289  0.0188  0.2368
  851MOL0     O14798   7.982   0.934   5.980 -0.5855 -0.2763 -0.0265
  851MOL0     C14799   8.201   1.075   6.099  0.6067 -0.5226  0.1057
  851MOL0     C14800   8.322   1.116   6.149  0.6823 -0.1086 -0.2352
  851MOL0     N14801   8.921   1.014   6.795 -0.4468 -0.9924  0.5612
  851MOL0     N14802   9.053   1.032   6.794  0.0784 -0.0193 -0.3473
  851MOL0     C14803   9.831   1.961   6.297 -0.0174 -0.3556 -0.0503
  851MOL0     C14804   9.873   2.026   6.181  0.0620 -0.3655 -0.6379
  851MOL0     C14805   9.958   2.090   5.747 -0.9576  0.3039 -0.1379
  851MOL0     C14806  10.097   2.063   5.730 -0.0198  0.2824  0.7061
  851MOL0     C14807  10.152   2.062   5.602 -1.2646 -0.1137  0.7534
  851MOL0     C14808  10.083   2.097   5.493 -0.7870  0.0845  0.2347
  851MOL0     O14809  10.135   2.094   5.361 -0.4407  0.3675 -0.0379
  851MOL0     C14810  10.275   2.104   5.346 -0.3923  0.2543  0.5372
  851MOL0     C14811  10.316   2.125   5.201  0.2554 -0.5164  0.1167
  851MOL0     C14812  10.294   2.269   5.165 -0.1192 -1.0596 -0.7311
  851MOL0     C14813  10.312   2.307   5.021  0.0340  0.5421 -0.4775
  851MOL0     C14814  10.452   2.285   4.977 -0.1694 -1.1830  0.2374
  851MOL0     C14815  10.564   2.267   4.930 -0.6152 -1.0865  0.3068
  851MOL0     C14816   9.948   2.134   5.506 -0.0070  0.3730 -0.4832
  851MOL0     C14817   9.883   2.134   5.636 -0.4394  0.8234 -0.7350
  851MOL0     H14818   9.991   1.773   6.010 -1.6654  1.3206 -1.5829
  851MOL0     H14819   9.931   1.641   6.215  0.1729  0.5295 -1.2136
  851MOL0     H14820   9.795   1.553   6.408 -3.9664 -0.5549  2.0826
  851MOL0     H14821   9.932   1.647   6.478 -0.0832 -2.1320 -1.5921
  851MOL0     H14822   9.819   1.523   6.639 -1.1089 -1.3075  0.6304
  851MOL0     H14823   9.768   1.700   6.667  0.4409  0.3064  0.5432
  851MOL0     H14824   9.554   1.649   6.559  2.3445  1.3028 -0.6659
  851MOL0     H14825   9.600   1.481   6.533 -0.7284 -2.0542  2.9861
  851MOL0     H14826   9.629   1.453   6.789  1.8805  1.6173 -1.4669
  851MOL0     H14827   9.573   1.606   6.820  1.8294 -1.2797  0.6988
  851MOL0     H14828   9.398   1.477   6.869 -1.4468  1.1689  0.1972
  851MOL0     H14829   9.338   1.542   6.729 -3.4900  0.2091  6.2498
  851MOL0     H14830   9.384   1.364   6.574 -0.3158 -0.8606  0.4505
  851MOL0     H14831   9.457   1.274   6.706 -2.7200 -3.4191 -1.4422
  851MOL0     H14832   9.242   1.283   6.837  0.9958  1.2976  0.8048
  851MOL0     H14833   9.172   1.381   6.718  0.8829  0.7508  3.0273
  851MOL0     H14834   9.288   1.091   6.666 -0.7483 -0.2712  1.0000
  851MOL0     H14835   9.203   1.194   6.548 -1.7397  0.9479  1.0443
  851MOL0     H14836   8.953   1.250   6.579  0.8436 -1.5018  0.1839
  851MOL0     H14837   8.666   1.039   6.713 -0.8647  1.7789  2.4914
  851MOL0     H14838   8.693   1.208   6.724  0.8970 -1.3511  3.0301
  851MOL0     H14839   8.751   1.186   6.465  0.6587 -1.0760 -0.7104
  851MOL0     H14840   8.584   1.185   6.531  0.3072  0.7259  3.5472
  851MOL0     H14841   8.571   0.953   6.482  0.3583  3.2328  3.6617
  851MOL0     H14842   8.746   0.937   6.468 -1.6948 -1.2483  1.7752
  851MOL0     H14843   8.632   0.932   6.234 -1.1864  0.9773 -1.5329
  851MOL0     H14844   8.735   1.076   6.265 -0.4031  1.0169 -1.6570
  851MOL0     H14845   8.429   0.833   6.295 -2.8248 -1.4565  0.1273
  851MOL0     H14846   8.296   0.649   6.240  1.1791  0.5332 -0.6776
  851MOL0     H14847   8.128   0.674   6.238 -1.2089  1.1347 -2.2314
  851MOL0     H14848   8.219   0.689   6.083  0.6141  1.4275 -0.6142
  851MOL0     H14849   8.003   0.641   6.013  1.6189  2.2422  2.8145
  851MOL0     H14850   7.860   0.487   5.917  0.0717 -0.9706  0.0513
  851MOL0     H14851   7.657   0.520   5.775 -0.9958 -0.6257 -2.0801
  851MOL0     H14852   7.685   0.358   5.819  0.0136  0.8184 -0.8320
  851MOL0     H14853   7.407   0.480   5.759 -0.0660  0.0942  1.2445
  851MOL0     H14854   7.498   0.383   5.645 -1.1861  4.3493 -1.3750
  851MOL0     H14855   7.400   0.270   5.897  0.4523  0.2675 -0.0302
  851MOL0     H14856   7.523   0.192   5.802  0.3067  0.3025 -0.1380
  851MOL0     H14857   7.245   0.276   5.711  0.7280  0.5261 -3.9773
  851MOL0     H14858   7.365   0.192   5.611  0.1586 -1.6037 -0.8178
  851MOL0     H14859   7.257   0.078   5.865  0.3829 -0.8169  0.6052
  851MOL0     H14860   7.363   0.004   5.738 -0.6124 -0.1816 -4.4962
  851MOL0     H14861   7.082   0.113   5.696  1.5286  1.6060 -0.4516
  851MOL0     H14862   7.160   0.017   5.581 -3.3376 -0.5092 -0.1151
  851MOL0     H14863   7.049  -0.096   5.856  1.9155  2.5788  0.1092
  851MOL0     H14864   7.148  -0.186   5.753 -0.6553 -0.2752 -0.2211
  851MOL0     H14865   6.986  -0.179   5.565  2.3277 -1.7601  0.7754
  851MOL0     H14866   6.907  -0.036   5.655  1.4972  1.1253 -2.2399
  851MOL0     H14867   7.521   0.662   6.126  0.2457 -0.8938  1.7334
  851MOL0     H14868   7.673   0.825   6.227 -1.1208  2.6295 -2.5607
  851MOL0     H14869   8.141   1.141   6.037 -1.6475 -3.8096 -1.5667
  851MOL0     H14870   8.348   1.218   6.123  4.1474 -0.4333  1.4484
  851MOL0     H14871   9.760   2.017   6.356 -2.0652 -2.6045 -0.2234
  851MOL0     H14872   9.873   2.134   6.163  1.1433 -0.0584  0.9946
  851MOL0     H14873  10.154   2.022   5.813 -1.0670 -1.4523  0.6157
  851MOL0     H14874  10.257   2.036   5.594 -1.2386 -0.6106  2.2995
  851MOL0     H14875  10.307   2.187   5.409  1.1738 -0.8349  1.2606
  851MOL0     H14876  10.310   2.006   5.381  0.8550  0.3571 -0.3531
  851MOL0     H14877  10.266   2.049   5.141 -2.2390  1.0785 -0.0007
  851MOL0     H14878  10.424   2.108   5.197  0.2280 -0.6099 -0.2684
  851MOL0     H14879  10.379   2.316   5.214  0.3680 -2.0946 -0.5423
  851MOL0     H14880  10.195   2.302   5.199  0.3168  0.7550 -1.1647
  851MOL0     H14881  10.283   2.411   4.999 -0.2789  0.3021 -1.2529
  851MOL0     H14882  10.240   2.242   4.971 -0.8305  0.2217  1.1497
  851MOL0     H14883  10.659   2.218   4.918  0.8553  1.4123  1.0508
  851MOL0     H14884   9.892   2.170   5.420 -0.8738  1.1652  0.3883
  851MOL0     H14885   9.776   2.151   5.645 -0.3195  1.5516 -0.6245
  852MOL0     O14886   1.164   8.166   4.684  0.3916  0.5318  0.4967
  852MOL0     C14887   1.167   8.074   4.764 -0.1750 -0.4634 -0.5178
  852MOL0     O14888   1.120   8.081   4.886  0.5002 -0.6179  0.0362
  852MOL0     C14889   1.057   8.192   4.923  0.4460  0.6066 -0.0779
  852MOL0     C14890   0.921   8.177   4.961 -0.2299  0.3445 -0.4417
  852MOL0     C14891   0.847   8.296   4.982  0.0450 -0.2780 -0.1251
  852MOL0     C14892   0.907   8.419   4.992  0.0949 -0.4151 -0.0696
  852MOL0     O14893   0.835   8.519   5.039  0.1954  0.1125 -0.1631
  852MOL0     C14894   0.909   8.600   5.140  0.3738 -0.1117  1.4821
  852MOL0     C14895   0.809   8.699   5.198  0.0516  0.3305 -0.6509
  852MOL0     C14896   0.892   8.800   5.283  0.4985  0.2334 -0.5751
  852MOL0     C14897   0.822   8.930   5.303 -0.4884 -0.6202  0.2168
  852MOL0     C14898   0.887   9.018   5.417 -0.3746  0.1841  0.0967
  852MOL0     C14899   0.801   9.142   5.448  0.3555  1.1724 -0.2718
  852MOL0     C14900   0.654   9.101   5.497 -0.2054  0.3760 -0.1330
  852MOL0     C14901   0.597   9.195   5.605  0.1576  0.9994  0.6101
  852MOL0     N14902   0.454   9.170   5.625  1.0345  0.2042 -0.1184
  852MOL0     C14903   0.356   9.268   5.614 -0.0344  0.0091  0.9263
  852MOL0     C14904   0.242   9.200   5.660  1.4198  0.5203  0.1278
  852MOL0     C14905   0.108   9.251   5.659  0.6552 -0.8976 -0.0520
  852MOL0     C14906  -0.008   9.145   5.656  0.5313 -0.9765 -0.9108
  852MOL0     C14907  -0.122   9.201   5.748 -0.6146  0.8185  0.5692
  852MOL0     C14908  -0.181   9.327   5.695  0.7977  0.0220  1.5147
  852MOL0     O14909  -0.306   9.357   5.759 -1.1306 -0.4186 -0.1993
  852MOL0     C14910  -0.363   9.473   5.724  0.1918 -0.0104 -0.5338
  852MOL0     C14911  -0.306   9.596   5.704 -0.7531 -0.4462  0.0523
  852MOL0     C14912  -0.378   9.714   5.673  0.3370 -0.2733 -0.3265
  852MOL0     C14913  -0.317   9.843   5.637  0.5043 -0.0583  0.4903
  852MOL0     C14914  -0.524   9.705   5.697 -0.8413  0.5557 -0.2000
  852MOL0     C14915  -0.614   9.818   5.699  0.8066  0.0869  0.4983
  852MOL0     O14916  -0.747   9.795   5.722 -0.1372  0.7721 -0.5387
  852MOL0     C14917  -0.829   9.897   5.693  0.3605  0.1084 -0.3794
  852MOL0     C14918  -0.901   9.974   5.788  0.3089 -0.0200  0.0650
  852MOL0     C14919  -0.979  10.089   5.756  0.1871  0.0542 -0.1900
  852MOL0     C14920  -0.983  10.128   5.621  0.7856 -0.5209  1.1884
  852MOL0     O14921  -1.050  10.249   5.593  1.0483 -0.7357 -0.9939
  852MOL0     C14922  -1.006  10.367   5.668  0.4743  0.5102 -0.1981
  852MOL0     C14923  -0.966  10.474   5.571 -0.1198  0.1975 -1.1742
  852MOL0     C14924  -0.907  10.607   5.635  0.7990 -0.9640 -0.4876
  852MOL0     C14925  -0.884  10.728   5.531 -0.5817  1.1044  0.0389
  852MOL0     C14926  -0.768  10.820   5.578  0.6978  0.8303  0.0019
  852MOL0     C14927  -0.629  10.782   5.519 -0.0363 -0.1250  0.9020
  852MOL0     C14928  -0.597  10.639   5.474 -0.5249 -0.2740  0.0523
  852MOL0     C14929  -0.464  10.627   5.389 -0.0530  0.6964 -0.1655
  852MOL0    Cl14930  -0.332  10.698   5.488  0.1049  0.1546 -0.1899
  852MOL0     C14931  -0.933  10.045   5.518  0.7575 -0.5406  0.4817
  852MOL0     C14932  -0.850   9.928   5.561 -0.1492 -0.6161  0.6128
  852MOL0     O14933  -0.572   9.929   5.669 -0.0285  0.0824  0.1697
  852MOL0     C14934  -0.582   9.578   5.725 -0.0135  0.0258  0.3312
  852MOL0     C14935  -0.503   9.470   5.748  0.2085  0.2297  0.4762
  852MOL0     N14936   0.274   9.071   5.690 -0.6392  0.3067  0.2305
  852MOL0     N14937   0.400   9.054   5.669  0.0159 -0.0191  0.7215
  852MOL0     C14938   1.047   8.429   4.975 -0.3078  0.5874 -0.4472
  852MOL0     C14939   1.118   8.319   4.932 -0.7416  0.3886 -0.3236
  852MOL0     C14940   1.233   7.954   4.713 -0.6272  0.1767  0.4554
  852MOL0     C14941   1.267   7.852   4.799 -0.1737 -0.5313 -0.5880
  852MOL0     C14942   1.319   7.733   4.750 -0.6577 -0.5502 -0.0162
  852MOL0     C14943   1.336   7.712   4.612  1.5657 -0.0131 -0.2862
  852MOL0     O14944   1.377   7.588   4.567  0.0061  0.0058 -1.1536
  852MOL0     C14945   1.428   7.576   4.433 -0.1446  0.0333  0.5678
  852MOL0     C14946   1.505   7.437   4.400 -0.5031 -0.4343 -0.4880
  852MOL0     C14947   1.425   7.301   4.408  0.4509 -0.4518  0.1509
  852MOL0     C14948   1.282   7.312   4.335 -0.4112  0.3342  0.1963
  852MOL0     C14949   1.309   7.306   4.186 -0.9617  0.0231  0.3733
  852MOL0     C14950   1.341   7.304   4.072  0.3209 -0.0960  0.2859
  852MOL0     C14951   1.304   7.821   4.523 -0.2152  0.6837 -0.3056
  852MOL0     C14952   1.257   7.932   4.576  0.0674 -0.5124  0.0510
  852MOL0     H14953   0.871   8.081   4.949 -1.0933  0.8561 -1.0158
  852MOL0     H14954   0.742   8.276   5.001  0.2574 -1.0160  0.3074
  852MOL0     H14955   0.957   8.536   5.215 -0.7764 -2.9012 -0.0083
  852MOL0     H14956   0.984   8.658   5.087 -1.2567  0.3633 -0.4223
  852MOL0     H14957   0.767   8.755   5.114  2.3745  3.0610 -0.1904
  852MOL0     H14958   0.725   8.659   5.255 -0.4291 -0.1926 -1.6969
  852MOL0     H14959   0.899   8.748   5.379 -5.0489 -0.1499 -0.0507
  852MOL0     H14960   0.990   8.813   5.238  1.1904 -1.2551  0.4278
  852MOL0     H14961   0.825   8.986   5.209  4.6731  0.5478  0.7841
  852MOL0     H14962   0.713   8.930   5.312 -0.6812 -0.1079 -1.6297
  852MOL0     H14963   0.903   8.952   5.503  1.9322 -1.6788 -1.6269
  852MOL0     H14964   0.989   9.043   5.385 -0.0604 -1.5123 -0.3376
  852MOL0     H14965   0.847   9.212   5.519  1.2282 -0.3409  0.7343
  852MOL0     H14966   0.780   9.181   5.348  0.9706 -2.0639 -1.7850
  852MOL0     H14967   0.591   9.102   5.408  2.0865 -2.5418 -1.9657
  852MOL0     H14968   0.644   9.001   5.540  0.2412  0.4295  0.0971
  852MOL0     H14969   0.612   9.298   5.571  1.0037  0.4757 -0.6739
  852MOL0     H14970   0.661   9.163   5.689 -0.0771 -0.7408  0.1744
  852MOL0     H14971   0.365   9.373   5.588 -1.0532 -0.2452 -0.6653
  852MOL0     H14972   0.098   9.329   5.735  0.4463 -2.1619  1.2344
  852MOL0     H14973   0.087   9.303   5.565 -2.1513 -3.7938 -1.1971
  852MOL0     H14974   0.032   9.052   5.697  0.3073 -1.2419 -1.2943
  852MOL0     H14975  -0.046   9.127   5.555 -0.0559  0.0126 -0.8769
  852MOL0     H14976  -0.068   9.215   5.842 -1.1884  0.6307  0.9323
  852MOL0     H14977  -0.190   9.121   5.779  2.3049 -1.5835  1.1667
  852MOL0     H14978  -0.206   9.326   5.588 -2.7480  1.6920  2.1842
  852MOL0     H14979  -0.110   9.410   5.696  0.7206  0.0913  1.2430
  852MOL0     H14980  -0.198   9.599   5.710 -0.8505  2.1615  1.8518
  852MOL0     H14981  -0.211   9.824   5.621  1.0760  4.0102 -1.6042
  852MOL0     H14982  -0.347   9.878   5.539  0.1149 -0.9724  0.2667
  852MOL0     H14983  -0.323   9.915   5.719 -1.0249 -2.1857  2.3831
  852MOL0     H14984  -0.895   9.949   5.894 -2.6840  0.1828  0.3659
  852MOL0     H14985  -1.027  10.137   5.841  0.9077  1.0709 -0.3335
  852MOL0     H14986  -1.090  10.405   5.727  0.1238 -0.1241 -0.2783
  852MOL0     H14987  -0.926  10.339   5.738 -0.2251 -0.4152  0.2577
  852MOL0     H14988  -0.881  10.446   5.508 -1.0766  1.1676 -2.9823
  852MOL0     H14989  -1.044  10.511   5.504  1.1716 -0.4143 -3.1072
  852MOL0     H14990  -0.815  10.576   5.684 -0.0189 -3.1243 -0.2010
  852MOL0     H14991  -0.974  10.651   5.709  2.5030  2.0167 -0.5576
  852MOL0     H14992  -0.877  10.685   5.430 -2.2546  0.6425  0.0809
  852MOL0     H14993  -0.965  10.800   5.513 -0.5172  1.0304 -0.5966
  852MOL0     H14994  -0.760  10.812   5.687 -0.1277 -2.4456 -0.0782
  852MOL0     H14995  -0.788  10.922   5.545  0.1491  0.7163 -0.0257
  852MOL0     H14996  -0.612  10.849   5.434 -2.1222  0.4839  0.9154
  852MOL0     H14997  -0.549  10.812   5.587  0.2689 -0.5615  0.7361
  852MOL0     H14998  -0.686  10.606   5.420  0.1645  0.7308 -1.7910
  852MOL0     H14999  -0.584  10.589   5.570  1.5433 -1.1286 -0.5960
  852MOL0     H15000  -0.468  10.690   5.299 -1.2032  0.2775 -0.4148
  852MOL0     H15001  -0.440  10.529   5.348 -0.2433  0.6412 -0.1432
  852MOL0     H15002  -0.946  10.088   5.420  2.4409  0.6807  0.7575
  852MOL0     H15003  -0.792   9.871   5.489  1.0646 -0.1610  1.1956
  852MOL0     H15004  -0.689   9.562   5.729 -0.1854  1.1207  0.2869
  852MOL0     H15005  -0.537   9.369   5.767  1.5601 -0.7326 -1.7918
  852MOL0     H15006   1.100   8.524   4.977 -0.2317  0.5370  0.0586
  852MOL0     H15007   1.220   8.341   4.902  0.3589  3.9448  4.5760
  852MOL0     H15008   1.250   7.861   4.906 -3.0886  0.8803 -1.0451
  852MOL0     H15009   1.341   7.652   4.819  2.9585  1.4098  1.3680
  852MOL0     H15010   1.351   7.604   4.360  0.5307  0.9522  0.1873
  852MOL0     H15011   1.503   7.654   4.417  0.5748 -0.7192  0.1910
  852MOL0     H15012   1.601   7.436   4.453  0.7783  3.6707 -2.3030
  852MOL0     H15013   1.544   7.455   4.300 -1.4682  0.7721 -0.6642
  852MOL0     H15014   1.413   7.266   4.511 -1.8031 -1.9212 -0.5305
  852MOL0     H15015   1.482   7.223   4.358 -1.9135 -0.3316 -3.0378
  852MOL0     H15016   1.235   7.403   4.374  2.4601  2.9931 -2.0298
  852MOL0     H15017   1.218   7.228   4.363 -2.4726  2.0541  0.9040
  852MOL0     H15018   1.376   7.321   3.972  1.9055 -1.2290  0.5938
  852MOL0     H15019   1.311   7.807   4.415  3.3491 -4.7857  0.2356
  852MOL0     H15020   1.236   8.009   4.503 -1.2836 -1.0720 -0.1704
  853MOL0     O15021   9.856   1.118   0.649  0.1080  0.1919  0.6140
  853MOL0     C15022   9.928   1.017   0.620  0.4687 -0.8197 -0.3907
  853MOL0     O15023  10.006   1.009   0.512  0.0835 -0.4344  0.2092
  853MOL0     C15024  10.006   1.120   0.429  0.0692  0.9092 -0.5147
  853MOL0     C15025   9.903   1.130   0.326 -0.2165 -0.8387  0.8468
  853MOL0     C15026   9.907   1.235   0.236  0.2437  0.3398  0.4347
  853MOL0     C15027  10.012   1.328   0.240  1.0768  0.6701  0.4330
  853MOL0     O15028  10.021   1.415   0.135  0.3302  0.0294 -0.3651
  853MOL0     C15029  10.138   1.398   0.054 -0.3607 -0.1639  0.0475
  853MOL0     C15030  10.112   1.288  -0.052  0.1065  0.1587  0.8041
  853MOL0     C15031  10.008   1.323  -0.156 -0.2049  0.7892  0.0716
  853MOL0     C15032   9.979   1.196  -0.233 -0.2475  0.1459  0.1920
  853MOL0     C15033   9.919   1.234  -0.375  0.0411 -0.1148 -0.2998
  853MOL0     C15034   9.842   1.122  -0.439 -0.0061 -0.5439  1.0253
  853MOL0     C15035   9.737   1.061  -0.347 -0.7303 -0.1811  0.0216
  853MOL0     C15036   9.603   1.033  -0.404 -0.1975  0.5094  0.5285
  853MOL0     N15037   9.617   0.915  -0.494 -0.8542  0.5189  0.2116
  853MOL0     C15038   9.628   0.914  -0.632 -0.3881 -0.9075 -0.2951
  853MOL0     C15039   9.591   0.793  -0.681  0.0645  0.2168  0.1491
  853MOL0     C15040   9.585   0.742  -0.822  0.0360 -0.0096  0.5413
  853MOL0     C15041   9.508   0.849  -0.908  0.6906  1.1383 -0.0544
  853MOL0     C15042   9.483   0.797  -1.046 -0.3575 -0.4621  0.7383
  853MOL0     C15043   9.419   0.907  -1.131 -0.5032 -1.0127  0.6487
  853MOL0     O15044   9.512   1.020  -1.145 -0.5846  0.1071  1.1455
  853MOL0     C15045   9.524   1.047  -1.284  0.3396  0.4042 -0.3688
  853MOL0     C15046   9.655   1.067  -1.331 -0.0112 -0.1985 -0.0203
  853MOL0     C15047   9.687   1.105  -1.462 -0.2077 -0.1551 -0.5580
  853MOL0     C15048   9.840   1.118  -1.482  0.1171  0.2690 -0.5820
  853MOL0     C15049   9.581   1.132  -1.550 -0.1727 -0.5887 -0.2080
  853MOL0     C15050   9.601   1.177  -1.690  1.3572 -0.7039  0.2284
  853MOL0     O15051   9.486   1.177  -1.758 -0.2836  0.8796  0.1771
  853MOL0     C15052   9.491   1.244  -1.882 -0.1138  0.8456  0.1628
  853MOL0     C15053   9.532   1.170  -1.989  0.5067  0.2377 -0.0547
  853MOL0     C15054   9.543   1.231  -2.112  0.0977 -0.2173  0.0010
  853MOL0     C15055   9.483   1.358  -2.144 -0.8795 -0.2163  0.3841
  853MOL0     O15056   9.498   1.404  -2.273 -0.2424  0.2528 -0.6443
  853MOL0     C15057   9.455   1.533  -2.315  0.2701 -0.2448 -0.4818
  853MOL0     C15058   9.552   1.644  -2.299 -0.5152 -0.2850 -0.8930
  853MOL0     C15059   9.507   1.758  -2.399 -0.1479  0.4199 -0.2415
  853MOL0     C15060   9.562   1.738  -2.543  0.8361  0.3407  0.3085
  853MOL0     C15061   9.514   1.846  -2.638  0.4956 -0.2563  0.0368
  853MOL0     C15062   9.555   1.815  -2.792  0.5539  0.6183 -1.1080
  853MOL0     C15063   9.548   1.924  -2.890 -0.4597  0.1474  0.5483
  853MOL0     C15064   9.579   1.872  -3.034  0.1205 -0.4342  0.1470
  853MOL0    Cl15065   9.751   1.812  -3.067  0.0612  0.4897 -0.2058
  853MOL0     C15066   9.429   1.427  -2.031 -0.4003  0.0711 -0.3154
  853MOL0     C15067   9.439   1.368  -1.900 -0.7505 -0.0539 -0.4651
  853MOL0     O15068   9.711   1.177  -1.744 -0.5417 -0.1777 -0.8301
  853MOL0     C15069   9.451   1.119  -1.503  0.3861 -0.6458  0.3201
  853MOL0     C15070   9.419   1.069  -1.375  0.0064  0.3250  0.2690
  853MOL0     N15071   9.574   0.708  -0.572  0.5431 -0.1692  0.2228
  853MOL0     N15072   9.587   0.784  -0.470  0.4542  0.1220  0.5772
  853MOL0     C15073  10.104   1.333   0.341  0.2952  0.8204 -0.6246
  853MOL0     C15074  10.102   1.221   0.434 -0.0648 -0.0394  0.8987
  853MOL0     C15075   9.941   0.909   0.719  0.6320 -0.9529 -1.4042
  853MOL0     C15076   9.846   0.900   0.822  0.4996  0.6695 -0.2139
  853MOL0     C15077   9.845   0.799   0.919 -0.3304  0.4520  0.8171
  853MOL0     C15078   9.950   0.705   0.916 -0.4105 -0.3824 -0.1850
  853MOL0     O15079   9.958   0.615   1.012  0.4998  0.2981 -0.1137
  853MOL0     C15080   9.850   0.560   1.091  0.5499  0.1449 -0.2256
  853MOL0     C15081   9.805   0.654   1.203 -0.2535  0.3917 -0.4824
  853MOL0     C15082   9.923   0.732   1.257 -0.1298  0.0827  0.0332
  853MOL0     C15083   9.938   0.755   1.412  0.2098  1.3403  1.4581
  853MOL0     C15084   9.805   0.795   1.472 -0.5051  0.5936  0.0130
  853MOL0     C15085   9.694   0.823   1.522  0.1532 -0.5705 -0.2406
  853MOL0     C15086  10.058   0.713   0.817  0.2208  0.5255 -1.1191
  853MOL0     C15087  10.048   0.813   0.717 -0.4232  0.1178 -0.1077
  853MOL0     H15088   9.831   1.053   0.301  0.3629 -0.7721 -1.2153
  853MOL0     H15089   9.842   1.248   0.150  1.5864  0.7364 -0.5401
  853MOL0     H15090  10.167   1.493   0.010  1.6426 -1.2725 -1.1806
  853MOL0     H15091  10.225   1.379   0.118  0.8971 -1.1250 -1.8426
  853MOL0     H15092  10.210   1.273  -0.099 -0.6989  1.3967 -1.4229
  853MOL0     H15093  10.085   1.195  -0.001 -0.9401  0.7703  1.3977
  853MOL0     H15094   9.921   1.365  -0.104 -0.1065  1.3925 -0.2474
  853MOL0     H15095  10.055   1.398  -0.219 -0.2693  0.1294 -0.7699
  853MOL0     H15096  10.072   1.140  -0.247 -0.7541 -0.8003  0.5138
  853MOL0     H15097   9.912   1.127  -0.180 -0.8334 -2.0467 -3.1557
  853MOL0     H15098   9.839   1.304  -0.350  0.6550  1.3345 -2.1288
  853MOL0     H15099   9.991   1.287  -0.439  0.4778  0.0328  0.3080
  853MOL0     H15100   9.792   1.160  -0.528 -1.2712 -0.7377  1.6365
  853MOL0     H15101   9.913   1.042  -0.465  0.8947  0.6749 -0.3990
  853MOL0     H15102   9.791   0.978  -0.302  0.1943 -0.0370 -0.7705
  853MOL0     H15103   9.706   1.133  -0.271  1.0480  0.3126  0.3368
  853MOL0     H15104   9.559   1.124  -0.446  1.6931  1.8303  1.2717
  853MOL0     H15105   9.538   1.001  -0.322  1.0343  3.0448  2.6391
  853MOL0     H15106   9.660   0.997  -0.694 -1.0390 -0.7070 -0.3686
  853MOL0     H15107   9.683   0.723  -0.867 -0.5983 -0.2217 -0.8179
  853MOL0     H15108   9.533   0.646  -0.826 -0.0959  0.0340  1.2161
  853MOL0     H15109   9.574   0.936  -0.908  1.9859  0.2198  2.1570
  853MOL0     H15110   9.416   0.890  -0.866  1.1431 -0.2622  2.5142
  853MOL0     H15111   9.414   0.712  -1.054 -2.4689  1.2901 -1.2367
  853MOL0     H15112   9.573   0.752  -1.089 -0.2146 -0.1162  0.6777
  853MOL0     H15113   9.328   0.940  -1.080 -1.1008 -1.7710  0.0908
  853MOL0     H15114   9.395   0.873  -1.232  0.5915 -0.0586  0.0443
  853MOL0     H15115   9.730   1.059  -1.252  0.4461 -4.2039 -0.6053
  853MOL0     H15116   9.873   1.198  -1.415 -0.6719 -1.2050  1.6826
  853MOL0     H15117   9.884   1.024  -1.447 -2.6430  0.1065  3.1607
  853MOL0     H15118   9.873   1.147  -1.582  4.2319  2.0375  1.0606
  853MOL0     H15119   9.560   1.065  -1.983  2.8882  0.8637  0.9921
  853MOL0     H15120   9.605   1.188  -2.190 -0.2407  1.5756 -1.3344
  853MOL0     H15121   9.425   1.527  -2.420 -1.1130  2.1387 -0.3029
  853MOL0     H15122   9.369   1.570  -2.257  1.3042 -0.8214  1.5144
  853MOL0     H15123   9.553   1.683  -2.196 -2.6685  0.2828 -1.0410
  853MOL0     H15124   9.655   1.610  -2.316  0.0750 -0.0884  1.7521
  853MOL0     H15125   9.553   1.852  -2.368 -1.7484  0.0935  3.6999
  853MOL0     H15126   9.398   1.766  -2.397 -0.4588 -1.1636  5.3406
  853MOL0     H15127   9.670   1.724  -2.543  0.7465 -0.8791 -2.2085
  853MOL0     H15128   9.522   1.646  -2.587 -0.9622  1.8528 -1.4128
  853MOL0     H15129   9.550   1.945  -2.609 -1.2005  1.0757 -2.0431
  853MOL0     H15130   9.406   1.854  -2.625  0.7244 -0.5564  2.5860
  853MOL0     H15131   9.658   1.780  -2.784  0.3363  0.4143  1.7842
  853MOL0     H15132   9.493   1.732  -2.827  0.3698  0.9898 -1.6753
  853MOL0     H15133   9.618   2.005  -2.873  0.0515 -0.2834  0.5183
  853MOL0     H15134   9.451   1.975  -2.899  1.5192  3.8833 -4.3807
  853MOL0     H15135   9.575   1.962  -3.096 -0.9370  0.0480  0.8759
  853MOL0     H15136   9.500   1.804  -3.067  0.3076  0.6340 -2.7993
  853MOL0     H15137   9.389   1.527  -2.041 -0.0608  0.4636  1.7641
  853MOL0     H15138   9.426   1.431  -1.813  2.5660 -0.8137  0.7243
  853MOL0     H15139   9.372   1.153  -1.569  3.5271  1.2005 -2.8421
  853MOL0     H15140   9.319   1.056  -1.336 -0.3578  2.1776  0.0187
  853MOL0     H15141  10.169   1.420   0.347  0.7411  0.4202  0.8000
  853MOL0     H15142  10.168   1.220   0.520 -1.0591  1.2007  1.7252
  853MOL0     H15143   9.759   0.964   0.814 -1.2159 -0.9693  3.0921
  853MOL0     H15144   9.767   0.791   0.994  1.1037 -2.4622  2.1623
  853MOL0     H15145   9.757   0.531   1.040  0.8160 -1.1891 -0.0031
  853MOL0     H15146   9.886   0.473   1.148  1.4889  1.8220  1.8705
  853MOL0     H15147   9.779   0.592   1.289  5.1596  0.6964  1.7635
  853MOL0     H15148   9.725   0.728   1.191 -3.3929 -2.2491  2.0404
  853MOL0     H15149   9.913   0.831   1.210 -1.3013  0.3874  0.8958
  853MOL0     H15150  10.018   0.688   1.226 -2.6243 -5.3215 -1.0332
  853MOL0     H15151  10.022   0.824   1.426  0.0372  1.3238  2.7204
  853MOL0     H15152   9.963   0.660   1.459  0.2167  1.8124  2.4333
  853MOL0     H15153   9.599   0.845   1.566  0.0862 -0.9801 -0.1770
  853MOL0     H15154  10.154   0.662   0.809  1.0474  0.7368  3.9606
  853MOL0     H15155  10.137   0.826   0.656  0.5752 -2.3939  0.7177
  854MOL0     O15156   9.358  10.072   8.179 -0.0489 -0.0444 -0.4005
  854MOL0     C15157   9.276   9.994   8.128  0.3598 -0.3017 -0.2544
  854MOL0     O15158   9.199   9.904   8.198  0.3094 -0.4104  0.7250
  854MOL0     C15159   9.196   9.928   8.333  0.1574  0.2021  0.0466
  854MOL0     C15160   9.304   9.910   8.423  0.0876  0.9235 -0.0957
  854MOL0     C15161   9.279   9.905   8.559 -0.3767  0.1533 -0.4347
  854MOL0     C15162   9.155   9.913   8.619 -1.0229  0.0223 -0.6598
  854MOL0     O15163   9.156   9.897   8.759  0.0386  0.5726  0.1832
  854MOL0     C15164   9.040   9.931   8.831 -0.0808  0.2631 -0.7475
  854MOL0     C15165   8.929   9.825   8.814  0.0264  0.6146 -0.2080
  854MOL0     C15166   8.827   9.826   8.929  0.0208  0.0580 -0.5415
  854MOL0     C15167   8.783   9.957   8.988 -0.0402 -0.5522 -0.4523
  854MOL0     C15168   8.699   9.927   9.122 -0.5233 -0.2650 -0.2133
  854MOL0     C15169   8.558   9.880   9.089  0.8753 -0.5506  0.6956
  854MOL0     C15170   8.500   9.832   9.218 -0.3185  0.0064  0.0788
  854MOL0     C15171   8.366   9.770   9.213  1.4563  1.3158  0.5952
  854MOL0     N15172   8.315   9.738   9.356  0.2732 -0.3230  0.1878
  854MOL0     C15173   8.216   9.812   9.432  0.3351  1.5284  0.0014
  854MOL0     C15174   8.159   9.725   9.516 -0.1598 -0.2494 -0.1886
  854MOL0     C15175   8.039   9.755   9.606 -0.2548 -0.6043  0.4754
  854MOL0     C15176   7.908   9.811   9.561  0.1079 -1.1621 -0.3243
  854MOL0     C15177   7.860   9.772   9.419 -0.3549 -0.4208 -0.0267
  854MOL0     C15178   7.880   9.625   9.365 -0.2304  0.6598 -0.2158
  854MOL0     O15179   7.999   9.615   9.292  0.5229  0.5279 -0.4104
  854MOL0     C15180   7.991   9.612   9.152 -0.0497  0.0939  0.1485
  854MOL0     C15181   7.945   9.497   9.086  0.1284 -0.7116  0.1197
  854MOL0     C15182   7.919   9.501   8.953  0.2715  0.5330 -0.2389
  854MOL0     C15183   7.885   9.367   8.898  0.0345  0.3362  0.6435
  854MOL0     C15184   7.933   9.625   8.884 -0.1282  0.5984  0.5485
  854MOL0     C15185   7.920   9.647   8.737 -0.2082  0.5527  0.6255
  854MOL0     O15186   7.987   9.753   8.676  0.0351  0.2572 -0.7802
  854MOL0     C15187   7.921   9.821   8.572 -0.7859 -0.1603 -0.2519
  854MOL0     C15188   7.786   9.872   8.581  0.2276  0.3613 -0.8179
  854MOL0     C15189   7.735   9.946   8.478  0.2006  0.4375  0.9868
  854MOL0     C15190   7.814   9.988   8.365  0.5207  0.7062 -0.0149
  854MOL0     O15191   7.749  10.074   8.269  0.2793 -0.1433 -0.6223
  854MOL0     C15192   7.825  10.135   8.163  1.0890 -0.3428  0.2214
  854MOL0     C15193   7.739  10.231   8.090  0.1817 -0.1236  1.0701
  854MOL0     C15194   7.798  10.368   8.080 -0.4961  0.3167  0.3677
  854MOL0     C15195   7.901  10.373   7.971  0.0307 -0.0045  0.2476
  854MOL0     C15196   7.954  10.513   7.938 -1.3095 -0.5784  0.1000
  854MOL0     C15197   7.836  10.603   7.885 -0.0081 -0.3230  0.2627
  854MOL0     C15198   7.855  10.749   7.901 -0.5713  0.4640  0.1273
  854MOL0     C15199   7.978  10.806   7.831 -1.1382 -1.0684  0.0863
  854MOL0    Cl15200   7.976  10.769   7.653  0.3053 -0.6381  0.0783
  854MOL0     C15201   7.949   9.952   8.364 -0.2196  0.1489 -0.6183
  854MOL0     C15202   7.994   9.864   8.463 -0.0192  0.3373  0.2965
  854MOL0     O15203   7.841   9.574   8.672  1.1851 -0.2218  0.6088
  854MOL0     C15204   7.983   9.735   8.952  0.2829  0.3620  1.2165
  854MOL0     C15205   8.002   9.733   9.083  0.6598  0.0119  0.5109
  854MOL0     N15206   8.226   9.613   9.503 -0.2857  0.0345 -0.7108
  854MOL0     N15207   8.319   9.611   9.411 -0.0239  0.7273 -0.6334
  854MOL0     C15208   9.048   9.938   8.524 -0.1360  1.1377  0.0166
  854MOL0     C15209   9.068   9.939   8.391 -0.6125  1.1509  0.8351
  854MOL0     C15210   9.289   9.990   7.981 -0.5876  1.0270 -0.5769
  854MOL0     C15211   9.379  10.072   7.914 -0.5505 -0.1822 -0.5364
  854MOL0     C15212   9.382  10.070   7.770  0.4024  0.4766 -0.3760
  854MOL0     C15213   9.287   9.983   7.699  0.5033  0.3838  0.3106
  854MOL0     O15214   9.282   9.962   7.561 -0.3700 -0.7516  0.2628
  854MOL0     C15215   9.385  10.019   7.485  0.7070  0.1211 -0.5237
  854MOL0     C15216   9.358  10.004   7.334  0.8802  0.5989  0.0482
  854MOL0     C15217   9.228  10.094   7.298  0.7547  0.4087  0.1592
  854MOL0     C15218   9.158  10.065   7.170 -0.3225 -0.2538  0.1659
  854MOL0     C15219   9.042  10.159   7.151 -0.3427 -0.2768 -0.1252
  854MOL0     C15220   8.959  10.239   7.120 -0.3289 -0.4723  0.4489
  854MOL0     C15221   9.208   9.898   7.777  0.9689  0.6625  0.0261
  854MOL0     C15222   9.203   9.900   7.913  0.9246  0.5070 -0.5018
  854MOL0     H15223   9.401   9.909   8.374  0.9682  2.0172  1.5543
  854MOL0     H15224   9.366   9.908   8.624  1.0930  3.2889 -2.2797
  854MOL0     H15225   9.058   9.926   8.939 -1.1532 -1.7435 -0.5976
  854MOL0     H15226   9.002  10.032   8.813 -3.2411 -0.4071  1.3426
  854MOL0     H15227   8.861   9.826   8.729 -3.5649 -0.3786  2.4001
  854MOL0     H15228   8.978   9.728   8.828 -0.1422  0.7411  1.4322
  854MOL0     H15229   8.734   9.774   8.903 -0.2990 -0.9483  2.1950
  854MOL0     H15230   8.871   9.765   9.009 -3.8585 -4.2547 -1.2526
  854MOL0     H15231   8.874  10.014   9.012  0.7661 -1.8323 -0.3577
  854MOL0     H15232   8.718  10.010   8.918 -1.3171 -3.1714 -1.3778
  854MOL0     H15233   8.757   9.859   9.186  1.1737  1.1243 -0.2202
  854MOL0     H15234   8.694  10.027   9.165  0.8543  0.8346 -2.4647
  854MOL0     H15235   8.500   9.958   9.039  0.3011 -2.0159 -1.0431
  854MOL0     H15236   8.568   9.791   9.026 -0.4696 -0.1064 -0.1737
  854MOL0     H15237   8.569   9.757   9.260  0.2579 -1.3169 -2.9435
  854MOL0     H15238   8.500   9.923   9.278 -3.8955 -0.1805  0.5595
  854MOL0     H15239   8.364   9.684   9.146 -1.7641  2.2794 -0.7535
  854MOL0     H15240   8.293   9.842   9.174 -2.4085 -0.9659  2.9765
  854MOL0     H15241   8.173   9.911   9.423  0.9228  1.8557  0.6834
  854MOL0     H15242   8.016   9.668   9.668 -3.4927 -1.5744 -1.8079
  854MOL0     H15243   8.079   9.833   9.671 -2.5804  1.2221 -0.1539
  854MOL0     H15244   7.919   9.920   9.567 -0.2619 -1.1049 -0.6428
  854MOL0     H15245   7.835   9.776   9.635  1.8755  0.1660  2.1994
  854MOL0     H15246   7.893   9.839   9.339  1.4197  1.4235  2.1206
  854MOL0     H15247   7.753   9.791   9.433 -0.0288  2.3598 -0.8252
  854MOL0     H15248   7.802   9.592   9.296  2.4315 -0.2199 -3.0346
  854MOL0     H15249   7.886   9.561   9.454 -0.8058  0.5546 -0.2501
  854MOL0     H15250   7.910   9.407   9.136  1.5774 -1.3569  0.0265
  854MOL0     H15251   7.908   9.295   8.977 -0.0385  3.1037  3.3581
  854MOL0     H15252   7.783   9.356   8.860  1.2691 -2.0533 -2.4160
  854MOL0     H15253   7.936   9.346   8.803 -2.0071 -2.0280 -0.0375
  854MOL0     H15254   7.736   9.829   8.667 -1.4382 -0.7552 -2.2737
  854MOL0     H15255   7.627   9.954   8.470 -0.0809 -2.9511 -0.6533
  854MOL0     H15256   7.922  10.177   8.192  2.1965 -1.1473 -2.0516
  854MOL0     H15257   7.858  10.059   8.090  3.2497  0.8185 -0.0917
  854MOL0     H15258   7.727  10.200   7.985 -3.8342  1.7911  0.7899
  854MOL0     H15259   7.639  10.247   8.132 -1.1010 -0.3776 -1.6554
  854MOL0     H15260   7.849  10.406   8.169 -0.3809  1.3128 -0.1131
  854MOL0     H15261   7.716  10.436   8.058 -0.9226 -0.0081  0.9447
  854MOL0     H15262   7.989  10.312   7.994  1.3321  2.0099  0.9381
  854MOL0     H15263   7.853  10.342   7.879  3.2410 -0.0361 -1.5824
  854MOL0     H15264   8.034  10.502   7.865 -1.6295 -1.8774 -0.0817
  854MOL0     H15265   8.013  10.553   8.021 -1.7073 -0.4245  0.3152
  854MOL0     H15266   7.822  10.583   7.778 -1.7099 -2.0810  0.7710
  854MOL0     H15267   7.738  10.577   7.925 -1.1784 -2.4770 -3.5321
  854MOL0     H15268   7.874  10.768   8.007  1.5066  0.7778 -0.2580
  854MOL0     H15269   7.768  10.799   7.858 -1.4850 -1.7188 -0.7154
  854MOL0     H15270   8.074  10.775   7.873  0.1933 -2.2336 -3.3825
  854MOL0     H15271   7.978  10.914   7.846  0.9584 -0.9681 -0.3772
  854MOL0     H15272   8.019   9.987   8.289  0.5876  0.3678  0.2195
  854MOL0     H15273   8.097   9.829   8.458 -0.1549  0.0017 -0.1827
  854MOL0     H15274   7.987   9.828   8.896  1.1909 -1.1755 -1.4229
  854MOL0     H15275   8.008   9.820   9.148 -0.4096  0.8942 -0.5246
  854MOL0     H15276   8.943   9.952   8.547 -0.6197 -0.2634 -1.1612
  854MOL0     H15277   8.976   9.946   8.334  0.5190  3.3605 -0.8815
  854MOL0     H15278   9.447  10.144   7.960  1.2163 -1.9070 -0.3381
  854MOL0     H15279   9.454  10.131   7.717  0.7829 -0.2743 -0.7201
  854MOL0     H15280   9.410  10.121   7.517  1.0496  0.2001 -1.0383
  854MOL0     H15281   9.472   9.957   7.509  0.6673 -1.0381 -3.0562
  854MOL0     H15282   9.337   9.898   7.315 -2.6376  0.6042  2.7773
  854MOL0     H15283   9.440  10.031   7.267 -0.4481  2.0893 -1.0429
  854MOL0     H15284   9.263  10.197   7.292  2.0982  0.0058  0.6816
  854MOL0     H15285   9.157  10.092   7.381  2.3094  0.1170  1.5130
  854MOL0     H15286   9.134   9.958   7.171 -2.7052  0.2204  0.1116
  854MOL0     H15287   9.230  10.084   7.090  1.5177 -1.2979  1.5270
  854MOL0     H15288   8.912  10.333   7.102  1.1712 -0.1813 -2.4649
  854MOL0     H15289   9.144   9.829   7.722  0.9651  1.5951 -1.1751
  854MOL0     H15290   9.132   9.833   7.961  1.1018 -0.4506 -1.5397
  855MOL0     O15291   8.562   9.314   1.888 -0.0336 -0.3522 -0.1262
  855MOL0     C15292   8.647   9.243   1.832 -0.0613  0.0665 -0.2349
  855MOL0     O15293   8.711   9.284   1.724 -0.8337  0.2917  0.2070
  855MOL0     C15294   8.682   9.404   1.677  0.4449  0.4421 -0.4369
  855MOL0     C15295   8.757   9.513   1.717 -1.7826  0.2182 -0.1900
  855MOL0     C15296   8.743   9.634   1.657 -0.5973 -0.5988  0.9743
  855MOL0     C15297   8.653   9.658   1.549 -0.2315  1.0658 -0.4276
  855MOL0     O15298   8.655   9.790   1.507  0.3056  0.4590  0.5773
  855MOL0     C15299   8.538   9.825   1.418 -0.5160 -0.2950 -0.4527
  855MOL0     C15300   8.514   9.979   1.422 -1.1162  0.6837 -1.5546
  855MOL0     C15301   8.642  10.065   1.428  0.9508  0.0534  0.3796
  855MOL0     C15302   8.759  10.026   1.334 -0.2437 -0.7512  0.0123
  855MOL0     C15303   8.888  10.099   1.383 -0.2251 -0.2038 -0.2906
  855MOL0     C15304   8.991  10.077   1.271 -0.8609  0.7654 -0.1739
  855MOL0     C15305   9.121  10.154   1.300 -0.9235  0.3226 -1.1689
  855MOL0     C15306   9.222  10.162   1.187  0.1278 -0.4343 -0.1139
  855MOL0     N15307   9.233  10.293   1.125 -0.3034 -0.7415 -0.0546
  855MOL0     C15308   9.299  10.402   1.178 -0.1985  0.7342 -0.2535
  855MOL0     C15309   9.296  10.494   1.077  0.5442  0.5615 -0.5441
  855MOL0     C15310   9.351  10.638   1.096  0.1702  0.3360  0.7871
  855MOL0     C15311   9.258  10.763   1.078 -0.6005 -0.6583  0.0043
  855MOL0     C15312   9.110  10.757   1.121  1.0424  1.1284 -0.5316
  855MOL0     C15313   9.076  10.701   1.269 -1.0573 -0.2162 -0.4266
  855MOL0     O15314   8.937  10.694   1.286  0.4056  0.0116 -0.1640
  855MOL0     C15315   8.862  10.581   1.259 -0.4261 -0.0182 -0.9417
  855MOL0     C15316   8.727  10.583   1.286 -0.2775  0.0540 -0.0814
  855MOL0     C15317   8.642  10.480   1.234  0.2866 -0.2101  0.7138
  855MOL0     C15318   8.487  10.495   1.270 -0.4008 -0.8565 -0.0046
  855MOL0     C15319   8.693  10.385   1.143 -0.0306 -0.1080 -0.2959
  855MOL0     C15320   8.614  10.283   1.064  0.9210 -0.7004 -0.0902
  855MOL0     O15321   8.669  10.211   0.960 -0.2477  0.8824 -0.9449
  855MOL0     C15322   8.589  10.129   0.883  0.5224 -0.8169 -0.3288
  855MOL0     C15323   8.617  10.112   0.748  0.1060 -0.4718  0.4181
  855MOL0     C15324   8.537  10.036   0.659  0.0931  0.0570 -0.1698
  855MOL0     C15325   8.422   9.973   0.709  0.2635  1.4783 -0.1782
  855MOL0     O15326   8.354   9.892   0.624  0.0098 -0.1963  0.5136
  855MOL0     C15327   8.333   9.757   0.671  0.7721  0.1329 -0.0003
  855MOL0     C15328   8.222   9.697   0.576  0.8211 -0.0222  0.5196
  855MOL0     C15329   8.216   9.544   0.592 -0.0791  0.4238 -0.2898
  855MOL0     C15330   8.214   9.508   0.742  0.1936  0.6208 -0.2648
  855MOL0     C15331   8.185   9.358   0.756  0.3165  0.3324 -0.2678
  855MOL0     C15332   8.278   9.294   0.858  0.4261  1.0706 -0.2749
  855MOL0     C15333   8.248   9.145   0.858 -0.6232 -1.1941  0.0111
  855MOL0     C15334   8.355   9.077   0.951  0.2151 -0.0949 -0.4358
  855MOL0    Cl15335   8.326   8.905   0.975 -0.4365 -0.2980 -0.2426
  855MOL0     C15336   8.399   9.984   0.850  0.5100  0.4378  0.1409
  855MOL0     C15337   8.474  10.055   0.932  0.7471  0.0495 -0.7370
  855MOL0     O15338   8.496  10.276   1.098 -0.6430 -0.1236  0.0286
  855MOL0     C15339   8.834  10.378   1.120 -0.0515 -0.7625  0.4131
  855MOL0     C15340   8.913  10.478   1.176 -0.1491 -0.9752 -1.1385
  855MOL0     N15341   9.222  10.437   0.967 -0.4948 -0.0660  0.1729
  855MOL0     N15342   9.191  10.312   0.997  0.3406 -0.3201 -0.2622
  855MOL0     C15343   8.576   9.548   1.516 -0.0029  0.3553  0.8769
  855MOL0     C15344   8.590   9.423   1.575 -0.7771  0.0617  0.6814
  855MOL0     C15345   8.662   9.109   1.877  0.7229  0.0061  0.8415
  855MOL0     C15346   8.710   9.002   1.795  0.6318  0.2821  0.6959
  855MOL0     C15347   8.729   8.876   1.848 -0.3668 -0.2408 -0.0926
  855MOL0     C15348   8.690   8.845   1.975  0.2561  0.2670 -0.1162
  855MOL0     O15349   8.690   8.708   2.010 -0.0253 -0.2372  1.1939
  855MOL0     C15350   8.651   8.665   2.135  0.4920 -0.6290 -0.0223
  855MOL0     C15351   8.758   8.679   2.258 -0.5405 -0.1671 -0.6173
  855MOL0     C15352   8.896   8.621   2.243 -0.2734  0.2027 -0.1605
  855MOL0     C15353   8.983   8.713   2.148  1.3398  0.5627  0.9520
  855MOL0     C15354   9.017   8.853   2.199  0.1927 -0.0496  0.0983
  855MOL0     C15355   9.019   8.975   2.226  0.5026 -0.2125  0.4154
  855MOL0     C15356   8.651   8.945   2.055  0.3180  0.2135 -0.9239
  855MOL0     C15357   8.629   9.075   2.005 -0.3627 -0.7422 -0.2495
  855MOL0     H15358   8.841   9.477   1.776 -2.4594  1.4072  1.5647
  855MOL0     H15359   8.805   9.715   1.694  1.9301 -1.8529 -0.2711
  855MOL0     H15360   8.562   9.789   1.318 -3.0585  0.1983 -1.3200
  855MOL0     H15361   8.445   9.774   1.446  0.7075 -0.6246  3.6548
  855MOL0     H15362   8.451  10.024   1.345  0.0525  4.0581 -0.6762
  855MOL0     H15363   8.460  10.003   1.514  2.0194  1.9260  0.0988
  855MOL0     H15364   8.612  10.167   1.402  1.8098 -0.0042 -0.8914
  855MOL0     H15365   8.671  10.074   1.534 -1.4999 -0.5146  1.1689
  855MOL0     H15366   8.762   9.917   1.344  1.2730 -0.7232 -0.0417
  855MOL0     H15367   8.731  10.057   1.233 -1.4857  0.6827  0.7472
  855MOL0     H15368   8.865  10.205   1.395 -4.0231 -0.7514 -1.3839
  855MOL0     H15369   8.906  10.060   1.483  0.8900 -1.6192 -0.9978
  855MOL0     H15370   8.997   9.969   1.255 -2.3471  0.8570 -1.6534
  855MOL0     H15371   8.942  10.119   1.183 -1.8644 -0.4363 -0.2138
  855MOL0     H15372   9.086  10.254   1.329 -0.9654  0.0219 -0.1750
  855MOL0     H15373   9.173  10.117   1.388 -0.1570  1.0146 -1.3159
  855MOL0     H15374   9.202  10.087   1.110  1.1992 -1.3994  0.5063
  855MOL0     H15375   9.323  10.143   1.226  0.8276 -1.4494 -2.2683
  855MOL0     H15376   9.349  10.415   1.273 -1.7532  4.5107  0.2198
  855MOL0     H15377   9.415  10.647   1.184  0.2539 -0.1209  0.7736
  855MOL0     H15378   9.422  10.643   1.012  0.8263 -2.0221  1.1389
  855MOL0     H15379   9.261  10.814   0.981  1.2098  3.8000  2.1385
  855MOL0     H15380   9.302  10.850   1.128 -1.3577 -0.3535  0.1726
  855MOL0     H15381   9.045  10.703   1.052  0.0062  0.2590  1.0485
  855MOL0     H15382   9.077  10.861   1.124  1.2892  1.1929  0.1748
  855MOL0     H15383   9.119  10.767   1.345 -1.2382  0.9035 -1.2627
  855MOL0     H15384   9.122  10.603   1.280 -0.1172  0.0828 -1.4404
  855MOL0     H15385   8.691  10.662   1.351 -3.3002 -1.8985  0.8348
  855MOL0     H15386   8.414  10.503   1.189 -0.8554  0.7743  0.5154
  855MOL0     H15387   8.457  10.411   1.333 -0.6809 -0.0509  0.9702
  855MOL0     H15388   8.467  10.583   1.333 -1.5590 -0.5837 -0.7172
  855MOL0     H15389   8.710  10.153   0.711  1.3688 -1.8975  1.8294
  855MOL0     H15390   8.559  10.033   0.553 -2.3275  0.1683 -0.7472
  855MOL0     H15391   8.414   9.685   0.659 -1.0905 -2.2209  0.6312
  855MOL0     H15392   8.297   9.751   0.774 -3.8268  2.8983 -1.1489
  855MOL0     H15393   8.128   9.752   0.566  0.0800 -1.6785 -3.5717
  855MOL0     H15394   8.263   9.709   0.475 -0.2861 -0.0178  0.0552
  855MOL0     H15395   8.306   9.503   0.545  0.4616  1.3901 -0.1181
  855MOL0     H15396   8.126   9.512   0.538  0.5483  1.9910 -2.4301
  855MOL0     H15397   8.310   9.532   0.789 -0.3380  2.2849  0.0393
  855MOL0     H15398   8.132   9.556   0.797  0.2534  0.2272  0.1776
  855MOL0     H15399   8.206   9.316   0.658  3.2135 -1.7871  1.1390
  855MOL0     H15400   8.080   9.346   0.787  0.9109 -2.7496  0.8397
  855MOL0     H15401   8.384   9.317   0.842  0.6294  0.6056  0.3780
  855MOL0     H15402   8.259   9.332   0.959 -2.0729 -1.1474  0.2002
  855MOL0     H15403   8.246   9.109   0.755 -0.8674 -2.7580  0.5448
  855MOL0     H15404   8.149   9.139   0.904 -2.3859  3.0821 -2.5754
  855MOL0     H15405   8.343   9.126   1.048 -2.0405 -1.2645 -0.0559
  855MOL0     H15406   8.453   9.097   0.905 -1.1616  0.7923 -3.2009
  855MOL0     H15407   8.311   9.938   0.894 -1.8571  5.0677  0.8246
  855MOL0     H15408   8.446  10.058   1.037  0.5586  3.6802 -0.7677
  855MOL0     H15409   8.881  10.303   1.058  0.4344  0.5393 -0.8465
  855MOL0     H15410   9.020  10.480   1.159 -0.0322 -0.5995 -0.3657
  855MOL0     H15411   8.520   9.557   1.424  1.9806  0.2238 -0.3915
  855MOL0     H15412   8.527   9.346   1.532  0.2843 -0.0322 -0.8000
  855MOL0     H15413   8.744   9.034   1.697 -0.7791  2.5723  0.8678
  855MOL0     H15414   8.762   8.794   1.786  0.0171 -0.4907  0.4338
  855MOL0     H15415   8.560   8.717   2.165  2.4019  4.3922 -1.7564
  855MOL0     H15416   8.644   8.556   2.137  0.4207 -0.6240 -0.0493
  855MOL0     H15417   8.710   8.633   2.345 -0.6492 -3.0522 -2.0814
  855MOL0     H15418   8.764   8.787   2.275 -2.1375 -0.0642 -0.5513
  855MOL0     H15419   8.892   8.523   2.195 -0.8784  0.4193 -0.5747
  855MOL0     H15420   8.941   8.606   2.342  0.3079 -2.4565 -0.7486
  855MOL0     H15421   8.931   8.720   2.051 -1.8596 -1.2062  2.3818
  855MOL0     H15422   9.081   8.672   2.121  1.2806  2.3661 -2.6076
  855MOL0     H15423   9.032   9.079   2.247 -3.3904 -0.1182  3.4400
  855MOL0     H15424   8.645   8.934   2.163  0.1360  1.2537 -0.8161
  855MOL0     H15425   8.575   9.146   2.067 -2.3497 -1.9246 -0.5046
  856MOL0     O15426   7.970   1.929   5.489  0.5655  0.0333  0.1555
  856MOL0     C15427   7.900   1.826   5.502  0.0092  0.2535 -0.3521
  856MOL0     O15428   7.918   1.704   5.434 -0.0737  0.1187  0.1272
  856MOL0     C15429   8.026   1.681   5.362 -0.1819  0.4089  0.2177
  856MOL0     C15430   8.011   1.692   5.228 -0.3161  0.0372  0.6499
  856MOL0     C15431   8.117   1.632   5.157  0.2208 -0.2743  0.5248
  856MOL0     C15432   8.231   1.574   5.216  0.6595 -0.0838  0.2318
  856MOL0     O15433   8.334   1.523   5.132  0.0744  0.1561  0.3315
  856MOL0     C15434   8.403   1.411   5.187  0.4440  0.7853  0.3042
  856MOL0     C15435   8.498   1.335   5.095 -0.1512  0.4411 -0.4366
  856MOL0     C15436   8.572   1.225   5.182 -0.6611 -0.8317  0.4582
  856MOL0     C15437   8.705   1.280   5.218  0.3574 -1.2181 -0.4912
  856MOL0     C15438   8.759   1.206   5.336  0.9056 -0.0586  0.4748
  856MOL0     C15439   8.886   1.269   5.393  0.2136  0.3311  0.8465
  856MOL0     C15440   8.972   1.177   5.476  0.5659  0.2889 -0.5110
  856MOL0     C15441   8.880   1.116   5.586  0.5206  0.0799  0.4181
  856MOL0     N15442   8.977   1.034   5.666  0.0640  0.5307  0.3683
  856MOL0     C15443   9.017   0.905   5.611 -0.0824 -0.3240 -0.3453
  856MOL0     C15444   9.145   0.895   5.663 -0.0741 -0.4372 -0.2048
  856MOL0     C15445   9.237   0.779   5.636  0.6164  0.4563 -0.4816
  856MOL0     C15446   9.251   0.696   5.766  0.2167 -0.0775 -0.3468
  856MOL0     C15447   9.152   0.587   5.795 -1.1817 -0.2315  0.7347
  856MOL0     C15448   9.223   0.452   5.767 -0.4035  0.8696  0.2992
  856MOL0     O15449   9.323   0.436   5.870  0.2789 -0.5570  0.0113
  856MOL0     C15450   9.406   0.341   5.832 -0.1374 -0.7285  0.4283
  856MOL0     C15451   9.537   0.375   5.799  0.0993 -0.4354 -0.9929
  856MOL0     C15452   9.623   0.268   5.777  0.2405  0.0596 -0.1755
  856MOL0     C15453   9.768   0.313   5.764  0.3063 -0.2283 -0.1282
  856MOL0     C15454   9.581   0.131   5.764 -0.5727  0.3161 -0.1272
  856MOL0     C15455   9.680   0.021   5.715  0.1319 -0.6819 -0.4597
  856MOL0     O15456   9.647  -0.111   5.755  0.4707 -0.4222 -0.3133
  856MOL0     C15457   9.717  -0.212   5.698 -0.0685 -0.4979 -0.5565
  856MOL0     C15458   9.678  -0.272   5.586 -0.1367 -0.1618  0.7390
  856MOL0     C15459   9.741  -0.393   5.541  0.0995  0.3610 -0.1937
  856MOL0     C15460   9.855  -0.439   5.614  0.5166  0.7436  0.5136
  856MOL0     O15461   9.922  -0.550   5.576 -0.5367 -0.2979 -0.3311
  856MOL0     C15462   9.872  -0.675   5.633 -0.0269  1.4125 -0.2057
  856MOL0     C15463   9.969  -0.747   5.740  0.1929  0.0535  1.0403
  856MOL0     C15464   9.893  -0.870   5.791  0.9049  0.5139  0.1155
  856MOL0     C15465   9.750  -0.857   5.849 -1.1578  0.3054 -0.5588
  856MOL0     C15466   9.726  -0.967   5.949  0.3448  0.3131 -0.2482
  856MOL0     C15467   9.702  -1.098   5.869  0.7734 -0.9562  0.0961
  856MOL0     C15468   9.658  -1.216   5.968 -0.2755  0.6704  0.1292
  856MOL0     C15469   9.770  -1.306   6.015  0.8301  0.2605 -0.2515
  856MOL0    Cl15470   9.868  -1.210   6.137 -0.0377 -0.4119 -0.6820
  856MOL0     C15471   9.894  -0.366   5.729  1.0783 -0.8793 -0.6523
  856MOL0     C15472   9.824  -0.257   5.773  1.1158 -0.3800 -0.0216
  856MOL0     O15473   9.768   0.056   5.643 -0.0869 -0.6202  0.5315
  856MOL0     C15474   9.451   0.100   5.797  0.1652 -0.0050 -0.8129
  856MOL0     C15475   9.366   0.204   5.840 -0.2004 -1.0298  0.9581
  856MOL0     N15476   9.181   1.011   5.737 -0.1344  0.1097  0.2096
  856MOL0     N15477   9.081   1.094   5.734  0.2982  0.1108  0.4936
  856MOL0     C15478   8.241   1.566   5.360 -0.1350 -0.1314 -0.0919
  856MOL0     C15479   8.132   1.620   5.429  0.1238  0.0653  0.3067
  856MOL0     C15480   7.771   1.841   5.576  0.2195 -0.8933  0.9225
  856MOL0     C15481   7.740   1.941   5.671 -0.6944  0.1640 -0.6147
  856MOL0     C15482   7.597   1.977   5.691  0.4026  0.1203  0.9711
  856MOL0     C15483   7.489   1.917   5.625  0.9551  0.8776 -0.3031
  856MOL0     O15484   7.354   1.953   5.639 -0.7002 -0.2268  1.0419
  856MOL0     C15485   7.327   2.081   5.709  0.3614 -0.1184 -0.1357
  856MOL0     C15486   7.178   2.105   5.729  0.7359 -0.1069  0.6737
  856MOL0     C15487   7.103   1.977   5.770 -1.4643  0.7240  0.5914
  856MOL0     C15488   6.965   2.009   5.841 -0.9072  0.1001  0.6924
  856MOL0     C15489   6.985   2.071   5.973  0.4918  0.7450  0.2593
  856MOL0     C15490   6.989   2.116   6.080 -0.1940  0.9398  0.1974
  856MOL0     C15491   7.525   1.814   5.542  0.4571  0.6333  1.0896
  856MOL0     C15492   7.659   1.775   5.512  1.2839 -0.9678  0.4155
  856MOL0     H15493   7.918   1.730   5.187  0.9637  0.8252 -1.6868
  856MOL0     H15494   8.110   1.615   5.050  1.1733 -2.5787  0.7676
  856MOL0     H15495   8.465   1.455   5.266 -0.7612  2.2080  0.5275
  856MOL0     H15496   8.328   1.342   5.227  0.6472  0.6454  0.4444
  856MOL0     H15497   8.430   1.294   5.020 -2.2893  2.8637  0.0450
  856MOL0     H15498   8.558   1.415   5.050  0.1640 -0.0481 -0.9021
  856MOL0     H15499   8.511   1.207   5.271  0.0687 -0.9322  0.9492
  856MOL0     H15500   8.600   1.137   5.124  0.7062 -0.4181  0.4314
  856MOL0     H15501   8.773   1.285   5.133  1.7726 -0.2875  0.6462
  856MOL0     H15502   8.683   1.382   5.251  0.2199 -0.3821 -2.9599
  856MOL0     H15503   8.672   1.198   5.401  0.6087  1.2956  0.2755
  856MOL0     H15504   8.778   1.104   5.303  2.4821 -1.5520  5.1232
  856MOL0     H15505   8.942   1.304   5.306  1.6494 -1.8991  0.7936
  856MOL0     H15506   8.856   1.351   5.459  0.9097  1.3819 -0.1035
  856MOL0     H15507   9.025   1.096   5.426 -0.8458 -0.1906 -1.2848
  856MOL0     H15508   9.039   1.236   5.539 -1.0598  1.9905 -0.3064
  856MOL0     H15509   8.802   1.062   5.533 -1.7883  3.2882  0.2353
  856MOL0     H15510   8.829   1.188   5.651  0.5005  0.1684  0.3046
  856MOL0     H15511   8.961   0.842   5.542  0.8839  2.4088 -3.8897
  856MOL0     H15512   9.202   0.723   5.548  0.0790 -0.5979  0.3839
  856MOL0     H15513   9.332   0.823   5.603 -0.9516  2.9834 -2.1009
  856MOL0     H15514   9.255   0.760   5.854  0.8882 -0.8610  0.2008
  856MOL0     H15515   9.352   0.656   5.768 -0.7903 -2.9727 -1.8398
  856MOL0     H15516   9.060   0.595   5.737 -2.3036  0.9585  2.5614
  856MOL0     H15517   9.126   0.585   5.902 -0.7942  1.8727  0.9188
  856MOL0     H15518   9.287   0.453   5.678 -0.1263 -0.3103  0.4664
  856MOL0     H15519   9.150   0.373   5.749  0.3016  0.0648  0.8821
  856MOL0     H15520   9.563   0.481   5.808  0.5212 -0.7370  2.2225
  856MOL0     H15521   9.794   0.410   5.808 -1.2226  1.5873 -2.9738
  856MOL0     H15522   9.823   0.237   5.821  1.1445  1.4398  1.4063
  856MOL0     H15523   9.808   0.312   5.662  1.1028 -4.4284  0.0517
  856MOL0     H15524   9.583  -0.246   5.540 -1.0005 -2.4457  1.0696
  856MOL0     H15525   9.718  -0.441   5.447  1.0012  3.3379 -2.0715
  856MOL0     H15526   9.778  -0.657   5.686  0.0232 -0.5153  0.5985
  856MOL0     H15527   9.845  -0.747   5.555  3.5009  0.7781 -0.9843
  856MOL0     H15528  10.057  -0.775   5.683 -0.0881 -0.9936  1.0991
  856MOL0     H15529   9.991  -0.678   5.822  0.7438  5.0317 -2.8598
  856MOL0     H15530   9.959  -0.904   5.871  0.5415 -0.6576 -0.0745
  856MOL0     H15531   9.884  -0.950   5.717  0.5662  0.5185  0.1556
  856MOL0     H15532   9.755  -0.759   5.896  2.1663  0.3156 -0.6507
  856MOL0     H15533   9.673  -0.834   5.775 -1.3628 -1.5564 -0.9631
  856MOL0     H15534   9.634  -0.935   5.999  1.0710  0.1814  1.2414
  856MOL0     H15535   9.794  -0.983   6.034 -2.5315 -1.3863  1.9166
  856MOL0     H15536   9.610  -1.077   5.814  2.6350 -0.6550 -3.2489
  856MOL0     H15537   9.764  -1.119   5.781 -1.6067  0.7814 -2.1399
  856MOL0     H15538   9.596  -1.290   5.915  1.4273 -1.6144  1.1731
  856MOL0     H15539   9.603  -1.184   6.057  0.4689  2.9632 -0.1677
  856MOL0     H15540   9.835  -1.340   5.934  1.3677 -2.0074  1.0357
  856MOL0     H15541   9.733  -1.398   6.061  1.3299  0.2777  0.1901
  856MOL0     H15542   9.979  -0.397   5.789 -1.1653 -0.2276  3.2317
  856MOL0     H15543   9.856  -0.202   5.862 -0.1107 -0.8316  0.7233
  856MOL0     H15544   9.408   0.001   5.788 -3.0659  1.3448 -1.6029
  856MOL0     H15545   9.266   0.189   5.881  0.9310 -0.6188  4.1186
  856MOL0     H15546   8.299   1.501   5.425  0.6861  1.7540  1.1231
  856MOL0     H15547   8.126   1.592   5.534  2.0830 -0.1461  0.3956
  856MOL0     H15548   7.818   1.988   5.729 -2.7909  1.0814  1.6576
  856MOL0     H15549   7.580   2.052   5.768  1.5728  0.9377  0.4587
  856MOL0     H15550   7.375   2.067   5.806 -3.1912 -1.9075  1.5472
  856MOL0     H15551   7.373   2.165   5.656 -2.4379  0.3864 -1.9555
  856MOL0     H15552   7.129   2.138   5.637  0.4675 -0.3887  0.7144
  856MOL0     H15553   7.170   2.177   5.811 -1.2957  0.1145  0.3243
  856MOL0     H15554   7.169   1.916   5.832 -1.0668  2.5346  2.0323
  856MOL0     H15555   7.089   1.926   5.674  2.5773 -5.2862  2.5856
  856MOL0     H15556   6.903   1.921   5.858 -3.1455  0.8221 -2.6827
  856MOL0     H15557   6.913   2.081   5.776 -0.6463  1.7286  2.2122
  856MOL0     H15558   6.980   2.152   6.181  1.5972  0.0459  0.7098
  856MOL0     H15559   7.443   1.762   5.492  2.2685 -0.8616 -0.5003
  856MOL0     H15560   7.680   1.709   5.428 -2.1167  0.6224 -1.8982
  857MOL0     O15561   7.567   8.374   4.104  0.8699  0.0340 -0.1913
  857MOL0     C15562   7.549   8.441   4.204  0.3394  0.0834  0.7019
  857MOL0     O15563   7.577   8.562   4.223 -0.1445 -0.0884  0.1144
  857MOL0     C15564   7.655   8.631   4.134 -1.1561 -0.4541 -0.5368
  857MOL0     C15565   7.774   8.581   4.076  0.3099 -0.0561  0.7743
  857MOL0     C15566   7.852   8.666   3.998 -0.2413 -0.4252  0.7933
  857MOL0     C15567   7.809   8.794   3.966  1.2225  0.0244 -1.0809
  857MOL0     O15568   7.873   8.876   3.872  0.0097  0.3017 -0.1193
  857MOL0     C15569   8.008   8.860   3.842  0.5187 -0.3480  0.6865
  857MOL0     C15570   8.075   8.984   3.779  0.0824  0.3901 -0.6596
  857MOL0     C15571   8.192   8.939   3.699  0.2214 -0.0167 -0.0227
  857MOL0     C15572   8.163   8.876   3.560  0.2321  0.1835  0.6930
  857MOL0     C15573   8.116   8.976   3.440  0.4950  0.3986 -0.2881
  857MOL0     C15574   8.216   9.051   3.364 -0.8510  0.5737  0.6001
  857MOL0     C15575   8.144   9.148   3.276 -0.1722 -0.3894  0.3707
  857MOL0     C15576   8.243   9.217   3.173 -0.2152 -0.0387  0.6120
  857MOL0     N15577   8.174   9.322   3.093 -0.2770 -0.4432 -0.3936
  857MOL0     C15578   8.063   9.303   3.021 -0.2794  0.6353 -0.0906
  857MOL0     C15579   8.025   9.415   2.963  0.2029 -1.2071 -0.1237
  857MOL0     C15580   7.911   9.439   2.866 -0.1784  0.4520 -0.2791
  857MOL0     C15581   7.939   9.366   2.729 -0.1639 -0.2877  0.3610
  857MOL0     C15582   7.849   9.388   2.616  0.5670 -0.9353  0.4470
  857MOL0     C15583   7.699   9.387   2.651  0.4495  0.9045 -0.3603
  857MOL0     O15584   7.619   9.371   2.526 -0.0060 -0.3194 -0.4159
  857MOL0     C15585   7.601   9.462   2.431 -0.2208 -0.3708  0.7843
  857MOL0     C15586   7.524   9.422   2.330 -0.0424 -0.5828  0.2429
  857MOL0     C15587   7.482   9.508   2.223 -0.4777 -0.7188  0.5266
  857MOL0     C15588   7.411   9.445   2.109  1.1221  0.5536 -0.5530
  857MOL0     C15589   7.537   9.643   2.221 -0.1152  0.1863  0.8437
  857MOL0     C15590   7.529   9.743   2.111  0.5105  0.0163 -0.0645
  857MOL0     O15591   7.529   9.871   2.157 -0.4821 -0.1959 -0.3920
  857MOL0     C15592   7.529   9.972   2.062  0.3020 -0.1541 -0.4165
  857MOL0     C15593   7.627  10.076   2.063 -0.4047 -0.4530  0.3685
  857MOL0     C15594   7.620  10.183   1.970 -0.3640  0.2624  0.0685
  857MOL0     C15595   7.522  10.193   1.872 -0.5571  0.7884 -0.4425
  857MOL0     O15596   7.525  10.281   1.764 -0.0320  0.5699  1.1126
  857MOL0     C15597   7.651  10.302   1.703  0.0572  0.1709 -0.3161
  857MOL0     C15598   7.651  10.377   1.565 -0.1990  0.5548 -0.4701
  857MOL0     C15599   7.595  10.517   1.545  0.9116  1.1607  0.4978
  857MOL0     C15600   7.642  10.621   1.651 -0.1605  0.2802  0.2534
  857MOL0     C15601   7.539  10.736   1.658  0.4644 -0.5485  0.1080
  857MOL0     C15602   7.395  10.714   1.718 -0.5858 -0.1774 -0.2931
  857MOL0     C15603   7.417  10.686   1.871 -0.3351  0.3142 -0.5064
  857MOL0     C15604   7.463  10.819   1.948  1.2158  0.2432 -0.7246
  857MOL0    Cl15605   7.460  10.795   2.130  0.0320  0.0691  0.3255
  857MOL0     C15606   7.420  10.099   1.880 -0.8351 -1.0757 -0.7112
  857MOL0     C15607   7.423   9.991   1.970 -1.0070  0.1842  1.0251
  857MOL0     O15608   7.538   9.706   1.993  0.0222 -0.0529 -0.3865
  857MOL0     C15609   7.622   9.683   2.334 -0.1161  0.4860 -0.5552
  857MOL0     C15610   7.645   9.591   2.435 -0.6665  0.9761 -0.9376
  857MOL0     N15611   8.114   9.511   3.004  0.5759  0.1003 -0.7662
  857MOL0     N15612   8.201   9.457   3.077 -0.8937 -0.7052  0.5438
  857MOL0     C15613   7.680   8.829   4.010  0.3430 -0.2178 -0.9179
  857MOL0     C15614   7.605   8.752   4.099 -1.0502 -0.0486 -0.2822
  857MOL0     C15615   7.488   8.359   4.311 -0.3124  0.4946 -0.3505
  857MOL0     C15616   7.497   8.216   4.304 -1.5481 -0.1301 -0.3066
  857MOL0     C15617   7.438   8.135   4.406 -0.0488  0.1956  0.3177
  857MOL0     C15618   7.354   8.191   4.494 -0.4948  0.2156 -0.5730
  857MOL0     O15619   7.297   8.108   4.590 -0.1499 -0.4511  0.1641
  857MOL0     C15620   7.228   8.154   4.702 -0.9485 -0.9797  1.2710
  857MOL0     C15621   7.228   8.038   4.792 -0.0418  0.0912  0.5070
  857MOL0     C15622   7.367   7.982   4.835  0.1059 -0.2259  0.2965
  857MOL0     C15623   7.429   8.051   4.962  0.0328 -1.0230  0.5509
  857MOL0     C15624   7.568   8.023   4.979  0.3350  0.0275 -0.0735
  857MOL0     C15625   7.688   7.991   4.976 -0.1005  0.0805  0.4230
  857MOL0     C15626   7.326   8.326   4.486 -0.1199 -0.5472  0.0009
  857MOL0     C15627   7.403   8.411   4.401 -0.1452 -0.2396 -0.1557
  857MOL0     H15628   7.803   8.479   4.102 -0.1278 -0.3689  0.0795
  857MOL0     H15629   7.944   8.627   3.956 -1.4445  0.5967 -3.2169
  857MOL0     H15630   8.062   8.841   3.935 -3.0164 -2.8405  2.4603
  857MOL0     H15631   8.023   8.764   3.793  2.3199 -1.0210  2.4415
  857MOL0     H15632   8.002   9.043   3.724 -1.6289 -1.1783 -0.1862
  857MOL0     H15633   8.101   9.047   3.865  1.9882  1.4805 -1.9838
  857MOL0     H15634   8.252   9.029   3.680 -1.3604  1.3503  1.1979
  857MOL0     H15635   8.255   8.869   3.754 -0.2804 -1.7219 -1.5332
  857MOL0     H15636   8.249   8.818   3.526 -0.7226 -0.5862 -0.4947
  857MOL0     H15637   8.090   8.797   3.578  0.2809  0.1327  0.6713
  857MOL0     H15638   8.058   8.919   3.367  2.2751  1.1409 -2.3822
  857MOL0     H15639   8.060   9.061   3.482  1.7145  1.1830 -0.1955
  857MOL0     H15640   8.287   9.099   3.432  1.1182 -1.7195  0.3236
  857MOL0     H15641   8.272   8.981   3.302 -4.0101 -3.2923  1.6759
  857MOL0     H15642   8.086   9.083   3.210  1.3292 -0.0348 -1.3820
  857MOL0     H15643   8.087   9.219   3.338  0.7549 -0.5092  1.3863
  857MOL0     H15644   8.282   9.146   3.099  0.4105 -1.2609  2.0512
  857MOL0     H15645   8.332   9.261   3.220 -0.2623 -0.6445  1.2771
  857MOL0     H15646   8.006   9.211   3.031 -2.7023  2.2568  2.4819
  857MOL0     H15647   7.820   9.387   2.898  0.9284 -1.6146 -0.3044
  857MOL0     H15648   7.901   9.547   2.852 -1.2047  0.3819 -0.1547
  857MOL0     H15649   7.931   9.260   2.751 -0.8440 -0.0288  1.4272
  857MOL0     H15650   8.039   9.400   2.698 -1.1969  3.1269  0.3470
  857MOL0     H15651   7.865   9.325   2.528 -0.7287  2.0729 -2.1458
  857MOL0     H15652   7.875   9.487   2.578 -2.8873  0.0998  0.4559
  857MOL0     H15653   7.662   9.471   2.711 -2.2331 -0.3259 -0.1456
  857MOL0     H15654   7.683   9.303   2.719 -1.6413  1.4838 -0.0526
  857MOL0     H15655   7.500   9.316   2.334  0.5152 -0.6696  2.4299
  857MOL0     H15656   7.319   9.504   2.101  1.8356  1.6749 -0.7167
  857MOL0     H15657   7.454   9.443   2.008 -4.0778 -3.2782 -3.1755
  857MOL0     H15658   7.395   9.341   2.140 -2.3977  0.7933 -1.1903
  857MOL0     H15659   7.703  10.062   2.139  0.9534 -3.2598 -1.3266
  857MOL0     H15660   7.691  10.265   1.979 -2.3488  1.8054  4.0623
  857MOL0     H15661   7.713  10.352   1.778 -0.8948  0.6722  0.1597
  857MOL0     H15662   7.699  10.207   1.682  2.1419  1.3279 -1.0393
  857MOL0     H15663   7.758  10.379   1.544  0.7433 -1.9268  3.0074
  857MOL0     H15664   7.607  10.312   1.488  0.6283 -2.0267  1.0867
  857MOL0     H15665   7.488  10.499   1.550  1.1650 -0.2857  4.5220
  857MOL0     H15666   7.629  10.548   1.446 -0.7406  0.1125 -0.4267
  857MOL0     H15667   7.666  10.569   1.744  4.3098  1.9375  0.2792
  857MOL0     H15668   7.734  10.666   1.612  0.0792  1.2652  1.8573
  857MOL0     H15669   7.528  10.778   1.558  0.0470  1.8322  1.1017
  857MOL0     H15670   7.593  10.812   1.714 -0.9060  1.4722 -1.1617
  857MOL0     H15671   7.342  10.809   1.705 -0.2530  0.4051  2.0900
  857MOL0     H15672   7.337  10.633   1.675 -1.3529  0.9724 -1.4962
  857MOL0     H15673   7.485  10.602   1.887 -0.9506 -0.1955 -0.5236
  857MOL0     H15674   7.327  10.638   1.911 -0.5588  1.4373  0.3970
  857MOL0     H15675   7.408  10.911   1.927 -1.7395 -0.7177  1.9021
  857MOL0     H15676   7.571  10.828   1.935  2.2283 -0.6775  4.4882
  857MOL0     H15677   7.329  10.110   1.822 -1.0914  0.6962 -0.0281
  857MOL0     H15678   7.343   9.918   1.976 -0.0942 -1.0924 -1.1324
  857MOL0     H15679   7.665   9.782   2.326  0.2157  0.2558 -2.0301
  857MOL0     H15680   7.712   9.619   2.516  1.6936 -1.0659 -2.0446
  857MOL0     H15681   7.637   8.926   3.986  2.2242  0.9153  0.1087
  857MOL0     H15682   7.506   8.778   4.134 -0.0513  0.0806  2.7118
  857MOL0     H15683   7.559   8.175   4.224 -0.6454  2.2840 -0.9511
  857MOL0     H15684   7.456   8.029   4.388  2.8601  0.8661 -1.5467
  857MOL0     H15685   7.265   8.245   4.750 -2.2805  0.1398  0.2637
  857MOL0     H15686   7.122   8.174   4.680 -1.2020  0.4828  3.5060
  857MOL0     H15687   7.165   7.964   4.741 -0.8159  2.1420 -1.7159
  857MOL0     H15688   7.175   8.065   4.884  1.9156  0.7063  1.5005
  857MOL0     H15689   7.442   7.979   4.756 -1.4640 -2.4027 -1.2181
  857MOL0     H15690   7.354   7.878   4.865 -0.5377  0.2161  1.6273
  857MOL0     H15691   7.379   8.014   5.052 -0.6249  2.5505  1.8171
  857MOL0     H15692   7.424   8.160   4.959  2.6556 -0.8211  0.4805
  857MOL0     H15693   7.782   7.950   5.006 -0.0445  1.6677  2.5876
  857MOL0     H15694   7.251   8.379   4.544 -1.0526 -1.4284 -0.3691
  857MOL0     H15695   7.361   8.510   4.386 -2.8784 -1.4795 -1.4063
  858MOL0     O15696   8.801   2.210   7.330 -0.4800 -0.6965  0.6935
  858MOL0     C15697   8.882   2.242   7.417 -0.6782 -0.3678 -0.1581
  858MOL0     O15698   8.849   2.314   7.532 -0.3630  0.1517  0.0580
  858MOL0     C15699   8.718   2.346   7.547 -0.2784 -0.0970  0.3444
  858MOL0     C15700   8.611   2.259   7.590 -0.3218 -0.1211  0.3874
  858MOL0     C15701   8.486   2.312   7.602  0.2224  0.4639 -0.1595
  858MOL0     C15702   8.455   2.444   7.574  0.1213 -0.2694 -0.2602
  858MOL0     O15703   8.332   2.494   7.599  0.0487  0.0532  1.2723
  858MOL0     C15704   8.273   2.600   7.516 -0.8757  0.9237 -0.3537
  858MOL0     C15705   8.121   2.590   7.538 -0.8772 -0.5332 -1.0103
  858MOL0     C15706   8.045   2.696   7.448  0.8154 -0.7641  1.3865
  858MOL0     C15707   8.020   2.640   7.299 -1.0075 -0.8776  0.3694
  858MOL0     C15708   7.941   2.733   7.217 -0.0218 -0.1412  0.2167
  858MOL0     C15709   7.789   2.725   7.243 -0.0467 -0.0372 -0.4720
  858MOL0     C15710   7.720   2.861   7.224  0.4673  0.4531  0.2225
  858MOL0     C15711   7.571   2.843   7.279  0.0742 -0.1349 -0.4726
  858MOL0     N15712   7.484   2.925   7.201 -0.0849 -0.0828  0.4311
  858MOL0     C15713   7.397   3.006   7.253 -0.6358  0.2438 -0.0588
  858MOL0     C15714   7.353   3.075   7.144 -1.1671 -1.3382  0.8390
  858MOL0     C15715   7.262   3.187   7.131  0.3547 -0.8641  0.0527
  858MOL0     C15716   7.280   3.286   7.256  0.3007  0.1090 -0.5092
  858MOL0     C15717   7.175   3.397   7.262  0.4720 -1.1679  0.1830
  858MOL0     C15718   7.197   3.482   7.385 -0.0003  0.8730  0.7891
  858MOL0     O15719   7.092   3.573   7.388 -0.5174 -0.0479  0.1750
  858MOL0     C15720   7.106   3.677   7.482 -0.4969 -0.4396  0.2895
  858MOL0     C15721   7.033   3.797   7.478  0.6969  0.4054 -0.3699
  858MOL0     C15722   7.026   3.885   7.585  0.1677 -0.4761 -0.1124
  858MOL0     C15723   6.948   4.020   7.554  0.0787  0.1648 -0.0620
  858MOL0     C15724   7.100   3.866   7.701 -0.1569  0.0096  0.3268
  858MOL0     C15725   7.123   3.982   7.787 -0.9395 -0.5486 -0.0105
  858MOL0     O15726   7.246   4.044   7.761  0.0302 -0.9521  0.4538
  858MOL0     C15727   7.293   4.141   7.847 -0.7653  0.8276  0.8668
  858MOL0     C15728   7.393   4.111   7.943 -0.2918 -0.1375 -0.2633
  858MOL0     C15729   7.435   4.214   8.027 -0.7977  0.4556 -0.0754
  858MOL0     C15730   7.381   4.338   8.009 -0.7278  0.2481 -1.4062
  858MOL0     O15731   7.436   4.435   8.088  0.6596  0.4021  0.2035
  858MOL0     C15732   7.345   4.491   8.188 -0.4531  0.7701  1.1231
  858MOL0     C15733   7.412   4.625   8.234 -0.3311  0.7475 -1.2730
  858MOL0     C15734   7.465   4.724   8.135  0.0920 -1.0305 -0.2125
  858MOL0     C15735   7.599   4.787   8.195 -0.3217 -0.3023 -0.7943
  858MOL0     C15736   7.570   4.876   8.319  0.2109 -0.1920  0.0403
  858MOL0     C15737   7.677   4.983   8.353  0.9796  0.6322 -0.1354
  858MOL0     C15738   7.724   5.058   8.229  0.6092 -1.1662  0.0124
  858MOL0     C15739   7.769   5.198   8.256 -0.3223 -0.7879 -0.0848
  858MOL0    Cl15740   7.914   5.169   8.352  0.0243 -0.1690  0.1495
  858MOL0     C15741   7.286   4.362   7.914 -0.4623 -0.4372 -0.3780
  858MOL0     C15742   7.240   4.261   7.835 -0.8289  0.8334  0.4003
  858MOL0     O15743   7.024   4.027   7.851 -0.1424  0.7245 -0.3334
  858MOL0     C15744   7.176   3.750   7.716  0.5962  1.0586  0.3238
  858MOL0     C15745   7.178   3.664   7.605  0.2002  0.7751  0.1675
  858MOL0     N15746   7.404   3.018   7.029 -0.0268 -1.2173  0.3378
  858MOL0     N15747   7.472   2.918   7.065 -1.2955 -0.3080 -0.9658
  858MOL0     C15748   8.565   2.523   7.521  0.5343 -0.4537  0.6364
  858MOL0     C15749   8.690   2.471   7.504  0.0351  0.1426  0.4704
  858MOL0     C15750   9.019   2.197   7.405  0.2093  0.2866  0.5087
  858MOL0     C15751   9.049   2.086   7.325 -0.0914  0.4839 -0.0659
  858MOL0     C15752   9.175   2.031   7.322 -0.6725  0.5739  0.1858
  858MOL0     C15753   9.270   2.074   7.413  0.0140  0.9981  0.8754
  858MOL0     O15754   9.395   2.020   7.420 -0.3749 -0.8195  0.0343
  858MOL0     C15755   9.458   1.992   7.293  0.1287  0.4156 -0.3402
  858MOL0     C15756   9.572   1.908   7.339 -0.6634  0.3501 -0.1731
  858MOL0     C15757   9.656   1.967   7.450 -0.7060 -0.4919  0.2927
  858MOL0     C15758   9.807   1.921   7.450  0.2272  0.9982  0.5740
  858MOL0     C15759   9.832   1.774   7.447  0.3208 -0.1326  0.7135
  858MOL0     C15760   9.855   1.655   7.446 -0.8542  0.2291  0.6302
  858MOL0     C15761   9.238   2.184   7.493  0.4684  0.6908 -0.3095
  858MOL0     C15762   9.113   2.240   7.500 -0.0375 -0.6178  0.4484
  858MOL0     H15763   8.619   2.161   7.636  1.2382 -0.3814 -0.3869
  858MOL0     H15764   8.404   2.256   7.645 -0.9909  1.6232 -0.8669
  858MOL0     H15765   8.307   2.696   7.554  2.7958  0.1444 -1.2318
  858MOL0     H15766   8.295   2.600   7.409  2.8613 -0.3691  0.2396
  858MOL0     H15767   8.093   2.489   7.510 -0.2794 -1.4044  1.2789
  858MOL0     H15768   8.095   2.605   7.644  1.0899 -0.9555 -0.4340
  858MOL0     H15769   7.947   2.699   7.498  1.2253  1.6098  2.1604
  858MOL0     H15770   8.085   2.797   7.449  1.9479 -1.0028 -2.6140
  858MOL0     H15771   8.117   2.620   7.253 -0.3990 -0.8409  1.5894
  858MOL0     H15772   7.977   2.540   7.304 -1.4018 -0.7519 -0.3968
  858MOL0     H15773   7.976   2.836   7.230 -0.0692  0.7912 -5.0706
  858MOL0     H15774   7.971   2.705   7.116  1.2573  1.0227  0.2377
  858MOL0     H15775   7.745   2.666   7.162 -1.6822  1.1584 -0.5195
  858MOL0     H15776   7.752   2.681   7.336  0.7607 -1.3271 -0.7385
  858MOL0     H15777   7.766   2.939   7.285 -1.4988 -2.5127  6.3305
  858MOL0     H15778   7.722   2.895   7.120 -2.4476  1.4372  0.3817
  858MOL0     H15779   7.562   2.853   7.388  0.5413 -3.8800  0.0387
  858MOL0     H15780   7.533   2.741   7.272 -3.7184  1.2663 -4.5960
  858MOL0     H15781   7.361   3.005   7.355 -0.5657 -2.9013  0.0288
  858MOL0     H15782   7.298   3.238   7.040  3.1162 -0.3426  1.3277
  858MOL0     H15783   7.160   3.150   7.119 -1.0342  2.3661  0.7888
  858MOL0     H15784   7.369   3.344   7.230  0.1162  0.6708  0.0846
  858MOL0     H15785   7.295   3.236   7.352 -0.6913 -1.0045 -0.9128
  858MOL0     H15786   7.076   3.352   7.275  0.9582 -1.9328  1.3142
  858MOL0     H15787   7.180   3.451   7.167  0.0266 -0.1266  0.7313
  858MOL0     H15788   7.297   3.526   7.378 -1.6137  4.7153 -0.8375
  858MOL0     H15789   7.185   3.402   7.459 -2.6477 -0.4027 -0.8543
  858MOL0     H15790   6.970   3.803   7.390 -0.5907 -3.5131  0.1026
  858MOL0     H15791   7.014   4.107   7.554 -0.9854  1.0033 -1.2036
  858MOL0     H15792   6.902   4.016   7.455 -0.1719 -0.0104  0.0619
  858MOL0     H15793   6.874   4.035   7.633  1.4378  1.7522  0.9778
  858MOL0     H15794   7.426   4.008   7.952  0.2924  0.1369  1.1670
  858MOL0     H15795   7.514   4.198   8.099  3.1506 -3.7325 -4.6084
  858MOL0     H15796   7.253   4.524   8.138  0.5018  0.2204 -1.1278
  858MOL0     H15797   7.335   4.413   8.264 -1.6881 -1.1917 -0.9370
  858MOL0     H15798   7.356   4.671   8.316  1.4432  0.6364  0.0533
  858MOL0     H15799   7.503   4.586   8.280  1.2071  2.4812 -2.7044
  858MOL0     H15800   7.392   4.804   8.119  1.6992  1.2670  2.8892
  858MOL0     H15801   7.483   4.674   8.039 -4.2439  0.1798 -1.8908
  858MOL0     H15802   7.667   4.702   8.212 -2.4728 -2.1989 -1.1967
  858MOL0     H15803   7.640   4.854   8.119 -1.8789 -1.0297 -2.3508
  858MOL0     H15804   7.564   4.809   8.406 -0.3792 -0.7973 -0.4598
  858MOL0     H15805   7.470   4.918   8.305  0.2094  1.4526  3.8399
  858MOL0     H15806   7.640   5.055   8.426 -1.0623 -0.9970  0.5188
  858MOL0     H15807   7.761   4.922   8.388  0.2548 -1.6766 -2.1234
  858MOL0     H15808   7.640   5.074   8.160 -0.4323  3.2330  1.9712
  858MOL0     H15809   7.806   5.012   8.173  0.9692  1.4009 -1.7340
  858MOL0     H15810   7.696   5.262   8.305 -0.1488  0.5924 -1.5550
  858MOL0     H15811   7.787   5.243   8.159  1.4114 -1.8425 -0.2971
  858MOL0     H15812   7.240   4.460   7.907  3.0653  1.3543 -1.0767
  858MOL0     H15813   7.176   4.281   7.750  1.7336  2.7295 -1.2515
  858MOL0     H15814   7.242   3.749   7.802  1.6510  0.4754 -0.4627
  858MOL0     H15815   7.225   3.569   7.626  4.2569  0.9993 -5.3474
  858MOL0     H15816   8.543   2.615   7.468  1.4552 -1.2357 -1.2160
  858MOL0     H15817   8.772   2.531   7.467 -0.5346  1.0576  0.6608
  858MOL0     H15818   8.973   2.053   7.255 -0.4755  1.8538 -0.3179
  858MOL0     H15819   9.187   1.946   7.255  0.6884  1.2530 -0.4524
  858MOL0     H15820   9.397   1.938   7.220  1.3876 -2.4022  0.5695
  858MOL0     H15821   9.477   2.090   7.248 -5.2070  1.9475  0.1224
  858MOL0     H15822   9.643   1.911   7.255 -0.0707  3.1648  0.3192
  858MOL0     H15823   9.542   1.806   7.364 -1.1587  0.5368  0.0217
  858MOL0     H15824   9.612   1.939   7.546  1.3392 -5.1195  0.1246
  858MOL0     H15825   9.662   2.075   7.433 -3.0315 -0.6535 -2.3098
  858MOL0     H15826   9.860   1.969   7.533  2.3123 -1.7370  1.0083
  858MOL0     H15827   9.857   1.964   7.363  1.8752 -2.1493 -0.2272
  858MOL0     H15828   9.863   1.549   7.455  1.4860  0.0879 -1.9861
  858MOL0     H15829   9.312   2.204   7.570  1.4835  0.6821 -1.2546
  858MOL0     H15830   9.086   2.327   7.559 -3.4474 -2.2875  1.5902
  859MOL0     O15831   0.157   8.473   6.702  0.0891 -0.1701  0.2463
  859MOL0     C15832   0.132   8.432   6.815  0.5354 -0.6300  0.6687
  859MOL0     O15833   0.129   8.302   6.852  0.8869  0.2016  0.4330
  859MOL0     C15834   0.154   8.211   6.751  0.3820 -0.0873  0.4914
  859MOL0     C15835   0.064   8.164   6.656 -0.6716 -0.6009  0.6387
  859MOL0     C15836   0.109   8.076   6.549 -0.1153  0.0871  0.2435
  859MOL0     C15837   0.244   8.025   6.555  0.6445 -0.2661 -0.0284
  859MOL0     O15838   0.307   7.959   6.453  0.3249 -0.1693  0.6615
  859MOL0     C15839   0.241   7.860   6.372 -0.0203 -0.2536  0.6722
  859MOL0     C15840   0.310   7.720   6.351  0.3111 -0.2357 -0.0007
  859MOL0     C15841   0.318   7.612   6.466 -0.4833 -0.3932  0.8339
  859MOL0     C15842   0.407   7.497   6.434  0.4694 -0.1629 -0.0026
  859MOL0     C15843   0.357   7.404   6.321  0.6467 -0.3225 -0.5067
  859MOL0     C15844   0.422   7.258   6.327 -1.0433 -0.7204 -0.5539
  859MOL0     C15845   0.375   7.177   6.201  0.0950 -0.0990 -0.6996
  859MOL0     C15846   0.442   7.217   6.073 -0.4317 -0.0893 -0.5674
  859MOL0     N15847   0.583   7.170   6.069 -0.5790 -0.3979 -0.3834
  859MOL0     C15848   0.634   7.047   6.099  0.5016  0.0987 -0.3954
  859MOL0     C15849   0.767   7.055   6.080 -0.2061 -0.1166  0.2489
  859MOL0     C15850   0.873   6.952   6.112  0.3831  0.3914  0.4373
  859MOL0     C15851   0.918   6.863   6.000  0.4819 -0.9926 -0.4628
  859MOL0     C15852   0.815   6.803   5.901 -0.3382 -0.8865  0.3910
  859MOL0     C15853   0.715   6.712   5.969 -0.8595  0.2045  0.0054
  859MOL0     O15854   0.783   6.611   6.047  0.3509 -0.0538  0.2853
  859MOL0     C15855   0.700   6.523   6.107  0.8533 -0.6467 -1.5725
  859MOL0     C15856   0.648   6.539   6.240 -0.4823  0.0722  0.2392
  859MOL0     C15857   0.569   6.446   6.305  0.1443  0.6058 -0.0298
  859MOL0     C15858   0.528   6.469   6.443 -0.1933 -0.4941  0.1481
  859MOL0     C15859   0.522   6.325   6.242 -0.5967  0.8537 -1.0210
  859MOL0     C15860   0.454   6.203   6.303  0.9733 -0.0135  0.5540
  859MOL0     O15861   0.364   6.154   6.225 -0.3963 -0.4753 -0.3261
  859MOL0     C15862   0.305   6.040   6.273  0.2775 -0.6612  0.0663
  859MOL0     C15863   0.171   6.023   6.219 -0.6474 -0.1658 -0.3106
  859MOL0     C15864   0.110   5.899   6.221 -0.0123 -0.7766  0.1551
  859MOL0     C15865   0.171   5.794   6.294  0.5089  0.1416 -0.5750
  859MOL0     O15866   0.094   5.682   6.291  0.1173  0.1646 -0.6163
  859MOL0     C15867   0.137   5.560   6.349 -0.2063  0.5266 -0.4551
  859MOL0     C15868   0.027   5.452   6.339  0.7215  1.0247  0.1337
  859MOL0     C15869  -0.110   5.480   6.421 -0.3190 -0.0084  0.1247
  859MOL0     C15870  -0.116   5.457   6.570  0.0626 -0.7963  0.3451
  859MOL0     C15871  -0.258   5.461   6.641 -0.2934 -0.1237  0.3987
  859MOL0     C15872  -0.304   5.605   6.637  0.5620 -0.2994  0.3215
  859MOL0     C15873  -0.437   5.637   6.718 -0.0211  0.8614 -0.0337
  859MOL0     C15874  -0.471   5.785   6.729 -0.3010  0.3895  0.4405
  859MOL0    Cl15875  -0.532   5.857   6.571 -0.1297  0.0989  0.1491
  859MOL0     C15876   0.293   5.812   6.360  1.1845  0.2391  0.6073
  859MOL0     C15877   0.358   5.936   6.351 -1.1970  0.4457 -0.2529
  859MOL0     O15878   0.495   6.175   6.416  0.1370 -1.1618 -0.5569
  859MOL0     C15879   0.571   6.306   6.114 -0.5371  0.7851  0.1244
  859MOL0     C15880   0.660   6.398   6.052 -0.4368  0.1521  0.5503
  859MOL0     N15881   0.796   7.186   6.044  0.4300  0.2381  0.2821
  859MOL0     N15882   0.683   7.248   6.027 -0.0061 -0.5416 -0.1009
  859MOL0     C15883   0.324   8.052   6.663 -0.1590 -0.5616 -0.3264
  859MOL0     C15884   0.280   8.145   6.761  0.7270  0.2216  0.6069
  859MOL0     C15885   0.114   8.528   6.922 -0.4937 -0.4356 -0.6731
  859MOL0     C15886   0.073   8.660   6.891  1.4524  0.3001  0.3324
  859MOL0     C15887   0.059   8.754   6.991 -0.2661 -0.3287  0.8753
  859MOL0     C15888   0.089   8.726   7.120  0.2823 -0.5149 -0.9234
  859MOL0     O15889   0.094   8.816   7.218  0.2047 -0.1326 -0.5144
  859MOL0     C15890   0.217   8.844   7.271  0.3504  0.0152  0.4878
  859MOL0     C15891   0.193   8.968   7.358 -0.7198  0.5090  0.5251
  859MOL0     C15892   0.055   8.987   7.423 -0.2422  0.1968 -0.0073
  859MOL0     C15893   0.059   9.086   7.549 -0.0233  0.2215  0.2345
  859MOL0     C15894   0.085   9.032   7.680 -0.1905  0.4131 -0.5094
  859MOL0     C15895   0.092   8.989   7.793  0.6803  0.7025 -0.6582
  859MOL0     C15896   0.132   8.599   7.157 -0.0309 -1.1267 -0.1969
  859MOL0     C15897   0.146   8.501   7.057 -1.0190  0.8317  0.8462
  859MOL0     H15898  -0.038   8.198   6.667 -1.0363 -1.2456 -0.5106
  859MOL0     H15899   0.053   8.040   6.463 -0.6564 -3.3866  1.8467
  859MOL0     H15900   0.142   7.836   6.412 -2.4756  2.4402 -3.0546
  859MOL0     H15901   0.215   7.899   6.273  0.2313  1.9636  1.4161
  859MOL0     H15902   0.262   7.681   6.260  0.7668 -0.8811  0.0287
  859MOL0     H15903   0.410   7.754   6.326 -0.5596  0.3021 -3.3553
  859MOL0     H15904   0.361   7.660   6.554 -0.4265 -0.2886  0.7502
  859MOL0     H15905   0.228   7.554   6.489  0.4555 -3.1880 -1.8016
  859MOL0     H15906   0.505   7.543   6.419 -1.0642  3.0815 -1.2670
  859MOL0     H15907   0.428   7.445   6.528  2.8337  1.4002  0.4344
  859MOL0     H15908   0.250   7.389   6.335  0.4202  1.3819 -0.1800
  859MOL0     H15909   0.365   7.451   6.222  3.3592  2.6181  0.9334
  859MOL0     H15910   0.530   7.247   6.342 -1.5999 -2.3064  3.5279
  859MOL0     H15911   0.380   7.208   6.415  2.0666  0.0528  1.5139
  859MOL0     H15912   0.385   7.068   6.205  4.5602  0.1301  0.0913
  859MOL0     H15913   0.268   7.199   6.195 -0.1757 -1.2114 -0.1806
  859MOL0     H15914   0.446   7.326   6.062  3.1386 -0.0043  0.2596
  859MOL0     H15915   0.387   7.177   5.986 -1.9313  0.8266 -0.0739
  859MOL0     H15916   0.570   6.962   6.123  0.9563 -0.3235 -0.6426
  859MOL0     H15917   0.958   7.005   6.155  1.7844 -0.2574 -1.3962
  859MOL0     H15918   0.834   6.881   6.186 -0.6384 -1.5353 -1.8146
  859MOL0     H15919   0.997   6.793   6.028  2.7431  2.4606  2.7576
  859MOL0     H15920   0.958   6.938   5.931 -0.3095  1.3393  1.4751
  859MOL0     H15921   0.870   6.751   5.822  1.9375  1.6643  0.1206
  859MOL0     H15922   0.760   6.887   5.856  1.7674  2.8151  3.9944
  859MOL0     H15923   0.649   6.667   5.894  0.4154  1.5414 -1.9872
  859MOL0     H15924   0.660   6.780   6.035  1.1171  1.5423  0.3691
  859MOL0     H15925   0.655   6.635   6.291 -2.4437  1.1126 -1.2930
  859MOL0     H15926   0.419   6.465   6.439 -0.4308  2.9950  0.3927
  859MOL0     H15927   0.573   6.403   6.518 -0.3913  0.2891  0.9682
  859MOL0     H15928   0.553   6.573   6.466  2.9340  0.0397 -4.2845
  859MOL0     H15929   0.125   6.109   6.171 -0.1398  0.5143  0.3909
  859MOL0     H15930   0.011   5.890   6.177 -1.0397 -4.3143  2.7922
  859MOL0     H15931   0.225   5.521   6.296 -0.3439 -1.5354  0.7281
  859MOL0     H15932   0.163   5.586   6.452 -0.1463  2.8199 -1.0042
  859MOL0     H15933   0.007   5.431   6.234  0.2885 -0.3495  0.4781
  859MOL0     H15934   0.061   5.352   6.368 -3.0472 -0.1504  1.0001
  859MOL0     H15935  -0.192   5.420   6.378  0.8293 -0.3756 -1.6778
  859MOL0     H15936  -0.125   5.588   6.410  2.1381  0.4377  0.6628
  859MOL0     H15937  -0.053   5.370   6.592  2.6161  0.3495 -1.8217
  859MOL0     H15938  -0.046   5.529   6.615  0.0454 -0.7987  0.3771
  859MOL0     H15939  -0.239   5.423   6.741  0.1004 -0.8719  0.0520
  859MOL0     H15940  -0.336   5.403   6.592  0.3371  0.8670 -1.9626
  859MOL0     H15941  -0.227   5.674   6.673 -1.0213  2.7420 -1.6408
  859MOL0     H15942  -0.304   5.630   6.530  1.2480  1.2787  0.6592
  859MOL0     H15943  -0.431   5.590   6.817  1.1965  0.5604 -0.2335
  859MOL0     H15944  -0.522   5.598   6.661 -2.0054  0.7227  2.7938
  859MOL0     H15945  -0.385   5.840   6.768 -1.4144  1.5953  1.2759
  859MOL0     H15946  -0.544   5.793   6.810 -1.7908 -0.1980 -0.8004
  859MOL0     H15947   0.328   5.720   6.405  0.3658 -0.4502 -0.1272
  859MOL0     H15948   0.462   5.939   6.382  0.0576  0.4335 -4.0031
  859MOL0     H15949   0.549   6.212   6.064  0.2345  1.0794 -0.8037
  859MOL0     H15950   0.710   6.387   5.957 -0.1123 -0.4535  0.7880
  859MOL0     H15951   0.422   8.014   6.689  1.0532  0.6015 -2.8162
  859MOL0     H15952   0.351   8.162   6.842 -1.3331  2.1987  2.1495
  859MOL0     H15953   0.040   8.688   6.792 -1.4650 -0.0251  1.1010
  859MOL0     H15954   0.033   8.857   6.968 -1.5902 -0.2361  2.6290
  859MOL0     H15955   0.253   8.767   7.339  0.5095  0.2650  0.6877
  859MOL0     H15956   0.292   8.863   7.194 -0.5230 -1.9635 -0.9379
  859MOL0     H15957   0.227   9.053   7.298 -0.3801 -1.2001 -1.8098
  859MOL0     H15958   0.262   8.949   7.441 -1.5421 -2.1639  0.6821
  859MOL0     H15959   0.015   8.886   7.440 -2.7366  1.3535  1.6877
  859MOL0     H15960  -0.008   9.030   7.344  0.7025 -1.1554 -1.5526
  859MOL0     H15961  -0.037   9.138   7.553 -0.5503 -0.6271 -0.8533
  859MOL0     H15962   0.128   9.168   7.529 -0.8599  0.4787 -1.9378
  859MOL0     H15963   0.099   8.948   7.892 -1.4181  1.1374 -0.2787
  859MOL0     H15964   0.156   8.576   7.260  0.2121 -0.2708 -0.0529
  859MOL0     H15965   0.184   8.404   7.089  0.2033  1.0873  0.2351
  860MOL0     O15966   0.049   7.484  11.272  0.4826 -0.9862  1.5406
  860MOL0     C15967   0.085   7.487  11.150  0.7367 -0.2744  0.1489
  860MOL0     O15968   0.016   7.445  11.039 -0.2508  0.4493 -0.2246
  860MOL0     C15969  -0.116   7.403  11.063  0.3937 -0.2775  0.0314
  860MOL0     C15970  -0.160   7.281  11.118  1.0278 -0.6144  0.0904
  860MOL0     C15971  -0.290   7.250  11.130 -0.3603 -0.6827 -0.3908
  860MOL0     C15972  -0.385   7.348  11.129 -0.0582 -0.4164 -0.5362
  860MOL0     O15973  -0.513   7.314  11.165  0.2575 -0.8330  0.3719
  860MOL0     C15974  -0.612   7.421  11.169  0.1356 -0.0774 -0.3341
  860MOL0     C15975  -0.752   7.366  11.168  0.1306 -0.0790 -0.0043
  860MOL0     C15976  -0.791   7.315  11.310 -0.5316  0.3463  0.3928
  860MOL0     C15977  -0.708   7.188  11.364  1.3086 -0.3833  0.6717
  860MOL0     C15978  -0.762   7.116  11.491 -0.0893  0.7488  0.9938
  860MOL0     C15979  -0.874   7.021  11.457  0.3602 -0.4907 -0.1026
  860MOL0     C15980  -0.843   6.881  11.390 -0.0511  0.0917  0.9166
  860MOL0     C15981  -0.802   6.764  11.490 -0.7385 -1.1753 -0.0656
  860MOL0     N15982  -0.788   6.634  11.409 -0.4897 -0.5314  0.0068
  860MOL0     C15983  -0.766   6.503  11.456  0.4529 -0.0754 -0.3854
  860MOL0     C15984  -0.772   6.425  11.349 -0.1888  0.6617  0.3889
  860MOL0     C15985  -0.752   6.276  11.351 -0.1041  0.1501  0.6025
  860MOL0     C15986  -0.604   6.251  11.368  0.4372  0.0954  0.1129
  860MOL0     C15987  -0.527   6.312  11.244  0.4751 -0.5936 -0.5485
  860MOL0     C15988  -0.389   6.244  11.250 -0.3873 -0.1598 -0.2373
  860MOL0     O15989  -0.301   6.302  11.154  0.3618  0.5607 -0.0160
  860MOL0     C15990  -0.174   6.262  11.147 -0.2131 -0.8437 -0.1277
  860MOL0     C15991  -0.108   6.176  11.237 -0.7359 -0.7728  0.6012
  860MOL0     C15992   0.030   6.160  11.230  0.0613  0.8743 -0.0833
  860MOL0     C15993   0.098   6.063  11.331 -0.2847  0.5477  0.0064
  860MOL0     C15994   0.102   6.215  11.117  0.3629 -0.0262 -0.3283
  860MOL0     C15995   0.254   6.200  11.103 -0.3304  1.0164 -0.0159
  860MOL0     O15996   0.326   6.150  11.207  0.3856 -0.2033  0.3367
  860MOL0     C15997   0.462   6.153  11.201  0.4955 -0.5110 -0.0008
  860MOL0     C15998   0.535   6.079  11.115 -0.6403 -0.1847  0.7005
  860MOL0     C15999   0.675   6.091  11.112  0.0553  0.3708  1.0070
  860MOL0     C16000   0.743   6.175  11.201  0.8826 -0.5072  0.1673
  860MOL0     O16001   0.876   6.172  11.204 -0.2597 -0.3883  0.1855
  860MOL0     C16002   0.951   6.186  11.080 -1.0370 -0.2564 -0.3890
  860MOL0     C16003   1.084   6.261  11.112 -0.3347  0.6658  0.1640
  860MOL0     C16004   1.069   6.414  11.144 -0.2079  0.0221  0.0230
  860MOL0     C16005   1.046   6.503  11.015  0.0081  0.1053 -0.1255
  860MOL0     C16006   0.989   6.636  11.052  0.5477 -0.3765  0.1723
  860MOL0     C16007   0.833   6.622  11.056  0.8212  0.1852 -0.2913
  860MOL0     C16008   0.763   6.726  11.150  0.7580  0.8154 -0.7702
  860MOL0     C16009   0.619   6.688  11.179  1.2169  0.6163  0.5049
  860MOL0    Cl16010   0.545   6.815  11.270  0.1889 -0.1000  0.0956
  860MOL0     C16011   0.668   6.241  11.302 -0.2468  0.2091  0.5267
  860MOL0     C16012   0.525   6.234  11.295  0.2961 -0.7755 -0.5476
  860MOL0     O16013   0.310   6.237  10.997  0.3653 -0.2366 -0.1585
  860MOL0     C16014   0.035   6.300  11.030 -1.0072 -0.2744 -0.1110
  860MOL0     C16015  -0.100   6.335  11.052 -0.1679  0.5525  0.0616
  860MOL0     N16016  -0.781   6.500  11.229  0.3578 -0.1504 -0.2113
  860MOL0     N16017  -0.773   6.626  11.271 -0.6829 -0.4647  0.1169
  860MOL0     C16018  -0.354   7.472  11.072 -0.9715 -0.6312 -0.5690
  860MOL0     C16019  -0.215   7.499  11.038  0.4022  0.7549 -0.9983
  860MOL0     C16020   0.232   7.511  11.118  0.4571  1.1626  0.0225
  860MOL0     C16021   0.289   7.510  10.993  0.6541  0.3531 -0.1574
  860MOL0     C16022   0.409   7.568  10.966 -0.1976 -0.0618  0.8494
  860MOL0     C16023   0.486   7.605  11.071  0.3451  0.5077 -0.1503
  860MOL0     O16024   0.608   7.661  11.057 -0.0017 -0.3733  0.4299
  860MOL0     C16025   0.707   7.579  10.994 -0.2505  0.6588 -0.5818
  860MOL0     C16026   0.778   7.477  11.091 -0.0558 -1.1566 -0.1858
  860MOL0     C16027   0.854   7.551  11.203  0.0886 -0.0145 -0.1072
  860MOL0     C16028   0.921   7.448  11.292 -0.3808 -0.6405  0.0278
  860MOL0     C16029   0.968   7.519  11.416  0.4973 -0.5339 -0.0411
  860MOL0     C16030   1.009   7.573  11.518  0.0817 -0.5717  0.5384
  860MOL0     C16031   0.439   7.607  11.201  0.7604 -0.2923  0.4261
  860MOL0     C16032   0.309   7.562  11.227  0.0222 -0.5887  0.6664
  860MOL0     H16033  -0.088   7.201  11.137 -0.7374 -2.0808  0.9417
  860MOL0     H16034  -0.310   7.148  11.161  0.1914 -0.4286  0.8640
  860MOL0     H16035  -0.601   7.484  11.258 -1.3001  0.7958 -0.7372
  860MOL0     H16036  -0.603   7.482  11.079 -5.0987  0.5139 -0.7554
  860MOL0     H16037  -0.820   7.446  11.137  0.6768  0.2263 -0.4385
  860MOL0     H16038  -0.763   7.291  11.089 -3.0390  1.7875 -1.5576
  860MOL0     H16039  -0.763   7.399  11.374  2.3252 -1.5683  1.9212
  860MOL0     H16040  -0.897   7.291  11.324 -1.1073  2.7005  0.4945
  860MOL0     H16041  -0.695   7.114  11.286  0.2834  1.2354 -1.1394
  860MOL0     H16042  -0.609   7.228  11.388  1.8589 -1.7995  0.8364
  860MOL0     H16043  -0.678   7.056  11.528 -0.6342 -3.0966 -3.1583
  860MOL0     H16044  -0.792   7.202  11.552  0.1977  1.6477 -0.1033
  860MOL0     H16045  -0.914   6.990  11.555  4.4490  3.1434  3.0874
  860MOL0     H16046  -0.958   7.069  11.407  0.7330  1.3352  0.9217
  860MOL0     H16047  -0.934   6.847  11.340  1.1256 -1.4312 -0.2964
  860MOL0     H16048  -0.754   6.900  11.329 -0.3315 -1.4490 -0.0204
  860MOL0     H16049  -0.877   6.745  11.568  0.4598 -2.8351  0.7426
  860MOL0     H16050  -0.706   6.790  11.535  0.0500 -1.4196 -1.5490
  860MOL0     H16051  -0.773   6.457  11.554 -0.6720  0.3229 -0.2662
  860MOL0     H16052  -0.801   6.225  11.434  4.1840  1.1719  4.1194
  860MOL0     H16053  -0.790   6.232  11.258 -1.0316 -0.5087  1.2800
  860MOL0     H16054  -0.585   6.143  11.358  2.5245  0.3361  0.8991
  860MOL0     H16055  -0.576   6.283  11.468 -3.6155 -1.7512  2.0474
  860MOL0     H16056  -0.523   6.422  11.243  2.4285 -0.6358 -0.3348
  860MOL0     H16057  -0.582   6.284  11.154 -3.8493  0.0135  1.6372
  860MOL0     H16058  -0.395   6.135  11.240 -0.0237 -0.0955 -1.3710
  860MOL0     H16059  -0.355   6.267  11.351 -1.0651  0.9339 -0.2492
  860MOL0     H16060  -0.156   6.135  11.325 -3.5909  4.1834  1.7591
  860MOL0     H16061   0.029   6.045  11.415  0.6822 -0.6858  0.5580
  860MOL0     H16062   0.120   5.964  11.293 -0.2673  0.6069 -0.1380
  860MOL0     H16063   0.192   6.093  11.378  0.0449 -4.1541  2.9813
  860MOL0     H16064   0.486   6.025  11.034  0.7760 -1.6875  0.7900
  860MOL0     H16065   0.729   6.033  11.037  1.3718  3.9258 -1.0545
  860MOL0     H16066   0.975   6.084  11.048  0.0975 -0.8770  2.1715
  860MOL0     H16067   0.896   6.241  11.003 -1.9113 -2.6499 -1.5811
  860MOL0     H16068   1.157   6.230  11.187  0.3048  0.9261 -0.3373
  860MOL0     H16069   1.150   6.253  11.025  1.1374 -3.6953  1.4260
  860MOL0     H16070   1.164   6.448  11.185 -0.4704  3.4609 -1.8149
  860MOL0     H16071   1.000   6.421  11.228 -1.6398  0.3300 -1.1438
  860MOL0     H16072   1.140   6.509  10.959  0.2371 -1.9850 -0.0497
  860MOL0     H16073   0.979   6.448  10.948  0.3085  0.3369 -0.6173
  860MOL0     H16074   1.016   6.721  10.988 -0.5927  0.0818  0.2688
  860MOL0     H16075   1.013   6.667  11.154 -1.2425  2.9269 -0.2734
  860MOL0     H16076   0.784   6.630  10.958  2.7547  2.4118 -1.1754
  860MOL0     H16077   0.825   6.518  11.089 -2.2597  0.7651  1.1379
  860MOL0     H16078   0.768   6.831  11.118  0.7733  1.0336 -0.0731
  860MOL0     H16079   0.821   6.707  11.241 -1.1762  2.7637  0.9901
  860MOL0     H16080   0.604   6.591  11.229 -1.9229 -0.6086 -2.4189
  860MOL0     H16081   0.559   6.678  11.088  3.1083  0.1257 -0.7630
  860MOL0     H16082   0.715   6.297  11.381  0.0560 -0.8001  1.0824
  860MOL0     H16083   0.468   6.291  11.367  1.3196 -2.1392  1.4406
  860MOL0     H16084   0.090   6.346  10.949  0.1111 -0.3198  0.6052
  860MOL0     H16085  -0.151   6.408  10.990  2.0927 -0.1394 -2.8506
  860MOL0     H16086  -0.420   7.556  11.054 -0.7689  0.1138  1.8480
  860MOL0     H16087  -0.187   7.597  11.000 -1.2235  2.2656  1.4001
  860MOL0     H16088   0.233   7.489  10.902  2.6437 -1.0995 -1.1259
  860MOL0     H16089   0.464   7.568  10.873 -1.0174 -2.3851  0.2987
  860MOL0     H16090   0.669   7.514  10.915 -1.6826  0.7479 -0.0035
  860MOL0     H16091   0.786   7.647  10.959 -0.4726  1.1937 -0.0635
  860MOL0     H16092   0.853   7.428  11.028 -0.7302  2.2210 -3.9821
  860MOL0     H16093   0.706   7.400  11.118 -1.6569  0.2379 -0.3364
  860MOL0     H16094   0.779   7.605  11.262 -0.7493 -0.8322 -0.3964
  860MOL0     H16095   0.925   7.626  11.169  1.8665 -0.7923  1.6334
  860MOL0     H16096   1.005   7.395  11.246  0.5074  0.2655  0.5623
  860MOL0     H16097   0.855   7.370  11.330  1.6619 -1.6974  1.5998
  860MOL0     H16098   1.042   7.623  11.607  1.7631 -1.2430  0.3221
  860MOL0     H16099   0.496   7.641  11.287  3.0880 -1.9407 -0.3670
  860MOL0     H16100   0.273   7.565  11.329  0.5466 -0.8314  0.8609
  861MOL0     O16101   5.077   6.812   3.866  0.3198  0.5697 -0.0735
  861MOL0     C16102   5.129   6.892   3.791  0.2773  0.0186 -0.8981
  861MOL0     O16103   5.092   6.924   3.670  0.3136 -0.2738  0.7743
  861MOL0     C16104   4.993   6.860   3.598  0.1048  0.1960  0.7158
  861MOL0     C16105   4.928   6.739   3.626 -0.5379  0.2248 -0.0964
  861MOL0     C16106   4.820   6.696   3.554  0.7136  1.3861  0.5076
  861MOL0     C16107   4.767   6.780   3.451  0.6324  0.5657 -1.2452
  861MOL0     O16108   4.655   6.740   3.378 -0.1658 -0.5858  0.3459
  861MOL0     C16109   4.600   6.614   3.384  0.1182  0.3137 -0.3825
  861MOL0     C16110   4.475   6.603   3.290 -0.3942  0.1240 -0.5050
  861MOL0     C16111   4.395   6.472   3.278 -0.4526  0.2337  0.4243
  861MOL0     C16112   4.489   6.358   3.264 -0.0062  0.5761 -0.1829
  861MOL0     C16113   4.396   6.232   3.242  0.4312 -0.3725 -0.3410
  861MOL0     C16114   4.468   6.098   3.225 -0.6417  0.7501 -0.8356
  861MOL0     C16115   4.516   6.051   3.372 -0.4185  0.8275 -0.1751
  861MOL0     C16116   4.571   5.906   3.383  1.1128 -0.7940 -0.3441
  861MOL0     N16117   4.602   5.852   3.520  0.6436  0.0391  0.1887
  861MOL0     C16118   4.728   5.830   3.574  0.2965 -0.4952  0.2466
  861MOL0     C16119   4.705   5.727   3.665 -0.5159 -0.9749  0.1608
  861MOL0     C16120   4.815   5.645   3.730  0.6410 -0.7744 -0.4097
  861MOL0     C16121   4.900   5.722   3.833 -0.1397 -0.7677 -0.2925
  861MOL0     C16122   5.006   5.646   3.927 -0.6339  0.6485 -0.5148
  861MOL0     C16123   5.105   5.541   3.867 -0.0344 -0.6057 -0.0031
  861MOL0     O16124   5.233   5.603   3.846  0.3471 -0.1168  0.2234
  861MOL0     C16125   5.265   5.630   3.707  0.3597 -0.0107 -0.3740
  861MOL0     C16126   5.315   5.759   3.680  0.2951 -0.4483  0.2238
  861MOL0     C16127   5.346   5.799   3.547 -1.0722  0.5464  1.3376
  861MOL0     C16128   5.393   5.931   3.502  0.4635  0.5124  0.9565
  861MOL0     C16129   5.335   5.699   3.446  0.2680 -0.2981 -0.1348
  861MOL0     C16130   5.354   5.726   3.306 -1.4362  0.1226 -0.2836
  861MOL0     O16131   5.481   5.723   3.257 -0.0879 -0.1792  0.3207
  861MOL0     C16132   5.492   5.719   3.124 -0.3821  0.9278  0.0352
  861MOL0     C16133   5.591   5.806   3.074  0.0060  0.4853 -0.4332
  861MOL0     C16134   5.603   5.822   2.935 -1.2610 -0.2305 -0.7722
  861MOL0     C16135   5.527   5.737   2.848 -0.4937  0.7545  0.1479
  861MOL0     O16136   5.543   5.745   2.706  0.3398  0.3376  0.6246
  861MOL0     C16137   5.630   5.854   2.655 -0.3861  0.7600  0.7688
  861MOL0     C16138   5.604   5.872   2.513  0.0239  0.3284  1.8687
  861MOL0     C16139   5.470   5.945   2.483 -1.1630 -0.0870 -0.0037
  861MOL0     C16140   5.392   5.871   2.382  0.6142  1.0232 -0.0461
  861MOL0     C16141   5.257   5.925   2.336  0.3316  0.1349  0.4363
  861MOL0     C16142   5.154   5.937   2.447  0.4583  0.2425 -0.4716
  861MOL0     C16143   5.020   5.994   2.390  0.2959 -0.0830 -0.3796
  861MOL0     C16144   4.912   6.010   2.501  0.3184 -0.2349  0.2236
  861MOL0    Cl16145   4.764   6.106   2.447  0.4089  0.2487 -0.0900
  861MOL0     C16146   5.446   5.630   2.907 -0.1200 -0.8408 -0.1864
  861MOL0     C16147   5.422   5.621   3.049  0.9655 -0.6821  0.3248
  861MOL0     O16148   5.252   5.745   3.246  0.5766  0.0714  0.3148
  861MOL0     C16149   5.279   5.567   3.476  0.2600 -1.0096  0.2127
  861MOL0     C16150   5.242   5.534   3.602  0.3156 -0.0716  0.0430
  861MOL0     N16151   4.572   5.698   3.656 -0.7746  0.1235  0.0636
  861MOL0     N16152   4.509   5.776   3.581  0.0110  0.2189  0.3369
  861MOL0     C16153   4.818   6.914   3.435 -0.7988  0.4156 -0.5523
  861MOL0     C16154   4.937   6.950   3.502  0.8359  0.0054 -0.4654
  861MOL0     C16155   5.247   6.968   3.838  0.5767 -0.8376  0.1176
  861MOL0     C16156   5.318   7.069   3.768  0.4654  0.7127 -0.6527
  861MOL0     C16157   5.436   7.114   3.827 -0.1260 -1.1471  0.0098
  861MOL0     C16158   5.484   7.070   3.954 -0.0063  0.0362 -0.1433
  861MOL0     O16159   5.606   7.100   4.017  0.2570  0.0846 -0.6136
  861MOL0     C16160   5.705   7.173   3.943 -0.0038  0.2792 -0.1096
  861MOL0     C16161   5.831   7.209   4.022  0.3622  0.5610 -0.9939
  861MOL0     C16162   5.904   7.086   4.086 -0.1230 -0.2213  0.0537
  861MOL0     C16163   6.044   7.126   4.146  0.5375 -0.0329  0.9295
  861MOL0     C16164   6.134   7.164   4.045  0.3759 -1.2109  0.6043
  861MOL0     C16165   6.203   7.181   3.945  0.4598 -0.2782 -0.0899
  861MOL0     C16166   5.407   6.976   4.018 -0.3978  0.6856 -0.8402
  861MOL0     C16167   5.290   6.929   3.966  0.3948 -0.3668 -0.5015
  861MOL0     H16168   4.960   6.673   3.706 -2.7378  1.9737  2.3609
  861MOL0     H16169   4.784   6.595   3.571 -1.1017  1.7712 -0.7746
  861MOL0     H16170   4.668   6.532   3.360  2.6104  2.0554  0.3533
  861MOL0     H16171   4.567   6.621   3.488  0.1550  2.8585 -0.4701
  861MOL0     H16172   4.403   6.669   3.340 -1.1438 -1.0355 -0.0258
  861MOL0     H16173   4.498   6.643   3.191 -0.3986  2.3160  0.3169
  861MOL0     H16174   4.338   6.457   3.371  0.7542 -2.6429  0.8083
  861MOL0     H16175   4.326   6.470   3.194  1.3433 -1.5407 -1.0902
  861MOL0     H16176   4.559   6.381   3.183  2.2831  0.9938  1.7951
  861MOL0     H16177   4.547   6.336   3.354 -0.1122 -0.5818 -0.3788
  861MOL0     H16178   4.318   6.221   3.317  0.5076 -3.0377 -0.5370
  861MOL0     H16179   4.341   6.241   3.147 -0.4601 -0.3770  0.1657
  861MOL0     H16180   4.392   6.029   3.189  0.3267 -1.0816  0.4343
  861MOL0     H16181   4.554   6.109   3.158  0.0749 -0.2868 -0.1078
  861MOL0     H16182   4.600   6.113   3.405  1.4848 -3.0031  3.0651
  861MOL0     H16183   4.436   6.052   3.446  0.6921 -1.6582  1.1729
  861MOL0     H16184   4.666   5.901   3.329  1.5817  2.7411 -0.0940
  861MOL0     H16185   4.511   5.839   3.321  1.5046 -3.0175  1.5378
  861MOL0     H16186   4.820   5.872   3.535 -0.5744 -0.6916 -2.1952
  861MOL0     H16187   4.765   5.569   3.792  0.2812 -0.6299 -0.5200
  861MOL0     H16188   4.878   5.594   3.656  2.4190 -1.4183  1.4794
  861MOL0     H16189   4.827   5.767   3.900 -0.2935  0.3023 -1.1613
  861MOL0     H16190   4.957   5.804   3.789  2.6647 -0.0409  4.1477
  861MOL0     H16191   4.948   5.588   3.999 -0.3751 -1.0253 -1.5974
  861MOL0     H16192   5.060   5.718   3.990 -1.0443  1.2915 -0.8873
  861MOL0     H16193   5.053   5.506   3.778 -3.9287  1.2414  1.3187
  861MOL0     H16194   5.116   5.461   3.941  1.1394  0.0788  0.5896
  861MOL0     H16195   5.338   5.823   3.764  1.0086 -0.7842  0.2861
  861MOL0     H16196   5.493   5.931   3.458  0.0199  0.6029 -0.0710
  861MOL0     H16197   5.317   5.971   3.434  0.9593 -1.6481 -0.9841
  861MOL0     H16198   5.398   6.008   3.580 -3.8714  1.2318  0.8111
  861MOL0     H16199   5.655   5.855   3.146 -0.2268  1.8710 -1.1383
  861MOL0     H16200   5.673   5.893   2.893 -2.3375  1.0846 -0.4366
  861MOL0     H16201   5.601   5.947   2.706  2.6677  1.5288  1.3249
  861MOL0     H16202   5.737   5.834   2.669 -0.0148  1.2927 -1.0975
  861MOL0     H16203   5.687   5.927   2.466  0.9324 -1.5154  1.1932
  861MOL0     H16204   5.615   5.768   2.479 -0.8807  1.6899 -3.6467
  861MOL0     H16205   5.484   6.047   2.446 -0.5861 -0.5738 -1.1877
  861MOL0     H16206   5.414   5.936   2.577  0.0259 -3.7686  0.5190
  861MOL0     H16207   5.458   5.873   2.295  0.6471 -0.6599 -0.0924
  861MOL0     H16208   5.391   5.766   2.414  2.9728  0.7499 -0.6851
  861MOL0     H16209   5.223   5.848   2.266 -0.0160  0.8178 -0.1590
  861MOL0     H16210   5.271   6.018   2.280  1.1816  0.2883  0.8871
  861MOL0     H16211   5.140   5.835   2.484 -0.7473  0.2926 -0.7362
  861MOL0     H16212   5.186   6.004   2.526 -3.5699  3.2607 -1.0448
  861MOL0     H16213   4.976   5.933   2.311 -0.2722 -0.9313  0.5702
  861MOL0     H16214   5.056   6.089   2.349  3.2930 -0.7860  0.3869
  861MOL0     H16215   4.941   6.050   2.598 -2.3159 -0.8049  1.3240
  861MOL0     H16216   4.865   5.915   2.527 -3.5010  0.2847 -3.5841
  861MOL0     H16217   5.395   5.566   2.836 -0.8385 -0.4503 -0.0320
  861MOL0     H16218   5.366   5.535   3.087 -0.3580  0.7437  1.7712
  861MOL0     H16219   5.266   5.498   3.393 -3.1066  0.4989 -0.6573
  861MOL0     H16220   5.190   5.446   3.639 -0.9481  1.2359  1.4914
  861MOL0     H16221   4.784   6.989   3.364  2.2438 -1.0830 -3.8929
  861MOL0     H16222   4.989   7.045   3.495 -0.5305  0.6690 -3.2216
  861MOL0     H16223   5.280   7.087   3.668 -1.9580 -0.7762 -0.0903
  861MOL0     H16224   5.496   7.180   3.765  2.4592 -3.6415 -0.3833
  861MOL0     H16225   5.718   7.112   3.853 -3.6949 -0.8706 -0.0480
  861MOL0     H16226   5.664   7.268   3.907  0.6539  0.1316 -1.3216
  861MOL0     H16227   5.826   7.293   4.092  2.8390  0.9491 -1.1656
  861MOL0     H16228   5.898   7.250   3.945  1.2445  0.9401 -0.0609
  861MOL0     H16229   5.915   7.009   4.009 -1.5192 -0.0654 -0.3292
  861MOL0     H16230   5.845   7.039   4.166 -2.1352  1.2523 -0.4950
  861MOL0     H16231   6.085   7.036   4.191 -1.3359 -2.0414 -1.1161
  861MOL0     H16232   6.033   7.199   4.226  0.2870 -2.1439  2.9132
  861MOL0     H16233   6.264   7.174   3.857  0.2131  0.4616 -0.3269
  861MOL0     H16234   5.448   6.960   4.117  3.3017  3.2841 -1.7104
  861MOL0     H16235   5.228   6.868   4.031 -1.3268  1.2683 -0.5314
  862MOL0     O16236   7.946   7.585   1.346  0.2203 -0.2220 -0.4353
  862MOL0     C16237   7.998   7.670   1.418 -0.1990 -0.1869 -0.1969
  862MOL0     O16238   8.105   7.738   1.389 -0.3069 -0.1920 -0.2007
  862MOL0     C16239   8.156   7.706   1.266 -0.8970 -0.6335 -0.3340
  862MOL0     C16240   8.118   7.755   1.138 -0.5201 -0.2614 -0.9369
  862MOL0     C16241   8.180   7.716   1.025 -0.1692 -0.8521  1.1761
  862MOL0     C16242   8.246   7.595   1.021 -0.5912  0.0868  0.3107
  862MOL0     O16243   8.289   7.526   0.908 -0.3848  0.5405  1.7713
  862MOL0     C16244   8.265   7.590   0.776 -0.5928 -0.5528 -0.2990
  862MOL0     C16245   8.286   7.483   0.675 -0.2006  0.0799  0.2524
  862MOL0     C16246   8.433   7.454   0.642  0.2324 -0.0137 -0.5082
  862MOL0     C16247   8.437   7.349   0.517  0.1776 -0.4996  0.1831
  862MOL0     C16248   8.555   7.376   0.417  0.0990  0.0931 -0.0984
  862MOL0     C16249   8.692   7.329   0.472  0.4047 -0.5219  0.4321
  862MOL0     C16250   8.799   7.376   0.365 -0.4538 -0.1451  1.0387
  862MOL0     C16251   8.937   7.312   0.382 -0.0329  0.6349  1.1323
  862MOL0     N16252   9.044   7.357   0.292  0.1856 -1.1852 -0.1238
  862MOL0     C16253   9.050   7.332   0.157 -0.6457  0.7395  0.1517
  862MOL0     C16254   9.134   7.427   0.107 -0.0598 -0.8425 -0.9501
  862MOL0     C16255   9.186   7.450  -0.029 -0.0200 -0.2007  0.9553
  862MOL0     C16256   9.179   7.326  -0.122 -0.5468  0.3494 -0.2787
  862MOL0     C16257   9.284   7.219  -0.083 -0.1071 -0.4809  1.1210
  862MOL0     C16258   9.289   7.085  -0.157  0.0583  1.0027 -0.1734
  862MOL0     O16259   9.161   7.020  -0.151 -0.7171  0.5280 -0.9356
  862MOL0     C16260   9.152   6.934  -0.255 -0.1499  0.3261  0.5356
  862MOL0     C16261   9.127   6.980  -0.388  0.1721  0.3474  0.3229
  862MOL0     C16262   9.135   6.895  -0.504 -1.2379  0.0146 -0.0269
  862MOL0     C16263   9.105   6.955  -0.636 -0.8539  0.3387  1.2602
  862MOL0     C16264   9.155   6.754  -0.481 -0.4367 -0.6222  0.6092
  862MOL0     C16265   9.151   6.658  -0.598 -0.1912  1.0304 -0.0376
  862MOL0     O16266   9.203   6.696  -0.716  0.6859 -0.4522 -0.4336
  862MOL0     C16267   9.238   6.609  -0.814 -0.7255  0.2642 -0.1138
  862MOL0     C16268   9.141   6.540  -0.899 -0.3262  0.3311  0.2665
  862MOL0     C16269   9.192   6.460  -1.004 -1.5877  0.0400  0.3792
  862MOL0     C16270   9.331   6.426  -1.018 -0.0679 -0.7109 -0.4855
  862MOL0     O16271   9.382   6.328  -1.097  0.4475  0.2176  0.6004
  862MOL0     C16272   9.303   6.273  -1.211  0.2325 -1.0008 -0.3986
  862MOL0     C16273   9.401   6.186  -1.279  0.0614  0.2228  0.3772
  862MOL0     C16274   9.497   6.247  -1.384 -0.3280 -0.2571  0.1261
  862MOL0     C16275   9.606   6.144  -1.412  0.4464 -0.4756  0.3548
  862MOL0     C16276   9.729   6.214  -1.479 -1.0138 -0.3876 -0.0707
  862MOL0     C16277   9.699   6.277  -1.625  0.3751 -0.7664 -0.2248
  862MOL0     C16278   9.819   6.263  -1.718  0.1128 -0.4407  0.1181
  862MOL0     C16279   9.789   6.361  -1.847  0.0585  0.1599 -0.2961
  862MOL0    Cl16280   9.646   6.311  -1.950  0.6299 -0.1537 -0.3204
  862MOL0     C16281   9.418   6.491  -0.930 -0.0976  0.5643 -0.5696
  862MOL0     C16282   9.369   6.580  -0.832 -0.4811 -0.4671 -0.5052
  862MOL0     O16283   9.110   6.548  -0.569 -0.0050 -0.2303 -0.5807
  862MOL0     C16284   9.177   6.705  -0.348  0.4614 -0.2466  0.0038
  862MOL0     C16285   9.162   6.796  -0.233  0.1136 -0.4498 -0.7237
  862MOL0     N16286   9.168   7.508   0.206  0.9754  0.1547 -1.6754
  862MOL0     N16287   9.106   7.472   0.315  0.1129  0.0799 -0.0732
  862MOL0     C16288   8.275   7.530   1.143 -0.1530  0.1109  0.5680
  862MOL0     C16289   8.244   7.588   1.261 -0.2131  0.5056 -0.6454
  862MOL0     C16290   7.952   7.686   1.554  0.7038 -0.2448 -0.0147
  862MOL0     C16291   7.859   7.600   1.620 -0.6150 -0.2746 -0.4992
  862MOL0     C16292   7.827   7.629   1.751  0.6239 -0.8080 -0.2276
  862MOL0     C16293   7.855   7.757   1.813 -0.0628  1.9042  0.1967
  862MOL0     O16294   7.784   7.769   1.928 -0.8968 -0.6510  0.1538
  862MOL0     C16295   7.813   7.863   2.026  0.1998  0.0837 -0.4941
  862MOL0     C16296   7.829   7.803   2.161 -1.1806  0.7282 -0.0666
  862MOL0     C16297   7.845   7.920   2.266  0.1895 -1.2719  0.0335
  862MOL0     C16298   7.832   7.854   2.400 -0.3846  0.1829 -0.0023
  862MOL0     C16299   7.842   7.947   2.511 -0.3214 -0.7583 -0.6146
  862MOL0     C16300   7.837   8.028   2.600 -0.5936  0.4752  0.1829
  862MOL0     C16301   7.934   7.849   1.754 -0.0902  0.4309 -0.0603
  862MOL0     C16302   7.982   7.810   1.628 -0.0868  0.1829  0.4743
  862MOL0     H16303   8.035   7.824   1.122 -3.0408 -3.5795 -3.5869
  862MOL0     H16304   8.129   7.749   0.935  1.5044 -1.9064 -0.2292
  862MOL0     H16305   8.165   7.634   0.772 -0.2627  0.2474  0.0633
  862MOL0     H16306   8.335   7.672   0.760 -0.0421 -0.8928  0.3327
  862MOL0     H16307   8.240   7.392   0.713 -0.2170 -2.4378 -5.0303
  862MOL0     H16308   8.238   7.515   0.582  1.8566 -1.0533 -1.2711
  862MOL0     H16309   8.488   7.544   0.613  1.2236 -0.6463 -0.6415
  862MOL0     H16310   8.481   7.420   0.735 -4.5085 -1.4514  1.7425
  862MOL0     H16311   8.429   7.248   0.560 -0.7342 -0.9447 -0.9845
  862MOL0     H16312   8.346   7.369   0.460 -1.7370 -1.5707  2.6454
  862MOL0     H16313   8.531   7.329   0.320  0.0491 -0.4637  0.1802
  862MOL0     H16314   8.574   7.483   0.409  0.6009 -0.0010 -0.2055
  862MOL0     H16315   8.715   7.393   0.557  0.0195 -1.9944  1.6784
  862MOL0     H16316   8.674   7.224   0.496 -2.5421 -0.4245 -0.8735
  862MOL0     H16317   8.761   7.341   0.268 -4.4683 -1.8095  2.9737
  862MOL0     H16318   8.803   7.484   0.384  1.8106 -0.2084  1.1851
  862MOL0     H16319   8.910   7.208   0.363 -3.8846  1.6801 -0.1277
  862MOL0     H16320   8.969   7.323   0.486  0.5128 -0.5371  1.1014
  862MOL0     H16321   8.996   7.252   0.107 -0.3238  0.2061  0.6403
  862MOL0     H16322   9.132   7.531  -0.078 -1.2210 -2.3996 -1.5865
  862MOL0     H16323   9.291   7.480  -0.023  0.8985 -3.0953  0.8174
  862MOL0     H16324   9.196   7.336  -0.229  0.3681 -0.3969 -0.2070
  862MOL0     H16325   9.082   7.276  -0.109  0.6954 -2.6143 -1.6717
  862MOL0     H16326   9.286   7.213   0.026  0.3751  1.2708  1.2300
  862MOL0     H16327   9.381   7.251  -0.122  1.4876 -3.5428  2.2583
  862MOL0     H16328   9.364   7.027  -0.102  1.3665  1.8543 -1.0007
  862MOL0     H16329   9.319   7.098  -0.262  2.2246  2.4786  0.5458
  862MOL0     H16330   9.104   7.086  -0.398 -1.7960 -0.0507  0.0802
  862MOL0     H16331   9.195   6.978  -0.694 -1.4846 -0.1518  0.0300
  862MOL0     H16332   9.048   6.892  -0.705  1.9007  1.8133 -2.8170
  862MOL0     H16333   9.051   7.049  -0.623  0.9905  1.1416  3.8423
  862MOL0     H16334   9.035   6.546  -0.878 -0.6225 -2.9029  0.0898
  862MOL0     H16335   9.115   6.419  -1.069 -1.0073  1.2081 -1.0892
  862MOL0     H16336   9.215   6.211  -1.190  2.0156 -3.4154  0.4805
  862MOL0     H16337   9.275   6.359  -1.273  1.2877 -0.2229  0.1743
  862MOL0     H16338   9.460   6.132  -1.204  0.0401 -0.1923  0.0997
  862MOL0     H16339   9.351   6.119  -1.350  3.7936 -1.8808 -0.5402
  862MOL0     H16340   9.541   6.329  -1.327 -0.6512 -1.3302  1.9841
  862MOL0     H16341   9.437   6.271  -1.473 -0.1895 -3.3714 -0.9244
  862MOL0     H16342   9.628   6.079  -1.327  0.9104 -1.0603 -0.2059
  862MOL0     H16343   9.552   6.075  -1.478  2.0650 -2.4196  0.9673
  862MOL0     H16344   9.809   6.140  -1.486 -1.6511 -1.0853 -0.2186
  862MOL0     H16345   9.767   6.289  -1.409 -1.1589  0.0105 -0.4159
  862MOL0     H16346   9.611   6.229  -1.669 -0.8815 -1.1698  2.4858
  862MOL0     H16347   9.672   6.382  -1.610 -1.2213 -1.2285  0.3269
  862MOL0     H16348   9.849   6.164  -1.753 -0.1195  0.3804 -2.7231
  862MOL0     H16349   9.908   6.313  -1.679  1.5102  0.1356 -3.4372
  862MOL0     H16350   9.879   6.371  -1.909  0.1511 -1.6099 -0.4943
  862MOL0     H16351   9.769   6.463  -1.815  1.2022  0.5307 -0.6965
  862MOL0     H16352   9.522   6.461  -0.934  0.6187  2.1821  2.6834
  862MOL0     H16353   9.438   6.621  -0.759 -0.9008 -0.3339 -0.1811
  862MOL0     H16354   9.182   6.597  -0.346  1.3150 -0.3596 -3.0004
  862MOL0     H16355   9.201   6.753  -0.141 -3.2391  0.5265  1.3389
  862MOL0     H16356   8.327   7.435   1.152 -0.1266  0.0650 -0.0544
  862MOL0     H16357   8.268   7.554   1.361 -0.6677 -0.2618 -0.7918
  862MOL0     H16358   7.832   7.505   1.575  0.1236  0.1084 -1.8184
  862MOL0     H16359   7.755   7.563   1.799 -1.5846  1.1627 -0.6284
  862MOL0     H16360   7.902   7.921   1.999  0.7080 -0.1478  0.6258
  862MOL0     H16361   7.727   7.931   2.025  0.4160  0.4292 -2.6752
  862MOL0     H16362   7.928   7.756   2.166 -1.0862  0.6827 -1.7014
  862MOL0     H16363   7.745   7.742   2.193 -1.6050  1.5234  0.3475
  862MOL0     H16364   7.757   7.985   2.257 -0.0472 -1.5457  0.3329
  862MOL0     H16365   7.940   7.971   2.250  0.8204 -2.7178 -1.0912
  862MOL0     H16366   7.912   7.781   2.410  1.7383  1.7071 -3.6884
  862MOL0     H16367   7.740   7.794   2.402 -0.1438 -0.2084 -0.3906
  862MOL0     H16368   7.826   8.102   2.676 -2.0633 -2.2508  2.8298
  862MOL0     H16369   7.970   7.943   1.795 -1.0291  0.9685 -0.4246
  862MOL0     H16370   8.053   7.872   1.574 -2.2010  0.1998 -2.5604
  863MOL0     O16371   8.697   3.729   9.068  0.0499 -0.0616 -0.6777
  863MOL0     C16372   8.691   3.752   9.191 -0.7234 -0.8424  0.9262
  863MOL0     O16373   8.745   3.867   9.250  0.8482  0.0245 -0.1086
  863MOL0     C16374   8.795   3.970   9.173 -0.1607  1.4644  0.4887
  863MOL0     C16375   8.914   3.961   9.093 -0.5723  0.7558  0.5044
  863MOL0     C16376   8.958   4.070   9.016  0.2797 -0.3443 -0.1153
  863MOL0     C16377   8.881   4.195   9.023 -0.2873  0.4031  0.4916
  863MOL0     O16378   8.905   4.299   8.935  0.0844  0.9024 -0.3010
  863MOL0     C16379   8.879   4.437   8.973 -0.5816 -0.2128 -0.5026
  863MOL0     C16380   8.894   4.522   8.846 -0.0332  0.1443  0.0132
  863MOL0     C16381   8.839   4.666   8.847 -0.2800 -0.3460  0.0890
  863MOL0     C16382   8.885   4.756   8.962 -1.3510 -0.0953  0.9914
  863MOL0     C16383   8.813   4.898   8.978  0.1110  0.4173  0.3684
  863MOL0     C16384   8.674   4.878   9.035  0.3147 -0.1708 -0.9716
  863MOL0     C16385   8.673   4.888   9.186 -0.8367  0.5062 -0.4115
  863MOL0     C16386   8.706   5.028   9.247 -1.1205  0.4357 -0.0812
  863MOL0     N16387   8.648   5.053   9.379  0.3600 -0.3082  1.1088
  863MOL0     C16388   8.602   4.954   9.465 -0.3920 -0.9784  0.0565
  863MOL0     C16389   8.540   5.028   9.567  0.2084 -0.4067  1.0765
  863MOL0     C16390   8.463   4.978   9.681  0.1073  0.2859  0.1135
  863MOL0     C16391   8.528   5.038   9.806  0.1296 -0.0945 -0.5333
  863MOL0     C16392   8.678   5.000   9.833  1.1691  0.6036 -0.7090
  863MOL0     C16393   8.701   4.846   9.845  1.1047  0.3803 -0.6760
  863MOL0     O16394   8.834   4.791   9.826 -0.1238 -0.2691  0.7398
  863MOL0     C16395   8.921   4.787   9.932 -0.9989  0.5386 -0.2587
  863MOL0     C16396   8.894   4.832  10.064  0.0099 -0.0295  1.3155
  863MOL0     C16397   8.992   4.832  10.159 -0.8327 -0.0676 -1.1102
  863MOL0     C16398   8.939   4.873  10.297 -0.3431  0.1703  0.2221
  863MOL0     C16399   9.128   4.804  10.130 -0.6995  0.0376  0.0063
  863MOL0     C16400   9.245   4.830  10.217 -0.0750 -0.7823 -0.3514
  863MOL0     O16401   9.368   4.763  10.197  0.3112  0.4123  0.4735
  863MOL0     C16402   9.471   4.823  10.258 -0.0076 -1.1628 -0.9000
  863MOL0     C16403   9.545   4.929  10.200  0.4868 -0.1448  0.5930
  863MOL0     C16404   9.668   4.975  10.253 -0.2222  0.1841 -1.2168
  863MOL0     C16405   9.711   4.921  10.374  0.6471  0.2024 -0.0554
  863MOL0     O16406   9.823   4.961  10.441  0.0111 -0.8218 -0.2052
  863MOL0     C16407   9.924   5.048  10.399 -0.4879 -0.3168  0.0038
  863MOL0     C16408  10.061   5.017  10.457 -1.1250  0.6261 -0.4112
  863MOL0     C16409  10.099   4.874  10.465 -0.1489 -0.3397 -0.3236
  863MOL0     C16410  10.145   4.813  10.329 -0.6589  0.9753  0.6748
  863MOL0     C16411  10.039   4.778  10.232  0.2787 -0.2447  1.1572
  863MOL0     C16412  10.073   4.689  10.107  0.0817 -0.1306  0.2716
  863MOL0     C16413  10.164   4.763  10.007  0.8731 -0.8345 -0.8576
  863MOL0     C16414  10.242   4.665   9.928  0.3660  0.5703 -0.2039
  863MOL0    Cl16415  10.297   4.736   9.768 -0.6354 -0.1668  0.0163
  863MOL0     C16416   9.641   4.816  10.430 -0.1805  0.2366 -1.3210
  863MOL0     C16417   9.520   4.767  10.375 -0.4618 -1.2622 -0.3099
  863MOL0     O16418   9.230   4.911  10.311  0.5810  0.2164  0.1534
  863MOL0     C16419   9.159   4.750   9.998 -0.4468  0.5249 -0.2248
  863MOL0     C16420   9.053   4.739   9.910  0.2457  0.4486  0.2385
  863MOL0     N16421   8.555   5.168   9.530 -0.6495  0.1889 -0.3253
  863MOL0     N16422   8.612   5.175   9.421  0.4435 -0.5297  0.1920
  863MOL0     C16423   8.775   4.204   9.120 -1.1707 -0.7459  1.0515
  863MOL0     C16424   8.743   4.096   9.193  0.5066 -0.0890  0.6761
  863MOL0     C16425   8.579   3.683   9.261  0.4265 -0.2212  0.0877
  863MOL0     C16426   8.513   3.571   9.203 -0.2153  0.1025 -0.5363
  863MOL0     C16427   8.406   3.496   9.263 -0.0727 -0.8607  0.0097
  863MOL0     C16428   8.388   3.524   9.394 -0.7083  0.4773 -0.2318
  863MOL0     O16429   8.305   3.436   9.462 -1.0006 -0.7381  0.2200
  863MOL0     C16430   8.235   3.496   9.569 -0.7187 -0.2659  0.0021
  863MOL0     C16431   8.108   3.413   9.598 -0.0450 -1.2149  0.1520
  863MOL0     C16432   7.987   3.448   9.504 -0.0904  0.2384  0.4675
  863MOL0     C16433   8.018   3.430   9.349 -1.0605 -0.5202  0.0119
  863MOL0     C16434   7.901   3.444   9.258 -0.4900  0.2060  0.9733
  863MOL0     C16435   7.801   3.441   9.202  0.9629  0.0124  0.2132
  863MOL0     C16436   8.454   3.640   9.454  0.1366  0.4895 -0.0242
  863MOL0     C16437   8.550   3.712   9.391  0.1898  0.9145 -0.9551
  863MOL0     H16438   8.982   3.879   9.079 -0.2014  1.1905 -0.3436
  863MOL0     H16439   9.043   4.069   8.949 -0.1685  0.7127 -0.7187
  863MOL0     H16440   8.772   4.443   8.995 -0.6672 -2.8070  0.0071
  863MOL0     H16441   8.945   4.464   9.056 -1.2637  0.5473 -0.1922
  863MOL0     H16442   9.000   4.526   8.820 -0.3884 -0.0904 -1.5347
  863MOL0     H16443   8.836   4.479   8.764 -1.3723 -3.1337  2.4606
  863MOL0     H16444   8.875   4.718   8.758  2.6976 -0.3740  1.1601
  863MOL0     H16445   8.731   4.653   8.852 -0.1064 -1.5153  2.7485
  863MOL0     H16446   8.869   4.699   9.053 -1.0042  3.0652  3.1869
  863MOL0     H16447   8.994   4.764   8.952 -1.1419 -3.2903 -0.6603
  863MOL0     H16448   8.873   4.964   9.041  0.5018 -1.1273  1.6911
  863MOL0     H16449   8.814   4.954   8.884 -0.3360  1.6102  1.0670
  863MOL0     H16450   8.602   4.944   8.987  1.7159  1.8825 -0.3882
  863MOL0     H16451   8.641   4.777   9.008 -1.5728  0.7756 -2.3347
  863MOL0     H16452   8.572   4.858   9.215  0.2224 -2.5016  0.5281
  863MOL0     H16453   8.741   4.817   9.234  0.1742  2.4324  1.1350
  863MOL0     H16454   8.669   5.112   9.189  0.8280  2.5393  1.5355
  863MOL0     H16455   8.814   5.025   9.264 -0.9068 -3.6532 -1.0534
  863MOL0     H16456   8.628   4.849   9.457  0.9141 -0.6714  0.0739
  863MOL0     H16457   8.357   5.003   9.692  0.6686  2.2475  1.6277
  863MOL0     H16458   8.464   4.870   9.663  1.2388  0.7028 -2.9775
  863MOL0     H16459   8.464   5.015   9.891  0.9408 -0.9099 -0.1403
  863MOL0     H16460   8.530   5.146   9.789  0.5541  0.4563  2.5809
  863MOL0     H16461   8.722   5.047   9.922 -0.5605  0.7000  0.1339
  863MOL0     H16462   8.736   5.038   9.748  1.5371  0.8574 -0.3530
  863MOL0     H16463   8.640   4.814   9.760 -1.1978  0.6130  0.8082
  863MOL0     H16464   8.659   4.795   9.932 -0.8919 -0.3746 -2.0059
  863MOL0     H16465   8.799   4.877  10.090 -0.1942  1.7372 -1.9755
  863MOL0     H16466   9.022   4.855  10.365 -1.5981 -0.2153  1.7160
  863MOL0     H16467   8.895   4.972  10.312 -2.8944 -0.8669  0.1620
  863MOL0     H16468   8.875   4.793  10.336  1.9499 -1.8485  0.0351
  863MOL0     H16469   9.495   4.969  10.113 -2.8004 -3.1555  0.8479
  863MOL0     H16470   9.723   5.056  10.206 -0.5777  0.6792 -0.7947
  863MOL0     H16471   9.939   5.055  10.291  1.7640  1.1321  0.3334
  863MOL0     H16472   9.884   5.144  10.432 -1.9657 -0.9497  0.0957
  863MOL0     H16473  10.141   5.077  10.414 -0.2844  1.3381  2.0318
  863MOL0     H16474  10.060   5.040  10.563  0.2128 -1.9385  0.2475
  863MOL0     H16475  10.015   4.819  10.509  1.7501 -2.2838  1.1109
  863MOL0     H16476  10.190   4.861  10.524  1.7637  0.9342 -2.7973
  863MOL0     H16477  10.219   4.878  10.281  0.9171 -1.6953 -0.7651
  863MOL0     H16478  10.196   4.719  10.352 -2.4739  0.5234  3.2134
  863MOL0     H16479   9.991   4.865  10.187  0.5710 -0.6694 -0.0220
  863MOL0     H16480   9.966   4.719  10.289  0.6114 -0.0977  1.7446
  863MOL0     H16481  10.124   4.599  10.140 -2.3091 -1.4065  0.6857
  863MOL0     H16482   9.979   4.650  10.065 -0.3901 -1.6490  2.5481
  863MOL0     H16483  10.206   4.848  10.060 -1.3671 -0.0557 -0.2249
  863MOL0     H16484  10.099   4.807   9.930  0.8311  0.4421 -0.1185
  863MOL0     H16485  10.192   4.570   9.908  0.4516  0.2608  0.9318
  863MOL0     H16486  10.328   4.637   9.990 -1.5375 -1.9327  1.5433
  863MOL0     H16487   9.693   4.752  10.501  4.4716 -0.4017 -4.8156
  863MOL0     H16488   9.465   4.682  10.416  2.9597 -2.8480  1.4239
  863MOL0     H16489   9.256   4.707   9.977 -0.2648  0.9904 -0.3487
  863MOL0     H16490   9.059   4.719   9.803 -1.4426 -2.5298  0.6137
  863MOL0     H16491   8.722   4.296   9.141 -1.2078 -0.2896 -0.8459
  863MOL0     H16492   8.660   4.104   9.262  1.8797 -3.5624  3.0317
  863MOL0     H16493   8.541   3.543   9.102  0.4500 -0.3579 -0.2299
  863MOL0     H16494   8.366   3.416   9.201  1.3714 -4.3513  3.1762
  863MOL0     H16495   8.298   3.504   9.659 -1.0411  1.7874  0.1003
  863MOL0     H16496   8.213   3.599   9.537  3.2792  1.2824  1.5978
  863MOL0     H16497   8.073   3.443   9.697  1.5813  2.3191 -0.2161
  863MOL0     H16498   8.131   3.307   9.612  0.0578 -1.1059  0.8681
  863MOL0     H16499   7.956   3.552   9.516  1.7384  0.7919  0.6417
  863MOL0     H16500   7.901   3.385   9.526 -2.0369  1.8130 -2.0401
  863MOL0     H16501   8.074   3.342   9.316 -1.1411 -0.0716 -1.3710
  863MOL0     H16502   8.088   3.511   9.326  0.8703 -2.7386 -2.6388
  863MOL0     H16503   7.699   3.424   9.171  0.3432  1.3400  1.3984
  863MOL0     H16504   8.443   3.659   9.560 -1.1507  0.4689 -0.1388
  863MOL0     H16505   8.601   3.788   9.449  1.1996  0.1648 -0.8255
  864MOL0     O16506   3.079  10.169   6.344  0.6574 -0.6763  0.3401
  864MOL0     C16507   2.986  10.189   6.420 -0.2389  0.1174 -0.1052
  864MOL0     O16508   2.864  10.131   6.424  0.4547 -0.0018  0.4217
  864MOL0     C16509   2.843  10.004   6.368  0.0406 -0.1105 -0.0729
  864MOL0     C16510   2.930   9.901   6.374  0.0875  0.1216 -1.6374
  864MOL0     C16511   2.894   9.770   6.343 -0.0692 -0.9960  0.7229
  864MOL0     C16512   2.768   9.740   6.304 -0.6999 -0.3473 -0.0568
  864MOL0     O16513   2.751   9.613   6.275 -0.5705  1.1649  0.0750
  864MOL0     C16514   2.784   9.576   6.134  0.4715  0.9506 -0.0289
  864MOL0     C16515   2.822   9.425   6.140  0.2289 -0.2285  0.1121
  864MOL0     C16516   2.800   9.374   6.001  0.6436  0.4516  0.3397
  864MOL0     C16517   2.860   9.237   5.992 -0.1771 -0.0825  1.0294
  864MOL0     C16518   2.823   9.158   5.871 -0.9440  0.0931 -0.1675
  864MOL0     C16519   2.923   9.170   5.758 -0.6005  0.2879 -0.3561
  864MOL0     C16520   2.877   9.076   5.649  0.5187  0.2031 -0.2814
  864MOL0     C16521   3.000   9.017   5.576 -0.5964 -0.8181  0.6407
  864MOL0     N16522   3.074   9.126   5.505  0.1579  0.5863 -0.1020
  864MOL0     C16523   3.014   9.206   5.413  0.2290 -0.4643 -0.3071
  864MOL0     C16524   3.106   9.310   5.399 -0.1288  0.7769 -0.1868
  864MOL0     C16525   3.111   9.418   5.291 -0.4715 -0.4948 -0.6244
  864MOL0     C16526   2.992   9.512   5.309  0.2040 -0.3772 -0.1154
  864MOL0     C16527   3.039   9.658   5.282  0.7372 -0.5494 -0.0746
  864MOL0     C16528   2.933   9.736   5.201 -0.1949 -1.2978 -0.5618
  864MOL0     O16529   2.953   9.738   5.068  0.4820  0.6463  0.6094
  864MOL0     C16530   3.028   9.836   5.009 -0.4341  0.4323  0.3417
  864MOL0     C16531   3.120   9.922   5.078  0.3157 -0.9801  0.8789
  864MOL0     C16532   3.192  10.023   5.017  0.6156  0.2552 -0.2226
  864MOL0     C16533   3.293  10.101   5.096 -0.7218 -0.0051 -0.4809
  864MOL0     C16534   3.168  10.041   4.877 -0.2933  0.0324  0.0860
  864MOL0     C16535   3.229  10.154   4.799  0.4045 -0.6947  0.8945
  864MOL0     O16536   3.272  10.265   4.866 -0.3368 -0.9250 -0.1871
  864MOL0     C16537   3.304  10.378   4.802 -0.1488  0.1683  0.3993
  864MOL0     C16538   3.229  10.444   4.702  0.3325  0.3153  0.1770
  864MOL0     C16539   3.267  10.559   4.638  0.5946  0.8189  0.7344
  864MOL0     C16540   3.384  10.613   4.677 -0.5972 -0.9904 -0.7362
  864MOL0     O16541   3.429  10.741   4.640 -0.5067 -0.2813 -0.1168
  864MOL0     C16542   3.361  10.801   4.527 -0.4020  0.0638  0.2513
  864MOL0     C16543   3.408  10.940   4.482 -0.5329 -1.2044  0.5264
  864MOL0     C16544   3.551  10.935   4.434 -0.2716  0.3035 -0.5708
  864MOL0     C16545   3.655  10.924   4.558 -0.0432  0.8326  0.4799
  864MOL0     C16546   3.791  10.940   4.494 -0.6711  0.5634 -0.0268
  864MOL0     C16547   3.820  11.086   4.427  0.1227  0.7373 -0.1045
  864MOL0     C16548   3.843  11.080   4.277  0.4652 -0.6230  0.1857
  864MOL0     C16549   3.944  11.203   4.253 -0.1042 -0.3326 -0.6737
  864MOL0    Cl16550   4.099  11.138   4.307  0.4304  0.3007  0.1875
  864MOL0     C16551   3.460  10.557   4.783  0.4478 -0.1942  0.6773
  864MOL0     C16552   3.424  10.436   4.845  0.3355 -0.7175 -0.0778
  864MOL0     O16553   3.244  10.136   4.678 -0.3528  0.4700 -0.2547
  864MOL0     C16554   3.093   9.948   4.807 -0.1232  0.2400 -0.8426
  864MOL0     C16555   3.019   9.844   4.872 -0.4555  0.2213 -0.6204
  864MOL0     N16556   3.215   9.288   5.482 -0.3631 -0.2820 -0.1080
  864MOL0     N16557   3.190   9.181   5.548  0.2604  1.2104 -0.4916
  864MOL0     C16558   2.669   9.840   6.313 -0.2625  0.1846 -0.7318
  864MOL0     C16559   2.711   9.973   6.333  1.8034 -0.6420  0.9845
  864MOL0     C16560   3.003  10.310   6.507  0.8191 -0.6988 -0.0802
  864MOL0     C16561   3.098  10.406   6.465  0.1390  1.0279  1.7729
  864MOL0     C16562   3.136  10.521   6.541  0.2478  0.5362  0.0424
  864MOL0     C16563   3.085  10.538   6.666  0.3157  0.2027  0.6975
  864MOL0     O16564   3.121  10.648   6.727 -0.2167  0.0078  0.0396
  864MOL0     C16565   3.210  10.624   6.835  0.5341  0.6692  0.5576
  864MOL0     C16566   3.350  10.659   6.792 -0.2808 -0.2617 -0.0975
  864MOL0     C16567   3.368  10.792   6.714  0.3364  0.7557  1.1582
  864MOL0     C16568   3.494  10.804   6.634 -0.1036  0.2491  0.7104
  864MOL0     C16569   3.478  10.712   6.519 -0.9052 -0.7444  0.3828
  864MOL0     C16570   3.477  10.630   6.435 -0.6223  0.9087  0.3313
  864MOL0     C16571   2.990  10.444   6.709  0.5339 -0.2961 -0.3980
  864MOL0     C16572   2.943  10.338   6.632  0.1197  0.9569 -0.7080
  864MOL0     H16573   3.029   9.923   6.413 -0.6946  0.3110  0.4019
  864MOL0     H16574   2.976   9.700   6.351 -0.2532 -1.3103 -0.0183
  864MOL0     H16575   2.692   9.592   6.076 -1.5515  2.2402  3.2164
  864MOL0     H16576   2.868   9.633   6.094  2.2467 -2.7982 -2.0725
  864MOL0     H16577   2.929   9.416   6.160  0.5407  0.0891 -1.2838
  864MOL0     H16578   2.760   9.369   6.211 -0.7947 -1.2831 -1.5270
  864MOL0     H16579   2.693   9.359   5.989  0.9176 -1.4448  0.0688
  864MOL0     H16580   2.837   9.449   5.931  1.6461 -0.7596 -0.4662
  864MOL0     H16581   2.969   9.248   5.986 -0.0905 -1.4824 -2.0126
  864MOL0     H16582   2.826   9.184   6.081  0.6844 -0.2226  1.2886
  864MOL0     H16583   2.824   9.055   5.909 -1.6746 -0.4519 -1.5505
  864MOL0     H16584   2.729   9.183   5.820 -0.8799  0.4562 -0.1125
  864MOL0     H16585   2.933   9.268   5.712  0.9368 -1.6530 -4.6744
  864MOL0     H16586   3.021   9.140   5.799  0.0516  4.2733  1.4179
  864MOL0     H16587   2.816   8.997   5.694  1.3367  0.6235  1.6462
  864MOL0     H16588   2.815   9.127   5.575  0.0817 -0.8075 -0.6368
  864MOL0     H16589   2.961   8.934   5.517 -6.0547  2.0497 -0.4429
  864MOL0     H16590   3.075   8.973   5.644  0.7170 -2.0939 -1.5297
  864MOL0     H16591   2.921   9.183   5.363  0.6051 -2.1070 -0.3261
  864MOL0     H16592   3.217   9.444   5.284  0.3992 -3.8807 -1.6005
  864MOL0     H16593   3.090   9.373   5.194  0.4891 -0.2066 -0.9763
  864MOL0     H16594   2.959   9.515   5.413 -0.0663  1.8343 -0.2219
  864MOL0     H16595   2.908   9.484   5.245  1.1496 -1.7279 -0.8125
  864MOL0     H16596   3.135   9.655   5.229  0.2162  0.7283 -1.1320
  864MOL0     H16597   3.057   9.712   5.376 -0.6519 -0.9136  0.4239
  864MOL0     H16598   2.925   9.840   5.234  2.9106 -0.9788 -0.5634
  864MOL0     H16599   2.836   9.686   5.215 -1.1694  0.1000 -1.9303
  864MOL0     H16600   3.145   9.898   5.181  0.3269 -0.2342  1.0560
  864MOL0     H16601   3.380  10.118   5.033 -0.2364  0.1735  0.2261
  864MOL0     H16602   3.261  10.201   5.127 -0.5526 -0.3236  0.7665
  864MOL0     H16603   3.324  10.049   5.187 -2.8771 -0.3562  0.1275
  864MOL0     H16604   3.130  10.410   4.671  0.6017 -0.3375  0.0361
  864MOL0     H16605   3.206  10.603   4.560  0.8750 -1.1807 -0.6922
  864MOL0     H16606   3.361  10.734   4.441 -2.5800  2.0905 -1.4559
  864MOL0     H16607   3.256  10.804   4.555 -0.7929 -1.1254 -1.0123
  864MOL0     H16608   3.351  10.992   4.404 -0.2151 -4.1214 -1.8203
  864MOL0     H16609   3.374  11.006   4.562 -0.9535  0.0031 -0.6052
  864MOL0     H16610   3.579  11.013   4.362  3.5040 -0.7460 -0.4685
  864MOL0     H16611   3.569  10.844   4.377  1.7871 -0.5597  1.3119
  864MOL0     H16612   3.643  11.007   4.629 -0.1250  0.5875  0.7513
  864MOL0     H16613   3.652  10.826   4.606  2.9037  1.2200  1.6802
  864MOL0     H16614   3.792  10.871   4.409  1.4918  1.2273 -0.6066
  864MOL0     H16615   3.874  10.923   4.563 -0.0001  0.3947 -0.8481
  864MOL0     H16616   3.731  11.147   4.444 -0.6066 -0.6907  1.5703
  864MOL0     H16617   3.909  11.130   4.475 -0.7727  1.9066  0.5370
  864MOL0     H16618   3.747  11.086   4.225  0.6340 -0.1604 -0.0764
  864MOL0     H16619   3.893  10.988   4.246  0.5979 -0.9896  1.4040
  864MOL0     H16620   3.918  11.292   4.310 -0.0601 -1.9040  1.9943
  864MOL0     H16621   3.932  11.233   4.149 -3.0357  2.7160  0.3725
  864MOL0     H16622   3.551  10.612   4.804  1.1505 -1.0372 -0.0603
  864MOL0     H16623   3.488  10.390   4.920 -2.3009  1.0445  3.4978
  864MOL0     H16624   3.081   9.968   4.701 -0.3494 -0.4119 -0.9449
  864MOL0     H16625   2.950   9.782   4.816  1.1690 -0.8810 -1.4742
  864MOL0     H16626   2.567   9.810   6.292 -1.0948  2.4401 -0.2262
  864MOL0     H16627   2.644  10.058   6.328  1.8342 -0.6006  1.3000
  864MOL0     H16628   3.144  10.393   6.368  0.1066 -3.1193  2.1525
  864MOL0     H16629   3.214  10.586   6.504  2.2969 -1.3162  0.8855
  864MOL0     H16630   3.169  10.685   6.916 -1.0087  2.4222 -1.4188
  864MOL0     H16631   3.207  10.521   6.870 -0.2800  0.8388  1.0105
  864MOL0     H16632   3.387  10.571   6.738  2.3852 -1.0549  2.6957
  864MOL0     H16633   3.401  10.668   6.889  0.6168 -0.5105 -0.5391
  864MOL0     H16634   3.355  10.876   6.783  0.0353  3.2534 -1.7734
  864MOL0     H16635   3.284  10.806   6.646  0.9812 -1.4019 -0.2005
  864MOL0     H16636   3.583  10.769   6.687  0.0815  2.3137  1.9040
  864MOL0     H16637   3.505  10.901   6.585 -1.9980  0.4068  0.5047
  864MOL0     H16638   3.474  10.557   6.357  5.3873  0.1587  0.4043
  864MOL0     H16639   2.937  10.458   6.803  1.9555  2.2483  0.1109
  864MOL0     H16640   2.878  10.265   6.679 -0.7446  2.3299  0.2802
  865MOL0     O16641   0.559   7.229   3.070  0.3490  0.1962  0.6178
  865MOL0     C16642   0.460   7.218   3.147  0.3553  0.0994  0.2183
  865MOL0     O16643   0.335   7.255   3.114  0.4404 -0.3591 -1.0158
  865MOL0     C16644   0.297   7.321   3.010 -0.2077 -0.0703 -0.0286
  865MOL0     C16645   0.253   7.457   3.037 -0.6243 -0.2457  0.2237
  865MOL0     C16646   0.235   7.542   2.927  0.7158 -0.0140  0.3377
  865MOL0     C16647   0.213   7.491   2.800  0.2377 -0.0208  0.0434
  865MOL0     O16648   0.161   7.573   2.699 -0.1062 -0.0154 -0.0822
  865MOL0     C16649   0.196   7.716   2.701  0.5103 -0.0561  0.0903
  865MOL0     C16650   0.079   7.789   2.774 -0.4075 -0.5562 -0.1022
  865MOL0     C16651   0.108   7.938   2.795  0.3533 -0.5514 -0.2894
  865MOL0     C16652  -0.002   7.998   2.892  0.5140  0.1445 -0.6733
  865MOL0     C16653   0.036   8.135   2.956 -0.0367 -0.6784 -0.2347
  865MOL0     C16654  -0.093   8.172   3.032 -1.1866  0.3890 -0.4062
  865MOL0     C16655  -0.067   8.299   3.119  0.1128 -0.4727  0.1764
  865MOL0     C16656  -0.199   8.339   3.163  0.2540 -0.1764 -0.2141
  865MOL0     N16657  -0.205   8.483   3.211 -0.3761  0.6178 -1.0595
  865MOL0     C16658  -0.174   8.513   3.342  0.1266 -0.5192 -0.6333
  865MOL0     C16659  -0.210   8.646   3.343  0.2142 -0.2156 -0.3191
  865MOL0     C16660  -0.216   8.735   3.458 -0.8308 -0.0570 -1.1256
  865MOL0     C16661  -0.105   8.842   3.468 -0.8549 -0.4461  0.2066
  865MOL0     C16662  -0.055   8.888   3.606  0.1299  1.0504  0.2171
  865MOL0     C16663  -0.165   8.958   3.688 -0.6043  0.7149 -0.1677
  865MOL0     O16664  -0.103   8.981   3.816 -0.3713 -0.2847  0.1386
  865MOL0     C16665  -0.195   9.049   3.895  0.4955  0.0804 -0.6791
  865MOL0     C16666  -0.157   9.041   4.027 -0.5251 -0.4816  0.3589
  865MOL0     C16667  -0.226   9.103   4.128  0.3450 -1.4692  0.4833
  865MOL0     C16668  -0.159   9.092   4.262  0.5943 -0.7772 -0.5117
  865MOL0     C16669  -0.352   9.175   4.103 -0.2635  0.3728 -0.0200
  865MOL0     C16670  -0.435   9.247   4.196  0.7357  0.0251  0.8130
  865MOL0     O16671  -0.409   9.215   4.330  0.3861 -0.3856  0.8367
  865MOL0     C16672  -0.486   9.286   4.424 -0.8342  0.1667  0.4748
  865MOL0     C16673  -0.615   9.240   4.446 -0.3303 -0.2629  0.6197
  865MOL0     C16674  -0.691   9.304   4.537 -0.1969  0.0595  0.0318
  865MOL0     C16675  -0.639   9.416   4.604  0.4798 -0.1813 -0.7091
  865MOL0     O16676  -0.713   9.480   4.699 -0.1476 -0.0401 -0.1777
  865MOL0     C16677  -0.848   9.436   4.728 -0.1445 -0.5242  0.1828
  865MOL0     C16678  -0.905   9.508   4.854  0.8079  0.1366  0.2739
  865MOL0     C16679  -0.932   9.654   4.824  0.9445 -0.2500 -0.6248
  865MOL0     C16680  -0.958   9.738   4.951  0.1747  1.0796 -0.0667
  865MOL0     C16681  -0.914   9.882   4.946  0.1687 -0.4754 -0.5093
  865MOL0     C16682  -1.035   9.976   4.929  0.2296 -0.7898  0.0235
  865MOL0     C16683  -1.105   9.964   4.797 -0.7464 -0.6902  0.2828
  865MOL0     C16684  -1.239  10.045   4.788 -0.0130 -0.4876  0.4049
  865MOL0    Cl16685  -1.311  10.037   4.634 -0.4594 -0.1014 -0.2294
  865MOL0     C16686  -0.512   9.451   4.593 -0.4600 -0.6582 -0.2069
  865MOL0     C16687  -0.428   9.392   4.491 -0.0810  0.5561  0.3398
  865MOL0     O16688  -0.530   9.321   4.158  0.2083 -1.0238 -0.4172
  865MOL0     C16689  -0.375   9.196   3.966 -0.7276 -0.8563 -0.0290
  865MOL0     C16690  -0.303   9.135   3.866  0.9262  0.1587  0.7732
  865MOL0     N16691  -0.234   8.694   3.219  0.0398 -0.0614  1.2878
  865MOL0     N16692  -0.219   8.593   3.134  0.6371  0.1783  0.5118
  865MOL0     C16693   0.257   7.361   2.770 -1.1122 -0.0445  0.0377
  865MOL0     C16694   0.305   7.277   2.871 -2.0427  0.0592 -0.2673
  865MOL0     C16695   0.465   7.145   3.270  0.3181  0.4007  0.7594
  865MOL0     C16696   0.342   7.102   3.335  0.3074 -0.1950  1.4728
  865MOL0     C16697   0.354   7.017   3.445 -0.3295  0.7619 -0.7145
  865MOL0     C16698   0.482   6.983   3.504  0.4764 -0.1996  0.0978
  865MOL0     O16699   0.508   6.881   3.603  0.0460  0.0902  0.9114
  865MOL0     C16700   0.416   6.889   3.708  0.9031 -0.7890 -0.2580
  865MOL0     C16701   0.435   6.788   3.813  0.8496 -0.3398  0.2392
  865MOL0     C16702   0.576   6.783   3.863  1.1134 -0.1789 -1.3410
  865MOL0     C16703   0.590   6.678   3.979  0.0288  0.0525 -0.4373
  865MOL0     C16704   0.542   6.712   4.113 -0.1597  0.2020 -0.1820
  865MOL0     C16705   0.488   6.753   4.211 -0.0991 -0.0439  0.1956
  865MOL0     C16706   0.590   7.052   3.447 -0.4476 -0.3216 -0.1620
  865MOL0     C16707   0.584   7.131   3.334 -0.5052 -0.1019 -0.7537
  865MOL0     H16708   0.241   7.491   3.140 -0.1924 -2.4951  1.0803
  865MOL0     H16709   0.224   7.649   2.944  0.3398  0.0093 -0.0565
  865MOL0     H16710   0.284   7.735   2.763  0.8141  0.6240 -0.5379
  865MOL0     H16711   0.207   7.756   2.600 -3.8650 -1.5976 -1.2418
  865MOL0     H16712  -0.007   7.790   2.706 -1.1170 -1.8741  0.7350
  865MOL0     H16713   0.050   7.733   2.863  2.3943  1.4401  2.2572
  865MOL0     H16714   0.207   7.960   2.836  0.1924 -1.5722  0.6970
  865MOL0     H16715   0.121   7.985   2.697  1.6042 -1.1177 -0.4136
  865MOL0     H16716  -0.092   8.018   2.833  0.0560  1.4663  0.4137
  865MOL0     H16717  -0.028   7.930   2.974 -2.7396  1.0373 -0.8307
  865MOL0     H16718   0.124   8.129   3.021  0.9232 -0.8001 -1.5035
  865MOL0     H16719   0.046   8.201   2.869 -3.9535  1.8917  1.0226
  865MOL0     H16720  -0.179   8.194   2.969 -1.0497  0.9002 -0.4244
  865MOL0     H16721  -0.125   8.094   3.101  0.1059  1.2267  1.2216
  865MOL0     H16722  -0.001   8.270   3.202 -1.9652 -1.5510  1.5466
  865MOL0     H16723  -0.019   8.377   3.059 -2.4536 -1.5298 -3.6173
  865MOL0     H16724  -0.231   8.263   3.235  0.2212 -2.9509 -2.9392
  865MOL0     H16725  -0.267   8.319   3.079  1.6199 -0.9995 -1.1756
  865MOL0     H16726  -0.156   8.449   3.427 -2.9022  1.4462  1.7089
  865MOL0     H16727  -0.312   8.787   3.463 -0.0423  1.3524  1.8855
  865MOL0     H16728  -0.215   8.662   3.539  0.6263  1.7507  0.5787
  865MOL0     H16729  -0.145   8.936   3.429  1.1553  0.8892  1.2034
  865MOL0     H16730  -0.016   8.804   3.417  0.7895 -1.9148  3.7816
  865MOL0     H16731   0.029   8.957   3.595  0.9757  0.1901  1.0836
  865MOL0     H16732  -0.003   8.809   3.660 -0.1995  0.6745 -0.0073
  865MOL0     H16733  -0.254   8.896   3.697  0.0642 -0.7035 -2.5231
  865MOL0     H16734  -0.197   9.053   3.645 -0.1126  2.1232  2.3300
  865MOL0     H16735  -0.062   8.993   4.049 -0.1137 -1.2489 -2.5936
  865MOL0     H16736  -0.211   9.014   4.319  0.6101 -1.7443 -1.7799
  865MOL0     H16737  -0.054   9.063   4.265  1.2554  1.4856  1.3992
  865MOL0     H16738  -0.170   9.187   4.315  0.6074 -1.3847  0.6212
  865MOL0     H16739  -0.653   9.147   4.405 -4.6098  2.8715 -3.7666
  865MOL0     H16740  -0.790   9.272   4.568  0.2053  1.2719  2.8986
  865MOL0     H16741  -0.910   9.454   4.640  1.8781  1.0177 -1.0339
  865MOL0     H16742  -0.853   9.327   4.734  0.0427 -0.7733 -2.8626
  865MOL0     H16743  -0.996   9.459   4.891  0.4405 -1.0933 -2.0560
  865MOL0     H16744  -0.847   9.501   4.947 -0.3561  2.0008  1.2044
  865MOL0     H16745  -1.008   9.680   4.750  0.2237 -0.9139 -0.1432
  865MOL0     H16746  -0.840   9.673   4.768  1.0784 -3.2420 -1.6187
  865MOL0     H16747  -1.063   9.733   4.980 -0.4187  2.8435 -1.6857
  865MOL0     H16748  -0.912   9.702   5.044 -2.1478 -2.0845  0.0208
  865MOL0     H16749  -0.838   9.897   4.869  0.5927  0.0572  0.0044
  865MOL0     H16750  -0.876   9.933   5.035 -0.6174  1.7839 -1.4149
  865MOL0     H16751  -1.104   9.946   5.008 -1.5513 -1.6863 -1.7861
  865MOL0     H16752  -1.001  10.079   4.945 -2.5323  0.4770 -1.5705
  865MOL0     H16753  -1.129   9.859   4.775 -1.1769 -0.1001 -2.4544
  865MOL0     H16754  -1.029   9.997   4.726  1.0862  1.7746  3.1610
  865MOL0     H16755  -1.226  10.149   4.819 -1.8458  0.8437 -2.7438
  865MOL0     H16756  -1.313  10.004   4.857  1.6013 -1.5473  1.5614
  865MOL0     H16757  -0.470   9.518   4.667 -1.4897 -1.7520  1.4336
  865MOL0     H16758  -0.323   9.421   4.487  0.2647 -0.1762  2.7106
  865MOL0     H16759  -0.462   9.250   3.932 -0.5118 -0.7193 -0.3727
  865MOL0     H16760  -0.324   9.169   3.765  1.3566 -0.6471  0.4106
  865MOL0     H16761   0.267   7.339   2.664  0.4955  0.3527  0.0829
  865MOL0     H16762   0.351   7.181   2.851 -0.5123  0.2871  1.7920
  865MOL0     H16763   0.255   7.114   3.271  0.8697 -0.0777  0.7124
  865MOL0     H16764   0.266   6.961   3.475  1.8718 -1.9976  1.1970
  865MOL0     H16765   0.440   6.981   3.763  1.4743 -1.3981  0.5340
  865MOL0     H16766   0.312   6.893   3.673  1.9991  0.6099 -3.7047
  865MOL0     H16767   0.408   6.694   3.763 -0.3720 -0.1620  0.5190
  865MOL0     H16768   0.368   6.793   3.900  0.8517 -0.0564  0.2256
  865MOL0     H16769   0.611   6.883   3.890 -0.7304  0.2500 -0.3759
  865MOL0     H16770   0.644   6.746   3.785  0.3642  0.4734 -2.3288
  865MOL0     H16771   0.697   6.664   3.993 -0.2098 -1.0733  0.4743
  865MOL0     H16772   0.544   6.583   3.951 -1.0718  0.0192  1.3545
  865MOL0     H16773   0.447   6.777   4.307 -1.7333 -1.3309 -0.1212
  865MOL0     H16774   0.688   7.043   3.491 -1.6206  3.2481  3.8062
  865MOL0     H16775   0.680   7.166   3.298  0.3809 -1.5187  0.1268
  866MOL0     O16776   6.113   4.698  10.740  0.2251  0.1627 -0.5616
  866MOL0     C16777   5.992   4.674  10.742  0.4779  0.3377 -0.7884
  866MOL0     O16778   5.914   4.663  10.634  0.0515 -0.1393  1.2682
  866MOL0     C16779   5.975   4.637  10.514  0.1098 -0.3501  0.4771
  866MOL0     C16780   6.038   4.735  10.432 -0.4593 -0.5749 -0.9207
  866MOL0     C16781   6.069   4.709  10.303  0.1163  0.2685 -0.3256
  866MOL0     C16782   6.037   4.582  10.249 -0.1686  0.2111  0.2381
  866MOL0     O16783   6.088   4.548  10.128 -0.2086 -0.8837 -0.3120
  866MOL0     C16784   6.232   4.549  10.133  0.3228 -0.4051  0.3545
  866MOL0     C16785   6.280   4.531   9.983  0.1457  1.1128 -0.4213
  866MOL0     C16786   6.289   4.672   9.924 -0.6103 -0.2434 -0.3624
  866MOL0     C16787   6.357   4.682   9.781  0.5699 -0.2182 -0.2943
  866MOL0     C16788   6.479   4.603   9.758  0.0279 -0.2970 -0.6747
  866MOL0     C16789   6.591   4.645   9.858 -0.3454 -0.5272 -0.0740
  866MOL0     C16790   6.728   4.578   9.808 -0.0333  0.0762  0.3920
  866MOL0     C16791   6.738   4.431   9.840  0.5907  0.3318  0.3795
  866MOL0     N16792   6.881   4.395   9.842 -0.0164  0.2519 -0.9687
  866MOL0     C16793   6.949   4.347   9.956  0.4552 -0.6565  0.1805
  866MOL0     C16794   7.075   4.324   9.913  0.1581  0.6167  0.8018
  866MOL0     C16795   7.190   4.313  10.009  0.3224  0.5921  0.4506
  866MOL0     C16796   7.311   4.392   9.968  0.3736  0.5732  0.8659
  866MOL0     C16797   7.407   4.426  10.076  0.3108 -0.1765  0.3229
  866MOL0     C16798   7.481   4.304  10.126  0.4507  0.1037  0.1802
  866MOL0     O16799   7.608   4.331  10.195  0.7214  0.3795  0.8064
  866MOL0     C16800   7.641   4.236  10.291  0.0022 -0.2287 -0.2805
  866MOL0     C16801   7.776   4.239  10.316  0.6290  0.7972 -0.8146
  866MOL0     C16802   7.834   4.138  10.405  0.5228 -0.0841  0.7150
  866MOL0     C16803   7.989   4.132  10.410  0.1470  0.3928  0.0466
  866MOL0     C16804   7.758   4.043  10.475 -0.5616  0.1168  0.8007
  866MOL0     C16805   7.806   3.931  10.557  0.8249 -0.3429  0.2706
  866MOL0     O16806   7.708   3.865  10.624  0.0762 -0.0120  0.2012
  866MOL0     C16807   7.734   3.735  10.673 -0.6358 -0.4706 -0.5632
  866MOL0     C16808   7.776   3.630  10.588 -0.1854 -0.1924 -0.8696
  866MOL0     C16809   7.809   3.501  10.641 -0.1688  0.1291 -0.0949
  866MOL0     C16810   7.784   3.471  10.771  0.2581 -0.3127 -0.9488
  866MOL0     O16811   7.790   3.337  10.810 -0.4734 -0.1331 -0.6169
  866MOL0     C16812   7.782   3.290  10.939  0.1422  1.1681 -0.0266
  866MOL0     C16813   7.866   3.158  10.943 -0.9500  0.4865  0.5199
  866MOL0     C16814   7.855   3.085  11.071 -0.0716  0.6106 -0.3477
  866MOL0     C16815   7.886   3.169  11.182 -0.0458 -1.8133 -0.3802
  866MOL0     C16816   7.913   3.106  11.317  0.4583 -0.0842  1.0451
  866MOL0     C16817   7.841   3.181  11.429  0.1852 -1.5820  0.0669
  866MOL0     C16818   7.880   3.333  11.434 -0.7150  0.1089 -0.1952
  866MOL0     C16819   7.818   3.393  11.575  0.0154 -0.4230  0.1899
  866MOL0    Cl16820   7.898   3.338  11.711  0.1548  0.2405 -0.1396
  866MOL0     C16821   7.742   3.575  10.852  0.0563  0.5454  0.1370
  866MOL0     C16822   7.718   3.706  10.805 -0.1211  0.6598 -0.7642
  866MOL0     O16823   7.927   3.895  10.560 -0.0895 -0.1254  0.5326
  866MOL0     C16824   7.620   4.050  10.450  1.7246 -0.9597 -0.4071
  866MOL0     C16825   7.560   4.142  10.364  0.2085 -0.1145 -0.6214
  866MOL0     N16826   7.081   4.350   9.783  0.4020  0.6061 -0.4704
  866MOL0     N16827   6.970   4.397   9.742  0.4226  1.3624 -0.4347
  866MOL0     C16828   5.974   4.483  10.329  0.5288 -0.3420 -0.8027
  866MOL0     C16829   5.927   4.519  10.455 -0.3539  0.9455 -0.1755
  866MOL0     C16830   5.924   4.683  10.879 -0.5714  0.5798 -0.1143
  866MOL0     C16831   5.787   4.654  10.878  0.1582  0.1446 -1.5585
  866MOL0     C16832   5.718   4.640  10.999  0.1608 -0.5144 -0.2920
  866MOL0     C16833   5.780   4.659  11.120  0.1390 -0.1836  0.0054
  866MOL0     O16834   5.713   4.650  11.246  0.3025  1.0889 -0.4758
  866MOL0     C16835   5.577   4.690  11.243 -0.9609  0.9365  0.9558
  866MOL0     C16836   5.528   4.721  11.379  0.0167  0.0707 -0.6434
  866MOL0     C16837   5.532   4.608  11.478 -0.9601 -1.2195  0.8565
  866MOL0     C16838   5.491   4.636  11.622  0.3570  0.0102 -0.3255
  866MOL0     C16839   5.350   4.688  11.633 -0.4125 -0.1885  0.4576
  866MOL0     C16840   5.239   4.738  11.636  0.2738  1.0263  0.0833
  866MOL0     C16841   5.921   4.688  11.126  0.8823 -0.7074  0.4696
  866MOL0     C16842   5.988   4.699  11.002  0.7774 -1.1855 -0.2337
  866MOL0     H16843   6.069   4.831  10.473 -1.4812 -0.6015 -0.0389
  866MOL0     H16844   6.112   4.781  10.234  0.1467 -0.4075 -1.0302
  866MOL0     H16845   6.265   4.642  10.182 -0.0448 -1.0746  1.9269
  866MOL0     H16846   6.266   4.462  10.190  0.7904 -1.0996 -0.9649
  866MOL0     H16847   6.376   4.479   9.988 -1.9247 -3.3076 -1.5661
  866MOL0     H16848   6.214   4.457   9.937  1.8247  0.7931 -2.4465
  866MOL0     H16849   6.190   4.720   9.922 -0.9211 -0.6989  1.8144
  866MOL0     H16850   6.362   4.726   9.985  0.3440 -1.1881 -0.6416
  866MOL0     H16851   6.282   4.649   9.708 -1.2181 -0.0850  1.3916
  866MOL0     H16852   6.384   4.786   9.763  4.4007 -1.3952 -2.5257
  866MOL0     H16853   6.476   4.494   9.770 -2.2838 -0.1772  0.5322
  866MOL0     H16854   6.514   4.627   9.657 -0.2741  0.0551 -0.6987
  866MOL0     H16855   6.593   4.752   9.838 -3.2862 -0.2937  0.4127
  866MOL0     H16856   6.571   4.619   9.963 -0.1159 -0.6041 -0.0499
  866MOL0     H16857   6.747   4.593   9.702 -2.3139  1.3880  0.1171
  866MOL0     H16858   6.813   4.625   9.859  0.8522 -1.1679  0.1057
  866MOL0     H16859   6.678   4.362   9.781  1.9704 -1.5593  1.0622
  866MOL0     H16860   6.707   4.419   9.944 -1.1867  0.7857 -0.0712
  866MOL0     H16861   6.899   4.343  10.053 -4.0814 -1.9904 -1.9470
  866MOL0     H16862   7.153   4.342  10.108  0.7381  0.8677  0.5279
  866MOL0     H16863   7.212   4.207  10.019 -1.7981  0.2304  1.8849
  866MOL0     H16864   7.264   4.475   9.915  2.7624 -0.5772 -3.5256
  866MOL0     H16865   7.372   4.346   9.890  1.8366  1.3218  1.5269
  866MOL0     H16866   7.352   4.468  10.159  1.6897  0.8553  0.7566
  866MOL0     H16867   7.469   4.511  10.044 -1.7959  1.3749  0.1978
  866MOL0     H16868   7.493   4.237  10.040 -2.0906  1.3152 -1.2286
  866MOL0     H16869   7.416   4.255  10.199  3.3490 -3.0454  0.9177
  866MOL0     H16870   7.835   4.299  10.248  0.0569 -0.8167 -2.8581
  866MOL0     H16871   8.027   4.132  10.512  1.8639  0.2828 -0.5649
  866MOL0     H16872   8.025   4.040  10.362 -1.3876  1.4667 -3.4965
  866MOL0     H16873   8.034   4.214  10.354  1.1773 -0.0398  0.2239
  866MOL0     H16874   7.812   3.651  10.488  1.1646  0.1639 -0.3352
  866MOL0     H16875   7.860   3.426  10.583  0.4161  0.4069  0.0541
  866MOL0     H16876   7.838   3.353  11.008  0.6251  1.5014 -0.7128
  866MOL0     H16877   7.681   3.269  10.973  1.0848 -2.9076  0.7881
  866MOL0     H16878   7.820   3.092  10.869  0.5441 -0.7623  0.6635
  866MOL0     H16879   7.972   3.172  10.922  0.0780 -2.4712  3.1012
  866MOL0     H16880   7.936   3.012  11.072 -2.1831 -1.9148  2.3436
  866MOL0     H16881   7.763   3.029  11.084  0.9538 -0.8670  0.8455
  866MOL0     H16882   7.969   3.237  11.159 -0.7335 -0.1194  1.7926
  866MOL0     H16883   7.797   3.233  11.189  1.4898  0.5803 -1.2669
  866MOL0     H16884   8.021   3.102  11.336  0.6566  3.7903  1.5001
  866MOL0     H16885   7.873   3.005  11.323  1.7871 -0.7798 -0.7829
  866MOL0     H16886   7.734   3.172  11.406 -0.1069  1.5042 -0.2421
  866MOL0     H16887   7.854   3.124  11.522  2.2370  1.5083  1.8425
  866MOL0     H16888   7.822   3.378  11.353 -4.0368 -1.4565  1.1274
  866MOL0     H16889   7.988   3.350  11.439 -0.5118 -1.1893  0.1974
  866MOL0     H16890   7.709   3.380  11.573 -0.3290  1.6943 -3.4420
  866MOL0     H16891   7.835   3.501  11.578 -2.7697  0.0807  0.3239
  866MOL0     H16892   7.745   3.551  10.958  0.3484 -0.8560 -0.1652
  866MOL0     H16893   7.700   3.786  10.877  1.4088 -0.7224  1.2579
  866MOL0     H16894   7.541   3.983  10.484 -1.7311  2.7100 -0.4305
  866MOL0     H16895   7.455   4.116  10.356  0.6702 -2.2409 -0.4687
  866MOL0     H16896   5.951   4.384  10.291  0.0401 -0.7577  0.5246
  866MOL0     H16897   5.867   4.449  10.512 -1.3923  0.1847 -2.1184
  866MOL0     H16898   5.734   4.638  10.784 -1.1888 -3.3260 -0.3429
  866MOL0     H16899   5.612   4.625  10.982 -0.5184  2.4400  0.6811
  866MOL0     H16900   5.569   4.774  11.173  1.2087 -0.6141 -1.3073
  866MOL0     H16901   5.527   4.605  11.195  0.6943  1.2071 -1.3795
  866MOL0     H16902   5.429   4.766  11.376  0.2844  1.1282  2.6157
  866MOL0     H16903   5.596   4.801  11.411  1.4482 -2.2073  2.5753
  866MOL0     H16904   5.633   4.566  11.473  0.9376  2.6224  2.6294
  866MOL0     H16905   5.465   4.524  11.457  1.3453 -3.0393  0.4096
  866MOL0     H16906   5.546   4.722  11.662 -4.1126  3.8579 -1.5590
  866MOL0     H16907   5.504   4.542  11.676 -2.3369 -0.7919 -0.9242
  866MOL0     H16908   5.139   4.774  11.633 -1.0330 -2.2968 -0.6650
  866MOL0     H16909   5.966   4.707  11.223  0.0795  0.4573  0.6326
  866MOL0     H16910   6.091   4.731  10.998  0.9074 -1.7082 -2.1976
  867MOL0     O16911  10.590  11.379   6.971  1.4374  0.4950 -0.0764
  867MOL0     C16912  10.523  11.398   7.070 -0.2178 -0.8813 -0.0369
  867MOL0     O16913  10.426  11.492   7.085  0.0222 -0.4130  0.3927
  867MOL0     C16914  10.355  11.542   6.981 -0.0683 -0.2154  0.2250
  867MOL0     C16915  10.247  11.621   7.022 -0.2074  0.8573 -1.1009
  867MOL0     C16916  10.162  11.675   6.933  0.1824 -0.2138  0.0395
  867MOL0     C16917  10.176  11.654   6.790  0.3252  0.2990 -1.0531
  867MOL0     O16918  10.078  11.729   6.721 -0.0346 -0.7507 -0.1635
  867MOL0     C16919  10.107  11.759   6.580  0.9714 -0.1463  0.6173
  867MOL0     C16920   9.962  11.815   6.536 -0.4531  0.1302 -0.5642
  867MOL0     C16921   9.959  11.843   6.388 -0.1567 -0.4292 -0.5491
  867MOL0     C16922   9.818  11.852   6.325 -0.5085  0.4345 -0.5629
  867MOL0     C16923   9.828  11.908   6.182  0.1679  0.6566  0.4125
  867MOL0     C16924   9.686  11.962   6.140  0.3872 -0.7715 -0.0861
  867MOL0     C16925   9.564  11.868   6.152  0.9900  0.0556 -0.3473
  867MOL0     C16926   9.426  11.938   6.193 -0.9604 -0.1327  0.5431
  867MOL0     N16927   9.330  11.843   6.236  0.6715  0.2428  0.0947
  867MOL0     C16928   9.316  11.779   6.363  0.1537 -0.0361  0.4278
  867MOL0     C16929   9.200  11.709   6.368  0.3216 -0.0855  0.1440
  867MOL0     C16930   9.147  11.624   6.484 -0.2114  0.1410  0.0158
  867MOL0     C16931   9.024  11.697   6.542  0.9529 -0.2552  0.0487
  867MOL0     C16932   8.944  11.614   6.649  0.8746  0.0945 -0.7572
  867MOL0     C16933   8.860  11.689   6.757 -0.5440 -0.1932 -0.9821
  867MOL0     O16934   8.745  11.747   6.700 -1.3598 -0.5065  0.1727
  867MOL0     C16935   8.649  11.791   6.780 -0.7205  0.1097 -0.5845
  867MOL0     C16936   8.633  11.769   6.923 -0.5611 -0.9168  0.7465
  867MOL0     C16937   8.533  11.826   6.997  0.0581  0.1863 -0.2438
  867MOL0     C16938   8.527  11.788   7.152 -0.0376 -0.3428  0.6509
  867MOL0     C16939   8.444  11.914   6.925 -0.0498 -1.0185  0.2959
  867MOL0     C16940   8.314  11.973   6.973 -1.4979 -0.6627 -0.1518
  867MOL0     O16941   8.206  11.974   6.893  0.2689  0.1459  0.6477
  867MOL0     C16942   8.101  12.046   6.938  0.7127 -0.3118  0.9221
  867MOL0     C16943   8.081  12.181   6.891 -0.7526  0.4775  0.5569
  867MOL0     C16944   7.969  12.245   6.932  0.4233  0.6501  0.8238
  867MOL0     C16945   7.888  12.188   7.031 -0.1391 -0.1038 -0.4914
  867MOL0     O16946   7.772  12.244   7.082 -0.4633 -0.0642 -0.5888
  867MOL0     C16947   7.776  12.384   7.100 -0.5048  0.3590  0.5276
  867MOL0     C16948   7.821  12.422   7.238 -0.6818  0.0842  0.4954
  867MOL0     C16949   7.941  12.353   7.288 -0.8644 -0.0815  0.1973
  867MOL0     C16950   8.013  12.403   7.418  0.3561 -0.1286  0.3907
  867MOL0     C16951   8.119  12.313   7.469  0.6652 -0.4126 -1.1440
  867MOL0     C16952   8.253  12.360   7.434 -0.4366  0.2416  0.0381
  867MOL0     C16953   8.365  12.258   7.484  0.7727  0.4134  0.5012
  867MOL0     C16954   8.393  12.151   7.385 -0.4572  0.0106 -0.4312
  867MOL0    Cl16955   8.521  12.059   7.457 -0.1613 -0.1893 -1.0842
  867MOL0     C16956   7.911  12.060   7.084 -0.3529  0.3224  0.2700
  867MOL0     C16957   8.016  11.988   7.028 -0.1363 -0.9611  1.2560
  867MOL0     O16958   8.319  12.029   7.084 -0.3148 -0.4184 -0.4263
  867MOL0     C16959   8.460  11.942   6.784 -0.5314 -0.2309 -0.1149
  867MOL0     C16960   8.559  11.877   6.720 -0.0532  0.4968  0.3035
  867MOL0     N16961   9.138  11.727   6.247  0.9649 -0.0335 -0.4423
  867MOL0     N16962   9.219  11.802   6.169  0.2328  0.2907 -0.0717
  867MOL0     C16963  10.281  11.566   6.741 -0.3124 -0.5226  0.0854
  867MOL0     C16964  10.369  11.522   6.841 -0.4160  0.2760 -0.0510
  867MOL0     C16965  10.578  11.332   7.198  0.7473  0.1473  0.1840
  867MOL0     C16966  10.529  11.379   7.320 -0.8982  0.4258 -0.5789
  867MOL0     C16967  10.592  11.329   7.439  1.3832 -0.3808  0.1984
  867MOL0     C16968  10.686  11.221   7.437 -0.4237  0.4098 -1.0145
  867MOL0     O16969  10.752  11.168   7.553  0.5143 -0.9295  0.5364
  867MOL0     C16970  10.776  11.273   7.650  1.0030  0.4612 -0.8185
  867MOL0     C16971  10.907  11.248   7.724 -0.3107  0.0666 -0.4869
  867MOL0     C16972  11.028  11.260   7.623 -0.7825 -0.1947  0.2762
  867MOL0     C16973  11.154  11.241   7.712 -0.9947  0.3139 -0.6455
  867MOL0     C16974  11.169  11.104   7.758 -0.1730  0.5291 -0.2625
  867MOL0     C16975  11.176  10.992   7.804  0.4768 -0.5808 -0.8844
  867MOL0     C16976  10.718  11.165   7.307 -0.2374 -0.8872 -0.4511
  867MOL0     C16977  10.668  11.223   7.192 -0.2590 -0.0914 -0.5809
  867MOL0     H16978  10.231  11.624   7.130 -0.5788 -3.8040 -0.8185
  867MOL0     H16979  10.081  11.738   6.967  0.7587 -0.7647  2.6537
  867MOL0     H16980  10.182  11.838   6.575 -3.2330  4.2260 -0.8537
  867MOL0     H16981  10.127  11.674   6.515 -3.1451 -0.2462 -0.7872
  867MOL0     H16982   9.883  11.743   6.560 -3.0276  3.8674  4.0745
  867MOL0     H16983   9.935  11.904   6.594 -2.3911 -1.0440  0.4435
  867MOL0     H16984  10.011  11.938   6.374  0.1518  0.4451  4.7201
  867MOL0     H16985  10.005  11.766   6.324 -0.2167  0.7822 -2.1298
  867MOL0     H16986   9.763  11.758   6.317 -0.2206  0.3784 -2.3026
  867MOL0     H16987   9.755  11.915   6.388  0.1662 -0.8555  1.5485
  867MOL0     H16988   9.893  11.996   6.170 -1.1062  1.5025 -0.5230
  867MOL0     H16989   9.859  11.826   6.116  1.6756  1.2336  0.3412
  867MOL0     H16990   9.681  12.055   6.197  2.2235 -0.2745 -0.6711
  867MOL0     H16991   9.696  11.994   6.036 -1.7714  2.2159  0.5064
  867MOL0     H16992   9.557  11.808   6.061 -2.0794  0.7102 -0.6554
  867MOL0     H16993   9.569  11.803   6.240 -1.4655  1.1272  0.6881
  867MOL0     H16994   9.402  11.981   6.095 -0.6620  0.1841  0.6080
  867MOL0     H16995   9.429  12.012   6.273 -0.0618  2.8162 -2.0305
  867MOL0     H16996   9.392  11.782   6.441  2.9045 -0.4767 -2.0405
  867MOL0     H16997   9.117  11.524   6.450  2.9230 -0.4781 -1.3038
  867MOL0     H16998   9.218  11.608   6.566 -0.5430  1.1465  0.5132
  867MOL0     H16999   8.950  11.716   6.464  0.9035 -0.5206  0.0321
  867MOL0     H17000   9.053  11.791   6.589 -0.8828 -0.5481  1.8987
  867MOL0     H17001   9.018  11.558   6.707  1.5011 -0.1181 -1.7388
  867MOL0     H17002   8.880  11.553   6.584  2.4990  0.0863 -2.4303
  867MOL0     H17003   8.911  11.763   6.820 -2.6652  1.9483 -1.6104
  867MOL0     H17004   8.827  11.613   6.829  0.0513 -0.3586 -0.8772
  867MOL0     H17005   8.704  11.706   6.977  0.6094  0.4824  0.9077
  867MOL0     H17006   8.433  11.737   7.180 -0.0017 -0.6950  0.1464
  867MOL0     H17007   8.614  11.726   7.176  0.3945  0.4490  1.1363
  867MOL0     H17008   8.543  11.887   7.196  0.2744 -0.5216  0.9487
  867MOL0     H17009   8.136  12.221   6.807 -2.9164  2.6315  0.0339
  867MOL0     H17010   7.949  12.330   6.867  2.3561 -0.6173 -1.6008
  867MOL0     H17011   7.841  12.433   7.027  1.4292 -1.7973  0.7213
  867MOL0     H17012   7.674  12.425   7.104 -0.1665  1.1187  2.1347
  867MOL0     H17013   7.847  12.528   7.242  1.0436  0.1071 -4.4061
  867MOL0     H17014   7.738  12.414   7.309  1.4322  1.8109  3.4187
  867MOL0     H17015   8.014  12.378   7.211 -1.5648 -0.5898 -0.6476
  867MOL0     H17016   7.918  12.246   7.290  0.9544 -0.4979  0.9439
  867MOL0     H17017   8.062  12.498   7.396 -3.7795  2.4244  1.2425
  867MOL0     H17018   7.934  12.404   7.493 -0.9836  0.2418 -0.9677
  867MOL0     H17019   8.110  12.212   7.429  1.0306 -0.3701 -1.3414
  867MOL0     H17020   8.115  12.313   7.578 -0.1253 -1.1254 -1.1669
  867MOL0     H17021   8.257  12.375   7.326 -0.9925  2.1952  0.2522
  867MOL0     H17022   8.270  12.459   7.476 -0.0782  0.6552 -1.0703
  867MOL0     H17023   8.338  12.215   7.581  3.0254 -0.8145  0.6762
  867MOL0     H17024   8.456  12.312   7.512  0.4553 -0.3392  3.3134
  867MOL0     H17025   8.425  12.201   7.293 -0.5991  0.0683 -0.4496
  867MOL0     H17026   8.299  12.095   7.385 -0.2509 -0.4388  2.0760
  867MOL0     H17027   7.839  12.017   7.153  1.9661  0.6805  3.1200
  867MOL0     H17028   8.047  11.889   7.060 -2.7849 -2.1626  0.4239
  867MOL0     H17029   8.397  12.017   6.737  2.0627  1.9013 -0.4458
  867MOL0     H17030   8.576  11.902   6.616  0.4446 -3.0989 -0.6223
  867MOL0     H17031  10.281  11.546   6.634 -2.8438  1.7232 -0.4431
  867MOL0     H17032  10.448  11.463   6.796 -0.0667 -1.2373  2.3257
  867MOL0     H17033  10.463  11.465   7.325 -0.1665  0.9175  1.9124
  867MOL0     H17034  10.545  11.370   7.528  0.9336  0.9232 -0.6109
  867MOL0     H17035  10.797  11.364   7.593 -1.1450 -0.3261 -3.0178
  867MOL0     H17036  10.685  11.291   7.707 -0.6622  0.9860 -3.4694
  867MOL0     H17037  10.891  11.152   7.774  3.1795  0.2890  1.3512
  867MOL0     H17038  10.916  11.322   7.804  1.2111 -2.2191  1.5784
  867MOL0     H17039  11.025  11.364   7.588 -3.4129  0.0707  1.0331
  867MOL0     H17040  11.023  11.196   7.534 -2.6485 -1.1837  1.0215
  867MOL0     H17041  11.143  11.311   7.796 -1.8327 -0.2463 -0.2701
  867MOL0     H17042  11.245  11.272   7.660 -2.3613  1.0653 -2.6958
  867MOL0     H17043  11.196  10.890   7.826  3.3703 -0.1888 -1.3131
  867MOL0     H17044  10.798  11.092   7.298 -2.0050 -3.0311  0.2521
  867MOL0     H17045  10.708  11.198   7.095 -0.8246 -1.8311 -0.4072
  868MOL0     O17046   1.624   2.407   2.628 -0.6922  0.7009  0.1550
  868MOL0     C17047   1.672   2.311   2.689 -0.4633  0.9523  0.9491
  868MOL0     O17048   1.682   2.304   2.829 -0.2410 -0.1238  0.5231
  868MOL0     C17049   1.652   2.413   2.901 -0.0529 -0.0213 -0.2538
  868MOL0     C17050   1.538   2.489   2.887  0.4557 -0.1991 -0.0601
  868MOL0     C17051   1.518   2.606   2.964 -0.2663  1.1480  0.2199
  868MOL0     C17052   1.609   2.646   3.069 -0.3803 -0.3574 -0.6133
  868MOL0     O17053   1.574   2.757   3.148  0.0727  0.5788 -0.0570
  868MOL0     C17054   1.678   2.845   3.197  0.1721 -0.0082 -0.0453
  868MOL0     C17055   1.637   2.880   3.339 -0.4033  0.3104 -0.5831
  868MOL0     C17056   1.618   2.745   3.418  0.9371 -0.2046 -0.5645
  868MOL0     C17057   1.546   2.768   3.558  0.2827 -0.0121 -0.7724
  868MOL0     C17058   1.648   2.804   3.682 -0.8417  0.8938 -0.8931
  868MOL0     C17059   1.572   2.827   3.812  0.1041 -0.3238 -0.7435
  868MOL0     C17060   1.460   2.930   3.799  0.5556  0.9324  0.2272
  868MOL0     C17061   1.409   2.979   3.946  0.0279  0.0890 -0.2075
  868MOL0     N17062   1.311   3.082   3.924 -0.5068 -0.4121  0.3403
  868MOL0     C17063   1.203   3.075   3.850 -0.6879 -0.2405 -0.0452
  868MOL0     C17064   1.161   3.203   3.822 -0.1426 -1.1013  0.4419
  868MOL0     C17065   1.023   3.240   3.746  0.5329 -1.4517  0.3210
  868MOL0     C17066   0.907   3.242   3.839  0.2529  0.5776 -0.5656
  868MOL0     C17067   0.888   3.121   3.939 -1.2190 -0.6389 -0.4744
  868MOL0     C17068   0.949   3.135   4.078  0.8901  0.5106  0.0889
  868MOL0     O17069   0.951   3.011   4.138  0.9616  0.9258  0.0027
  868MOL0     C17070   0.991   3.032   4.265 -0.0399  0.2514 -0.2502
  868MOL0     C17071   1.120   3.023   4.307  0.2566 -0.1203 -0.0138
  868MOL0     C17072   1.155   3.014   4.442  0.1839 -0.0269  0.3933
  868MOL0     C17073   1.295   2.994   4.468 -0.3948 -0.5310 -0.0109
  868MOL0     C17074   1.059   3.027   4.546 -0.3396  0.3412 -0.3738
  868MOL0     C17075   1.079   3.000   4.697 -1.1310  0.1019 -0.1348
  868MOL0     O17076   1.194   2.939   4.730  0.4795 -1.0140  0.1595
  868MOL0     C17077   1.231   2.927   4.860  0.8223  0.1017  0.3061
  868MOL0     C17078   1.190   3.010   4.962  0.3028 -0.1294 -0.2022
  868MOL0     C17079   1.257   3.007   5.085 -0.4056  0.8550 -0.2946
  868MOL0     C17080   1.349   2.911   5.116 -0.0173  0.2033 -0.2534
  868MOL0     O17081   1.401   2.899   5.246  0.1962  1.0571  1.3422
  868MOL0     C17082   1.415   3.024   5.311  0.6821  0.3834  0.1234
  868MOL0     C17083   1.478   3.009   5.443 -0.3436 -0.0497  0.2209
  868MOL0     C17084   1.614   2.932   5.425  0.6994  0.4191  0.6626
  868MOL0     C17085   1.645   2.895   5.570  0.6391 -0.6520 -0.2103
  868MOL0     C17086   1.797   2.902   5.601 -0.5655  0.1583  0.3641
  868MOL0     C17087   1.831   3.047   5.628 -0.7746 -0.2284 -0.4444
  868MOL0     C17088   1.951   3.049   5.722 -0.6151  0.7040  0.4565
  868MOL0     C17089   2.081   2.981   5.675 -0.1724 -0.6108  0.1922
  868MOL0    Cl17090   2.131   3.056   5.525 -0.5684  0.4864  0.0440
  868MOL0     C17091   1.364   2.808   5.023 -0.2957  0.4905  0.0004
  868MOL0     C17092   1.305   2.819   4.899  0.1428  0.2126  0.5008
  868MOL0     O17093   0.992   3.052   4.769  0.5768 -0.2280  0.0817
  868MOL0     C17094   0.929   3.049   4.501  0.5962 -0.1230 -0.3488
  868MOL0     C17095   0.894   3.038   4.363  1.0822 -0.2083  0.2811
  868MOL0     N17096   1.249   3.280   3.893 -0.7585  0.1343  0.7809
  868MOL0     N17097   1.339   3.212   3.947  0.4119 -0.2079 -0.6718
  868MOL0     C17098   1.722   2.564   3.091 -0.2994 -0.7944 -0.1747
  868MOL0     C17099   1.734   2.444   3.014  0.0238 -0.2204 -0.1970
  868MOL0     C17100   1.697   2.198   2.593  0.3868 -0.5019 -0.2863
  868MOL0     C17101   1.693   2.065   2.642  0.8468 -1.1045 -0.5261
  868MOL0     C17102   1.727   1.956   2.563  1.4989 -0.3992  0.2184
  868MOL0     C17103   1.758   1.976   2.422  0.1817  1.6152 -0.5654
  868MOL0     O17104   1.778   1.866   2.341 -0.2585  0.2539  1.1808
  868MOL0     C17105   1.713   1.739   2.375 -0.1122 -0.5962  0.7038
  868MOL0     C17106   1.808   1.637   2.442  0.2235  0.5220 -0.1709
  868MOL0     C17107   1.736   1.502   2.482 -0.6933 -0.5475  0.3936
  868MOL0     C17108   1.822   1.402   2.560 -0.3105 -1.2832  0.3495
  868MOL0     C17109   1.943   1.373   2.490 -0.5911  0.1258  1.7593
  868MOL0     C17110   2.036   1.326   2.423  0.0839  0.2289 -0.6068
  868MOL0     C17111   1.764   2.104   2.374 -1.2745 -0.8713  0.1203
  868MOL0     C17112   1.727   2.215   2.458  0.4818  0.2233 -0.4308
  868MOL0     H17113   1.458   2.456   2.820  1.4985 -1.6717 -0.6331
  868MOL0     H17114   1.419   2.651   2.952 -1.5472 -1.6370 -0.6101
  868MOL0     H17115   1.772   2.790   3.200  0.3234  0.2713  2.6310
  868MOL0     H17116   1.683   2.945   3.152 -0.0345 -0.2947 -0.7215
  868MOL0     H17117   1.710   2.947   3.385 -1.2167  1.0507 -0.3324
  868MOL0     H17118   1.547   2.942   3.337 -0.8870  0.1054  4.1267
  868MOL0     H17119   1.553   2.684   3.354 -1.6918 -0.6187  2.2257
  868MOL0     H17120   1.714   2.697   3.438  0.5164  0.1990  3.1525
  868MOL0     H17121   1.472   2.847   3.544  0.7686  0.7603  0.8156
  868MOL0     H17122   1.481   2.684   3.584 -4.0477  3.0467 -0.5482
  868MOL0     H17123   1.713   2.716   3.684 -0.2122  1.3615 -0.2359
  868MOL0     H17124   1.709   2.888   3.647  0.3078 -0.1381 -1.4686
  868MOL0     H17125   1.538   2.731   3.850 -0.3603 -1.0692 -2.9196
  868MOL0     H17126   1.649   2.864   3.881 -0.7760  4.4811 -1.9655
  868MOL0     H17127   1.497   3.008   3.732  1.1611 -0.8933 -1.6730
  868MOL0     H17128   1.376   2.878   3.751 -0.3509  1.4754  1.1854
  868MOL0     H17129   1.492   3.018   4.004  0.6873  0.2033 -1.2002
  868MOL0     H17130   1.362   2.900   4.005  3.7859 -0.7641  1.8973
  868MOL0     H17131   1.170   2.974   3.826  2.3760 -0.5185 -4.2448
  868MOL0     H17132   1.047   3.332   3.692 -0.9503 -2.5867 -2.4849
  868MOL0     H17133   1.001   3.167   3.668  0.5998 -1.8352  0.6586
  868MOL0     H17134   0.815   3.259   3.783  2.0833  0.4313 -3.8207
  868MOL0     H17135   0.929   3.333   3.896 -1.1352  1.5241 -1.4932
  868MOL0     H17136   0.930   3.038   3.882  2.6771  1.3528 -0.8038
  868MOL0     H17137   0.779   3.112   3.943 -1.0746 -2.0314  2.6286
  868MOL0     H17138   0.891   3.203   4.142  0.0850  0.5907 -0.7150
  868MOL0     H17139   1.054   3.163   4.067  0.7337  0.5384 -1.4956
  868MOL0     H17140   1.198   3.023   4.233 -1.4840  0.2451 -1.9322
  868MOL0     H17141   1.332   3.073   4.533 -0.9249 -2.2870  2.6116
  868MOL0     H17142   1.310   2.907   4.533  0.9498  1.0041  1.8340
  868MOL0     H17143   1.363   2.991   4.382  2.7119 -0.2077  2.2731
  868MOL0     H17144   1.121   3.092   4.944 -1.9198 -1.9025 -0.3324
  868MOL0     H17145   1.215   3.067   5.165 -2.2155 -1.1203  0.3476
  868MOL0     H17146   1.480   3.087   5.249 -1.0667  1.4670 -0.6777
  868MOL0     H17147   1.327   3.085   5.331  1.1601  0.4722  2.2563
  868MOL0     H17148   1.487   3.110   5.483 -3.8874 -0.1310  1.6217
  868MOL0     H17149   1.408   2.962   5.512  1.9299 -1.0137  1.9880
  868MOL0     H17150   1.686   3.011   5.401 -0.1729  1.6251  1.8543
  868MOL0     H17151   1.634   2.846   5.360  0.8403  1.0141 -0.0958
  868MOL0     H17152   1.601   2.970   5.636  2.3806 -2.0514  2.7535
  868MOL0     H17153   1.609   2.797   5.602  2.9813 -1.7580 -0.7060
  868MOL0     H17154   1.854   2.861   5.517 -3.4597 -1.7933 -0.8128
  868MOL0     H17155   1.808   2.841   5.691  2.0794  2.5669  1.8448
  868MOL0     H17156   1.850   3.092   5.530  0.4926 -2.9818 -1.5661
  868MOL0     H17157   1.749   3.104   5.673  1.1924  2.6133 -0.1498
  868MOL0     H17158   1.933   2.994   5.815  1.3213 -1.5629 -0.4276
  868MOL0     H17159   1.970   3.156   5.734 -1.0684  0.6983  1.2967
  868MOL0     H17160   2.073   2.877   5.640  0.0969 -0.1744 -1.2556
  868MOL0     H17161   2.149   2.996   5.759 -2.9640  1.3729  2.2579
  868MOL0     H17162   1.420   2.718   5.043 -0.5376  0.0160 -1.4217
  868MOL0     H17163   1.351   2.747   4.831  1.0375 -3.0463  4.2077
  868MOL0     H17164   0.846   3.062   4.569 -1.0569  0.3966 -2.3451
  868MOL0     H17165   0.790   3.026   4.335  1.0734  0.9277 -0.2348
  868MOL0     H17166   1.778   2.573   3.184 -2.6917 -1.0164  1.3656
  868MOL0     H17167   1.813   2.378   3.047 -0.6439 -0.0246  1.9290
  868MOL0     H17168   1.682   2.042   2.748  0.4237  3.0550  0.5138
  868MOL0     H17169   1.705   1.856   2.598 -2.5256 -0.6589 -2.3638
  868MOL0     H17170   1.619   1.756   2.428 -0.2321  0.8498  0.0654
  868MOL0     H17171   1.677   1.689   2.285  1.9983 -2.5478  0.8575
  868MOL0     H17172   1.848   1.677   2.535  0.4527  1.1951 -0.5558
  868MOL0     H17173   1.889   1.617   2.371  1.6530 -1.4336  1.8350
  868MOL0     H17174   1.700   1.444   2.396 -0.5129 -1.1783  0.7372
  868MOL0     H17175   1.653   1.522   2.549  0.2602  1.2937  1.1011
  868MOL0     H17176   1.769   1.310   2.585 -2.0137 -0.7824 -1.2131
  868MOL0     H17177   1.863   1.453   2.648  1.3707  0.4187 -1.3126
  868MOL0     H17178   2.119   1.276   2.378 -0.3863 -0.1929 -1.0154
  868MOL0     H17179   1.780   2.114   2.267 -0.1687  1.8788  0.4781
  868MOL0     H17180   1.745   2.317   2.427  1.5792 -0.5378 -2.4668
  869MOL0     O17181   3.260  10.375   7.185  0.1498 -0.2320  0.0201
  869MOL0     C17182   3.301  10.273   7.234 -0.4398  1.0065  0.2718
  869MOL0     O17183   3.417  10.211   7.202 -0.2354 -0.2217 -0.0439
  869MOL0     C17184   3.508  10.265   7.117 -0.0982 -0.2648  0.4889
  869MOL0     C17185   3.548  10.401   7.100  0.1242 -0.5432 -0.4399
  869MOL0     C17186   3.656  10.433   7.017  0.2002 -0.1110 -0.4064
  869MOL0     C17187   3.729  10.335   6.953  0.3519 -0.1188  0.5610
  869MOL0     O17188   3.825  10.363   6.867 -0.4645  0.1604  0.6046
  869MOL0     C17189   3.821  10.467   6.765 -0.0319  1.3172 -0.0750
  869MOL0     C17190   3.785  10.404   6.625 -0.3776  0.6508  0.6162
  869MOL0     C17191   3.659  10.318   6.618 -0.1287 -0.4280  0.0202
  869MOL0     C17192   3.616  10.283   6.480 -0.2394  0.2071  1.3548
  869MOL0     C17193   3.472  10.224   6.484 -0.6790  0.4124  0.0116
  869MOL0     C17194   3.464  10.098   6.565 -0.0157 -0.0897 -0.2664
  869MOL0     C17195   3.306  10.071   6.578 -0.3758  0.9183 -0.2473
  869MOL0     C17196   3.255  10.108   6.727  1.5741  0.1426 -0.3192
  869MOL0     N17197   3.142  10.035   6.797  0.4877  0.3312 -0.1401
  869MOL0     C17198   3.018  10.020   6.735 -0.9203 -0.3962 -0.0109
  869MOL0     C17199   2.950   9.938   6.818  0.3254 -0.5029  0.7020
  869MOL0     C17200   2.797   9.915   6.828 -0.5486  0.7495 -0.2061
  869MOL0     C17201   2.751   9.793   6.742 -0.1671  0.9290  0.6243
  869MOL0     C17202   2.840   9.666   6.764 -0.0498 -0.5519  0.1733
  869MOL0     C17203   2.790   9.538   6.688 -0.1590  0.4560 -0.2463
  869MOL0     O17204   2.649   9.522   6.697  0.0519 -0.6878 -0.5287
  869MOL0     C17205   2.605   9.443   6.597 -1.2908 -0.2252 -0.0338
  869MOL0     C17206   2.638   9.304   6.594 -0.3433 -0.8686 -1.2276
  869MOL0     C17207   2.604   9.231   6.483 -0.2526 -0.7601 -0.6307
  869MOL0     C17208   2.661   9.086   6.488  0.6028 -0.8273 -1.1849
  869MOL0     C17209   2.534   9.294   6.376  0.2426  0.7348  0.7830
  869MOL0     C17210   2.505   9.223   6.242  0.7447  0.0716  0.1435
  869MOL0     O17211   2.546   9.096   6.232  0.4093 -0.1315  0.2078
  869MOL0     C17212   2.496   9.013   6.136 -0.2831  0.4582  0.2047
  869MOL0     C17213   2.581   8.944   6.048  0.6435 -0.7725  0.2823
  869MOL0     C17214   2.529   8.855   5.952 -0.3953 -0.3495 -0.1680
  869MOL0     C17215   2.388   8.837   5.939  0.5003  0.5553 -0.4305
  869MOL0     O17216   2.347   8.754   5.839 -0.0274  0.2792 -0.5973
  869MOL0     C17217   2.205   8.740   5.819  0.3871  0.6571  0.2030
  869MOL0     C17218   2.179   8.635   5.705 -0.2717 -0.5370 -0.0628
  869MOL0     C17219   2.240   8.667   5.568  0.5282 -0.1531 -0.6379
  869MOL0     C17220   2.201   8.548   5.475 -0.1146  0.2998  0.6452
  869MOL0     C17221   2.290   8.547   5.346 -0.0882 -0.0785 -0.8385
  869MOL0     C17222   2.442   8.519   5.377 -0.0851  0.1380 -0.1787
  869MOL0     C17223   2.526   8.608   5.277  0.0128  0.6150 -0.0580
  869MOL0     C17224   2.669   8.608   5.299 -0.3542 -0.4979  0.6519
  869MOL0    Cl17225   2.725   8.736   5.410  0.1753 -0.5068  0.1842
  869MOL0     C17226   2.300   8.912   6.023  0.1720  0.5659 -0.8082
  869MOL0     C17227   2.361   8.992   6.124  0.7532 -0.8444 -0.0624
  869MOL0     O17228   2.429   9.277   6.165 -0.6562 -0.2320  0.1768
  869MOL0     C17229   2.479   9.422   6.395 -0.0283  1.1836 -0.4222
  869MOL0     C17230   2.522   9.495   6.502  0.3814  1.0347  0.2772
  869MOL0     N17231   3.019   9.911   6.930 -0.3213 -0.8201  0.5586
  869MOL0     N17232   3.143   9.956   6.912 -0.6871  0.8157 -0.4952
  869MOL0     C17233   3.689  10.201   6.976  0.8512 -0.5537  0.6003
  869MOL0     C17234   3.579  10.168   7.052 -0.0077 -0.1488 -0.5225
  869MOL0     C17235   3.197  10.195   7.297 -0.5943 -0.5828  0.3850
  869MOL0     C17236   3.198  10.055   7.313 -0.1622  0.1028 -0.8959
  869MOL0     C17237   3.099   9.988   7.375  2.3847 -0.1081 -0.1582
  869MOL0     C17238   2.989  10.062   7.427  0.3966  0.6377  0.4652
  869MOL0     O17239   2.893   9.983   7.471 -0.1715 -0.1224 -0.2790
  869MOL0     C17240   2.765  10.007   7.403  0.5463  0.8716 -0.0239
  869MOL0     C17241   2.746   9.892   7.292  0.6576 -1.0133 -0.2089
  869MOL0     C17242   2.602   9.896   7.253  0.2899 -0.3598  0.3792
  869MOL0     C17243   2.563   9.810   7.141  1.0182  0.3878  1.2061
  869MOL0     C17244   2.641   9.678   7.126  0.1191 -1.2505 -0.0492
  869MOL0     C17245   2.716   9.585   7.149 -0.0430  0.1767 -0.8582
  869MOL0     C17246   2.992  10.200   7.419  0.1513 -0.5991 -0.1577
  869MOL0     C17247   3.092  10.271   7.347  0.7625  0.0338 -0.8435
  869MOL0     H17248   3.508  10.487   7.153  2.0493  2.5971 -3.6561
  869MOL0     H17249   3.692  10.536   7.016  0.5899 -0.2016  1.0974
  869MOL0     H17250   3.745  10.544   6.779  0.8463  2.1239  0.3686
  869MOL0     H17251   3.917  10.521   6.764  1.2013 -0.6359  2.0750
  869MOL0     H17252   3.778  10.493   6.562 -2.0808  0.7424  0.8970
  869MOL0     H17253   3.869  10.349   6.583  0.0909  3.2499 -2.2316
  869MOL0     H17254   3.676  10.229   6.678 -2.0376 -1.6303 -1.1290
  869MOL0     H17255   3.581  10.383   6.658 -1.0593  0.3680 -2.8665
  869MOL0     H17256   3.614  10.368   6.411  3.5632 -0.7794 -0.2314
  869MOL0     H17257   3.689  10.217   6.432 -2.1606  0.0640 -1.6753
  869MOL0     H17258   3.420  10.306   6.533  0.4404  1.1630 -0.0081
  869MOL0     H17259   3.423  10.208   6.388 -2.4780 -1.9009  1.2171
  869MOL0     H17260   3.510  10.008   6.523 -2.2277 -2.2712  1.6497
  869MOL0     H17261   3.502  10.114   6.666 -1.2738 -2.6169  0.7111
  869MOL0     H17262   3.246  10.128   6.506  0.5765 -0.8796 -2.6252
  869MOL0     H17263   3.308   9.964   6.553  3.2741  0.2064  2.2847
  869MOL0     H17264   3.212  10.209   6.726 -1.0027 -0.7747  2.6389
  869MOL0     H17265   3.337  10.090   6.797 -0.4384 -1.2032  1.7956
  869MOL0     H17266   2.981  10.076   6.650  1.2441  4.8464  2.1202
  869MOL0     H17267   2.780   9.898   6.934  1.9985  2.9347  0.6771
  869MOL0     H17268   2.739  10.000   6.790  1.3730  2.0690 -0.3408
  869MOL0     H17269   2.763   9.813   6.635 -0.1888 -0.7783  0.2800
  869MOL0     H17270   2.644   9.774   6.755 -0.4777  0.9244 -1.5556
  869MOL0     H17271   2.832   9.624   6.865  3.9242 -0.9672  0.4769
  869MOL0     H17272   2.945   9.693   6.749 -0.6860  2.3408  0.3712
  869MOL0     H17273   2.835   9.454   6.742  1.2111  1.5347  0.3468
  869MOL0     H17274   2.828   9.552   6.587 -0.0480  0.2387 -0.2360
  869MOL0     H17275   2.688   9.254   6.677 -2.7457  1.9580  2.2234
  869MOL0     H17276   2.592   9.015   6.443  1.2849 -2.7296  0.6240
  869MOL0     H17277   2.760   9.079   6.442  2.4920 -2.7221  2.6784
  869MOL0     H17278   2.691   9.063   6.591 -0.1703 -1.6586 -1.1314
  869MOL0     H17279   2.687   8.965   6.044 -0.0841  3.8305 -0.4961
  869MOL0     H17280   2.598   8.807   5.884  3.0130  2.5079  0.9537
  869MOL0     H17281   2.161   8.701   5.911  1.1670 -1.6566 -0.3171
  869MOL0     H17282   2.159   8.835   5.793 -1.0444  0.6989  2.5801
  869MOL0     H17283   2.230   8.546   5.742 -0.9717 -1.6175 -1.5786
  869MOL0     H17284   2.071   8.620   5.694 -0.4971  0.8634 -0.0296
  869MOL0     H17285   2.349   8.668   5.577  0.7134  0.2426 -2.5140
  869MOL0     H17286   2.205   8.762   5.526 -0.9394  0.9316  2.6960
  869MOL0     H17287   2.217   8.457   5.534 -2.2556  0.9325  2.3346
  869MOL0     H17288   2.094   8.543   5.455 -0.4209 -1.5650  2.3589
  869MOL0     H17289   2.262   8.645   5.307 -2.8433  1.3135  3.8413
  869MOL0     H17290   2.249   8.469   5.282 -0.8728  0.4648 -0.9996
  869MOL0     H17291   2.482   8.534   5.478  1.3291 -1.5786 -0.4255
  869MOL0     H17292   2.464   8.416   5.349  0.6306  0.5410 -1.1873
  869MOL0     H17293   2.487   8.709   5.269  1.2483  0.9680 -3.5268
  869MOL0     H17294   2.508   8.583   5.172 -0.3677 -0.2933  0.2126
  869MOL0     H17295   2.719   8.634   5.205  2.9350  0.5671  2.5414
  869MOL0     H17296   2.706   8.512   5.336 -0.5827  1.5325  7.4152
  869MOL0     H17297   2.191   8.913   6.020  0.1920  1.0841 -1.6699
  869MOL0     H17298   2.295   9.040   6.196 -0.2596 -2.2109 -0.0394
  869MOL0     H17299   2.423   9.484   6.325 -0.7068  3.5219  1.9696
  869MOL0     H17300   2.485   9.596   6.516 -1.2195  0.1972  2.7395
  869MOL0     H17301   3.731  10.133   6.903  0.0193 -3.5321  2.6934
  869MOL0     H17302   3.530  10.072   7.040 -0.7526  0.3340 -1.4225
  869MOL0     H17303   3.286  10.003   7.275  1.2307  0.0519  2.1124
  869MOL0     H17304   3.094   9.881   7.388 -1.0949  0.0747  1.0055
  869MOL0     H17305   2.690   9.989   7.481 -0.3901 -0.4354 -1.1659
  869MOL0     H17306   2.755  10.107   7.361 -0.4172  0.9299  0.3166
  869MOL0     H17307   2.789   9.799   7.331  2.4304  0.3521  1.2446
  869MOL0     H17308   2.815   9.912   7.210  3.2748  1.3215  2.3624
  869MOL0     H17309   2.591   9.999   7.217  0.2593 -0.7460 -0.7424
  869MOL0     H17310   2.519   9.894   7.325 -1.1680 -3.2616 -1.1737
  869MOL0     H17311   2.550   9.872   7.052  0.2744 -0.0420  1.0114
  869MOL0     H17312   2.459   9.785   7.164  0.6615  2.3870  1.9625
  869MOL0     H17313   2.788   9.506   7.149  0.9063  0.9049  2.0378
  869MOL0     H17314   2.913  10.252   7.472  0.8625  1.9968 -1.4440
  869MOL0     H17315   3.098  10.379   7.356  3.6003 -0.1253  0.0831
  870MOL0     O17316   2.088   9.340  10.037  0.9946 -0.1148  0.6340
  870MOL0     C17317   2.000   9.298  10.115  0.2365  1.2401  0.8283
  870MOL0     O17318   1.903   9.208  10.081 -0.0059  0.5780  0.1677
  870MOL0     C17319   1.908   9.127   9.973  0.3500 -0.3244 -0.2163
  870MOL0     C17320   1.883   9.183   9.840  0.6264  0.7966  0.6985
  870MOL0     C17321   1.854   9.092   9.730 -0.2881 -0.0157 -1.4411
  870MOL0     C17322   1.878   8.956   9.754  0.0370 -0.8111  0.1416
  870MOL0     O17323   1.872   8.862   9.655  0.0520 -0.0562  0.2026
  870MOL0     C17324   1.911   8.896   9.519  0.9512  0.8442 -0.9680
  870MOL0     C17325   1.985   8.774   9.464  0.3816  0.2309 -0.8014
  870MOL0     C17326   2.135   8.790   9.502  0.5889  0.6695  0.3858
  870MOL0     C17327   2.207   8.670   9.441 -0.2226  0.5706  0.3985
  870MOL0     C17328   2.354   8.689   9.433  0.2097  0.1909  0.1869
  870MOL0     C17329   2.438   8.574   9.376  0.5687 -0.0488 -0.5877
  870MOL0     C17330   2.398   8.435   9.434 -0.1911 -0.5717  0.3392
  870MOL0     C17331   2.421   8.418   9.585 -0.2824 -0.2834  0.0305
  870MOL0     N17332   2.560   8.452   9.641 -0.4332  0.1363  0.3608
  870MOL0     C17333   2.641   8.361   9.700 -0.6799  0.2483 -0.2488
  870MOL0     C17334   2.746   8.434   9.740  0.6760  0.0989  0.9544
  870MOL0     C17335   2.870   8.364   9.790  0.4819  0.1058  0.0693
  870MOL0     C17336   2.987   8.396   9.690 -0.1018  0.2468 -0.1829
  870MOL0     C17337   2.961   8.355   9.547  1.1238 -0.2141 -0.6383
  870MOL0     C17338   3.082   8.284   9.494  0.4449 -0.6396 -0.4520
  870MOL0     O17339   3.033   8.213   9.381 -0.2066 -0.5810  0.3286
  870MOL0     C17340   3.124   8.168   9.286  0.2754 -0.3939  0.5486
  870MOL0     C17341   3.254   8.125   9.317  0.2705  0.3537  0.4111
  870MOL0     C17342   3.331   8.075   9.208  0.6204  0.1172 -1.6054
  870MOL0     C17343   3.472   8.037   9.232  0.4459  0.4439 -0.4832
  870MOL0     C17344   3.276   8.072   9.075 -0.5520 -0.5674  0.3853
  870MOL0     C17345   3.342   8.018   8.952  1.2698  0.1715  0.1336
  870MOL0     O17346   3.355   8.085   8.831  0.0402  0.4834  0.6558
  870MOL0     C17347   3.428   8.024   8.736  0.2171  0.2320  0.7440
  870MOL0     C17348   3.381   7.914   8.666  0.3362 -0.0023 -0.0218
  870MOL0     C17349   3.454   7.861   8.554  0.1525 -0.4035  0.3189
  870MOL0     C17350   3.580   7.916   8.518  0.4356 -0.4197  0.0598
  870MOL0     O17351   3.649   7.852   8.416 -0.3865 -0.0868 -0.3234
  870MOL0     C17352   3.794   7.890   8.378  1.1454 -0.8687 -0.5260
  870MOL0     C17353   3.897   7.808   8.450 -0.3009 -0.4488 -0.1304
  870MOL0     C17354   4.037   7.881   8.460  0.5963  0.3579  1.1400
  870MOL0     C17355   4.058   7.947   8.597  0.2207  0.0202  0.4133
  870MOL0     C17356   4.171   8.054   8.607  0.1108  0.5539 -0.7001
  870MOL0     C17357   4.309   7.979   8.597  0.7731 -0.6446  0.2948
  870MOL0     C17358   4.416   8.086   8.555 -0.6243  0.0545  0.0948
  870MOL0     C17359   4.550   8.016   8.512  1.4012 -0.4680  0.1058
  870MOL0    Cl17360   4.528   7.927   8.361  0.1733  0.3713  0.0430
  870MOL0     C17361   3.627   8.028   8.599  1.2334 -0.8944  0.7285
  870MOL0     C17362   3.542   8.093   8.695 -0.7400  0.2211 -0.1797
  870MOL0     O17363   3.394   7.914   8.983 -0.2873  0.2510  0.3511
  870MOL0     C17364   3.152   8.125   9.046 -0.2412  0.0677  0.0778
  870MOL0     C17365   3.068   8.163   9.160 -0.2746 -0.2910 -0.0281
  870MOL0     N17366   2.721   8.567   9.721 -0.2784  0.3250 -0.7745
  870MOL0     N17367   2.606   8.578   9.668  0.5236 -0.4983 -1.0469
  870MOL0     C17368   1.925   8.908   9.874 -0.1830  0.6590  0.3973
  870MOL0     C17369   1.931   8.988   9.991 -0.1644 -0.6522  0.3158
  870MOL0     C17370   2.004   9.343  10.252  0.3579  0.1463  0.7089
  870MOL0     C17371   1.911   9.298  10.355 -0.1536  0.1918 -0.8199
  870MOL0     C17372   1.915   9.334  10.485  0.6161 -0.5216  0.2511
  870MOL0     C17373   2.021   9.411  10.531 -0.5606  0.2532  0.9034
  870MOL0     O17374   2.047   9.439  10.662  0.2576  0.5237 -0.3400
  870MOL0     C17375   2.145   9.350  10.722  0.7719  1.0862  0.3692
  870MOL0     C17376   2.080   9.217  10.752  0.7409  0.1883 -0.0340
  870MOL0     C17377   2.181   9.146  10.842  0.0662 -1.1855 -0.8601
  870MOL0     C17378   2.141   8.999  10.867  0.6079 -0.4528  0.2877
  870MOL0     C17379   2.242   8.945  10.956  0.2744  0.4051  0.4144
  870MOL0     C17380   2.339   8.924  11.031  0.5232  0.9315  0.5436
  870MOL0     C17381   2.104   9.469  10.434 -0.5358 -0.6314 -0.9157
  870MOL0     C17382   2.096   9.436  10.299  0.4076  0.1262  0.8927
  870MOL0     H17383   1.850   9.287   9.835 -3.3447 -0.3448 -0.0069
  870MOL0     H17384   1.827   9.128   9.631 -5.8755 -3.8493 -1.8056
  870MOL0     H17385   1.830   8.921   9.451 -0.9970 -1.9725  0.1270
  870MOL0     H17386   1.977   8.983   9.529  0.7875  0.7825  1.3353
  870MOL0     H17387   1.936   8.688   9.510  1.3185  0.6268  1.0164
  870MOL0     H17388   1.967   8.770   9.356 -1.6251  2.4353 -0.6344
  870MOL0     H17389   2.172   8.881   9.454 -0.9284  0.5581 -1.1015
  870MOL0     H17390   2.141   8.793   9.611 -0.9650  0.9759  0.4859
  870MOL0     H17391   2.169   8.581   9.492  0.8450 -1.3965 -2.0144
  870MOL0     H17392   2.180   8.655   9.336  0.0568 -2.1096  0.6291
  870MOL0     H17393   2.372   8.774   9.367  1.2715  0.7918  1.2154
  870MOL0     H17394   2.385   8.706   9.537 -0.3614 -2.8910  0.9742
  870MOL0     H17395   2.406   8.572   9.272  1.4277 -1.5062 -0.8548
  870MOL0     H17396   2.547   8.587   9.376  0.6546 -0.4731  1.3546
  870MOL0     H17397   2.295   8.416   9.403  0.5914  0.1344 -3.1721
  870MOL0     H17398   2.461   8.360   9.385 -2.1551 -3.1594  1.5445
  870MOL0     H17399   2.391   8.318   9.618 -1.2774 -0.0733 -0.2173
  870MOL0     H17400   2.347   8.488   9.626 -0.2463 -0.4697  0.4252
  870MOL0     H17401   2.622   8.255   9.685 -0.3213  0.2566 -0.7606
  870MOL0     H17402   2.888   8.410   9.888 -1.3177  0.7030  0.1575
  870MOL0     H17403   2.861   8.256   9.804 -0.9666  0.2861  0.7455
  870MOL0     H17404   3.087   8.370   9.727 -0.0446  3.0790  2.0432
  870MOL0     H17405   2.983   8.506   9.686 -3.4955  0.1940 -1.4620
  870MOL0     H17406   2.934   8.439   9.483 -2.8465 -2.7768 -2.7356
  870MOL0     H17407   2.873   8.291   9.547 -0.4649  1.8781 -1.3837
  870MOL0     H17408   3.131   8.215   9.563 -1.9174  0.5765  2.6389
  870MOL0     H17409   3.145   8.367   9.460 -1.7155  1.0903 -0.4265
  870MOL0     H17410   3.300   8.129   9.416  1.8540 -0.9949 -0.2277
  870MOL0     H17411   3.535   8.104   9.174 -0.6021 -0.8896 -3.3594
  870MOL0     H17412   3.504   8.049   9.336 -0.0166  3.9128 -0.6255
  870MOL0     H17413   3.497   7.934   9.204 -0.2429  0.1941 -0.2192
  870MOL0     H17414   3.291   7.861   8.696  1.5761 -1.5531  1.1400
  870MOL0     H17415   3.407   7.784   8.494 -1.7405  1.1149 -0.2806
  870MOL0     H17416   3.797   7.884   8.269 -3.3998  4.9711 -1.4502
  870MOL0     H17417   3.817   7.994   8.403 -4.0437 -0.2402  3.1300
  870MOL0     H17418   3.866   7.798   8.555 -2.4561  2.3897 -0.3850
  870MOL0     H17419   3.908   7.712   8.397 -0.8948 -1.0444  0.7922
  870MOL0     H17420   4.056   7.955   8.381  1.0046 -1.6312 -0.6977
  870MOL0     H17421   4.110   7.802   8.441  1.9346  1.7247  0.3981
  870MOL0     H17422   3.965   7.991   8.634  0.2998 -0.5241  1.2800
  870MOL0     H17423   4.057   7.877   8.681 -3.4344  0.5272  0.9857
  870MOL0     H17424   4.151   8.113   8.698  2.2885 -0.1816  0.3199
  870MOL0     H17425   4.156   8.115   8.518 -3.0486 -2.7725 -2.7300
  870MOL0     H17426   4.335   7.928   8.690 -2.6027  2.8772  3.5405
  870MOL0     H17427   4.301   7.913   8.510 -0.6147  1.9349 -1.7057
  870MOL0     H17428   4.444   8.151   8.638  1.6081 -1.8116  0.9346
  870MOL0     H17429   4.387   8.143   8.467  0.1818 -1.3037 -1.1030
  870MOL0     H17430   4.591   7.951   8.590  3.1473  0.2859 -0.1539
  870MOL0     H17431   4.617   8.101   8.507  0.5725  0.1612 -0.8700
  870MOL0     H17432   3.724   8.073   8.580 -0.9289  3.8751 -0.3571
  870MOL0     H17433   3.579   8.175   8.755  0.6151 -1.7489  1.8099
  870MOL0     H17434   3.129   8.133   8.940  2.5315  1.8475 -0.4786
  870MOL0     H17435   2.969   8.206   9.151 -0.6302 -1.3480 -1.7293
  870MOL0     H17436   1.966   8.810   9.896  0.1202  0.9324  1.0628
  870MOL0     H17437   1.953   8.941  10.086 -2.5782 -0.8182  0.8526
  870MOL0     H17438   1.825   9.243  10.319 -2.0978  0.8310  2.4311
  870MOL0     H17439   1.843   9.302  10.561 -0.6938  1.2139 -0.1802
  870MOL0     H17440   2.230   9.349  10.653 -0.3436  0.6605 -1.0495
  870MOL0     H17441   2.174   9.382  10.823 -2.6536 -2.7560  2.9041
  870MOL0     H17442   2.074   9.157  10.660 -0.3053  2.3239 -1.4476
  870MOL0     H17443   1.983   9.233  10.800  1.3908  4.7363  0.1982
  870MOL0     H17444   2.204   9.204  10.932  4.6884 -0.5710 -2.1577
  870MOL0     H17445   2.275   9.130  10.789  0.4568 -3.7255  0.4626
  870MOL0     H17446   2.148   8.948  10.771 -0.7382 -1.7762  0.8538
  870MOL0     H17447   2.043   8.988  10.915 -0.5448 -1.2306 -2.0809
  870MOL0     H17448   2.422   8.900  11.095 -0.7082 -0.8878  1.5459
  870MOL0     H17449   2.178   9.540  10.471  0.4376 -2.1401  0.1321
  870MOL0     H17450   2.161   9.484  10.228 -1.5200 -0.1106 -1.1357
  871MOL0     O17451   9.420   1.379   1.116 -0.4784  0.1639 -0.7334
  871MOL0     C17452   9.320   1.369   1.189  0.1736 -0.1543  0.4572
  871MOL0     O17453   9.297   1.441   1.307  0.7332  0.2511  0.4316
  871MOL0     C17454   9.396   1.512   1.372 -0.9992  0.0644  0.0858
  871MOL0     C17455   9.354   1.638   1.404  0.2329  0.7641 -1.0440
  871MOL0     C17456   9.449   1.736   1.437  0.1394  0.1194  0.3778
  871MOL0     C17457   9.585   1.708   1.451  0.1337  0.1454 -0.7059
  871MOL0     O17458   9.665   1.815   1.503  0.5797  0.1574  0.2285
  871MOL0     C17459   9.806   1.788   1.512  0.9659  0.5877  0.4249
  871MOL0     C17460   9.860   1.803   1.370  0.7689  0.7244  0.2230
  871MOL0     C17461  10.001   1.849   1.349  0.3294 -0.6400  0.3815
  871MOL0     C17462  10.005   2.008   1.363  0.8306  0.5320  0.7004
  871MOL0     C17463  10.138   2.075   1.375  0.3474  0.3943 -0.2434
  871MOL0     C17464  10.241   2.037   1.278 -0.2350 -0.5334  0.8100
  871MOL0     C17465  10.188   2.036   1.124  0.3628  0.1946  0.1550
  871MOL0     C17466  10.106   2.154   1.075 -0.1507  0.1671  0.2043
  871MOL0     N17467  10.197   2.252   1.027  0.2163  0.8599 -0.1893
  871MOL0     C17468  10.285   2.252   0.915 -0.2703  0.6438 -0.7305
  871MOL0     C17469  10.375   2.357   0.929  0.9277  0.4034  0.1168
  871MOL0     C17470  10.452   2.410   0.820 -0.1325  0.6709 -0.5173
  871MOL0     C17471  10.356   2.457   0.706  0.4922 -0.3643  0.1581
  871MOL0     C17472  10.417   2.542   0.593 -0.6020 -0.7793 -0.0207
  871MOL0     C17473  10.525   2.467   0.519  0.7215 -0.2068 -0.0616
  871MOL0     O17474  10.649   2.458   0.598  0.2941  0.3344 -0.1874
  871MOL0     C17475  10.728   2.573   0.615 -0.5559  1.3847  0.2630
  871MOL0     C17476  10.800   2.574   0.732  0.6086 -0.1489 -0.5143
  871MOL0     C17477  10.902   2.673   0.746  0.4169 -0.0916  0.1393
  871MOL0     C17478  10.972   2.654   0.881  0.4292  0.6327  0.0511
  871MOL0     C17479  10.923   2.777   0.651  0.5473  0.4991 -0.1819
  871MOL0     C17480  11.035   2.875   0.667  0.0848 -0.5424  1.1939
  871MOL0     O17481  11.052   2.915   0.796 -0.4117 -0.1833 -0.2261
  871MOL0     C17482  11.156   3.004   0.822 -0.2480  0.8437 -0.4182
  871MOL0     C17483  11.247   2.957   0.917  0.5403  0.5412  0.1573
  871MOL0     C17484  11.343   3.045   0.962  0.6752  0.6046  0.2769
  871MOL0     C17485  11.348   3.178   0.919  0.6114 -0.1816  0.9714
  871MOL0     O17486  11.435   3.277   0.949 -0.6243  0.1189 -0.1285
  871MOL0     C17487  11.567   3.249   0.979  0.2711 -0.3625  0.4492
  871MOL0     C17488  11.661   3.363   0.940 -0.1625  0.3138 -0.0403
  871MOL0     C17489  11.798   3.364   1.013 -0.3725  0.6746 -0.4822
  871MOL0     C17490  11.797   3.398   1.159 -0.0891 -0.4561 -0.3419
  871MOL0     C17491  11.717   3.532   1.189  0.4721 -0.4819  0.5365
  871MOL0     C17492  11.714   3.560   1.342  0.1131  0.3948 -0.2174
  871MOL0     C17493  11.647   3.701   1.373 -0.8861  0.9119 -0.1418
  871MOL0     C17494  11.750   3.816   1.400  0.3430  0.9087 -0.4878
  871MOL0    Cl17495  11.834   3.853   1.244  0.0700 -0.3561  0.1149
  871MOL0     C17496  11.253   3.225   0.827 -0.2621 -0.1204  0.3469
  871MOL0     C17497  11.157   3.135   0.781 -0.2007  1.1660 -0.0387
  871MOL0     O17498  11.094   2.913   0.566 -0.2140  0.5697 -0.3863
  871MOL0     C17499  10.838   2.777   0.533  0.7761  0.2007  0.6483
  871MOL0     C17500  10.743   2.675   0.515  0.8652  0.2421 -0.5596
  871MOL0     N17501  10.334   2.421   1.038  0.9357  0.5529  0.2585
  871MOL0     N17502  10.228   2.359   1.092 -0.2405 -0.4517  1.0152
  871MOL0     C17503   9.620   1.572   1.430  0.4564 -0.1536 -0.5325
  871MOL0     C17504   9.527   1.479   1.383  0.5861  0.6335  0.8686
  871MOL0     C17505   9.227   1.269   1.143 -0.4402  0.4325  0.1631
  871MOL0     C17506   9.157   1.189   1.231 -0.8142 -0.0507 -0.5314
  871MOL0     C17507   9.055   1.106   1.191  0.8187 -0.5344 -0.9199
  871MOL0     C17508   9.025   1.092   1.054  0.5776 -0.4969 -0.6597
  871MOL0     O17509   8.922   1.004   1.038  0.1592  0.1236  0.4181
  871MOL0     C17510   8.884   0.966   0.907  0.8822  0.4072 -0.8738
  871MOL0     C17511   8.806   1.082   0.841  0.6930  0.9480 -0.6187
  871MOL0     C17512   8.770   1.052   0.697  0.6797  0.2987  0.0680
  871MOL0     C17513   8.679   1.168   0.644  0.8405 -0.5045  0.5503
  871MOL0     C17514   8.675   1.137   0.500 -0.1862 -1.4283  0.3396
  871MOL0     C17515   8.667   1.130   0.381  0.0363  0.7717  0.0587
  871MOL0     C17516   9.101   1.171   0.955 -0.5840 -0.6369 -0.0499
  871MOL0     C17517   9.202   1.260   1.002  0.1935  0.7873 -0.5942
  871MOL0     H17518   9.249   1.661   1.388 -0.6661 -2.0098  0.3449
  871MOL0     H17519   9.428   1.842   1.442 -0.5973  0.1178 -1.8502
  871MOL0     H17520   9.832   1.872   1.578  1.4847  1.8571 -1.3201
  871MOL0     H17521   9.828   1.687   1.548  1.0620  0.4787  0.0692
  871MOL0     H17522   9.842   1.710   1.315  1.0722  2.4092 -2.9167
  871MOL0     H17523   9.797   1.873   1.314  0.6750 -1.2309 -2.2558
  871MOL0     H17524  10.069   1.803   1.422 -0.0033 -0.7418  0.6310
  871MOL0     H17525  10.023   1.814   1.248  3.0776 -0.6273  0.9053
  871MOL0     H17526   9.944   2.047   1.282 -2.6043  0.1720  2.8818
  871MOL0     H17527   9.955   2.053   1.449 -0.6202  0.2265  0.0446
  871MOL0     H17528  10.123   2.184   1.370 -1.2811  0.1575 -1.9760
  871MOL0     H17529  10.180   2.045   1.471 -2.4313 -1.6219  0.4794
  871MOL0     H17530  10.317   2.115   1.278 -0.4255  0.1474 -5.1345
  871MOL0     H17531  10.279   1.944   1.322 -0.5487  0.3223  3.0101
  871MOL0     H17532  10.275   2.032   1.058 -0.1168 -1.7607 -0.4353
  871MOL0     H17533  10.136   1.944   1.095  0.9338  0.4247 -1.7026
  871MOL0     H17534  10.047   2.201   1.154  1.2432  3.5072 -0.5715
  871MOL0     H17535  10.040   2.129   0.991 -0.7540  1.6585  0.2020
  871MOL0     H17536  10.293   2.175   0.839 -0.2553  1.9943 -2.1427
  871MOL0     H17537  10.515   2.485   0.868  1.5012 -0.6487 -0.4996
  871MOL0     H17538  10.518   2.331   0.783  2.0170  0.6471  2.8943
  871MOL0     H17539  10.282   2.530   0.738  1.2534  0.1097  0.8534
  871MOL0     H17540  10.309   2.371   0.656  3.5331 -1.1858 -1.5577
  871MOL0     H17541  10.465   2.624   0.647 -1.5943 -0.9055  1.0778
  871MOL0     H17542  10.355   2.603   0.526  1.9747  0.1673 -1.7393
  871MOL0     H17543  10.538   2.517   0.423  1.2272 -1.6955 -0.8071
  871MOL0     H17544  10.472   2.374   0.494  1.3258 -0.6225  0.1811
  871MOL0     H17545  10.781   2.499   0.808  0.6967 -0.5146 -0.8447
  871MOL0     H17546  11.081   2.652   0.879  0.5107  2.5304  0.5623
  871MOL0     H17547  10.946   2.743   0.940 -0.9187  1.1500 -1.2481
  871MOL0     H17548  10.929   2.566   0.928 -1.4709  1.7382  0.5343
  871MOL0     H17549  11.241   2.854   0.952  0.5597  0.1733 -0.8632
  871MOL0     H17550  11.424   3.008   1.024 -0.0841  2.0906  2.2603
  871MOL0     H17551  11.577   3.237   1.088  2.2397 -1.3635  0.1958
  871MOL0     H17552  11.605   3.159   0.931  1.7508  0.2002  0.5265
  871MOL0     H17553  11.678   3.364   0.832  5.3982  4.2547  0.4427
  871MOL0     H17554  11.614   3.462   0.947 -2.2952 -0.6770  0.4313
  871MOL0     H17555  11.870   3.426   0.958 -0.5355 -1.7626 -3.7413
  871MOL0     H17556  11.838   3.262   1.013 -1.7113  0.0771  1.7402
  871MOL0     H17557  11.747   3.309   1.200 -1.2760 -0.8513 -2.4883
  871MOL0     H17558  11.897   3.405   1.203 -1.9366  0.7114  4.3813
  871MOL0     H17559  11.612   3.527   1.160  0.5114  1.0409  0.0607
  871MOL0     H17560  11.763   3.613   1.132 -0.3812 -0.4546 -0.1237
  871MOL0     H17561  11.647   3.487   1.389  0.7818 -0.7897 -1.0364
  871MOL0     H17562  11.815   3.532   1.374  0.8109 -0.1369 -2.6847
  871MOL0     H17563  11.589   3.684   1.464  3.5875  1.1805  3.0286
  871MOL0     H17564  11.576   3.736   1.297 -4.5720 -0.6395  2.2558
  871MOL0     H17565  11.821   3.790   1.479  0.8600 -0.3947 -1.3405
  871MOL0     H17566  11.705   3.910   1.433  0.5116  0.9025 -0.2400
  871MOL0     H17567  11.264   3.327   0.793  0.4639 -0.3610 -0.1736
  871MOL0     H17568  11.081   3.165   0.710  0.3195 -2.0965 -2.1731
  871MOL0     H17569  10.845   2.866   0.473 -2.0590 -1.8436 -3.1308
  871MOL0     H17570  10.672   2.687   0.434  1.0366 -2.3115 -1.1808
  871MOL0     H17571   9.726   1.547   1.435  1.2558  3.0403  0.9039
  871MOL0     H17572   9.550   1.378   1.351  0.8918  1.6385 -2.4029
  871MOL0     H17573   9.184   1.209   1.334 -0.3239 -1.8065 -0.2888
  871MOL0     H17574   8.994   1.058   1.267  2.7347 -0.2303  0.8887
  871MOL0     H17575   8.977   0.953   0.851 -0.0723 -0.1692 -2.3674
  871MOL0     H17576   8.821   0.877   0.909  0.8561  0.3399  2.9793
  871MOL0     H17577   8.861   1.176   0.851 -1.1352  1.8169  2.0472
  871MOL0     H17578   8.707   1.088   0.887  1.3963  0.2294  1.0754
  871MOL0     H17579   8.722   0.954   0.686  0.1562  0.6753 -1.1752
  871MOL0     H17580   8.868   1.044   0.648  0.2539 -0.4751 -0.6757
  871MOL0     H17581   8.724   1.266   0.659  0.0067  0.0361 -0.4181
  871MOL0     H17582   8.588   1.177   0.704  2.0147  1.8546  2.1076
  871MOL0     H17583   8.660   1.110   0.275 -1.3218 -1.4497  0.5046
  871MOL0     H17584   9.077   1.173   0.850  1.1314  1.8275 -0.4969
  871MOL0     H17585   9.241   1.328   0.926  0.7587 -0.7104 -1.6929
  872MOL0     O17586   3.664  10.814   5.242  0.2210 -0.6367 -0.1454
  872MOL0     C17587   3.781  10.799   5.286  0.2162  0.5552  0.8972
  872MOL0     O17588   3.838  10.671   5.306 -1.0164 -0.9726  0.5600
  872MOL0     C17589   3.776  10.561   5.254  1.0026 -1.0742 -0.2334
  872MOL0     C17590   3.869  10.482   5.185 -1.0554 -0.2259  0.4615
  872MOL0     C17591   3.836  10.369   5.107  0.3592 -0.8203 -0.1018
  872MOL0     C17592   3.701  10.330   5.110 -0.1783 -0.3357  0.1752
  872MOL0     O17593   3.645  10.221   5.046 -0.4078 -0.8917 -1.0333
  872MOL0     C17594   3.715  10.174   4.934  0.3281 -0.4385 -0.2750
  872MOL0     C17595   3.622  10.084   4.847  0.3628 -0.8426 -0.2354
  872MOL0     C17596   3.605   9.949   4.912  0.6535  0.3971  0.7144
  872MOL0     C17597   3.509   9.844   4.836  0.7157 -0.6762 -0.9369
  872MOL0     C17598   3.511   9.710   4.914  0.4659 -0.2818 -0.0814
  872MOL0     C17599   3.396   9.612   4.875  0.3221 -0.5600  1.1800
  872MOL0     C17600   3.424   9.471   4.928  0.4591 -0.0794 -0.2977
  872MOL0     C17601   3.460   9.445   5.081 -0.4599  0.0130  0.4394
  872MOL0     N17602   3.597   9.498   5.111 -0.2189 -0.3927  0.0828
  872MOL0     C17603   3.718   9.464   5.047  0.3442  0.8037 -0.0720
  872MOL0     C17604   3.804   9.555   5.091 -0.3165  0.7931 -0.4724
  872MOL0     C17605   3.949   9.559   5.040  0.1263  0.3983  0.4947
  872MOL0     C17606   4.060   9.606   5.141  0.2422  0.2140  0.1568
  872MOL0     C17607   4.195   9.642   5.074 -0.5024 -0.3866  0.5358
  872MOL0     C17608   4.291   9.687   5.183  0.8292 -0.6208 -0.8966
  872MOL0     O17609   4.429   9.642   5.163  0.2292 -0.6526 -0.2972
  872MOL0     C17610   4.455   9.507   5.151 -1.3018  0.3509  1.2537
  872MOL0     C17611   4.381   9.399   5.197 -0.5466  0.0821 -0.6832
  872MOL0     C17612   4.434   9.266   5.194  0.7183 -0.5393 -0.6702
  872MOL0     C17613   4.374   9.173   5.295  0.1860 -0.0260  0.6114
  872MOL0     C17614   4.547   9.242   5.116  0.2206 -0.1939 -0.4079
  872MOL0     C17615   4.595   9.108   5.080 -0.5726 -1.1416  0.6903
  872MOL0     O17616   4.706   9.096   4.989 -0.3813 -0.2413 -0.4012
  872MOL0     C17617   4.741   8.981   4.916 -0.4455  1.1064  0.2599
  872MOL0     C17618   4.859   8.995   4.846 -0.4735 -1.6465  1.9684
  872MOL0     C17619   4.909   8.886   4.777 -0.6965 -1.0961  0.0958
  872MOL0     C17620   4.844   8.773   4.764 -0.2390  0.4205  0.2110
  872MOL0     O17621   4.897   8.671   4.696  0.6306 -0.2692 -0.7282
  872MOL0     C17622   4.940   8.559   4.773 -0.6967 -0.1859  0.1791
  872MOL0     C17623   4.923   8.449   4.668 -0.4432  0.3504 -0.1230
  872MOL0     C17624   4.809   8.359   4.718 -0.3219  0.0923  0.4695
  872MOL0     C17625   4.773   8.249   4.616 -0.1456 -0.2226 -0.0296
  872MOL0     C17626   4.645   8.170   4.658 -0.2644  0.2402  0.7212
  872MOL0     C17627   4.624   8.050   4.561 -0.3923  0.1736 -0.2967
  872MOL0     C17628   4.510   7.957   4.615 -1.2064 -0.2722  0.3596
  872MOL0     C17629   4.452   7.877   4.505  0.0046 -0.3326 -0.1268
  872MOL0    Cl17630   4.591   7.797   4.428 -0.1419  0.0529 -0.2391
  872MOL0     C17631   4.725   8.751   4.836 -0.2957 -0.6909  0.2848
  872MOL0     C17632   4.675   8.853   4.919 -0.6026 -0.2344 -0.3473
  872MOL0     O17633   4.547   9.011   5.145  1.0090 -0.3087  0.1786
  872MOL0     C17634   4.613   9.347   5.059  0.3619 -1.0103 -0.3951
  872MOL0     C17635   4.572   9.481   5.079  0.4694  1.4555 -0.2548
  872MOL0     N17636   3.749   9.641   5.186  0.2451  0.3549  0.8536
  872MOL0     N17637   3.629   9.591   5.205 -0.2146 -0.7296 -0.6387
  872MOL0     C17638   3.614  10.403   5.191  0.1956  0.2608 -0.2922
  872MOL0     C17639   3.647  10.518   5.259 -0.2690 -1.1287 -0.4442
  872MOL0     C17640   3.868  10.916   5.314 -0.4790  0.0300 -0.4897
  872MOL0     C17641   4.012  10.914   5.335  0.3169  0.8247 -0.2464
  872MOL0     C17642   4.086  11.020   5.377 -0.4789  0.5852 -0.6628
  872MOL0     C17643   4.021  11.141   5.395 -0.1866 -1.2096 -0.2950
  872MOL0     O17644   4.094  11.255   5.430  0.6126  0.2227  0.0930
  872MOL0     C17645   4.026  11.363   5.495  1.0431 -0.1005 -0.0025
  872MOL0     C17646   4.131  11.436   5.589  0.1626 -0.5499  0.8599
  872MOL0     C17647   4.150  11.360   5.717  0.6376  0.1187  0.4521
  872MOL0     C17648   4.258  11.428   5.799  0.8628 -1.1305 -0.0287
  872MOL0     C17649   4.213  11.549   5.871 -0.3423 -0.2092  0.0626
  872MOL0     C17650   4.165  11.644   5.929 -0.3173 -0.1583  0.0494
  872MOL0     C17651   3.883  11.154   5.372  0.0080  1.0663  0.1527
  872MOL0     C17652   3.813  11.046   5.331  0.0513  0.2040  0.0752
  872MOL0     H17653   3.974  10.507   5.193  0.0960 -4.2152 -0.1080
  872MOL0     H17654   3.910  10.306   5.060  0.8529  0.1873 -0.7186
  872MOL0     H17655   3.745  10.259   4.872 -0.6985 -0.8731 -1.3921
  872MOL0     H17656   3.803  10.122   4.973  0.6134  2.3471  3.4163
  872MOL0     H17657   3.519  10.119   4.834  0.3870  0.0146  1.5950
  872MOL0     H17658   3.669  10.056   4.752 -2.4747 -3.9060 -0.9109
  872MOL0     H17659   3.707   9.912   4.924 -0.1847 -1.9859  1.2300
  872MOL0     H17660   3.576   9.944   5.017  0.9561  1.5111  0.8593
  872MOL0     H17661   3.406   9.882   4.828  0.4391 -1.5933 -1.8838
  872MOL0     H17662   3.539   9.810   4.737  3.1104  1.1492 -0.9051
  872MOL0     H17663   3.609   9.664   4.903  1.1134  1.3307 -1.3807
  872MOL0     H17664   3.496   9.728   5.021 -0.0702 -0.1883 -0.1684
  872MOL0     H17665   3.306   9.645   4.929 -1.2190  0.3515 -1.7053
  872MOL0     H17666   3.382   9.604   4.767  0.5068 -1.0227  1.1900
  872MOL0     H17667   3.332   9.418   4.900  1.5908 -0.5771 -3.3504
  872MOL0     H17668   3.494   9.405   4.877 -1.1526 -3.0087  1.0293
  872MOL0     H17669   3.458   9.338   5.102 -0.5391 -0.2519 -0.8304
  872MOL0     H17670   3.387   9.495   5.145 -1.1536  0.1989 -0.4727
  872MOL0     H17671   3.752   9.389   4.976 -2.2502 -0.3403 -0.2224
  872MOL0     H17672   3.977   9.459   5.005  0.6000 -0.0178  1.9737
  872MOL0     H17673   3.947   9.623   4.951 -2.6028  1.0167  0.9259
  872MOL0     H17674   4.071   9.520   5.207  0.4876 -1.1750 -1.6197
  872MOL0     H17675   4.034   9.701   5.189  0.2608  0.7723 -0.8869
  872MOL0     H17676   4.177   9.730   5.012  1.7736  4.0449  5.3569
  872MOL0     H17677   4.243   9.556   5.027  0.1225 -0.5795  1.5067
  872MOL0     H17678   4.261   9.636   5.275  1.1740 -2.6620 -1.8518
  872MOL0     H17679   4.306   9.793   5.201 -0.4094 -0.3011 -1.6437
  872MOL0     H17680   4.292   9.414   5.258  0.1345  0.5705  0.2141
  872MOL0     H17681   4.437   9.153   5.382  1.4960  0.9028 -0.0781
  872MOL0     H17682   4.288   9.222   5.341 -2.2315 -1.3377 -2.1331
  872MOL0     H17683   4.323   9.085   5.253 -2.5814  2.3224 -1.3487
  872MOL0     H17684   4.905   9.093   4.847 -0.8948 -1.2623 -1.4447
  872MOL0     H17685   5.011   8.888   4.738 -0.5207 -4.5171  0.0873
  872MOL0     H17686   5.044   8.565   4.806 -0.4202 -0.0450 -0.6765
  872MOL0     H17687   4.876   8.547   4.860  2.9576 -0.3701  3.0870
  872MOL0     H17688   4.909   8.472   4.562  0.2404 -1.5441 -0.6662
  872MOL0     H17689   5.018   8.394   4.668 -0.6059  0.0587 -0.8361
  872MOL0     H17690   4.735   8.438   4.737  0.8803  1.9934 -2.1067
  872MOL0     H17691   4.828   8.308   4.812  0.2880  0.1540  0.3793
  872MOL0     H17692   4.769   8.289   4.514  1.8117 -0.4072 -0.2059
  872MOL0     H17693   4.864   8.189   4.610  1.3856  1.9823  0.0802
  872MOL0     H17694   4.563   8.243   4.656 -1.1027 -0.6802  0.4971
  872MOL0     H17695   4.661   8.115   4.751 -2.0264  2.6753  2.5766
  872MOL0     H17696   4.615   8.070   4.454  1.0336 -4.6913 -1.6134
  872MOL0     H17697   4.721   8.001   4.577 -0.1287  0.5821 -0.6191
  872MOL0     H17698   4.427   8.019   4.651 -1.8862 -0.8971 -0.0837
  872MOL0     H17699   4.557   7.894   4.690  0.9166  3.6601  2.7053
  872MOL0     H17700   4.401   7.936   4.428  0.8153 -1.9178 -1.9896
  872MOL0     H17701   4.389   7.796   4.542  2.6743 -3.3326 -1.6261
  872MOL0     H17702   4.668   8.659   4.834  0.3525 -1.0929 -0.7929
  872MOL0     H17703   4.581   8.842   4.972 -2.5916  1.5786 -3.2234
  872MOL0     H17704   4.708   9.340   5.008  3.1734  0.7753  4.0338
  872MOL0     H17705   4.646   9.551   5.038  1.1913 -0.4774 -2.4795
  872MOL0     H17706   3.508  10.380   5.196 -1.3915  4.7884 -4.5781
  872MOL0     H17707   3.580  10.581   5.316  2.0053  1.5390 -0.4646
  872MOL0     H17708   4.084  10.833   5.323  1.0478  1.0399  2.1107
  872MOL0     H17709   4.195  11.017   5.377 -0.4474  0.1309  1.4259
  872MOL0     H17710   3.975  11.434   5.429  0.4426  1.6624  2.2248
  872MOL0     H17711   3.939  11.338   5.557  0.0661  0.8876 -0.9310
  872MOL0     H17712   4.102  11.537   5.622 -1.9719  0.2775 -2.9890
  872MOL0     H17713   4.220  11.444   5.525 -1.4359  0.6930 -1.3274
  872MOL0     H17714   4.190  11.260   5.700  0.3576 -0.2624  1.9154
  872MOL0     H17715   4.057  11.342   5.772 -0.2375 -2.7065 -1.6899
  872MOL0     H17716   4.344  11.443   5.733  1.3462 -2.5451  0.2415
  872MOL0     H17717   4.302  11.357   5.870 -0.6518 -4.8611 -2.4940
  872MOL0     H17718   4.102  11.723   5.966  0.4498  1.4009 -1.8272
  872MOL0     H17719   3.827  11.247   5.384 -1.8817  0.1012 -0.7729
  872MOL0     H17720   3.708  11.053   5.306  0.1149 -0.0199 -0.2637
  873MOL0     O17721   8.823  10.428   3.795 -0.0800  0.5988  0.2610
  873MOL0     C17722   8.825  10.507   3.887  0.4268 -0.3650 -0.2395
  873MOL0     O17723   8.740  10.621   3.896  0.4369 -0.0243 -0.2469
  873MOL0     C17724   8.680  10.655   3.781  1.2670  0.2638  0.8505
  873MOL0     C17725   8.670  10.794   3.734 -0.3674  1.0101  0.2664
  873MOL0     C17726   8.612  10.824   3.612 -0.1397 -0.2081  0.0479
  873MOL0     C17727   8.540  10.729   3.531 -0.5068  0.8661  0.0192
  873MOL0     O17728   8.490  10.747   3.411  0.7630 -0.0041  0.7345
  873MOL0     C17729   8.590  10.779   3.326 -0.2235 -0.3326  0.4815
  873MOL0     C17730   8.523  10.783   3.180  0.4844 -0.5246  0.9964
  873MOL0     C17731   8.442  10.916   3.167 -0.6364 -0.2884 -0.4780
  873MOL0     C17732   8.329  10.910   3.072 -0.3924  0.4211  0.2719
  873MOL0     C17733   8.239  11.034   3.100  0.3950 -0.2936  0.1841
  873MOL0     C17734   8.110  11.025   3.020  0.3225 -0.2931  0.0401
  873MOL0     C17735   7.992  11.117   3.076  0.1131  0.4004 -0.4286
  873MOL0     C17736   8.026  11.262   3.094 -0.1028  0.4673 -0.0953
  873MOL0     N17737   8.050  11.326   2.966 -0.6949 -0.3746  0.3665
  873MOL0     C17738   8.175  11.346   2.907 -0.6706  0.3805  0.6724
  873MOL0     C17739   8.139  11.395   2.781  0.3751  0.5461 -0.1483
  873MOL0     C17740   8.232  11.460   2.683 -0.0859  0.9658 -0.2871
  873MOL0     C17741   8.204  11.439   2.532 -0.3887  0.1773 -0.8373
  873MOL0     C17742   8.181  11.289   2.498 -0.0649 -0.2113  0.4527
  873MOL0     C17743   8.319  11.220   2.473  0.7448  0.7379 -0.8890
  873MOL0     O17744   8.386  11.195   2.595  0.2511 -0.2716  0.8226
  873MOL0     C17745   8.522  11.201   2.605  0.0054  0.6313  1.3913
  873MOL0     C17746   8.603  11.185   2.498  0.8175 -0.5328  0.1304
  873MOL0     C17747   8.741  11.183   2.516  0.0564 -0.0277  0.1971
  873MOL0     C17748   8.809  11.172   2.379  0.1846  0.1611 -0.9144
  873MOL0     C17749   8.804  11.194   2.646  0.6881  0.2333 -0.2611
  873MOL0     C17750   8.949  11.192   2.677 -0.4718 -1.0455  0.1498
  873MOL0     O17751   8.995  11.221   2.804  0.3338  0.3334  0.1213
  873MOL0     C17752   9.125  11.223   2.838 -0.6510  0.0650 -0.4620
  873MOL0     C17753   9.214  11.106   2.835 -0.1477 -0.2397  1.3620
  873MOL0     C17754   9.344  11.127   2.873 -0.3140 -0.2126  0.3664
  873MOL0     C17755   9.397  11.251   2.888  0.1212 -0.9181 -0.5990
  873MOL0     O17756   9.535  11.265   2.901  0.3663  0.3817 -0.5325
  873MOL0     C17757   9.586  11.213   3.018  0.1323  0.0503  0.4519
  873MOL0     C17758   9.724  11.282   3.051 -0.5501 -0.1052  0.0666
  873MOL0     C17759   9.737  11.424   2.989  0.0374  0.7827 -0.4970
  873MOL0     C17760   9.642  11.524   3.051  0.4960 -0.5068  0.2512
  873MOL0     C17761   9.689  11.669   3.043  0.1549 -0.5309 -1.4126
  873MOL0     C17762   9.600  11.765   3.145  0.7113  0.7240  0.0345
  873MOL0     C17763   9.628  11.914   3.121  0.3562 -0.6764 -0.6187
  873MOL0     C17764   9.715  11.964   3.239 -0.5801 -0.4250  0.0350
  873MOL0    Cl17765   9.710  12.135   3.257 -0.2305 -0.2641 -0.0833
  873MOL0     C17766   9.316  11.361   2.901  0.8203 -0.5222 -0.5531
  873MOL0     C17767   9.182  11.348   2.877  0.5991  0.3569 -0.5059
  873MOL0     O17768   9.021  11.151   2.581 -0.3770 -0.2807  0.6430
  873MOL0     C17769   8.717  11.225   2.754 -0.1231 -0.0021 -0.3422
  873MOL0     C17770   8.575  11.219   2.734 -0.2777  0.3963  0.0019
  873MOL0     N17771   7.998  11.418   2.780  0.5093 -0.6777  0.6554
  873MOL0     N17772   7.954  11.372   2.879 -0.5332  1.3896 -0.8675
  873MOL0     C17773   8.525  10.599   3.582 -0.6398 -0.1549  0.1903
  873MOL0     C17774   8.584  10.572   3.713  0.3829  0.0718  0.0114
  873MOL0     C17775   8.891  10.471   4.012 -0.4791  0.2234  0.1353
  873MOL0     C17776   8.969  10.358   4.013  0.3517  0.0396 -0.6967
  873MOL0     C17777   9.034  10.313   4.132  0.0369  0.1147 -0.2155
  873MOL0     C17778   9.032  10.392   4.249 -0.5145  1.3267  0.0192
  873MOL0     O17779   9.071  10.341   4.369  0.2094  0.5005 -0.2614
  873MOL0     C17780   9.135  10.433   4.467 -0.3614 -0.2110  0.2963
  873MOL0     C17781   9.232  10.350   4.538  0.0793  0.6015 -0.8020
  873MOL0     C17782   9.332  10.429   4.634  0.8915  0.9642  0.4660
  873MOL0     C17783   9.446  10.482   4.541  0.1937  1.4136 -0.1697
  873MOL0     C17784   9.519  10.578   4.614  0.4740  0.3074  0.3867
  873MOL0     C17785   9.585  10.673   4.647 -0.8089  0.4859 -0.1507
  873MOL0     C17786   8.972  10.516   4.235  0.2948  0.4714 -0.6730
  873MOL0     C17787   8.899  10.552   4.123 -0.2457  0.2581 -0.0579
  873MOL0     H17788   8.720  10.872   3.790  1.3745  0.1730 -0.0360
  873MOL0     H17789   8.608  10.923   3.566  2.4669 -0.5229 -1.0048
  873MOL0     H17790   8.635  10.876   3.349 -3.3584  1.4132 -0.1413
  873MOL0     H17791   8.660  10.696   3.315 -1.2318 -1.1917  0.3919
  873MOL0     H17792   8.589  10.786   3.093 -0.2753 -0.5706  0.4100
  873MOL0     H17793   8.465  10.693   3.156 -1.1776  0.1838  2.1886
  873MOL0     H17794   8.393  10.920   3.265  2.7926 -1.5173  1.4393
  873MOL0     H17795   8.507  10.999   3.141 -0.0846  0.0655  1.7864
  873MOL0     H17796   8.360  10.904   2.968 -2.3793 -1.8353 -0.3037
  873MOL0     H17797   8.272  10.820   3.098 -0.0194  0.8760  2.9272
  873MOL0     H17798   8.210  11.046   3.204 -0.3992  0.2593 -0.0945
  873MOL0     H17799   8.287  11.124   3.060 -3.2023  1.0827 -1.4055
  873MOL0     H17800   8.125  11.048   2.914 -1.9332  1.4447  0.0337
  873MOL0     H17801   8.078  10.922   3.032  2.1272 -1.1296 -1.6621
  873MOL0     H17802   7.903  11.125   3.013  0.8917  3.9574 -1.2745
  873MOL0     H17803   7.974  11.071   3.174 -2.7316 -0.0302 -1.0480
  873MOL0     H17804   8.119  11.282   3.147  2.1997 -1.1350 -3.2286
  873MOL0     H17805   7.947  11.312   3.152 -0.1530 -0.8867  1.0713
  873MOL0     H17806   8.270  11.324   2.954 -0.4345 -2.3803 -0.8950
  873MOL0     H17807   8.248  11.567   2.696 -5.3489  2.3230 -2.3492
  873MOL0     H17808   8.326  11.417   2.718 -0.0857 -1.3040 -2.8152
  873MOL0     H17809   8.294  11.461   2.475 -0.1066 -1.8947 -1.2950
  873MOL0     H17810   8.120  11.490   2.484 -0.9372  0.2161  0.1355
  873MOL0     H17811   8.125  11.278   2.404 -1.2695 -1.1754  1.2660
  873MOL0     H17812   8.124  11.244   2.579 -2.9311  4.5418  1.4924
  873MOL0     H17813   8.368  11.278   2.395 -1.7000  1.5453 -1.9246
  873MOL0     H17814   8.286  11.124   2.433 -1.3096  1.8909 -2.1123
  873MOL0     H17815   8.559  11.172   2.400 -0.9858 -1.9457  1.0478
  873MOL0     H17816   8.841  11.068   2.364  1.9794  0.6792 -0.9099
  873MOL0     H17817   8.745  11.209   2.298 -0.0483  0.6758 -0.4958
  873MOL0     H17818   8.901  11.231   2.390  2.7081 -3.4790 -0.6209
  873MOL0     H17819   9.152  11.021   2.810 -0.8295  0.4589  0.5725
  873MOL0     H17820   9.398  11.032   2.877 -2.4296 -1.5094 -0.0346
  873MOL0     H17821   9.517  11.213   3.103  3.9080 -0.3967  3.8312
  873MOL0     H17822   9.600  11.107   2.998 -0.3912 -0.0064  0.3706
  873MOL0     H17823   9.737  11.278   3.160 -0.5552 -1.8151  0.0336
  873MOL0     H17824   9.807  11.227   3.006 -2.1199 -0.4225 -2.6327
  873MOL0     H17825   9.735  11.423   2.879  1.2446 -1.6419 -0.5711
  873MOL0     H17826   9.842  11.454   3.002 -0.0275  1.7462 -1.9344
  873MOL0     H17827   9.543  11.502   3.009  1.1742 -0.4684 -1.4341
  873MOL0     H17828   9.630  11.496   3.156 -2.8967 -0.3118  0.0401
  873MOL0     H17829   9.687  11.715   2.943  1.2821 -1.0373 -1.6799
  873MOL0     H17830   9.796  11.680   3.062 -0.0283  2.3510 -1.5805
  873MOL0     H17831   9.495  11.739   3.128  0.6530  2.1058 -2.0306
  873MOL0     H17832   9.619  11.745   3.251  0.6964 -0.0180 -0.0948
  873MOL0     H17833   9.534  11.968   3.106  0.6497  0.2726  0.7458
  873MOL0     H17834   9.678  11.934   3.026  0.2665  1.7280 -0.2362
  873MOL0     H17835   9.817  11.925   3.235 -0.5781 -0.3978 -0.1477
  873MOL0     H17836   9.674  11.914   3.328 -2.2878  0.3809 -0.2599
  873MOL0     H17837   9.348  11.455   2.943 -1.6918 -0.0591  0.5365
  873MOL0     H17838   9.115  11.433   2.871 -1.3626 -1.1165 -0.4611
  873MOL0     H17839   8.763  11.252   2.848  3.8778 -0.9967 -1.8123
  873MOL0     H17840   8.508  11.241   2.817  3.3233  4.1638  2.3081
  873MOL0     H17841   8.452  10.533   3.538 -1.3212  0.4224  0.4457
  873MOL0     H17842   8.563  10.473   3.751  3.0822 -0.5321  0.1047
  873MOL0     H17843   8.995  10.290   3.933  4.1833 -0.1978  0.5813
  873MOL0     H17844   9.075  10.212   4.129 -2.6936 -1.1708  1.7116
  873MOL0     H17845   9.181  10.515   4.410 -2.5815  0.1054 -1.2039
  873MOL0     H17846   9.058  10.467   4.537 -0.2685 -1.4730  1.0430
  873MOL0     H17847   9.282  10.289   4.462 -2.0717 -2.1484 -0.1706
  873MOL0     H17848   9.185  10.280   4.607  5.2940 -0.3284  2.3457
  873MOL0     H17849   9.375  10.365   4.712  1.3326  0.6455 -0.0346
  873MOL0     H17850   9.283  10.510   4.689  4.3798  2.0161  2.3356
  873MOL0     H17851   9.401  10.524   4.451  0.0341  2.4027  0.3630
  873MOL0     H17852   9.506  10.394   4.515 -1.1693  0.5360 -0.4460
  873MOL0     H17853   9.628  10.767   4.676 -1.9005  1.3794 -1.3393
  873MOL0     H17854   8.965  10.565   4.331  2.2059 -3.0907  1.5081
  873MOL0     H17855   8.845  10.646   4.111 -0.2896  0.2699  0.2250
  874MOL0     O17856   5.727   2.190   8.592  0.1364 -0.4187 -0.2647
  874MOL0     C17857   5.760   2.078   8.630 -0.1823  0.3096 -0.3252
  874MOL0     O17858   5.805   1.975   8.558 -0.0908  0.1165 -0.0975
  874MOL0     C17859   5.784   1.995   8.424  0.0652  0.1349  0.7416
  874MOL0     C17860   5.666   2.033   8.355  0.2523 -0.9780 -0.4194
  874MOL0     C17861   5.660   2.051   8.217 -0.0273  0.0850 -0.6321
  874MOL0     C17862   5.777   2.030   8.139  0.0579  0.3447  0.1691
  874MOL0     O17863   5.790   2.039   8.000 -0.0422  0.4259  0.5728
  874MOL0     C17864   5.860   1.936   7.930  0.9891  0.6235  0.5488
  874MOL0     C17865   5.822   1.957   7.784 -0.2130  0.6387 -0.4724
  874MOL0     C17866   5.838   2.106   7.737 -0.4983  1.0754  0.3722
  874MOL0     C17867   5.910   2.117   7.606  0.4355 -0.0042 -0.3762
  874MOL0     C17868   5.920   2.267   7.554  0.5486  0.7075 -0.3146
  874MOL0     C17869   5.943   2.262   7.403  0.2738 -0.1721 -0.2582
  874MOL0     C17870   5.826   2.226   7.306  0.1414  1.0090 -1.1312
  874MOL0     C17871   5.708   2.330   7.316  0.8246  1.8334  0.3052
  874MOL0     N17872   5.579   2.254   7.348  0.6423 -0.2168 -0.0207
  874MOL0     C17873   5.546   2.191   7.457  0.4267  0.5940 -1.0515
  874MOL0     C17874   5.439   2.116   7.422 -0.2235 -0.0143  0.2917
  874MOL0     C17875   5.376   1.996   7.496 -0.7575 -0.9002  0.3541
  874MOL0     C17876   5.437   1.972   7.633 -0.2877  0.2797  0.9393
  874MOL0     C17877   5.402   2.077   7.740 -0.3477  0.4155 -0.1218
  874MOL0     C17878   5.400   2.022   7.887  0.1490 -0.7322  0.2181
  874MOL0     O17879   5.302   1.916   7.891  0.2928 -0.7881  0.2687
  874MOL0     C17880   5.279   1.855   8.016  0.4589  0.1679  0.7250
  874MOL0     C17881   5.204   1.733   8.017 -0.1239 -0.1700  0.0121
  874MOL0     C17882   5.181   1.650   8.123  0.5525 -0.8681 -0.2323
  874MOL0     C17883   5.114   1.527   8.092 -0.9476  0.2744 -0.2266
  874MOL0     C17884   5.217   1.697   8.251 -0.0712 -0.1568  0.8684
  874MOL0     C17885   5.201   1.623   8.383 -0.4600 -0.0775  0.0164
  874MOL0     O17886   5.233   1.684   8.495  0.1419  0.6943  0.3738
  874MOL0     C17887   5.196   1.623   8.620  0.3511 -1.3701  0.4737
  874MOL0     C17888   5.267   1.509   8.663 -0.1836 -0.1740  0.0400
  874MOL0     C17889   5.239   1.467   8.790  0.0378  0.2277 -0.7497
  874MOL0     C17890   5.148   1.536   8.874  0.0454 -0.9729 -0.4182
  874MOL0     O17891   5.118   1.486   9.001 -0.0620  1.0196  0.9036
  874MOL0     C17892   5.009   1.533   9.076  0.3163 -0.9414  1.1662
  874MOL0     C17893   4.995   1.444   9.203  0.2435 -0.5675  0.3471
  874MOL0     C17894   5.126   1.439   9.294 -0.2025  0.6621 -0.3776
  874MOL0     C17895   5.125   1.535   9.416  0.3695  0.4278  0.4621
  874MOL0     C17896   5.093   1.440   9.548  0.6292  0.3600  0.9069
  874MOL0     C17897   5.054   1.529   9.664 -0.0605 -0.0156  1.2268
  874MOL0     C17898   5.067   1.458   9.790 -0.6892  0.1744  0.2938
  874MOL0     C17899   5.054   1.547   9.910 -0.3891 -0.8305 -1.2921
  874MOL0    Cl17900   5.211   1.645   9.908 -0.2299  0.1895  0.0210
  874MOL0     C17901   5.088   1.655   8.825  0.8967 -0.3942  0.1522
  874MOL0     C17902   5.117   1.704   8.697  0.3037  0.5010 -0.3064
  874MOL0     O17903   5.167   1.503   8.381 -0.2505 -0.1528  0.0765
  874MOL0     C17904   5.283   1.823   8.259 -0.2834  0.0543 -1.0980
  874MOL0     C17905   5.321   1.898   8.139 -0.0293  0.4920 -0.4099
  874MOL0     N17906   5.394   2.161   7.291 -0.7712 -0.4112 -0.8390
  874MOL0     N17907   5.478   2.248   7.249  0.1887  0.1628  0.6144
  874MOL0     C17908   5.897   2.003   8.210 -0.4208 -0.4380 -0.2000
  874MOL0     C17909   5.901   1.975   8.350  0.1822  0.4045  0.4988
  874MOL0     C17910   5.786   2.058   8.779  0.0678  0.0416 -0.4506
  874MOL0     C17911   5.821   1.934   8.840  0.5613  0.1409 -0.2179
  874MOL0     C17912   5.819   1.908   8.976  0.2468 -0.0315 -0.0206
  874MOL0     C17913   5.790   2.010   9.072  0.6525  0.7000  0.5419
  874MOL0     O17914   5.780   1.995   9.207  1.1319 -0.2401  0.4022
  874MOL0     C17915   5.850   1.877   9.265  0.6192 -0.9651 -0.5323
  874MOL0     C17916   5.860   1.885   9.426  0.5356  0.2216  1.4871
  874MOL0     C17917   5.976   1.788   9.472  1.1628 -0.6876 -0.1644
  874MOL0     C17918   5.987   1.772   9.622 -0.3853  0.1287  0.0986
  874MOL0     C17919   6.038   1.904   9.681  0.8754  0.2336 -0.1503
  874MOL0     C17920   6.077   2.010   9.724 -0.0269 -1.0684 -0.2192
  874MOL0     C17921   5.755   2.136   9.017 -0.7040 -0.6216 -0.4918
  874MOL0     C17922   5.752   2.153   8.876 -0.0329 -0.3050  0.4977
  874MOL0     H17923   5.575   2.037   8.415 -0.9804 -0.5556 -2.2350
  874MOL0     H17924   5.560   2.074   8.179 -0.7987  1.6866  2.0493
  874MOL0     H17925   5.969   1.925   7.935  0.8415 -0.5326  2.1018
  874MOL0     H17926   5.823   1.838   7.961  3.1036  0.0337  1.3489
  874MOL0     H17927   5.894   1.897   7.729  0.6291  0.1813  1.0639
  874MOL0     H17928   5.722   1.919   7.761 -0.7836 -0.8174  3.4708
  874MOL0     H17929   5.741   2.153   7.722 -0.5906  0.5894 -0.5589
  874MOL0     H17930   5.892   2.160   7.816  1.7290  1.6106 -1.4205
  874MOL0     H17931   6.010   2.074   7.615 -0.2642 -1.2850  2.2019
  874MOL0     H17932   5.842   2.058   7.544 -1.2039  2.1928 -0.8049
  874MOL0     H17933   5.826   2.321   7.564  0.5161  0.5462  0.2698
  874MOL0     H17934   6.002   2.322   7.601  0.5289  2.4049 -2.1119
  874MOL0     H17935   5.993   2.351   7.362  0.1765 -0.6431 -1.4188
  874MOL0     H17936   6.015   2.181   7.388 -1.0599 -1.0993 -2.0091
  874MOL0     H17937   5.873   2.223   7.207 -0.2910  2.7849 -1.4189
  874MOL0     H17938   5.781   2.127   7.319 -2.6344  2.2600 -0.4830
  874MOL0     H17939   5.694   2.367   7.214 -1.5005  1.6114  0.4841
  874MOL0     H17940   5.742   2.411   7.381 -1.1739  2.3523  0.7663
  874MOL0     H17941   5.597   2.181   7.553 -1.8848 -1.3335  0.0767
  874MOL0     H17942   5.267   2.002   7.493 -0.7419 -0.3395 -2.6969
  874MOL0     H17943   5.399   1.907   7.436  0.6643 -1.5581  1.7895
  874MOL0     H17944   5.545   1.981   7.618 -0.1674 -2.0157 -0.1307
  874MOL0     H17945   5.411   1.869   7.659 -1.3168  0.0829 -0.7185
  874MOL0     H17946   5.302   2.120   7.736 -0.9117 -0.5684  1.9419
  874MOL0     H17947   5.479   2.155   7.740 -1.2168  1.2782  0.1795
  874MOL0     H17948   5.367   2.100   7.956 -2.4856 -1.2891 -0.3099
  874MOL0     H17949   5.506   1.999   7.903  0.8098  0.4049 -2.2158
  874MOL0     H17950   5.190   1.695   7.916  2.5577 -2.5785  0.4029
  874MOL0     H17951   5.076   1.529   7.989 -0.5485 -0.8422 -0.4061
  874MOL0     H17952   5.185   1.444   8.097  0.9513  1.9043  1.0182
  874MOL0     H17953   5.029   1.502   8.157  0.5209 -0.7134  1.3986
  874MOL0     H17954   5.339   1.457   8.601 -1.3929  0.6772 -2.1941
  874MOL0     H17955   5.278   1.367   8.809 -0.9413 -0.0316  0.0085
  874MOL0     H17956   5.036   1.635   9.105 -0.5830 -1.4545  4.2107
  874MOL0     H17957   4.915   1.527   9.021 -0.9242  0.4795  3.0007
  874MOL0     H17958   4.923   1.503   9.260  0.7661  0.1190  0.3052
  874MOL0     H17959   4.955   1.344   9.183 -3.2604  0.7512  0.1325
  874MOL0     H17960   5.221   1.451   9.240  0.1829  1.0554  0.3668
  874MOL0     H17961   5.127   1.336   9.331  0.2333  0.5580 -0.6641
  874MOL0     H17962   5.216   1.595   9.420 -0.8674  2.6259 -1.7167
  874MOL0     H17963   5.039   1.602   9.405  0.5979  0.3907 -2.0306
  874MOL0     H17964   5.179   1.373   9.562 -1.4945 -2.5668  0.8736
  874MOL0     H17965   5.010   1.371   9.527  2.2723 -0.8483 -2.3941
  874MOL0     H17966   5.121   1.615   9.657 -0.5110  0.2420  0.0370
  874MOL0     H17967   4.954   1.564   9.638  0.0779  0.8732  1.8445
  874MOL0     H17968   5.162   1.406   9.803 -0.8912 -0.5480 -1.0028
  874MOL0     H17969   4.994   1.378   9.800 -0.7103 -1.1596 -6.3991
  874MOL0     H17970   5.055   1.492  10.004  4.2421  0.5689 -0.2595
  874MOL0     H17971   4.960   1.603   9.902 -1.1913 -1.8436  0.5946
  874MOL0     H17972   5.013   1.708   8.883  2.1443  0.2438  1.2186
  874MOL0     H17973   5.074   1.800   8.673 -1.6154 -0.4164 -0.7491
  874MOL0     H17974   5.318   1.861   8.355 -0.2552  1.1012 -1.5074
  874MOL0     H17975   5.366   1.996   8.147 -1.7167  1.3905 -1.3402
  874MOL0     H17976   5.995   1.990   8.165  0.6629 -1.0558  2.1721
  874MOL0     H17977   5.999   1.956   8.393  1.4158  2.4054 -1.2250
  874MOL0     H17978   5.841   1.854   8.769  1.5032 -0.3845  0.6249
  874MOL0     H17979   5.836   1.806   9.008 -1.6097  0.8767  4.6252
  874MOL0     H17980   5.804   1.786   9.226  1.9208 -0.5467 -3.2834
  874MOL0     H17981   5.953   1.882   9.226  0.7693  2.1737 -0.0170
  874MOL0     H17982   5.775   1.837   9.474  0.5258 -1.0982  0.2235
  874MOL0     H17983   5.885   1.986   9.460 -0.5847  1.5161 -1.2307
  874MOL0     H17984   6.069   1.834   9.437 -0.0097  2.0366  0.0231
  874MOL0     H17985   5.956   1.684   9.443  1.2392 -0.6851 -0.2270
  874MOL0     H17986   6.060   1.694   9.642 -2.1401 -1.2636  1.4585
  874MOL0     H17987   5.895   1.739   9.673  0.0897 -1.7238 -0.1752
  874MOL0     H17988   6.105   2.103   9.769  2.1500 -1.9917  0.4828
  874MOL0     H17989   5.718   2.215   9.081 -1.2079 -1.2290 -0.0270
  874MOL0     H17990   5.720   2.254   8.852  1.9031  0.4885  1.0767
  875MOL0     O17991   2.351  11.121   0.966 -0.3134 -0.7270  0.5744
  875MOL0     C17992   2.421  11.030   0.912  0.7792 -0.3872 -0.1502
  875MOL0     O17993   2.396  10.962   0.798 -0.1608 -0.3995  0.2967
  875MOL0     C17994   2.295  11.003   0.714 -0.0056  0.4341  0.3326
  875MOL0     C17995   2.233  10.903   0.642  0.1949 -0.4297 -0.4264
  875MOL0     C17996   2.130  10.926   0.551  0.3906  0.8051  0.4934
  875MOL0     C17997   2.077  11.058   0.539 -0.1095  0.8721  0.7904
  875MOL0     O17998   1.965  11.091   0.464 -0.1043 -0.6609 -0.8972
  875MOL0     C17999   1.865  10.989   0.431  0.0001  0.4675 -0.1962
  875MOL0     C18000   1.787  10.949   0.557 -0.3077 -0.1349 -0.2259
  875MOL0     C18001   1.732  11.071   0.636  0.1419  0.0196  0.8679
  875MOL0     C18002   1.611  11.036   0.718  0.4596 -0.0493 -0.3405
  875MOL0     C18003   1.553  11.153   0.806 -0.3937 -0.0937 -0.9925
  875MOL0     C18004   1.474  11.091   0.931 -0.0008 -0.6963 -0.0868
  875MOL0     C18005   1.453  11.187   1.054  0.8470 -0.4368  0.2747
  875MOL0     C18006   1.385  11.124   1.174  0.0667 -1.5276 -0.7555
  875MOL0     N18007   1.459  11.010   1.221  0.0910  0.6148 -0.9662
  875MOL0     C18008   1.574  11.018   1.291 -0.1315  0.8934 -0.2952
  875MOL0     C18009   1.634  10.892   1.277  0.2931 -0.3027  0.4028
  875MOL0     C18010   1.761  10.845   1.335 -0.1982 -0.2276 -0.0830
  875MOL0     C18011   1.754  10.766   1.461 -0.1727  0.6512  0.9427
  875MOL0     C18012   1.896  10.717   1.515 -0.3836 -0.1882 -0.3319
  875MOL0     C18013   1.884  10.662   1.650  0.2590 -0.0445 -1.2352
  875MOL0     O18014   1.889  10.770   1.743 -0.5762  0.9673 -0.0294
  875MOL0     C18015   1.810  10.772   1.859 -0.0060  0.2818 -0.2747
  875MOL0     C18016   1.676  10.829   1.861  0.3112 -0.4128 -0.8628
  875MOL0     C18017   1.610  10.840   1.991 -0.0631  1.0119 -0.2866
  875MOL0     C18018   1.488  10.928   2.012 -0.0257 -0.1069 -0.1627
  875MOL0     C18019   1.670  10.774   2.105 -0.0519  0.3210 -0.6641
  875MOL0     C18020   1.596  10.770   2.236  0.6927 -0.6375 -0.2932
  875MOL0     O18021   1.621  10.659   2.313  1.0738 -0.6159 -0.9817
  875MOL0     C18022   1.598  10.675   2.447  0.4028 -0.2654  0.1918
  875MOL0     C18023   1.677  10.740   2.543  0.5516  0.1908  0.0589
  875MOL0     C18024   1.658  10.722   2.681 -0.8913  0.5434  1.0451
  875MOL0     C18025   1.548  10.641   2.725  0.1351 -0.4824 -0.3103
  875MOL0     O18026   1.532  10.628   2.856 -0.6979 -0.2670  0.5085
  875MOL0     C18027   1.488  10.744   2.920  0.4984  0.3249 -1.1781
  875MOL0     C18028   1.464  10.703   3.069 -0.6609  0.2502 -0.2631
  875MOL0     C18029   1.477  10.819   3.164  0.6738 -0.1614 -0.0541
  875MOL0     C18030   1.451  10.784   3.315 -0.3921  0.3199 -0.3457
  875MOL0     C18031   1.524  10.888   3.406  0.3256 -0.5973 -0.3726
  875MOL0     C18032   1.485  10.872   3.557  0.3219  0.1013  0.4398
  875MOL0     C18033   1.551  10.985   3.643  0.1911 -0.4246 -0.7748
  875MOL0     C18034   1.454  11.102   3.689 -0.1691 -0.6619  0.0431
  875MOL0    Cl18035   1.344  11.063   3.826  0.3030 -0.3999 -0.5323
  875MOL0     C18036   1.467  10.581   2.630 -0.7210 -0.1649 -0.0351
  875MOL0     C18037   1.485  10.602   2.494 -0.6434  0.2278  0.0606
  875MOL0     O18038   1.542  10.875   2.277  0.3582 -0.0173 -0.6070
  875MOL0     C18039   1.793  10.715   2.095  0.5280 -0.1501  0.6289
  875MOL0     C18040   1.863  10.715   1.978  0.4525  0.4659  0.5853
  875MOL0     N18041   1.546  10.815   1.203 -0.2555 -0.5365 -0.3167
  875MOL0     N18042   1.436  10.886   1.182 -0.7153 -0.1129  0.9010
  875MOL0     C18043   2.143  11.156   0.598  0.5804 -0.6799 -0.6016
  875MOL0     C18044   2.254  11.133   0.686 -0.3757  0.3557  0.7669
  875MOL0     C18045   2.528  10.982   0.995  0.1899  0.3781  0.4102
  875MOL0     C18046   2.591  10.855   0.994  0.1012 -0.4197  0.2567
  875MOL0     C18047   2.700  10.828   1.074 -0.6950  0.1333  0.5380
  875MOL0     C18048   2.750  10.925   1.167 -0.6642 -0.6418  0.2395
  875MOL0     O18049   2.828  10.902   1.270 -0.2228 -0.1794 -0.3855
  875MOL0     C18050   2.841  10.764   1.328  0.2242 -0.1259  0.3574
  875MOL0     C18051   2.966  10.755   1.425  0.4185  0.3589  1.0927
  875MOL0     C18052   3.099  10.802   1.358  0.0018 -0.8336  0.8290
  875MOL0     C18053   3.153  10.716   1.237 -0.3722  0.1302 -0.4934
  875MOL0     C18054   3.110  10.765   1.102 -0.0437 -0.3094  0.6448
  875MOL0     C18055   3.059  10.799   0.998  0.1622 -0.1562 -0.5553
  875MOL0     C18056   2.683  11.048   1.182  0.5704 -0.2051 -0.1511
  875MOL0     C18057   2.578  11.075   1.093  0.5785  0.0547 -0.1222
  875MOL0     H18058   2.281  10.807   0.660  0.6705 -0.4700 -1.7979
  875MOL0     H18059   2.084  10.836   0.512  0.4382 -0.4889  3.1720
  875MOL0     H18060   1.803  11.033   0.352  0.8090 -0.8042 -1.6186
  875MOL0     H18061   1.903  10.897   0.385  2.6835  0.6408  1.5163
  875MOL0     H18062   1.697  10.891   0.534  0.4251 -1.0381 -0.8832
  875MOL0     H18063   1.862  10.895   0.616  1.0279  0.8639 -0.9694
  875MOL0     H18064   1.812  11.116   0.696  0.8051 -2.2740  1.8329
  875MOL0     H18065   1.710  11.143   0.557  1.9142  2.2475  2.2746
  875MOL0     H18066   1.528  10.991   0.664  0.4881  3.5378 -3.7311
  875MOL0     H18067   1.654  10.964   0.789  1.4768 -0.8681 -1.7322
  875MOL0     H18068   1.638  11.218   0.829 -0.7418  0.9152 -2.4549
  875MOL0     H18069   1.484  11.204   0.739 -1.5396 -2.4979 -1.7425
  875MOL0     H18070   1.377  11.064   0.888 -0.4158 -2.2205  1.7058
  875MOL0     H18071   1.525  11.002   0.968 -0.7730 -0.1587  2.4801
  875MOL0     H18072   1.553  11.225   1.078  1.0791 -1.5083  1.0571
  875MOL0     H18073   1.395  11.275   1.025  1.8669  0.3733  0.6097
  875MOL0     H18074   1.285  11.095   1.141  0.0321  0.4518 -2.6787
  875MOL0     H18075   1.385  11.192   1.260  1.2579 -0.8526 -1.2663
  875MOL0     H18076   1.621  11.099   1.345 -0.6436 -0.4275  2.2842
  875MOL0     H18077   1.812  10.799   1.249  2.3367  4.8544 -1.7398
  875MOL0     H18078   1.825  10.931   1.358 -0.6960 -0.1446  1.0215
  875MOL0     H18079   1.692  10.677   1.447 -1.5105  1.5530  0.9676
  875MOL0     H18080   1.713  10.830   1.539  1.3323  3.0896 -0.1304
  875MOL0     H18081   1.971  10.797   1.514 -0.1422 -0.4195 -1.2777
  875MOL0     H18082   1.929  10.646   1.438  1.0165  0.5813 -0.4739
  875MOL0     H18083   1.965  10.592   1.671 -1.4718 -1.4579  1.3220
  875MOL0     H18084   1.798  10.596   1.664  1.0708 -0.4281  3.2617
  875MOL0     H18085   1.633  10.874   1.771 -1.5827 -1.3121 -0.4636
  875MOL0     H18086   1.407  10.880   2.068  1.2347  0.8879  2.7221
  875MOL0     H18087   1.522  11.008   2.079  0.8347 -1.4071  1.0255
  875MOL0     H18088   1.441  10.973   1.924 -0.5248 -1.6005 -0.6919
  875MOL0     H18089   1.750  10.808   2.501 -0.7028  0.2495 -2.1670
  875MOL0     H18090   1.723  10.786   2.740 -2.2507  2.3100  0.7249
  875MOL0     H18091   1.557  10.828   2.924 -0.2226  0.9093  3.4093
  875MOL0     H18092   1.394  10.769   2.870 -0.9679 -1.1890  0.6768
  875MOL0     H18093   1.359  10.676   3.081 -0.6139 -0.5407 -1.4375
  875MOL0     H18094   1.520  10.616   3.108 -3.7056 -1.9477 -0.4246
  875MOL0     H18095   1.404  10.889   3.122 -0.7296 -1.9478 -0.6963
  875MOL0     H18096   1.573  10.872   3.154  1.3539 -1.3378 -0.0005
  875MOL0     H18097   1.345  10.783   3.342  0.0351 -1.1818  1.5025
  875MOL0     H18098   1.489  10.683   3.328 -1.0200  0.0139 -0.8647
  875MOL0     H18099   1.488  10.988   3.379  0.2996  0.0048  1.6515
  875MOL0     H18100   1.631  10.868   3.394  0.8122  1.0822  0.7415
  875MOL0     H18101   1.378  10.876   3.577  0.3896 -1.4472  1.2427
  875MOL0     H18102   1.524  10.775   3.588 -1.4487 -1.2221 -1.2448
  875MOL0     H18103   1.634  11.031   3.588 -1.2939 -0.2125 -2.9736
  875MOL0     H18104   1.589  10.934   3.732 -0.7629 -0.5261 -0.4217
  875MOL0     H18105   1.401  11.146   3.603  1.1525  1.4624  0.2507
  875MOL0     H18106   1.516  11.180   3.734 -1.9183  1.1172 -0.4578
  875MOL0     H18107   1.391  10.514   2.668 -1.0019 -0.4577 -1.0881
  875MOL0     H18108   1.411  10.548   2.435 -0.9259  0.3256  0.3217
  875MOL0     H18109   1.826  10.652   2.177  4.6916  0.9908  0.0550
  875MOL0     H18110   1.956  10.660   1.971 -0.1857 -0.4902 -0.9794
  875MOL0     H18111   2.107  11.258   0.593  1.2739 -0.4570 -1.1177
  875MOL0     H18112   2.292  11.216   0.744 -1.4078  0.4224  1.3768
  875MOL0     H18113   2.529  10.784   0.939 -4.3687  2.8353  0.5522
  875MOL0     H18114   2.746  10.731   1.063  0.1297  0.4524  1.0722
  875MOL0     H18115   2.755  10.746   1.393 -0.0428 -0.2047 -0.0148
  875MOL0     H18116   2.839  10.694   1.244 -2.2159  0.4706 -0.1696
  875MOL0     H18117   2.989  10.654   1.461 -1.0514  0.8631  3.7121
  875MOL0     H18118   2.953  10.805   1.522  0.1780  1.0706  0.6962
  875MOL0     H18119   3.176  10.797   1.436  0.6408 -1.8482  0.1486
  875MOL0     H18120   3.097  10.905   1.322 -3.2395 -1.5857 -1.6497
  875MOL0     H18121   3.131  10.610   1.251  0.8037 -0.3142 -1.7026
  875MOL0     H18122   3.261  10.720   1.253 -0.4885  2.9521  0.1421
  875MOL0     H18123   2.998  10.821   0.912 -1.2489 -1.3750  0.0670
  875MOL0     H18124   2.707  11.119   1.260 -3.3739 -2.1454  3.2089
  875MOL0     H18125   2.533  11.174   1.095  1.5473  0.5610 -1.8274
  876MOL0     O18126   7.125   7.618   6.039  0.2559 -0.6538  0.1394
  876MOL0     C18127   7.236   7.625   6.091  1.1692 -0.2721 -0.2153
  876MOL0     O18128   7.314   7.517   6.125  0.0360 -0.5819  0.1440
  876MOL0     C18129   7.302   7.394   6.079  0.4953 -0.6489 -1.1920
  876MOL0     C18130   7.273   7.365   5.947 -0.6459  0.5707 -1.2801
  876MOL0     C18131   7.275   7.234   5.907  0.1078  0.4587  0.1044
  876MOL0     C18132   7.296   7.130   5.995 -0.2154 -1.1534 -0.6413
  876MOL0     O18133   7.282   6.995   5.963 -0.5879  0.4505 -0.5227
  876MOL0     C18134   7.337   6.946   5.834  0.4748 -0.4246  0.1917
  876MOL0     C18135   7.427   6.818   5.847  0.3466 -0.6612 -0.2933
  876MOL0     C18136   7.496   6.764   5.718 -0.0473  0.8851 -0.7923
  876MOL0     C18137   7.569   6.633   5.746 -0.6727  1.1589 -0.4103
  876MOL0     C18138   7.627   6.561   5.617  0.2815 -0.0920 -0.8894
  876MOL0     C18139   7.730   6.638   5.537  0.7060  0.0014  0.8836
  876MOL0     C18140   7.880   6.634   5.573 -0.0226 -0.3646 -0.0133
  876MOL0     C18141   7.972   6.687   5.472 -0.1598  0.2141  0.6302
  876MOL0     N18142   8.109   6.690   5.525 -0.5920  0.0719  0.0028
  876MOL0     C18143   8.192   6.585   5.536  0.0264 -0.2435  0.1821
  876MOL0     C18144   8.314   6.637   5.557  0.3696 -0.3961  0.2079
  876MOL0     C18145   8.433   6.564   5.576 -0.1256  0.2177  0.0085
  876MOL0     C18146   8.501   6.590   5.717 -0.3175 -0.3407  0.4380
  876MOL0     C18147   8.600   6.713   5.714 -0.0009 -0.3540 -0.2173
  876MOL0     C18148   8.717   6.693   5.631 -1.3483  0.4098  0.5044
  876MOL0     O18149   8.777   6.567   5.653  0.9629 -0.2880  0.0496
  876MOL0     C18150   8.901   6.539   5.696  0.4482  0.2057 -0.2856
  876MOL0     C18151   8.902   6.440   5.791  0.4673 -0.5104  0.3713
  876MOL0     C18152   9.017   6.409   5.860  0.2745  1.5154  0.3206
  876MOL0     C18153   9.018   6.280   5.947 -0.3126 -0.4647  0.2248
  876MOL0     C18154   9.132   6.492   5.843 -0.2987  0.8539  0.9879
  876MOL0     C18155   9.246   6.460   5.943 -0.0888 -0.7554  0.2784
  876MOL0     O18156   9.289   6.329   5.975  0.6635  0.1063 -0.1971
  876MOL0     C18157   9.356   6.315   6.094 -0.3580 -1.2507 -0.6681
  876MOL0     C18158   9.492   6.311   6.097 -0.3193 -0.0148  0.1056
  876MOL0     C18159   9.571   6.275   6.206  0.2194 -1.2984 -1.3379
  876MOL0     C18160   9.501   6.254   6.329 -0.3444 -1.0882 -0.7669
  876MOL0     O18161   9.556   6.227   6.447 -1.4422 -0.5126 -0.3159
  876MOL0     C18162   9.691   6.211   6.456 -0.2408 -0.4191 -1.0241
  876MOL0     C18163   9.719   6.219   6.609  0.1230  0.6185  0.5421
  876MOL0     C18164   9.669   6.091   6.676  0.8247 -0.6890  0.0881
  876MOL0     C18165   9.787   5.996   6.697 -0.6637 -0.1998 -0.7318
  876MOL0     C18166   9.726   5.891   6.786  0.0630  0.3355 -0.2866
  876MOL0     C18167   9.794   5.754   6.772 -1.2147  0.0811  0.5075
  876MOL0     C18168   9.735   5.654   6.870 -0.5326 -0.2831 -1.1153
  876MOL0     C18169   9.593   5.619   6.846  0.2353 -0.6314  0.0080
  876MOL0    Cl18170   9.567   5.549   6.683 -0.0393  0.5236 -0.6095
  876MOL0     C18171   9.369   6.272   6.331 -0.1879 -0.5946 -0.9771
  876MOL0     C18172   9.291   6.302   6.218  0.8457 -0.3212 -0.4668
  876MOL0     O18173   9.286   6.562   6.004  0.6472  1.0136  0.1087
  876MOL0     C18174   9.135   6.589   5.740  0.0141 -1.0869 -0.3099
  876MOL0     C18175   9.017   6.611   5.664  0.5190  0.1029  0.3280
  876MOL0     N18176   8.305   6.777   5.562 -0.5128  0.4577  0.0333
  876MOL0     N18177   8.177   6.806   5.551  0.9513  0.1539  0.8545
  876MOL0     C18178   7.329   7.157   6.137 -0.8077 -0.1783  0.9046
  876MOL0     C18179   7.329   7.294   6.172 -1.1928  0.3922 -0.8085
  876MOL0     C18180   7.299   7.763   6.140 -0.0932  0.7053 -0.1182
  876MOL0     C18181   7.433   7.779   6.159  0.1196  0.1695  0.0908
  876MOL0     C18182   7.488   7.901   6.215 -0.6226 -0.6005 -0.3877
  876MOL0     C18183   7.403   8.009   6.237 -0.6338  0.1982 -0.1791
  876MOL0     O18184   7.450   8.132   6.285  0.1652  0.4002  0.3629
  876MOL0     C18185   7.454   8.160   6.428  0.4783  0.3516 -0.4490
  876MOL0     C18186   7.367   8.283   6.468  0.1938 -0.1720 -0.5625
  876MOL0     C18187   7.401   8.416   6.396 -1.3121 -0.8476  0.3124
  876MOL0     C18188   7.406   8.537   6.495  0.0790  1.4143 -0.8172
  876MOL0     C18189   7.272   8.565   6.547  0.5332 -0.1954  0.6255
  876MOL0     C18190   7.160   8.551   6.567  0.7849 -0.5561 -0.7898
  876MOL0     C18191   7.271   7.999   6.213  0.2571 -0.4087 -0.5337
  876MOL0     C18192   7.215   7.883   6.165  0.2181  0.4847  0.1048
  876MOL0     H18193   7.239   7.438   5.874 -3.0716 -0.8358 -1.6576
  876MOL0     H18194   7.254   7.215   5.802 -2.0809  4.1792 -0.3004
  876MOL0     H18195   7.253   6.918   5.769 -0.6528  2.7911  0.0554
  876MOL0     H18196   7.405   7.020   5.791  2.1454 -1.4491  1.0002
  876MOL0     H18197   7.502   6.843   5.923  1.0174  0.7627 -1.3659
  876MOL0     H18198   7.358   6.743   5.884 -0.4815  0.2096 -0.0403
  876MOL0     H18199   7.431   6.754   5.630  0.7846 -2.7306 -1.1571
  876MOL0     H18200   7.580   6.831   5.699  2.2878 -0.3238  3.9512
  876MOL0     H18201   7.649   6.651   5.818 -2.5705 -1.7714  2.7374
  876MOL0     H18202   7.502   6.563   5.797 -0.6309  1.5357  0.1669
  876MOL0     H18203   7.677   6.467   5.641  0.7974  0.6635  1.2076
  876MOL0     H18204   7.537   6.540   5.559 -1.8903  0.7954  1.9293
  876MOL0     H18205   7.720   6.588   5.441 -0.4892  1.3129  0.2927
  876MOL0     H18206   7.701   6.743   5.528  0.9535 -0.0852 -4.9714
  876MOL0     H18207   7.888   6.686   5.669 -0.0595  0.0403 -0.2270
  876MOL0     H18208   7.924   6.538   5.600  1.8085  0.4680  0.0823
  876MOL0     H18209   7.938   6.782   5.431  1.9468 -0.2753 -2.5918
  876MOL0     H18210   7.962   6.619   5.386 -0.7137  2.9126 -1.5945
  876MOL0     H18211   8.159   6.482   5.520 -2.3014  0.4972 -0.2674
  876MOL0     H18212   8.403   6.459   5.570  0.1739  0.2010 -1.8918
  876MOL0     H18213   8.502   6.590   5.496  0.7666  3.6778  1.7335
  876MOL0     H18214   8.553   6.496   5.741 -1.6645 -1.1496  0.2783
  876MOL0     H18215   8.425   6.612   5.791  0.3123 -0.3812  1.1064
  876MOL0     H18216   8.626   6.713   5.820 -2.5399 -4.7510  0.6525
  876MOL0     H18217   8.561   6.803   5.666  2.9662 -0.5664 -3.3988
  876MOL0     H18218   8.793   6.772   5.635 -1.0642  0.1117  1.1091
  876MOL0     H18219   8.700   6.682   5.523 -1.4728  0.7442  0.4869
  876MOL0     H18220   8.812   6.381   5.807  0.6054 -0.8618 -0.1393
  876MOL0     H18221   8.918   6.248   5.978 -0.4172 -0.8384 -0.4572
  876MOL0     H18222   9.066   6.203   5.886  1.3750 -0.3683  1.3634
  876MOL0     H18223   9.068   6.293   6.043  3.7593 -2.3433 -1.3965
  876MOL0     H18224   9.542   6.324   6.001  1.0273 -0.5407  0.7127
  876MOL0     H18225   9.678   6.287   6.193  0.1038 -0.6190 -1.7421
  876MOL0     H18226   9.729   6.113   6.426  2.2164  0.1078  0.0946
  876MOL0     H18227   9.752   6.283   6.400 -0.2157 -0.2854 -0.8262
  876MOL0     H18228   9.825   6.241   6.622  0.3817  0.9971 -1.7366
  876MOL0     H18229   9.655   6.299   6.647  0.2973  0.3207  1.4727
  876MOL0     H18230   9.598   6.029   6.621  0.4173  0.6745 -0.9880
  876MOL0     H18231   9.624   6.112   6.773  2.2038  1.9230  0.2850
  876MOL0     H18232   9.839   5.959   6.608  3.0409 -3.7186  2.4903
  876MOL0     H18233   9.865   6.049   6.752  0.8168 -2.8671 -0.0937
  876MOL0     H18234   9.627   5.873   6.743  0.5362 -3.0346 -0.2497
  876MOL0     H18235   9.700   5.917   6.889 -3.7844 -2.6860 -0.2448
  876MOL0     H18236   9.784   5.727   6.666 -2.0644 -1.1970  0.8894
  876MOL0     H18237   9.902   5.742   6.790 -1.4303 -0.1864  1.7165
  876MOL0     H18238   9.750   5.700   6.968 -3.1442  1.1446 -1.2724
  876MOL0     H18239   9.795   5.564   6.886 -0.3419 -0.3556 -2.1726
  876MOL0     H18240   9.530   5.707   6.831  2.6326  1.0491 -0.8267
  876MOL0     H18241   9.567   5.565   6.937 -0.0050 -3.9339 -1.8717
  876MOL0     H18242   9.320   6.237   6.421 -1.0806  0.9502 -0.8280
  876MOL0     H18243   9.182   6.297   6.214  0.9237 -2.1451 -0.9479
  876MOL0     H18244   9.233   6.634   5.721  1.9495 -2.8970  3.9205
  876MOL0     H18245   9.004   6.692   5.592 -0.5110  0.2909  0.7197
  876MOL0     H18246   7.362   7.069   6.190 -2.8792 -0.5129  1.6882
  876MOL0     H18247   7.360   7.320   6.273  1.9343 -0.6452 -1.3746
  876MOL0     H18248   7.495   7.693   6.134 -0.7398 -1.2098  2.3423
  876MOL0     H18249   7.594   7.913   6.236  0.4015 -6.0859 -0.7481
  876MOL0     H18250   7.429   8.073   6.490  1.3326  0.9247  0.7417
  876MOL0     H18251   7.558   8.176   6.460 -0.1913  0.7557  1.7401
  876MOL0     H18252   7.377   8.286   6.577 -0.1394 -0.4738 -0.5177
  876MOL0     H18253   7.264   8.249   6.453  0.9317 -1.8914 -2.2109
  876MOL0     H18254   7.328   8.433   6.316 -2.0662 -2.7499  0.5435
  876MOL0     H18255   7.503   8.416   6.356 -1.6633 -2.1658 -0.6649
  876MOL0     H18256   7.448   8.623   6.443  1.9679  2.0839  1.6554
  876MOL0     H18257   7.470   8.517   6.581 -1.5508  2.1182  0.6257
  876MOL0     H18258   7.056   8.528   6.572  0.9681 -1.2238  0.1434
  876MOL0     H18259   7.200   8.081   6.220  1.1392  0.6519 -2.6913
  876MOL0     H18260   7.107   7.879   6.152  0.1391 -1.7756  1.0174
  877MOL0     O18261   2.969   9.887   2.505 -0.2667 -0.0489 -0.5266
  877MOL0     C18262   3.005   9.811   2.419  0.6041 -0.1621 -0.4791
  877MOL0     O18263   3.135   9.784   2.385  0.5161 -0.1865 -0.5359
  877MOL0     C18264   3.243   9.833   2.455  0.0605 -1.1414 -0.1291
  877MOL0     C18265   3.363   9.847   2.384 -0.6880  0.5529  0.1083
  877MOL0     C18266   3.479   9.897   2.434  0.5311  0.6574 -0.0822
  877MOL0     C18267   3.480   9.940   2.572  0.5088  0.3323  0.1585
  877MOL0     O18268   3.587   9.983   2.644  0.2841  0.3451 -0.0172
  877MOL0     C18269   3.713   9.957   2.579 -0.0863 -0.6809  0.6001
  877MOL0     C18270   3.831  10.027   2.637 -1.7253  0.4948  0.6790
  877MOL0     C18271   3.958   9.989   2.554 -0.0758 -1.2472  0.1501
  877MOL0     C18272   4.058  10.106   2.553  0.3993  0.3014 -0.2803
  877MOL0     C18273   4.170  10.093   2.454 -0.4155 -1.3219  0.3099
  877MOL0     C18274   4.262   9.982   2.494 -0.0716 -0.3941 -1.1432
  877MOL0     C18275   4.352   9.964   2.373  0.2872  0.3357 -0.2364
  877MOL0     C18276   4.470   9.874   2.425  0.5336  0.3039 -0.0002
  877MOL0     N18277   4.561   9.935   2.532  0.5399  0.7309  0.5675
  877MOL0     C18278   4.552   9.930   2.666 -0.3601  0.3048 -0.2369
  877MOL0     C18279   4.661   9.988   2.709  0.8224 -0.1368  0.9615
  877MOL0     C18280   4.715   9.996   2.850  0.2619  0.1072  0.0971
  877MOL0     C18281   4.769   9.866   2.915 -0.0572  0.0631 -0.0696
  877MOL0     C18282   4.853   9.775   2.817  0.0721 -0.0331 -0.8082
  877MOL0     C18283   4.997   9.741   2.858  0.0091  0.1650 -0.2213
  877MOL0     O18284   5.001   9.692   2.983  0.1838  0.2413 -0.3082
  877MOL0     C18285   4.897   9.625   3.046 -0.2713 -0.1171 -0.0771
  877MOL0     C18286   4.867   9.658   3.174 -0.3330 -1.3056  0.0524
  877MOL0     C18287   4.770   9.593   3.251 -0.0580 -0.9367 -0.2390
  877MOL0     C18288   4.768   9.651   3.392  0.0721  0.1191 -0.1933
  877MOL0     C18289   4.705   9.485   3.196 -0.4306 -0.2986 -0.3067
  877MOL0     C18290   4.614   9.397   3.272  0.2266  0.1046  1.1695
  877MOL0     O18291   4.578   9.276   3.218 -0.0107 -0.2744  0.6935
  877MOL0     C18292   4.468   9.219   3.266  0.5770  0.9113 -0.5989
  877MOL0     C18293   4.461   9.092   3.326  0.0067  0.4162 -1.3137
  877MOL0     C18294   4.333   9.039   3.367 -0.2221  0.5068  0.3170
  877MOL0     C18295   4.219   9.112   3.333 -0.2806 -0.0285 -0.0630
  877MOL0     O18296   4.097   9.055   3.371 -0.4978 -0.3676  0.1656
  877MOL0     C18297   4.084   8.972   3.497 -0.5262 -1.0955 -0.2875
  877MOL0     C18298   3.965   9.037   3.580  0.7834 -0.3122  0.1913
  877MOL0     C18299   3.963   8.983   3.724  0.0728  0.8377 -0.1165
  877MOL0     C18300   3.849   9.041   3.800  0.0792  0.0247 -0.2181
  877MOL0     C18301   3.787   8.937   3.903 -0.6658 -0.0098  1.0184
  877MOL0     C18302   3.695   9.005   3.999  0.3070  1.0069 -0.4432
  877MOL0     C18303   3.627   8.892   4.087 -0.8470  1.2222  0.5763
  877MOL0     C18304   3.566   8.931   4.220 -0.5896  1.0982  0.4789
  877MOL0    Cl18305   3.426   9.032   4.177 -0.0588 -0.5672  0.0488
  877MOL0     C18306   4.224   9.230   3.257 -1.0270 -0.2620  0.2060
  877MOL0     C18307   4.350   9.279   3.228 -0.1073  1.0132  0.3509
  877MOL0     O18308   4.572   9.436   3.379  0.1402 -0.2616  0.2244
  877MOL0     C18309   4.737   9.444   3.064 -0.2198  0.0708 -0.5349
  877MOL0     C18310   4.835   9.513   2.992  0.4006  1.1274  0.9106
  877MOL0     N18311   4.723  10.049   2.602  0.4313  0.7497  1.1810
  877MOL0     N18312   4.660  10.017   2.492  0.1822 -0.6641  0.7307
  877MOL0     C18313   3.361   9.918   2.645  0.9149 -0.8132 -0.4226
  877MOL0     C18314   3.238   9.870   2.592  0.0171 -0.4546  0.4133
  877MOL0     C18315   2.918   9.728   2.338  0.5633  0.2933 -0.4615
  877MOL0     C18316   2.936   9.697   2.205 -0.0312 -0.6515  0.9635
  877MOL0     C18317   2.848   9.597   2.147 -0.3114 -0.4940 -0.5168
  877MOL0     C18318   2.739   9.546   2.220 -1.2973  0.8717 -0.0742
  877MOL0     O18319   2.647   9.451   2.184  0.6204  0.9632  0.6369
  877MOL0     C18320   2.662   9.367   2.065 -0.1010 -0.1114 -0.1226
  877MOL0     C18321   2.537   9.286   2.038  0.0969  0.1333 -0.1201
  877MOL0     C18322   2.489   9.194   2.149  0.7431  0.2924  0.0541
  877MOL0     C18323   2.348   9.135   2.105  0.1057 -0.2392 -0.6599
  877MOL0     C18324   2.361   9.020   2.021  0.3651 -0.0175 -0.0021
  877MOL0     C18325   2.370   8.920   1.943  0.1192  0.0317  0.4517
  877MOL0     C18326   2.721   9.596   2.347  0.4361  0.9166  0.6201
  877MOL0     C18327   2.809   9.676   2.411  0.3844 -0.1298 -0.0684
  877MOL0     H18328   3.351   9.817   2.280  0.1655  0.5593  0.0031
  877MOL0     H18329   3.561   9.912   2.365 -0.9514  1.5509 -1.7466
  877MOL0     H18330   3.733   9.850   2.577 -2.3403 -1.1760  1.4588
  877MOL0     H18331   3.709   9.994   2.476 -2.2018 -0.2755  0.7975
  877MOL0     H18332   3.823  10.136   2.637 -0.2511  0.6338  0.8457
  877MOL0     H18333   3.849   9.991   2.739 -1.9361 -0.6725  0.3264
  877MOL0     H18334   4.009   9.899   2.591  0.8711 -1.4759 -1.6005
  877MOL0     H18335   3.946   9.969   2.447 -0.0374  1.9664 -0.5444
  877MOL0     H18336   4.006  10.195   2.516  0.7483 -0.1269 -1.8654
  877MOL0     H18337   4.095  10.120   2.655  2.1669 -0.6369 -0.7425
  877MOL0     H18338   4.137  10.071   2.352  1.9260 -0.8059 -0.6209
  877MOL0     H18339   4.238  10.179   2.454  0.1043 -1.7110  1.3700
  877MOL0     H18340   4.314  10.035   2.574  0.3401 -0.6152 -1.2630
  877MOL0     H18341   4.224   9.887   2.534  0.9230 -2.4643 -4.6486
  877MOL0     H18342   4.294   9.912   2.295 -0.6736  0.9423  0.0556
  877MOL0     H18343   4.384  10.064   2.345 -0.8138  0.8721  0.3861
  877MOL0     H18344   4.526   9.859   2.332  1.4857  3.4147 -0.0308
  877MOL0     H18345   4.450   9.775   2.468  2.1279  0.0772  0.2897
  877MOL0     H18346   4.478   9.879   2.727  2.6159 -0.1108  3.3732
  877MOL0     H18347   4.804  10.060   2.846  0.6682 -0.5276 -2.3745
  877MOL0     H18348   4.647  10.036   2.926  0.4125 -0.2594  0.4311
  877MOL0     H18349   4.676   9.819   2.947  0.6980 -0.8535  0.8470
  877MOL0     H18350   4.832   9.901   2.997  2.6634 -0.9705 -1.5888
  877MOL0     H18351   4.860   9.831   2.724 -2.2954 -0.1875 -1.1402
  877MOL0     H18352   4.789   9.690   2.792 -3.3996  1.7370  1.3194
  877MOL0     H18353   5.055   9.834   2.856 -0.5371  0.5063 -0.4023
  877MOL0     H18354   5.035   9.670   2.784 -1.4672  0.1139 -0.9619
  877MOL0     H18355   4.928   9.738   3.214 -1.4307  0.1028 -0.9985
  877MOL0     H18356   4.866   9.685   3.427 -0.6350  0.5774  1.4617
  877MOL0     H18357   4.698   9.736   3.391 -0.5687 -0.3817 -2.3671
  877MOL0     H18358   4.729   9.580   3.466 -0.8062 -4.4657 -4.5085
  877MOL0     H18359   4.554   9.038   3.341 -1.0285 -1.4944 -1.4308
  877MOL0     H18360   4.336   8.944   3.419  1.3943  0.6516  0.5456
  877MOL0     H18361   4.063   8.866   3.482 -0.9831 -1.1672  0.8369
  877MOL0     H18362   4.172   8.972   3.562  1.9093 -0.2845 -3.3181
  877MOL0     H18363   3.967   9.147   3.579  0.9705 -0.2932  1.4091
  877MOL0     H18364   3.876   9.011   3.522 -0.1731  0.9246  1.0577
  877MOL0     H18365   4.048   9.017   3.784 -1.1304  2.5369  0.6917
  877MOL0     H18366   3.955   8.874   3.717  0.2907  0.8486 -0.5884
  877MOL0     H18367   3.890   9.121   3.863  0.2661  0.2883 -0.6698
  877MOL0     H18368   3.773   9.080   3.733  0.3959  0.2333 -0.4575
  877MOL0     H18369   3.865   8.877   3.951 -0.1468 -0.3922 -0.2340
  877MOL0     H18370   3.724   8.864   3.851 -2.9652 -0.6652  4.4314
  877MOL0     H18371   3.750   9.068   4.069  3.0446 -1.9886  0.3388
  877MOL0     H18372   3.618   9.065   3.949 -1.3370 -0.4668  0.2114
  877MOL0     H18373   3.696   8.809   4.108 -0.9693  1.0917  0.4726
  877MOL0     H18374   3.543   8.857   4.026  1.0237  4.0780 -4.1465
  877MOL0     H18375   3.638   8.980   4.286  1.3428  2.6348 -2.5201
  877MOL0     H18376   3.532   8.841   4.270  1.3812  0.3234  0.5178
  877MOL0     H18377   4.134   9.277   3.220  0.3201  1.2157 -1.3477
  877MOL0     H18378   4.362   9.372   3.175  3.3973  0.1717 -0.6510
  877MOL0     H18379   4.699   9.350   3.027 -0.0879 -0.8843  1.6326
  877MOL0     H18380   4.863   9.470   2.897 -2.5649 -0.6120  0.7134
  877MOL0     H18381   3.371   9.960   2.744  1.1795 -1.4738 -0.1613
  877MOL0     H18382   3.156   9.836   2.654  1.2461 -3.4954  0.5414
  877MOL0     H18383   3.031   9.729   2.163 -1.1221  3.1457  1.0507
  877MOL0     H18384   2.872   9.567   2.046 -0.4659  0.9932 -1.0157
  877MOL0     H18385   2.684   9.436   1.983 -0.2751 -1.6651 -1.5357
  877MOL0     H18386   2.755   9.309   2.069  0.8276  1.2074 -1.6916
  877MOL0     H18387   2.552   9.240   1.940 -1.1132  2.4061 -1.4449
  877MOL0     H18388   2.459   9.357   2.010  0.3003  1.4749  2.3990
  877MOL0     H18389   2.475   9.257   2.238 -1.7340 -1.0458  0.6952
  877MOL0     H18390   2.565   9.121   2.180  1.5535  0.7583 -0.7871
  877MOL0     H18391   2.288   9.210   2.052 -1.7531 -0.4300  1.0039
  877MOL0     H18392   2.287   9.096   2.188 -0.3993  1.1019 -0.3768
  877MOL0     H18393   2.373   8.839   1.872 -1.6557 -0.8467  1.3078
  877MOL0     H18394   2.633   9.574   2.407 -0.2403 -0.2909 -0.7460
  877MOL0     H18395   2.786   9.704   2.513 -2.2764  3.3406 -1.4211
  878MOL0     O18396   6.756   1.340  10.911  0.3960  0.7374 -0.3759
  878MOL0     C18397   6.706   1.239  10.960  0.4548  0.5788  0.8277
  878MOL0     O18398   6.593   1.238  11.031 -0.5847 -0.5667  0.1898
  878MOL0     C18399   6.531   1.346  11.090  0.6846  0.6114 -0.4597
  878MOL0     C18400   6.400   1.339  11.120  0.5123  0.3719 -0.8486
  878MOL0     C18401   6.330   1.431  11.197  0.6662 -0.0395 -0.4451
  878MOL0     C18402   6.392   1.554  11.223 -0.7855 -0.4208 -0.0834
  878MOL0     O18403   6.329   1.662  11.275  0.2101 -0.3785 -0.0524
  878MOL0     C18404   6.191   1.654  11.300  0.4627  1.0513  0.1442
  878MOL0     C18405   6.155   1.789  11.372  0.0505  0.2105 -0.0372
  878MOL0     C18406   6.000   1.798  11.389 -0.7002  0.8871  0.0570
  878MOL0     C18407   5.937   1.922  11.460 -0.3447 -0.3933 -0.2722
  878MOL0     C18408   5.785   1.946  11.451  0.3786  0.4969  1.2734
  878MOL0     C18409   5.703   1.879  11.558 -0.0828  0.2146  0.6110
  878MOL0     C18410   5.676   1.727  11.536 -0.2351  0.0716  0.0647
  878MOL0     C18411   5.672   1.650  11.676  0.1227  0.1756  0.5130
  878MOL0     N18412   5.555   1.700  11.764 -0.8537  0.7155 -0.0124
  878MOL0     C18413   5.552   1.801  11.856 -0.3687 -0.2979  0.0223
  878MOL0     C18414   5.429   1.796  11.914 -0.6176 -0.4151 -0.2429
  878MOL0     C18415   5.372   1.893  12.013  0.3198  0.4393  0.1037
  878MOL0     C18416   5.324   2.019  11.936 -0.4904 -0.0950  0.6697
  878MOL0     C18417   5.426   2.100  11.859 -0.6443  0.1100 -0.1652
  878MOL0     C18418   5.546   2.156  11.940  0.2714  0.0450 -0.1836
  878MOL0     O18419   5.505   2.239  12.048  0.8365  0.2010 -0.1216
  878MOL0     C18420   5.609   2.302  12.124  0.0874  0.5910  0.1391
  878MOL0     C18421   5.743   2.302  12.082  0.5072 -0.2221 -0.5891
  878MOL0     C18422   5.845   2.361  12.163 -0.5542  0.2361 -0.5496
  878MOL0     C18423   5.991   2.366  12.110 -0.6308  0.5329  0.1798
  878MOL0     C18424   5.818   2.391  12.293  0.1822  0.3895  0.4083
  878MOL0     C18425   5.913   2.458  12.382  0.2367  0.0003 -0.2473
  878MOL0     O18426   5.858   2.534  12.487 -0.1811 -0.2761  0.1106
  878MOL0     C18427   5.928   2.623  12.561  1.7559  0.7575 -0.7855
  878MOL0     C18428   6.034   2.690  12.506 -0.4523 -0.7583 -0.3826
  878MOL0     C18429   6.096   2.795  12.566  0.3283 -0.5473 -0.3613
  878MOL0     C18430   6.041   2.835  12.692  0.2162  1.0713 -0.1276
  878MOL0     O18431   6.074   2.948  12.760 -0.7189 -0.3782  0.0140
  878MOL0     C18432   5.963   3.048  12.758 -0.5194 -1.3787 -1.4501
  878MOL0     C18433   6.008   3.188  12.820 -0.3266 -0.3364  0.5825
  878MOL0     C18434   5.998   3.181  12.975  0.0454 -0.3751  0.4713
  878MOL0     C18435   6.081   3.289  13.051 -0.5222 -0.1805  0.3425
  878MOL0     C18436   6.025   3.436  13.029  1.1601  0.7651 -0.3491
  878MOL0     C18437   6.115   3.550  13.067  0.3919 -0.0769 -0.2160
  878MOL0     C18438   6.099   3.666  12.968  0.5945  0.1012  0.0996
  878MOL0     C18439   5.993   3.770  13.001 -0.6823 -0.9571 -0.2573
  878MOL0    Cl18440   5.830   3.700  13.034  0.1261  0.2710  0.0777
  878MOL0     C18441   5.938   2.765  12.749  0.2199 -0.6473 -1.0541
  878MOL0     C18442   5.880   2.656  12.689  0.0791 -0.3221  0.1696
  878MOL0     O18443   6.031   2.428  12.370 -0.5118  0.2360 -0.6159
  878MOL0     C18444   5.681   2.392  12.333 -0.0823 -0.6076  0.2943
  878MOL0     C18445   5.582   2.347  12.250 -0.6525 -0.7443 -0.8506
  878MOL0     N18446   5.362   1.696  11.857 -1.3115 -0.2692  0.1318
  878MOL0     N18447   5.431   1.648  11.758  0.8538  0.2471 -0.3791
  878MOL0     C18448   6.532   1.565  11.189 -0.9447  0.0629 -0.1536
  878MOL0     C18449   6.600   1.467  11.125  0.4656 -0.1562 -0.1124
  878MOL0     C18450   6.760   1.110  10.915  0.8838  0.5285 -0.6768
  878MOL0     C18451   6.894   1.086  10.871 -0.1615 -0.0960  0.6560
  878MOL0     C18452   6.937   0.953  10.850  0.2485  0.3993 -0.0380
  878MOL0     C18453   6.858   0.846  10.861  0.1224  0.1400 -0.1215
  878MOL0     O18454   6.906   0.718  10.842 -0.3432 -0.2421 -0.3915
  878MOL0     C18455   6.830   0.604  10.858 -0.5653 -0.5563  0.6060
  878MOL0     C18456   6.933   0.492  10.899 -0.0195 -0.2616 -1.0768
  878MOL0     C18457   7.061   0.495  10.817 -0.5849  0.6746 -0.6481
  878MOL0     C18458   7.153   0.379  10.854  0.3063  0.9092 -0.3721
  878MOL0     C18459   7.214   0.387  10.988  0.1072 -0.0731  0.3682
  878MOL0     C18460   7.260   0.394  11.101  0.1316  0.0331 -0.6452
  878MOL0     C18461   6.718   0.868  10.889 -0.4016 -0.3341  0.4551
  878MOL0     C18462   6.674   0.996  10.933 -0.0903  0.1623  1.1267
  878MOL0     H18463   6.337   1.256  11.089 -1.7346  1.5235  0.3234
  878MOL0     H18464   6.227   1.418  11.232  0.2714  1.1353 -1.1305
  878MOL0     H18465   6.144   1.648  11.202  1.9460 -0.2765 -0.5169
  878MOL0     H18466   6.165   1.572  11.368  2.3498  0.8872  0.7336
  878MOL0     H18467   6.204   1.777  11.469  0.9310 -0.6263 -0.5696
  878MOL0     H18468   6.199   1.877  11.325  0.3575  1.1298  1.8882
  878MOL0     H18469   5.956   1.786  11.289 -0.4738 -2.2642  0.2443
  878MOL0     H18470   5.965   1.704  11.433  0.1387 -0.8081 -2.6597
  878MOL0     H18471   5.977   1.915  11.561  0.2794 -0.5966 -0.5256
  878MOL0     H18472   5.974   2.018  11.421  4.3143 -1.3297  1.2732
  878MOL0     H18473   5.774   2.054  11.467 -3.2297  0.9541 -2.5252
  878MOL0     H18474   5.741   1.918  11.355  1.8783 -3.7957  1.6126
  878MOL0     H18475   5.743   1.903  11.657 -4.0513  2.8753  1.8351
  878MOL0     H18476   5.604   1.927  11.561 -2.3482 -3.9564  2.6578
  878MOL0     H18477   5.581   1.716  11.482  0.5025  2.0976 -1.7363
  878MOL0     H18478   5.754   1.677  11.478 -0.3109 -0.2784  0.2588
  878MOL0     H18479   5.769   1.676  11.718  0.5550 -1.5057  0.6405
  878MOL0     H18480   5.658   1.543  11.659 -1.9376  0.7216 -1.7963
  878MOL0     H18481   5.622   1.880  11.881 -2.7162  2.6451 -1.9931
  878MOL0     H18482   5.285   1.845  12.058  1.5772 -0.6350  1.4821
  878MOL0     H18483   5.450   1.911  12.088 -0.8490  1.6360  1.0877
  878MOL0     H18484   5.284   2.088  12.011 -1.5647  1.3446 -1.1281
  878MOL0     H18485   5.246   1.982  11.869  1.5342 -2.2479 -0.6609
  878MOL0     H18486   5.373   2.183  11.810 -1.2749  1.1026  2.0512
  878MOL0     H18487   5.463   2.040  11.776 -0.6745  0.7980 -0.6891
  878MOL0     H18488   5.618   2.211  11.879  0.9806 -0.0188  0.5778
  878MOL0     H18489   5.595   2.066  11.978 -1.4911 -1.7074 -1.8124
  878MOL0     H18490   5.777   2.266  11.985 -2.4132  3.5577 -3.3643
  878MOL0     H18491   6.062   2.307  12.168  2.5003  3.3188 -0.4710
  878MOL0     H18492   5.999   2.334  12.006  1.3801  1.1716  0.0921
  878MOL0     H18493   6.020   2.471  12.118 -1.4092  0.9603 -1.8120
  878MOL0     H18494   6.071   2.667  12.406  1.0295  3.1168 -0.8915
  878MOL0     H18495   6.176   2.852  12.521 -0.3772  0.0830 -0.8542
  878MOL0     H18496   5.934   3.057  12.653 -0.0574  1.7137 -1.4148
  878MOL0     H18497   5.880   3.010  12.818 -1.2543  1.2407 -0.6601
  878MOL0     H18498   6.108   3.208  12.782 -1.5596  0.9201 -2.3276
  878MOL0     H18499   5.943   3.267  12.780  0.5476  0.8523  1.4587
  878MOL0     H18500   6.039   3.086  13.010  0.2412  0.6521  3.3104
  878MOL0     H18501   5.891   3.177  12.994 -0.0820 -1.4433 -0.3854
  878MOL0     H18502   6.109   3.275  13.156  0.2028  1.1833  0.3435
  878MOL0     H18503   6.182   3.288  13.009  1.1755 -2.6879  3.9714
  878MOL0     H18504   5.943   3.449  13.100  0.5299 -0.8620 -0.7241
  878MOL0     H18505   5.975   3.430  12.931  0.4062  1.7528 -0.0453
  878MOL0     H18506   6.092   3.574  13.171 -0.6160 -0.0900 -0.4254
  878MOL0     H18507   6.217   3.511  13.060 -0.3961 -2.0311 -1.5135
  878MOL0     H18508   6.084   3.632  12.865  2.5592  0.7022 -0.4241
  878MOL0     H18509   6.199   3.710  12.961  0.3872  0.3886 -1.5804
  878MOL0     H18510   5.987   3.841  12.918  1.6097  0.8465  0.9954
  878MOL0     H18511   6.021   3.822  13.093 -2.3928 -0.9934  0.3287
  878MOL0     H18512   5.891   2.807  12.837 -2.0183 -4.4203 -0.2376
  878MOL0     H18513   5.798   2.619  12.750 -0.1411 -2.0402 -1.1150
  878MOL0     H18514   5.652   2.447  12.422  2.6188  0.9734  0.2968
  878MOL0     H18515   5.479   2.349  12.283 -0.5662  2.8299 -0.3282
  878MOL0     H18516   6.582   1.652  11.230 -0.5069 -0.6093  0.7814
  878MOL0     H18517   6.707   1.482  11.130  0.1268  2.1352  2.8394
  878MOL0     H18518   6.959   1.172  10.868 -2.7787  2.0080  0.2949
  878MOL0     H18519   7.044   0.940  10.836  0.1570  0.5540 -0.9549
  878MOL0     H18520   6.756   0.610  10.939 -1.1576 -4.3963  0.5425
  878MOL0     H18521   6.779   0.583  10.764 -0.9971  0.0120  0.7090
  878MOL0     H18522   6.877   0.399  10.887  0.1782 -0.2092 -2.4890
  878MOL0     H18523   6.955   0.492  11.007 -1.8610 -0.7300 -0.6638
  878MOL0     H18524   7.114   0.591  10.817  0.6241  0.0309  0.2726
  878MOL0     H18525   7.040   0.488  10.709  0.2473  0.3908 -0.7996
  878MOL0     H18526   7.220   0.355  10.770  0.1533 -1.3165  0.0826
  878MOL0     H18527   7.091   0.291  10.876  1.0776  0.3973 -0.1998
  878MOL0     H18528   7.288   0.402  11.204  1.6871  2.1633 -1.1515
  878MOL0     H18529   6.657   0.778  10.895  0.7095 -1.3360 -1.7158
  878MOL0     H18530   6.570   1.003  10.964 -0.8941  3.5570 -1.7311
  879MOL0     O18531  11.196   0.374   7.464 -0.2470 -0.9760  0.5863
  879MOL0     C18532  11.292   0.405   7.528 -0.0098 -0.8657 -0.5234
  879MOL0     O18533  11.402   0.326   7.555 -0.4517 -0.6895 -0.3753
  879MOL0     C18534  11.408   0.196   7.501  0.0181 -0.2120  0.8880
  879MOL0     C18535  11.307   0.103   7.536 -0.5294 -0.0080  0.5437
  879MOL0     C18536  11.313  -0.027   7.483 -0.1322 -0.3560  0.6036
  879MOL0     C18537  11.419  -0.074   7.396 -0.2736 -0.0306  0.5169
  879MOL0     O18538  11.409  -0.194   7.322 -0.0720 -0.4094  0.8138
  879MOL0     C18539  11.325  -0.308   7.357  0.4085 -0.0168 -0.3084
  879MOL0     C18540  11.377  -0.429   7.279 -0.0408  0.3146  0.2773
  879MOL0     C18541  11.528  -0.465   7.298 -0.2972  0.9701 -0.1502
  879MOL0     C18542  11.571  -0.580   7.211 -0.0828 -0.8249 -0.1907
  879MOL0     C18543  11.692  -0.639   7.257 -1.4637  0.2560  0.8354
  879MOL0     C18544  11.813  -0.546   7.253  0.2712  1.2061  0.3146
  879MOL0     C18545  11.942  -0.587   7.347  0.3198 -0.0186 -0.3412
  879MOL0     C18546  12.063  -0.525   7.268  1.4825  0.6297 -1.0793
  879MOL0     N18547  12.179  -0.519   7.352  0.0794  0.6734  0.2646
  879MOL0     C18548  12.238  -0.410   7.404  0.7892 -0.1746 -0.2848
  879MOL0     C18549  12.341  -0.444   7.480  0.3154 -0.7314  0.2786
  879MOL0     C18550  12.448  -0.361   7.554 -0.1257  0.3920  0.1464
  879MOL0     C18551  12.414  -0.225   7.610  0.0446  0.7832  0.1016
  879MOL0     C18552  12.291  -0.219   7.706  0.0790  0.0694  0.6642
  879MOL0     C18553  12.318  -0.272   7.843  0.3463 -1.0004  0.6822
  879MOL0     O18554  12.426  -0.221   7.921 -1.0640  0.3966  0.1194
  879MOL0     C18555  12.404  -0.099   7.981  0.3701 -0.2668  0.5390
  879MOL0     C18556  12.418   0.015   7.907 -0.4276  0.1848  0.0711
  879MOL0     C18557  12.418   0.140   7.966 -0.7374  0.1165  0.0464
  879MOL0     C18558  12.461   0.248   7.862  0.0321  0.2751  0.3055
  879MOL0     C18559  12.415   0.153   8.103  0.1468 -0.1941 -0.5780
  879MOL0     C18560  12.439   0.281   8.180  0.0346  0.3099 -0.3004
  879MOL0     O18561  12.451   0.264   8.310 -0.3167 -0.6990  0.3619
  879MOL0     C18562  12.447   0.372   8.384 -0.2687 -0.2486 -0.7850
  879MOL0     C18563  12.395   0.502   8.362 -0.4213  0.1681 -0.5745
  879MOL0     C18564  12.383   0.584   8.476  0.3590 -0.5271  1.3472
  879MOL0     C18565  12.443   0.564   8.598  0.4166  0.2413 -0.1287
  879MOL0     O18566  12.435   0.659   8.699  0.6560  0.4574 -0.5571
  879MOL0     C18567  12.544   0.667   8.794  0.2731 -0.9941  0.6089
  879MOL0     C18568  12.550   0.818   8.845 -0.4243 -0.2070 -0.1707
  879MOL0     C18569  12.435   0.865   8.930  0.0651 -0.0061 -0.0084
  879MOL0     C18570  12.459   0.843   9.074 -0.2807 -0.8056 -0.3216
  879MOL0     C18571  12.499   0.969   9.156 -0.4982 -0.4207 -0.7245
  879MOL0     C18572  12.514   0.943   9.306  0.2224  0.5476  0.1907
  879MOL0     C18573  12.647   0.908   9.364  0.8767 -0.4812 -0.7276
  879MOL0     C18574  12.632   0.881   9.515 -0.6250  0.0513  0.2115
  879MOL0    Cl18575  12.611   1.031   9.611 -0.4831  0.2073 -0.0773
  879MOL0     C18576  12.505   0.439   8.616 -0.6660 -0.3034  0.0499
  879MOL0     C18577  12.499   0.345   8.508  0.2324 -0.4752 -0.3558
  879MOL0     O18578  12.460   0.382   8.116 -0.4487 -0.0474  0.5482
  879MOL0     C18579  12.375   0.039   8.176  0.6991  0.4289  0.8833
  879MOL0     C18580  12.378  -0.083   8.115  0.6874 -0.7659  0.2089
  879MOL0     N18581  12.350  -0.578   7.459  0.4866 -0.3352  0.3667
  879MOL0     N18582  12.252  -0.623   7.390 -0.0290 -0.1050  0.1706
  879MOL0     C18583  11.509   0.026   7.362  0.1071 -0.1142 -0.3806
  879MOL0     C18584  11.513   0.153   7.416 -0.2030 -0.3417 -1.1728
  879MOL0     C18585  11.282   0.539   7.595 -0.5221  0.6425 -0.6041
  879MOL0     C18586  11.373   0.564   7.701 -0.9475 -0.0463  0.1142
  879MOL0     C18587  11.373   0.678   7.776  0.2050 -0.3441  0.1591
  879MOL0     C18588  11.290   0.782   7.743  0.7123 -0.3699  1.2162
  879MOL0     O18589  11.294   0.897   7.818  0.5122  0.2063  0.2900
  879MOL0     C18590  11.216   0.881   7.931 -0.1632 -0.3063 -0.1349
  879MOL0     C18591  11.152   1.015   7.973 -0.1419 -1.0617 -0.4668
  879MOL0     C18592  11.076   1.114   7.888  1.2871  0.2406  0.0864
  879MOL0     C18593  11.052   1.235   7.984  0.4746  0.7087  0.4545
  879MOL0     C18594  10.987   1.333   7.885 -0.2487  0.3825 -0.0058
  879MOL0     C18595  10.952   1.417   7.803 -0.7586  0.3569 -0.5865
  879MOL0     C18596  11.213   0.773   7.625  0.2158 -0.4438  0.1011
  879MOL0     C18597  11.216   0.650   7.547  0.3656  0.4960 -0.0615
  879MOL0     H18598  11.231   0.127   7.609 -1.1002 -1.9765  0.6770
  879MOL0     H18599  11.228  -0.089   7.509 -1.9896  1.4688 -0.7611
  879MOL0     H18600  11.333  -0.331   7.463  0.9261 -0.0235 -0.3432
  879MOL0     H18601  11.221  -0.291   7.328 -0.6914 -4.1157  0.6347
  879MOL0     H18602  11.326  -0.514   7.326  3.5538 -1.0001  2.2407
  879MOL0     H18603  11.340  -0.430   7.176 -0.8251 -2.4637  0.4906
  879MOL0     H18604  11.579  -0.373   7.269  1.1732  1.0205  2.2767
  879MOL0     H18605  11.550  -0.481   7.404 -0.2312  0.1110 -0.2868
  879MOL0     H18606  11.483  -0.646   7.220  0.5074 -2.0943 -2.6547
  879MOL0     H18607  11.570  -0.542   7.108  2.5012 -1.6785 -0.6043
  879MOL0     H18608  11.688  -0.674   7.361 -0.0608 -3.5054 -0.2131
  879MOL0     H18609  11.712  -0.727   7.195  0.5630  0.7432  0.7004
  879MOL0     H18610  11.841  -0.529   7.149  2.1769 -0.9409  0.4040
  879MOL0     H18611  11.787  -0.452   7.302 -0.2672  1.1137  0.2130
  879MOL0     H18612  11.918  -0.547   7.446  1.0099 -0.1038 -0.1356
  879MOL0     H18613  11.952  -0.696   7.355  1.2606  0.0047 -1.0880
  879MOL0     H18614  12.049  -0.430   7.217  1.2116  1.6436  0.8091
  879MOL0     H18615  12.087  -0.595   7.187 -0.1497 -1.8223  0.3918
  879MOL0     H18616  12.209  -0.307   7.389  1.8742  0.3918  1.3155
  879MOL0     H18617  12.484  -0.429   7.632 -0.2900 -3.3162 -2.7211
  879MOL0     H18618  12.531  -0.349   7.484 -0.1666 -0.7630 -0.1176
  879MOL0     H18619  12.403  -0.162   7.522  0.6244 -2.1269 -2.2271
  879MOL0     H18620  12.501  -0.207   7.673 -1.6046 -0.4801  2.9340
  879MOL0     H18621  12.212  -0.281   7.663  0.9828  0.2627 -1.4410
  879MOL0     H18622  12.234  -0.126   7.710 -1.3477 -0.8106  1.4485
  879MOL0     H18623  12.335  -0.380   7.832 -0.0945 -1.2670  2.3603
  879MOL0     H18624  12.232  -0.257   7.909 -1.8890  2.5132 -2.5995
  879MOL0     H18625  12.437  -0.005   7.801  0.9841  2.9957 -0.3010
  879MOL0     H18626  12.371   0.291   7.817 -1.4040 -1.2225  1.6227
  879MOL0     H18627  12.524   0.325   7.906  0.6608 -1.0296  1.8070
  879MOL0     H18628  12.518   0.199   7.782 -2.8468 -1.2079 -1.0172
  879MOL0     H18629  12.338   0.534   8.276 -1.1082 -2.3687 -1.1643
  879MOL0     H18630  12.310   0.664   8.463  2.6819  1.3945 -1.1460
  879MOL0     H18631  12.509   0.609   8.880 -2.2837 -1.6638 -0.7731
  879MOL0     H18632  12.637   0.639   8.744  0.1936  0.2547 -0.2922
  879MOL0     H18633  12.645   0.829   8.898 -0.2793  1.3073 -0.6860
  879MOL0     H18634  12.553   0.879   8.754 -0.3712 -0.3861 -0.2910
  879MOL0     H18635  12.344   0.808   8.909 -0.5678  1.1118 -0.3526
  879MOL0     H18636  12.419   0.971   8.910 -0.1278  0.0181  0.2737
  879MOL0     H18637  12.373   0.800   9.126 -1.9412  2.5384 -0.0047
  879MOL0     H18638  12.539   0.769   9.083 -0.5321 -1.0869 -0.3845
  879MOL0     H18639  12.420   1.043   9.141  1.0168  1.9024  1.9912
  879MOL0     H18640  12.595   1.007   9.119  0.7426 -1.6971  1.0199
  879MOL0     H18641  12.500   1.040   9.356  2.3631  1.8110 -1.4749
  879MOL0     H18642  12.436   0.873   9.337  0.5064 -0.6755 -1.7272
  879MOL0     H18643  12.710   0.988   9.326 -2.3067  1.9806 -1.2144
  879MOL0     H18644  12.687   0.816   9.320  0.5721  0.6012 -3.4787
  879MOL0     H18645  12.725   0.832   9.548 -0.5814  0.4065  0.6106
  879MOL0     H18646  12.544   0.821   9.538 -0.7939  0.1923 -0.0542
  879MOL0     H18647  12.554   0.432   8.713 -0.8850  1.3556  0.3215
  879MOL0     H18648  12.532   0.243   8.530  0.9843  0.6320  4.7872
  879MOL0     H18649  12.349   0.040   8.281  0.3168 -2.0378  0.8584
  879MOL0     H18650  12.373  -0.169   8.181  1.5015 -1.9317 -1.1768
  879MOL0     H18651  11.586   0.008   7.287  1.6097  2.9964  0.3010
  879MOL0     H18652  11.606   0.207   7.398  1.1684 -2.8225 -2.0474
  879MOL0     H18653  11.457   0.498   7.722  0.3386  1.2926 -0.6184
  879MOL0     H18654  11.456   0.684   7.846 -0.3485 -0.3654  0.8248
  879MOL0     H18655  11.141   0.802   7.916 -0.1348 -0.5061  0.7057
  879MOL0     H18656  11.275   0.856   8.020  1.1097 -0.8786 -1.1059
  879MOL0     H18657  11.241   1.074   7.998  0.3358 -0.5759 -3.0688
  879MOL0     H18658  11.096   1.003   8.066  3.6843 -1.2418  2.0421
  879MOL0     H18659  10.989   1.065   7.843  2.3223 -1.1579 -0.4354
  879MOL0     H18660  11.125   1.139   7.794  0.5452 -2.7139 -1.2140
  879MOL0     H18661  11.153   1.270   8.005  0.8086 -1.3044  2.7033
  879MOL0     H18662  10.988   1.217   8.071  0.7531 -1.0463  0.3396
  879MOL0     H18663  10.919   1.487   7.729 -2.6791 -0.5472 -0.6506
  879MOL0     H18664  11.159   0.855   7.578  0.8384 -0.6370 -1.0041
  879MOL0     H18665  11.169   0.640   7.450  0.9929  0.9073 -0.4110
  880MOL0     O18666   1.461   7.968   5.894 -0.1313 -0.1833  0.0169
  880MOL0     C18667   1.434   8.079   5.859  0.0105 -0.0737  0.7996
  880MOL0     O18668   1.448   8.116   5.735  0.4191 -0.4127  0.4335
  880MOL0     C18669   1.504   8.020   5.650 -0.0448 -0.2377 -0.9951
  880MOL0     C18670   1.641   8.034   5.632 -0.1628  0.4298 -0.0981
  880MOL0     C18671   1.710   7.959   5.534  1.3499 -0.7474  0.3232
  880MOL0     C18672   1.635   7.848   5.471  0.5588 -0.6335 -0.0879
  880MOL0     O18673   1.701   7.766   5.385  0.4763 -0.3118 -0.7097
  880MOL0     C18674   1.840   7.738   5.428  0.0295  0.8718  0.2847
  880MOL0     C18675   1.896   7.617   5.343 -0.4265  0.4138 -0.3691
  880MOL0     C18676   1.837   7.495   5.400  0.0274  0.5507 -0.8947
  880MOL0     C18677   1.685   7.484   5.396  0.4862 -0.3042 -0.2207
  880MOL0     C18678   1.639   7.334   5.375  1.1087  0.7365 -0.0480
  880MOL0     C18679   1.666   7.243   5.508 -0.6589  0.3944  0.0466
  880MOL0     C18680   1.693   7.098   5.471 -0.6780 -0.4591  0.0928
  880MOL0     C18681   1.710   7.026   5.602 -0.0381  1.1443  0.9117
  880MOL0     N18682   1.705   6.883   5.583 -0.8574  0.1527 -0.0523
  880MOL0     C18683   1.592   6.805   5.607  0.6623 -0.8683 -0.0630
  880MOL0     C18684   1.633   6.681   5.590 -0.4141 -0.2104  0.6068
  880MOL0     C18685   1.548   6.555   5.607  0.0440  0.1007 -0.1508
  880MOL0     C18686   1.617   6.441   5.687 -0.3902 -0.7448  0.6491
  880MOL0     C18687   1.706   6.357   5.610 -0.4407 -0.2099 -0.7644
  880MOL0     C18688   1.787   6.263   5.690 -0.5608 -0.4600  0.1387
  880MOL0     O18689   1.838   6.158   5.605  0.2344 -0.3060 -0.4541
  880MOL0     C18690   1.898   6.052   5.669 -0.2320 -0.1743  0.3330
  880MOL0     C18691   1.870   5.931   5.609 -0.2490 -0.3761 -0.1889
  880MOL0     C18692   1.900   5.802   5.660  0.0891  0.5768 -0.2103
  880MOL0     C18693   1.864   5.684   5.572 -0.0066  0.2535  0.1777
  880MOL0     C18694   1.994   5.797   5.770 -0.3195 -0.7949  0.0881
  880MOL0     C18695   2.054   5.679   5.835 -0.3062 -0.0645 -0.1977
  880MOL0     O18696   2.084   5.574   5.750  0.7574  0.0041 -0.2809
  880MOL0     C18697   2.119   5.451   5.799 -0.3382 -0.4599 -0.5984
  880MOL0     C18698   2.235   5.383   5.761  0.0920 -1.2049 -1.5052
  880MOL0     C18699   2.262   5.258   5.801 -1.3269 -0.1647 -0.9437
  880MOL0     C18700   2.179   5.179   5.881  0.1573  1.4424  0.1102
  880MOL0     O18701   2.219   5.054   5.909  0.0481 -0.8280 -0.2736
  880MOL0     C18702   2.123   4.938   5.895  0.8368 -0.5323  0.0490
  880MOL0     C18703   2.145   4.838   6.005 -0.3801  0.0828  0.7407
  880MOL0     C18704   2.079   4.706   5.971  0.3348 -0.5298  1.5156
  880MOL0     C18705   2.070   4.611   6.084 -0.1664 -0.7400  0.2308
  880MOL0     C18706   1.996   4.482   6.040  0.3936 -0.3511  0.5010
  880MOL0     C18707   2.083   4.402   5.944 -0.6014  0.0167  0.1021
  880MOL0     C18708   2.024   4.259   5.921  0.6139 -0.0112  0.5946
  880MOL0     C18709   1.874   4.251   5.900  0.4117  0.0946 -0.2799
  880MOL0    Cl18710   1.833   4.340   5.743 -0.0663 -0.1715 -0.1948
  880MOL0     C18711   2.055   5.239   5.923 -0.2485  0.6806 -0.2034
  880MOL0     C18712   2.030   5.377   5.886  0.0869 -0.1142 -1.1006
  880MOL0     O18713   2.058   5.674   5.961 -0.2524 -0.1993 -0.0336
  880MOL0     C18714   2.024   5.922   5.834 -0.2612 -1.1268  0.0743
  880MOL0     C18715   1.984   6.047   5.780 -0.4763 -0.2263 -0.2587
  880MOL0     N18716   1.764   6.681   5.549 -0.0131 -0.7521  0.0272
  880MOL0     N18717   1.804   6.801   5.564 -0.6502 -0.3074  0.1675
  880MOL0     C18718   1.496   7.832   5.493  0.1160  0.1383 -0.6000
  880MOL0     C18719   1.431   7.928   5.570 -0.0027  0.2687  0.0465
  880MOL0     C18720   1.419   8.185   5.961 -0.3357  0.3276 -0.3886
  880MOL0     C18721   1.376   8.312   5.927 -0.3268  1.5048 -0.0448
  880MOL0     C18722   1.368   8.411   6.014 -0.2501 -0.1587  0.7350
  880MOL0     C18723   1.411   8.392   6.148 -0.5937 -0.4882  0.5124
  880MOL0     O18724   1.406   8.492   6.241 -0.0560  0.2369  0.4812
  880MOL0     C18725   1.525   8.542   6.292 -0.4994 -0.3452  0.0059
  880MOL0     C18726   1.513   8.680   6.352 -0.5485  0.7476 -0.9771
  880MOL0     C18727   1.469   8.788   6.254 -0.8037  0.0836 -0.9105
  880MOL0     C18728   1.561   8.819   6.134 -0.3045  0.6542  1.0676
  880MOL0     C18729   1.700   8.850   6.169  0.1330 -0.6387 -0.4223
  880MOL0     C18730   1.816   8.889   6.196 -0.2280 -1.5503 -0.5191
  880MOL0     C18731   1.468   8.266   6.181  0.2961 -0.5226 -0.6295
  880MOL0     C18732   1.476   8.169   6.088 -0.0911 -0.9392  0.4200
  880MOL0     H18733   1.702   8.082   5.707 -1.4074 -1.3194  2.1476
  880MOL0     H18734   1.817   7.972   5.520  1.0082  1.9684 -0.2098
  880MOL0     H18735   1.909   7.820   5.408  2.0095 -0.9988 -1.1094
  880MOL0     H18736   1.848   7.706   5.533 -0.4676  0.1150  0.0959
  880MOL0     H18737   1.893   7.625   5.234 -1.7889 -2.4673 -0.6521
  880MOL0     H18738   1.999   7.622   5.379  0.1629 -1.1173 -1.6890
  880MOL0     H18739   1.882   7.412   5.344  1.1095  1.3702 -1.2807
  880MOL0     H18740   1.862   7.482   5.506 -1.0178 -2.3497 -0.9229
  880MOL0     H18741   1.647   7.513   5.495  4.3450 -0.0196  1.3649
  880MOL0     H18742   1.640   7.532   5.309 -3.1420 -2.4653  0.2716
  880MOL0     H18743   1.530   7.330   5.369  1.0738 -0.9476  0.8759
  880MOL0     H18744   1.694   7.301   5.286  0.8589 -0.7346  0.3113
  880MOL0     H18745   1.751   7.277   5.567 -1.2078 -2.1914  2.5451
  880MOL0     H18746   1.585   7.263   5.579 -0.1672 -1.6177  1.2456
  880MOL0     H18747   1.608   7.054   5.417 -1.0239 -1.5515  1.4830
  880MOL0     H18748   1.782   7.101   5.407 -1.9059  1.3795 -1.6663
  880MOL0     H18749   1.627   7.047   5.670  1.3640  2.3663  2.3285
  880MOL0     H18750   1.802   7.055   5.653 -2.1367  4.7613  3.0602
  880MOL0     H18751   1.496   6.838   5.646  0.5658 -3.4459  2.1113
  880MOL0     H18752   1.454   6.583   5.656  1.3938  3.2240  0.9412
  880MOL0     H18753   1.524   6.516   5.508  3.5424  0.6115 -1.3617
  880MOL0     H18754   1.534   6.372   5.705 -0.7506 -0.6001 -0.4260
  880MOL0     H18755   1.652   6.472   5.786  2.0587 -0.0198 -0.3603
  880MOL0     H18756   1.777   6.428   5.567 -1.9838  2.5589  0.9760
  880MOL0     H18757   1.650   6.301   5.535  0.1325 -1.1194 -0.5331
  880MOL0     H18758   1.716   6.228   5.766  1.8096 -0.4496  2.5176
  880MOL0     H18759   1.875   6.304   5.741 -0.3311 -0.5960 -0.1484
  880MOL0     H18760   1.810   5.931   5.519 -0.5886 -1.1452  0.0237
  880MOL0     H18761   1.765   5.678   5.527 -0.3100  0.1670  0.8369
  880MOL0     H18762   1.934   5.671   5.489 -0.6678 -0.0856 -0.3394
  880MOL0     H18763   1.873   5.587   5.623  2.0593 -0.3105 -1.1450
  880MOL0     H18764   2.308   5.421   5.690 -0.9375 -1.0072 -2.4813
  880MOL0     H18765   2.349   5.202   5.769 -0.7017 -2.2493  3.6009
  880MOL0     H18766   2.018   4.964   5.908  0.8339 -0.8524  0.7041
  880MOL0     H18767   2.148   4.897   5.796  3.2218  0.5204  0.1381
  880MOL0     H18768   2.252   4.821   6.019 -0.8396 -0.4007  4.6207
  880MOL0     H18769   2.107   4.880   6.098 -0.5313 -0.3691  0.8811
  880MOL0     H18770   2.140   4.671   5.888  0.1084  0.5851  0.8533
  880MOL0     H18771   1.976   4.727   5.941  1.2194 -0.8552 -2.2450
  880MOL0     H18772   2.170   4.584   6.117  0.8883 -1.4519 -3.1032
  880MOL0     H18773   2.018   4.662   6.166  0.2933  2.5355 -1.3502
  880MOL0     H18774   1.896   4.503   6.001 -0.0521  0.8973  2.2122
  880MOL0     H18775   1.968   4.432   6.134 -1.8721  0.0842  0.1258
  880MOL0     H18776   2.095   4.461   5.852 -2.4486  0.8168  0.3360
  880MOL0     H18777   2.185   4.398   5.984  0.0815 -0.2478 -1.5885
  880MOL0     H18778   2.058   4.201   6.007  1.4500  0.6960  0.7578
  880MOL0     H18779   2.067   4.214   5.832 -1.0187  0.6848 -0.6042
  880MOL0     H18780   1.816   4.292   5.984 -0.1518 -1.1692 -0.0321
  880MOL0     H18781   1.842   4.148   5.884  1.3023  0.0546 -2.0035
  880MOL0     H18782   1.991   5.178   5.986  3.5096 -1.5456  1.8833
  880MOL0     H18783   1.938   5.421   5.922  0.1928 -0.3875 -0.4867
  880MOL0     H18784   2.082   5.926   5.926 -0.7779  1.4305  0.3743
  880MOL0     H18785   2.024   6.142   5.814 -2.6088  0.5470  0.2319
  880MOL0     H18786   1.448   7.749   5.443 -0.7509 -0.7510  1.6006
  880MOL0     H18787   1.323   7.919   5.578  0.0204  1.5566  2.7449
  880MOL0     H18788   1.349   8.330   5.824 -1.5933  1.9000  0.3378
  880MOL0     H18789   1.340   8.510   5.980  1.0296  0.3933  1.2611
  880MOL0     H18790   1.567   8.487   6.377 -0.4238  1.4047  1.1638
  880MOL0     H18791   1.590   8.555   6.205  1.8182 -2.8107  1.2486
  880MOL0     H18792   1.611   8.709   6.390 -0.5781 -0.0966 -0.2256
  880MOL0     H18793   1.436   8.689   6.430  1.0512  1.3699  0.6085
  880MOL0     H18794   1.478   8.884   6.306 -2.4350 -1.5203  2.6061
  880MOL0     H18795   1.366   8.767   6.223 -1.0577 -0.5716  0.3273
  880MOL0     H18796   1.528   8.907   6.077  1.4770 -0.4015 -1.8227
  880MOL0     H18797   1.556   8.729   6.073  2.9643 -0.6582  2.5134
  880MOL0     H18798   1.912   8.929   6.221 -0.2593 -1.4066 -0.6248
  880MOL0     H18799   1.494   8.236   6.282 -4.1946  0.9604  1.2329
  880MOL0     H18800   1.535   8.082   6.115  0.4085 -0.4619  0.9228
  881MOL0     O18801   3.735   9.223   2.182  1.1745  0.8630  0.0373
  881MOL0     C18802   3.852   9.249   2.166  0.6386  0.2605 -0.3850
  881MOL0     O18803   3.943   9.227   2.271 -0.0390  0.3134  0.6154
  881MOL0     C18804   3.905   9.205   2.399 -0.3304  0.8050  0.0703
  881MOL0     C18805   4.013   9.152   2.472  0.5201  0.4864 -0.5222
  881MOL0     C18806   4.004   9.137   2.607 -0.6635 -0.2294  0.3219
  881MOL0     C18807   3.886   9.176   2.677 -0.2625  1.3187 -0.1188
  881MOL0     O18808   3.875   9.168   2.821  0.4867  1.2634 -0.2284
  881MOL0     C18809   3.978   9.124   2.903  1.1505 -0.0390 -0.6621
  881MOL0     C18810   3.939   9.150   3.054  0.5223 -0.0987 -0.7036
  881MOL0     C18811   3.798   9.097   3.101 -0.2197  0.4078  0.6941
  881MOL0     C18812   3.746   9.134   3.247  0.2072 -0.7085  0.3961
  881MOL0     C18813   3.621   9.064   3.287  0.2859  0.5096 -0.0399
  881MOL0     C18814   3.563   9.097   3.429 -0.1285 -0.0623  0.5122
  881MOL0     C18815   3.429   9.026   3.446 -0.7170  0.0438 -0.2589
  881MOL0     C18816   3.323   9.121   3.380  0.6093  0.6502  0.0694
  881MOL0     N18817   3.193   9.056   3.408 -0.1379 -0.3865 -0.0255
  881MOL0     C18818   3.118   9.009   3.306 -1.4487  0.0035 -0.1273
  881MOL0     C18819   3.006   8.966   3.373  0.5248  0.3010 -0.5965
  881MOL0     C18820   2.894   8.874   3.310  0.4169  0.4980  0.3688
  881MOL0     C18821   2.907   8.732   3.349 -0.0662 -0.5353 -0.1793
  881MOL0     C18822   2.765   8.668   3.366 -0.0163 -0.1952  0.6180
  881MOL0     C18823   2.693   8.651   3.222  0.2641  0.9112  0.3225
  881MOL0     O18824   2.784   8.571   3.142  0.1611 -0.0640 -0.4930
  881MOL0     C18825   2.778   8.551   3.008  0.5325 -0.4363 -0.3126
  881MOL0     C18826   2.888   8.500   2.948 -0.2983 -0.5326 -0.1541
  881MOL0     C18827   2.899   8.461   2.815 -0.0204 -0.7767  0.2882
  881MOL0     C18828   3.027   8.398   2.767  0.0964  0.7714 -0.0898
  881MOL0     C18829   2.785   8.495   2.733  0.3177  0.1816 -0.6762
  881MOL0     C18830   2.773   8.479   2.590 -0.3108  0.3699 -1.0701
  881MOL0     O18831   2.891   8.466   2.513 -0.3138  0.0508 -0.1310
  881MOL0     C18832   2.879   8.441   2.380 -0.8159  0.0104 -0.0608
  881MOL0     C18833   2.884   8.317   2.323  0.2287 -0.8451 -1.0485
  881MOL0     C18834   2.881   8.290   2.186  0.6712  0.5765  1.1168
  881MOL0     C18835   2.903   8.398   2.098 -0.0378  0.2775 -0.5924
  881MOL0     O18836   2.921   8.378   1.970  0.5117  0.1474  0.2894
  881MOL0     C18837   3.064   8.358   1.943 -0.2699 -0.7851 -1.0158
  881MOL0     C18838   3.080   8.313   1.795 -0.0517  0.0778 -0.6142
  881MOL0     C18839   3.156   8.421   1.720  0.4382 -0.3095  0.0754
  881MOL0     C18840   3.203   8.361   1.581  0.8434 -0.1840  0.3868
  881MOL0     C18841   3.284   8.463   1.497 -0.2391 -0.5082 -0.3922
  881MOL0     C18842   3.349   8.387   1.380 -0.6267 -0.0411 -0.4840
  881MOL0     C18843   3.474   8.466   1.324  0.1179 -0.5151  0.1754
  881MOL0     C18844   3.549   8.406   1.202  0.2685 -0.5989  1.4227
  881MOL0    Cl18845   3.451   8.440   1.053 -0.2186 -0.1046  0.2080
  881MOL0     C18846   2.894   8.532   2.151  0.5967  0.6978 -0.3145
  881MOL0     C18847   2.879   8.544   2.290 -0.9132  0.0799  0.7704
  881MOL0     O18848   2.660   8.465   2.548 -0.0585 -0.9050  0.0131
  881MOL0     C18849   2.665   8.554   2.795 -0.0748  0.0122  0.5174
  881MOL0     C18850   2.667   8.587   2.933 -0.5162  0.7458 -0.2570
  881MOL0     N18851   3.019   8.971   3.508 -0.3879  1.0792 -0.5294
  881MOL0     N18852   3.135   9.029   3.533  0.5596  0.3233  0.1480
  881MOL0     C18853   3.785   9.216   2.602  0.1512 -0.0939 -0.2978
  881MOL0     C18854   3.787   9.233   2.462  0.0452  0.3089  0.1631
  881MOL0     C18855   3.904   9.267   2.039 -0.9770 -0.3587 -0.3643
  881MOL0     C18856   3.993   9.368   2.017 -0.6182 -0.4067 -0.4377
  881MOL0     C18857   4.030   9.409   1.883  1.2233  0.1436 -0.3785
  881MOL0     C18858   3.970   9.353   1.777 -0.0645  0.3865  0.3978
  881MOL0     O18859   3.983   9.395   1.643 -0.3314 -0.6370 -1.2133
  881MOL0     C18860   4.039   9.533   1.630  0.3902  0.2449 -0.2061
  881MOL0     C18861   4.031   9.592   1.487 -0.3065  0.7147  0.8239
  881MOL0     C18862   3.899   9.660   1.451 -1.1929  0.5348  0.3608
  881MOL0     C18863   3.891   9.701   1.300 -0.0717 -0.2477  0.3734
  881MOL0     C18864   3.977   9.813   1.259  0.2517 -0.3304  0.7584
  881MOL0     C18865   4.036   9.914   1.213  0.2014  0.7951  0.5594
  881MOL0     C18866   3.881   9.249   1.797 -1.0493 -1.3441  0.5480
  881MOL0     C18867   3.851   9.205   1.928  0.5455  0.1680 -0.1750
  881MOL0     H18868   4.106   9.137   2.417  0.4726 -0.4419 -0.3679
  881MOL0     H18869   4.094   9.099   2.653  0.3527  0.3106 -1.1516
  881MOL0     H18870   3.993   9.017   2.884  1.9038  0.3208 -2.2708
  881MOL0     H18871   4.070   9.180   2.882  2.8442 -0.5968  4.0148
  881MOL0     H18872   4.014   9.119   3.128 -0.2601  0.8319  0.5156
  881MOL0     H18873   3.935   9.258   3.071 -0.3167 -0.1998 -0.2496
  881MOL0     H18874   3.724   9.126   3.025 -0.0816  2.0761  1.1539
  881MOL0     H18875   3.805   8.990   3.082  1.9503  1.0210 -2.8598
  881MOL0     H18876   3.818   9.126   3.329 -2.0905  0.3253  2.6814
  881MOL0     H18877   3.733   9.239   3.218  0.4431 -0.7404  0.1745
  881MOL0     H18878   3.548   9.080   3.208  1.6845 -1.8223 -1.9367
  881MOL0     H18879   3.645   8.957   3.293 -0.3424  0.4423  2.8921
  881MOL0     H18880   3.634   9.077   3.509 -1.9116  0.6775  2.3647
  881MOL0     H18881   3.541   9.204   3.425 -2.1973  0.0916  6.2655
  881MOL0     H18882   3.428   8.930   3.395 -1.2132  0.2097 -0.5730
  881MOL0     H18883   3.410   9.003   3.551  3.2130  0.0140  0.6005
  881MOL0     H18884   3.341   9.135   3.273  0.4655 -2.3849 -0.4226
  881MOL0     H18885   3.329   9.221   3.425  2.9582  0.0411  1.3021
  881MOL0     H18886   3.133   8.997   3.199 -2.4218  0.1090 -0.2861
  881MOL0     H18887   2.793   8.907   3.338  0.5990  0.3481  1.2460
  881MOL0     H18888   2.902   8.872   3.201 -1.2281  0.5987  0.2157
  881MOL0     H18889   2.950   8.740   3.449 -1.2382 -0.3627  0.3225
  881MOL0     H18890   2.984   8.684   3.288  2.2648  0.2346  1.9944
  881MOL0     H18891   2.706   8.726   3.437  0.0271  1.6756 -0.7864
  881MOL0     H18892   2.780   8.565   3.401  1.2211 -0.5956 -0.9503
  881MOL0     H18893   2.670   8.745   3.172 -1.2425 -1.0516 -3.0012
  881MOL0     H18894   2.601   8.593   3.233 -1.2003  2.8651 -0.8714
  881MOL0     H18895   2.969   8.488   3.019  0.1866 -0.0932 -0.6215
  881MOL0     H18896   3.076   8.350   2.852  0.6825 -0.7392 -1.2441
  881MOL0     H18897   3.008   8.324   2.689 -1.6251  0.6128  0.4356
  881MOL0     H18898   3.094   8.472   2.722 -0.1660 -0.7434 -3.2006
  881MOL0     H18899   2.874   8.236   2.395  1.1611  0.6268  0.8326
  881MOL0     H18900   2.874   8.193   2.137  2.6987 -0.3190  2.4760
  881MOL0     H18901   3.112   8.447   1.983  0.9037 -1.2197 -1.4187
  881MOL0     H18902   3.100   8.269   1.995  1.4501 -1.4590 -3.1996
  881MOL0     H18903   3.126   8.213   1.793 -0.8698 -0.3221 -0.1574
  881MOL0     H18904   2.984   8.290   1.747 -0.6082  1.2153 -0.0773
  881MOL0     H18905   3.238   8.471   1.773  0.2437  2.9004 -2.3677
  881MOL0     H18906   3.089   8.503   1.693 -2.2570 -1.9185  1.3891
  881MOL0     H18907   3.257   8.270   1.608 -1.1559 -2.9922 -3.8589
  881MOL0     H18908   3.115   8.334   1.521  2.2710 -2.9774 -0.6397
  881MOL0     H18909   3.359   8.509   1.561  1.6418  0.0683 -2.8534
  881MOL0     H18910   3.223   8.543   1.454 -1.1728 -1.1992 -0.3932
  881MOL0     H18911   3.372   8.286   1.415  1.3630 -0.1913 -2.0113
  881MOL0     H18912   3.277   8.365   1.301  0.1710  0.8823 -1.5135
  881MOL0     H18913   3.557   8.471   1.395  0.8534 -2.0427 -0.5427
  881MOL0     H18914   3.453   8.571   1.298 -2.4006 -1.3716 -1.5809
  881MOL0     H18915   3.573   8.299   1.204  3.2786 -0.0412  0.8194
  881MOL0     H18916   3.646   8.457   1.197  0.7962 -1.5976  1.2590
  881MOL0     H18917   2.891   8.619   2.085 -1.1575  2.7472  2.2513
  881MOL0     H18918   2.867   8.647   2.323  0.0855  0.2548  0.6103
  881MOL0     H18919   2.581   8.592   2.737  0.8630  2.3166  0.5638
  881MOL0     H18920   2.586   8.639   2.984  1.2199  2.5741  0.7559
  881MOL0     H18921   3.691   9.230   2.653 -0.2887 -2.2133 -0.4447
  881MOL0     H18922   3.696   9.274   2.417 -0.1474  1.0594  1.1906
  881MOL0     H18923   4.051   9.410   2.098 -0.8835  0.6304 -0.7668
  881MOL0     H18924   4.112   9.480   1.873  0.4436  0.9824 -0.9586
  881MOL0     H18925   3.978   9.592   1.700  0.7781  0.7770 -0.3123
  881MOL0     H18926   4.145   9.532   1.658 -0.1383  3.0778  2.4766
  881MOL0     H18927   4.047   9.511   1.415  0.6177  0.0723  1.7244
  881MOL0     H18928   4.113   9.663   1.475 -2.3078  3.3195  1.7327
  881MOL0     H18929   3.882   9.754   1.504 -0.5669 -0.1235  1.7688
  881MOL0     H18930   3.812   9.600   1.479 -1.4611 -0.3437 -2.1043
  881MOL0     H18931   3.789   9.718   1.263 -0.1534  0.5890  0.9654
  881MOL0     H18932   3.925   9.620   1.236  0.1737 -2.1668  2.7963
  881MOL0     H18933   4.094   9.987   1.161 -1.3215  0.9904 -0.9665
  881MOL0     H18934   3.833   9.215   1.706 -0.1386  1.6934 -1.1993
  881MOL0     H18935   3.775   9.127   1.931  2.4216 -1.8293 -1.2182
  882MOL0     O18936   6.815   0.460   9.541 -0.6237  0.3113  0.0057
  882MOL0     C18937   6.781   0.507   9.432  0.5678  0.4028  0.1904
  882MOL0     O18938   6.808   0.450   9.302 -0.1916  0.0319 -0.6007
  882MOL0     C18939   6.904   0.346   9.292  0.6872 -0.1136 -0.0992
  882MOL0     C18940   6.863   0.236   9.216 -0.3337  0.6848  0.2055
  882MOL0     C18941   6.945   0.129   9.195  0.0666  0.2293  0.2134
  882MOL0     C18942   7.068   0.122   9.262 -0.3336  0.4832 -0.0461
  882MOL0     O18943   7.155   0.020   9.241 -0.3340  0.6473  0.3490
  882MOL0     C18944   7.128  -0.119   9.270 -0.2363  0.3675 -0.7107
  882MOL0     C18945   7.259  -0.172   9.313 -1.0295 -0.3102 -0.3229
  882MOL0     C18946   7.353  -0.193   9.199  0.2233 -0.4088  0.3334
  882MOL0     C18947   7.441  -0.314   9.232  0.9335  0.0459  0.3047
  882MOL0     C18948   7.524  -0.295   9.359  0.4737 -0.1428  0.8710
  882MOL0     C18949   7.650  -0.384   9.338  0.5185 -0.4307 -0.1490
  882MOL0     C18950   7.739  -0.386   9.454 -1.1836  0.9399 -0.3133
  882MOL0     C18951   7.841  -0.276   9.460 -0.1145 -0.8156 -0.1774
  882MOL0     N18952   7.963  -0.318   9.533 -0.2538 -0.3443  0.7400
  882MOL0     C18953   8.043  -0.423   9.496  0.4196 -0.9721 -0.3288
  882MOL0     C18954   8.148  -0.417   9.582  0.0948  0.5143 -0.0290
  882MOL0     C18955   8.265  -0.526   9.580 -0.3279  0.1571 -0.5631
  882MOL0     C18956   8.401  -0.462   9.545 -0.5297  0.0446 -0.0690
  882MOL0     C18957   8.512  -0.547   9.622 -0.1111  1.3125  0.0432
  882MOL0     C18958   8.549  -0.675   9.542 -0.0231 -0.5114  0.1629
  882MOL0     O18959   8.638  -0.749   9.637 -0.2716  0.3920  0.4469
  882MOL0     C18960   8.727  -0.834   9.582 -0.2506 -0.4068  0.0116
  882MOL0     C18961   8.862  -0.805   9.596  0.5738 -0.8713 -0.2461
  882MOL0     C18962   8.971  -0.869   9.539  0.7277 -0.3178  0.9660
  882MOL0     C18963   9.118  -0.818   9.555  0.1524  0.0370  0.2813
  882MOL0     C18964   8.937  -0.986   9.465  0.1268 -0.7846 -0.6810
  882MOL0     C18965   9.036  -1.081   9.409  0.5148 -0.0859  0.0313
  882MOL0     O18966   8.980  -1.198   9.376 -0.6947 -0.5943 -0.1523
  882MOL0     C18967   9.063  -1.300   9.337  0.2171  0.6695 -0.4847
  882MOL0     C18968   9.119  -1.375   9.444  0.9191 -0.5546  0.4144
  882MOL0     C18969   9.204  -1.483   9.399  0.6917  0.3335 -0.9996
  882MOL0     C18970   9.228  -1.514   9.267 -0.6176  0.5477  1.4231
  882MOL0     O18971   9.315  -1.607   9.210 -0.0236 -1.2964  0.2782
  882MOL0     C18972   9.372  -1.710   9.304 -0.1847 -0.6594  0.0169
  882MOL0     C18973   9.313  -1.840   9.246  0.2878  0.0343 -0.7449
  882MOL0     C18974   9.359  -1.961   9.335  0.2258  0.0475 -0.0661
  882MOL0     C18975   9.489  -2.031   9.289 -0.6339  0.7415 -0.6960
  882MOL0     C18976   9.469  -2.112   9.159 -0.7014  0.2193  0.3224
  882MOL0     C18977   9.579  -2.212   9.121 -0.5596  0.3074 -0.3281
  882MOL0     C18978   9.713  -2.147   9.149 -0.6585 -0.0213 -0.8873
  882MOL0     C18979   9.829  -2.218   9.103 -0.8195  0.1542 -0.2059
  882MOL0    Cl18980   9.839  -2.375   9.190 -0.9013  0.0478  0.0962
  882MOL0     C18981   9.169  -1.436   9.164 -0.1638  0.5985  0.8611
  882MOL0     C18982   9.080  -1.335   9.206 -0.4340  0.5526  0.4697
  882MOL0     O18983   9.157  -1.059   9.398  0.2811 -0.3248  0.1972
  882MOL0     C18984   8.797  -1.017   9.439 -0.0418  0.8371 -0.4262
  882MOL0     C18985   8.693  -0.941   9.494 -0.9701 -0.2384  0.7710
  882MOL0     N18986   8.126  -0.325   9.690  0.1789 -0.2667  0.1509
  882MOL0     N18987   8.023  -0.267   9.646 -0.7005  0.5071  1.5752
  882MOL0     C18988   7.113   0.227   9.341  0.0159  0.0795  0.6562
  882MOL0     C18989   7.031   0.344   9.356 -0.4727 -0.1049 -0.3408
  882MOL0     C18990   6.698   0.632   9.429 -0.5895  0.4631  0.3357
  882MOL0     C18991   6.685   0.707   9.557 -0.1452  0.2872  0.6925
  882MOL0     C18992   6.608   0.823   9.558  0.2162  0.2799 -0.2833
  882MOL0     C18993   6.556   0.878   9.443  1.0031  0.2263  0.1959
  882MOL0     O18994   6.479   0.994   9.444  0.2263 -0.2411 -0.4962
  882MOL0     C18995   6.388   1.042   9.324 -0.3194 -0.4457  0.5960
  882MOL0     C18996   6.462   1.138   9.229 -0.8302 -1.1015  0.0992
  882MOL0     C18997   6.383   1.172   9.099  0.1445 -0.1422  0.8058
  882MOL0     C18998   6.409   1.084   8.974 -0.0395 -0.3163 -0.3840
  882MOL0     C18999   6.377   0.944   8.988  0.4475 -0.0445 -0.4371
  882MOL0     C19000   6.368   0.819   8.994 -0.8729  0.2447 -0.1176
  882MOL0     C19001   6.575   0.812   9.317 -0.7585 -0.9564  0.4581
  882MOL0     C19002   6.640   0.691   9.309  0.2443  0.4931 -0.0614
  882MOL0     H19003   6.771   0.263   9.166 -0.7017 -3.2537 -1.6365
  882MOL0     H19004   6.914   0.047   9.131  2.4636 -1.0712  0.5760
  882MOL0     H19005   7.060  -0.122   9.355 -1.7816  0.1721 -1.8949
  882MOL0     H19006   7.081  -0.183   9.195  1.2917 -1.8737  0.1403
  882MOL0     H19007   7.309  -0.106   9.384  1.0439 -1.2643 -0.8141
  882MOL0     H19008   7.239  -0.260   9.376 -0.8937 -0.0175  0.1364
  882MOL0     H19009   7.302  -0.217   9.106 -0.8478  2.2600  0.1411
  882MOL0     H19010   7.427  -0.113   9.182  2.0230 -1.7378  1.4760
  882MOL0     H19011   7.382  -0.406   9.223  1.1920 -0.5463  3.6640
  882MOL0     H19012   7.511  -0.324   9.149 -0.3127 -0.0540 -0.7800
  882MOL0     H19013   7.544  -0.188   9.369 -3.1471  0.5525  2.5981
  882MOL0     H19014   7.455  -0.329   9.437 -0.0025  1.4878  1.2038
  882MOL0     H19015   7.615  -0.484   9.313  0.0683 -0.0608 -1.0358
  882MOL0     H19016   7.704  -0.353   9.248 -3.3598  1.1591 -2.1715
  882MOL0     H19017   7.684  -0.392   9.548 -1.5995  1.6492 -0.5095
  882MOL0     H19018   7.808  -0.472   9.448  0.5671  1.8943  3.1630
  882MOL0     H19019   7.791  -0.196   9.514 -1.6671  0.7165 -3.5767
  882MOL0     H19020   7.860  -0.245   9.357 -1.7830  1.4463  0.1253
  882MOL0     H19021   8.027  -0.484   9.408  2.2446 -0.2436 -1.2217
  882MOL0     H19022   8.265  -0.576   9.678 -3.9319  0.7301 -0.1344
  882MOL0     H19023   8.252  -0.600   9.500  0.6689 -4.0196  2.7312
  882MOL0     H19024   8.422  -0.357   9.571 -1.4610  0.7156 -1.8626
  882MOL0     H19025   8.415  -0.454   9.437 -3.2925  1.2091 -0.4297
  882MOL0     H19026   8.479  -0.569   9.724  1.2641  2.8266  0.8716
  882MOL0     H19027   8.605  -0.490   9.636  1.8642 -1.9386  1.8003
  882MOL0     H19028   8.603  -0.632   9.457 -1.3884  0.9742 -0.0116
  882MOL0     H19029   8.453  -0.724   9.523 -1.2930  1.9118 -0.0451
  882MOL0     H19030   8.889  -0.723   9.662 -2.8579 -0.0485  0.3005
  882MOL0     H19031   9.175  -0.887   9.619  2.0410  2.6661  1.6400
  882MOL0     H19032   9.170  -0.795   9.461  0.2271 -2.7262 -0.4474
  882MOL0     H19033   9.118  -0.724   9.611  1.9016  1.3952 -1.8452
  882MOL0     H19034   9.080  -1.353   9.543 -0.8419  2.4734 -0.8060
  882MOL0     H19035   9.229  -1.538   9.489 -1.0594  0.7903 -0.1962
  882MOL0     H19036   9.480  -1.697   9.305 -0.1488  0.0749 -3.2467
  882MOL0     H19037   9.330  -1.711   9.405 -0.1067  4.7044  0.3982
  882MOL0     H19038   9.204  -1.841   9.237  0.1136  4.8441 -1.8525
  882MOL0     H19039   9.348  -1.838   9.143  0.6705  1.3010 -0.6155
  882MOL0     H19040   9.278  -2.035   9.345  1.1168 -1.6792 -3.8049
  882MOL0     H19041   9.392  -1.924   9.433  4.1011  3.9129 -2.4900
  882MOL0     H19042   9.571  -1.959   9.283 -0.3674  0.6424  1.3547
  882MOL0     H19043   9.511  -2.097   9.373 -4.4062  1.7911  1.2992
  882MOL0     H19044   9.471  -2.050   9.068 -0.0046 -1.5893 -0.9687
  882MOL0     H19045   9.375  -2.167   9.150  0.1073 -1.3378  0.8922
  882MOL0     H19046   9.552  -2.290   9.193 -2.5049 -1.1588 -2.4904
  882MOL0     H19047   9.570  -2.250   9.019 -2.1513 -0.5287  0.0877
  882MOL0     H19048   9.725  -2.141   9.257 -1.1116 -1.8120 -0.7140
  882MOL0     H19049   9.719  -2.044   9.112 -1.1866  0.1962 -0.3766
  882MOL0     H19050   9.923  -2.168   9.127  1.2409 -3.1754 -0.6537
  882MOL0     H19051   9.819  -2.225   8.994 -1.3078 -0.5524 -0.1248
  882MOL0     H19052   9.188  -1.466   9.062 -2.0231 -1.9314  1.1645
  882MOL0     H19053   9.019  -1.266   9.147 -0.5066  0.5285  0.5166
  882MOL0     H19054   8.771  -1.099   9.374  0.8367  1.0011 -1.0031
  882MOL0     H19055   8.599  -0.995   9.489 -1.5337  0.6494  1.4810
  882MOL0     H19056   7.206   0.229   9.397 -0.8130  1.0177  2.0520
  882MOL0     H19057   7.052   0.418   9.433  1.4789 -0.8995 -0.0559
  882MOL0     H19058   6.728   0.658   9.644 -1.4324 -0.1236  1.1205
  882MOL0     H19059   6.600   0.879   9.651  3.5289 -0.5293  0.6075
  882MOL0     H19060   6.338   0.956   9.277 -1.6872 -0.7483  2.4852
  882MOL0     H19061   6.297   1.092   9.357 -1.2328 -1.2658 -0.5452
  882MOL0     H19062   6.551   1.077   9.211 -1.6660 -1.8167 -1.8728
  882MOL0     H19063   6.485   1.235   9.274 -3.6252 -0.1109 -0.3992
  882MOL0     H19064   6.414   1.270   9.061  0.6876 -1.0096 -1.0708
  882MOL0     H19065   6.279   1.164   9.133  0.1453  0.2443  0.9046
  882MOL0     H19066   6.514   1.091   8.944 -0.8135 -0.0194 -3.4267
  882MOL0     H19067   6.348   1.123   8.892  1.8880 -2.1728 -2.8821
  882MOL0     H19068   6.380   0.714   9.007  0.3795  0.5326  1.2741
  882MOL0     H19069   6.547   0.849   9.219  5.2730 -0.8608 -1.6972
  882MOL0     H19070   6.658   0.649   9.211  3.9519  0.6836  0.4215
  883MOL0     O19071   7.036   0.161   7.263  0.3013  0.3980 -0.3003
  883MOL0     C19072   7.069   0.118   7.149 -0.1044  0.4153 -0.0491
  883MOL0     O19073   6.998   0.139   7.031  0.2022 -0.0181  0.5297
  883MOL0     C19074   6.910   0.240   7.025  0.1941  0.5660  0.3098
  883MOL0     C19075   6.936   0.344   6.936 -0.5977 -0.8718 -0.1795
  883MOL0     C19076   6.840   0.444   6.913 -0.2584 -0.2441 -0.0024
  883MOL0     C19077   6.723   0.441   6.987  0.2212  0.7935  0.5349
  883MOL0     O19078   6.627   0.540   6.988 -1.3931  0.0020  0.5072
  883MOL0     C19079   6.669   0.675   6.955  1.0473 -0.5785 -0.3686
  883MOL0     C19080   6.589   0.800   7.009 -0.3645 -1.2110  0.8169
  883MOL0     C19081   6.631   0.939   6.938  0.7007  0.1773 -0.0688
  883MOL0     C19082   6.527   1.053   6.972 -0.2307 -0.1677  0.9154
  883MOL0     C19083   6.498   1.141   6.854 -0.6187 -0.7315 -0.0039
  883MOL0     C19084   6.621   1.211   6.802 -0.9887 -0.2392 -0.6927
  883MOL0     C19085   6.576   1.326   6.697 -0.0734  0.6210 -0.5192
  883MOL0     C19086   6.568   1.266   6.563 -0.4411 -0.3803  0.0341
  883MOL0     N19087   6.533   1.355   6.463  0.6047 -1.6066  0.2435
  883MOL0     C19088   6.622   1.394   6.367 -0.1193 -1.0115  0.1299
  883MOL0     C19089   6.553   1.480   6.290 -0.1761  0.2554  0.3518
  883MOL0     C19090   6.614   1.543   6.164 -0.1800  0.4605  0.2049
  883MOL0     C19091   6.565   1.685   6.153 -0.3202  0.8020 -0.1784
  883MOL0     C19092   6.645   1.773   6.062  0.1042 -0.1327  0.5862
  883MOL0     C19093   6.584   1.906   6.032 -0.3583  0.7002 -0.3131
  883MOL0     O19094   6.547   1.959   6.158  0.3808 -0.6698 -0.6940
  883MOL0     C19095   6.532   2.095   6.158  0.1502  0.9905 -0.1758
  883MOL0     C19096   6.499   2.175   6.048  1.1711 -1.3343  0.0345
  883MOL0     C19097   6.480   2.314   6.056 -1.2006  0.0600 -0.7531
  883MOL0     C19098   6.420   2.386   5.934 -0.8468  0.1721  0.0961
  883MOL0     C19099   6.522   2.379   6.182 -0.5495  0.9360  0.2409
  883MOL0     C19100   6.518   2.522   6.214  0.1340 -1.5219  0.7779
  883MOL0     O19101   6.556   2.569   6.335 -0.3574  0.4940  0.0358
  883MOL0     C19102   6.593   2.700   6.368 -0.0524 -0.1525  0.7658
  883MOL0     C19103   6.544   2.816   6.310 -0.1383  0.2774 -0.0812
  883MOL0     C19104   6.574   2.945   6.356  0.6344  0.2843 -0.9160
  883MOL0     C19105   6.659   2.970   6.468  0.0525 -0.6482 -0.0202
  883MOL0     O19106   6.712   3.095   6.505  0.1381  0.3897  0.5334
  883MOL0     C19107   6.656   3.216   6.452 -0.6037  0.5090 -0.3183
  883MOL0     C19108   6.758   3.329   6.449  0.7018  0.3435 -0.2283
  883MOL0     C19109   6.902   3.301   6.384  0.3340 -0.1097  0.4034
  883MOL0     C19110   7.002   3.407   6.431  0.0413  0.5343  0.0055
  883MOL0     C19111   6.986   3.544   6.376 -0.4117 -0.2245  0.6246
  883MOL0     C19112   6.976   3.570   6.222  1.2597 -0.2498 -0.0597
  883MOL0     C19113   7.071   3.495   6.133 -0.6340  0.9599 -0.2156
  883MOL0     C19114   7.063   3.516   5.976  0.0308 -0.1513 -0.3038
  883MOL0    Cl19115   7.178   3.402   5.922  0.1942  0.4461 -0.6692
  883MOL0     C19116   6.702   2.853   6.532  0.2843 -0.0632 -1.2318
  883MOL0     C19117   6.672   2.725   6.484 -0.1679  0.3305  0.5081
  883MOL0     O19118   6.461   2.589   6.127  0.8081 -0.3649  0.0495
  883MOL0     C19119   6.575   2.297   6.285  0.6292 -0.4035 -0.6084
  883MOL0     C19120   6.575   2.151   6.281  0.3615 -0.1893 -0.1847
  883MOL0     N19121   6.433   1.496   6.344  0.5391  0.4306  0.7638
  883MOL0     N19122   6.421   1.430   6.449 -0.4154  0.1638  0.1321
  883MOL0     C19123   6.698   0.335   7.081  0.3098 -0.4459  0.2462
  883MOL0     C19124   6.793   0.237   7.105 -0.1125 -0.2550 -0.4766
  883MOL0     C19125   7.171   0.010   7.157 -0.8510 -0.1329  0.2061
  883MOL0     C19126   7.283   0.024   7.241 -0.7553 -0.5519  0.4548
  883MOL0     C19127   7.377  -0.077   7.252 -1.0083 -0.1920  0.2641
  883MOL0     C19128   7.366  -0.192   7.178  0.4961 -0.0284  0.7285
  883MOL0     O19129   7.468  -0.279   7.212 -0.5070  0.2072  0.2909
  883MOL0     C19130   7.474  -0.402   7.134  0.7855 -0.1371  0.0852
  883MOL0     C19131   7.583  -0.495   7.205 -0.2053 -0.0448  0.1750
  883MOL0     C19132   7.706  -0.417   7.241 -0.5692 -0.3693 -0.0346
  883MOL0     C19133   7.816  -0.495   7.312 -0.2340  0.3892 -0.9214
  883MOL0     C19134   7.805  -0.498   7.461 -0.2531 -0.5859  0.1855
  883MOL0     C19135   7.805  -0.516   7.583  0.6809 -0.4044 -0.2526
  883MOL0     C19136   7.253  -0.207   7.088  0.3684  0.8097 -0.5990
  883MOL0     C19137   7.156  -0.109   7.085 -1.0089 -0.4270 -0.2498
  883MOL0     H19138   7.029   0.342   6.881 -1.7743 -3.5092 -2.3525
  883MOL0     H19139   6.869   0.519   6.840  3.1598 -0.5109  0.9191
  883MOL0     H19140   6.774   0.683   6.985  1.4818  0.6634 -2.0265
  883MOL0     H19141   6.678   0.669   6.846  0.5892 -0.4174 -0.4146
  883MOL0     H19142   6.485   0.782   6.981 -0.4163  1.2460 -0.9184
  883MOL0     H19143   6.594   0.817   7.117  5.1310  3.3277  0.3343
  883MOL0     H19144   6.736   0.967   6.951  1.1692  1.5575 -4.9218
  883MOL0     H19145   6.613   0.915   6.833 -1.2680 -0.0421  0.2777
  883MOL0     H19146   6.430   1.021   7.010 -0.2548  0.3626  1.3271
  883MOL0     H19147   6.557   1.112   7.060 -1.7877 -1.6097  2.4794
  883MOL0     H19148   6.446   1.083   6.777 -3.1834  0.8006  0.4640
  883MOL0     H19149   6.429   1.217   6.891 -2.3262 -1.6563 -1.1557
  883MOL0     H19150   6.674   1.255   6.887 -2.0801 -1.2792  0.5730
  883MOL0     H19151   6.686   1.137   6.754  1.7996  1.3890  0.3443
  883MOL0     H19152   6.476   1.357   6.729  0.0733  0.1444  0.4329
  883MOL0     H19153   6.642   1.413   6.710 -0.9767  0.9182  3.2887
  883MOL0     H19154   6.493   1.189   6.578 -1.5248  0.2474 -1.7800
  883MOL0     H19155   6.668   1.233   6.531  0.8710  1.2611  2.1743
  883MOL0     H19156   6.718   1.345   6.352 -0.0680 -1.7550  2.4961
  883MOL0     H19157   6.723   1.534   6.163 -0.1906  0.3654 -0.0465
  883MOL0     H19158   6.579   1.485   6.079 -0.0291  0.4157  0.1727
  883MOL0     H19159   6.560   1.732   6.251 -2.3197  0.4827 -0.0842
  883MOL0     H19160   6.468   1.673   6.104  0.5010  0.3108 -1.7796
  883MOL0     H19161   6.663   1.720   5.968 -3.7635 -2.4319  0.9211
  883MOL0     H19162   6.740   1.790   6.114  0.0232 -3.1218  1.9731
  883MOL0     H19163   6.498   1.885   5.968 -2.2858 -1.5949  2.7227
  883MOL0     H19164   6.656   1.964   5.974 -2.0573  1.6694 -1.5495
  883MOL0     H19165   6.469   2.121   5.959  0.3045  0.7749 -1.0235
  883MOL0     H19166   6.320   2.417   5.966 -0.3983  1.4794  0.2970
  883MOL0     H19167   6.489   2.465   5.903  0.9567 -1.3368  0.0956
  883MOL0     H19168   6.417   2.317   5.849  2.6190 -0.0676  0.0363
  883MOL0     H19169   6.498   2.802   6.213  1.8931  0.8914 -1.1870
  883MOL0     H19170   6.520   3.027   6.309  1.6872 -0.1168 -2.9392
  883MOL0     H19171   6.628   3.206   6.346 -3.6911 -1.1341  0.5312
  883MOL0     H19172   6.561   3.233   6.504 -0.9952  1.6166 -1.3351
  883MOL0     H19173   6.719   3.411   6.387 -2.6808 -0.5489  0.5047
  883MOL0     H19174   6.764   3.358   6.554 -0.4802 -1.4578  0.3815
  883MOL0     H19175   6.898   3.303   6.275 -1.4477  3.7076  0.3557
  883MOL0     H19176   6.933   3.200   6.412  2.0242 -0.2853 -1.8228
  883MOL0     H19177   6.989   3.400   6.539  0.0690 -1.6790 -0.0863
  883MOL0     H19178   7.104   3.376   6.408 -0.6120 -1.4243 -0.4163
  883MOL0     H19179   7.075   3.603   6.398  0.9474 -0.5051 -3.2908
  883MOL0     H19180   6.906   3.596   6.430  0.0204 -1.6122  2.6996
  883MOL0     H19181   6.869   3.564   6.200  0.6542  0.8679  2.1971
  883MOL0     H19182   6.977   3.679   6.208 -0.7413 -0.4080 -1.8739
  883MOL0     H19183   7.050   3.389   6.149  2.5598  0.1079 -0.9063
  883MOL0     H19184   7.177   3.515   6.152 -0.7409  1.4184 -0.0926
  883MOL0     H19185   7.086   3.618   5.943  0.7454 -0.7339 -1.6862
  883MOL0     H19186   6.969   3.492   5.925  0.5267 -0.8439 -0.9241
  883MOL0     H19187   6.773   2.857   6.613 -0.3772 -1.2001 -0.5787
  883MOL0     H19188   6.710   2.633   6.529  0.4369 -0.3424 -1.2765
  883MOL0     H19189   6.604   2.348   6.376 -3.1974  0.9933  0.0091
  883MOL0     H19190   6.619   2.084   6.354 -1.2270 -2.7591 -1.4521
  883MOL0     H19191   6.601   0.322   7.129 -0.2804 -0.3410 -0.8972
  883MOL0     H19192   6.784   0.157   7.178 -1.3188  0.6105  0.3497
  883MOL0     H19193   7.280   0.107   7.310 -2.0068  1.9444 -2.3602
  883MOL0     H19194   7.458  -0.070   7.325 -0.9877 -2.5481  0.5488
  883MOL0     H19195   7.379  -0.453   7.159  1.8562 -1.8158  0.9523
  883MOL0     H19196   7.496  -0.386   7.028 -1.8337  1.2429 -0.3350
  883MOL0     H19197   7.619  -0.569   7.132  1.4685 -0.3838  1.2898
  883MOL0     H19198   7.534  -0.538   7.292 -2.1117  1.9605  0.1772
  883MOL0     H19199   7.671  -0.337   7.307 -0.2775 -0.3666  0.1192
  883MOL0     H19200   7.746  -0.371   7.150  0.7966  2.1105  1.7039
  883MOL0     H19201   7.921  -0.469   7.294  0.8566 -0.7356  2.7445
  883MOL0     H19202   7.803  -0.597   7.275  2.4169 -0.4705  0.2505
  883MOL0     H19203   7.830  -0.522   7.687  3.2974  1.7393 -0.6338
  883MOL0     H19204   7.244  -0.304   7.039  1.7661  1.2489 -1.7943
  883MOL0     H19205   7.074  -0.124   7.015  0.4577 -0.3120 -2.0758
  884MOL0     O19206   2.270   0.379   7.459  0.1638  0.2798 -0.0149
  884MOL0     C19207   2.184   0.355   7.372 -0.2320  0.2404 -0.4141
  884MOL0     O19208   2.047   0.353   7.387 -0.1442  0.1141 -0.4455
  884MOL0     C19209   1.998   0.357   7.515  0.6579  0.0186 -1.0182
  884MOL0     C19210   1.955   0.243   7.587 -0.5147 -0.2701  0.5766
  884MOL0     C19211   1.908   0.240   7.719  0.4675  0.5569 -0.9245
  884MOL0     C19212   1.897   0.363   7.784  0.9846  1.2709 -0.0244
  884MOL0     O19213   1.859   0.366   7.914 -0.0226 -0.0140 -1.1128
  884MOL0     C19214   1.805   0.486   7.968 -0.4190  0.8616 -0.0589
  884MOL0     C19215   1.743   0.442   8.094  1.4073  1.1015 -0.5832
  884MOL0     C19216   1.703   0.563   8.172 -0.6387 -0.1720  0.3158
  884MOL0     C19217   1.644   0.543   8.313  0.1498 -0.2478 -0.7972
  884MOL0     C19218   1.624   0.682   8.380 -0.3707  0.0267 -1.1633
  884MOL0     C19219   1.736   0.732   8.480 -0.2357  0.6667 -0.3239
  884MOL0     C19220   1.768   0.635   8.604  0.5801  0.7163  0.0902
  884MOL0     C19221   1.648   0.626   8.697  0.1289  0.8201 -0.2816
  884MOL0     N19222   1.598   0.754   8.737 -1.0886  0.1258  0.3531
  884MOL0     C19223   1.645   0.831   8.838  0.1949 -0.5580  0.4278
  884MOL0     C19224   1.577   0.945   8.828  0.6471 -0.3486  1.3234
  884MOL0     C19225   1.580   1.062   8.908 -0.3541  0.2387 -0.1834
  884MOL0     C19226   1.579   1.028   9.066  0.0360  0.5498 -0.2877
  884MOL0     C19227   1.462   0.942   9.113  0.8151  0.8508 -0.4454
  884MOL0     C19228   1.455   0.960   9.274 -0.2311  0.1988 -0.6693
  884MOL0     O19229   1.407   1.098   9.299 -0.3753  0.1974  0.8939
  884MOL0     C19230   1.453   1.159   9.408  0.4649  0.2262  0.9414
  884MOL0     C19231   1.543   1.266   9.389  0.5425  0.4165 -0.9407
  884MOL0     C19232   1.591   1.333   9.500  0.4611 -1.2365  0.0426
  884MOL0     C19233   1.679   1.455   9.466 -0.4302 -0.2882 -0.1170
  884MOL0     C19234   1.535   1.302   9.631 -0.6295  0.2902 -1.5747
  884MOL0     C19235   1.595   1.366   9.753  0.9883 -0.6480 -1.0164
  884MOL0     O19236   1.714   1.449   9.740  0.7569  0.3892 -0.5546
  884MOL0     C19237   1.747   1.513   9.856 -1.0392  0.5411 -0.3340
  884MOL0     C19238   1.698   1.648   9.880 -0.3622 -0.9079 -0.4386
  884MOL0     C19239   1.728   1.711   9.998  0.0727  0.3256  0.5583
  884MOL0     C19240   1.814   1.648  10.091 -0.2898  0.7285 -0.2979
  884MOL0     O19241   1.849   1.710  10.208 -0.0054  0.5601  0.4839
  884MOL0     C19242   1.800   1.646  10.325 -0.3494 -0.3703  0.0219
  884MOL0     C19243   1.706   1.746  10.393  0.3578  0.6634 -0.0537
  884MOL0     C19244   1.603   1.684  10.484 -0.6532  0.3236  0.4363
  884MOL0     C19245   1.665   1.640  10.628  0.4452 -0.4030  0.5195
  884MOL0     C19246   1.550   1.574  10.719 -0.0326  0.1873  1.1277
  884MOL0     C19247   1.436   1.660  10.772  0.3284  0.0193 -0.0054
  884MOL0     C19248   1.348   1.573  10.854 -1.3595  0.0545  0.9346
  884MOL0     C19249   1.231   1.650  10.905  0.2984 -0.6501  0.3649
  884MOL0    Cl19250   1.292   1.772  11.020  0.1010  0.0844  0.2581
  884MOL0     C19251   1.867   1.523  10.066  0.9683  0.3200 -0.7233
  884MOL0     C19252   1.835   1.454   9.947  0.1286  0.1575 -0.8599
  884MOL0     O19253   1.519   1.362   9.860 -0.4025  0.7976  0.3394
  884MOL0     C19254   1.433   1.202   9.645  0.4954 -0.4180  1.0955
  884MOL0     C19255   1.404   1.125   9.530 -0.1167 -0.3421  0.6948
  884MOL0     N19256   1.500   0.947   8.714 -0.6992  0.4688  0.2212
  884MOL0     N19257   1.502   0.822   8.665 -0.5440 -0.3412 -0.4513
  884MOL0     C19258   1.937   0.481   7.714 -1.0346  0.3064 -0.1317
  884MOL0     C19259   1.984   0.472   7.584 -0.0349 -0.6563  0.5208
  884MOL0     C19260   2.221   0.333   7.230 -0.3482 -0.0329 -0.4310
  884MOL0     C19261   2.131   0.283   7.136  0.0104 -0.1570  0.9851
  884MOL0     C19262   2.170   0.253   6.999 -0.1460 -0.5917 -0.0084
  884MOL0     C19263   2.303   0.277   6.956 -0.4804 -0.0985  1.2995
  884MOL0     O19264   2.345   0.238   6.824  0.2192 -0.0034 -0.2535
  884MOL0     C19265   2.253   0.277   6.718 -0.1792  0.0879  0.2413
  884MOL0     C19266   2.316   0.252   6.579  0.9172  0.5371 -0.2057
  884MOL0     C19267   2.258   0.117   6.512 -0.4972  0.2804  1.7450
  884MOL0     C19268   2.299   0.090   6.363 -1.2450 -0.1902 -0.0644
  884MOL0     C19269   2.443   0.103   6.343  0.7904  0.3240  0.6387
  884MOL0     C19270   2.562   0.104   6.328 -0.2399 -0.0237 -0.6276
  884MOL0     C19271   2.397   0.316   7.050 -0.3715  0.4107  0.1900
  884MOL0     C19272   2.351   0.354   7.180  0.2668 -0.1763 -0.0424
  884MOL0     H19273   1.956   0.145   7.540  0.3425 -0.2230  0.4877
  884MOL0     H19274   1.887   0.140   7.753 -0.2435  1.4616  1.5043
  884MOL0     H19275   1.877   0.564   7.991 -1.6108  1.7325  0.8376
  884MOL0     H19276   1.723   0.527   7.908 -0.8861 -1.2043 -0.9448
  884MOL0     H19277   1.654   0.380   8.078  1.2098  0.8722  1.1805
  884MOL0     H19278   1.820   0.383   8.144  1.2322  0.4138 -1.1035
  884MOL0     H19279   1.785   0.635   8.182 -0.5011 -0.3316  0.3658
  884MOL0     H19280   1.624   0.621   8.125 -2.9454 -2.7392  0.7454
  884MOL0     H19281   1.556   0.479   8.304  1.8634 -3.0833  1.1005
  884MOL0     H19282   1.721   0.494   8.373 -0.0660  2.0968  1.6044
  884MOL0     H19283   1.623   0.764   8.308 -1.3109  1.2770  0.1970
  884MOL0     H19284   1.526   0.670   8.428 -0.9801  1.2097 -2.0628
  884MOL0     H19285   1.832   0.737   8.428  1.4336  2.6730  2.6233
  884MOL0     H19286   1.721   0.836   8.509 -1.1490  0.4515  0.0069
  884MOL0     H19287   1.783   0.537   8.557  3.9351  1.2124 -0.1481
  884MOL0     H19288   1.858   0.656   8.662  2.3534 -4.7021 -0.1009
  884MOL0     H19289   1.676   0.561   8.781 -1.9541  1.6438  1.1150
  884MOL0     H19290   1.563   0.575   8.651  0.3589  0.5442 -0.4069
  884MOL0     H19291   1.717   0.801   8.914 -1.1409 -2.8444  0.8889
  884MOL0     H19292   1.673   1.114   8.881 -0.3534  0.2434 -0.1708
  884MOL0     H19293   1.485   1.110   8.883 -1.4227 -1.1440  1.0695
  884MOL0     H19294   1.583   1.124   9.119  1.0700 -0.5398  1.7095
  884MOL0     H19295   1.668   0.977   9.104 -0.6204  0.3508  1.0467
  884MOL0     H19296   1.476   0.835   9.099 -1.9063  0.1118  1.6571
  884MOL0     H19297   1.365   0.971   9.071  0.2155  0.7224  0.8166
  884MOL0     H19298   1.552   0.934   9.317 -2.1047 -3.3419  1.9157
  884MOL0     H19299   1.377   0.895   9.314 -0.7179 -0.7643 -3.0135
  884MOL0     H19300   1.570   1.314   9.296  1.5556  0.7343 -0.4985
  884MOL0     H19301   1.664   1.529   9.544 -1.2825 -0.4571 -0.1152
  884MOL0     H19302   1.783   1.424   9.479 -1.7220 -4.2473  3.2690
  884MOL0     H19303   1.660   1.499   9.368  1.5921  1.6307  0.2865
  884MOL0     H19304   1.645   1.701   9.800 -0.4323  3.8137  2.3512
  884MOL0     H19305   1.690   1.808  10.028 -2.6759  0.1350 -1.9446
  884MOL0     H19306   1.752   1.548  10.314  0.0024 -1.0290  3.3380
  884MOL0     H19307   1.882   1.623  10.394 -0.7082 -0.5751  0.3886
  884MOL0     H19308   1.763   1.823  10.446  3.0724 -0.0134 -1.7823
  884MOL0     H19309   1.655   1.789  10.307 -0.4449  3.4318  1.6597
  884MOL0     H19310   1.549   1.597  10.447 -0.2948  0.1631  0.2823
  884MOL0     H19311   1.522   1.752  10.511 -2.7813 -2.2830  1.0268
  884MOL0     H19312   1.754   1.577  10.617  1.4730  1.4930 -4.4551
  884MOL0     H19313   1.687   1.739  10.669 -3.0673 -0.2547  2.4605
  884MOL0     H19314   1.602   1.527  10.803  0.2166  0.7403  1.2941
  884MOL0     H19315   1.507   1.486  10.671 -0.1020  0.3352  0.9167
  884MOL0     H19316   1.486   1.737  10.830  0.3368  1.1784 -1.4822
  884MOL0     H19317   1.373   1.719  10.705 -3.7114  1.8639  4.8754
  884MOL0     H19318   1.407   1.545  10.942  1.4116 -0.5989 -1.0069
  884MOL0     H19319   1.317   1.480  10.806  0.4062 -0.8207  1.3947
  884MOL0     H19320   1.172   1.583  10.967 -1.8833  1.2134  0.4218
  884MOL0     H19321   1.168   1.703  10.833  1.0070  2.4020  1.8164
  884MOL0     H19322   1.925   1.473  10.143 -0.2435  1.1109  0.7585
  884MOL0     H19323   1.865   1.351   9.928 -4.5494 -1.0362 -3.4220
  884MOL0     H19324   1.384   1.170   9.736 -2.0921  0.1169  0.0037
  884MOL0     H19325   1.334   1.042   9.536  0.3439 -0.8506 -0.6454
  884MOL0     H19326   1.950   0.574   7.768  0.5289 -0.7806  1.5044
  884MOL0     H19327   2.017   0.563   7.536  2.7912 -0.6724  2.2439
  884MOL0     H19328   2.032   0.247   7.161  1.1124 -0.9349  4.7750
  884MOL0     H19329   2.087   0.218   6.938 -1.2375  0.1286  1.0157
  884MOL0     H19330   2.156   0.227   6.731  0.3286 -0.7705  0.8217
  884MOL0     H19331   2.246   0.386   6.715  0.6004  0.1294 -0.2750
  884MOL0     H19332   2.424   0.245   6.595  0.6957  1.9594  2.6241
  884MOL0     H19333   2.302   0.344   6.522 -0.3289  1.6890  1.8221
  884MOL0     H19334   2.153   0.093   6.531 -0.3120 -0.7557  1.5075
  884MOL0     H19335   2.314   0.034   6.556 -0.1719 -1.9352 -2.3614
  884MOL0     H19336   2.232   0.158   6.309 -0.2057  0.1477 -0.9736
  884MOL0     H19337   2.279  -0.010   6.324  0.5343 -0.2482 -0.9309
  884MOL0     H19338   2.667   0.120   6.318 -0.2274 -0.2621 -0.9079
  884MOL0     H19339   2.502   0.330   7.027 -1.3070  4.6689 -2.4240
  884MOL0     H19340   2.414   0.401   7.254 -3.9433  3.6584  1.5297
  885MOL0     O19341   7.601   4.758   8.909  0.2179 -0.6753  0.5856
  885MOL0     C19342   7.518   4.829   8.958 -0.0116 -0.8312 -0.0649
  885MOL0     O19343   7.521   4.964   8.954 -0.7236 -0.3614 -0.1830
  885MOL0     C19344   7.642   5.030   8.911  0.5711 -0.3895  0.2542
  885MOL0     C19345   7.676   5.062   8.777  0.4937  0.0213  0.1862
  885MOL0     C19346   7.783   5.144   8.741  0.5801 -0.1520  0.6950
  885MOL0     C19347   7.862   5.185   8.845 -0.0523 -1.5545 -0.6536
  885MOL0     O19348   7.980   5.255   8.840 -0.5675 -0.5089  0.5573
  885MOL0     C19349   8.032   5.280   8.707  0.0813 -0.3583 -0.0436
  885MOL0     C19350   8.173   5.343   8.699 -0.0592 -0.6231 -0.1086
  885MOL0     C19351   8.180   5.450   8.817 -0.0370 -0.5712 -0.1743
  885MOL0     C19352   8.214   5.409   8.967 -0.8309 -0.5929  0.6237
  885MOL0     C19353   8.352   5.341   8.988 -0.5716  1.0767 -0.2488
  885MOL0     C19354   8.462   5.409   8.908  0.3282  0.6965  0.8601
  885MOL0     C19355   8.603   5.355   8.949 -0.0434 -0.3549 -0.6909
  885MOL0     C19356   8.644   5.233   8.875  0.5167 -0.4554  0.6200
  885MOL0     N19357   8.786   5.234   8.842 -0.0182  0.4065 -0.2960
  885MOL0     C19358   8.884   5.281   8.925  0.3384 -0.7188 -0.3967
  885MOL0     C19359   8.999   5.265   8.850 -0.4887  0.5222  0.3438
  885MOL0     C19360   9.138   5.294   8.899  0.1289  0.0169  0.2478
  885MOL0     C19361   9.198   5.433   8.851  0.7173 -0.6912  0.2052
  885MOL0     C19362   9.295   5.497   8.966 -0.0256 -0.9565 -0.3214
  885MOL0     C19363   9.365   5.619   8.896  1.4514 -0.8203  0.2589
  885MOL0     O19364   9.483   5.653   8.967  0.3764 -0.5317 -0.0525
  885MOL0     C19365   9.566   5.745   8.909  0.5952 -1.8895  0.0762
  885MOL0     C19366   9.627   5.725   8.796  0.0962 -0.0163  0.5941
  885MOL0     C19367   9.698   5.825   8.725  0.9702 -1.0613  0.7298
  885MOL0     C19368   9.765   5.771   8.601  1.3235  0.0879  0.4877
  885MOL0     C19369   9.714   5.946   8.785 -0.4874 -0.7806  0.0813
  885MOL0     C19370   9.827   6.041   8.744  0.6364  0.5428  0.4594
  885MOL0     O19371   9.946   5.992   8.683 -0.8666  0.2486  0.4892
  885MOL0     C19372  10.038   6.083   8.645  0.0512 -0.6927  0.0478
  885MOL0     C19373  10.126   6.142   8.737  0.0305  0.7495  0.3315
  885MOL0     C19374  10.228   6.222   8.696 -0.4990 -0.1110 -0.1808
  885MOL0     C19375  10.239   6.252   8.563 -0.8539  0.9251  0.3314
  885MOL0     O19376  10.346   6.343   8.537 -0.1415 -0.2670  0.6684
  885MOL0     C19377  10.395   6.370   8.405 -0.2323 -0.1259 -0.6216
  885MOL0     C19378  10.534   6.446   8.426 -0.5521 -0.4077  0.3623
  885MOL0     C19379  10.593   6.495   8.289  1.1787 -0.0106 -0.6022
  885MOL0     C19380  10.487   6.589   8.215  0.7197 -0.3647  1.1560
  885MOL0     C19381  10.542   6.638   8.082 -0.0934  0.3319 -0.2969
  885MOL0     C19382  10.556   6.532   7.966 -0.3850  0.3368 -0.0105
  885MOL0     C19383  10.533   6.603   7.829 -0.5706 -0.4800  1.7798
  885MOL0     C19384  10.534   6.507   7.710  1.1434 -0.7256 -0.0294
  885MOL0    Cl19385  10.551   6.592   7.551  0.3573 -0.0992 -0.5300
  885MOL0     C19386  10.144   6.199   8.467 -1.2480 -0.0534 -0.0348
  885MOL0     C19387  10.038   6.124   8.513  0.5210 -0.5068  0.0430
  885MOL0     O19388   9.798   6.163   8.755 -0.0010  0.8547  0.1600
  885MOL0     C19389   9.649   5.977   8.901  0.3157  1.3885 -0.4434
  885MOL0     C19390   9.577   5.875   8.967  0.0337 -0.2046 -0.1382
  885MOL0     N19391   8.968   5.207   8.724  0.4422 -0.0343 -0.0548
  885MOL0     N19392   8.841   5.185   8.727  0.5898 -1.0025  0.3097
  885MOL0     C19393   7.828   5.154   8.985  0.3659  0.5154  0.2569
  885MOL0     C19394   7.721   5.073   9.010  0.1052  1.3965 -0.1781
  885MOL0     C19395   7.400   4.762   9.000  0.8368  0.3839  0.8762
  885MOL0     C19396   7.388   4.618   9.023  0.2533  0.3255  0.1359
  885MOL0     C19397   7.266   4.569   9.073 -0.0476  0.2432  0.2820
  885MOL0     C19398   7.142   4.645   9.081 -0.1006 -0.6841  0.2785
  885MOL0     O19399   7.023   4.613   9.143  0.1421 -0.3518 -0.2295
  885MOL0     C19400   7.025   4.487   9.202 -1.0858 -0.0188  0.5216
  885MOL0     C19401   6.881   4.461   9.248 -0.6601  0.4473 -0.6630
  885MOL0     C19402   6.831   4.572   9.349 -0.1773 -0.7293 -0.1597
  885MOL0     C19403   6.697   4.523   9.401  0.1905  0.6067  0.1090
  885MOL0     C19404   6.594   4.493   9.292 -0.9214  0.5178 -0.1808
  885MOL0     C19405   6.543   4.479   9.181 -0.0196 -0.5453 -0.0871
  885MOL0     C19406   7.160   4.776   9.044  0.1003 -0.5934  0.4366
  885MOL0     C19407   7.279   4.837   9.004  0.1831  0.6455 -1.0763
  885MOL0     H19408   7.622   5.021   8.692  2.6127 -1.2842 -0.5864
  885MOL0     H19409   7.792   5.161   8.634 -0.7815 -0.4055  0.5161
  885MOL0     H19410   8.028   5.191   8.644 -0.0996  0.9454 -1.9620
  885MOL0     H19411   7.967   5.354   8.661  0.8786  0.9753  0.9116
  885MOL0     H19412   8.253   5.269   8.699  0.0984 -0.4602 -0.6777
  885MOL0     H19413   8.179   5.405   8.608  0.9072 -0.3621  0.1267
  885MOL0     H19414   8.248   5.530   8.787 -0.3727  0.8030  2.4520
  885MOL0     H19415   8.084   5.501   8.819 -1.5666 -3.3188  1.6023
  885MOL0     H19416   8.216   5.500   9.028  2.5190 -0.9221  1.2376
  885MOL0     H19417   8.129   5.351   9.003 -1.5457  0.9404  1.5362
  885MOL0     H19418   8.366   5.344   9.097 -2.6934  1.4915  0.0724
  885MOL0     H19419   8.346   5.234   8.967 -3.4736  1.2952 -0.9986
  885MOL0     H19420   8.457   5.398   8.799  1.2964  0.8729  0.7921
  885MOL0     H19421   8.461   5.516   8.933  0.7489  0.9360 -0.0849
  885MOL0     H19422   8.680   5.430   8.930 -0.4553 -0.1683 -1.6913
  885MOL0     H19423   8.616   5.342   9.056  1.2742 -0.0026 -0.7948
  885MOL0     H19424   8.580   5.219   8.787 -2.9173  1.7808  2.4966
  885MOL0     H19425   8.617   5.150   8.942  2.7892 -1.5210  0.3104
  885MOL0     H19426   8.875   5.320   9.026  0.8768  2.3008 -1.4127
  885MOL0     H19427   9.139   5.296   9.009  0.2261 -0.8023  0.2678
  885MOL0     H19428   9.204   5.213   8.866  1.1067  0.5436  0.8526
  885MOL0     H19429   9.117   5.503   8.829 -2.2431 -3.4079  1.5670
  885MOL0     H19430   9.248   5.422   8.754 -2.5800  1.8300 -1.9878
  885MOL0     H19431   9.377   5.431   8.996 -1.2242 -2.2963  0.1479
  885MOL0     H19432   9.240   5.522   9.057  1.7227 -1.2111  0.8345
  885MOL0     H19433   9.295   5.701   8.877  1.5826 -0.3089  1.8321
  885MOL0     H19434   9.396   5.590   8.796  2.5352 -0.5998  0.5234
  885MOL0     H19435   9.608   5.627   8.752 -0.8392  0.9869 -1.3484
  885MOL0     H19436   9.845   5.698   8.618 -0.9616 -2.4273  1.1357
  885MOL0     H19437   9.684   5.732   8.538  0.8436  0.8154  0.6542
  885MOL0     H19438   9.805   5.854   8.542  1.2159  0.5482  1.0546
  885MOL0     H19439  10.116   6.112   8.841  1.4046 -2.4206 -0.3427
  885MOL0     H19440  10.309   6.255   8.761 -0.0263 -2.3162  0.4452
  885MOL0     H19441  10.401   6.271   8.359 -2.5321 -1.7222  2.1234
  885MOL0     H19442  10.317   6.428   8.354 -0.1736  1.7705  1.2894
  885MOL0     H19443  10.525   6.534   8.491 -3.2986 -0.6743  0.4687
  885MOL0     H19444  10.594   6.373   8.481 -1.5873 -1.2679  0.3594
  885MOL0     H19445  10.608   6.414   8.217 -1.5581  0.3087 -1.6674
  885MOL0     H19446  10.692   6.539   8.304  1.0210  1.1370 -2.5628
  885MOL0     H19447  10.401   6.524   8.196  1.1676 -0.0329 -2.7366
  885MOL0     H19448  10.448   6.675   8.271 -0.3515  2.0165 -2.8451
  885MOL0     H19449  10.634   6.691   8.106 -0.4080  0.4002  0.8050
  885MOL0     H19450  10.472   6.712   8.043 -0.7157 -0.3971 -0.6109
  885MOL0     H19451  10.659   6.497   7.973 -0.2197  0.0975 -2.5665
  885MOL0     H19452  10.477   6.457   7.974  0.5681 -0.4971  3.2937
  885MOL0     H19453  10.617   6.672   7.819  1.8366 -3.0151  3.1842
  885MOL0     H19454  10.449   6.671   7.841  1.0326  1.6381  1.5008
  885MOL0     H19455  10.446   6.442   7.715  0.0857  0.6857  0.5833
  885MOL0     H19456  10.623   6.444   7.713 -0.7299 -3.4840  0.4531
  885MOL0     H19457  10.143   6.231   8.363  1.9266  1.9717  0.4533
  885MOL0     H19458   9.950   6.102   8.453  2.0091 -1.9508 -1.7569
  885MOL0     H19459   9.659   6.078   8.940 -0.7576  2.0027 -1.6367
  885MOL0     H19460   9.530   5.904   9.060  1.2685  2.1831 -0.1964
  885MOL0     H19461   7.891   5.181   9.070  0.0283  1.5657  0.1897
  885MOL0     H19462   7.690   5.043   9.110  1.9073 -0.3479 -0.0847
  885MOL0     H19463   7.478   4.558   9.018  0.4267  0.5972 -0.0313
  885MOL0     H19464   7.268   4.463   9.095  1.9541  0.0841 -0.4742
  885MOL0     H19465   7.044   4.404   9.134  2.4291  1.0550  0.0393
  885MOL0     H19466   7.092   4.481   9.288 -1.7833 -2.8436  0.9803
  885MOL0     H19467   6.878   4.362   9.295  2.8110  1.4246  2.0369
  885MOL0     H19468   6.826   4.463   9.154 -4.8953 -2.0952  1.4734
  885MOL0     H19469   6.827   4.671   9.303 -0.9731 -2.3068 -3.8661
  885MOL0     H19470   6.909   4.562   9.426  2.7445  2.6874 -2.3731
  885MOL0     H19471   6.645   4.589   9.470 -2.7665  0.0135 -1.3976
  885MOL0     H19472   6.718   4.437   9.465  1.0247  1.9261  1.6784
  885MOL0     H19473   6.486   4.458   9.093  1.6155 -3.0443 -0.6628
  885MOL0     H19474   7.073   4.841   9.039 -0.4812 -1.4499 -1.3339
  885MOL0     H19475   7.272   4.944   8.992 -0.5361  0.5696 -1.3584
  886MOL0     O19476  10.471   3.453   8.754  0.0940 -0.4846  0.3997
  886MOL0     C19477  10.353   3.440   8.738  0.4367 -0.3395  0.3904
  886MOL0     O19478  10.255   3.483   8.826  0.2129 -0.2865  0.2790
  886MOL0     C19479  10.269   3.505   8.957  0.0739  0.0401 -0.2880
  886MOL0     C19480  10.381   3.467   9.032 -0.2400 -0.1118 -0.7272
  886MOL0     C19481  10.374   3.485   9.162  0.2107  0.5388 -1.2896
  886MOL0     C19482  10.265   3.529   9.236 -0.5456 -1.1259  0.2641
  886MOL0     O19483  10.244   3.535   9.372 -0.2459  0.1418  0.0371
  886MOL0     C19484  10.284   3.405   9.432  0.8227 -0.4789 -1.0418
  886MOL0     C19485  10.282   3.415   9.594 -0.3512 -0.4565  0.5131
  886MOL0     C19486  10.395   3.505   9.662  0.5728  0.5885  0.1806
  886MOL0     C19487  10.390   3.511   9.822  0.6855 -0.1211  0.3831
  886MOL0     C19488  10.493   3.613   9.881 -0.6652  0.0215  0.4131
  886MOL0     C19489  10.490   3.610  10.032 -0.2188 -0.2417 -0.1476
  886MOL0     C19490  10.589   3.714  10.090  1.3969  0.1164 -0.1140
  886MOL0     C19491  10.589   3.854  10.023  0.0933  0.0720  0.0784
  886MOL0     N19492  10.661   3.958  10.102 -0.0959  1.2056 -0.2299
  886MOL0     C19493  10.775   4.041  10.073 -0.3258 -0.2119 -0.2892
  886MOL0     C19494  10.745   4.151  10.148 -0.1183  0.5012 -0.6075
  886MOL0     C19495  10.833   4.263  10.180 -0.3974 -0.2685 -0.5449
  886MOL0     C19496  10.955   4.237  10.263 -0.5009  0.2497 -0.3325
  886MOL0     C19497  10.932   4.219  10.411 -0.5580 -0.6352  0.1651
  886MOL0     C19498  11.038   4.151  10.492 -0.2168 -0.2956  0.1619
  886MOL0     O19499  11.162   4.224  10.464  0.8221 -0.1715 -0.4663
  886MOL0     C19500  11.268   4.147  10.497 -0.3696 -1.1679 -0.5262
  886MOL0     C19501  11.304   4.020  10.465 -0.0286  0.3089 -0.1278
  886MOL0     C19502  11.418   3.961  10.516  0.7017  0.3576  0.7090
  886MOL0     C19503  11.461   3.823  10.473 -0.2346  0.2156  0.2750
  886MOL0     C19504  11.496   4.030  10.611 -0.4624  0.2304  0.2717
  886MOL0     C19505  11.598   3.952  10.692  0.0168 -0.7915  0.3262
  886MOL0     O19506  11.715   4.015  10.698 -0.1062  0.4819 -0.0742
  886MOL0     C19507  11.781   4.000  10.814 -0.7790  0.6643  0.6523
  886MOL0     C19508  11.731   4.066  10.928 -0.5314 -0.0868 -0.2140
  886MOL0     C19509  11.793   4.055  11.045 -0.3170  0.2362 -0.0532
  886MOL0     C19510  11.903   3.974  11.057  0.7298 -1.0501  0.3257
  886MOL0     O19511  11.960   3.963  11.182 -0.7088  0.2260  0.7101
  886MOL0     C19512  12.093   3.906  11.191  0.2254 -0.5151 -0.3778
  886MOL0     C19513  12.199   3.997  11.127  0.3197  0.4200 -1.1929
  886MOL0     C19514  12.247   4.096  11.231 -0.0956 -0.0681 -0.1695
  886MOL0     C19515  12.334   4.207  11.178  0.6017  1.1083  0.5816
  886MOL0     C19516  12.404   4.285  11.284 -0.8171 -1.3302 -0.5667
  886MOL0     C19517  12.500   4.388  11.234  0.6137  0.9285 -0.1786
  886MOL0     C19518  12.436   4.487  11.144  0.7574  0.0623 -0.7686
  886MOL0     C19519  12.453   4.628  11.182 -0.6162  0.0987 -0.8764
  886MOL0    Cl19520  12.614   4.694  11.197  0.1533 -0.1877 -0.2496
  886MOL0     C19521  11.943   3.899  10.943 -0.7560 -0.9811  0.7646
  886MOL0     C19522  11.894   3.921  10.820  1.0516 -0.7500  0.2996
  886MOL0     O19523  11.553   3.867  10.768 -0.3190  0.0575 -0.4292
  886MOL0     C19524  11.474   4.160  10.645  0.9781 -0.5550 -0.1748
  886MOL0     C19525  11.362   4.218  10.578  0.3268 -0.3497  0.4632
  886MOL0     N19526  10.623   4.134  10.218 -0.7353  0.1723  1.0868
  886MOL0     N19527  10.587   4.013  10.203  0.2888  1.0519  0.6871
  886MOL0     C19528  10.153   3.568   9.161  0.1257  0.0701  0.4172
  886MOL0     C19529  10.158   3.562   9.025 -0.0146  0.4937  0.1716
  886MOL0     C19530  10.290   3.379   8.618 -0.7249 -0.3148  0.2421
  886MOL0     C19531  10.150   3.382   8.583 -0.3345 -0.6614  0.0294
  886MOL0     C19532  10.099   3.302   8.483 -0.0329 -0.8499 -0.3099
  886MOL0     C19533  10.187   3.243   8.392 -1.0681 -0.3924  0.6385
  886MOL0     O19534  10.125   3.177   8.289  0.7607 -0.0422 -0.0396
  886MOL0     C19535  10.207   3.084   8.213  0.2732 -0.0926 -0.2027
  886MOL0     C19536  10.119   3.011   8.129 -0.3240  0.6379 -0.7359
  886MOL0     C19537  10.046   3.073   8.015  0.1292  0.7754  0.5768
  886MOL0     C19538  10.137   3.136   7.904  0.4852  0.8040 -0.2467
  886MOL0     C19539  10.165   3.034   7.811 -0.9520  0.0456 -0.9381
  886MOL0     C19540  10.191   2.948   7.731  0.2113  0.5191 -0.4230
  886MOL0     C19541  10.323   3.246   8.420 -0.9544 -0.1662 -0.0796
  886MOL0     C19542  10.372   3.302   8.538  0.3673  0.6325 -0.9221
  886MOL0     H19543  10.467   3.421   8.986  0.1546  0.2247 -0.3332
  886MOL0     H19544  10.462   3.459   9.221 -0.5108  1.0593  0.0614
  886MOL0     H19545  10.217   3.330   9.388  2.9044 -2.2248 -1.3981
  886MOL0     H19546  10.387   3.384   9.403  0.6068 -0.9712 -1.4650
  886MOL0     H19547  10.185   3.418   9.645 -1.2537  2.4671 -1.1728
  886MOL0     H19548  10.318   3.313   9.613 -1.9570 -2.1391 -4.0952
  886MOL0     H19549  10.498   3.476   9.636  0.1896  0.9953 -2.0204
  886MOL0     H19550  10.370   3.602   9.617 -0.8941  0.0939 -0.1224
  886MOL0     H19551  10.286   3.525   9.854 -0.7008 -0.8395 -3.2596
  886MOL0     H19552  10.417   3.417   9.870  0.3581  0.6333  2.0873
  886MOL0     H19553  10.592   3.589   9.840 -2.1629 -0.6843 -3.2271
  886MOL0     H19554  10.471   3.709   9.835  2.0143  0.1899 -0.6996
  886MOL0     H19555  10.387   3.627  10.065 -0.6281  0.8262 -1.8567
  886MOL0     H19556  10.528   3.511  10.059  0.4076  0.0603  0.1016
  886MOL0     H19557  10.565   3.736  10.194  3.1458 -3.1341  1.0948
  886MOL0     H19558  10.691   3.675  10.083  1.9446  1.4655  0.0370
  886MOL0     H19559  10.489   3.898  10.024  1.1115  2.6049 -0.4820
  886MOL0     H19560  10.626   3.858   9.920 -1.8552 -0.0721 -0.6639
  886MOL0     H19561  10.850   4.031   9.996 -2.6388  0.7420 -2.8265
  886MOL0     H19562  10.858   4.308  10.084 -2.2715 -0.3972 -1.1400
  886MOL0     H19563  10.773   4.341  10.229 -0.1092 -0.1825 -0.3272
  886MOL0     H19564  11.023   4.321  10.249 -0.9864  0.7003 -0.0120
  886MOL0     H19565  10.987   4.142  10.218 -1.7834 -0.1576 -0.4377
  886MOL0     H19566  10.844   4.153  10.413 -0.2407 -1.2353 -2.1489
  886MOL0     H19567  10.908   4.319  10.448  1.0858  0.4233 -1.4223
  886MOL0     H19568  11.022   4.046  10.465 -4.1687 -0.0772  1.1388
  886MOL0     H19569  11.025   4.149  10.600 -0.0631 -0.5332  0.1788
  886MOL0     H19570  11.237   3.973  10.394 -0.6298 -0.0287  0.6442
  886MOL0     H19571  11.400   3.747  10.524 -0.9799 -0.1365 -1.1013
  886MOL0     H19572  11.450   3.819  10.365 -0.5909  1.2550  0.2607
  886MOL0     H19573  11.564   3.804  10.503 -0.6339 -0.0281  1.5611
  886MOL0     H19574  11.647   4.136  10.930  0.0544  0.7575 -2.3460
  886MOL0     H19575  11.768   4.119  11.129 -0.4504  1.6232 -1.1268
  886MOL0     H19576  12.105   3.898  11.300  1.6268  0.7136 -0.4020
  886MOL0     H19577  12.114   3.810  11.143  1.7519  0.3681 -1.5655
  886MOL0     H19578  12.278   3.936  11.081 -0.7963 -1.8782 -0.2364
  886MOL0     H19579  12.148   4.047  11.045 -1.5526  2.2396  0.9671
  886MOL0     H19580  12.283   4.050  11.324 -3.9353 -0.7134  1.1766
  886MOL0     H19581  12.157   4.146  11.269 -0.3029  0.2993 -1.1258
  886MOL0     H19582  12.418   4.157  11.131  0.2878 -2.1225  3.1306
  886MOL0     H19583  12.280   4.265  11.102  1.1933 -2.1195 -2.5350
  886MOL0     H19584  12.453   4.216  11.353 -0.6708 -1.3536 -0.6921
  886MOL0     H19585  12.327   4.335  11.344  0.4694 -0.2184  0.2193
  886MOL0     H19586  12.548   4.426  11.325  0.0307 -4.3618  2.7751
  886MOL0     H19587  12.583   4.343  11.178 -1.2689 -4.3795  0.7142
  886MOL0     H19588  12.329   4.465  11.142  0.5057  0.7984  1.4037
  886MOL0     H19589  12.473   4.469  11.043  0.1324 -2.7058 -0.5843
  886MOL0     H19590  12.389   4.654  11.267  0.6737  0.5109  0.0018
  886MOL0     H19591  12.413   4.690  11.102 -0.1307  0.2824 -0.9815
  886MOL0     H19592  12.035   3.842  10.948  0.4687  0.7185 -0.7024
  886MOL0     H19593  11.932   3.853  10.744 -1.3370 -2.1543  0.2632
  886MOL0     H19594  11.532   4.221  10.714  1.0421 -0.8686  0.0496
  886MOL0     H19595  11.336   4.320  10.603  1.3692 -0.4415  2.0736
  886MOL0     H19596  10.057   3.585   9.210  0.3150 -1.1380  1.2552
  886MOL0     H19597  10.075   3.595   8.963  1.4273  0.0041 -2.1139
  886MOL0     H19598  10.080   3.442   8.640 -0.8078 -0.6610 -0.5567
  886MOL0     H19599   9.994   3.297   8.455 -0.4321 -0.5342  1.0940
  886MOL0     H19600  10.281   3.137   8.151 -0.0467 -2.5935 -2.9513
  886MOL0     H19601  10.261   3.006   8.268 -0.8246 -1.1475 -0.5918
  886MOL0     H19602  10.038   2.960   8.183  1.9533 -2.3992  0.0852
  886MOL0     H19603  10.173   2.921   8.098 -1.0411 -1.0310  2.3763
  886MOL0     H19604   9.988   3.159   8.052 -1.3289 -1.3321  3.6824
  886MOL0     H19605   9.977   2.999   7.974  1.3542  1.4062 -2.9053
  886MOL0     H19606  10.223   3.195   7.938 -0.5081  2.2645 -0.1758
  886MOL0     H19607  10.077   3.212   7.852 -2.1832 -1.6362 -1.0035
  886MOL0     H19608  10.218   2.863   7.672  0.4040 -0.7587  1.3958
  886MOL0     H19609  10.396   3.188   8.365  0.3115  0.5663  0.7655
  886MOL0     H19610  10.469   3.261   8.564  0.2286  0.0978 -1.2508
  887MOL0     O19611   7.189   7.068   6.975  1.2155  0.8233  0.3644
  887MOL0     C19612   7.180   6.968   7.049  0.1487 -0.2419 -0.1276
  887MOL0     O19613   7.266   6.858   7.059  0.2416 -0.3186 -0.3668
  887MOL0     C19614   7.361   6.823   6.960 -0.6084  0.1833  0.4879
  887MOL0     C19615   7.411   6.909   6.862 -0.3602 -0.0408 -0.4157
  887MOL0     C19616   7.516   6.865   6.776  0.0098 -0.5005  0.7044
  887MOL0     C19617   7.560   6.727   6.779 -0.7545  0.2297  1.1017
  887MOL0     O19618   7.653   6.680   6.688 -0.8386 -1.1909 -0.3154
  887MOL0     C19619   7.642   6.727   6.550 -0.3647 -0.2657 -0.2285
  887MOL0     C19620   7.766   6.814   6.531 -0.1802 -1.1685  0.5189
  887MOL0     C19621   7.901   6.753   6.564  0.5172 -0.2561  0.2578
  887MOL0     C19622   8.015   6.824   6.507 -1.1820  0.7031 -0.4662
  887MOL0     C19623   8.134   6.739   6.547 -0.0240  0.4718  0.0609
  887MOL0     C19624   8.252   6.836   6.519 -1.1794  0.1406  0.3969
  887MOL0     C19625   8.380   6.763   6.560  0.2922  0.4885  0.0454
  887MOL0     C19626   8.499   6.822   6.484 -0.3757 -0.5172  0.0993
  887MOL0     N19627   8.514   6.957   6.530  0.2541 -0.2821  0.0902
  887MOL0     C19628   8.515   7.001   6.662 -1.3330 -0.2520 -0.4458
  887MOL0     C19629   8.515   7.133   6.643  0.5311 -0.7648 -0.3619
  887MOL0     C19630   8.511   7.226   6.765  0.5814 -0.2709  0.3470
  887MOL0     C19631   8.629   7.211   6.865 -0.9501  0.2369  0.4384
  887MOL0     C19632   8.756   7.255   6.786  0.5388  0.3923  0.1075
  887MOL0     C19633   8.866   7.288   6.889 -0.1930  0.8677  0.3775
  887MOL0     O19634   8.996   7.333   6.845 -0.2269  0.4862 -0.2767
  887MOL0     C19635   9.016   7.443   6.773 -0.0043 -0.6364  0.6048
  887MOL0     C19636   9.015   7.567   6.831  0.0533 -0.7372  0.0662
  887MOL0     C19637   9.029   7.686   6.760  0.0399  0.1501  0.2572
  887MOL0     C19638   9.044   7.817   6.841  0.1350 -0.0008 -0.4636
  887MOL0     C19639   9.054   7.672   6.620  0.6869 -0.6343 -0.1461
  887MOL0     C19640   9.059   7.801   6.538  0.0815  0.0726  0.7884
  887MOL0     O19641   9.157   7.793   6.432  0.3698 -0.1194 -0.2205
  887MOL0     C19642   9.181   7.917   6.378 -0.0535 -0.0500  0.6020
  887MOL0     C19643   9.272   8.002   6.427  0.0307 -0.1828 -0.7685
  887MOL0     C19644   9.300   8.128   6.359  0.0504  0.9936 -0.8706
  887MOL0     C19645   9.255   8.149   6.229 -0.2416  0.2613  0.9498
  887MOL0     O19646   9.287   8.262   6.155  0.6310  0.5070 -0.4530
  887MOL0     C19647   9.415   8.258   6.107 -0.4461 -0.2648 -0.0875
  887MOL0     C19648   9.447   8.191   5.970  0.0503  0.0211 -1.0480
  887MOL0     C19649   9.414   8.301   5.866 -0.2761 -0.3033  0.2407
  887MOL0     C19650   9.398   8.251   5.717  0.1108 -0.8305  0.7934
  887MOL0     C19651   9.287   8.143   5.713 -0.0681 -0.2028  0.1061
  887MOL0     C19652   9.254   8.110   5.567 -0.7623 -0.3841  0.1496
  887MOL0     C19653   9.128   8.029   5.541  0.1386 -0.2010 -0.9075
  887MOL0     C19654   9.120   7.888   5.594  0.1079 -0.4999  0.7683
  887MOL0    Cl19655   9.232   7.793   5.504 -0.4635 -0.1023 -0.5501
  887MOL0     C19656   9.176   8.051   6.171 -0.2674 -0.4091 -0.4635
  887MOL0     C19657   9.139   7.939   6.250  0.3945  0.0913 -0.3286
  887MOL0     O19658   8.990   7.896   6.567  0.4993 -0.3117  0.7983
  887MOL0     C19659   9.069   7.547   6.561  1.0047 -0.1626  0.7115
  887MOL0     C19660   9.053   7.435   6.639  0.1732 -0.5797 -0.3722
  887MOL0     N19661   8.483   7.164   6.514  0.2550 -0.9241 -0.4476
  887MOL0     N19662   8.480   7.056   6.453  0.4442  0.7142  0.3052
  887MOL0     C19663   7.504   6.647   6.874 -0.0926 -1.3090  0.0655
  887MOL0     C19664   7.414   6.690   6.963 -0.0385 -0.7936  0.0303
  887MOL0     C19665   7.076   6.973   7.157  0.0933  0.6422 -0.2037
  887MOL0     C19666   6.974   7.075   7.169  0.0866  0.2717 -0.0244
  887MOL0     C19667   6.869   7.050   7.259 -0.7616  0.6113  0.4479
  887MOL0     C19668   6.863   6.936   7.342  0.8332  0.4820 -0.6893
  887MOL0     O19669   6.748   6.910   7.420  0.1893  0.1147 -0.0557
  887MOL0     C19670   6.631   7.007   7.421 -0.4432 -0.3998  0.0565
  887MOL0     C19671   6.524   6.934   7.498 -0.4847  0.1451  0.3630
  887MOL0     C19672   6.475   6.825   7.397  0.8023  0.6374  0.2500
  887MOL0     C19673   6.355   6.754   7.454  0.0839 -0.9802  0.1287
  887MOL0     C19674   6.392   6.640   7.548  0.6998  0.7319  0.2115
  887MOL0     C19675   6.433   6.548   7.624  0.2362  0.1691  1.1176
  887MOL0     C19676   6.965   6.836   7.332  1.0476 -0.5409 -0.0914
  887MOL0     C19677   7.073   6.857   7.246  0.9057  0.0114 -0.9544
  887MOL0     H19678   7.380   7.012   6.847 -0.7924 -0.2609 -1.0848
  887MOL0     H19679   7.546   6.941   6.704 -2.5105 -1.0468 -1.0426
  887MOL0     H19680   7.640   6.648   6.475 -0.8270  1.7363 -2.4607
  887MOL0     H19681   7.554   6.787   6.524  0.9325  0.8092 -2.4006
  887MOL0     H19682   7.765   6.840   6.425  0.8908 -1.6573  0.3819
  887MOL0     H19683   7.753   6.907   6.587  2.5846  0.0482 -0.7041
  887MOL0     H19684   7.915   6.740   6.671 -1.0338  0.9997  0.6418
  887MOL0     H19685   7.907   6.647   6.537  3.2887 -0.4230  1.1878
  887MOL0     H19686   8.006   6.855   6.402 -2.6988  1.7766 -0.0512
  887MOL0     H19687   8.017   6.919   6.561  3.5669 -0.0300  1.0958
  887MOL0     H19688   8.135   6.707   6.652  2.8998 -2.5793 -0.7289
  887MOL0     H19689   8.141   6.653   6.480  2.4310 -0.2303  1.0936
  887MOL0     H19690   8.266   6.855   6.412 -0.9131  1.1524  0.6042
  887MOL0     H19691   8.238   6.931   6.571 -2.1814  0.6970 -0.8279
  887MOL0     H19692   8.380   6.758   6.670  2.1996 -5.2265  0.1222
  887MOL0     H19693   8.355   6.660   6.530 -2.9771  1.3936 -0.7294
  887MOL0     H19694   8.481   6.819   6.376  1.6220  0.4079 -0.2895
  887MOL0     H19695   8.592   6.776   6.516  2.2532  3.3149 -1.2923
  887MOL0     H19696   8.527   6.945   6.754 -1.5094  0.3912 -0.0240
  887MOL0     H19697   8.504   7.332   6.737 -2.1452 -0.7627 -1.1409
  887MOL0     H19698   8.421   7.215   6.826 -1.9617 -0.2004 -3.0829
  887MOL0     H19699   8.643   7.110   6.905  0.2189  1.2852  2.9055
  887MOL0     H19700   8.611   7.272   6.953  1.4647 -0.9919  1.8833
  887MOL0     H19701   8.727   7.345   6.730 -0.5367  0.7916  1.2702
  887MOL0     H19702   8.787   7.174   6.718 -0.7054 -1.0067  1.1451
  887MOL0     H19703   8.876   7.191   6.938 -2.3653 -0.9433 -2.4191
  887MOL0     H19704   8.835   7.369   6.956  0.6242  1.3603  0.1705
  887MOL0     H19705   8.991   7.563   6.937  1.5703 -0.3247  0.4444
  887MOL0     H19706   8.951   7.875   6.842  0.5273  0.6373 -0.0155
  887MOL0     H19707   9.068   7.798   6.946 -2.4995  1.5962  0.5265
  887MOL0     H19708   9.133   7.868   6.800  1.2109  0.6000  2.4176
  887MOL0     H19709   9.314   7.973   6.523  0.8723 -0.1436 -1.1238
  887MOL0     H19710   9.371   8.202   6.397 -1.4986  2.5966 -0.9884
  887MOL0     H19711   9.449   8.361   6.105 -3.0930  0.7204  1.1415
  887MOL0     H19712   9.486   8.211   6.176  0.6828 -1.1092 -1.7452
  887MOL0     H19713   9.549   8.154   5.956 -0.3345 -0.6188 -2.3834
  887MOL0     H19714   9.387   8.100   5.959  0.8076 -0.5371 -0.6372
  887MOL0     H19715   9.495   8.375   5.865 -1.4276  0.9974 -0.0162
  887MOL0     H19716   9.324   8.353   5.901  0.5702  0.3306  1.5873
  887MOL0     H19717   9.359   8.333   5.655  0.7418 -0.4599  0.8827
  887MOL0     H19718   9.495   8.230   5.672  1.5249  0.6515  2.9998
  887MOL0     H19719   9.204   8.192   5.765  3.1745  4.9804  1.1411
  887MOL0     H19720   9.314   8.054   5.770 -0.7795  0.1951  1.0946
  887MOL0     H19721   9.242   8.204   5.511  1.7752 -1.3863 -2.3484
  887MOL0     H19722   9.334   8.065   5.507  1.6062  3.6363 -0.1178
  887MOL0     H19723   9.107   8.034   5.433 -1.3318 -1.3663 -0.7111
  887MOL0     H19724   9.044   8.082   5.589  1.6176 -0.5914  2.3445
  887MOL0     H19725   9.027   7.835   5.574  0.9565 -1.8476  0.3031
  887MOL0     H19726   9.131   7.874   5.702 -0.9419 -2.0183  0.7056
  887MOL0     H19727   9.147   8.072   6.068  0.3157  1.8176 -0.2269
  887MOL0     H19728   9.084   7.864   6.193 -1.8561  2.4789 -1.5047
  887MOL0     H19729   9.100   7.514   6.462  1.9345  2.4677  0.0520
  887MOL0     H19730   9.061   7.339   6.590 -0.1764 -1.1889  0.7171
  887MOL0     H19731   7.552   6.549   6.878  2.7279 -0.0354 -0.4491
  887MOL0     H19732   7.383   6.629   7.047 -3.6866 -0.1993 -0.7234
  887MOL0     H19733   6.977   7.162   7.104 -0.3052 -0.7499 -1.4791
  887MOL0     H19734   6.794   7.128   7.258  0.1876  1.9538  5.6738
  887MOL0     H19735   6.671   7.093   7.476 -0.9725 -1.6920  2.5753
  887MOL0     H19736   6.605   7.026   7.316  1.6809 -2.0690 -0.8727
  887MOL0     H19737   6.439   6.999   7.523  0.0657  0.9504  0.1835
  887MOL0     H19738   6.566   6.900   7.593 -1.5434 -0.7007  0.5491
  887MOL0     H19739   6.557   6.754   7.381 -0.7523 -1.1777  0.0993
  887MOL0     H19740   6.464   6.874   7.300  1.6099 -0.4470 -0.4139
  887MOL0     H19741   6.317   6.717   7.358 -1.8081  1.6533 -0.2646
  887MOL0     H19742   6.277   6.816   7.498  2.0526  0.6565  1.4999
  887MOL0     H19743   6.466   6.455   7.666  0.2697 -0.2170  0.2591
  887MOL0     H19744   6.961   6.747   7.394 -0.1164  0.5352  1.4568
  887MOL0     H19745   7.126   6.762   7.237  0.7017 -0.4600  1.7924
  888MOL0     O19746   5.408   2.486   3.952 -0.7502  0.3474  1.2687
  888MOL0     C19747   5.394   2.462   4.073  0.4120  0.0547 -0.1541
  888MOL0     O19748   5.287   2.392   4.136  0.3116  0.4877  0.4597
  888MOL0     C19749   5.186   2.331   4.060  0.8320 -0.2776 -0.1777
  888MOL0     C19750   5.161   2.196   4.086  0.2885  0.2704  0.6188
  888MOL0     C19751   5.059   2.135   4.006  0.7164 -0.6044  0.0263
  888MOL0     C19752   4.967   2.210   3.928  0.9125 -0.2761 -0.6763
  888MOL0     O19753   4.851   2.153   3.884  0.6228  0.5047  0.2528
  888MOL0     C19754   4.754   2.229   3.821 -0.4148  0.4029 -1.4665
  888MOL0     C19755   4.638   2.138   3.797  0.2665 -0.0402  0.3022
  888MOL0     C19756   4.587   2.082   3.936 -0.0609 -0.5527 -0.5811
  888MOL0     C19757   4.481   1.970   3.914 -0.5606 -0.2025 -0.0337
  888MOL0     C19758   4.396   1.930   4.036 -0.5522  1.2110 -0.3634
  888MOL0     C19759   4.491   1.868   4.151  0.6475 -1.0855  0.3238
  888MOL0     C19760   4.402   1.836   4.275  0.2865  0.0527  0.1070
  888MOL0     C19761   4.449   1.757   4.389 -0.4309  0.9118 -0.1381
  888MOL0     N19762   4.482   1.615   4.372  0.4878  0.0587 -0.0089
  888MOL0     C19763   4.384   1.529   4.338 -0.1423  0.8116  0.4529
  888MOL0     C19764   4.460   1.421   4.303 -0.4929 -0.8976  0.1825
  888MOL0     C19765   4.402   1.286   4.266 -0.2150 -0.1257  0.9081
  888MOL0     C19766   4.455   1.224   4.143 -0.2112  0.0382  0.9189
  888MOL0     C19767   4.390   1.274   4.008  0.1642 -0.2467 -0.3471
  888MOL0     C19768   4.355   1.422   3.983 -0.7936  0.7535 -0.5710
  888MOL0     O19769   4.315   1.428   3.844 -0.1006  0.1589 -0.6455
  888MOL0     C19770   4.183   1.457   3.827  1.3332  2.2265 -0.2232
  888MOL0     C19771   4.107   1.372   3.744 -1.0067  0.1317 -0.1234
  888MOL0     C19772   3.976   1.394   3.715 -0.1380  0.3967 -0.9020
  888MOL0     C19773   3.924   1.296   3.615  0.0550  0.2940  1.2557
  888MOL0     C19774   3.896   1.490   3.779  0.2993 -0.3807 -0.5603
  888MOL0     C19775   3.749   1.514   3.762  1.0319 -0.2260  0.3635
  888MOL0     O19776   3.681   1.435   3.672 -0.9078 -0.5807 -0.4577
  888MOL0     C19777   3.546   1.448   3.650  0.2867  0.4639  0.1119
  888MOL0     C19778   3.454   1.564   3.663  1.1544 -0.1109  0.7171
  888MOL0     C19779   3.317   1.546   3.639  0.3912 -0.6166 -0.1049
  888MOL0     C19780   3.257   1.427   3.594 -0.0610 -0.2737  0.0323
  888MOL0     O19781   3.123   1.426   3.579  1.1026 -0.5666  0.0772
  888MOL0     C19782   3.055   1.310   3.544  0.7034  0.1912  1.0808
  888MOL0     C19783   2.930   1.324   3.618 -1.2317  0.2391  0.2061
  888MOL0     C19784   2.838   1.210   3.588  0.8956 -0.8531 -0.8198
  888MOL0     C19785   2.771   1.212   3.453  0.3676 -0.1237 -0.1960
  888MOL0     C19786   2.730   1.065   3.419 -0.2892 -1.0256  0.3586
  888MOL0     C19787   2.601   1.020   3.487 -0.6666  0.1966 -0.8857
  888MOL0     C19788   2.476   1.068   3.400  0.0423  0.5936 -0.6839
  888MOL0     C19789   2.350   1.027   3.472  0.3515  0.0626  0.4763
  888MOL0    Cl19790   2.249   0.926   3.376  0.2054 -0.2250  0.0515
  888MOL0     C19791   3.344   1.321   3.576 -0.2277 -0.3895  1.1386
  888MOL0     C19792   3.485   1.325   3.605 -0.2024 -1.6558  0.0124
  888MOL0     O19793   3.699   1.587   3.834  0.1142 -0.9273 -0.2809
  888MOL0     C19794   3.975   1.577   3.860  0.3299 -1.6190  0.3539
  888MOL0     C19795   4.109   1.560   3.886 -1.0717  0.0971  0.3953
  888MOL0     N19796   4.592   1.454   4.295  1.1832 -0.6305 -0.0501
  888MOL0     N19797   4.607   1.564   4.355  0.2701  0.5287 -0.9235
  888MOL0     C19798   5.005   2.338   3.892 -0.7140 -0.1505  0.6777
  888MOL0     C19799   5.109   2.402   3.964 -0.1875  0.4597 -0.4786
  888MOL0     C19800   5.476   2.537   4.164 -1.0690 -1.1219 -0.4818
  888MOL0     C19801   5.620   2.542   4.147 -0.9611  0.6111 -0.1035
  888MOL0     C19802   5.703   2.616   4.227 -0.6329 -0.4740  0.2837
  888MOL0     C19803   5.642   2.689   4.324  0.5686 -0.5967 -0.5567
  888MOL0     O19804   5.717   2.786   4.393  0.0463  0.1478  0.3550
  888MOL0     C19805   5.685   2.836   4.524 -0.5382 -0.2092  0.3550
  888MOL0     C19806   5.684   2.721   4.629  0.9161 -0.0258  0.7454
  888MOL0     C19807   5.637   2.775   4.766  0.8749 -0.0793  0.7958
  888MOL0     C19808   5.611   2.668   4.855  1.0889  0.2976  0.3569
  888MOL0     C19809   5.561   2.725   4.983  0.3210 -0.6580  0.7014
  888MOL0     C19810   5.500   2.763   5.076  0.4368 -0.2387  0.0600
  888MOL0     C19811   5.504   2.665   4.360 -0.5706  0.3912  0.0846
  888MOL0     C19812   5.416   2.601   4.269 -0.0826 -0.1949 -0.3401
  888MOL0     H19813   5.221   2.130   4.147  0.8885 -0.1337 -0.3867
  888MOL0     H19814   5.020   2.036   4.031 -0.0124 -0.1020  0.9353
  888MOL0     H19815   4.721   2.317   3.878  0.5588 -2.3191  3.9022
  888MOL0     H19816   4.782   2.266   3.722  0.2620 -0.1944 -1.5106
  888MOL0     H19817   4.560   2.196   3.746  2.7011  1.7298 -1.6073
  888MOL0     H19818   4.674   2.055   3.735  1.7176 -0.3351  1.4889
  888MOL0     H19819   4.671   2.048   3.998 -1.3427  1.8947  2.8278
  888MOL0     H19820   4.531   2.160   3.988  1.5949  1.1823 -1.2770
  888MOL0     H19821   4.414   2.013   3.839 -1.7984 -0.8954  0.6427
  888MOL0     H19822   4.529   1.886   3.864 -0.0083  1.2636 -2.1254
  888MOL0     H19823   4.328   2.006   4.074  1.4830  2.7106  0.5125
  888MOL0     H19824   4.333   1.847   4.004 -3.0039  3.1935 -0.9631
  888MOL0     H19825   4.533   1.774   4.112  2.3656 -0.2034 -0.0488
  888MOL0     H19826   4.581   1.926   4.172  0.6853 -1.5946  1.6916
  888MOL0     H19827   4.382   1.926   4.333 -0.4037  0.8374 -1.2979
  888MOL0     H19828   4.306   1.792   4.246 -0.6318  0.3508  2.4748
  888MOL0     H19829   4.381   1.751   4.475 -1.0603 -2.3174 -0.7427
  888MOL0     H19830   4.546   1.798   4.417  0.9351 -0.5432 -2.4445
  888MOL0     H19831   4.276   1.544   4.338 -0.2157  0.3166 -0.0481
  888MOL0     H19832   4.422   1.226   4.355 -0.0087  1.9712  2.3503
  888MOL0     H19833   4.296   1.299   4.245  0.3895 -0.3250 -3.1876
  888MOL0     H19834   4.438   1.116   4.148  1.1153 -0.3470 -1.3765
  888MOL0     H19835   4.564   1.235   4.140 -0.2318 -0.0216 -0.4297
  888MOL0     H19836   4.291   1.228   3.994  0.8783 -1.1047 -3.2125
  888MOL0     H19837   4.459   1.253   3.926 -2.3185 -1.0805 -2.3947
  888MOL0     H19838   4.447   1.480   3.993 -0.8269  0.9841 -1.4914
  888MOL0     H19839   4.280   1.453   4.056  0.6103 -1.3408  1.9273
  888MOL0     H19840   4.148   1.285   3.693 -1.6432  1.1895 -2.6152
  888MOL0     H19841   3.870   1.215   3.667 -1.4574  1.1155  1.0341
  888MOL0     H19842   3.845   1.338   3.552  1.8797  1.4642 -0.3244
  888MOL0     H19843   4.002   1.255   3.550 -1.0920  1.6599 -1.0975
  888MOL0     H19844   3.487   1.660   3.701 -1.1938  0.6387  1.0483
  888MOL0     H19845   3.250   1.631   3.635  0.9886  0.0242  2.0992
  888MOL0     H19846   3.029   1.302   3.439 -4.5183 -0.8565  2.1824
  888MOL0     H19847   3.113   1.222   3.571  0.3819  0.2081  1.8639
  888MOL0     H19848   2.967   1.328   3.721  2.4924  1.9331 -1.0233
  888MOL0     H19849   2.888   1.423   3.598 -1.3383  0.0917 -0.2948
  888MOL0     H19850   2.755   1.203   3.660  0.1669 -2.2610 -1.7541
  888MOL0     H19851   2.888   1.115   3.610  2.2274  0.2640  1.4014
  888MOL0     H19852   2.686   1.281   3.446 -0.5401 -1.2267 -0.2771
  888MOL0     H19853   2.847   1.247   3.382  1.7372  1.3105  1.8505
  888MOL0     H19854   2.806   0.988   3.432  0.4472 -1.2065 -3.8160
  888MOL0     H19855   2.720   1.064   3.310 -1.5772  1.6784  0.3481
  888MOL0     H19856   2.610   0.911   3.483  2.5100  0.3141  0.1534
  888MOL0     H19857   2.604   1.049   3.592  1.3988  1.2961 -1.1997
  888MOL0     H19858   2.485   1.038   3.296  0.6226  1.8830 -1.0258
  888MOL0     H19859   2.480   1.177   3.400 -0.1793  0.6702  1.8714
  888MOL0     H19860   2.304   1.118   3.513 -1.0622 -0.5839  0.3845
  888MOL0     H19861   2.367   0.966   3.561 -1.1633  0.5514  1.1363
  888MOL0     H19862   3.323   1.221   3.540  1.6188 -0.7119  0.8095
  888MOL0     H19863   3.546   1.238   3.582 -1.0168 -1.6669 -2.4572
  888MOL0     H19864   3.921   1.658   3.908 -0.2743 -1.3004 -0.8160
  888MOL0     H19865   4.162   1.629   3.951  0.8533 -0.1984 -0.7815
  888MOL0     H19866   4.950   2.403   3.825  0.0220  0.1099  0.3036
  888MOL0     H19867   5.147   2.501   3.938  2.1144 -0.4713 -0.8984
  888MOL0     H19868   5.663   2.480   4.069 -0.1203 -0.5577  1.2441
  888MOL0     H19869   5.810   2.629   4.217 -0.6562 -0.8976 -0.6634
  888MOL0     H19870   5.758   2.914   4.550 -1.2290  1.9631 -3.4934
  888MOL0     H19871   5.582   2.874   4.520 -1.9889 -3.8505 -3.1015
  888MOL0     H19872   5.782   2.681   4.657  0.7391  0.0318  1.4540
  888MOL0     H19873   5.611   2.647   4.595  0.0620  1.2305 -0.2661
  888MOL0     H19874   5.539   2.820   4.747  0.3813 -0.5494  2.0972
  888MOL0     H19875   5.709   2.844   4.809 -0.5223  2.3226 -0.5260
  888MOL0     H19876   5.708   2.619   4.866 -0.1520 -2.0540  1.8266
  888MOL0     H19877   5.539   2.592   4.822 -0.4078  0.3977  3.0414
  888MOL0     H19878   5.439   2.793   5.159 -4.7483 -0.6466 -3.1432
  888MOL0     H19879   5.460   2.702   4.452 -0.1998  0.8116  0.0949
  888MOL0     H19880   5.311   2.606   4.296  0.4633 -2.7212  3.0832
  889MOL0     O19881   0.416   6.805   6.132 -0.2765  0.1814 -0.4767
  889MOL0     C19882   0.347   6.702   6.127  0.5334 -0.5539 -0.1866
  889MOL0     O19883   0.316   6.635   6.013 -0.1543  0.9463  0.6867
  889MOL0     C19884   0.341   6.704   5.889  0.7966 -0.2136  0.9720
  889MOL0     C19885   0.419   6.645   5.799 -0.1958 -1.0648  0.3544
  889MOL0     C19886   0.459   6.705   5.682 -0.4906  0.2634 -0.3166
  889MOL0     C19887   0.410   6.832   5.647  0.2139  0.2336  0.9713
  889MOL0     O19888   0.436   6.887   5.524  0.6079 -0.3137  0.0170
  889MOL0     C19889   0.363   6.821   5.414  0.9419 -0.5797  0.1120
  889MOL0     C19890   0.303   6.933   5.330 -0.0248  0.4030 -0.2182
  889MOL0     C19891   0.245   6.877   5.196  0.9264  1.4393 -1.0257
  889MOL0     C19892   0.102   6.815   5.192 -0.3954 -0.0798 -0.0814
  889MOL0     C19893   0.125   6.662   5.167  0.2904  0.7784 -0.2230
  889MOL0     C19894  -0.006   6.586   5.201  0.1171  0.8120 -0.4919
  889MOL0     C19895   0.028   6.438   5.180  0.8163  0.3123 -0.3531
  889MOL0     C19896  -0.076   6.378   5.094  0.2674  0.1602  0.5122
  889MOL0     N19897  -0.062   6.241   5.058 -0.5145  0.4995 -0.1351
  889MOL0     C19898  -0.044   6.143   5.152  0.4380 -0.3461 -0.3499
  889MOL0     C19899  -0.081   6.028   5.076 -0.8476 -0.0076 -1.0669
  889MOL0     C19900  -0.078   5.894   5.130  0.7714 -0.1505  0.3259
  889MOL0     C19901  -0.213   5.813   5.099 -0.4697 -0.4311  0.4115
  889MOL0     C19902  -0.308   5.836   5.219 -0.5932 -0.0721 -0.6532
  889MOL0     C19903  -0.452   5.793   5.187 -0.3857  0.5342 -0.1717
  889MOL0     O19904  -0.536   5.796   5.295  0.0616 -0.3822  0.4058
  889MOL0     C19905  -0.646   5.879   5.314 -0.1587 -0.5605 -0.1277
  889MOL0     C19906  -0.645   6.014   5.284 -0.6396  0.2026 -0.0803
  889MOL0     C19907  -0.749   6.095   5.309  0.5045  1.2156 -0.2797
  889MOL0     C19908  -0.746   6.240   5.256 -0.1287 -0.1302 -0.3615
  889MOL0     C19909  -0.869   6.037   5.367  0.0210  0.1897 -0.9269
  889MOL0     C19910  -0.983   6.124   5.426  0.0556 -0.0296  0.6208
  889MOL0     O19911  -0.949   6.246   5.459 -0.1392  0.1369  0.7421
  889MOL0     C19912  -1.039   6.312   5.534 -0.4114 -0.5197  0.4873
  889MOL0     C19913  -0.973   6.366   5.642 -0.2831  0.7067 -1.1867
  889MOL0     C19914  -1.056   6.448   5.730 -0.3107  0.5701  0.0197
  889MOL0     C19915  -1.194   6.470   5.704 -0.2324 -0.0244  0.5142
  889MOL0     O19916  -1.277   6.533   5.792  0.0145 -0.1018 -0.0838
  889MOL0     C19917  -1.224   6.661   5.835 -0.2518  1.0849  0.9457
  889MOL0     C19918  -1.344   6.743   5.886 -0.2762  0.1055 -0.5006
  889MOL0     C19919  -1.299   6.865   5.955  0.3489  0.1757  0.2366
  889MOL0     C19920  -1.429   6.955   5.969 -0.4533  0.2878 -0.3280
  889MOL0     C19921  -1.463   7.037   5.848 -0.8235  0.6856 -0.8308
  889MOL0     C19922  -1.573   7.138   5.892  0.8366 -0.9418  0.5067
  889MOL0     C19923  -1.632   7.200   5.766 -0.7993 -0.0307  0.0717
  889MOL0     C19924  -1.760   7.291   5.790  0.3987  0.8001 -0.3101
  889MOL0    Cl19925  -1.747   7.424   5.930 -0.2374 -0.1973 -0.2895
  889MOL0     C19926  -1.256   6.417   5.599 -0.0119 -0.3240 -0.6221
  889MOL0     C19927  -1.179   6.337   5.510  0.2119  0.5781  0.0401
  889MOL0     O19928  -1.076   6.058   5.460  0.4264 -0.7099  0.4026
  889MOL0     C19929  -0.870   5.894   5.378  0.7692  1.0238 -0.0552
  889MOL0     C19930  -0.759   5.824   5.362 -0.5218 -0.3973  0.7798
  889MOL0     N19931  -0.118   6.053   4.950 -0.1727 -0.2319  1.0683
  889MOL0     N19932  -0.100   6.188   4.938  0.4367  0.7784  0.8474
  889MOL0     C19933   0.313   6.894   5.733  0.8586  0.3410  1.4321
  889MOL0     C19934   0.283   6.832   5.858 -0.4207  1.2250  0.1125
  889MOL0     C19935   0.269   6.669   6.245 -0.1460  1.1768  0.1299
  889MOL0     C19936   0.259   6.747   6.357  0.1765  0.4854  0.9186
  889MOL0     C19937   0.178   6.712   6.458  0.5723 -0.1965  0.9650
  889MOL0     C19938   0.099   6.597   6.452 -0.7010  0.2950  0.7169
  889MOL0     O19939   0.004   6.540   6.540 -0.2793  0.5401 -0.0245
  889MOL0     C19940   0.004   6.584   6.677 -0.4490 -0.0408  0.3855
  889MOL0     C19941   0.132   6.559   6.751  0.3039  0.4243  0.6270
  889MOL0     C19942   0.169   6.412   6.746 -0.1829  0.3819  0.0606
  889MOL0     C19943   0.311   6.382   6.800 -0.7070  0.6898 -0.2034
  889MOL0     C19944   0.312   6.368   6.951  1.0683  0.5174  0.4812
  889MOL0     C19945   0.300   6.390   7.065 -0.0595  1.2085  0.0592
  889MOL0     C19946   0.124   6.513   6.347  0.5176 -0.3178 -0.5054
  889MOL0     C19947   0.207   6.548   6.242  0.0204  0.5337  0.1958
  889MOL0     H19948   0.476   6.560   5.835  2.3339  1.7968  3.8235
  889MOL0     H19949   0.537   6.661   5.622  1.7890 -1.0755  3.2911
  889MOL0     H19950   0.424   6.752   5.356  0.1451 -0.3239 -1.0603
  889MOL0     H19951   0.284   6.754   5.449  0.6698  0.0561  0.7717
  889MOL0     H19952   0.217   6.972   5.384 -1.9006 -0.8441 -2.1339
  889MOL0     H19953   0.375   7.007   5.295  1.1991 -1.4431 -1.9051
  889MOL0     H19954   0.235   6.958   5.123 -1.6433 -0.9613 -3.6145
  889MOL0     H19955   0.313   6.807   5.147  2.8110  1.5784  1.2345
  889MOL0     H19956   0.050   6.840   5.285  0.8406  3.9757 -0.2878
  889MOL0     H19957   0.040   6.859   5.114 -1.8559 -2.4566 -0.3592
  889MOL0     H19958   0.151   6.642   5.063  0.2420 -0.4503 -0.0183
  889MOL0     H19959   0.201   6.614   5.230 -0.3569 -1.1144 -0.8136
  889MOL0     H19960  -0.039   6.593   5.305 -2.2716 -5.9497 -0.2743
  889MOL0     H19961  -0.082   6.622   5.131 -2.2833  0.4602  1.7913
  889MOL0     H19962   0.113   6.422   5.112  0.5363 -0.5217 -0.5206
  889MOL0     H19963   0.033   6.389   5.278 -0.4664  1.7307  0.4558
  889MOL0     H19964  -0.075   6.435   5.001  0.9995 -0.1939  0.2966
  889MOL0     H19965  -0.171   6.394   5.145 -0.0676 -1.7611  0.5925
  889MOL0     H19966  -0.031   6.156   5.259 -3.1179  0.7571  0.0789
  889MOL0     H19967  -0.001   5.841   5.073  0.4398 -2.2942  1.7704
  889MOL0     H19968  -0.069   5.877   5.238 -1.8127 -2.0242  0.3366
  889MOL0     H19969  -0.191   5.707   5.084  1.5564  0.1570 -1.1791
  889MOL0     H19970  -0.254   5.855   5.006 -1.0162 -0.4830  0.6267
  889MOL0     H19971  -0.299   5.940   5.251  0.1392 -0.7505  1.6223
  889MOL0     H19972  -0.272   5.775   5.303  1.8760  1.3894 -0.5602
  889MOL0     H19973  -0.438   5.699   5.133  1.0891  1.9309 -2.4326
  889MOL0     H19974  -0.495   5.861   5.113  0.4425  0.8951 -0.3336
  889MOL0     H19975  -0.547   6.046   5.248 -1.6431  0.8830 -2.3637
  889MOL0     H19976  -0.841   6.280   5.221 -0.3105 -2.5729 -3.0045
  889MOL0     H19977  -0.702   6.313   5.325  2.2901 -0.2813 -1.6352
  889MOL0     H19978  -0.689   6.230   5.162  0.2940 -0.5228 -0.0674
  889MOL0     H19979  -0.877   6.343   5.687 -0.8196  2.4412  0.9567
  889MOL0     H19980  -1.007   6.490   5.818 -0.3435  0.7129 -0.0298
  889MOL0     H19981  -1.147   6.644   5.911 -0.3982 -1.4022  0.6333
  889MOL0     H19982  -1.174   6.711   5.751 -0.1484 -1.7750 -0.8136
  889MOL0     H19983  -1.427   6.757   5.816  0.2098  1.6598 -0.8020
  889MOL0     H19984  -1.385   6.681   5.967  2.8641  0.1716  1.2960
  889MOL0     H19985  -1.220   6.916   5.900 -1.0647  4.3001  1.5805
  889MOL0     H19986  -1.256   6.852   6.055  0.3042  2.8029  0.6730
  889MOL0     H19987  -1.515   6.892   5.990  0.1218  0.0149  1.3982
  889MOL0     H19988  -1.411   7.023   6.053 -0.6147  1.2948 -1.0916
  889MOL0     H19989  -1.482   6.976   5.759  1.2283 -1.9255  0.3896
  889MOL0     H19990  -1.370   7.088   5.821  0.8372 -1.8944 -0.3311
  889MOL0     H19991  -1.654   7.085   5.943  0.8996 -1.7789 -0.2254
  889MOL0     H19992  -1.542   7.206   5.971  0.7342 -3.1190  2.5653
  889MOL0     H19993  -1.635   7.134   5.679  1.8597  0.3212 -0.3538
  889MOL0     H19994  -1.564   7.281   5.739 -0.3706 -0.3697  0.1119
  889MOL0     H19995  -1.845   7.225   5.813  1.2666 -0.6759 -1.1778
  889MOL0     H19996  -1.794   7.345   5.702  3.6231  3.7376  0.0392
  889MOL0     H19997  -1.362   6.435   5.581 -0.1604  1.4937  1.5384
  889MOL0     H19998  -1.229   6.295   5.423  2.9154  0.0499 -1.3759
  889MOL0     H19999  -0.954   5.836   5.414  0.7869 -0.8264 -2.6957
  889MOL0     H20000  -0.751   5.722   5.398  2.8840  0.2458  2.2522
  889MOL0     H20001   0.262   6.988   5.720 -0.6182 -0.6714 -0.7145
  889MOL0     H20002   0.212   6.869   5.931 -0.3587 -0.4960  1.1125
  889MOL0     H20003   0.316   6.840   6.359  0.7058  0.1821  3.7742
  889MOL0     H20004   0.165   6.778   6.544 -1.0963  1.0590 -0.1923
  889MOL0     H20005  -0.001   6.694   6.684  1.1329  0.2721 -2.3346
  889MOL0     H20006  -0.076   6.535   6.735  0.0790  1.9030  2.9748
  889MOL0     H20007   0.122   6.589   6.855 -0.8135 -1.4831  1.1174
  889MOL0     H20008   0.204   6.621   6.697 -0.1667 -1.2831 -2.2312
  889MOL0     H20009   0.144   6.368   6.649  3.0063 -2.5533  0.3861
  889MOL0     H20010   0.092   6.371   6.812 -0.1733  1.4723  0.7732
  889MOL0     H20011   0.378   6.462   6.769  1.0833 -0.5713  0.2586
  889MOL0     H20012   0.347   6.291   6.750 -1.4292  0.3370 -0.0977
  889MOL0     H20013   0.288   6.385   7.171  2.1761  2.2214  0.4125
  889MOL0     H20014   0.063   6.424   6.334 -1.1461  0.6445  0.2815
  889MOL0     H20015   0.209   6.484   6.154 -0.5413  3.0696 -1.7760
  890MOL0     O20016   5.667   2.872   0.989 -0.2453  0.8153 -0.4196
  890MOL0     C20017   5.618   2.790   0.920  0.0180  0.5286  0.0536
  890MOL0     O20018   5.518   2.706   0.951  1.1504 -0.3290  0.3451
  890MOL0     C20019   5.431   2.734   1.058 -0.6387  0.3477  0.9801
  890MOL0     C20020   5.410   2.866   1.096  0.3075 -0.2424  0.3194
  890MOL0     C20021   5.319   2.904   1.190 -0.3628  0.4239  0.5780
  890MOL0     C20022   5.268   2.809   1.281 -1.2954  0.8851  0.0627
  890MOL0     O20023   5.173   2.843   1.371 -0.1383 -0.0099 -0.0696
  890MOL0     C20024   5.065   2.748   1.396 -0.4854 -0.1739  0.0461
  890MOL0     C20025   4.978   2.823   1.494  0.2047 -0.3768  0.5430
  890MOL0     C20026   4.834   2.757   1.504 -0.3052  0.0984  0.7602
  890MOL0     C20027   4.729   2.841   1.433  0.3333  0.0621  0.3030
  890MOL0     C20028   4.581   2.818   1.462  0.0992 -0.6167 -0.2440
  890MOL0     C20029   4.533   2.666   1.455 -0.0724 -0.6461 -0.2070
  890MOL0     C20030   4.398   2.661   1.510  0.3191  0.4981 -0.4793
  890MOL0     C20031   4.286   2.729   1.426 -0.8695 -0.7460 -0.4094
  890MOL0     N20032   4.279   2.679   1.285  0.8021 -0.3453  0.3914
  890MOL0     C20033   4.243   2.552   1.243  0.1879 -0.2978 -0.4305
  890MOL0     C20034   4.267   2.542   1.112 -0.2769 -0.0989 -0.3955
  890MOL0     C20035   4.256   2.420   1.035 -0.0566 -0.3507  0.1815
  890MOL0     C20036   4.151   2.425   0.925  0.7141  0.8697 -0.0784
  890MOL0     C20037   4.146   2.308   0.827 -0.0136  0.2974  0.1885
  890MOL0     C20038   4.108   2.172   0.891  0.2987 -0.0550  0.3249
  890MOL0     O20039   4.089   2.064   0.790  1.0097 -0.7293 -1.3827
  890MOL0     C20040   4.083   1.941   0.845  0.4030 -0.7358 -0.0873
  890MOL0     C20041   4.097   1.843   0.752  0.9641 -0.1798  0.2025
  890MOL0     C20042   4.105   1.706   0.787 -0.0691  0.8998  0.1652
  890MOL0     C20043   4.077   1.608   0.680  0.6633  0.7277 -0.8061
  890MOL0     C20044   4.097   1.672   0.921  0.2361  0.1374  0.4409
  890MOL0     C20045   4.105   1.532   0.980  0.8990 -0.6171  0.1277
  890MOL0     O20046   4.035   1.512   1.094 -1.6136 -0.4929  0.1815
  890MOL0     C20047   4.057   1.412   1.176 -0.4717 -0.1893 -0.1282
  890MOL0     C20048   4.170   1.318   1.183  0.0666  0.5576 -0.7318
  890MOL0     C20049   4.184   1.221   1.292 -0.0102 -0.7016  0.0191
  890MOL0     C20050   4.081   1.213   1.392 -0.0919  0.5833  0.3157
  890MOL0     O20051   4.064   1.110   1.478  0.2544  0.0780  0.0596
  890MOL0     C20052   4.168   1.088   1.558  0.9695  0.2224 -0.2484
  890MOL0     C20053   4.137   0.956   1.629 -0.7443 -0.6875  0.8876
  890MOL0     C20054   4.241   0.934   1.735  0.0106  0.1180  0.1872
  890MOL0     C20055   4.379   0.897   1.679 -0.1332  0.2874 -0.3604
  890MOL0     C20056   4.425   0.755   1.709  0.9432 -0.8380  0.4170
  890MOL0     C20057   4.572   0.719   1.677 -0.8297 -0.6947 -0.6451
  890MOL0     C20058   4.632   0.776   1.544  0.6906  0.4678 -1.2581
  890MOL0     C20059   4.766   0.719   1.504 -0.5712 -0.2633 -0.2500
  890MOL0    Cl20060   4.814   0.815   1.352 -0.1000 -0.2388  0.7019
  890MOL0     C20061   3.984   1.308   1.392  0.1501  0.1191  0.0149
  890MOL0     C20062   3.970   1.406   1.285 -0.4382  0.7367  0.1879
  890MOL0     O20063   4.169   1.450   0.923 -0.2023 -0.5070  0.1808
  890MOL0     C20064   4.080   1.774   1.020 -0.1118  1.6321  0.2355
  890MOL0     C20065   4.064   1.910   0.977 -0.5821  0.3613 -0.2264
  890MOL0     N20066   4.284   2.673   1.070 -0.6349  0.3757 -0.4065
  890MOL0     N20067   4.294   2.753   1.176  0.1880 -0.8843 -0.0700
  890MOL0     C20068   5.311   2.665   1.262 -0.7732  1.0474 -0.3359
  890MOL0     C20069   5.393   2.631   1.150 -0.3564  0.6435  0.1155
  890MOL0     C20070   5.679   2.783   0.791  0.0701  0.3103 -0.7418
  890MOL0     C20071   5.779   2.883   0.752  0.7006  0.3506  0.5990
  890MOL0     C20072   5.816   2.891   0.620 -0.3280  0.5308  0.2693
  890MOL0     C20073   5.744   2.825   0.517 -0.1167  0.5065  0.7658
  890MOL0     O20074   5.761   2.840   0.385 -0.1429 -0.2943 -0.1329
  890MOL0     C20075   5.877   2.914   0.341 -0.0119 -0.6245  0.2049
  890MOL0     C20076   5.842   3.063   0.326  0.1760  0.0486  0.7126
  890MOL0     C20077   5.965   3.142   0.271  0.8238 -0.6998 -0.5911
  890MOL0     C20078   5.916   3.282   0.300 -1.4619 -1.3400  0.0603
  890MOL0     C20079   6.005   3.370   0.234 -0.0736  0.7713 -0.1801
  890MOL0     C20080   6.088   3.437   0.173  0.2076 -0.5139 -0.1331
  890MOL0     C20081   5.644   2.735   0.559 -0.7885  0.3139  0.2032
  890MOL0     C20082   5.616   2.709   0.692 -1.6528  0.3563  1.1730
  890MOL0     H20083   5.445   2.945   1.030  0.0977  0.4076  0.9679
  890MOL0     H20084   5.297   3.010   1.193 -0.4209  0.4466 -0.4299
  890MOL0     H20085   5.016   2.733   1.299 -0.9183 -1.6995  0.4821
  890MOL0     H20086   5.098   2.654   1.442 -1.3338 -0.9704 -0.9206
  890MOL0     H20087   5.031   2.832   1.589  2.3717 -0.3189 -0.6076
  890MOL0     H20088   4.973   2.925   1.453 -1.5838  0.1698  1.9588
  890MOL0     H20089   4.838   2.659   1.456  1.2592  0.4113  0.1962
  890MOL0     H20090   4.811   2.761   1.610 -0.1078  1.6258  0.7722
  890MOL0     H20091   4.752   2.948   1.446  0.2892  0.8634 -4.5557
  890MOL0     H20092   4.750   2.843   1.326  0.2922  1.8424  0.2893
  890MOL0     H20093   4.555   2.865   1.557  1.0177  0.6798 -0.6180
  890MOL0     H20094   4.535   2.879   1.383 -2.7399  1.1680  2.5363
  890MOL0     H20095   4.526   2.636   1.349 -3.7691  0.5908 -0.4547
  890MOL0     H20096   4.607   2.596   1.495  0.9452  0.6877  0.2822
  890MOL0     H20097   4.362   2.560   1.527  1.1027  0.3674  0.5018
  890MOL0     H20098   4.406   2.698   1.613 -2.9663  0.5875 -0.1346
  890MOL0     H20099   4.299   2.837   1.428  0.7918 -0.9280  0.3396
  890MOL0     H20100   4.190   2.712   1.475 -0.2827  2.0934  2.0081
  890MOL0     H20101   4.224   2.475   1.316  4.5475 -0.2376  1.0480
  890MOL0     H20102   4.351   2.424   0.982 -1.3438  3.2648 -2.1994
  890MOL0     H20103   4.250   2.328   1.094  3.3937 -1.8725 -1.5395
  890MOL0     H20104   4.175   2.509   0.860 -4.0979  1.7040 -1.1753
  890MOL0     H20105   4.051   2.439   0.967  0.6257  0.1673 -0.0489
  890MOL0     H20106   4.243   2.301   0.778 -0.4183 -1.8350 -0.4343
  890MOL0     H20107   4.065   2.335   0.758  0.2951  0.7245 -0.0081
  890MOL0     H20108   4.013   2.188   0.944 -0.5866 -0.4120 -1.0986
  890MOL0     H20109   4.189   2.152   0.962  0.9864 -1.0292 -0.7062
  890MOL0     H20110   4.076   1.861   0.647  4.0837 -0.8805 -0.6261
  890MOL0     H20111   4.068   1.504   0.712  1.4059  1.0692  0.5975
  890MOL0     H20112   3.991   1.650   0.626  0.9901 -0.3515 -2.2190
  890MOL0     H20113   4.162   1.609   0.611 -1.0299 -3.9308 -3.4188
  890MOL0     H20114   4.228   1.306   1.092 -3.6940 -3.3333 -2.9928
  890MOL0     H20115   4.271   1.156   1.301  0.0556 -0.6519 -0.2472
  890MOL0     H20116   4.266   1.098   1.511 -0.2955  4.5206 -2.5640
  890MOL0     H20117   4.163   1.166   1.635 -2.3977 -1.9409  1.9596
  890MOL0     H20118   4.041   0.961   1.680  0.4508  3.2731  3.1775
  890MOL0     H20119   4.122   0.878   1.554  1.2251 -1.7546  1.5331
  890MOL0     H20120   4.213   0.859   1.810  2.7200  0.6509  1.8719
  890MOL0     H20121   4.239   1.024   1.796 -1.1457 -2.5115  4.4958
  890MOL0     H20122   4.387   0.887   1.570 -0.0131  0.5069 -0.3712
  890MOL0     H20123   4.455   0.971   1.706  2.0698 -2.2855  0.9405
  890MOL0     H20124   4.358   0.684   1.659  0.0060 -0.6340  1.3494
  890MOL0     H20125   4.425   0.744   1.817  4.7891  1.0965  0.7807
  890MOL0     H20126   4.635   0.760   1.757 -1.0505  2.1499 -1.8207
  890MOL0     H20127   4.578   0.610   1.678  3.3264 -0.6217 -0.9832
  890MOL0     H20128   4.634   0.885   1.543  3.1468  0.4768 -1.8611
  890MOL0     H20129   4.561   0.747   1.465 -1.7330  2.6891 -0.0281
  890MOL0     H20130   4.768   0.610   1.500  1.9888 -0.2503 -1.2907
  890MOL0     H20131   4.834   0.754   1.581 -1.8007 -1.5096  1.4823
  890MOL0     H20132   3.902   1.318   1.462 -0.7791 -1.7418 -0.7380
  890MOL0     H20133   3.892   1.481   1.276  0.8992  1.9575 -2.4563
  890MOL0     H20134   4.061   1.751   1.124  0.2150  3.4752  0.7258
  890MOL0     H20135   4.051   1.983   1.056  3.8338  0.5185  0.5946
  890MOL0     H20136   5.285   2.581   1.325  0.3089  0.4595 -0.6546
  890MOL0     H20137   5.434   2.532   1.129 -0.7963  0.3430  0.6445
  890MOL0     H20138   5.839   2.934   0.827 -0.9632  0.9173  1.5927
  890MOL0     H20139   5.894   2.963   0.602  0.0770 -0.0620 -0.3994
  890MOL0     H20140   5.961   2.914   0.412  0.3932  1.5330 -0.1924
  890MOL0     H20141   5.904   2.877   0.242 -0.3975 -0.2294 -0.0528
  890MOL0     H20142   5.821   3.098   0.428 -1.5605  0.3306  0.2840
  890MOL0     H20143   5.748   3.080   0.274 -2.1854 -4.8050  2.6750
  890MOL0     H20144   5.976   3.114   0.166  1.1352 -0.9141 -0.5036
  890MOL0     H20145   6.056   3.111   0.324  1.8063 -1.6128 -2.7044
  890MOL0     H20146   5.915   3.315   0.404 -1.8434  3.0520 -1.1245
  890MOL0     H20147   5.817   3.299   0.258 -1.1484  0.3869 -0.0565
  890MOL0     H20148   6.155   3.511   0.135 -0.1597 -0.0919  0.0356
  890MOL0     H20149   5.593   2.687   0.475 -1.6934 -0.5728  1.2322
  890MOL0     H20150   5.545   2.631   0.721  2.2911 -2.6535  3.7722
  891MOL0     O20151  10.816   8.874   8.455 -0.6477 -0.0798  1.0992
  891MOL0     C20152  10.871   8.811   8.543  0.1680 -0.4048  0.4489
  891MOL0     O20153  10.986   8.738   8.529  0.0170 -0.1144 -0.6082
  891MOL0     C20154  11.053   8.738   8.408  0.2000 -0.1017 -0.7367
  891MOL0     C20155  11.112   8.856   8.367 -0.2437 -0.6208  0.2823
  891MOL0     C20156  11.181   8.862   8.248 -0.2997  0.0812  0.2685
  891MOL0     C20157  11.174   8.753   8.156  0.4588 -0.6260 -0.5877
  891MOL0     O20158  11.222   8.768   8.029  0.1826  0.0947 -0.2380
  891MOL0     C20159  11.226   8.900   7.968 -0.3974 -0.0936 -0.3334
  891MOL0     C20160  11.273   8.882   7.820  0.0304 -0.2380 -1.2906
  891MOL0     C20161  11.299   9.017   7.749 -0.2956 -0.5890  0.1288
  891MOL0     C20162  11.166   9.095   7.734 -0.0866  0.6996 -0.6709
  891MOL0     C20163  11.155   9.217   7.638 -0.3784  0.0669  0.3353
  891MOL0     C20164  11.241   9.337   7.679  0.3292 -0.0541  0.4926
  891MOL0     C20165  11.235   9.453   7.580  1.5056 -0.7716  0.0982
  891MOL0     C20166  11.127   9.554   7.597  0.1271  0.2370  1.5789
  891MOL0     N20167  11.158   9.656   7.692 -0.1648 -0.2606 -0.9253
  891MOL0     C20168  11.111   9.659   7.824 -0.2806  0.6305  0.9659
  891MOL0     C20169  11.163   9.777   7.870  0.4356  0.3658 -0.0064
  891MOL0     C20170  11.155   9.830   8.009  0.2403  0.6675 -0.6986
  891MOL0     C20171  11.075   9.954   8.020 -0.1567  0.2584  0.3720
  891MOL0     C20172  10.922   9.939   8.018 -0.0585  1.2085  0.7391
  891MOL0     C20173  10.866  10.026   8.130  0.7356 -0.1319 -0.3871
  891MOL0     O20174  10.726  10.015   8.143 -0.5025 -0.1681 -1.0710
  891MOL0     C20175  10.662  10.086   8.240 -1.1802  0.4761  0.9704
  891MOL0     C20176  10.530  10.043   8.262 -0.7976  0.4501 -0.0658
  891MOL0     C20177  10.450  10.112   8.350  1.0505 -0.2586 -0.4689
  891MOL0     C20178  10.311  10.061   8.370 -0.0901 -0.6187  0.2954
  891MOL0     C20179  10.500  10.236   8.407  0.1060  0.3183 -0.6528
  891MOL0     C20180  10.419  10.327   8.499  0.8402  0.2000  0.8717
  891MOL0     O20181  10.480  10.434   8.556  0.0082  0.2421  0.2275
  891MOL0     C20182  10.395  10.515   8.629 -0.4914  0.6474 -0.3405
  891MOL0     C20183  10.376  10.503   8.770 -0.4331  0.4744  0.4031
  891MOL0     C20184  10.302  10.598   8.842 -0.2791  0.3809  0.0507
  891MOL0     C20185  10.249  10.713   8.775 -0.7895  0.1721 -0.4490
  891MOL0     O20186  10.193  10.811   8.851 -0.4514 -0.2898 -0.4781
  891MOL0     C20187  10.105  10.910   8.783 -0.4873  1.1777 -1.3993
  891MOL0     C20188  10.025  10.982   8.889  0.6071 -0.5195  0.9305
  891MOL0     C20189  10.085  11.101   8.944 -0.0568 -0.4216  0.6792
  891MOL0     C20190  10.218  11.080   9.012 -0.5907 -0.4503  0.0944
  891MOL0     C20191  10.269  11.204   9.102 -0.3996 -0.0964  0.8107
  891MOL0     C20192  10.291  11.335   9.027  1.1355 -0.0520 -0.1075
  891MOL0     C20193  10.431  11.338   8.953  0.1894 -0.7581  0.2943
  891MOL0     C20194  10.440  11.434   8.827  0.9876  0.2025 -0.6053
  891MOL0    Cl20195  10.610  11.495   8.797 -0.0859 -0.2730  0.3185
  891MOL0     C20196  10.264  10.722   8.635 -0.1707  0.4557  0.1368
  891MOL0     C20197  10.337  10.623   8.569  0.2599 -0.0653 -0.3019
  891MOL0     O20198  10.299  10.317   8.477 -1.0273 -0.5293 -0.1647
  891MOL0     C20199  10.626  10.278   8.365  0.8571  0.6300  0.3796
  891MOL0     C20200  10.715  10.198   8.295  0.4639 -0.2041 -0.4403
  891MOL0     N20201  11.262   9.822   7.787  0.3208  0.6144 -0.3067
  891MOL0     N20202  11.246   9.757   7.674  0.4458  0.4562  0.3187
  891MOL0     C20203  11.116   8.631   8.198 -0.5348  0.1525  0.8688
  891MOL0     C20204  11.049   8.624   8.321 -0.2684  0.3715  0.2960
  891MOL0     C20205  10.818   8.817   8.681  0.7413  0.1637  0.0421
  891MOL0     C20206  10.710   8.902   8.722  0.2702  0.0031  1.3125
  891MOL0     C20207  10.659   8.898   8.852 -0.1629  0.5905 -0.7616
  891MOL0     C20208  10.711   8.815   8.946  0.3066  0.0923  0.5387
  891MOL0     O20209  10.672   8.837   9.079 -0.4750  0.1947  1.1736
  891MOL0     C20210  10.754   8.792   9.193 -0.4954 -0.5190 -0.8246
  891MOL0     C20211  10.889   8.876   9.196 -0.4667  0.2795  1.3218
  891MOL0     C20212  10.981   8.901   9.322 -0.2220 -0.9839  0.3256
  891MOL0     C20213  10.970   8.797   9.425 -0.1488  0.4687 -0.3262
  891MOL0     C20214  11.060   8.675   9.402  0.8667  0.1112  0.8511
  891MOL0     C20215  11.114   8.581   9.368 -0.0221  0.8268 -0.4420
  891MOL0     C20216  10.817   8.734   8.911  0.0030  0.6859 -0.7931
  891MOL0     C20217  10.875   8.738   8.786  0.8674 -0.0934  0.4455
  891MOL0     H20218  11.106   8.936   8.440 -1.8449 -0.0012 -0.4669
  891MOL0     H20219  11.240   8.951   8.234 -2.3136  1.3314 -0.6965
  891MOL0     H20220  11.124   8.941   7.965  0.8077  3.1028 -1.3431
  891MOL0     H20221  11.294   8.965   8.024  0.1847 -2.4036  1.8482
  891MOL0     H20222  11.367   8.827   7.812  0.3755 -0.2418  1.5205
  891MOL0     H20223  11.189   8.836   7.767 -1.4276 -0.6174  1.1869
  891MOL0     H20224  11.379   9.070   7.801 -0.6779 -2.0213  2.3095
  891MOL0     H20225  11.350   8.994   7.655 -1.2958 -0.0063 -0.5804
  891MOL0     H20226  11.083   9.024   7.720  0.2244 -0.2992  1.9106
  891MOL0     H20227  11.141   9.134   7.833  0.2605 -0.4843 -0.0988
  891MOL0     H20228  11.183   9.184   7.537  0.0559  2.1560 -0.2738
  891MOL0     H20229  11.052   9.249   7.618 -0.1448 -0.3154 -1.7231
  891MOL0     H20230  11.208   9.370   7.778  2.1066  2.2268  0.4122
  891MOL0     H20231  11.346   9.307   7.691  0.2802 -0.9173 -1.0152
  891MOL0     H20232  11.322   9.517   7.598  0.9982  0.2567 -0.9073
  891MOL0     H20233  11.240   9.421   7.475  2.4815 -0.4476  0.0280
  891MOL0     H20234  11.034   9.500   7.617 -0.9905  1.0406 -0.9995
  891MOL0     H20235  11.118   9.611   7.504 -3.9073  1.3170  2.4583
  891MOL0     H20236  11.036   9.593   7.868 -0.5397 -0.3168 -0.8113
  891MOL0     H20237  11.104   9.751   8.067 -1.3023  3.2087  1.6559
  891MOL0     H20238  11.261   9.827   8.036  0.6634 -0.0204 -2.3022
  891MOL0     H20239  11.104  10.026   7.944  2.1549 -1.8530 -0.8852
  891MOL0     H20240  11.104  10.003   8.113  0.9451 -0.2715  0.3152
  891MOL0     H20241  10.891   9.835   8.028 -0.6871  1.0627 -1.9683
  891MOL0     H20242  10.903   9.983   7.919  3.1396  1.3363  0.0628
  891MOL0     H20243  10.901  10.127   8.109  0.3678  0.2645  0.8260
  891MOL0     H20244  10.903  10.001   8.230  0.0316  0.0656 -0.0714
  891MOL0     H20245  10.495   9.953   8.211 -1.2068 -0.3855  1.6272
  891MOL0     H20246  10.237  10.108   8.305 -1.8187 -2.7442  0.6017
  891MOL0     H20247  10.307   9.958   8.332 -1.0370  0.8011 -3.9279
  891MOL0     H20248  10.277  10.069   8.474  0.9415 -1.2436  0.6903
  891MOL0     H20249  10.422  10.422   8.826 -1.0055  1.5048  2.4544
  891MOL0     H20250  10.304  10.594   8.950  0.5480 -0.4889  0.0131
  891MOL0     H20251  10.166  10.985   8.732  0.1702  0.5356 -1.5776
  891MOL0     H20252  10.034  10.858   8.719 -0.2637 -0.1792 -0.5911
  891MOL0     H20253   9.931  11.009   8.838  1.0689 -0.6647 -0.0103
  891MOL0     H20254   9.998  10.905   8.962  0.3206 -1.9149 -0.5853
  891MOL0     H20255  10.015  11.142   9.017 -0.3749  0.7607 -0.2577
  891MOL0     H20256  10.097  11.178   8.867 -1.8284 -0.2739  0.5119
  891MOL0     H20257  10.203  10.990   9.073  2.5640 -3.6630 -3.4280
  891MOL0     H20258  10.297  11.052   8.943  1.2323  2.6952  0.7183
  891MOL0     H20259  10.368  11.191   9.147 -0.4138 -0.1935  0.8160
  891MOL0     H20260  10.201  11.222   9.186  1.1705  1.9199  1.7217
  891MOL0     H20261  10.215  11.336   8.948  0.4225 -1.0675  0.5364
  891MOL0     H20262  10.273  11.425   9.086 -0.9668 -1.0580  0.9039
  891MOL0     H20263  10.443  11.242   8.903 -0.8021 -0.4820 -0.4989
  891MOL0     H20264  10.513  11.360   9.023 -1.3035  1.5105  1.4719
  891MOL0     H20265  10.374  11.519   8.845  0.6555 -0.3845  1.1427
  891MOL0     H20266  10.400  11.386   8.738 -3.6931  2.4185  0.0161
  891MOL0     H20267  10.211  10.800   8.580  0.4322  0.1420 -0.9075
  891MOL0     H20268  10.353  10.637   8.462  2.3637  0.3418  0.0108
  891MOL0     H20269  10.655  10.379   8.392  0.6529  1.5895 -2.5872
  891MOL0     H20270  10.807  10.247   8.263  0.2045  0.6942  0.1510
  891MOL0     H20271  11.110   8.539   8.142 -0.2192 -0.5679  1.9932
  891MOL0     H20272  10.995   8.534   8.348  0.7085 -0.4177 -0.2792
  891MOL0     H20273  10.663   8.960   8.643  1.0954 -1.4718 -0.3284
  891MOL0     H20274  10.587   8.977   8.869  2.0118  2.9526 -1.7361
  891MOL0     H20275  10.705   8.789   9.290  2.9711 -1.0689  1.0776
  891MOL0     H20276  10.777   8.686   9.183  0.7795 -0.1634 -2.0520
  891MOL0     H20277  10.860   8.974   9.157 -0.1103 -0.8598 -2.1252
  891MOL0     H20278  10.942   8.827   9.114 -1.1789 -1.6402  1.9628
  891MOL0     H20279  10.952   8.996   9.367  1.0825  0.6460 -2.0437
  891MOL0     H20280  11.086   8.914   9.298 -0.5051 -1.0748 -1.0422
  891MOL0     H20281  10.865   8.769   9.440 -0.3023  2.1947  2.6458
  891MOL0     H20282  11.005   8.844   9.517 -3.5976  0.9338  0.9021
  891MOL0     H20283  11.176   8.507   9.322 -0.3678  0.0978  0.2349
  891MOL0     H20284  10.858   8.665   8.984  0.7481 -0.6865 -2.4247
  891MOL0     H20285  10.958   8.669   8.774  1.6597  0.5237  2.1043
  892MOL0     O20286   9.747   1.569   4.432  0.8626  0.7707  0.5724
  892MOL0     C20287   9.832   1.655   4.468 -0.7169  0.0138  0.9996
  892MOL0     O20288   9.935   1.631   4.546 -0.8991 -0.4219  0.3477
  892MOL0     C20289   9.954   1.519   4.615  0.0637  0.8827 -0.7475
  892MOL0     C20290   9.890   1.508   4.738  0.6522 -0.8722  0.7536
  892MOL0     C20291   9.908   1.393   4.816 -0.9870  1.2454 -0.4118
  892MOL0     C20292   9.984   1.287   4.766 -0.1257 -0.7541  0.6487
  892MOL0     O20293  10.004   1.164   4.815 -0.0694 -0.0096 -1.6430
  892MOL0     C20294   9.996   1.148   4.960 -0.2950 -0.6356 -0.1861
  892MOL0     C20295  10.043   1.019   5.018  1.1670  1.1684  0.7280
  892MOL0     C20296   9.969   0.900   4.946 -0.4122 -0.0225  0.2665
  892MOL0     C20297   9.842   0.878   5.022 -0.6751 -0.3827  0.0626
  892MOL0     C20298   9.776   0.762   4.950 -0.5858 -0.2815 -0.4434
  892MOL0     C20299   9.651   0.799   4.877  0.6760 -0.2250 -1.0303
  892MOL0     C20300   9.526   0.812   4.974  0.0423  0.0703 -0.0765
  892MOL0     C20301   9.397   0.845   4.892  0.8911  0.1548 -0.2303
  892MOL0     N20302   9.382   0.988   4.867  0.4214 -0.1434  0.2615
  892MOL0     C20303   9.442   1.053   4.768 -0.6485 -0.1351 -0.0465
  892MOL0     C20304   9.442   1.191   4.800 -0.0207 -0.2436 -0.3357
  892MOL0     C20305   9.502   1.307   4.715 -0.0652  0.6421  0.2528
  892MOL0     C20306   9.403   1.422   4.701 -0.0851 -1.0686 -0.1258
  892MOL0     C20307   9.471   1.527   4.604  0.2485  0.3270 -0.5546
  892MOL0     C20308   9.362   1.581   4.512 -0.2463 -0.7602  0.5619
  892MOL0     O20309   9.333   1.479   4.415 -0.7151  0.4777 -0.2734
  892MOL0     C20310   9.333   1.504   4.282 -0.0760  0.1479 -0.3797
  892MOL0     C20311   9.228   1.470   4.201 -0.1444  0.8971  0.6251
  892MOL0     C20312   9.231   1.487   4.056  0.1806  0.4950  0.7133
  892MOL0     C20313   9.118   1.437   3.975  0.0353  0.1285  0.7700
  892MOL0     C20314   9.342   1.562   4.000  0.7727  0.7476  0.6875
  892MOL0     C20315   9.352   1.612   3.859  0.5266  0.4739  0.9043
  892MOL0     O20316   9.475   1.651   3.829  0.0209 -0.3459  0.3762
  892MOL0     C20317   9.507   1.740   3.734 -0.1104 -1.1853  1.0157
  892MOL0     C20318   9.412   1.829   3.660  0.1388  1.1015 -0.3313
  892MOL0     C20319   9.458   1.920   3.571 -0.0151 -0.4236  0.3433
  892MOL0     C20320   9.597   1.931   3.538 -0.4843  0.4642 -0.5856
  892MOL0     O20321   9.627   2.013   3.432 -1.1207  0.3799 -0.4900
  892MOL0     C20322   9.759   2.015   3.373 -0.1013 -0.0633  0.6310
  892MOL0     C20323   9.780   2.149   3.299 -0.4242  0.0037  0.5029
  892MOL0     C20324   9.930   2.177   3.277  0.4162  0.2750  0.1939
  892MOL0     C20325   9.965   2.327   3.230  0.1448 -0.3260  0.4581
  892MOL0     C20326  10.117   2.334   3.237 -1.2161 -0.4039  0.0775
  892MOL0     C20327  10.173   2.464   3.182  0.6213 -0.7980 -1.3248
  892MOL0     C20328  10.174   2.496   3.029 -0.1742 -0.6698  0.4547
  892MOL0     C20329  10.193   2.372   2.946  0.3297  0.4416  0.3954
  892MOL0    Cl20330  10.355   2.299   2.955  0.2842  0.0664 -0.4436
  892MOL0     C20331   9.690   1.853   3.614 -0.4023  0.3420  0.5676
  892MOL0     C20332   9.643   1.757   3.702  0.5499  0.2353 -0.7811
  892MOL0     O20333   9.258   1.609   3.779 -0.2769 -0.2594 -0.6337
  892MOL0     C20334   9.453   1.591   4.090 -0.6284 -0.6987  1.2996
  892MOL0     C20335   9.440   1.566   4.223 -0.1698  0.1940  0.1702
  892MOL0     N20336   9.368   1.199   4.917  0.1581 -0.1628  0.0908
  892MOL0     N20337   9.329   1.081   4.958  1.3271  0.0895 -0.1893
  892MOL0     C20338  10.052   1.306   4.642  0.3006  0.1004  0.3634
  892MOL0     C20339  10.042   1.428   4.573  0.8120  0.5260 -0.1496
  892MOL0     C20340   9.810   1.794   4.428  0.5476 -1.1330  0.0143
  892MOL0     C20341   9.908   1.888   4.440  0.1657 -0.7273  1.0054
  892MOL0     C20342   9.885   2.035   4.423 -0.8059  0.5586  0.1285
  892MOL0     C20343   9.756   2.078   4.403 -0.7073  1.2130 -0.9486
  892MOL0     O20344   9.736   2.212   4.392  0.9115 -0.0460  0.0191
  892MOL0     C20345   9.613   2.268   4.434 -0.7746 -0.7160  0.6523
  892MOL0     C20346   9.597   2.417   4.442 -0.3830 -0.4708  0.7145
  892MOL0     C20347   9.711   2.484   4.516  0.0765 -0.5809  0.5994
  892MOL0     C20348   9.704   2.636   4.502 -0.9093  0.9280  0.6514
  892MOL0     C20349   9.601   2.695   4.593  0.2960  0.3336  0.3398
  892MOL0     C20350   9.495   2.737   4.648 -0.5098  0.7784  0.5623
  892MOL0     C20351   9.658   1.980   4.391 -0.1777  0.5170 -1.8193
  892MOL0     C20352   9.680   1.840   4.407  0.2071 -0.4943  0.1473
  892MOL0     H20353   9.816   1.579   4.770 -1.4791 -2.7618  0.2618
  892MOL0     H20354   9.847   1.372   4.903 -1.4133 -3.3436 -1.5462
  892MOL0     H20355  10.054   1.230   5.002 -0.4795 -0.2939 -0.5999
  892MOL0     H20356   9.890   1.157   4.984 -0.6910 -5.1975  0.7780
  892MOL0     H20357  10.150   1.023   4.995  0.7850  0.7340 -1.2355
  892MOL0     H20358  10.025   1.004   5.125  1.2876  2.2070  0.9061
  892MOL0     H20359   9.958   0.934   4.843 -0.1273  1.1178  0.5997
  892MOL0     H20360  10.036   0.814   4.960 -1.0623 -0.4441  0.9055
  892MOL0     H20361   9.857   0.837   5.123 -0.2166 -0.6914 -0.1304
  892MOL0     H20362   9.783   0.970   5.019  0.4640  0.3861  0.4587
  892MOL0     H20363   9.840   0.698   4.889 -2.4367 -1.8417 -0.8588
  892MOL0     H20364   9.736   0.693   5.026 -5.2056  1.4364 -0.9935
  892MOL0     H20365   9.667   0.892   4.821  4.2599 -0.2192 -0.2068
  892MOL0     H20366   9.627   0.715   4.811 -2.3814 -1.8975  1.8842
  892MOL0     H20367   9.495   0.727   5.036 -2.6523  0.5812 -0.5744
  892MOL0     H20368   9.537   0.885   5.055  0.9010 -1.0519  0.8545
  892MOL0     H20369   9.310   0.814   4.951  0.2135  3.1279  0.4899
  892MOL0     H20370   9.409   0.799   4.793  1.9029 -4.9164  1.9161
  892MOL0     H20371   9.496   1.011   4.684 -1.1249 -0.3793 -0.2424
  892MOL0     H20372   9.589   1.348   4.768 -1.4176  0.1252  3.0320
  892MOL0     H20373   9.526   1.274   4.614  1.4355  2.3403 -0.0028
  892MOL0     H20374   9.382   1.470   4.797 -1.1242 -1.5383 -0.0956
  892MOL0     H20375   9.305   1.391   4.662 -0.4148  2.1920 -2.2421
  892MOL0     H20376   9.554   1.479   4.553  1.8578  2.2838  0.1161
  892MOL0     H20377   9.512   1.604   4.668  0.6233 -2.4361  2.7876
  892MOL0     H20378   9.403   1.670   4.465 -1.1988 -0.1564  0.8511
  892MOL0     H20379   9.274   1.611   4.570 -1.2297 -1.7791 -0.3503
  892MOL0     H20380   9.139   1.417   4.233 -0.5177  0.9619 -0.2793
  892MOL0     H20381   9.162   1.362   3.908 -1.7517 -0.5798  0.3335
  892MOL0     H20382   9.060   1.369   4.038  1.1661  0.4378  2.1955
  892MOL0     H20383   9.058   1.515   3.927 -2.1063 -0.5343  2.2561
  892MOL0     H20384   9.305   1.824   3.672  0.3649 -2.0837  1.4764
  892MOL0     H20385   9.399   1.987   3.509  0.8173 -0.7728 -0.8479
  892MOL0     H20386   9.836   2.002   3.449  0.4181 -0.9237 -0.0281
  892MOL0     H20387   9.767   1.934   3.300  1.7073 -3.2058  4.0265
  892MOL0     H20388   9.716   2.146   3.210 -2.8264 -1.5663  2.1460
  892MOL0     H20389   9.750   2.231   3.365 -0.2866 -0.4061  1.0796
  892MOL0     H20390   9.964   2.109   3.198  0.8941  0.2400  0.4284
  892MOL0     H20391   9.989   2.152   3.366 -0.5434 -0.1029  0.7377
  892MOL0     H20392   9.925   2.335   3.129 -5.5052 -1.5059  2.1920
  892MOL0     H20393   9.910   2.404   3.286  2.3181  2.4642 -1.0036
  892MOL0     H20394  10.170   2.254   3.184  0.2883 -0.1312  1.1160
  892MOL0     H20395  10.152   2.317   3.339 -0.6098  2.6812  0.4514
  892MOL0     H20396  10.113   2.542   3.231  1.6463  0.3928 -1.9146
  892MOL0     H20397  10.279   2.472   3.208  0.4771 -1.9930 -0.1962
  892MOL0     H20398  10.252   2.570   3.008 -0.3349 -1.3681 -3.3904
  892MOL0     H20399  10.072   2.534   3.018  0.0077  0.6183  2.6959
  892MOL0     H20400  10.188   2.382   2.837 -1.3705 -1.3231  0.2531
  892MOL0     H20401  10.115   2.297   2.967  1.0570  0.3395  3.1434
  892MOL0     H20402   9.797   1.850   3.596 -0.8559 -0.6209 -2.6493
  892MOL0     H20403   9.720   1.699   3.753  0.1849  1.6367  1.5078
  892MOL0     H20404   9.538   1.650   4.058 -2.2028  1.0708  0.1365
  892MOL0     H20405   9.521   1.604   4.285 -2.0395  1.3474  2.0266
  892MOL0     H20406  10.122   1.231   4.609  1.8023  1.5244  0.2138
  892MOL0     H20407  10.097   1.452   4.482 -2.2774  1.4537 -1.9376
  892MOL0     H20408  10.008   1.852   4.459  1.0290  1.9339  1.8327
  892MOL0     H20409   9.970   2.097   4.448 -0.7636  0.2332  0.8407
  892MOL0     H20410   9.534   2.232   4.367 -2.5725  1.2509  1.6081
  892MOL0     H20411   9.608   2.221   4.533 -1.6692 -5.0813 -1.1961
  892MOL0     H20412   9.500   2.447   4.483  0.4271  0.9593  1.6586
  892MOL0     H20413   9.599   2.463   4.343 -0.0917  1.2508  1.4833
  892MOL0     H20414   9.808   2.447   4.483  1.7337  0.4431  3.8456
  892MOL0     H20415   9.707   2.448   4.619 -1.6676 -1.7204  0.1733
  892MOL0     H20416   9.717   2.670   4.399  0.7783  0.5460  0.7049
  892MOL0     H20417   9.797   2.677   4.544  2.2575 -2.3871 -2.4061
  892MOL0     H20418   9.404   2.775   4.691 -1.3327  0.8839 -1.1722
  892MOL0     H20419   9.556   2.015   4.381 -1.3600 -2.3230 -0.7361
  892MOL0     H20420   9.599   1.768   4.419 -0.1708  0.2911  2.9905
  893MOL0     O20421   3.761   5.382   1.116  1.0001 -0.6527  0.0030
  893MOL0     C20422   3.726   5.277   1.058  0.0379  0.7697 -0.4427
  893MOL0     O20423   3.666   5.278   0.943 -0.1310 -0.1252  0.8396
  893MOL0     C20424   3.667   5.386   0.849  0.0098  1.0399  0.6843
  893MOL0     C20425   3.778   5.425   0.786 -0.4171 -1.3145 -0.6520
  893MOL0     C20426   3.781   5.492   0.660  0.0775 -0.1831 -0.2052
  893MOL0     C20427   3.668   5.546   0.608 -0.6352  0.0411  0.0725
  893MOL0     O20428   3.680   5.629   0.494 -0.1204 -0.5151  0.5497
  893MOL0     C20429   3.581   5.729   0.467  0.0814  0.6386  0.1424
  893MOL0     C20430   3.578   5.849   0.562 -0.0439 -0.1556  1.2256
  893MOL0     C20431   3.500   5.966   0.507 -0.3186  0.2573 -0.0044
  893MOL0     C20432   3.540   6.088   0.587  0.0121 -0.1486  0.3672
  893MOL0     C20433   3.470   6.222   0.545 -0.6336  0.0360 -0.0935
  893MOL0     C20434   3.517   6.326   0.641 -0.3949 -0.3476 -0.6642
  893MOL0     C20435   3.460   6.461   0.592 -0.2172 -0.0540 -0.0558
  893MOL0     C20436   3.549   6.583   0.640  0.0683  0.3800 -0.9164
  893MOL0     N20437   3.500   6.643   0.766  0.0097  0.8362 -0.1641
  893MOL0     C20438   3.561   6.737   0.839 -0.8902  0.2256 -0.3438
  893MOL0     C20439   3.493   6.764   0.953 -0.1001 -0.5875  0.7457
  893MOL0     C20440   3.529   6.861   1.063 -1.0897 -0.3123 -0.8678
  893MOL0     C20441   3.540   7.006   1.022 -0.1617 -1.0707 -0.0063
  893MOL0     C20442   3.601   7.087   1.146  1.4020  0.0017  0.2558
  893MOL0     C20443   3.746   7.057   1.170 -0.8425 -0.5394  0.2815
  893MOL0     O20444   3.818   7.067   1.048  0.0872 -0.3047  0.6402
  893MOL0     C20445   3.959   7.051   1.045 -0.8601  0.2572  0.1248
  893MOL0     C20446   4.019   7.092   0.928 -0.6597 -0.2618  0.3491
  893MOL0     C20447   4.158   7.072   0.907  0.5668 -0.0505 -0.6790
  893MOL0     C20448   4.213   7.086   0.756  0.0495  1.1228  0.8350
  893MOL0     C20449   4.237   7.037   1.021  0.4643 -0.3951  0.5412
  893MOL0     C20450   4.386   7.033   1.019 -0.6293  0.4267  0.2183
  893MOL0     O20451   4.462   7.036   0.899  0.6434 -0.1772  0.2534
  893MOL0     C20452   4.599   7.044   0.898  0.8524 -0.8766 -0.2665
  893MOL0     C20453   4.675   6.979   0.795  0.4978 -0.3890 -0.4882
  893MOL0     C20454   4.812   6.978   0.788 -0.0799 -0.7777 -0.7398
  893MOL0     C20455   4.882   7.055   0.877 -0.7563 -0.9721  0.6919
  893MOL0     O20456   5.020   7.068   0.880  0.0253 -0.4163 -0.3867
  893MOL0     C20457   5.077   7.124   0.766 -0.5460  0.3322  0.1203
  893MOL0     C20458   5.229   7.113   0.780  0.9664  0.5863 -0.3171
  893MOL0     C20459   5.279   6.959   0.800  0.2055 -0.5235 -0.1110
  893MOL0     C20460   5.271   6.873   0.671  0.2288 -0.8619 -0.5690
  893MOL0     C20461   5.379   6.896   0.558  0.2786  0.1808  0.9771
  893MOL0     C20462   5.320   6.833   0.429 -0.5667 -0.1998  0.6299
  893MOL0     C20463   5.197   6.925   0.379  0.8441 -1.3612 -0.7803
  893MOL0     C20464   5.164   6.896   0.223  0.8060 -0.7793 -0.1209
  893MOL0    Cl20465   5.121   6.728   0.189  0.1633  0.0851  0.1436
  893MOL0     C20466   4.814   7.121   0.980 -0.1323  0.6418  0.3487
  893MOL0     C20467   4.678   7.120   0.994  0.6904 -0.1797  0.6555
  893MOL0     O20468   4.440   7.011   1.129  0.1994 -0.9590 -0.0532
  893MOL0     C20469   4.173   6.999   1.146  0.8875 -0.6200 -0.0003
  893MOL0     C20470   4.035   7.014   1.156  0.2342  0.4116  0.4871
  893MOL0     N20471   3.386   6.683   0.943 -0.3116 -0.6002  0.3443
  893MOL0     N20472   3.380   6.626   0.832 -0.3630  0.7265  0.0949
  893MOL0     C20473   3.550   5.522   0.687 -0.0694  0.2635  0.7429
  893MOL0     C20474   3.545   5.427   0.797 -0.7673  0.1365  0.6018
  893MOL0     C20475   3.744   5.145   1.123 -0.0851 -0.4766 -0.0543
  893MOL0     C20476   3.793   5.131   1.251  0.4238  0.5592  0.7327
  893MOL0     C20477   3.813   5.004   1.315 -0.0823 -0.6966 -0.5465
  893MOL0     C20478   3.773   4.890   1.255  1.0527 -0.2290  0.8885
  893MOL0     O20479   3.771   4.761   1.311  0.2919  0.2574 -0.2143
  893MOL0     C20480   3.782   4.736   1.449  0.6870 -0.1350  0.1912
  893MOL0     C20481   3.659   4.779   1.515  0.5438 -0.6095 -0.1300
  893MOL0     C20482   3.656   4.740   1.663 -0.8797  0.7518  1.1876
  893MOL0     C20483   3.552   4.816   1.735 -0.5880  0.6322 -1.3680
  893MOL0     C20484   3.564   4.795   1.883  1.1272 -0.2773 -0.1049
  893MOL0     C20485   3.570   4.775   2.001 -0.3586  0.2486 -0.3401
  893MOL0     C20486   3.714   4.901   1.123  0.1817  0.3360 -0.8104
  893MOL0     C20487   3.700   5.026   1.060  0.0925  1.4971 -0.3238
  893MOL0     H20488   3.870   5.388   0.832 -1.6278 -0.4688  2.7129
  893MOL0     H20489   3.873   5.519   0.610 -2.3714  1.7635 -4.1987
  893MOL0     H20490   3.597   5.770   0.367  2.1732  1.1881  0.6685
  893MOL0     H20491   3.482   5.680   0.468  0.2052  0.3894  0.4159
  893MOL0     H20492   3.533   5.815   0.655 -0.7546 -1.2665  0.5010
  893MOL0     H20493   3.678   5.883   0.591 -0.0516 -0.9987  2.3055
  893MOL0     H20494   3.514   5.984   0.400  1.1991  0.5078  0.2143
  893MOL0     H20495   3.395   5.959   0.538  0.4341 -1.9177  2.4059
  893MOL0     H20496   3.526   6.059   0.692  0.5508  2.0789  1.1107
  893MOL0     H20497   3.649   6.098   0.585 -0.1899  5.1682  0.8684
  893MOL0     H20498   3.494   6.249   0.442  1.8659 -0.2338  0.3394
  893MOL0     H20499   3.362   6.210   0.549 -0.7088 -0.0555 -1.8170
  893MOL0     H20500   3.474   6.314   0.741 -0.9313  2.4987 -0.4719
  893MOL0     H20501   3.626   6.323   0.654 -0.4730  0.5938  0.3747
  893MOL0     H20502   3.471   6.466   0.483 -0.1509 -3.5022 -0.3003
  893MOL0     H20503   3.352   6.470   0.607 -0.7316  0.2425 -3.2011
  893MOL0     H20504   3.546   6.654   0.557 -1.7577  2.1381  0.5633
  893MOL0     H20505   3.656   6.565   0.651  0.5443  1.9337 -2.5642
  893MOL0     H20506   3.653   6.788   0.814 -1.9463  0.5362 -4.1515
  893MOL0     H20507   3.446   6.869   1.134 -0.3547 -1.8171  0.2107
  893MOL0     H20508   3.621   6.836   1.116 -1.2474 -0.2598 -0.5666
  893MOL0     H20509   3.444   7.053   0.999  1.9171  3.2000 -1.1491
  893MOL0     H20510   3.607   7.021   0.937 -1.0600  0.7054 -0.4424
  893MOL0     H20511   3.537   7.057   1.229 -0.5313  1.8632 -0.4626
  893MOL0     H20512   3.568   7.191   1.138 -2.0354 -1.0920 -2.2413
  893MOL0     H20513   3.768   6.958   1.210  2.5166  0.7388  1.9442
  893MOL0     H20514   3.782   7.122   1.251  0.1905  0.9856 -1.3134
  893MOL0     H20515   3.960   7.120   0.842  0.5650 -0.1095 -0.4710
  893MOL0     H20516   4.258   6.994   0.718 -1.5924  0.9274 -0.6987
  893MOL0     H20517   4.137   7.127   0.690 -1.9263  1.6773  3.2933
  893MOL0     H20518   4.286   7.168   0.753 -0.9355  2.0267  0.9921
  893MOL0     H20519   4.630   6.920   0.716 -0.5591  2.1422 -1.9242
  893MOL0     H20520   4.852   6.916   0.708  1.5649 -2.6029  1.3581
  893MOL0     H20521   5.033   7.082   0.676  0.6412  0.6910 -0.6447
  893MOL0     H20522   5.059   7.232   0.755  1.2926  0.5689 -0.8758
  893MOL0     H20523   5.269   7.160   0.690 -0.9061 -0.4067 -1.7540
  893MOL0     H20524   5.254   7.166   0.872  0.7159  1.4837 -0.7587
  893MOL0     H20525   5.224   6.923   0.887  0.6772  1.4220  1.0680
  893MOL0     H20526   5.380   6.954   0.841 -0.0810  1.2939  0.9186
  893MOL0     H20527   5.268   6.765   0.692  1.4262 -0.9453 -0.7317
  893MOL0     H20528   5.181   6.916   0.627  0.7393  0.7761 -0.0807
  893MOL0     H20529   5.477   6.858   0.590  0.8083 -0.8042 -1.5846
  893MOL0     H20530   5.391   6.999   0.525 -0.9919  0.5138  1.5145
  893MOL0     H20531   5.392   6.822   0.347 -1.3442 -1.1912  0.0447
  893MOL0     H20532   5.306   6.729   0.461  2.0023 -0.5600  0.8074
  893MOL0     H20533   5.225   7.029   0.398  1.5913 -1.4758 -1.2361
  893MOL0     H20534   5.101   6.903   0.428  1.8154 -0.8066  1.4747
  893MOL0     H20535   5.235   6.933   0.149 -0.9604 -0.0589 -1.5631
  893MOL0     H20536   5.081   6.965   0.201  1.6516  0.1672 -0.4160
  893MOL0     H20537   4.865   7.180   1.055  0.1595  1.0118 -0.1345
  893MOL0     H20538   4.639   7.188   1.069  5.3190  4.2723 -0.3617
  893MOL0     H20539   4.231   6.970   1.233  2.7663 -3.1820 -1.9529
  893MOL0     H20540   3.996   6.990   1.255  1.3553  0.5325  0.9855
  893MOL0     H20541   3.460   5.575   0.657 -0.3099  1.0277  2.6635
  893MOL0     H20542   3.448   5.386   0.825 -1.0516  1.3851  1.5060
  893MOL0     H20543   3.840   5.220   1.292  2.2522 -0.1526  0.2824
  893MOL0     H20544   3.853   4.999   1.416  2.1692  1.2840 -1.2341
  893MOL0     H20545   3.791   4.627   1.458  2.2375 -0.1905 -1.4900
  893MOL0     H20546   3.875   4.770   1.494  1.6788 -2.2333 -0.1150
  893MOL0     H20547   3.564   4.747   1.471 -0.7825  1.9926  0.6727
  893MOL0     H20548   3.666   4.888   1.519 -0.1819 -0.5897  0.7378
  893MOL0     H20549   3.751   4.765   1.710  0.4248  0.6061 -1.2173
  893MOL0     H20550   3.643   4.631   1.666 -1.8414  0.4238 -4.5040
  893MOL0     H20551   3.451   4.780   1.712 -1.0935  0.8628  0.4004
  893MOL0     H20552   3.564   4.920   1.703  2.4126  0.3252 -1.6011
  893MOL0     H20553   3.583   4.756   2.105  0.2530 -0.5454 -0.5525
  893MOL0     H20554   3.681   4.804   1.088  2.2160 -0.7708  0.1498
  893MOL0     H20555   3.643   5.048   0.970  0.2457  2.3312 -0.2227
  894MOL0     O20556  10.622  10.439   2.636  1.3269 -0.1813 -0.0858
  894MOL0     C20557  10.524  10.467   2.574  0.0049  0.1920  0.0334
  894MOL0     O20558  10.522  10.567   2.482  0.3477  0.2629  0.7567
  894MOL0     C20559  10.642  10.608   2.433  0.0107  0.1380  0.2815
  894MOL0     C20560  10.680  10.741   2.435 -0.1450  0.8123 -0.0515
  894MOL0     C20561  10.789  10.769   2.351 -0.8271  0.6627  0.3412
  894MOL0     C20562  10.868  10.670   2.287  0.1099 -0.6204 -0.2873
  894MOL0     O20563  10.999  10.677   2.243 -0.5141 -0.8830  1.0464
  894MOL0     C20564  11.039  10.769   2.139  0.4149  0.3802 -0.0841
  894MOL0     C20565  11.178  10.713   2.087 -0.5434 -0.1577 -0.7665
  894MOL0     C20566  11.172  10.594   1.988  0.0535  0.1405 -0.1418
  894MOL0     C20567  11.320  10.542   1.981  0.0822  0.6743 -0.4740
  894MOL0     C20568  11.360  10.415   1.892  0.5450 -0.4742 -0.3258
  894MOL0     C20569  11.308  10.409   1.753 -0.1883 -0.9496  0.1145
  894MOL0     C20570  11.417  10.436   1.656  0.3595  0.8501 -0.3023
  894MOL0     C20571  11.360  10.440   1.508 -0.5940 -0.8276 -0.0847
  894MOL0     N20572  11.309  10.312   1.462 -0.2404 -0.2600  0.1581
  894MOL0     C20573  11.375  10.190   1.468 -0.6806  0.5905  0.4264
  894MOL0     C20574  11.298  10.099   1.399  0.2522  0.7640 -0.1377
  894MOL0     C20575  11.317   9.957   1.410 -0.9295  0.7257 -0.0761
  894MOL0     C20576  11.292   9.883   1.279 -0.0202  0.1958  0.6181
  894MOL0     C20577  11.370   9.744   1.281 -0.5841 -0.6670 -0.1663
  894MOL0     C20578  11.282   9.625   1.249 -0.3715 -0.9227  1.8432
  894MOL0     O20579  11.226   9.579   1.371 -0.6695 -0.8174  0.2948
  894MOL0     C20580  11.165   9.458   1.356  0.2892  0.3304 -0.0195
  894MOL0     C20581  11.168   9.372   1.251  0.4034 -1.2882  0.1272
  894MOL0     C20582  11.124   9.242   1.246  0.4464  0.2570 -0.5590
  894MOL0     C20583  11.144   9.155   1.125 -0.1663 -0.2129 -0.0182
  894MOL0     C20584  11.066   9.188   1.365  1.1912 -0.1302 -0.2336
  894MOL0     C20585  11.025   9.052   1.389  1.3724 -0.0934  0.3887
  894MOL0     O20586  11.039   8.962   1.291  0.4356 -0.0298  0.0283
  894MOL0     C20587  11.037   8.829   1.323  0.4871 -0.2425 -0.7949
  894MOL0     C20588  10.982   8.739   1.235 -0.2687  0.0153 -0.4036
  894MOL0     C20589  10.978   8.599   1.260 -0.7391  0.8712  0.0232
  894MOL0     C20590  11.045   8.551   1.374 -0.6528  1.1404 -0.8768
  894MOL0     O20591  11.053   8.415   1.395 -0.1315 -0.1438  0.3482
  894MOL0     C20592  10.931   8.360   1.435  0.0670 -0.0302 -0.3364
  894MOL0     C20593  10.932   8.205   1.429  0.4872  0.6553 -0.0104
  894MOL0     C20594  10.796   8.150   1.411  0.4786 -0.4367  0.0138
  894MOL0     C20595  10.723   8.196   1.282 -0.2700  0.0082  0.3380
  894MOL0     C20596  10.582   8.165   1.285  1.0809  0.1335  0.6083
  894MOL0     C20597  10.551   8.014   1.257 -0.1634 -0.2769  0.2624
  894MOL0     C20598  10.400   7.989   1.244 -0.1372 -0.2946  0.1835
  894MOL0     C20599  10.365   7.835   1.242 -0.2427 -0.7856 -0.3386
  894MOL0    Cl20600  10.434   7.749   1.092 -0.8810 -0.0302  0.1491
  894MOL0     C20601  11.116   8.637   1.462  0.2849 -0.0872 -0.4270
  894MOL0     C20602  11.110   8.779   1.440  0.4970  0.6953  1.3028
  894MOL0     O20603  10.973   9.037   1.496  0.6806 -0.4454 -0.2377
  894MOL0     C20604  11.051   9.276   1.484 -0.9019 -0.2040  0.1965
  894MOL0     C20605  11.100   9.412   1.477 -0.4212  0.1161 -0.2568
  894MOL0     N20606  11.190  10.172   1.356  0.4062  0.6098 -0.0154
  894MOL0     N20607  11.202  10.296   1.380  0.1335 -0.9564  0.6312
  894MOL0     C20608  10.826  10.544   2.287  0.0098  0.0697 -0.5251
  894MOL0     C20609  10.709  10.515   2.357 -0.3090  1.1452  0.1463
  894MOL0     C20610  10.411  10.389   2.610 -0.1478  0.9148 -0.4986
  894MOL0     C20611  10.277  10.432   2.570 -0.4102  0.0269 -0.1037
  894MOL0     C20612  10.166  10.353   2.600  0.0948  0.4117  0.3781
  894MOL0     C20613  10.178  10.231   2.663  0.8294 -0.6665  0.9031
  894MOL0     O20614  10.056  10.171   2.707 -0.3498 -0.1511  0.3258
  894MOL0     C20615   9.967  10.122   2.607  0.0908 -0.8574  0.0866
  894MOL0     C20616  10.027   9.992   2.550  0.9059 -0.2484 -0.5110
  894MOL0     C20617   9.929   9.919   2.459  0.7156  0.3376 -0.4048
  894MOL0     C20618   9.993   9.792   2.393 -0.2487 -0.7683  0.3177
  894MOL0     C20619   9.892   9.706   2.329  0.2895 -1.4080  0.4283
  894MOL0     C20620   9.801   9.641   2.276  0.3088  0.2207  0.5413
  894MOL0     C20621  10.303  10.188   2.705  0.6097 -0.7249  0.1010
  894MOL0     C20622  10.421  10.269   2.686 -0.7982  0.2099  0.4292
  894MOL0     H20623  10.603  10.807   2.474 -0.7370  1.0058 -1.5075
  894MOL0     H20624  10.832  10.868   2.341 -3.0726  1.5082 -1.9519
  894MOL0     H20625  10.962  10.767   2.061  1.1562  2.0622 -0.8945
  894MOL0     H20626  11.062  10.871   2.171  0.9505  0.7940 -1.6849
  894MOL0     H20627  11.238  10.787   2.034  1.2032 -3.2344 -3.5077
  894MOL0     H20628  11.238  10.678   2.172 -3.5460 -2.9896  0.4500
  894MOL0     H20629  11.097  10.517   2.006 -2.3047  2.0202 -1.3890
  894MOL0     H20630  11.139  10.624   1.888  1.6175 -0.9977 -1.0348
  894MOL0     H20631  11.376  10.630   1.947  0.9258 -0.2319 -1.5139
  894MOL0     H20632  11.340  10.516   2.085 -1.6084  0.0885 -0.2697
  894MOL0     H20633  11.469  10.403   1.890  0.7369  0.8256 -3.3379
  894MOL0     H20634  11.334  10.329   1.953 -5.0000 -0.0875 -1.6798
  894MOL0     H20635  11.270  10.309   1.731 -1.0543 -0.9979  1.6196
  894MOL0     H20636  11.220  10.473   1.766 -0.6984 -2.1421  4.0445
  894MOL0     H20637  11.471  10.527   1.687  0.8815 -0.4807  3.2440
  894MOL0     H20638  11.485  10.350   1.659 -1.7846 -0.9613 -1.1393
  894MOL0     H20639  11.438  10.477   1.442 -2.2040  4.3957  0.4903
  894MOL0     H20640  11.281  10.516   1.506 -1.6740 -1.9366 -1.2414
  894MOL0     H20641  11.468  10.161   1.515  0.9146  1.0391 -2.2188
  894MOL0     H20642  11.417   9.938   1.449 -1.9648 -0.5975  2.1047
  894MOL0     H20643  11.248   9.924   1.488  0.5596 -1.4664  0.3952
  894MOL0     H20644  11.342   9.935   1.197  0.3501 -0.2444  0.5573
  894MOL0     H20645  11.183   9.873   1.274  0.1184 -0.8287 -1.7553
  894MOL0     H20646  11.406   9.712   1.379 -1.3655 -0.9130  0.0404
  894MOL0     H20647  11.453   9.735   1.210  0.9133 -1.6968  1.6448
  894MOL0     H20648  11.341   9.547   1.199 -2.4620 -0.1927 -2.2371
  894MOL0     H20649  11.207   9.656   1.175 -0.2956  0.2993  2.2569
  894MOL0     H20650  11.210   9.408   1.157 -0.7374  1.6432  0.6280
  894MOL0     H20651  11.178   9.054   1.146 -0.0101 -0.8465 -2.9964
  894MOL0     H20652  11.051   9.141   1.069 -0.0071  0.3942 -0.4495
  894MOL0     H20653  11.217   9.201   1.058 -0.1638 -0.5457 -0.2426
  894MOL0     H20654  10.934   8.785   1.149 -0.3154 -0.0403 -0.4074
  894MOL0     H20655  10.928   8.529   1.194 -0.8722  0.5871  0.4280
  894MOL0     H20656  10.905   8.387   1.538 -0.5900 -0.2481 -0.4425
  894MOL0     H20657  10.840   8.394   1.385 -0.5862 -2.7940 -1.1722
  894MOL0     H20658  10.993   8.175   1.343  1.5947  1.5126  0.4533
  894MOL0     H20659  10.984   8.153   1.511  1.4510 -1.6552 -1.9669
  894MOL0     H20660  10.731   8.168   1.498 -1.4153 -2.2108 -0.9322
  894MOL0     H20661  10.799   8.041   1.405 -0.4274 -0.4094 -1.4850
  894MOL0     H20662  10.726   8.304   1.262 -2.7531  0.4962  2.0868
  894MOL0     H20663  10.763   8.148   1.192 -0.7213 -0.2439  0.2683
  894MOL0     H20664  10.526   8.226   1.213  1.7492  1.7100  1.3670
  894MOL0     H20665  10.547   8.188   1.386  1.5828 -1.7273  1.2460
  894MOL0     H20666  10.587   7.994   1.155 -2.3306 -0.0748 -0.6095
  894MOL0     H20667  10.601   7.948   1.327  2.4324 -0.0781 -1.2695
  894MOL0     H20668  10.363   8.030   1.150  1.9118 -1.1602 -1.0812
  894MOL0     H20669  10.346   8.034   1.328  0.0169  0.4706 -0.1206
  894MOL0     H20670  10.261   7.804   1.246 -0.2698 -0.7114  2.9182
  894MOL0     H20671  10.413   7.792   1.331 -4.0382 -4.3932  0.2868
  894MOL0     H20672  11.168   8.588   1.544 -2.0297 -0.4928  0.8800
  894MOL0     H20673  11.170   8.840   1.507  0.1896 -1.1029  3.3384
  894MOL0     H20674  11.000   9.253   1.577 -0.0853 -2.1202  0.2240
  894MOL0     H20675  11.091   9.472   1.567  0.7469  1.2889 -0.8910
  894MOL0     H20676  10.875  10.455   2.250 -1.2766  0.0067 -2.2122
  894MOL0     H20677  10.666  10.417   2.341 -0.2012  1.4126 -2.0256
  894MOL0     H20678  10.272  10.520   2.507  0.7740 -0.2492 -0.6178
  894MOL0     H20679  10.077  10.400   2.559 -0.5162  1.6005  2.8467
  894MOL0     H20680   9.875  10.116   2.666  0.0396  5.6398  1.3787
  894MOL0     H20681   9.951  10.201   2.532 -1.4396 -1.0264  0.1898
  894MOL0     H20682  10.054   9.925   2.632  0.2511  2.2520  1.9144
  894MOL0     H20683  10.119  10.017   2.498  1.0530 -0.1649 -0.2116
  894MOL0     H20684   9.889   9.988   2.384 -0.8820 -1.6174 -1.4579
  894MOL0     H20685   9.840   9.890   2.514  0.0574  0.2368 -1.4905
  894MOL0     H20686  10.060   9.740   2.462 -0.4009 -2.3614 -0.6858
  894MOL0     H20687  10.059   9.828   2.315 -1.4043 -0.3254 -0.4860
  894MOL0     H20688   9.736   9.568   2.231  1.2126 -1.6854  2.1853
  894MOL0     H20689  10.307  10.092   2.755  0.2128  0.2282  2.0460
  894MOL0     H20690  10.523  10.245   2.715 -0.3915  0.1087 -0.9930
  895MOL0     O20691   0.367   2.465   3.774 -0.2661  0.2921 -0.0545
  895MOL0     C20692   0.392   2.502   3.885  0.1372  0.4324  0.7539
  895MOL0     O20693   0.518   2.509   3.937 -0.9999  0.6807 -0.3073
  895MOL0     C20694   0.613   2.439   3.867 -0.4675  0.3610  0.4627
  895MOL0     C20695   0.664   2.332   3.938  0.2150 -0.0288 -0.1143
  895MOL0     C20696   0.784   2.262   3.900 -0.0689  0.1093 -0.8831
  895MOL0     C20697   0.855   2.291   3.787  1.1451  0.4855 -0.2617
  895MOL0     O20698   0.963   2.218   3.760  0.3964 -0.4139 -0.4305
  895MOL0     C20699   1.031   2.236   3.631 -0.8719 -0.6720  0.0997
  895MOL0     C20700   1.154   2.333   3.629  0.0119 -1.0760 -0.0613
  895MOL0     C20701   1.266   2.300   3.721 -0.1216 -0.1922  0.5892
  895MOL0     C20702   1.258   2.385   3.854  0.1290 -0.2135  1.0399
  895MOL0     C20703   1.357   2.336   3.957  0.3710 -0.0570  0.2657
  895MOL0     C20704   1.392   2.452   4.050 -0.1036 -0.4805  0.9875
  895MOL0     C20705   1.465   2.399   4.174 -0.2604 -0.5577  0.1825
  895MOL0     C20706   1.507   2.502   4.275 -0.0904  0.0546  0.0455
  895MOL0     N20707   1.599   2.604   4.209 -0.3787  0.5963  0.0971
  895MOL0     C20708   1.729   2.580   4.165 -0.2802 -0.1620  0.6595
  895MOL0     C20709   1.779   2.708   4.146  0.3691 -0.3182 -0.8393
  895MOL0     C20710   1.908   2.751   4.081 -0.4107  0.1506 -0.3292
  895MOL0     C20711   1.907   2.760   3.929 -0.8484  0.5046  0.0490
  895MOL0     C20712   2.041   2.761   3.868 -0.8179 -0.1624 -0.9816
  895MOL0     C20713   2.098   2.614   3.845 -0.2084 -0.1035  0.6235
  895MOL0     O20714   2.015   2.548   3.740 -0.5688  0.1299 -0.2130
  895MOL0     C20715   2.057   2.430   3.679  0.0639 -0.1269 -0.3076
  895MOL0     C20716   2.000   2.410   3.559  0.0160 -0.1085  0.4967
  895MOL0     C20717   2.016   2.289   3.484 -0.3385 -0.0625 -0.1250
  895MOL0     C20718   1.952   2.260   3.344 -0.6753 -0.5151 -0.8340
  895MOL0     C20719   2.109   2.198   3.536 -1.5730  0.3513  0.3606
  895MOL0     C20720   2.147   2.070   3.468 -0.2250 -0.1435 -1.0576
  895MOL0     O20721   2.279   2.049   3.435  0.8220 -0.2137 -0.1755
  895MOL0     C20722   2.316   1.929   3.382 -0.0153  0.5932  0.9081
  895MOL0     C20723   2.376   1.909   3.251 -0.7152 -0.0472  0.6444
  895MOL0     C20724   2.390   1.777   3.198  0.3148  0.5011 -0.4497
  895MOL0     C20725   2.344   1.664   3.272  1.6981  0.0581 -0.6425
  895MOL0     O20726   2.339   1.542   3.220 -0.2977  0.1177  0.2360
  895MOL0     C20727   2.269   1.544   3.094  0.4734 -0.0668 -0.9509
  895MOL0     C20728   2.263   1.395   3.047  0.3048 -0.5333  0.1594
  895MOL0     C20729   2.227   1.298   3.164 -0.8921  0.1389  0.4926
  895MOL0     C20730   2.070   1.273   3.171 -1.5659 -0.6966 -0.6638
  895MOL0     C20731   2.038   1.176   3.288  0.2817  0.5615  0.5045
  895MOL0     C20732   1.899   1.201   3.342 -0.2101 -0.2937  0.0461
  895MOL0     C20733   1.838   1.079   3.407 -0.2385  0.4830  0.3849
  895MOL0     C20734   1.688   1.092   3.420 -0.2496 -0.8283 -0.5579
  895MOL0    Cl20735   1.616   0.933   3.460  0.2955  0.3478 -0.4388
  895MOL0     C20736   2.296   1.681   3.404  0.3239 -0.2148 -0.4050
  895MOL0     C20737   2.283   1.814   3.457 -0.1384  0.6728 -0.0256
  895MOL0     O20738   2.052   1.992   3.452 -0.5470 -0.3222  0.6431
  895MOL0     C20739   2.177   2.223   3.653  0.4263  0.0141 -0.3569
  895MOL0     C20740   2.147   2.336   3.732  0.3998 -0.2068 -0.1436
  895MOL0     N20741   1.675   2.793   4.182 -0.2762 -0.7609 -0.7402
  895MOL0     N20742   1.577   2.740   4.235  0.5499 -0.0365  0.4487
  895MOL0     C20743   0.805   2.404   3.713  0.7218  0.2759 -0.5872
  895MOL0     C20744   0.688   2.482   3.760 -0.1934  0.4133  0.2742
  895MOL0     C20745   0.277   2.540   3.970 -0.9085 -0.4988 -0.5620
  895MOL0     C20746   0.144   2.528   3.920 -1.5642 -0.2912 -0.6417
  895MOL0     C20747   0.043   2.550   4.006 -0.7145 -0.4045  0.6001
  895MOL0     C20748   0.058   2.585   4.136 -0.4130 -0.1967 -0.7439
  895MOL0     O20749  -0.060   2.612   4.207 -0.6431  0.2196  0.5120
  895MOL0     C20750  -0.055   2.713   4.308 -0.0332  0.0523 -1.0658
  895MOL0     C20751  -0.040   2.658   4.445  0.4387  0.6655 -0.8425
  895MOL0     C20752  -0.169   2.592   4.492  0.2470 -0.2088 -0.3373
  895MOL0     C20753  -0.142   2.499   4.609 -0.6492 -1.2098 -0.3555
  895MOL0     C20754  -0.265   2.425   4.632 -1.0572 -0.0485 -1.0743
  895MOL0     C20755  -0.372   2.359   4.651 -0.3166  0.7889  0.0038
  895MOL0     C20756   0.189   2.601   4.187 -0.8551  0.7489  0.3544
  895MOL0     C20757   0.301   2.578   4.100  0.5322 -0.6444 -0.0924
  895MOL0     H20758   0.614   2.306   4.031  0.3707  2.5008  0.7651
  895MOL0     H20759   0.823   2.194   3.976 -0.1361  0.9935 -0.0452
  895MOL0     H20760   1.071   2.139   3.602 -2.3354 -0.9449 -1.1193
  895MOL0     H20761   0.966   2.276   3.552 -1.2263  3.4648  2.2200
  895MOL0     H20762   1.206   2.321   3.533  2.2218 -2.8603  1.2652
  895MOL0     H20763   1.124   2.438   3.636  0.2948 -0.8042 -2.2477
  895MOL0     H20764   1.274   2.192   3.735 -2.4190 -0.1948  2.4530
  895MOL0     H20765   1.364   2.329   3.682  0.7705 -1.0933  2.0767
  895MOL0     H20766   1.269   2.490   3.825  0.9239 -0.2088  1.3537
  895MOL0     H20767   1.165   2.373   3.910  0.7976 -1.3642  1.9455
  895MOL0     H20768   1.321   2.245   4.006 -0.6446 -0.0346 -0.3929
  895MOL0     H20769   1.434   2.296   3.891 -2.6125 -4.0544 -1.2730
  895MOL0     H20770   1.459   2.521   3.996 -1.1612  1.2853  1.8257
  895MOL0     H20771   1.308   2.516   4.077 -0.5656 -1.3710  1.7119
  895MOL0     H20772   1.387   2.344   4.226 -0.4429  0.2993  0.8220
  895MOL0     H20773   1.555   2.343   4.143  1.5727  0.9944  2.3805
  895MOL0     H20774   1.556   2.455   4.360  1.4854 -0.7376 -1.2372
  895MOL0     H20775   1.416   2.554   4.306 -1.5115 -1.7874 -0.8566
  895MOL0     H20776   1.766   2.489   4.119 -3.1855  0.4047 -3.3097
  895MOL0     H20777   1.934   2.850   4.118  2.4704  0.0531 -1.8239
  895MOL0     H20778   1.980   2.676   4.114 -0.6781 -0.4222 -1.0186
  895MOL0     H20779   1.867   2.860   3.912  0.0129  0.6544 -1.1921
  895MOL0     H20780   1.846   2.679   3.889  0.5188 -1.5154  1.8353
  895MOL0     H20781   2.113   2.808   3.937 -3.5447 -2.9115  4.3041
  895MOL0     H20782   2.039   2.821   3.776 -2.1027 -2.2153 -2.3534
  895MOL0     H20783   2.095   2.553   3.935 -0.3078 -1.0777 -0.0256
  895MOL0     H20784   2.201   2.623   3.810 -1.0248 -2.5165 -2.9793
  895MOL0     H20785   1.926   2.482   3.524 -0.4178 -0.2742  1.0568
  895MOL0     H20786   1.906   2.161   3.334 -0.9433 -0.7560  1.8447
  895MOL0     H20787   1.883   2.344   3.330 -2.1139 -1.1488  1.6201
  895MOL0     H20788   2.031   2.285   3.273  1.6372  2.4809  2.4468
  895MOL0     H20789   2.400   1.996   3.190  1.0941 -0.0431  1.3014
  895MOL0     H20790   2.430   1.768   3.098  1.0770 -0.3892 -0.0797
  895MOL0     H20791   2.173   1.596   3.104  2.2331  3.0802  1.6698
  895MOL0     H20792   2.318   1.611   3.023  1.7452  1.5270  1.3014
  895MOL0     H20793   2.192   1.381   2.965  0.6689 -0.4232 -0.1783
  895MOL0     H20794   2.363   1.364   3.016  0.6604 -1.1741  1.8621
  895MOL0     H20795   2.272   1.316   3.263 -0.1753  1.1629 -0.0042
  895MOL0     H20796   2.264   1.201   3.128 -2.2968 -0.0023 -0.6233
  895MOL0     H20797   2.020   1.367   3.196 -2.0141 -0.5813 -1.9488
  895MOL0     H20798   2.028   1.237   3.077 -3.8818  0.8855 -0.3025
  895MOL0     H20799   2.123   1.177   3.356  0.8600  0.7862 -0.2144
  895MOL0     H20800   2.037   1.074   3.249 -1.9086  1.0442 -0.9002
  895MOL0     H20801   1.908   1.288   3.408  0.3285 -1.6270  1.7803
  895MOL0     H20802   1.841   1.220   3.251  1.2116 -0.7259 -0.9747
  895MOL0     H20803   1.889   1.056   3.501 -1.5597  1.8050  1.4569
  895MOL0     H20804   1.847   0.992   3.341  0.2378 -0.4403  1.6452
  895MOL0     H20805   1.649   1.133   3.326  1.4470  0.1135 -0.8802
  895MOL0     H20806   1.669   1.166   3.498 -1.0153  0.1014 -1.5977
  895MOL0     H20807   2.265   1.593   3.460  1.0144  0.4870  1.1693
  895MOL0     H20808   2.245   1.835   3.557  0.3459  0.2216  0.2650
  895MOL0     H20809   2.239   2.141   3.688  0.5298 -0.8342 -2.3830
  895MOL0     H20810   2.186   2.354   3.831 -1.3602 -1.5413  0.8419
  895MOL0     H20811   0.859   2.445   3.629 -0.1684  4.7679  0.7629
  895MOL0     H20812   0.656   2.576   3.716  0.3954  0.2936 -0.4298
  895MOL0     H20813   0.124   2.474   3.827  1.5156 -2.4920 -0.2020
  895MOL0     H20814  -0.058   2.537   3.971 -0.0759  1.5891 -2.3153
  895MOL0     H20815   0.034   2.774   4.292  0.0469  0.5529  1.0229
  895MOL0     H20816  -0.135   2.787   4.296 -0.5957 -0.5904 -1.3360
  895MOL0     H20817  -0.019   2.739   4.515  0.4344  0.1131 -0.1882
  895MOL0     H20818   0.040   2.584   4.461 -0.7364 -0.4370  0.1342
  895MOL0     H20819  -0.221   2.544   4.409 -0.7524 -0.8903  0.6684
  895MOL0     H20820  -0.234   2.675   4.520  0.6653  1.7068 -4.3396
  895MOL0     H20821  -0.119   2.555   4.699 -0.1445  0.4501 -1.4809
  895MOL0     H20822  -0.060   2.428   4.593  1.5965  1.3853 -1.0249
  895MOL0     H20823  -0.469   2.319   4.671  1.0908 -1.2949  3.5361
  895MOL0     H20824   0.212   2.611   4.293  0.5750 -3.4888  0.6138
  895MOL0     H20825   0.401   2.578   4.141  0.8956 -0.7155 -0.9667
  896MOL0     O20826   8.027   3.167   5.007 -0.3188 -0.2198 -0.9552
  896MOL0     C20827   7.971   3.132   4.903  1.0981  0.2878 -1.0699
  896MOL0     O20828   7.832   3.098   4.890 -0.7536 -0.0068  0.2435
  896MOL0     C20829   7.767   3.119   5.000  0.5737 -0.8648 -0.0391
  896MOL0     C20830   7.697   3.238   5.003  0.2483 -0.2363 -0.6787
  896MOL0     C20831   7.610   3.267   5.115 -0.9699  1.2865 -0.5324
  896MOL0     C20832   7.610   3.169   5.223  0.2427 -0.8900  0.6085
  896MOL0     O20833   7.536   3.189   5.343 -0.0053 -0.7096  0.2964
  896MOL0     C20834   7.425   3.275   5.338  0.4627 -0.0052  0.2559
  896MOL0     C20835   7.351   3.274   5.476  0.6698  0.2092  0.1283
  896MOL0     C20836   7.274   3.144   5.488 -0.3066 -0.6603 -0.8687
  896MOL0     C20837   7.175   3.141   5.610  0.0937  0.7103 -0.5226
  896MOL0     C20838   7.096   3.012   5.623 -0.0197 -0.3591 -0.1450
  896MOL0     C20839   6.971   3.010   5.723  0.8085  0.1979 -0.7029
  896MOL0     C20840   6.993   3.077   5.858  0.2349  0.0096 -0.3751
  896MOL0     C20841   6.883   3.040   5.950  1.0711  0.0357 -0.3758
  896MOL0     N20842   6.755   3.097   5.913  0.1819  0.0140  0.0366
  896MOL0     C20843   6.634   3.045   5.958  0.0839 -0.4231  0.5526
  896MOL0     C20844   6.546   3.116   5.882  1.6031  0.5459  1.0141
  896MOL0     C20845   6.400   3.085   5.873  0.2773  0.3716  0.5679
  896MOL0     C20846   6.343   3.062   6.004  0.1981  0.2718 -0.1554
  896MOL0     C20847   6.185   3.069   6.006 -0.1608 -0.6482 -0.1954
  896MOL0     C20848   6.133   2.980   5.902  0.4194 -0.3516 -0.9800
  896MOL0     O20849   5.994   3.010   5.869 -0.3970 -0.0682 -0.5471
  896MOL0     C20850   5.931   2.942   5.765 -0.6093 -0.1261 -0.7550
  896MOL0     C20851   5.983   2.930   5.633  0.2599  0.6782 -0.1977
  896MOL0     C20852   5.927   2.839   5.537 -0.0746  0.5002  0.0133
  896MOL0     C20853   6.011   2.818   5.406  0.3516 -0.5588  0.2499
  896MOL0     C20854   5.811   2.771   5.571 -0.1740  0.7171 -0.0089
  896MOL0     C20855   5.766   2.657   5.481 -0.1885 -0.0894  0.4129
  896MOL0     O20856   5.633   2.626   5.508 -0.6179  0.4620  0.8720
  896MOL0     C20857   5.583   2.531   5.431 -0.9461  0.4641 -0.1514
  896MOL0     C20858   5.513   2.427   5.505  0.1843 -1.0644  0.4721
  896MOL0     C20859   5.449   2.323   5.453  0.8956  0.9576  0.8249
  896MOL0     C20860   5.466   2.310   5.309  0.1796  0.4730 -0.2225
  896MOL0     O20861   5.387   2.216   5.243  0.0438 -0.8642  0.2551
  896MOL0     C20862   5.402   2.077   5.279 -0.0350  0.1969 -0.4709
  896MOL0     C20863   5.307   1.999   5.190  0.1656  0.0490 -0.0546
  896MOL0     C20864   5.313   1.849   5.217  0.0276  0.3384  0.3426
  896MOL0     C20865   5.192   1.776   5.157 -0.0814  0.2476  0.2088
  896MOL0     C20866   5.214   1.628   5.159  0.1157  0.0520 -0.5862
  896MOL0     C20867   5.111   1.532   5.112  0.1609 -0.0761  0.2148
  896MOL0     C20868   5.115   1.534   4.958 -0.3834 -0.5069  0.1540
  896MOL0     C20869   5.213   1.420   4.905  1.0621 -0.6748 -0.6992
  896MOL0    Cl20870   5.157   1.260   4.949 -0.3307 -0.0666  0.3260
  896MOL0     C20871   5.541   2.401   5.234 -0.7196 -0.7587 -0.1961
  896MOL0     C20872   5.593   2.515   5.295 -0.3400  0.2277  0.5014
  896MOL0     O20873   5.843   2.601   5.398 -0.5353 -0.6173  0.4397
  896MOL0     C20874   5.754   2.790   5.696  0.6247  0.2322 -0.1282
  896MOL0     C20875   5.811   2.876   5.792  0.6493 -0.0899 -0.1041
  896MOL0     N20876   6.613   3.203   5.801 -0.6616 -0.5146  0.7948
  896MOL0     N20877   6.741   3.200   5.832  0.4627 -0.7195 -0.1041
  896MOL0     C20878   7.678   3.045   5.212  0.3837  0.1058  0.1744
  896MOL0     C20879   7.751   3.026   5.097  0.0655 -0.1177  1.2188
  896MOL0     C20880   8.062   3.079   4.806  0.7796  0.1010  0.6569
  896MOL0     C20881   8.010   3.061   4.671  0.1194 -0.1807  0.0883
  896MOL0     C20882   8.093   3.026   4.565 -0.8054  0.4684 -1.2655
  896MOL0     C20883   8.233   3.009   4.590  0.1310 -0.9021 -0.0981
  896MOL0     O20884   8.321   2.990   4.482  0.6975 -0.3408 -0.3524
  896MOL0     C20885   8.452   3.037   4.505  0.7387  0.6712  0.1527
  896MOL0     C20886   8.543   2.927   4.479 -0.2572 -0.0075  0.9769
  896MOL0     C20887   8.692   2.959   4.494  1.0161  0.3581  0.4157
  896MOL0     C20888   8.774   2.838   4.460 -0.3654  0.6275 -0.0716
  896MOL0     C20889   8.770   2.808   4.319 -0.2481 -0.8096  0.3834
  896MOL0     C20890   8.766   2.774   4.206  0.7521 -0.4139 -1.0315
  896MOL0     C20891   8.278   3.009   4.730 -0.1905 -0.3106  1.0085
  896MOL0     C20892   8.189   3.035   4.834  0.9600 -0.4726  0.6061
  896MOL0     H20893   7.713   3.320   4.934  0.5330 -0.0115 -0.3482
  896MOL0     H20894   7.566   3.366   5.119 -2.1383  0.7944 -0.9637
  896MOL0     H20895   7.463   3.375   5.315  0.9835  0.2701  2.1469
  896MOL0     H20896   7.349   3.244   5.266 -1.5840  2.7024  1.0953
  896MOL0     H20897   7.421   3.301   5.556 -1.7498  1.0330  2.0667
  896MOL0     H20898   7.283   3.358   5.479  3.7758  2.9462 -0.2331
  896MOL0     H20899   7.218   3.124   5.396  1.6752  1.3777 -2.6375
  896MOL0     H20900   7.355   3.072   5.506 -0.1837  0.1620  2.4712
  896MOL0     H20901   7.226   3.163   5.705 -0.0261 -2.7429  0.4864
  896MOL0     H20902   7.107   3.223   5.585 -1.2198 -0.5384 -1.2426
  896MOL0     H20903   7.055   2.979   5.527 -2.7341  1.2709  0.3543
  896MOL0     H20904   7.173   2.941   5.655 -0.2088 -2.8513 -4.4806
  896MOL0     H20905   6.891   3.066   5.673  2.3266  1.5638 -1.6770
  896MOL0     H20906   6.945   2.906   5.746 -1.0546  0.9950  1.1205
  896MOL0     H20907   7.091   3.050   5.900  0.3085 -2.3686 -1.9087
  896MOL0     H20908   6.986   3.186   5.857 -1.5955 -0.0695  0.1504
  896MOL0     H20909   6.922   3.067   6.049 -4.3413  0.6078  1.9681
  896MOL0     H20910   6.862   2.932   5.952 -0.5356  0.3245  1.3339
  896MOL0     H20911   6.622   2.960   6.024 -1.1063  0.1821  1.1449
  896MOL0     H20912   6.341   3.160   5.821  0.2693  2.2363  3.0970
  896MOL0     H20913   6.407   2.994   5.811  3.0625  0.9127 -0.0431
  896MOL0     H20914   6.383   3.142   6.067  1.1660  2.1645 -2.9960
  896MOL0     H20915   6.374   2.966   6.046 -0.0673  0.8041  1.3085
  896MOL0     H20916   6.144   3.163   5.969  0.6953 -0.6514 -1.2121
  896MOL0     H20917   6.151   3.057   6.109  2.4582 -1.4548  0.6661
  896MOL0     H20918   6.141   2.876   5.937 -0.2093  0.0179  0.3287
  896MOL0     H20919   6.179   2.986   5.803 -1.8399 -1.4454 -2.1661
  896MOL0     H20920   6.067   2.995   5.611  0.1162  1.0571  0.3740
  896MOL0     H20921   5.948   2.818   5.317  2.9502  2.0775 -1.7802
  896MOL0     H20922   6.069   2.906   5.376  3.7198 -2.2747  1.2439
  896MOL0     H20923   6.078   2.733   5.415  0.2263 -0.9433 -1.9816
  896MOL0     H20924   5.520   2.450   5.610  3.2681 -1.7780  0.5011
  896MOL0     H20925   5.393   2.243   5.501 -1.0778  0.7276 -1.6791
  896MOL0     H20926   5.504   2.039   5.264  0.4804  0.1372  2.5038
  896MOL0     H20927   5.392   2.058   5.386  5.3980  0.5995  0.4209
  896MOL0     H20928   5.204   2.033   5.204 -0.0585  0.6458 -2.6803
  896MOL0     H20929   5.334   2.020   5.086  0.9389 -0.7073 -0.0254
  896MOL0     H20930   5.308   1.841   5.326  2.5203  2.1358  0.6964
  896MOL0     H20931   5.406   1.805   5.178 -0.6525  0.8914 -2.1061
  896MOL0     H20932   5.097   1.802   5.204 -2.8311 -3.8421 -2.4459
  896MOL0     H20933   5.184   1.817   5.055  1.4577  1.9465  0.7036
  896MOL0     H20934   5.220   1.604   5.266  0.0516 -1.2466 -0.8536
  896MOL0     H20935   5.312   1.598   5.121  0.2757 -1.8466  1.1328
  896MOL0     H20936   5.135   1.430   5.144  4.4752  0.7119  0.0556
  896MOL0     H20937   5.010   1.554   5.148 -1.1348 -1.7441 -2.1081
  896MOL0     H20938   5.155   1.629   4.922  0.6282 -1.1188 -0.3830
  896MOL0     H20939   5.013   1.529   4.918  0.4960 -0.0624 -2.3730
  896MOL0     H20940   5.316   1.431   4.939  0.7937  0.3254 -0.1653
  896MOL0     H20941   5.213   1.439   4.797  2.5581  1.6018 -0.3678
  896MOL0     H20942   5.543   2.397   5.126  3.9390  2.2283 -0.5427
  896MOL0     H20943   5.660   2.581   5.241  0.1324 -0.1334  0.6400
  896MOL0     H20944   5.664   2.734   5.718  0.7533  0.1222  0.1386
  896MOL0     H20945   5.772   2.878   5.893 -1.1646 -0.2054 -0.7714
  896MOL0     H20946   7.650   2.972   5.288  1.8638 -1.2193 -0.4934
  896MOL0     H20947   7.788   2.924   5.090  2.1654  0.6724  0.0659
  896MOL0     H20948   7.904   3.070   4.646  0.1615  0.9086  0.2536
  896MOL0     H20949   8.048   3.013   4.467  0.6467  1.6552 -2.1407
  896MOL0     H20950   8.481   3.102   4.422 -0.6844  1.7418  0.4491
  896MOL0     H20951   8.471   3.087   4.600  2.2653 -3.0070  1.9850
  896MOL0     H20952   8.524   2.870   4.388  0.8882 -0.2946  0.8961
  896MOL0     H20953   8.517   2.844   4.545  1.0273 -1.7057 -0.5266
  896MOL0     H20954   8.697   3.003   4.594 -1.2583  0.4762  0.5330
  896MOL0     H20955   8.717   3.038   4.422  0.2223  0.9004  0.7232
  896MOL0     H20956   8.729   2.764   4.526 -0.4175 -1.7124 -2.5635
  896MOL0     H20957   8.880   2.856   4.480 -0.1136 -2.1548  1.5636
  896MOL0     H20958   8.772   2.759   4.100  0.2450 -2.0421 -0.8468
  896MOL0     H20959   8.381   2.986   4.753 -0.1401 -1.9539 -0.5803
  896MOL0     H20960   8.238   3.052   4.929  0.3144  1.0924  0.6940
  897MOL0     O20961  10.452   5.643   5.128  0.1619 -0.4580  1.4193
  897MOL0     C20962  10.374   5.537   5.117  0.2932  0.3435 -0.3926
  897MOL0     O20963  10.323   5.468   5.224 -0.4679  0.2905  0.5063
  897MOL0     C20964  10.362   5.512   5.351  0.0315  0.1437  0.4537
  897MOL0     C20965  10.476   5.458   5.399 -0.1174  0.3139  1.1135
  897MOL0     C20966  10.522   5.503   5.517 -1.3778  0.4204 -0.8059
  897MOL0     C20967  10.465   5.597   5.586  0.8837  0.2145  0.7008
  897MOL0     O20968  10.528   5.621   5.704  0.0095  0.3105  0.3312
  897MOL0     C20969  10.547   5.751   5.731 -0.2251 -0.1976 -0.6363
  897MOL0     C20970  10.688   5.807   5.708  0.3911 -0.5372 -0.2692
  897MOL0     C20971  10.789   5.786   5.828 -0.0295  0.8754 -0.3475
  897MOL0     C20972  10.923   5.850   5.784 -0.3715 -0.9882  0.2587
  897MOL0     C20973  10.928   5.995   5.837 -0.1796 -0.6116  0.0807
  897MOL0     C20974  11.047   6.070   5.785 -1.0351 -0.2873  0.4361
  897MOL0     C20975  11.026   6.127   5.647 -0.3272 -0.6628  0.6668
  897MOL0     C20976  11.165   6.182   5.603 -0.5528 -0.2918 -0.9984
  897MOL0     N20977  11.164   6.243   5.478 -0.1246 -0.1467 -0.3470
  897MOL0     C20978  11.080   6.354   5.452 -0.1374  0.6486 -0.5639
  897MOL0     C20979  11.080   6.378   5.320 -1.0357 -0.0135  0.2153
  897MOL0     C20980  11.024   6.505   5.251  0.5998  0.7070  0.0114
  897MOL0     C20981  11.133   6.597   5.197 -0.3245  0.7061 -0.1990
  897MOL0     C20982  11.065   6.736   5.155 -0.8584 -0.2393  0.6576
  897MOL0     C20983  11.163   6.830   5.079 -0.7493 -1.1625  0.3114
  897MOL0     O20984  11.198   6.759   4.952 -0.1765  0.2248  0.3657
  897MOL0     C20985  11.258   6.834   4.854 -0.7677 -0.0537 -0.1380
  897MOL0     C20986  11.315   6.962   4.866  0.0918  0.5105 -0.2360
  897MOL0     C20987  11.365   7.042   4.755 -0.1123 -0.8000 -0.1956
  897MOL0     C20988  11.445   7.166   4.799 -0.3985 -0.1657  0.7536
  897MOL0     C20989  11.370   6.974   4.628 -0.8917  0.9007  0.4071
  897MOL0     C20990  11.452   7.026   4.516  0.4045  0.8229  0.4278
  897MOL0     O20991  11.487   6.936   4.419 -0.7051  0.1067  0.1219
  897MOL0     C20992  11.552   6.984   4.316  0.5981  0.8073 -0.7469
  897MOL0     C20993  11.482   7.034   4.215 -0.6861  0.3290 -0.0068
  897MOL0     C20994  11.546   7.106   4.109  0.7130 -0.0923 -0.1038
  897MOL0     C20995  11.688   7.107   4.100 -0.3542  0.3557  0.7081
  897MOL0     O20996  11.751   7.172   3.991 -0.0937  0.9157 -0.1767
  897MOL0     C20997  11.887   7.224   4.007 -0.0587  0.2926 -0.2850
  897MOL0     C20998  11.930   7.282   3.870 -0.2080  0.3982 -0.0600
  897MOL0     C20999  12.061   7.363   3.886  0.2798  1.3499 -0.7272
  897MOL0     C21000  12.193   7.261   3.898 -0.3013 -1.2747 -0.0677
  897MOL0     C21001  12.325   7.339   3.878 -0.3458 -0.1723 -0.2498
  897MOL0     C21002  12.426   7.236   3.812  0.3607 -0.7500 -0.9799
  897MOL0     C21003  12.557   7.319   3.785  0.7974 -0.2338  0.3345
  897MOL0     C21004  12.662   7.266   3.686 -0.1218 -0.9062  0.0306
  897MOL0    Cl21005  12.772   7.143   3.759  0.0825  0.1308 -0.2888
  897MOL0     C21006  11.762   7.044   4.202  0.2829 -0.4836 -0.2586
  897MOL0     C21007  11.690   6.978   4.308  0.0202 -0.5064 -0.0616
  897MOL0     O21008  11.485   7.143   4.508 -0.6176  0.1889  0.2896
  897MOL0     C21009  11.301   6.846   4.615 -0.9639  0.1590  0.0296
  897MOL0     C21010  11.252   6.780   4.728 -0.4726 -0.4369  0.4073
  897MOL0     N21011  11.160   6.273   5.265  0.0589 -0.5686  0.0556
  897MOL0     N21012  11.205   6.196   5.358 -0.1269  0.2783  0.5848
  897MOL0     C21013  10.344   5.661   5.545 -0.7904  0.2554 -0.4200
  897MOL0     C21014  10.295   5.625   5.422 -0.1872  0.1097  0.2446
  897MOL0     C21015  10.329   5.490   4.983 -0.1782 -0.0698  0.1633
  897MOL0     C21016  10.333   5.578   4.875  0.2699  0.1013  0.4369
  897MOL0     C21017  10.282   5.542   4.753 -0.1572  0.3992  0.2745
  897MOL0     C21018  10.221   5.418   4.726 -0.0960 -0.0782  0.5129
  897MOL0     O21019  10.194   5.362   4.607 -0.6975 -0.6630  0.4304
  897MOL0     C21020  10.192   5.448   4.487  0.0848  0.4681  0.5569
  897MOL0     C21021  10.125   5.386   4.361  0.0610 -0.2291 -0.1470
  897MOL0     C21022  10.136   5.480   4.251  0.1028 -0.1372 -0.0961
  897MOL0     C21023  10.068   5.433   4.123 -0.2896  0.6948 -0.2237
  897MOL0     C21024  10.157   5.342   4.044  0.0252 -0.2241 -0.9052
  897MOL0     C21025  10.218   5.270   3.967  1.0334 -0.4032  0.1377
  897MOL0     C21026  10.215   5.331   4.837  1.1819  1.1400  0.2003
  897MOL0     C21027  10.267   5.365   4.960  0.3554  0.2040  0.6440
  897MOL0     H21028  10.523   5.373   5.350  1.4711 -0.7214  4.1333
  897MOL0     H21029  10.617   5.465   5.554 -0.6673  1.3100 -1.6617
  897MOL0     H21030  10.486   5.817   5.667 -0.3105  1.8836  1.4496
  897MOL0     H21031  10.521   5.773   5.835  0.2731  0.0473 -0.5592
  897MOL0     H21032  10.735   5.762   5.620  1.5799  2.2496 -1.1587
  897MOL0     H21033  10.676   5.913   5.687 -2.6964 -0.3732  1.7641
  897MOL0     H21034  10.748   5.849   5.907  1.1098  3.0559 -1.3971
  897MOL0     H21035  10.797   5.680   5.852  0.1747  0.8342 -0.5912
  897MOL0     H21036  11.009   5.806   5.834 -1.6197 -1.5470  2.0240
  897MOL0     H21037  10.939   5.847   5.676  2.1169  0.2413  0.5313
  897MOL0     H21038  10.845   6.051   5.792  1.8357  1.4257 -1.3544
  897MOL0     H21039  10.930   6.004   5.946 -3.7847 -1.5110  0.3565
  897MOL0     H21040  11.080   6.144   5.859 -0.5578  0.7264 -0.7553
  897MOL0     H21041  11.127   5.996   5.775 -2.7345 -2.2504  0.6322
  897MOL0     H21042  10.986   6.063   5.567  0.4374  1.7253 -1.7591
  897MOL0     H21043  10.958   6.212   5.654 -0.5739 -0.9141  1.4275
  897MOL0     H21044  11.242   6.105   5.594 -0.9647 -0.8058 -0.1722
  897MOL0     H21045  11.208   6.257   5.670  1.8983 -2.9604  0.6603
  897MOL0     H21046  11.014   6.410   5.518  1.5696 -0.6754  2.4907
  897MOL0     H21047  10.955   6.477   5.171 -1.4750  1.8806  1.3053
  897MOL0     H21048  10.963   6.561   5.322  1.0408  1.2912 -0.0627
  897MOL0     H21049  11.192   6.553   5.117 -0.9574 -0.2780 -0.1371
  897MOL0     H21050  11.188   6.629   5.286 -2.1293  0.5021  1.0381
  897MOL0     H21051  11.039   6.790   5.247  1.6018  1.9938  0.1548
  897MOL0     H21052  10.981   6.724   5.086  0.6548 -1.0988 -1.1184
  897MOL0     H21053  11.260   6.847   5.124  0.9018 -1.3771 -2.8567
  897MOL0     H21054  11.113   6.925   5.056  1.4495 -0.2710 -1.1649
  897MOL0     H21055  11.318   7.010   4.963 -1.0973 -2.0321  1.1298
  897MOL0     H21056  11.403   7.242   4.732 -5.8146 -1.6717  1.9373
  897MOL0     H21057  11.431   7.194   4.904 -4.3541  2.2618 -0.1945
  897MOL0     H21058  11.551   7.152   4.774 -1.0348 -1.7178 -1.2540
  897MOL0     H21059  11.375   7.033   4.230 -0.8874 -0.9537 -1.2927
  897MOL0     H21060  11.484   7.143   4.028  1.5417 -0.4135 -0.9056
  897MOL0     H21061  11.903   7.300   4.084  0.6147  0.3718 -0.4921
  897MOL0     H21062  11.955   7.141   4.029 -0.8707 -0.0042  1.2486
  897MOL0     H21063  11.929   7.197   3.802 -1.9284 -0.0762  0.5057
  897MOL0     H21064  11.857   7.358   3.843  1.3342  2.1328  0.4205
  897MOL0     H21065  12.046   7.434   3.968 -0.4789 -0.8094  1.1443
  897MOL0     H21066  12.080   7.425   3.798 -2.6281 -0.2568 -2.6551
  897MOL0     H21067  12.203   7.198   3.987  0.5049 -2.3965 -0.9084
  897MOL0     H21068  12.183   7.195   3.811 -1.8532  0.3881 -1.2138
  897MOL0     H21069  12.364   7.373   3.974 -0.2830  0.8931 -0.6321
  897MOL0     H21070  12.328   7.417   3.801  1.8924 -1.0505 -1.1516
  897MOL0     H21071  12.441   7.145   3.871 -0.3818 -0.4474 -0.3201
  897MOL0     H21072  12.380   7.191   3.724  1.3498  1.0431 -2.5036
  897MOL0     H21073  12.608   7.340   3.880  2.0055  2.5204 -0.8309
  897MOL0     H21074  12.519   7.415   3.751 -1.3337 -1.8149 -2.0923
  897MOL0     H21075  12.719   7.356   3.659 -1.7564 -0.3793 -1.9010
  897MOL0     H21076  12.613   7.231   3.594  0.7504  0.4421 -0.9980
  897MOL0     H21077  11.870   7.048   4.211  0.4321  0.7330 -2.1285
  897MOL0     H21078  11.743   6.924   4.386 -1.9312 -0.0287  1.6639
  897MOL0     H21079  11.295   6.793   4.520  2.6812 -1.7613  0.6810
  897MOL0     H21080  11.211   6.679   4.732  0.0179 -0.6710 -0.4072
  897MOL0     H21081  10.307   5.741   5.608  2.8103  0.6335  1.4529
  897MOL0     H21082  10.203   5.673   5.389 -1.1998 -1.2921  0.9553
  897MOL0     H21083  10.386   5.673   4.874  0.1214  0.2824 -3.3004
  897MOL0     H21084  10.305   5.608   4.670  0.8562 -0.2760  0.0026
  897MOL0     H21085  10.134   5.535   4.522 -3.3704 -0.9759 -1.0899
  897MOL0     H21086  10.296   5.463   4.458  0.3337 -1.6201  0.2665
  897MOL0     H21087  10.017   5.370   4.374 -0.1323  0.0465 -1.3334
  897MOL0     H21088  10.180   5.293   4.347  2.1740  0.7875  0.9650
  897MOL0     H21089  10.239   5.507   4.224 -0.8228  1.4432 -2.4862
  897MOL0     H21090  10.082   5.571   4.279  2.8346  1.8738 -0.8795
  897MOL0     H21091  10.036   5.515   4.057 -2.7172  2.1828  2.5559
  897MOL0     H21092   9.972   5.380   4.136  0.1301  0.3315  1.5939
  897MOL0     H21093  10.269   5.206   3.897  0.4658 -2.2341  1.3316
  897MOL0     H21094  10.182   5.229   4.818 -0.2833  1.0097  2.9352
  897MOL0     H21095  10.241   5.287   5.031  0.2994 -0.8702 -0.5275
  898MOL0     O21096   1.490   1.113   6.529  0.0352 -0.0384  0.2639
  898MOL0     C21097   1.544   1.066   6.622 -0.0235 -1.0037 -0.6438
  898MOL0     O21098   1.482   1.019   6.738 -0.3383  0.0083  0.1573
  898MOL0     C21099   1.355   1.061   6.766  0.4961  0.9234  0.2270
  898MOL0     C21100   1.250   1.081   6.675  1.0571  0.6451 -0.3090
  898MOL0     C21101   1.122   1.128   6.716  0.5731  0.4441 -0.1647
  898MOL0     C21102   1.094   1.147   6.856  0.4255  0.2101 -0.7434
  898MOL0     O21103   0.971   1.180   6.911 -0.0647 -0.7036 -0.2695
  898MOL0     C21104   0.883   1.240   6.811 -0.0438  0.4437  0.0837
  898MOL0     C21105   0.772   1.309   6.886 -0.0212  0.6444  1.2263
  898MOL0     C21106   0.699   1.213   6.997 -0.6888 -0.1536  0.4431
  898MOL0     C21107   0.610   1.294   7.088  0.4339 -0.0675 -1.2205
  898MOL0     C21108   0.550   1.193   7.187 -0.4926 -0.1012  0.5444
  898MOL0     C21109   0.481   1.265   7.309 -0.0284  0.6469 -0.0663
  898MOL0     C21110   0.363   1.357   7.265  0.2437 -0.5448 -1.3898
  898MOL0     C21111   0.268   1.409   7.386 -0.7689 -0.3876  0.5321
  898MOL0     N21112   0.209   1.300   7.482  0.7708 -0.3853  0.1412
  898MOL0     C21113   0.146   1.177   7.448  0.0083 -0.1130 -0.0678
  898MOL0     C21114   0.130   1.115   7.562  0.4267 -0.3926 -0.0829
  898MOL0     C21115   0.056   0.984   7.577  0.8114 -0.1772  0.1044
  898MOL0     C21116   0.150   0.861   7.609 -0.1173 -0.5325  0.4437
  898MOL0     C21117   0.251   0.833   7.506  0.2334  0.6035  0.8114
  898MOL0     C21118   0.372   0.925   7.508  0.0980  0.0063 -0.4229
  898MOL0     O21119   0.493   0.868   7.460  0.2555  0.3326  0.4374
  898MOL0     C21120   0.520   0.838   7.329 -0.0002 -0.2537  0.1935
  898MOL0     C21121   0.435   0.879   7.230  0.0602  0.1890 -0.7140
  898MOL0     C21122   0.464   0.855   7.105  0.5517 -0.1439 -0.7106
  898MOL0     C21123   0.362   0.887   6.992  0.3598 -0.0583 -0.6533
  898MOL0     C21124   0.589   0.793   7.065  0.3699  0.0300 -0.4511
  898MOL0     C21125   0.644   0.801   6.932 -1.0589 -0.7966 -0.5185
  898MOL0     O21126   0.735   0.704   6.901  0.5109 -0.6341 -0.0807
  898MOL0     C21127   0.803   0.718   6.785 -0.0080  0.7740  0.1273
  898MOL0     C21128   0.880   0.830   6.747 -0.0237  0.2717 -0.2873
  898MOL0     C21129   0.953   0.836   6.628 -0.3314  0.1475 -0.0777
  898MOL0     C21130   0.957   0.725   6.544 -0.6989  0.4351 -0.6978
  898MOL0     O21131   1.010   0.721   6.419  0.0138  0.0104 -0.8984
  898MOL0     C21132   1.147   0.760   6.403 -0.2049  0.0136  0.3093
  898MOL0     C21133   1.211   0.697   6.278  0.8460  0.3813  0.1383
  898MOL0     C21134   1.244   0.552   6.277 -0.3286  0.6999 -0.0202
  898MOL0     C21135   1.295   0.517   6.138  0.3229 -0.2423  0.2863
  898MOL0     C21136   1.375   0.383   6.125  0.5381 -0.9333  0.2329
  898MOL0     C21137   1.429   0.357   5.980  0.7468 -0.0871  0.0987
  898MOL0     C21138   1.547   0.249   5.973  0.0307 -0.4653 -0.5108
  898MOL0     C21139   1.595   0.228   5.835  0.0693 -0.2276 -0.4931
  898MOL0    Cl21140   1.682   0.066   5.823 -0.4082  0.0219  0.3099
  898MOL0     C21141   0.867   0.632   6.571  0.8565  0.5602  0.9038
  898MOL0     C21142   0.780   0.626   6.685 -0.7953 -0.0866  0.8487
  898MOL0     O21143   0.613   0.895   6.853 -0.0908 -0.3883 -0.2172
  898MOL0     C21144   0.682   0.754   7.165  0.2575 -0.9519  0.3234
  898MOL0     C21145   0.644   0.783   7.295 -0.1426  0.4703 -0.9221
  898MOL0     N21146   0.189   1.185   7.667  0.2645 -0.6015  0.0634
  898MOL0     N21147   0.229   1.297   7.616 -0.3593 -0.3151 -0.1848
  898MOL0     C21148   1.198   1.120   6.943 -0.4839  0.0506  0.3491
  898MOL0     C21149   1.327   1.083   6.902  0.1798 -1.1269  0.2972
  898MOL0     C21150   1.687   1.063   6.619  0.2344  0.8014 -0.1329
  898MOL0     C21151   1.769   1.002   6.720 -0.0673 -0.4240 -0.2724
  898MOL0     C21152   1.905   0.998   6.723 -0.9321 -0.1504  0.5342
  898MOL0     C21153   1.975   1.039   6.614 -0.3899  1.1540  0.1900
  898MOL0     O21154   2.113   1.031   6.611 -0.8483 -0.8037 -0.3530
  898MOL0     C21155   2.186   1.038   6.487  0.0289  0.2246 -0.0361
  898MOL0     C21156   2.172   0.898   6.417 -0.3347 -0.1398 -0.1132
  898MOL0     C21157   2.177   0.880   6.258 -0.4263 -0.1906 -0.1454
  898MOL0     C21158   2.101   0.752   6.215  1.2632  0.1646  0.3069
  898MOL0     C21159   2.150   0.623   6.253 -1.0156  0.0874 -0.7947
  898MOL0     C21160   2.192   0.515   6.287  0.4850  0.1564  0.0063
  898MOL0     C21161   1.902   1.099   6.508  0.0268 -0.0428  0.6156
  898MOL0     C21162   1.760   1.111   6.516  0.3110  0.1422 -0.6040
  898MOL0     H21163   1.265   1.059   6.570  0.2460 -1.0394 -0.1091
  898MOL0     H21164   1.056   1.124   6.630  0.1123 -1.8195  0.2293
  898MOL0     H21165   0.934   1.313   6.747 -0.1949  1.3718  0.9918
  898MOL0     H21166   0.840   1.174   6.735 -1.3350  2.6032 -1.1690
  898MOL0     H21167   0.805   1.398   6.942  0.2601 -0.3998  2.7751
  898MOL0     H21168   0.696   1.341   6.814  0.0871  1.7209  1.5624
  898MOL0     H21169   0.649   1.127   6.950 -0.7045  0.4014 -0.5863
  898MOL0     H21170   0.785   1.168   7.048  1.4919  1.7083 -1.4404
  898MOL0     H21171   0.676   1.364   7.141  0.3241 -1.6595  1.1184
  898MOL0     H21172   0.541   1.351   7.025  1.2730 -1.0008 -3.0722
  898MOL0     H21173   0.477   1.132   7.133 -1.9823 -0.3987  2.7717
  898MOL0     H21174   0.635   1.128   7.209  1.6629  0.6180 -4.2181
  898MOL0     H21175   0.439   1.186   7.372  1.2883 -0.1042 -0.1014
  898MOL0     H21176   0.546   1.324   7.374 -1.4208 -0.9826  3.0064
  898MOL0     H21177   0.410   1.447   7.225  1.3823 -1.2032 -1.5898
  898MOL0     H21178   0.307   1.306   7.187 -0.3220 -0.5741 -0.9695
  898MOL0     H21179   0.190   1.474   7.346  0.7400  0.9425 -0.3545
  898MOL0     H21180   0.321   1.476   7.455  4.3806 -2.3234 -1.1256
  898MOL0     H21181   0.126   1.142   7.347 -0.3720  2.4300 -0.9720
  898MOL0     H21182  -0.020   0.997   7.655 -0.1420 -2.1567 -0.4103
  898MOL0     H21183   0.000   0.959   7.486  0.7802  0.0842  0.0524
  898MOL0     H21184   0.086   0.777   7.633  3.9027 -2.9841  3.9794
  898MOL0     H21185   0.201   0.865   7.706  3.3330 -1.5975 -1.1581
  898MOL0     H21186   0.202   0.835   7.408 -0.0741 -0.3834  0.9340
  898MOL0     H21187   0.282   0.732   7.536 -1.6208 -0.4144 -0.4856
  898MOL0     H21188   0.388   0.942   7.615 -1.0711  0.6621 -0.3334
  898MOL0     H21189   0.340   1.017   7.458  0.2108  0.9155  1.1173
  898MOL0     H21190   0.342   0.928   7.257 -0.3517 -1.6392  1.4963
  898MOL0     H21191   0.367   0.824   6.903 -0.2735  0.4005 -1.0254
  898MOL0     H21192   0.263   0.867   7.032  1.4070  0.3110  2.3739
  898MOL0     H21193   0.365   0.994   6.969  3.4741  0.0965  0.0655
  898MOL0     H21194   0.894   0.910   6.819 -2.7652  3.6285 -3.1171
  898MOL0     H21195   1.029   0.909   6.604  1.2455 -0.7011  2.0396
  898MOL0     H21196   1.146   0.870   6.401 -1.5945  0.1916  3.8988
  898MOL0     H21197   1.213   0.734   6.486  1.4262  1.8807 -0.3053
  898MOL0     H21198   1.147   0.723   6.193  0.8418  2.1378  0.6550
  898MOL0     H21199   1.307   0.747   6.265  2.1038 -1.1256  2.7610
  898MOL0     H21200   1.160   0.484   6.294  0.4303 -1.3752 -3.4238
  898MOL0     H21201   1.319   0.538   6.355 -0.4768 -0.9462 -0.1440
  898MOL0     H21202   1.222   0.519   6.057 -0.0195  2.4219  0.5788
  898MOL0     H21203   1.356   0.603   6.106 -3.3656  2.2248 -0.7189
  898MOL0     H21204   1.307   0.301   6.147 -0.3468 -0.8499 -1.9512
  898MOL0     H21205   1.456   0.388   6.198  0.0430  2.4265  0.7325
  898MOL0     H21206   1.358   0.362   5.897  0.6502  0.6158  0.2116
  898MOL0     H21207   1.487   0.442   5.943  1.3153 -0.3714  0.3290
  898MOL0     H21208   1.523   0.147   6.004  3.2149 -0.5365  2.4644
  898MOL0     H21209   1.633   0.284   6.031  0.0411 -0.5317 -0.4851
  898MOL0     H21210   1.647   0.307   5.781  3.7420 -1.3735  1.0589
  898MOL0     H21211   1.501   0.220   5.778 -2.2930  2.3517  2.6945
  898MOL0     H21212   0.864   0.558   6.491  2.7682  4.4484 -3.1689
  898MOL0     H21213   0.706   0.547   6.688 -0.5637 -0.3302  0.3342
  898MOL0     H21214   0.781   0.717   7.141  0.3342  0.3942 -1.6786
  898MOL0     H21215   0.716   0.746   7.367 -0.5468 -1.7732 -1.6036
  898MOL0     H21216   1.160   1.121   7.045 -0.8029 -1.3052  0.2646
  898MOL0     H21217   1.404   1.063   6.976 -1.5899  1.7442  3.1835
  898MOL0     H21218   1.722   0.956   6.807  1.7986  1.1024  1.6426
  898MOL0     H21219   1.968   0.954   6.800 -1.4749 -1.9773 -0.0044
  898MOL0     H21220   2.159   1.122   6.423 -5.2727  0.4847  2.0373
  898MOL0     H21221   2.295   1.043   6.497  0.7428 -4.9075 -1.8480
  898MOL0     H21222   2.072   0.865   6.447 -0.3031 -0.3936 -0.2834
  898MOL0     H21223   2.240   0.826   6.462  0.4157 -1.1957 -2.7683
  898MOL0     H21224   2.281   0.872   6.225 -0.7439 -0.4229 -1.1505
  898MOL0     H21225   2.138   0.968   6.206  0.6755  1.7994  2.2454
  898MOL0     H21226   2.108   0.734   6.107 -2.7362 -0.1581 -0.0582
  898MOL0     H21227   1.992   0.757   6.229  1.2365  1.6372 -0.2719
  898MOL0     H21228   2.219   0.418   6.324  2.0651  1.6172  3.0641
  898MOL0     H21229   1.947   1.144   6.420  1.9707 -0.7816  1.1682
  898MOL0     H21230   1.717   1.161   6.430 -0.5397  0.1394 -0.1933
  899MOL0     O21231  10.350   8.326   6.697 -0.3113 -0.5159  0.1750
  899MOL0     C21232  10.457   8.358   6.649  0.1009  0.2870 -0.1815
  899MOL0     O21233  10.571   8.357   6.720 -0.3295 -0.4755 -0.6806
  899MOL0     C21234  10.579   8.314   6.848 -0.2635  0.0825  0.0877
  899MOL0     C21235  10.695   8.242   6.888  0.1745  0.5783  1.0582
  899MOL0     C21236  10.743   8.214   7.017 -1.0186  0.4933 -0.0958
  899MOL0     C21237  10.662   8.260   7.120  0.2745 -0.1271  0.3766
  899MOL0     O21238  10.721   8.240   7.242  0.0774  0.6019  0.6499
  899MOL0     C21239  10.720   8.340   7.345  0.2330  0.2618  0.4617
  899MOL0     C21240  10.799   8.312   7.475 -0.4136 -0.0848 -0.0997
  899MOL0     C21241  10.943   8.349   7.465 -1.0102  0.4446  0.2176
  899MOL0     C21242  11.022   8.238   7.388  0.4389 -0.6250 -0.1318
  899MOL0     C21243  11.143   8.313   7.337 -0.3796 -0.7280 -0.6565
  899MOL0     C21244  11.222   8.228   7.253 -0.2373 -0.3072 -0.0310
  899MOL0     C21245  11.349   8.305   7.208  0.5414  0.0420 -0.3866
  899MOL0     C21246  11.360   8.300   7.062  0.3197  0.5388  0.4905
  899MOL0     N21247  11.364   8.162   7.003  0.6213 -0.7410 -0.2782
  899MOL0     C21248  11.481   8.100   6.967  0.5883 -1.1312  0.6616
  899MOL0     C21249  11.439   7.993   6.892 -0.9035 -0.5476  0.2155
  899MOL0     C21250  11.544   7.890   6.848 -0.7039 -0.0915  0.6311
  899MOL0     C21251  11.551   7.760   6.923  0.5117  0.4608  0.7972
  899MOL0     C21252  11.540   7.635   6.825  0.1812 -0.7283 -0.0523
  899MOL0     C21253  11.556   7.499   6.892  0.1429 -0.5295 -0.4821
  899MOL0     O21254  11.686   7.501   6.962  0.4365  0.0630  0.5872
  899MOL0     C21255  11.782   7.411   6.911 -0.6547  1.3246 -0.4457
  899MOL0     C21256  11.889   7.374   6.998  0.3531 -1.0378 -0.3126
  899MOL0     C21257  11.978   7.268   6.979  0.6456 -0.9232  0.6238
  899MOL0     C21258  12.089   7.240   7.084 -0.3926 -0.6034 -0.1656
  899MOL0     C21259  11.982   7.206   6.843  0.1065 -0.4404 -0.4603
  899MOL0     C21260  12.086   7.112   6.800  0.1031 -0.2937 -0.2119
  899MOL0     O21261  12.055   7.023   6.708 -0.2103 -0.1515  0.4199
  899MOL0     C21262  12.149   6.956   6.635  1.0200 -0.1904  0.3552
  899MOL0     C21263  12.172   6.825   6.654  0.5118 -0.3683  0.3046
  899MOL0     C21264  12.263   6.759   6.582 -1.1931  0.8522 -0.4693
  899MOL0     C21265  12.330   6.823   6.482 -1.1167 -0.0800  0.0992
  899MOL0     O21266  12.437   6.776   6.406 -0.2738 -0.0564 -0.1203
  899MOL0     C21267  12.496   6.663   6.461 -0.1711 -0.0311 -0.8210
  899MOL0     C21268  12.590   6.621   6.349 -1.7123 -0.4452  0.5955
  899MOL0     C21269  12.696   6.529   6.413  0.5971  0.2267 -0.6849
  899MOL0     C21270  12.812   6.616   6.474 -0.0126  0.7716  1.2701
  899MOL0     C21271  12.862   6.562   6.600  0.4052 -0.1785 -0.0907
  899MOL0     C21272  12.780   6.613   6.718 -0.6083  0.1362 -0.6951
  899MOL0     C21273  12.850   6.544   6.844  0.7154 -0.2030  0.0064
  899MOL0     C21274  12.740   6.526   6.953 -0.2250 -0.2721  0.5746
  899MOL0    Cl21275  12.793   6.408   7.078  0.2266  0.2967 -0.3034
  899MOL0     C21276  12.303   6.955   6.451  0.9363 -0.3922 -1.2584
  899MOL0     C21277  12.205   7.026   6.531 -0.1196  0.2082  0.2665
  899MOL0     O21278  12.201   7.124   6.844  0.5665  0.7103  0.8565
  899MOL0     C21279  11.878   7.249   6.752 -1.1125 -0.7389  0.4342
  899MOL0     C21280  11.782   7.347   6.789 -0.0061 -0.5518  0.1697
  899MOL0     N21281  11.305   7.982   6.884  0.4341 -0.7886  0.4160
  899MOL0     N21282  11.261   8.092   6.951  0.7451  1.0257 -0.5517
  899MOL0     C21283  10.537   8.322   7.092  0.6026 -0.6514  0.6402
  899MOL0     C21284  10.501   8.349   6.962 -0.5472 -0.1967  0.1129
  899MOL0     C21285  10.465   8.389   6.505  0.7879 -0.2223  0.6869
  899MOL0     C21286  10.588   8.409   6.439 -0.7221 -0.7494  0.6167
  899MOL0     C21287  10.591   8.428   6.298  0.0052  0.2864  0.4579
  899MOL0     C21288  10.469   8.428   6.229 -0.4090 -0.0584  0.0056
  899MOL0     O21289  10.465   8.450   6.094  0.2390  0.1848  0.8195
  899MOL0     C21290  10.546   8.560   6.040 -0.1897 -0.2246 -0.8424
  899MOL0     C21291  10.485   8.586   5.897  0.7403  1.0532  0.2050
  899MOL0     C21292  10.580   8.671   5.816  0.5673  0.3745 -0.1186
  899MOL0     C21293  10.560   8.640   5.664 -0.5735  0.3263  0.0088
  899MOL0     C21294  10.660   8.713   5.592 -0.5889  1.1186 -0.8408
  899MOL0     C21295  10.738   8.769   5.519 -0.8525 -0.3291  1.2397
  899MOL0     C21296  10.352   8.412   6.292 -0.1349  0.0767  0.2700
  899MOL0     C21297  10.346   8.398   6.433  0.4718 -0.4367  0.3825
  899MOL0     H21298  10.768   8.215   6.812  0.2133 -1.4249  1.7521
  899MOL0     H21299  10.845   8.176   7.017 -0.5686  1.3056 -3.7689
  899MOL0     H21300  10.760   8.435   7.308  2.5271 -0.6662  0.3506
  899MOL0     H21301  10.615   8.350   7.373 -0.4002  0.2963 -1.7149
  899MOL0     H21302  10.752   8.362   7.560  0.6075 -0.8615  0.9568
  899MOL0     H21303  10.788   8.207   7.503  1.1624 -1.2069 -3.2058
  899MOL0     H21304  10.942   8.448   7.420 -0.5141  0.4647  0.2431
  899MOL0     H21305  10.993   8.366   7.561  1.3017  1.7998 -1.1379
  899MOL0     H21306  11.060   8.156   7.450  2.3051  1.0672  1.0506
  899MOL0     H21307  10.952   8.192   7.317 -0.2789 -1.8598  1.3120
  899MOL0     H21308  11.113   8.404   7.283  0.1531  0.1772  0.5069
  899MOL0     H21309  11.200   8.343   7.425 -1.5314 -1.6458  0.4347
  899MOL0     H21310  11.260   8.142   7.309 -0.6198  1.6784  3.5485
  899MOL0     H21311  11.161   8.197   7.168 -0.2503  1.4227 -0.6908
  899MOL0     H21312  11.334   8.411   7.230 -0.8839 -0.2351  0.0907
  899MOL0     H21313  11.445   8.274   7.249  0.2839  1.5920  1.5486
  899MOL0     H21314  11.453   8.343   7.024 -0.5208 -0.2419 -2.7752
  899MOL0     H21315  11.290   8.367   7.012 -0.3370 -1.5948 -1.6303
  899MOL0     H21316  11.583   8.129   6.990  0.2775 -0.0504  0.7182
  899MOL0     H21317  11.517   7.859   6.747 -5.5573 -0.5241  1.8241
  899MOL0     H21318  11.644   7.934   6.844 -1.3403  1.3055 -0.6092
  899MOL0     H21319  11.465   7.760   6.990 -2.4725  1.0191 -2.7094
  899MOL0     H21320  11.648   7.770   6.972  0.1205 -1.8074  2.1994
  899MOL0     H21321  11.598   7.646   6.733 -1.0797  0.4057 -0.7484
  899MOL0     H21322  11.442   7.652   6.780  0.7916  2.6824 -0.3955
  899MOL0     H21323  11.543   7.406   6.835  0.0343 -1.9212  1.7037
  899MOL0     H21324  11.478   7.483   6.967  1.9692 -3.4768  1.0025
  899MOL0     H21325  11.891   7.404   7.102  0.7937 -1.1852 -0.2755
  899MOL0     H21326  12.122   7.135   7.080  2.3501  0.2021 -1.6509
  899MOL0     H21327  12.177   7.301   7.059 -1.7123  1.6832  0.4663
  899MOL0     H21328  12.056   7.269   7.184  2.3545  2.2570  0.0663
  899MOL0     H21329  12.117   6.781   6.737  0.5908  4.0541  3.0525
  899MOL0     H21330  12.296   6.659   6.606 -1.1107  1.3067  1.5463
  899MOL0     H21331  12.554   6.687   6.551  0.8024  0.9799 -1.6750
  899MOL0     H21332  12.424   6.582   6.469 -1.0226  0.5046 -2.5733
  899MOL0     H21333  12.546   6.573   6.261  2.7183 -1.3892 -1.3624
  899MOL0     H21334  12.646   6.708   6.313 -2.4046 -0.2836 -0.1241
  899MOL0     H21335  12.744   6.462   6.342  4.0445 -2.3890  3.5947
  899MOL0     H21336  12.644   6.467   6.487  0.7300 -1.9124 -2.2759
  899MOL0     H21337  12.895   6.600   6.405  0.2007  1.0806  1.4545
  899MOL0     H21338  12.795   6.724   6.474 -0.4455  0.7163  0.0770
  899MOL0     H21339  12.966   6.597   6.603  0.2657  0.8767 -3.5130
  899MOL0     H21340  12.851   6.453   6.607 -1.3025  0.0491  1.5404
  899MOL0     H21341  12.786   6.722   6.721 -2.5419  0.2651  0.2779
  899MOL0     H21342  12.678   6.575   6.709 -0.6768  0.3669 -0.9309
  899MOL0     H21343  12.935   6.607   6.873 -0.1542  1.4853 -0.9226
  899MOL0     H21344  12.890   6.448   6.810 -1.4383 -1.4329  0.7278
  899MOL0     H21345  12.644   6.489   6.916  0.1148  0.2032 -0.8186
  899MOL0     H21346  12.716   6.618   7.008 -0.7370  0.3383 -0.6306
  899MOL0     H21347  12.355   6.999   6.366  0.9431  1.2875 -0.4174
  899MOL0     H21348  12.183   7.132   6.536 -0.9830  0.0276  0.4898
  899MOL0     H21349  11.868   7.202   6.655 -0.9854 -1.3012  0.6907
  899MOL0     H21350  11.706   7.378   6.718 -0.9646 -0.6263  1.1377
  899MOL0     H21351  10.481   8.361   7.176  0.0390 -0.5839  0.2354
  899MOL0     H21352  10.407   8.393   6.929 -0.9988 -2.4433 -1.8273
  899MOL0     H21353  10.682   8.412   6.493  0.2207  3.9860 -0.8146
  899MOL0     H21354  10.686   8.431   6.246 -0.3485 -3.4301 -0.6740
  899MOL0     H21355  10.547   8.653   6.098 -1.3084  0.4777 -1.9009
  899MOL0     H21356  10.651   8.531   6.038  0.0462 -0.3734  3.6134
  899MOL0     H21357  10.387   8.627   5.922 -1.5494 -3.0500 -0.9848
  899MOL0     H21358  10.464   8.496   5.838 -3.0694  1.4834  0.6436
  899MOL0     H21359  10.679   8.637   5.847  0.5187  1.1597  0.9579
  899MOL0     H21360  10.592   8.777   5.838 -0.0259  0.3438  0.4142
  899MOL0     H21361  10.456   8.663   5.638 -1.6575 -1.3340  2.3899
  899MOL0     H21362  10.569   8.533   5.640  0.7533  1.0784 -3.3304
  899MOL0     H21363  10.804   8.825   5.455 -1.4599 -1.4348 -0.4255
  899MOL0     H21364  10.263   8.396   6.233 -2.2327 -3.1282  3.8522
  899MOL0     H21365  10.245   8.402   6.471  0.7565 -0.3657  1.1527
  900MOL0     O21366   5.479   4.732   6.133  0.3246 -0.2043  0.0053
  900MOL0     C21367   5.428   4.722   6.243 -0.9644  0.7749  0.9187
  900MOL0     O21368   5.496   4.723   6.360 -0.3670 -0.5342  0.7670
  900MOL0     C21369   5.625   4.770   6.355  0.5726  0.3209 -0.3805
  900MOL0     C21370   5.664   4.889   6.411  0.4775 -0.5655 -0.9833
  900MOL0     C21371   5.801   4.936   6.402  0.1181  0.9402 -0.2620
  900MOL0     C21372   5.891   4.863   6.326 -0.6106 -0.4001  0.0330
  900MOL0     O21373   6.026   4.902   6.316 -0.3188 -0.4728 -1.0770
  900MOL0     C21374   6.088   4.959   6.433 -0.3132  0.0475  0.3080
  900MOL0     C21375   6.242   4.950   6.413  0.1045  0.2332  0.0290
  900MOL0     C21376   6.284   5.026   6.279 -0.3309  0.0736 -0.3998
  900MOL0     C21377   6.435   4.996   6.268  0.0413  0.6509  0.1956
  900MOL0     C21378   6.508   5.054   6.149  0.4707  0.3856 -0.2565
  900MOL0     C21379   6.460   5.004   6.014 -0.9447 -0.0882  0.7139
  900MOL0     C21380   6.537   5.085   5.908 -0.6470  0.0453  0.2904
  900MOL0     C21381   6.492   5.062   5.762 -0.0764 -0.7683 -0.8525
  900MOL0     N21382   6.534   4.936   5.695 -0.6489 -0.5667  0.0802
  900MOL0     C21383   6.499   4.814   5.733  0.6025 -0.1447 -0.1005
  900MOL0     C21384   6.561   4.728   5.651 -0.3327 -0.4870 -0.6769
  900MOL0     C21385   6.548   4.581   5.650 -0.9736  0.1181  0.0992
  900MOL0     C21386   6.435   4.526   5.560  0.7793  0.3019  0.7180
  900MOL0     C21387   6.434   4.582   5.422 -0.1171 -0.4488  0.3099
  900MOL0     C21388   6.339   4.508   5.326 -0.7484 -0.3443  0.0256
  900MOL0     O21389   6.388   4.379   5.285 -0.9476 -0.0866  0.2103
  900MOL0     C21390   6.479   4.363   5.181 -0.0317  0.0727 -0.2024
  900MOL0     C21391   6.470   4.229   5.123 -0.5058 -1.0409  0.3262
  900MOL0     C21392   6.553   4.192   5.012  0.0391 -0.2774  0.7270
  900MOL0     C21393   6.554   4.047   4.965  0.1348 -0.3449 -0.5789
  900MOL0     C21394   6.640   4.297   4.952  1.6270  0.2575 -0.1883
  900MOL0     C21395   6.709   4.268   4.830 -1.8273  1.1453  0.2943
  900MOL0     O21396   6.847   4.250   4.835  1.0858 -0.1721 -0.0905
  900MOL0     C21397   6.921   4.226   4.715  0.2467 -0.8155  0.1098
  900MOL0     C21398   6.874   4.134   4.616  0.9724 -0.1387 -1.2257
  900MOL0     C21399   6.963   4.098   4.507 -0.6602 -0.0458 -0.2591
  900MOL0     C21400   7.088   4.152   4.493  0.2841  0.0458 -0.7070
  900MOL0     O21401   7.177   4.111   4.397 -0.6773  0.5579 -0.0542
  900MOL0     C21402   7.240   3.981   4.441 -0.6547  0.1474 -0.6605
  900MOL0     C21403   7.379   3.952   4.376  0.7281 -0.1064  0.6128
  900MOL0     C21404   7.491   4.064   4.394  0.1149  1.2386  0.0595
  900MOL0     C21405   7.616   4.016   4.311  0.2579  0.0990  0.1010
  900MOL0     C21406   7.723   4.123   4.296  0.5749 -0.7704  0.9028
  900MOL0     C21407   7.864   4.080   4.333  0.2186  0.5671 -0.4693
  900MOL0     C21408   7.950   4.200   4.333 -0.5203 -0.9846  0.2747
  900MOL0     C21409   8.092   4.166   4.371 -0.5243  0.4307 -0.2348
  900MOL0    Cl21410   8.198   4.302   4.410  0.1658  0.0487 -0.0965
  900MOL0     C21411   7.131   4.257   4.579  0.4259 -0.3884 -0.1466
  900MOL0     C21412   7.047   4.291   4.690 -0.5025  0.6119 -0.6621
  900MOL0     O21413   6.638   4.254   4.733  0.8338  0.0405  0.8878
  900MOL0     C21414   6.643   4.428   5.011 -0.8109  1.4424  0.2191
  900MOL0     C21415   6.558   4.460   5.114 -0.2583 -0.2705 -0.1550
  900MOL0     N21416   6.654   4.803   5.580  0.1711  0.5123 -0.4356
  900MOL0     N21417   6.625   4.923   5.598 -0.3749  0.9353 -0.4845
  900MOL0     C21418   5.858   4.733   6.293  0.2369 -0.1432  0.4440
  900MOL0     C21419   5.722   4.688   6.299  0.1380  0.5718  0.2783
  900MOL0     C21420   5.281   4.711   6.248 -0.1365  0.8336  0.7428
  900MOL0     C21421   5.201   4.772   6.147 -0.3526  0.3797 -0.2019
  900MOL0     C21422   5.057   4.797   6.167 -0.7766 -0.0224  0.4193
  900MOL0     C21423   5.005   4.728   6.271 -0.4682  0.1070  0.3228
  900MOL0     O21424   4.875   4.745   6.293  0.0008 -0.3343 -0.3321
  900MOL0     C21425   4.774   4.636   6.313 -0.4785 -0.1103  1.5457
  900MOL0     C21426   4.751   4.562   6.179  0.0901 -0.0511 -0.0924
  900MOL0     C21427   4.696   4.643   6.057 -0.0040  0.8785 -0.0525
  900MOL0     C21428   4.689   4.564   5.932  0.2556  0.1028 -0.0822
  900MOL0     C21429   4.587   4.452   5.933 -0.7412 -0.8779  0.5306
  900MOL0     C21430   4.506   4.361   5.925 -0.1490  0.1307  0.2369
  900MOL0     C21431   5.079   4.653   6.363  0.8809  0.3939 -0.2073
  900MOL0     C21432   5.218   4.656   6.363 -0.5401  0.2178 -0.0396
  900MOL0     H21433   5.589   4.954   6.455  0.9195 -0.6810 -0.0323
  900MOL0     H21434   5.845   5.029   6.436  2.4752 -0.4130  0.6437
  900MOL0     H21435   6.052   5.062   6.428 -0.7827 -0.1372 -0.2803
  900MOL0     H21436   6.067   4.911   6.529  0.8286  2.2778  1.7433
  900MOL0     H21437   6.298   4.975   6.503 -0.6215  1.4714  0.1485
  900MOL0     H21438   6.265   4.844   6.396 -0.0719 -0.2154  2.3211
  900MOL0     H21439   6.232   4.986   6.191  1.5014 -1.2156 -0.9632
  900MOL0     H21440   6.277   5.135   6.291 -0.2720 -0.0768  1.0657
  900MOL0     H21441   6.491   5.033   6.355  3.3234 -0.2833 -1.3452
  900MOL0     H21442   6.462   4.890   6.273  2.0510  1.1023 -0.1922
  900MOL0     H21443   6.512   5.164   6.154  0.9648  0.3836 -0.5532
  900MOL0     H21444   6.611   5.026   6.176 -0.6372  0.3286  5.1665
  900MOL0     H21445   6.476   4.896   6.013  2.4386  0.2254 -2.4500
  900MOL0     H21446   6.352   5.003   5.996 -1.1028  4.2588  0.3289
  900MOL0     H21447   6.534   5.189   5.942 -0.5018 -0.1429  0.9038
  900MOL0     H21448   6.644   5.067   5.918 -0.9012 -0.9786  1.4431
  900MOL0     H21449   6.508   5.148   5.697  1.8033  1.3239  2.1210
  900MOL0     H21450   6.383   5.047   5.767  0.1892 -2.4097  1.3284
  900MOL0     H21451   6.439   4.788   5.819  1.7784 -1.5251  0.3327
  900MOL0     H21452   6.642   4.545   5.606 -0.8286 -1.7437  1.7691
  900MOL0     H21453   6.557   4.546   5.753  3.5055  0.8745  0.1564
  900MOL0     H21454   6.340   4.551   5.607 -0.0558 -1.8894  0.2971
  900MOL0     H21455   6.457   4.419   5.556  1.3258  0.3345  2.1592
  900MOL0     H21456   6.532   4.566   5.375 -0.4333 -3.2488  0.4085
  900MOL0     H21457   6.421   4.690   5.412  0.3967 -0.4311 -0.1933
  900MOL0     H21458   6.333   4.571   5.237  0.3190  0.4751  0.5062
  900MOL0     H21459   6.240   4.496   5.371 -1.8837  0.9062 -1.9668
  900MOL0     H21460   6.406   4.154   5.168 -3.3116 -0.4045 -2.2525
  900MOL0     H21461   6.625   4.039   4.883  1.0600  3.0288 -0.2499
  900MOL0     H21462   6.588   3.976   5.041  2.3876  0.5497 -0.6826
  900MOL0     H21463   6.455   4.025   4.923  0.9060  0.6645 -3.1091
  900MOL0     H21464   6.781   4.078   4.616  0.8011  0.1309 -1.8320
  900MOL0     H21465   6.942   4.023   4.431  2.0272  1.3524 -2.5586
  900MOL0     H21466   7.255   3.983   4.549 -0.8735  1.6181 -0.6253
  900MOL0     H21467   7.171   3.897   4.427 -0.2366 -0.4703  0.8515
  900MOL0     H21468   7.419   3.852   4.395 -2.9576 -2.7087 -3.3757
  900MOL0     H21469   7.365   3.940   4.268  1.3921 -0.2353  0.5392
  900MOL0     H21470   7.521   4.070   4.499  2.5007  1.3942 -0.5676
  900MOL0     H21471   7.458   4.159   4.350 -2.5181 -0.6460 -2.4185
  900MOL0     H21472   7.661   3.933   4.365 -0.2309 -1.2926 -1.5649
  900MOL0     H21473   7.585   3.976   4.214  3.2814 -2.7068  0.1283
  900MOL0     H21474   7.686   4.214   4.344 -0.1552  0.8787 -2.4383
  900MOL0     H21475   7.736   4.175   4.201  0.9595  2.1617  2.4551
  900MOL0     H21476   7.864   4.025   4.428 -1.2711 -1.0882 -1.3720
  900MOL0     H21477   7.902   4.014   4.255  1.4519 -0.7688  1.1837
  900MOL0     H21478   7.906   4.265   4.409  2.3926 -0.7929  1.9165
  900MOL0     H21479   7.945   4.237   4.230 -3.9437 -3.7424 -0.7748
  900MOL0     H21480   8.129   4.097   4.295 -1.9863 -0.3306 -0.2900
  900MOL0     H21481   8.107   4.111   4.465  0.6848 -2.4162 -1.9571
  900MOL0     H21482   7.230   4.301   4.570  1.2229 -1.2800  3.0057
  900MOL0     H21483   7.080   4.369   4.758 -0.0425 -0.2472  0.1268
  900MOL0     H21484   6.708   4.509   4.981  0.0242  2.2563  3.7694
  900MOL0     H21485   6.562   4.561   5.154 -4.6624  0.8349 -1.9714
  900MOL0     H21486   5.930   4.668   6.245 -0.3525 -1.1359  0.8689
  900MOL0     H21487   5.674   4.596   6.267 -1.2220  0.6852  1.8675
  900MOL0     H21488   5.251   4.805   6.057  0.6084 -1.3786 -0.3627
  900MOL0     H21489   5.002   4.855   6.093 -1.5186  0.0006  0.9701
  900MOL0     H21490   4.812   4.567   6.389  1.3239 -1.9311 -0.8371
  900MOL0     H21491   4.684   4.675   6.361 -2.2079  0.9778 -2.2116
  900MOL0     H21492   4.677   4.486   6.206  2.5959 -1.6147  3.1759
  900MOL0     H21493   4.838   4.499   6.157  0.2182 -0.4219  1.3080
  900MOL0     H21494   4.763   4.725   6.029  0.1230  1.4286  1.7333
  900MOL0     H21495   4.606   4.692   6.094 -0.5795 -1.6159  2.2396
  900MOL0     H21496   4.781   4.514   5.900 -0.4145 -1.4102  0.2385
  900MOL0     H21497   4.660   4.634   5.854  0.8983 -0.7339 -1.1179
  900MOL0     H21498   4.434   4.283   5.911 -0.1348  0.3668 -1.2559
  900MOL0     H21499   5.031   4.602   6.445 -1.6927 -1.0443 -2.4390
  900MOL0     H21500   5.287   4.615   6.435  3.0960  1.5919 -2.4111
  901MOL0     O21501   1.654   6.179   7.256 -0.7046 -1.0764  0.1135
  901MOL0     C21502   1.542   6.140   7.214 -0.0044 -0.2267 -0.6966
  901MOL0     O21503   1.430   6.137   7.290 -0.0487  0.3591 -0.6621
  901MOL0     C21504   1.448   6.163   7.420  0.2104  0.0344 -0.4540
  901MOL0     C21505   1.360   6.255   7.471  0.1024  0.1412 -0.2919
  901MOL0     C21506   1.329   6.260   7.606 -0.9925 -0.3024  0.5935
  901MOL0     C21507   1.406   6.192   7.695 -1.0589 -0.0623  0.6083
  901MOL0     O21508   1.391   6.215   7.825  0.6676  0.3638 -0.0075
  901MOL0     C21509   1.494   6.194   7.923  0.5816 -0.0229  0.1739
  901MOL0     C21510   1.487   6.307   8.026  0.4959  0.1203 -0.3170
  901MOL0     C21511   1.595   6.292   8.132  0.8509  1.8036  0.4684
  901MOL0     C21512   1.639   6.434   8.176 -0.2731  0.1292 -0.9561
  901MOL0     C21513   1.732   6.496   8.064 -0.1878 -0.6548  0.0567
  901MOL0     C21514   1.889   6.520   8.106  0.1020  0.0492  0.8898
  901MOL0     C21515   1.883   6.641   8.200 -0.4020  0.1301  0.1203
  901MOL0     C21516   2.016   6.677   8.260 -0.0765 -0.6717  0.4616
  901MOL0     N21517   2.043   6.590   8.376  0.2943  0.1287  0.0688
  901MOL0     C21518   2.130   6.487   8.372  0.3974  0.2871  0.1680
  901MOL0     C21519   2.167   6.454   8.496 -0.7991 -0.3836  0.1294
  901MOL0     C21520   2.259   6.334   8.532  0.8549 -1.1712 -0.8954
  901MOL0     C21521   2.246   6.284   8.668 -1.1596  0.3030 -0.0682
  901MOL0     C21522   2.304   6.144   8.699  0.3791  1.4230  0.2168
  901MOL0     C21523   2.202   6.038   8.688  0.0049 -0.2260  0.2781
  901MOL0     O21524   2.264   5.917   8.710  0.1725  0.8450  0.1294
  901MOL0     C21525   2.293   5.871   8.843  0.2859  0.5985 -0.2647
  901MOL0     C21526   2.267   5.931   8.962  0.0420  1.1220  0.0280
  901MOL0     C21527   2.312   5.896   9.088 -0.8506  0.3073 -0.0916
  901MOL0     C21528   2.242   5.963   9.203  1.1161 -0.3385 -0.5753
  901MOL0     C21529   2.416   5.790   9.095  0.5189 -0.6109  0.3959
  901MOL0     C21530   2.488   5.740   9.227 -0.3832  0.3592  0.3392
  901MOL0     O21531   2.588   5.661   9.210  0.2052 -0.0484  0.3950
  901MOL0     C21532   2.678   5.613   9.304  0.0350 -0.0869  0.5035
  901MOL0     C21533   2.700   5.659   9.435  0.3067  0.7843  0.0132
  901MOL0     C21534   2.793   5.595   9.514  0.2871  0.5661  0.2084
  901MOL0     C21535   2.869   5.475   9.470 -0.0265 -0.1178  0.9734
  901MOL0     O21536   2.969   5.415   9.538 -0.2701 -0.3775  0.0962
  901MOL0     C21537   2.991   5.452   9.681  0.3322  0.7392  0.3031
  901MOL0     C21538   3.073   5.577   9.715  0.1883  0.7207  0.0181
  901MOL0     C21539   3.208   5.576   9.660 -0.0535  0.3485 -0.2902
  901MOL0     C21540   3.268   5.712   9.701  0.1493 -0.1389  0.1571
  901MOL0     C21541   3.408   5.707   9.731 -1.1916  0.2741  0.6597
  901MOL0     C21542   3.463   5.847   9.757  0.4254 -0.2138 -0.4131
  901MOL0     C21543   3.527   5.901   9.622  0.3531  0.9109 -0.6684
  901MOL0     C21544   3.660   5.960   9.657  1.6062 -0.0601 -0.0699
  901MOL0    Cl21545   3.640   6.094   9.788  0.2064  0.0739  0.1951
  901MOL0     C21546   2.843   5.436   9.338 -0.5224  0.0985 -1.0529
  901MOL0     C21547   2.758   5.501   9.256 -0.5066  0.5174 -0.3240
  901MOL0     O21548   2.442   5.776   9.331 -0.7096 -0.3834  0.1117
  901MOL0     C21549   2.443   5.724   8.973 -0.1748 -0.3908  0.4536
  901MOL0     C21550   2.374   5.758   8.852 -0.2740  0.9551  0.5459
  901MOL0     N21551   2.086   6.529   8.578 -0.4748  0.0078 -0.0197
  901MOL0     N21552   2.016   6.622   8.513 -0.2671  0.4750  0.1897
  901MOL0     C21553   1.499   6.097   7.648  0.4496 -0.1139 -0.3876
  901MOL0     C21554   1.508   6.073   7.511 -0.1833 -0.1555  0.1819
  901MOL0     C21555   1.536   6.069   7.089  1.3546  0.2200 -1.3056
  901MOL0     C21556   1.653   6.019   7.029  0.4603 -1.4812  0.1716
  901MOL0     C21557   1.654   5.947   6.910 -0.3401  0.5878  0.4330
  901MOL0     C21558   1.532   5.922   6.846 -0.4481  0.5593  0.5398
  901MOL0     O21559   1.515   5.854   6.732  0.4978  0.2482 -0.2825
  901MOL0     C21560   1.599   5.746   6.701  0.3402  0.7060  0.6974
  901MOL0     C21561   1.666   5.754   6.564 -0.2519  0.2905  0.4010
  901MOL0     C21562   1.710   5.907   6.529 -0.1191  0.6841 -0.5062
  901MOL0     C21563   1.816   5.908   6.429 -0.1032 -0.8354  0.5749
  901MOL0     C21564   1.798   5.830   6.301 -0.0681 -0.1688 -0.4536
  901MOL0     C21565   1.809   5.759   6.199  0.1314 -0.7411 -0.3578
  901MOL0     C21566   1.414   5.968   6.909  1.0717 -0.1673  0.0076
  901MOL0     C21567   1.413   6.039   7.031  0.3929  0.9338  0.2830
  901MOL0     H21568   1.313   6.312   7.392 -2.0163 -3.4433 -1.9030
  901MOL0     H21569   1.251   6.326   7.644  2.2576  4.4398 -0.0511
  901MOL0     H21570   1.468   6.101   7.974  1.0393  0.7540  1.8728
  901MOL0     H21571   1.595   6.185   7.882  1.7795 -3.4291  3.3792
  901MOL0     H21572   1.498   6.400   7.968  0.9345  0.0865 -0.2909
  901MOL0     H21573   1.388   6.316   8.072 -0.0080  2.5370 -1.6465
  901MOL0     H21574   1.561   6.225   8.211 -0.6323 -1.4634 -2.6614
  901MOL0     H21575   1.682   6.241   8.091  0.6043  0.8957  1.0400
  901MOL0     H21576   1.556   6.501   8.198 -1.6914 -1.2956 -1.7939
  901MOL0     H21577   1.697   6.432   8.269 -0.9232  0.6705 -0.5315
  901MOL0     H21578   1.735   6.440   7.970  2.7198  0.6078 -0.7056
  901MOL0     H21579   1.689   6.593   8.036  1.7957  0.4060  0.5309
  901MOL0     H21580   1.933   6.433   8.156 -1.2756 -2.2089 -1.5895
  901MOL0     H21581   1.950   6.529   8.016 -2.3038  0.1046 -0.8246
  901MOL0     H21582   1.860   6.734   8.148  2.5700  1.2594  0.6253
  901MOL0     H21583   1.814   6.616   8.281  0.3990 -0.6771  0.5759
  901MOL0     H21584   2.027   6.783   8.287  1.1287 -1.0074  1.3710
  901MOL0     H21585   2.099   6.669   8.189 -0.7091 -0.2781 -0.3460
  901MOL0     H21586   2.172   6.436   8.286  1.8680 -1.1440  1.6614
  901MOL0     H21587   2.221   6.250   8.472  0.1245 -1.4548 -0.0632
  901MOL0     H21588   2.362   6.364   8.512  0.1929  1.1989 -1.0711
  901MOL0     H21589   2.140   6.274   8.695 -1.0534 -0.9699 -0.0635
  901MOL0     H21590   2.290   6.353   8.741 -0.8474 -0.2688  0.2965
  901MOL0     H21591   2.346   6.140   8.800  0.8615  1.1062  0.0023
  901MOL0     H21592   2.385   6.121   8.629 -0.3295 -3.2336  0.6008
  901MOL0     H21593   2.152   6.034   8.591 -1.7081 -0.2675  1.1241
  901MOL0     H21594   2.115   6.057   8.752  0.5358  1.0725  0.6637
  901MOL0     H21595   2.205   6.020   8.963 -3.2970 -0.9277  3.9029
  901MOL0     H21596   2.301   6.033   9.263  0.0660  0.1262 -0.0459
  901MOL0     H21597   2.152   6.017   9.172  0.9024 -1.0432 -1.2214
  901MOL0     H21598   2.192   5.893   9.270  0.0299  1.0155  0.0967
  901MOL0     H21599   2.651   5.746   9.478 -0.7243  0.2664 -0.0869
  901MOL0     H21600   2.807   5.632   9.615  1.6439 -2.1915  1.1244
  901MOL0     H21601   2.897   5.479   9.731  1.1071 -2.0224  3.6598
  901MOL0     H21602   3.035   5.360   9.719 -2.9060 -0.0578  2.6201
  901MOL0     H21603   3.016   5.667   9.691  1.6267  1.1528 -2.0401
  901MOL0     H21604   3.084   5.581   9.824  2.6181 -0.0955 -0.1429
  901MOL0     H21605   3.223   5.557   9.553  0.6949 -0.7958 -0.0090
  901MOL0     H21606   3.276   5.500   9.701  2.8680  3.4969  1.1711
  901MOL0     H21607   3.247   5.781   9.619  1.4127 -0.9724 -0.8963
  901MOL0     H21608   3.233   5.762   9.793 -2.6945  1.1536 -1.4856
  901MOL0     H21609   3.463   5.656   9.651  0.5264  1.7098  0.8764
  901MOL0     H21610   3.425   5.649   9.822 -1.8720 -0.3953  0.3739
  901MOL0     H21611   3.392   5.918   9.801 -1.6550 -0.3945 -3.1697
  901MOL0     H21612   3.533   5.839   9.840 -2.2503  0.6481  2.1392
  901MOL0     H21613   3.445   5.966   9.590 -1.6810 -2.1654 -2.2263
  901MOL0     H21614   3.551   5.824   9.548 -0.7762 -0.4062  0.2840
  901MOL0     H21615   3.692   6.016   9.569  0.1001  0.3722 -0.3700
  901MOL0     H21616   3.734   5.881   9.670 -0.9440 -2.1031  3.6958
  901MOL0     H21617   2.911   5.362   9.297  2.9729  1.3179  2.0149
  901MOL0     H21618   2.737   5.467   9.154 -2.9397 -0.9762  0.5881
  901MOL0     H21619   2.515   5.642   8.973 -0.5128 -0.7512 -2.0496
  901MOL0     H21620   2.397   5.698   8.765  0.2827  2.6652 -0.5502
  901MOL0     H21621   1.543   6.040   7.729 -0.3406 -0.5461 -0.2546
  901MOL0     H21622   1.566   5.986   7.480  2.1801  1.9638 -1.7963
  901MOL0     H21623   1.747   6.058   7.066  0.9913 -2.5384 -0.0354
  901MOL0     H21624   1.748   5.903   6.878 -0.9819 -2.0349  1.8660
  901MOL0     H21625   1.675   5.725   6.777  1.4017 -4.2178 -1.3367
  901MOL0     H21626   1.542   5.658   6.674  1.4563  0.8999 -2.6783
  901MOL0     H21627   1.603   5.710   6.486  1.9439  0.2173 -1.4449
  901MOL0     H21628   1.765   5.707   6.561  0.3165  1.4398 -2.4715
  901MOL0     H21629   1.738   5.951   6.626 -2.7304  0.1352  0.5851
  901MOL0     H21630   1.623   5.964   6.495  0.6428  2.1768 -0.0505
  901MOL0     H21631   1.909   5.883   6.481 -0.3054 -2.3023  0.2590
  901MOL0     H21632   1.836   6.012   6.400 -0.2814 -0.7164  0.8756
  901MOL0     H21633   1.802   5.702   6.108  1.3081  1.1128 -1.6873
  901MOL0     H21634   1.318   5.951   6.861  0.3614 -2.9763  2.1696
  901MOL0     H21635   1.318   6.072   7.071  1.6501  2.5978  2.0829
  902MOL0     O21636   0.288   7.251   1.572 -0.1633 -0.7596  0.0611
  902MOL0     C21637   0.324   7.240   1.451  0.0868  1.2784 -0.9080
  902MOL0     O21638   0.242   7.257   1.344  0.0552 -1.0439  0.4338
  902MOL0     C21639   0.117   7.305   1.365  0.0667  0.0035 -1.1519
  902MOL0     C21640   0.036   7.294   1.483  0.4332 -0.6240  0.1341
  902MOL0     C21641  -0.086   7.363   1.472  0.1829 -0.1016 -0.1577
  902MOL0     C21642  -0.129   7.433   1.361  1.2482  0.0078  1.0703
  902MOL0     O21643  -0.260   7.461   1.343 -0.1118  1.2774  0.6902
  902MOL0     C21644  -0.309   7.481   1.210  0.2683  0.7303 -0.3770
  902MOL0     C21645  -0.459   7.513   1.210  0.8947  0.0035  1.1544
  902MOL0     C21646  -0.560   7.393   1.234 -0.5064  0.7090 -0.1505
  902MOL0     C21647  -0.692   7.456   1.239  1.1079  0.1380  0.9886
  902MOL0     C21648  -0.748   7.486   1.096  0.7097  0.7203  0.0890
  902MOL0     C21649  -0.783   7.357   1.026  0.2852  0.2976  0.0886
  902MOL0     C21650  -0.888   7.387   0.907  0.0639 -0.4980 -0.7593
  902MOL0     C21651  -0.935   7.257   0.830 -0.1130 -0.2721 -0.6721
  902MOL0     N21652  -0.814   7.210   0.763  0.2552  0.2283 -0.4410
  902MOL0     C21653  -0.760   7.293   0.666  0.2710  0.2169 -0.6422
  902MOL0     C21654  -0.663   7.219   0.606 -0.0630 -0.1184  0.1148
  902MOL0     C21655  -0.578   7.264   0.490  0.4567  0.2032  0.1510
  902MOL0     C21656  -0.545   7.414   0.490  0.4537 -0.1223 -1.0098
  902MOL0     C21657  -0.491   7.478   0.360 -0.1464  0.8475 -0.7064
  902MOL0     C21658  -0.418   7.624   0.379 -0.3789  0.9760  0.2196
  902MOL0     O21659  -0.295   7.620   0.445  0.5858 -0.0353  0.4394
  902MOL0     C21660  -0.198   7.543   0.388  0.8726 -0.1679  0.2635
  902MOL0     C21661  -0.130   7.583   0.275 -1.4130 -0.4458 -0.2733
  902MOL0     C21662  -0.024   7.506   0.219  1.7460 -0.5198 -0.8378
  902MOL0     C21663   0.052   7.567   0.110 -0.2880  0.1382 -0.2684
  902MOL0     C21664   0.018   7.393   0.296 -0.2021  0.5879 -0.2476
  902MOL0     C21665   0.111   7.287   0.246 -0.5286 -0.1002 -1.3815
  902MOL0     O21666   0.180   7.222   0.334 -0.1686  0.4081 -0.0616
  902MOL0     C21667   0.261   7.113   0.286  0.6684  0.3143 -0.1793
  902MOL0     C21668   0.393   7.127   0.252 -0.2174 -0.0051  0.5950
  902MOL0     C21669   0.467   7.014   0.230 -0.4865  0.3022 -0.0259
  902MOL0     C21670   0.410   6.890   0.239  0.4100 -0.3896 -0.4919
  902MOL0     O21671   0.474   6.770   0.213  0.5313 -0.2114 -0.4407
  902MOL0     C21672   0.614   6.759   0.182 -0.4917  0.8856  0.5560
  902MOL0     C21673   0.640   6.729   0.032  0.9579  0.5561  0.0035
  902MOL0     C21674   0.782   6.679   0.002  1.2689 -0.1578 -0.3677
  902MOL0     C21675   0.881   6.793  -0.024  0.5617 -0.5911 -0.1619
  902MOL0     C21676   1.024   6.749  -0.078 -0.2077 -0.1823  0.4821
  902MOL0     C21677   1.111   6.690   0.035  0.5268  0.3855  0.0302
  902MOL0     C21678   1.247   6.664  -0.026 -0.4765  0.2920 -0.3447
  902MOL0     C21679   1.326   6.579   0.079  0.0055  0.3990 -0.0363
  902MOL0    Cl21680   1.361   6.688   0.212 -0.0349  0.2398  0.4128
  902MOL0     C21681   0.272   6.881   0.257 -0.3620  0.0959 -0.1587
  902MOL0     C21682   0.194   6.994   0.271  1.0776 -0.3774 -0.5217
  902MOL0     O21683   0.116   7.280   0.123 -0.4683 -0.9109  0.1672
  902MOL0     C21684  -0.050   7.350   0.407 -0.0454  0.0986 -0.4659
  902MOL0     C21685  -0.164   7.419   0.447 -0.9612  1.0031  0.2612
  902MOL0     N21686  -0.658   7.100   0.668  0.3140  0.3348  0.1969
  902MOL0     N21687  -0.740   7.094   0.767  0.3283 -0.6971 -0.6027
  902MOL0     C21688  -0.042   7.443   1.253 -0.6444 -0.4115 -0.0236
  902MOL0     C21689   0.078   7.382   1.254  0.6034  0.5298 -0.0324
  902MOL0     C21690   0.462   7.202   1.424  0.2927  0.1266  1.1995
  902MOL0     C21691   0.554   7.198   1.522  0.0627 -0.8602  0.2273
  902MOL0     C21692   0.679   7.143   1.498 -0.6208 -0.2652 -0.1442
  902MOL0     C21693   0.712   7.085   1.377 -0.5096 -0.4967  0.0496
  902MOL0     O21694   0.849   7.054   1.362 -0.0996 -0.5600  0.4024
  902MOL0     C21695   0.891   7.013   1.232 -0.0202  0.7950 -0.1227
  902MOL0     C21696   1.046   7.008   1.226 -0.7421 -0.1743 -0.0625
  902MOL0     C21697   1.097   7.147   1.209 -0.1138 -0.0883  0.7134
  902MOL0     C21698   1.244   7.150   1.202  0.6190  1.2564 -0.3120
  902MOL0     C21699   1.302   7.198   1.329  0.5088 -0.0024 -0.7017
  902MOL0     C21700   1.357   7.231   1.427  0.6192 -0.4913 -0.3263
  902MOL0     C21701   0.619   7.089   1.278 -0.4474 -0.9387  0.4752
  902MOL0     C21702   0.487   7.149   1.296  0.3110  0.3875 -0.5775
  902MOL0     H21703   0.062   7.239   1.573  2.2780 -2.0006 -1.1292
  902MOL0     H21704  -0.162   7.329   1.542  0.3519 -0.6356 -0.2302
  902MOL0     H21705  -0.247   7.563   1.173  3.3173 -0.5083  1.6465
  902MOL0     H21706  -0.292   7.399   1.141  2.5280  0.5035  0.3827
  902MOL0     H21707  -0.480   7.600   1.274 -0.5124 -0.3332  1.1935
  902MOL0     H21708  -0.468   7.545   1.105 -0.1706 -0.8669  0.9664
  902MOL0     H21709  -0.543   7.309   1.165  3.6722 -0.4269  1.9146
  902MOL0     H21710  -0.549   7.358   1.337 -0.2156 -0.4214 -0.5442
  902MOL0     H21711  -0.755   7.378   1.282  0.8847  0.2646  0.8889
  902MOL0     H21712  -0.684   7.541   1.308  2.4599 -2.0816  3.7804
  902MOL0     H21713  -0.831   7.554   1.115  0.7047  0.9992 -0.8859
  902MOL0     H21714  -0.676   7.528   1.024  1.7183 -1.0703 -0.0229
  902MOL0     H21715  -0.699   7.300   0.986 -1.0478 -1.7591  0.0437
  902MOL0     H21716  -0.826   7.283   1.095  0.9348 -1.8720 -1.6832
  902MOL0     H21717  -0.975   7.434   0.954 -1.2730 -2.2817 -1.3552
  902MOL0     H21718  -0.849   7.467   0.843 -0.8647  2.5459  2.1973
  902MOL0     H21719  -1.026   7.275   0.772  0.0635  2.7984 -0.1827
  902MOL0     H21720  -0.951   7.169   0.893 -0.1222 -1.7908 -2.7076
  902MOL0     H21721  -0.798   7.390   0.635  0.6086  1.5598  2.6589
  902MOL0     H21722  -0.487   7.204   0.499  0.5397  0.4972  1.3873
  902MOL0     H21723  -0.628   7.223   0.401 -2.9606 -1.1420  2.4609
  902MOL0     H21724  -0.476   7.437   0.571 -2.1934  2.7525  0.6786
  902MOL0     H21725  -0.637   7.465   0.520  1.4636  0.9470  0.3649
  902MOL0     H21726  -0.570   7.494   0.287  0.3352 -0.5404 -1.5532
  902MOL0     H21727  -0.413   7.413   0.319  1.8766  0.4863  3.2125
  902MOL0     H21728  -0.484   7.677   0.449 -1.5423  1.1370 -0.9570
  902MOL0     H21729  -0.406   7.670   0.281  1.5823 -4.9850 -2.8066
  902MOL0     H21730  -0.139   7.684   0.235  4.2967  0.8024  0.7370
  902MOL0     H21731   0.157   7.550   0.135 -1.1245 -1.3176  2.8372
  902MOL0     H21732   0.017   7.525   0.015  0.0481 -0.3760 -0.1680
  902MOL0     H21733   0.034   7.674   0.096  0.9322  0.1622 -1.8944
  902MOL0     H21734   0.433   7.228   0.254 -2.5753  0.9887  0.6958
  902MOL0     H21735   0.569   7.030   0.197 -1.1079  0.4609 -1.9804
  902MOL0     H21736   0.683   6.843   0.197  1.1119  0.1882 -2.2609
  902MOL0     H21737   0.659   6.675   0.236 -0.1933 -1.8568 -3.5023
  902MOL0     H21738   0.574   6.644   0.011 -1.3297  2.3333 -0.3354
  902MOL0     H21739   0.612   6.817  -0.027 -0.5242  0.3808  0.4162
  902MOL0     H21740   0.756   6.624  -0.088  0.8916 -0.9613  0.2281
  902MOL0     H21741   0.819   6.623   0.088  2.2353  0.1367 -0.5729
  902MOL0     H21742   0.838   6.858  -0.101 -0.5201  0.0435  0.9527
  902MOL0     H21743   0.889   6.864   0.058 -4.7684  1.4216 -0.9770
  902MOL0     H21744   1.070   6.840  -0.117  0.8858  0.0458  2.1683
  902MOL0     H21745   1.016   6.691  -0.170  1.1160  1.7001 -0.9182
  902MOL0     H21746   1.117   6.761   0.118 -0.5119 -1.4337  1.7372
  902MOL0     H21747   1.069   6.599   0.079 -1.1578  1.0544 -0.1293
  902MOL0     H21748   1.284   6.766  -0.043 -0.5982  0.3176 -0.4533
  902MOL0     H21749   1.254   6.615  -0.123  1.1141 -2.0009  0.8313
  902MOL0     H21750   1.420   6.538   0.040  0.0815 -1.3310  1.8325
  902MOL0     H21751   1.271   6.489   0.104 -1.8642  1.5583  0.2067
  902MOL0     H21752   0.217   6.787   0.260  2.8244 -1.9420  2.5761
  902MOL0     H21753   0.087   6.977   0.277  1.0427  0.0949  0.4940
  902MOL0     H21754  -0.032   7.267   0.475 -2.9374  2.0591  3.0875
  902MOL0     H21755  -0.228   7.387   0.528  1.3699 -0.0881  1.7924
  902MOL0     H21756  -0.069   7.508   1.170  0.2021 -2.7319 -2.2357
  902MOL0     H21757   0.150   7.390   1.173 -1.8072 -0.0363 -2.3443
  902MOL0     H21758   0.542   7.248   1.618  0.5159 -0.6145  0.1610
  902MOL0     H21759   0.755   7.138   1.575 -2.1685  1.6786  1.6456
  902MOL0     H21760   0.852   6.914   1.204 -0.7778  1.6511 -2.2831
  902MOL0     H21761   0.859   7.088   1.159 -0.4368  2.3271  1.5658
  902MOL0     H21762   1.087   6.944   1.148 -1.9201  0.3398 -1.1495
  902MOL0     H21763   1.074   6.966   1.323  1.9875  3.4531  0.9546
  902MOL0     H21764   1.056   7.213   1.287 -1.8646 -1.8366  1.3597
  902MOL0     H21765   1.057   7.179   1.112  2.7261 -1.2581 -0.9393
  902MOL0     H21766   1.261   7.213   1.114 -2.9122 -1.3189 -3.1940
  902MOL0     H21767   1.289   7.054   1.173  0.8378  0.5147  2.2291
  902MOL0     H21768   1.417   7.243   1.515  1.9740 -1.8101 -1.0228
  902MOL0     H21769   0.628   7.050   1.177  0.8460  4.7556 -2.0560
  902MOL0     H21770   0.412   7.131   1.220  1.3019 -1.4224 -1.1896
  903MOL0     O21771   9.688   5.521   4.303  0.3065 -0.1864  1.3120
  903MOL0     C21772   9.674   5.403   4.303 -1.0104 -0.4393 -0.5019
  903MOL0     O21773   9.626   5.320   4.210  0.1694  0.6092 -0.3961
  903MOL0     C21774   9.568   5.363   4.091  0.5438  0.9414 -0.9134
  903MOL0     C21775   9.493   5.481   4.059 -0.0828  0.8787  0.3880
  903MOL0     C21776   9.453   5.508   3.928 -0.3021  0.1636 -0.0411
  903MOL0     C21777   9.467   5.420   3.825 -0.3306  0.3801  0.1446
  903MOL0     O21778   9.413   5.457   3.705 -0.1185 -0.8715 -0.4338
  903MOL0     C21779   9.401   5.349   3.607  0.4395 -0.7365 -0.2977
  903MOL0     C21780   9.307   5.408   3.512  0.9066 -0.1721  0.2170
  903MOL0     C21781   9.281   5.308   3.409  0.3065  0.2737 -0.0001
  903MOL0     C21782   9.198   5.365   3.300  0.3132 -0.2871  0.2502
  903MOL0     C21783   9.104   5.268   3.229 -0.0174 -0.3932  0.0386
  903MOL0     C21784   9.081   5.293   3.075 -0.4881 -0.1820  0.4601
  903MOL0     C21785   8.984   5.193   3.019  0.5586 -0.7974 -0.7856
  903MOL0     C21786   8.837   5.209   3.077 -0.6400 -0.3990 -0.3962
  903MOL0     N21787   8.754   5.105   3.004 -0.4055 -0.2221 -0.2348
  903MOL0     C21788   8.701   5.125   2.878 -0.1974 -0.0143  0.5400
  903MOL0     C21789   8.667   5.001   2.861 -0.5852  0.0467  0.0832
  903MOL0     C21790   8.605   4.956   2.726 -0.1130 -0.0642 -0.2390
  903MOL0     C21791   8.714   4.902   2.623  0.4463 -0.3561 -0.2002
  903MOL0     C21792   8.845   4.988   2.624 -0.2281  0.5883 -0.2086
  903MOL0     C21793   8.930   4.951   2.499  1.1300 -0.0693  0.6267
  903MOL0     O21794   8.976   4.816   2.528  0.2013 -0.0048 -0.1300
  903MOL0     C21795   9.062   4.756   2.439 -0.6633  0.4537 -0.0442
  903MOL0     C21796   9.136   4.644   2.479 -0.4291  0.7080  0.4192
  903MOL0     C21797   9.219   4.564   2.380  0.4129  0.3550 -0.5593
  903MOL0     C21798   9.323   4.455   2.433  0.3149  0.6138  0.2407
  903MOL0     C21799   9.204   4.583   2.240 -0.1620 -0.1054 -0.2472
  903MOL0     C21800   9.288   4.521   2.133  0.6594  1.0868  0.9363
  903MOL0     O21801   9.325   4.606   2.034 -0.3082  0.4868  0.0905
  903MOL0     C21802   9.414   4.548   1.933 -0.4410  0.4588 -0.2601
  903MOL0     C21803   9.547   4.563   1.942 -0.3464 -0.6659 -0.6641
  903MOL0     C21804   9.635   4.517   1.848  0.1395 -0.8936  0.4263
  903MOL0     C21805   9.594   4.438   1.746  0.4910  0.9709  0.2738
  903MOL0     O21806   9.687   4.385   1.655 -0.1352 -0.6955 -0.3138
  903MOL0     C21807   9.647   4.335   1.535  0.7823  0.1507  0.1204
  903MOL0     C21808   9.773   4.277   1.463 -0.0796  0.2211  0.5811
  903MOL0     C21809   9.877   4.389   1.413 -0.6921 -0.5273 -0.1661
  903MOL0     C21810   9.980   4.332   1.313 -0.3587 -0.4375  0.0666
  903MOL0     C21811  10.076   4.439   1.264 -0.5453 -0.5073  0.6067
  903MOL0     C21812  10.145   4.423   1.132 -0.5879  0.0241  0.0386
  903MOL0     C21813  10.200   4.568   1.100  0.1914  0.2935  0.5288
  903MOL0     C21814  10.299   4.552   0.999  0.6456  0.0935  0.3263
  903MOL0    Cl21815  10.254   4.455   0.867  0.5909  0.4616 -0.0356
  903MOL0     C21816   9.454   4.413   1.733 -0.5928  1.3396 -0.2014
  903MOL0     C21817   9.370   4.472   1.823  0.2561  1.5565 -0.5767
  903MOL0     O21818   9.326   4.402   2.151 -0.0790  0.2170 -0.1769
  903MOL0     C21819   9.123   4.697   2.211  1.0882 -0.3398  0.4590
  903MOL0     C21820   9.061   4.776   2.307  0.0105  0.0590 -0.1562
  903MOL0     N21821   8.674   4.917   2.970  0.2205  0.2611 -0.2323
  903MOL0     N21822   8.740   4.981   3.056  0.4834  0.6480 -0.5410
  903MOL0     C21823   9.527   5.296   3.854  0.1890 -0.0209  0.3158
  903MOL0     C21824   9.587   5.272   3.978 -0.4011 -0.4659  0.3454
  903MOL0     C21825   9.738   5.328   4.411 -0.7845 -0.6912  0.4049
  903MOL0     C21826   9.771   5.192   4.396 -0.0412  0.4293 -0.1069
  903MOL0     C21827   9.851   5.133   4.502  0.0366  0.0042 -0.3899
  903MOL0     C21828   9.872   5.203   4.619  0.1083  0.5854  0.2201
  903MOL0     O21829   9.937   5.147   4.724  0.4357 -0.4150 -0.0832
  903MOL0     C21830   9.896   5.021   4.782 -0.3010  1.2831 -0.4052
  903MOL0     C21831   9.942   5.004   4.939  0.1098 -0.4764  1.3098
  903MOL0     C21832   9.876   5.114   5.018  0.2314  0.4388 -0.8068
  903MOL0     C21833   9.886   5.091   5.174 -0.0634  0.0306 -0.6464
  903MOL0     C21834  10.027   5.077   5.209 -1.2453  0.8414  0.1267
  903MOL0     C21835  10.151   5.094   5.233  0.1088 -0.4195 -0.3675
  903MOL0     C21836   9.836   5.329   4.641  0.4242 -0.1557  0.1091
  903MOL0     C21837   9.775   5.397   4.531 -0.3675  0.0900 -0.2890
  903MOL0     H21838   9.460   5.553   4.133 -0.6762  1.4094 -0.3771
  903MOL0     H21839   9.387   5.590   3.903 -0.8908 -0.3918 -0.3385
  903MOL0     H21840   9.502   5.330   3.570  1.7208 -2.7525  3.5754
  903MOL0     H21841   9.365   5.257   3.654  1.6519 -0.8719  0.4076
  903MOL0     H21842   9.214   5.444   3.558  0.3593  1.5444 -2.0638
  903MOL0     H21843   9.357   5.497   3.472  0.1164  1.7100  3.1238
  903MOL0     H21844   9.375   5.268   3.370  0.4438 -1.8448  2.2352
  903MOL0     H21845   9.217   5.238   3.465  1.4932 -0.5527  0.3521
  903MOL0     H21846   9.133   5.443   3.341  1.6106  0.5721  0.7430
  903MOL0     H21847   9.252   5.418   3.221 -1.6087  1.6441  0.1355
  903MOL0     H21848   9.154   5.171   3.232  2.5556  0.8460 -0.4477
  903MOL0     H21849   9.013   5.263   3.290  0.6600  3.2072  1.6448
  903MOL0     H21850   9.048   5.395   3.053 -1.7643 -0.9035 -1.1927
  903MOL0     H21851   9.176   5.282   3.022 -0.1839 -3.5038  1.4756
  903MOL0     H21852   8.973   5.195   2.910  0.8122 -2.2132 -0.8498
  903MOL0     H21853   9.028   5.095   3.039 -0.5048 -1.0060  0.7068
  903MOL0     H21854   8.799   5.310   3.056  0.7778  0.4290  0.8372
  903MOL0     H21855   8.829   5.192   3.185 -1.5447  0.2540 -0.3487
  903MOL0     H21856   8.705   5.214   2.817 -0.3653 -0.0127  0.5310
  903MOL0     H21857   8.519   4.895   2.755 -0.2468  1.0413  1.9028
  903MOL0     H21858   8.562   5.051   2.693  0.7750  1.3286  2.3633
  903MOL0     H21859   8.668   4.912   2.525 -0.1375  1.4437  0.2197
  903MOL0     H21860   8.753   4.812   2.672  3.9834  1.0061 -0.2227
  903MOL0     H21861   8.908   4.982   2.714  0.2736  2.4610 -0.3965
  903MOL0     H21862   8.823   5.094   2.612  1.7674  1.1098  0.3674
  903MOL0     H21863   9.019   5.014   2.491  0.7497  0.3008 -1.0528
  903MOL0     H21864   8.857   4.974   2.421 -1.0338  0.0185  2.5636
  903MOL0     H21865   9.140   4.611   2.582  2.4675  1.6455  0.7034
  903MOL0     H21866   9.336   4.474   2.539  2.1221 -2.2603  0.6662
  903MOL0     H21867   9.288   4.351   2.434  0.9080  0.4153  0.8278
  903MOL0     H21868   9.412   4.464   2.369  0.7134  0.7293  0.8074
  903MOL0     H21869   9.590   4.633   2.012 -1.2403  0.7048 -1.4294
  903MOL0     H21870   9.742   4.536   1.856 -0.1617  1.9901 -1.1063
  903MOL0     H21871   9.597   4.238   1.551  1.0220  0.2047  1.2267
  903MOL0     H21872   9.588   4.406   1.476 -4.1305 -2.8299  0.8426
  903MOL0     H21873   9.826   4.201   1.521  2.1948  1.5983  0.4171
  903MOL0     H21874   9.748   4.229   1.368  2.3084  0.0865 -0.0487
  903MOL0     H21875   9.942   4.429   1.491 -1.6702 -1.8856  1.4231
  903MOL0     H21876   9.822   4.472   1.368  2.0651  0.4053 -2.0933
  903MOL0     H21877  10.031   4.259   1.377 -0.9277 -0.5184  0.4395
  903MOL0     H21878   9.932   4.287   1.226 -0.3370  0.9563 -0.6936
  903MOL0     H21879  10.143   4.456   1.349 -2.6134 -3.6029  3.1355
  903MOL0     H21880  10.017   4.529   1.244 -0.0405 -0.3777 -0.3131
  903MOL0     H21881  10.226   4.349   1.131 -2.1645 -1.8119  0.5938
  903MOL0     H21882  10.064   4.375   1.077 -1.2315 -0.2244  1.1535
  903MOL0     H21883  10.231   4.613   1.195 -0.7957  1.1567  0.4498
  903MOL0     H21884  10.119   4.624   1.055  1.9899  2.3990 -0.2507
  903MOL0     H21885  10.394   4.511   1.034  0.4081 -0.2489  0.5820
  903MOL0     H21886  10.331   4.651   0.967  1.7968 -0.4668 -0.3106
  903MOL0     H21887   9.396   4.352   1.665  1.1044  1.1228 -1.5392
  903MOL0     H21888   9.262   4.467   1.816  0.3484 -0.9491 -0.9353
  903MOL0     H21889   9.101   4.730   2.110 -1.5286 -1.4109  0.5988
  903MOL0     H21890   9.012   4.867   2.274  0.3880  0.8340  1.3155
  903MOL0     H21891   9.542   5.214   3.785 -0.5776  0.1235 -0.0350
  903MOL0     H21892   9.654   5.188   3.994 -1.1404 -1.0769  0.2536
  903MOL0     H21893   9.749   5.133   4.308  1.0151 -3.9320  2.2141
  903MOL0     H21894   9.874   5.027   4.492 -0.1387 -0.2377  1.3672
  903MOL0     H21895   9.787   5.011   4.780 -0.1470 -1.1845  0.3153
  903MOL0     H21896   9.929   4.928   4.735 -1.1840  0.4838  0.5320
  903MOL0     H21897  10.050   5.011   4.956 -0.2439  3.6983  3.0289
  903MOL0     H21898   9.904   4.908   4.975 -0.5404 -0.4195  0.8043
  903MOL0     H21899   9.779   5.146   4.979  1.0909  4.1514 -0.3170
  903MOL0     H21900   9.932   5.207   5.003  1.2327  0.3797  1.9696
  903MOL0     H21901   9.837   4.996   5.198 -1.7264  1.0067 -0.0450
  903MOL0     H21902   9.842   5.165   5.241  1.2055 -0.1527  0.4282
  903MOL0     H21903  10.253   5.121   5.251 -0.3076  0.5438  0.6357
  903MOL0     H21904   9.865   5.369   4.738 -0.6548 -1.9216  1.2140
  903MOL0     H21905   9.753   5.500   4.557  1.0631  0.2334  0.4337
  904MOL0     O21906   9.071   2.624   7.727 -1.1097  0.0469 -0.3941
  904MOL0     C21907   8.968   2.663   7.718 -0.0668  0.5305 -0.1039
  904MOL0     O21908   8.931   2.727   7.603 -0.1131 -0.1072 -0.7361
  904MOL0     C21909   9.028   2.784   7.527  0.7023  1.0493 -0.5165
  904MOL0     C21910   9.090   2.909   7.574  0.9522  1.1912 -0.2502
  904MOL0     C21911   9.202   2.948   7.503  0.4227 -0.0108 -1.5613
  904MOL0     C21912   9.254   2.875   7.394  0.8208 -0.5706  0.0076
  904MOL0     O21913   9.365   2.924   7.333 -0.3548 -0.3610  0.2729
  904MOL0     C21914   9.407   3.059   7.339 -0.1961 -0.2962  0.2878
  904MOL0     C21915   9.514   3.064   7.235 -0.5183  0.5039 -0.5388
  904MOL0     C21916   9.564   3.209   7.221  0.2820  0.1126 -0.1938
  904MOL0     C21917   9.690   3.213   7.134  0.1558 -0.7926 -0.0802
  904MOL0     C21918   9.710   3.351   7.064 -0.0724  0.8653  1.6102
  904MOL0     C21919   9.814   3.327   6.949  0.2336 -0.1631 -0.2273
  904MOL0     C21920   9.953   3.280   6.981  0.1564  0.2596  0.1333
  904MOL0     C21921  10.039   3.389   7.040 -0.4283 -0.2200 -0.3677
  904MOL0     N21922  10.051   3.386   7.197  0.2991 -0.4283  0.9538
  904MOL0     C21923  10.029   3.293   7.285 -0.1021  0.0982  0.2834
  904MOL0     C21924  10.031   3.339   7.402 -0.2345  0.1436 -0.2324
  904MOL0     C21925  10.028   3.253   7.530  0.4747 -0.9482  0.3282
  904MOL0     C21926   9.889   3.197   7.569  0.2135  0.6918 -0.1487
  904MOL0     C21927   9.774   3.290   7.538 -0.4513  0.5787 -0.6885
  904MOL0     C21928   9.777   3.422   7.616 -0.6905  0.7169 -0.7070
  904MOL0     O21929   9.752   3.391   7.747  0.3952 -0.5279  0.8325
  904MOL0     C21930   9.804   3.453   7.854 -0.9319 -0.0668 -0.8419
  904MOL0     C21931   9.863   3.570   7.838  0.0801 -0.3564 -0.1465
  904MOL0     C21932   9.919   3.632   7.949 -0.0001  0.4829  0.8997
  904MOL0     C21933   9.982   3.766   7.939  0.4695 -0.1992  0.3406
  904MOL0     C21934   9.916   3.568   8.081 -0.2384  0.3534  0.0069
  904MOL0     C21935  10.000   3.597   8.190 -1.1820 -0.4231  0.2386
  904MOL0     O21936  10.125   3.656   8.173 -0.5519 -0.1640 -0.4277
  904MOL0     C21937  10.199   3.684   8.286  0.0500 -1.7730 -0.4120
  904MOL0     C21938  10.341   3.659   8.284 -0.0569  0.5142  0.5050
  904MOL0     C21939  10.422   3.703   8.396 -0.1891  0.0220  0.4164
  904MOL0     C21940  10.361   3.743   8.516 -0.0706 -0.7450  0.1537
  904MOL0     O21941  10.449   3.762   8.616  0.0536 -1.2738  0.4293
  904MOL0     C21942  10.420   3.843   8.722  0.7335  0.6488  0.3598
  904MOL0     C21943  10.484   3.819   8.857 -0.1893 -0.1563 -0.5266
  904MOL0     C21944  10.443   3.912   8.975 -0.4611 -0.7793 -0.0696
  904MOL0     C21945  10.405   3.833   9.106  0.6347 -0.0404 -0.1588
  904MOL0     C21946  10.392   3.944   9.210 -0.1829  0.6864 -0.3604
  904MOL0     C21947  10.300   3.899   9.327  0.3750  0.4829 -0.6752
  904MOL0     C21948  10.313   3.989   9.453 -0.8968  0.4683 -0.3854
  904MOL0     C21949  10.327   3.906   9.580  0.8220 -0.8125  0.9812
  904MOL0    Cl21950  10.490   3.862   9.631  0.3287 -0.3784  0.1583
  904MOL0     C21951  10.218   3.765   8.521 -0.4635 -0.0088  0.9222
  904MOL0     C21952  10.147   3.747   8.404  0.0796 -1.1318  0.3295
  904MOL0     O21953   9.956   3.560   8.295 -0.3588 -0.0160  0.1153
  904MOL0     C21954   9.848   3.447   8.085 -0.6597  0.6228  0.2773
  904MOL0     C21955   9.789   3.386   7.977 -0.2413 -0.0940  1.0792
  904MOL0     N21956  10.055   3.471   7.389  0.2263 -0.1807  0.2313
  904MOL0     N21957  10.070   3.499   7.261 -0.3091 -0.6116  0.2617
  904MOL0     C21958   9.197   2.750   7.357  0.3064 -0.1552  0.6248
  904MOL0     C21959   9.078   2.706   7.422  0.7366 -0.7447  0.6903
  904MOL0     C21960   8.880   2.622   7.829 -0.7538 -0.2485  0.4328
  904MOL0     C21961   8.743   2.614   7.819 -0.1095  1.3903  0.6708
  904MOL0     C21962   8.662   2.580   7.932 -0.3794 -1.0592 -0.4692
  904MOL0     C21963   8.726   2.560   8.055 -0.5745 -1.0968 -0.4148
  904MOL0     O21964   8.641   2.530   8.160 -0.3383 -0.0297  0.1066
  904MOL0     C21965   8.695   2.464   8.272 -1.0444  0.6575 -0.8002
  904MOL0     C21966   8.583   2.465   8.383 -0.3214  0.1558  1.1806
  904MOL0     C21967   8.649   2.429   8.504 -0.2207 -0.1662 -0.7349
  904MOL0     C21968   8.550   2.368   8.621 -0.3793 -1.1916 -0.9600
  904MOL0     C21969   8.469   2.271   8.557  0.1449 -0.6755  0.4865
  904MOL0     C21970   8.432   2.179   8.488 -0.2487  0.0075  0.7529
  904MOL0     C21971   8.864   2.575   8.065 -0.1348 -0.7563  0.2176
  904MOL0     C21972   8.947   2.604   7.953  0.1492  1.7041 -0.0576
  904MOL0     H21973   9.032   2.964   7.648  1.9334  1.0469  0.6437
  904MOL0     H21974   9.244   3.043   7.535  3.9727 -1.5936 -1.0343
  904MOL0     H21975   9.321   3.120   7.311  1.1215  1.1169 -0.9248
  904MOL0     H21976   9.443   3.086   7.439 -0.4003 -2.0946  0.8875
  904MOL0     H21977   9.596   2.994   7.255 -1.4141 -0.7316 -1.0338
  904MOL0     H21978   9.480   3.018   7.142  0.9968 -0.5765 -0.5834
  904MOL0     H21979   9.484   3.264   7.169 -1.5807 -2.4038 -0.1713
  904MOL0     H21980   9.579   3.255   7.319 -3.1717  1.3120 -0.0638
  904MOL0     H21981   9.767   3.187   7.207  0.7292  2.3305  0.5555
  904MOL0     H21982   9.680   3.130   7.064  3.8915 -2.0687  0.6819
  904MOL0     H21983   9.622   3.386   7.010  1.3532  2.8323  0.4174
  904MOL0     H21984   9.751   3.422   7.136  4.7978 -0.2277  0.3051
  904MOL0     H21985   9.769   3.246   6.891  1.9286 -1.3219 -0.0047
  904MOL0     H21986   9.807   3.410   6.879  0.6373  3.3048  3.4710
  904MOL0     H21987   9.952   3.196   7.052  1.3133  1.2724  1.3892
  904MOL0     H21988  10.004   3.239   6.893  0.1197  0.5442 -0.0221
  904MOL0     H21989  10.003   3.487   7.008  0.3227  0.8019  1.7593
  904MOL0     H21990  10.144   3.378   7.010 -0.3331 -0.3411  0.0070
  904MOL0     H21991  10.009   3.191   7.253  5.6671 -2.1555  2.5613
  904MOL0     H21992  10.089   3.165   7.506 -1.4065 -2.0159 -0.7824
  904MOL0     H21993  10.072   3.309   7.613 -0.4250  2.2927 -1.2560
  904MOL0     H21994   9.884   3.186   7.678  4.1402  1.9624  0.3158
  904MOL0     H21995   9.873   3.099   7.523  2.6235 -1.0872  2.4973
  904MOL0     H21996   9.679   3.235   7.541  1.6641 -3.4096  0.7340
  904MOL0     H21997   9.779   3.306   7.430 -1.4139  3.3064 -0.3935
  904MOL0     H21998   9.706   3.493   7.572 -0.5549  1.2910 -0.0143
  904MOL0     H21999   9.875   3.470   7.611 -1.8099  3.8760  2.8547
  904MOL0     H22000   9.867   3.624   7.744  1.6375 -2.4713 -1.3869
  904MOL0     H22001   9.909   3.835   7.896 -3.0593 -1.9875  2.8522
  904MOL0     H22002  10.014   3.816   8.031  2.5016  0.0238 -0.4366
  904MOL0     H22003  10.076   3.763   7.884  1.8745  1.7790  2.4635
  904MOL0     H22004  10.395   3.597   8.213 -1.9898 -1.2447  0.4569
  904MOL0     H22005  10.530   3.698   8.406 -0.1507  0.2589  0.1232
  904MOL0     H22006  10.452   3.941   8.685  0.7683  0.7454  0.6422
  904MOL0     H22007  10.314   3.847   8.749  0.1706  0.6984 -1.7302
  904MOL0     H22008  10.471   3.714   8.886 -1.3120 -0.0708 -0.6699
  904MOL0     H22009  10.590   3.835   8.837  0.8291 -1.2400  3.2656
  904MOL0     H22010  10.364   3.985   8.953 -0.6611 -0.8580  0.3871
  904MOL0     H22011  10.531   3.974   8.995 -0.5725 -0.3690 -0.7933
  904MOL0     H22012  10.311   3.777   9.105  2.1089 -2.7738  1.9035
  904MOL0     H22013  10.478   3.752   9.118  0.7224 -0.3748 -2.4442
  904MOL0     H22014  10.338   4.033   9.176 -1.5996 -0.0602 -0.1878
  904MOL0     H22015  10.495   3.969   9.236  0.9092 -1.0988 -2.5940
  904MOL0     H22016  10.193   3.893   9.306  0.1787 -0.3958  0.4695
  904MOL0     H22017  10.328   3.799   9.361  0.7803  1.5675  2.5207
  904MOL0     H22018  10.215   4.037   9.465 -0.6764  0.5855  1.2478
  904MOL0     H22019  10.392   4.065   9.453 -1.8846  1.5314 -0.4840
  904MOL0     H22020  10.267   3.815   9.568  0.8993 -0.6929 -0.5943
  904MOL0     H22021  10.286   3.965   9.662 -0.1290  0.5442 -0.3957
  904MOL0     H22022  10.166   3.786   8.614 -1.2136  1.2907  0.2413
  904MOL0     H22023  10.042   3.774   8.407 -0.9073 -4.5031  0.6335
  904MOL0     H22024   9.834   3.393   8.178 -1.8084 -3.4722 -2.0096
  904MOL0     H22025   9.745   3.288   7.991  0.0843  0.0054  3.1333
  904MOL0     H22026   9.229   2.687   7.274 -1.5499  0.6819 -0.7940
  904MOL0     H22027   9.037   2.608   7.402  4.9255 -2.8946  1.5413
  904MOL0     H22028   8.687   2.641   7.730  0.6928  3.1203  0.6321
  904MOL0     H22029   8.554   2.573   7.937 -0.5768  1.7587  0.3879
  904MOL0     H22030   8.722   2.361   8.246  1.2514  0.9144  0.3238
  904MOL0     H22031   8.788   2.511   8.304 -0.2760 -0.2911 -1.5976
  904MOL0     H22032   8.497   2.403   8.356 -0.0545  0.8741 -1.6525
  904MOL0     H22033   8.557   2.570   8.404  0.9253  1.3800 -2.5438
  904MOL0     H22034   8.713   2.513   8.532  1.2845  0.0614 -4.3328
  904MOL0     H22035   8.716   2.344   8.491 -0.8100 -1.0960  1.7661
  904MOL0     H22036   8.494   2.452   8.663  0.6580 -0.4498 -1.0319
  904MOL0     H22037   8.605   2.322   8.703 -0.3829  0.5502  0.0645
  904MOL0     H22038   8.404   2.108   8.413  0.3435 -0.5427  1.0378
  904MOL0     H22039   8.921   2.564   8.157  1.5705  0.1616 -0.6791
  904MOL0     H22040   9.055   2.611   7.963  0.5616 -2.1099 -0.0910
  905MOL0     O22041   3.354   9.290   4.552  0.3210  0.6037 -0.7120
  905MOL0     C22042   3.278   9.195   4.530  1.0661  0.8709  0.0038
  905MOL0     O22043   3.261   9.087   4.606  0.7307  0.1629 -0.3753
  905MOL0     C22044   3.328   9.048   4.717 -0.5451 -0.4704 -0.3245
  905MOL0     C22045   3.460   9.081   4.755 -0.1903 -0.8607  0.9601
  905MOL0     C22046   3.507   9.034   4.877 -0.7464 -0.6137  0.4980
  905MOL0     C22047   3.442   8.931   4.943  0.7634 -0.2914  0.0504
  905MOL0     O22048   3.509   8.878   5.051  0.9548  0.3067  0.5395
  905MOL0     C22049   3.437   8.854   5.171  0.3712  0.6840 -0.0123
  905MOL0     C22050   3.351   8.968   5.218 -1.0004  1.1121  0.2937
  905MOL0     C22051   3.435   9.089   5.227 -0.8901 -0.4996 -0.2775
  905MOL0     C22052   3.521   9.088   5.358 -0.1033  0.2190  1.3817
  905MOL0     C22053   3.596   9.216   5.396 -0.0870  0.0484  0.0599
  905MOL0     C22054   3.670   9.204   5.533  0.7876 -0.5709  0.0604
  905MOL0     C22055   3.808   9.137   5.529 -0.5737  0.0466  0.7133
  905MOL0     C22056   3.907   9.200   5.431  1.0935 -0.1769 -0.8093
  905MOL0     N22057   3.948   9.336   5.485 -0.0049  0.3931  0.3905
  905MOL0     C22058   3.903   9.458   5.440 -0.6263 -0.5214 -0.0933
  905MOL0     C22059   3.990   9.547   5.511  0.4773  0.5808 -0.0563
  905MOL0     C22060   3.989   9.697   5.485  0.4115 -0.4098 -0.0607
  905MOL0     C22061   4.021   9.786   5.605 -0.2839 -0.1498  0.6844
  905MOL0     C22062   3.895   9.809   5.689  0.0166  0.0880 -0.4806
  905MOL0     C22063   3.808   9.686   5.735  0.9616 -0.1112 -0.2238
  905MOL0     O22064   3.739   9.733   5.846 -0.5606 -0.3593  0.9446
  905MOL0     C22065   3.633   9.658   5.897 -0.6067  0.0259 -0.1271
  905MOL0     C22066   3.597   9.529   5.855 -0.9069  0.4547 -0.7792
  905MOL0     C22067   3.507   9.449   5.927  0.7113  0.9776 -0.1977
  905MOL0     C22068   3.467   9.323   5.867 -0.1449  0.1464 -0.5002
  905MOL0     C22069   3.444   9.500   6.042 -0.9936  0.0489 -0.6831
  905MOL0     C22070   3.331   9.441   6.117 -0.6550 -0.6890  0.1493
  905MOL0     O22071   3.240   9.532   6.173  0.6526  0.6891 -0.0388
  905MOL0     C22072   3.210   9.510   6.302  1.2224 -0.1339  0.1988
  905MOL0     C22073   3.159   9.384   6.346 -0.8082  0.3922  0.9427
  905MOL0     C22074   3.143   9.362   6.482 -0.5580 -0.2092 -0.3065
  905MOL0     C22075   3.157   9.470   6.578  0.6002  1.0553 -0.3294
  905MOL0     O22076   3.132   9.447   6.710 -0.1385 -0.2558  0.2849
  905MOL0     C22077   3.093   9.322   6.775 -0.1868 -0.1076  0.1899
  905MOL0     C22078   3.093   9.341   6.929 -0.5481 -0.2718 -0.3987
  905MOL0     C22079   3.214   9.412   6.994  0.2081  0.0147 -0.3433
  905MOL0     C22080   3.353   9.377   6.940  0.9310  0.7704 -0.3004
  905MOL0     C22081   3.470   9.441   7.006 -0.7528 -0.6114  0.4744
  905MOL0     C22082   3.500   9.581   6.968 -0.4397  0.8930  0.2338
  905MOL0     C22083   3.545   9.590   6.820  1.0377  0.1718 -0.4744
  905MOL0     C22084   3.598   9.726   6.782  0.3216 -0.3635 -0.0746
  905MOL0    Cl22085   3.756   9.744   6.847 -0.5151  0.2725 -0.0153
  905MOL0     C22086   3.204   9.588   6.526  0.2054  0.0536  0.2767
  905MOL0     C22087   3.236   9.610   6.393  0.1570  0.1716  0.6065
  905MOL0     O22088   3.326   9.325   6.134  0.2281 -0.2777  0.0211
  905MOL0     C22089   3.494   9.616   6.090 -0.2491  0.1613  0.7199
  905MOL0     C22090   3.581   9.697   6.015  0.5980 -0.2308 -0.4777
  905MOL0     N22091   4.065   9.472   5.606 -0.8413  0.1159  0.4460
  905MOL0     N22092   4.042   9.351   5.585 -0.9424 -0.4377 -0.6337
  905MOL0     C22093   3.311   8.888   4.898 -0.6491  0.3769  0.8575
  905MOL0     C22094   3.262   8.945   4.787 -0.7936  0.5831 -0.0857
  905MOL0     C22095   3.186   9.200   4.419 -1.7299 -0.5387  0.1279
  905MOL0     C22096   3.092   9.109   4.390  0.4298  0.7748 -0.8686
  905MOL0     C22097   3.001   9.116   4.283 -0.0651 -0.4139  0.6940
  905MOL0     C22098   3.000   9.228   4.202  0.1134  0.0032 -0.2992
  905MOL0     O22099   2.922   9.246   4.105 -0.8050  0.3910 -0.5635
  905MOL0     C22100   2.932   9.151   3.997 -0.1921 -0.9930  0.2626
  905MOL0     C22101   3.007   9.187   3.873  0.1859  0.1888 -0.0609
  905MOL0     C22102   3.155   9.185   3.890 -0.0373  0.2107  0.1761
  905MOL0     C22103   3.209   9.285   3.782 -0.5164  1.1959 -0.0476
  905MOL0     C22104   3.348   9.255   3.763 -0.9007 -0.6972  0.5201
  905MOL0     C22105   3.466   9.242   3.724  0.4004  0.0955 -0.3036
  905MOL0     C22106   3.093   9.323   4.234  0.9178  0.1745  0.0730
  905MOL0     C22107   3.187   9.307   4.331 -0.3466 -0.2633  0.4679
  905MOL0     H22108   3.502   9.164   4.698  0.3727 -0.8930  1.3254
  905MOL0     H22109   3.599   9.070   4.923 -0.1916 -1.3281 -0.0261
  905MOL0     H22110   3.370   8.768   5.161 -0.7603  1.2221  2.1742
  905MOL0     H22111   3.511   8.822   5.245 -0.2693 -0.2731  0.2193
  905MOL0     H22112   3.262   8.983   5.157 -1.3855  0.5302  0.7018
  905MOL0     H22113   3.314   8.946   5.319 -1.6608 -1.6345 -0.4387
  905MOL0     H22114   3.509   9.096   5.146  0.4740 -0.4638  0.9338
  905MOL0     H22115   3.368   9.175   5.232  1.8027  1.6941  1.5056
  905MOL0     H22116   3.467   9.062   5.449 -0.5448  0.8439  1.3019
  905MOL0     H22117   3.594   9.007   5.354 -0.8612 -0.4513  0.5255
  905MOL0     H22118   3.663   9.251   5.316 -0.3794  0.0905 -0.1678
  905MOL0     H22119   3.522   9.296   5.404  0.5599  0.7011 -0.2806
  905MOL0     H22120   3.685   9.308   5.561 -1.0074 -0.0821 -0.6870
  905MOL0     H22121   3.605   9.157   5.608 -0.1241  0.3351 -0.1483
  905MOL0     H22122   3.836   9.147   5.635 -1.3069  0.0747  0.9127
  905MOL0     H22123   3.790   9.030   5.515 -5.9891  0.6508  0.9020
  905MOL0     H22124   3.866   9.217   5.331 -1.4589 -2.1019 -0.1720
  905MOL0     H22125   3.997   9.140   5.421  2.6787  1.0780  3.8054
  905MOL0     H22126   3.824   9.483   5.370 -0.2212 -0.8971 -0.6938
  905MOL0     H22127   4.074   9.703   5.417 -0.2553 -2.9920 -1.2617
  905MOL0     H22128   3.903   9.738   5.432  2.7004  1.5644 -2.5001
  905MOL0     H22129   4.051   9.885   5.569  1.2695 -0.8251 -0.0044
  905MOL0     H22130   4.095   9.735   5.668 -0.4356 -1.5882 -0.2598
  905MOL0     H22131   3.825   9.871   5.633 -2.8565 -1.8489  0.7478
  905MOL0     H22132   3.931   9.858   5.780  0.6557 -3.2572  1.2290
  905MOL0     H22133   3.873   9.601   5.756  0.6999 -0.0731  0.7701
  905MOL0     H22134   3.741   9.654   5.654  0.8756 -2.0937  0.5913
  905MOL0     H22135   3.647   9.491   5.767  2.4961  1.2560  0.6299
  905MOL0     H22136   3.363   9.301   5.891 -0.1202  0.5039 -0.0434
  905MOL0     H22137   3.483   9.335   5.759  0.3207 -0.5758 -0.5147
  905MOL0     H22138   3.529   9.239   5.897  2.0416  0.7508 -2.9744
  905MOL0     H22139   3.144   9.300   6.279 -0.8095  1.2151 -0.0978
  905MOL0     H22140   3.091   9.273   6.514  0.6369 -1.0896 -0.7558
  905MOL0     H22141   2.997   9.289   6.734 -0.7621  1.5674  0.1020
  905MOL0     H22142   3.174   9.254   6.747  1.6033  1.8205  0.4589
  905MOL0     H22143   2.998   9.382   6.962  0.1942 -1.8105  4.5469
  905MOL0     H22144   3.101   9.247   6.985 -0.6776  0.0743  0.2021
  905MOL0     H22145   3.215   9.402   7.103  2.4606  2.4743 -0.0178
  905MOL0     H22146   3.202   9.513   6.954  3.3427  0.9381  0.7018
  905MOL0     H22147   3.364   9.269   6.956  2.5689  1.3365  3.4213
  905MOL0     H22148   3.351   9.389   6.831 -1.9425  1.0272 -0.2748
  905MOL0     H22149   3.556   9.376   6.986 -1.2774 -1.0346 -0.4864
  905MOL0     H22150   3.464   9.451   7.115 -1.4367  0.4975  0.3519
  905MOL0     H22151   3.412   9.646   6.978  1.0219  2.9722  0.0790
  905MOL0     H22152   3.573   9.619   7.039 -1.4603  0.4164  1.5870
  905MOL0     H22153   3.455   9.572   6.760 -1.5023 -0.3899  3.2190
  905MOL0     H22154   3.635   9.529   6.807  1.9606  1.2821  0.5080
  905MOL0     H22155   3.547   9.816   6.819  1.7224 -0.2574  1.7577
  905MOL0     H22156   3.600   9.739   6.674 -2.0691 -0.3777 -0.1880
  905MOL0     H22157   3.216   9.675   6.590 -2.2246 -0.8303  2.1024
  905MOL0     H22158   3.257   9.711   6.361 -2.0668  0.9712  1.4232
  905MOL0     H22159   3.449   9.659   6.178 -2.9870 -2.3618  0.7199
  905MOL0     H22160   3.619   9.788   6.060 -1.7032  0.1127  0.9232
  905MOL0     H22161   3.240   8.824   4.951 -3.3018  1.8841 -0.6958
  905MOL0     H22162   3.165   8.911   4.753  0.7021 -1.6477 -2.5518
  905MOL0     H22163   3.084   9.019   4.451  1.4406  0.1612 -1.6162
  905MOL0     H22164   2.949   9.024   4.258  0.6399 -0.6107 -0.0878
  905MOL0     H22165   2.985   9.061   4.029  0.8227 -0.2180  0.8413
  905MOL0     H22166   2.836   9.105   3.974 -0.4487 -2.5955  3.8051
  905MOL0     H22167   2.975   9.289   3.848  0.7853  0.3212 -0.3225
  905MOL0     H22168   2.988   9.119   3.790  0.0602  1.9497 -1.5422
  905MOL0     H22169   3.194   9.085   3.870  0.4927  0.7584 -1.6810
  905MOL0     H22170   3.190   9.202   3.992 -1.0554 -0.0399  0.5805
  905MOL0     H22171   3.191   9.387   3.817 -1.7961  1.7304 -2.0387
  905MOL0     H22172   3.178   9.262   3.679 -0.1040 -1.8403  0.4117
  905MOL0     H22173   3.567   9.228   3.689  1.7301 -1.1084  3.4877
  905MOL0     H22174   3.101   9.411   4.171 -1.3728 -0.6874 -1.5120
  905MOL0     H22175   3.267   9.381   4.335  0.4769 -0.7982 -2.8923
  906MOL0     O22176   0.938   7.186   2.330 -0.7127 -0.1065  0.4054
  906MOL0     C22177   1.014   7.208   2.418  0.8707  0.1419  0.2197
  906MOL0     O22178   1.047   7.334   2.465 -0.4475 -0.4425  0.5693
  906MOL0     C22179   1.040   7.442   2.372  1.2958  1.3544 -0.4854
  906MOL0     C22180   1.042   7.435   2.233  0.1728 -0.8679 -0.0433
  906MOL0     C22181   1.031   7.557   2.160  0.6109  0.2792  0.5148
  906MOL0     C22182   1.015   7.688   2.225  0.4905  0.1060  0.5612
  906MOL0     O22183   0.998   7.805   2.158 -1.6639 -0.2572  0.0929
  906MOL0     C22184   1.078   7.814   2.032  0.5501 -0.3136  0.1020
  906MOL0     C22185   1.186   7.922   2.065  0.0757 -0.5905 -0.2315
  906MOL0     C22186   1.287   7.877   2.172 -0.6416  0.3457  0.1853
  906MOL0     C22187   1.394   7.979   2.227 -0.1176  0.0408  0.0181
  906MOL0     C22188   1.472   7.885   2.316  0.3832 -0.7769 -0.3282
  906MOL0     C22189   1.399   7.869   2.455 -0.0304  1.0075 -0.4561
  906MOL0     C22190   1.497   7.794   2.548 -0.4376 -0.0372 -0.0390
  906MOL0     C22191   1.435   7.761   2.688 -0.9979 -0.3502 -0.2740
  906MOL0     N22192   1.403   7.893   2.758 -0.7905 -0.3210  0.1013
  906MOL0     C22193   1.496   7.984   2.803  0.5420 -1.1130  0.3077
  906MOL0     C22194   1.428   8.096   2.845  0.4971  0.0253 -0.8018
  906MOL0     C22195   1.478   8.210   2.917 -0.5816 -0.3976  0.0797
  906MOL0     C22196   1.452   8.204   3.069 -0.8250 -0.5149 -0.3051
  906MOL0     C22197   1.554   8.299   3.138  0.6379  0.5348 -0.5035
  906MOL0     C22198   1.686   8.229   3.149  0.3859  0.3947 -0.1469
  906MOL0     O22199   1.785   8.314   3.209 -0.3379  0.1244 -0.4086
  906MOL0     C22200   1.919   8.272   3.192 -0.3562 -0.0858 -1.1051
  906MOL0     C22201   2.012   8.369   3.218 -0.6913  0.3951  0.7790
  906MOL0     C22202   2.145   8.331   3.205 -0.0331  0.2190 -1.1141
  906MOL0     C22203   2.248   8.450   3.221  0.4608 -0.0929 -0.0042
  906MOL0     C22204   2.189   8.193   3.180  0.1538 -0.1800  0.0667
  906MOL0     C22205   2.332   8.146   3.189 -0.1020  0.0571 -0.2395
  906MOL0     O22206   2.410   8.196   3.289  0.6227 -0.1241  0.9363
  906MOL0     C22207   2.539   8.162   3.287  0.9170  0.0847 -0.5046
  906MOL0     C22208   2.570   8.034   3.319 -1.5113  0.7883  0.4149
  906MOL0     C22209   2.708   7.994   3.326  1.0304  1.0338  0.0031
  906MOL0     C22210   2.806   8.084   3.295 -0.3531 -1.1176 -0.5570
  906MOL0     O22211   2.936   8.067   3.314 -0.5405 -0.5308  0.0481
  906MOL0     C22212   2.970   7.961   3.395 -0.3357 -1.2627 -0.1739
  906MOL0     C22213   2.961   7.984   3.547  0.3167 -0.2310  0.1274
  906MOL0     C22214   3.030   7.885   3.629 -0.1182  1.3128  0.2079
  906MOL0     C22215   2.971   7.881   3.775  0.3606  0.7399  0.7199
  906MOL0     C22216   3.019   7.769   3.874  0.0991  0.3927  0.3380
  906MOL0     C22217   3.155   7.797   3.940  1.0158  0.2539 -0.4417
  906MOL0     C22218   3.203   7.664   3.979  0.2478  0.9095  1.0412
  906MOL0     C22219   3.339   7.659   4.041 -0.5707  0.2745 -0.0799
  906MOL0    Cl22220   3.335   7.748   4.201  0.1544  0.3271  0.1795
  906MOL0     C22221   2.762   8.217   3.259 -0.1372  0.2294  0.7193
  906MOL0     C22222   2.631   8.262   3.262  0.3223  0.8132  0.6621
  906MOL0     O22223   2.367   8.069   3.100  0.7350  0.1976 -0.0783
  906MOL0     C22224   2.083   8.104   3.152  0.3052 -0.1344 -0.5675
  906MOL0     C22225   1.952   8.141   3.159  0.6641  0.3121  0.0038
  906MOL0     N22226   1.299   8.069   2.817  0.0641  0.2516 -0.3452
  906MOL0     N22227   1.282   7.953   2.768 -0.8306 -0.4728  0.0364
  906MOL0     C22228   1.013   7.696   2.354  0.2046  0.3047 -0.0312
  906MOL0     C22229   1.026   7.571   2.433  0.1854 -0.2144  0.6518
  906MOL0     C22230   1.057   7.095   2.498 -0.1559 -0.0181 -0.1295
  906MOL0     C22231   1.184   7.104   2.576 -0.9701 -0.2899  0.1716
  906MOL0     C22232   1.218   7.001   2.668 -0.1965 -0.6865  0.4729
  906MOL0     C22233   1.141   6.886   2.669  0.7897 -0.3405 -0.1725
  906MOL0     O22234   1.175   6.791   2.753 -0.4236 -0.2720  0.4823
  906MOL0     C22235   1.197   6.662   2.709 -0.5520 -0.0514  0.3075
  906MOL0     C22236   1.121   6.549   2.789 -0.0271  0.1963  0.9459
  906MOL0     C22237   1.147   6.564   2.936 -0.0331 -1.0303 -1.2358
  906MOL0     C22238   1.146   6.441   3.026 -0.3749  0.4104  0.9521
  906MOL0     C22239   1.017   6.384   3.004 -0.1525 -0.2298  0.3787
  906MOL0     C22240   0.910   6.323   2.985  0.0621 -0.4429 -0.2356
  906MOL0     C22241   1.022   6.883   2.591 -1.0656 -0.1377  0.2454
  906MOL0     C22242   0.976   6.988   2.520 -0.0353 -0.6649 -0.0697
  906MOL0     H22243   1.065   7.336   2.193  0.2427 -0.4346 -1.1226
  906MOL0     H22244   1.035   7.559   2.052  1.2257  0.9252  0.5433
  906MOL0     H22245   1.138   7.725   2.008  0.6159 -1.1343  2.8708
  906MOL0     H22246   1.021   7.856   1.949 -0.1239  2.3375  1.8011
  906MOL0     H22247   1.252   7.951   1.983 -0.4372  1.1174 -0.0859
  906MOL0     H22248   1.119   8.007   2.083 -2.6960 -2.7725  0.4565
  906MOL0     H22249   1.231   7.845   2.260  2.3774 -3.6517  0.9339
  906MOL0     H22250   1.336   7.790   2.127 -0.6389  0.2832  0.3090
  906MOL0     H22251   1.469   8.013   2.154  1.9030 -0.0696  1.9448
  906MOL0     H22252   1.346   8.056   2.288  0.7830 -1.5129  2.8632
  906MOL0     H22253   1.496   7.788   2.271 -0.2816 -2.2886  2.3596
  906MOL0     H22254   1.565   7.937   2.337 -0.9443  1.0851  1.2245
  906MOL0     H22255   1.377   7.966   2.501  1.9802  0.8898  0.8569
  906MOL0     H22256   1.303   7.817   2.446  0.1876  0.0475  2.0462
  906MOL0     H22257   1.539   7.701   2.510  0.4914  0.0029  0.8475
  906MOL0     H22258   1.577   7.863   2.575 -0.6943  1.4420 -2.6878
  906MOL0     H22259   1.502   7.695   2.743 -2.0795 -1.4521 -0.2264
  906MOL0     H22260   1.346   7.699   2.671  0.3864 -2.3123 -0.7273
  906MOL0     H22261   1.601   7.958   2.802  0.9366  0.3659 -1.2108
  906MOL0     H22262   1.585   8.224   2.898 -0.5230  1.9333  1.6608
  906MOL0     H22263   1.432   8.297   2.870 -1.0934 -0.1701  0.9698
  906MOL0     H22264   1.483   8.104   3.101 -0.1425 -0.9323 -2.1304
  906MOL0     H22265   1.346   8.224   3.082 -0.4286  3.4359 -1.7294
  906MOL0     H22266   1.516   8.344   3.231 -0.6381  3.2876 -2.2188
  906MOL0     H22267   1.568   8.387   3.074 -1.2591  0.2882 -1.2971
  906MOL0     H22268   1.722   8.204   3.049 -0.6104  2.1587 -1.0079
  906MOL0     H22269   1.666   8.135   3.200  1.2514 -0.9567 -2.1940
  906MOL0     H22270   1.993   8.476   3.228  0.0602  0.7058 -0.7760
  906MOL0     H22271   2.336   8.417   3.164 -0.2081 -0.5296 -0.8080
  906MOL0     H22272   2.220   8.548   3.181 -0.0791 -0.2469 -0.0021
  906MOL0     H22273   2.274   8.457   3.327 -1.6206 -2.6746  0.7920
  906MOL0     H22274   2.489   7.962   3.330 -0.7193 -0.5493 -1.7098
  906MOL0     H22275   2.727   7.896   3.369 -1.5095  0.2698 -0.4271
  906MOL0     H22276   2.929   7.864   3.367 -1.5054 -1.5821  2.3852
  906MOL0     H22277   3.076   7.944   3.374 -0.0871 -1.6413  1.2957
  906MOL0     H22278   3.010   8.079   3.568 -3.3841  1.9309 -0.0544
  906MOL0     H22279   2.854   7.975   3.571  0.0272 -3.5658 -1.8230
  906MOL0     H22280   3.138   7.901   3.629  0.1800 -0.4359  0.8188
  906MOL0     H22281   3.021   7.791   3.574 -1.6915  0.9393  1.0418
  906MOL0     H22282   2.989   7.981   3.816 -0.9290  2.1919 -1.9609
  906MOL0     H22283   2.862   7.874   3.769  0.5508 -1.8114 -3.1894
  906MOL0     H22284   3.014   7.668   3.834 -1.4333  0.4476  0.3552
  906MOL0     H22285   2.961   7.769   3.966  0.3965  0.1357  0.5277
  906MOL0     H22286   3.224   7.833   3.864  0.4405  1.0197 -0.6088
  906MOL0     H22287   3.130   7.867   4.020 -2.0727  0.0304 -1.0863
  906MOL0     H22288   3.207   7.602   3.889 -0.7017 -0.3202  1.8056
  906MOL0     H22289   3.133   7.618   4.050 -0.9033 -0.8639 -1.0977
  906MOL0     H22290   3.411   7.713   3.979 -2.5620  3.6466  0.3508
  906MOL0     H22291   3.382   7.560   4.062 -0.8924  0.1393 -0.0549
  906MOL0     H22292   2.843   8.287   3.238 -0.5778  0.4898 -0.1520
  906MOL0     H22293   2.607   8.367   3.245  4.0532  1.6060 -0.5371
  906MOL0     H22294   2.117   8.001   3.142  0.3487 -0.0371 -1.5118
  906MOL0     H22295   1.886   8.055   3.154  1.5181 -0.7761  3.9977
  906MOL0     H22296   1.008   7.796   2.396 -1.5631 -0.2517  1.2069
  906MOL0     H22297   1.037   7.590   2.539  1.4651 -0.0417  0.5033
  906MOL0     H22298   1.251   7.189   2.564 -1.2161 -0.1638 -0.3621
  906MOL0     H22299   1.292   7.018   2.745  0.8099 -1.0496 -0.3833
  906MOL0     H22300   1.195   6.652   2.600  1.9634  2.8955 -0.1495
  906MOL0     H22301   1.301   6.649   2.739 -0.3614  0.5926 -0.0645
  906MOL0     H22302   1.148   6.449   2.752  0.5999 -0.1190  2.1682
  906MOL0     H22303   1.014   6.556   2.768 -0.3601 -1.6996  1.7228
  906MOL0     H22304   1.070   6.632   2.974 -0.5109 -1.8995 -0.6161
  906MOL0     H22305   1.240   6.620   2.953  0.6955 -2.0340 -1.8600
  906MOL0     H22306   1.143   6.479   3.129 -1.6768  3.2033  0.0029
  906MOL0     H22307   1.233   6.380   3.004 -0.9319 -0.0394 -0.0589
  906MOL0     H22308   0.818   6.270   2.974  0.8027 -2.2323  1.6239
  906MOL0     H22309   0.970   6.788   2.602  0.0873 -0.6745  1.4030
  906MOL0     H22310   0.881   6.975   2.469  0.2924 -0.2313 -0.8080
  907MOL0     O22311   2.613   7.535   7.349 -0.4769 -0.4101  0.0808
  907MOL0     C22312   2.576   7.611   7.438 -0.8684  0.5396 -0.8811
  907MOL0     O22313   2.648   7.705   7.512  0.5635 -0.4745  0.4783
  907MOL0     C22314   2.718   7.806   7.445 -0.3877 -0.1510  0.1243
  907MOL0     C22315   2.740   7.837   7.308 -0.3637 -0.4021 -0.4130
  907MOL0     C22316   2.816   7.948   7.260  0.1445 -0.4323 -0.3694
  907MOL0     C22317   2.877   8.027   7.353 -1.2179  0.4732  0.0521
  907MOL0     O22318   2.919   8.144   7.299 -0.7073  0.2231 -0.1705
  907MOL0     C22319   2.925   8.262   7.372  0.4530 -0.6778  0.5864
  907MOL0     C22320   2.908   8.388   7.294  0.3332  1.5153  0.6732
  907MOL0     C22321   3.018   8.397   7.194  0.5636 -0.7579 -0.3708
  907MOL0     C22322   2.979   8.483   7.077  0.6927  0.0224 -0.0588
  907MOL0     C22323   3.006   8.629   7.106  0.4117  0.0481 -0.6767
  907MOL0     C22324   2.959   8.719   6.991 -0.7146  0.2563  0.6725
  907MOL0     C22325   3.075   8.823   6.967 -0.8365  1.5466 -0.2963
  907MOL0     C22326   3.043   8.926   6.857 -1.5793  0.6035 -0.5519
  907MOL0     N22327   2.912   8.995   6.892 -0.2887 -0.2142  0.2748
  907MOL0     C22328   2.895   9.048   7.019  0.1489  0.4539 -0.5716
  907MOL0     C22329   2.785   9.118   7.007 -0.2636 -0.0588 -0.3312
  907MOL0     C22330   2.724   9.194   7.113  0.0871 -0.1930 -0.4773
  907MOL0     C22331   2.590   9.144   7.164 -0.3581  0.2839  0.0437
  907MOL0     C22332   2.607   8.996   7.210  0.0648  0.8429 -0.5100
  907MOL0     C22333   2.469   8.949   7.250 -0.1874  0.0132 -0.1327
  907MOL0     O22334   2.387   8.939   7.134  0.2997 -0.8866 -0.2603
  907MOL0     C22335   2.262   8.895   7.155 -1.6189  0.2855  1.0162
  907MOL0     C22336   2.202   8.882   7.033  0.0733  1.2983 -0.2791
  907MOL0     C22337   2.068   8.818   7.019 -1.5966  0.3819 -0.2630
  907MOL0     C22338   2.009   8.793   6.887 -1.1006  0.8411  0.2967
  907MOL0     C22339   1.993   8.808   7.137  0.2889  0.4344 -0.3983
  907MOL0     C22340   1.863   8.761   7.151  0.1402 -0.1894  0.2744
  907MOL0     O22341   1.782   8.840   7.231  0.1355 -0.5426 -0.2447
  907MOL0     C22342   1.653   8.815   7.256  0.5699 -0.0504  1.2845
  907MOL0     C22343   1.606   8.830   7.383 -0.4030 -0.9737 -0.1777
  907MOL0     C22344   1.466   8.810   7.413  0.4637 -0.8761 -0.7768
  907MOL0     C22345   1.373   8.790   7.303 -0.7822 -0.4395 -0.4136
  907MOL0     O22346   1.238   8.761   7.311  0.1097  0.3197 -0.2652
  907MOL0     C22347   1.189   8.682   7.427  0.8992  0.5134 -0.1911
  907MOL0     C22348   1.043   8.632   7.399 -0.3142 -0.9883  0.9051
  907MOL0     C22349   0.947   8.758   7.382 -1.9780  0.0266 -0.6069
  907MOL0     C22350   0.813   8.699   7.368  0.4559  1.1862  0.0412
  907MOL0     C22351   0.696   8.794   7.369 -0.3140  0.8066  0.1445
  907MOL0     C22352   0.662   8.832   7.518  1.9551  1.0551 -0.5626
  907MOL0     C22353   0.569   8.729   7.597 -0.5017 -0.4740 -0.8033
  907MOL0     C22354   0.467   8.800   7.672 -0.1086  0.3667 -0.5876
  907MOL0    Cl22355   0.339   8.698   7.746 -0.3962 -0.3986  0.1228
  907MOL0     C22356   1.423   8.792   7.179  0.2791 -0.6580  0.0298
  907MOL0     C22357   1.559   8.808   7.151 -0.8618 -0.4783  0.5636
  907MOL0     O22358   1.821   8.658   7.088  0.2877  1.4128 -0.1724
  907MOL0     C22359   2.068   8.821   7.263 -0.3623 -0.6583  1.0297
  907MOL0     C22360   2.200   8.857   7.278 -1.1037 -0.1745  0.6883
  907MOL0     N22361   2.740   9.116   6.876 -1.2988 -0.0026  0.3970
  907MOL0     N22362   2.819   9.038   6.808 -0.1350  0.2510  0.7758
  907MOL0     C22363   2.853   7.995   7.493 -1.0511  0.3046  0.1618
  907MOL0     C22364   2.785   7.888   7.538 -0.9762  1.2049  1.3934
  907MOL0     C22365   2.436   7.600   7.479  0.0398 -0.0918  0.6671
  907MOL0     C22366   2.339   7.591   7.383 -0.3754  0.1283 -0.4051
  907MOL0     C22367   2.202   7.605   7.415 -0.3910  0.2125 -0.8569
  907MOL0     C22368   2.159   7.625   7.547  0.7082 -0.3023 -0.0130
  907MOL0     O22369   2.021   7.633   7.592 -0.3514  0.4878  0.4587
  907MOL0     C22370   1.994   7.570   7.719  0.7761  0.2708  0.2626
  907MOL0     C22371   1.844   7.584   7.731  0.2027 -0.6845  0.9166
  907MOL0     C22372   1.773   7.466   7.806  0.1665 -0.0928 -0.2260
  907MOL0     C22373   1.615   7.455   7.800  0.7549  0.7147  0.3970
  907MOL0     C22374   1.558   7.557   7.894  0.7712 -0.5342 -0.9535
  907MOL0     C22375   1.515   7.643   7.965  0.1697  0.3296 -1.4203
  907MOL0     C22376   2.263   7.641   7.642 -0.1338  0.5812  0.5771
  907MOL0     C22377   2.405   7.631   7.611  0.0771  0.7735  0.2028
  907MOL0     H22378   2.685   7.778   7.235  4.9791  0.2014 -5.7488
  907MOL0     H22379   2.825   7.972   7.154  0.6006  0.7883 -0.0734
  907MOL0     H22380   2.838   8.267   7.438  0.5619 -0.3734  0.7087
  907MOL0     H22381   3.012   8.252   7.438 -0.1563 -2.0660  1.2249
  907MOL0     H22382   2.811   8.390   7.242  1.3748  0.9469 -1.3912
  907MOL0     H22383   2.898   8.474   7.361 -3.8898  0.7023  1.3897
  907MOL0     H22384   3.104   8.439   7.247 -0.2970  0.2388  0.2803
  907MOL0     H22385   3.037   8.294   7.163 -0.0279 -0.7909 -0.6277
  907MOL0     H22386   3.031   8.456   6.984 -1.8619  0.4419 -1.7171
  907MOL0     H22387   2.872   8.470   7.057  1.2175 -1.9217 -2.0321
  907MOL0     H22388   2.962   8.651   7.204  1.1934 -2.8066  0.4020
  907MOL0     H22389   3.113   8.645   7.124  0.2303  0.2223  0.2733
  907MOL0     H22390   2.942   8.653   6.905  0.0557  0.8578  0.0463
  907MOL0     H22391   2.866   8.771   7.014  0.9495  3.1083  1.4013
  907MOL0     H22392   3.098   8.868   7.064  0.6401  1.8803 -0.7769
  907MOL0     H22393   3.169   8.774   6.940 -1.1373  0.0093  1.2172
  907MOL0     H22394   3.039   8.874   6.761 -0.5524 -2.6462  1.0281
  907MOL0     H22395   3.135   8.984   6.847 -0.9721 -0.2558 -0.0745
  907MOL0     H22396   2.968   9.042   7.100  0.2750 -1.0466 -0.7637
  907MOL0     H22397   2.790   9.209   7.199  0.6732 -2.8416 -0.3847
  907MOL0     H22398   2.698   9.296   7.083  2.7928  0.4990 -0.7186
  907MOL0     H22399   2.525   9.163   7.078  0.3498 -2.5451 -1.2239
  907MOL0     H22400   2.565   9.212   7.247  1.3038  1.7156 -0.5499
  907MOL0     H22401   2.677   8.996   7.294  2.4063  0.0361 -2.3686
  907MOL0     H22402   2.653   8.929   7.137 -2.0721 -2.8251  1.1872
  907MOL0     H22403   2.436   9.022   7.325  0.7415 -0.8334  1.1416
  907MOL0     H22404   2.477   8.865   7.319  4.4038  2.3302  2.6340
  907MOL0     H22405   2.247   8.926   6.945 -0.2195 -0.4290 -1.3387
  907MOL0     H22406   2.006   8.684   6.887 -2.8413  0.8272  2.0279
  907MOL0     H22407   1.906   8.827   6.899 -0.5635  1.9585  2.2065
  907MOL0     H22408   2.063   8.839   6.804  0.9015  1.8976  2.0732
  907MOL0     H22409   1.670   8.845   7.469 -0.1547  2.5528 -0.8239
  907MOL0     H22410   1.423   8.788   7.510  0.0607  0.2620 -0.6840
  907MOL0     H22411   1.239   8.588   7.454 -1.6431 -0.8220  0.1659
  907MOL0     H22412   1.195   8.752   7.511  2.6018 -0.5658  0.6469
  907MOL0     H22413   1.039   8.569   7.310 -0.3368  0.9871 -0.5501
  907MOL0     H22414   1.006   8.585   7.491 -0.4130  0.6159  1.7181
  907MOL0     H22415   0.982   8.822   7.301  1.6389 -1.2718 -0.2835
  907MOL0     H22416   0.949   8.815   7.475  1.1709 -0.4974 -0.2358
  907MOL0     H22417   0.815   8.631   7.283  4.6166 -0.2720  1.0536
  907MOL0     H22418   0.802   8.638   7.458  3.9069  0.4240  0.0947
  907MOL0     H22419   0.608   8.747   7.323 -1.5801  3.7214 -0.6298
  907MOL0     H22420   0.729   8.873   7.301  2.0579 -0.1859  0.0371
  907MOL0     H22421   0.749   8.847   7.583  1.4024  0.3325  0.3556
  907MOL0     H22422   0.611   8.929   7.523  1.9296  1.0280 -0.3162
  907MOL0     H22423   0.627   8.672   7.670  2.3737  0.8749 -1.8484
  907MOL0     H22424   0.517   8.662   7.527 -1.5828  2.8571 -3.4893
  907MOL0     H22425   0.414   8.855   7.593 -4.1192 -2.0410  0.1465
  907MOL0     H22426   0.512   8.873   7.740  0.3942 -1.7961  1.5686
  907MOL0     H22427   1.355   8.771   7.097 -1.8718  3.7053  0.3819
  907MOL0     H22428   1.587   8.806   7.046 -4.0481 -0.9970 -0.3606
  907MOL0     H22429   2.008   8.805   7.352 -1.5858 -2.3838 -0.0534
  907MOL0     H22430   2.234   8.858   7.381 -0.5614  0.2509  0.5081
  907MOL0     H22431   2.904   8.053   7.569 -0.5480  0.5884 -0.3858
  907MOL0     H22432   2.775   7.870   7.644  2.0535 -0.6476  1.4667
  907MOL0     H22433   2.368   7.589   7.279  2.5450  3.5803  0.1334
  907MOL0     H22434   2.140   7.603   7.326  0.8993 -0.8077 -1.7750
  907MOL0     H22435   2.023   7.465   7.709 -3.2180 -0.7577 -3.2797
  907MOL0     H22436   2.056   7.617   7.795 -1.7118 -0.0406  2.6172
  907MOL0     H22437   1.804   7.596   7.630  2.9863  0.2564 -0.1777
  907MOL0     H22438   1.819   7.666   7.799 -0.7782 -0.8791  0.8076
  907MOL0     H22439   1.808   7.473   7.909  3.4123 -0.1332 -1.2289
  907MOL0     H22440   1.803   7.366   7.773 -0.2603  0.2295 -1.6341
  907MOL0     H22441   1.584   7.354   7.830 -2.1136  0.4952 -2.7496
  907MOL0     H22442   1.586   7.471   7.696  0.5925  0.9690  0.4824
  907MOL0     H22443   1.482   7.712   8.040  2.3954 -0.1795  0.1312
  907MOL0     H22444   2.249   7.654   7.749 -0.5162 -0.0714  0.6121
  907MOL0     H22445   2.485   7.636   7.684  0.3241 -1.4537  0.1337
  908MOL0     O22446   5.197  11.131   9.607 -0.3142  1.3716 -0.1360
  908MOL0     C22447   5.196  11.025   9.539  0.9404  0.0302  0.4188
  908MOL0     O22448   5.115  10.911   9.564 -1.0311  0.0828  0.3782
  908MOL0     C22449   5.031  10.908   9.676  1.2631 -0.0228 -0.1168
  908MOL0     C22450   5.072  10.909   9.809  0.6378  0.8447  0.1927
  908MOL0     C22451   4.978  10.910   9.913 -0.0368 -0.4125 -0.9059
  908MOL0     C22452   4.844  10.912   9.887 -0.6292  0.6868  0.5219
  908MOL0     O22453   4.742  10.923   9.982  0.7867  0.6441 -0.6304
  908MOL0     C22454   4.754  10.835  10.097 -0.7805 -0.9722 -0.3789
  908MOL0     C22455   4.621  10.766  10.134 -0.9757  0.5971 -1.3772
  908MOL0     C22456   4.508  10.866  10.129 -0.9899  0.2317 -0.2364
  908MOL0     C22457   4.378  10.796  10.173 -0.4237 -1.1514  1.3149
  908MOL0     C22458   4.261  10.906  10.180  0.1790  0.8308 -0.1000
  908MOL0     C22459   4.190  10.898  10.315 -0.4656  0.3484 -1.1820
  908MOL0     C22460   4.126  10.767  10.357 -0.1697 -0.2310 -0.7998
  908MOL0     C22461   4.045  10.787  10.489 -0.2101  0.2976  0.1337
  908MOL0     N22462   4.096  10.738  10.611 -0.1580 -0.2218 -1.0571
  908MOL0     C22463   4.204  10.785  10.686  0.2059  0.0778  0.5056
  908MOL0     C22464   4.202  10.706  10.801 -0.2531  0.1699 -1.2011
  908MOL0     C22465   4.280  10.700  10.933  0.9050 -0.2708  0.5228
  908MOL0     C22466   4.316  10.839  10.973 -0.3684  0.5016  0.0576
  908MOL0     C22467   4.193  10.901  11.035  0.5711 -0.5439  0.3450
  908MOL0     C22468   4.222  11.042  11.100 -0.5037  0.0769  0.3466
  908MOL0     O22469   4.106  11.123  11.102 -0.0059 -0.2425  0.2477
  908MOL0     C22470   4.025  11.122  11.216 -0.1845 -0.5870 -0.1015
  908MOL0     C22471   4.046  11.054  11.337 -0.2922  0.2223  0.3037
  908MOL0     C22472   3.992  11.080  11.462  0.7108 -0.3309  0.3722
  908MOL0     C22473   4.059  10.999  11.584 -0.4443 -0.0772 -0.2551
  908MOL0     C22474   3.887  11.175  11.461  0.5366  0.7952 -0.1901
  908MOL0     C22475   3.813  11.209  11.586  0.5538  0.0117  0.0510
  908MOL0     O22476   3.859  11.169  11.712 -0.1325 -0.0121  0.2195
  908MOL0     C22477   3.787  11.186  11.828 -0.3611  0.0253  0.0202
  908MOL0     C22478   3.793  11.301  11.907  0.6900  0.5932 -0.1656
  908MOL0     C22479   3.729  11.309  12.026  0.0504  0.7292 -1.2571
  908MOL0     C22480   3.661  11.196  12.078 -0.5078  0.5922  1.0423
  908MOL0     O22481   3.611  11.190  12.204 -0.7408 -0.1570 -0.6998
  908MOL0     C22482   3.538  11.302  12.254 -0.4238  0.5616 -0.1875
  908MOL0     C22483   3.435  11.253  12.352  0.2219 -0.0579  0.4803
  908MOL0     C22484   3.331  11.147  12.287 -0.2763  0.4941 -0.1851
  908MOL0     C22485   3.243  11.210  12.182 -0.6200 -0.7808  0.7279
  908MOL0     C22486   3.117  11.128  12.134 -0.9889 -0.2036 -0.3801
  908MOL0     C22487   3.165  11.028  12.028 -0.7321 -0.0037 -0.6515
  908MOL0     C22488   3.053  10.957  11.966 -1.4382  0.3090 -0.4736
  908MOL0     C22489   3.092  10.821  11.890  0.6399  0.1579 -0.3018
  908MOL0    Cl22490   2.948  10.769  11.808  0.4046  0.0071  0.4546
  908MOL0     C22491   3.661  11.079  12.010 -0.4440  0.6931  1.0473
  908MOL0     C22492   3.719  11.074  11.883  0.6132 -0.2332  0.0764
  908MOL0     O22493   3.709  11.272  11.572  0.1378 -0.1107  0.8342
  908MOL0     C22494   3.839  11.231  11.335  0.3397  0.3956 -0.3619
  908MOL0     C22495   3.914  11.201  11.216  0.3515 -0.4488 -0.2614
  908MOL0     N22496   4.096  10.620  10.785  0.2204  0.4322 -0.1884
  908MOL0     N22497   4.032  10.639  10.670 -0.4573  0.0228  0.8318
  908MOL0     C22498   4.796  10.914   9.751  0.8929  0.2278  0.4039
  908MOL0     C22499   4.891  10.925   9.647  0.3835  0.7790  0.0945
  908MOL0     C22500   5.271  11.023   9.409 -0.1224 -0.4912  0.5427
  908MOL0     C22501   5.374  11.106   9.387 -0.5643 -0.2688  0.1737
  908MOL0     C22502   5.446  11.105   9.264 -0.6990 -0.3000 -0.6334
  908MOL0     C22503   5.414  11.023   9.161  0.5315 -0.7207  0.0812
  908MOL0     O22504   5.478  11.019   9.043  0.1811  0.3831 -0.8202
  908MOL0     C22505   5.579  10.927   9.034  0.1691  0.2322 -0.8196
  908MOL0     C22506   5.638  10.971   8.908  0.3625  0.3423 -0.0220
  908MOL0     C22507   5.777  10.901   8.870 -0.1155 -0.0869  0.1169
  908MOL0     C22508   5.831  10.978   8.748 -0.8244 -0.3979 -0.7165
  908MOL0     C22509   5.906  11.103   8.782  0.1138  0.5724 -0.2862
  908MOL0     C22510   5.933  11.225   8.777  0.3420  0.0019  1.5377
  908MOL0     C22511   5.297  10.941   9.176  0.5498 -1.2769 -0.6186
  908MOL0     C22512   5.240  10.928   9.307 -0.1200 -0.0452 -0.7919
  908MOL0     H22513   5.177  10.892   9.834  0.2895  3.2069  4.1561
  908MOL0     H22514   5.003  10.920  10.018 -2.0188  2.2534 -0.5933
  908MOL0     H22515   4.836  10.764  10.080 -0.4492 -0.2968 -1.7259
  908MOL0     H22516   4.768  10.900  10.184  0.0832 -0.4454 -0.8883
  908MOL0     H22517   4.622  10.674  10.075  1.0620  1.1806 -2.3759
  908MOL0     H22518   4.628  10.743  10.241  0.2766  2.3229 -1.0341
  908MOL0     H22519   4.522  10.943  10.206  1.3780  0.5963 -0.9446
  908MOL0     H22520   4.492  10.908  10.029  0.1423 -1.4107 -1.1671
  908MOL0     H22521   4.362  10.721  10.095 -1.8463 -2.3435  2.6824
  908MOL0     H22522   4.392  10.751  10.272 -1.6326  1.5920  2.8523
  908MOL0     H22523   4.309  11.003  10.163  0.2712  1.2649  2.3031
  908MOL0     H22524   4.186  10.898  10.101 -1.6216  2.6611  1.3055
  908MOL0     H22525   4.256  10.936  10.394 -3.7572  0.3154  1.8138
  908MOL0     H22526   4.109  10.972  10.319 -0.9321 -0.0790  3.8429
  908MOL0     H22527   4.061  10.728  10.278  1.9645  0.6431 -3.0979
  908MOL0     H22528   4.215  10.703  10.362  0.8575  1.1968 -0.2512
  908MOL0     H22529   3.948  10.744  10.461  0.7432  0.0360 -3.2457
  908MOL0     H22530   4.032  10.894  10.508 -2.6248 -0.1701  1.5938
  908MOL0     H22531   4.271  10.865  10.658 -1.0956  0.9949 -0.1433
  908MOL0     H22532   4.211  10.657  11.006 -1.2332  2.3615  0.2106
  908MOL0     H22533   4.372  10.643  10.920  0.7786 -0.5455  0.8204
  908MOL0     H22534   4.352  10.898  10.888  0.6352 -0.2076 -0.0258
  908MOL0     H22535   4.391  10.826  11.052 -0.4800 -0.8626 -0.0515
  908MOL0     H22536   4.164  10.836  11.118  0.5287 -2.5255 -1.1464
  908MOL0     H22537   4.114  10.921  10.962 -1.8407 -0.7116  2.7690
  908MOL0     H22538   4.297  11.098  11.044 -0.1174  1.7388  2.3990
  908MOL0     H22539   4.258  11.034  11.203 -0.7430  0.8612  0.4993
  908MOL0     H22540   4.097  10.959  11.336 -1.5858 -0.5894  2.8612
  908MOL0     H22541   4.083  11.054  11.675  0.2196  0.1300 -0.5490
  908MOL0     H22542   3.987  10.924  11.619 -1.2069  1.6559  2.1208
  908MOL0     H22543   4.151  10.954  11.546 -0.4094 -0.5655  0.3918
  908MOL0     H22544   3.844  11.390  11.870 -1.8296  1.8220 -0.8840
  908MOL0     H22545   3.734  11.395  12.093  2.1531 -2.9226  4.0350
  908MOL0     H22546   3.610  11.370  12.299 -0.1380  2.8827 -3.7533
  908MOL0     H22547   3.483  11.346  12.171  0.5268  0.1064 -1.0846
  908MOL0     H22548   3.485  11.209  12.439 -4.9192  0.4575  4.1240
  908MOL0     H22549   3.380  11.342  12.386  1.2104  1.0762 -0.7541
  908MOL0     H22550   3.270  11.100  12.364 -1.4318  0.8828 -0.8332
  908MOL0     H22551   3.394  11.065  12.251  0.5828  1.4254 -0.8325
  908MOL0     H22552   3.216  11.313  12.208  0.7826  0.4071 -2.1007
  908MOL0     H22553   3.304  11.235  12.095 -0.2700 -1.3694  0.8001
  908MOL0     H22554   3.049  11.197  12.083 -1.5930 -2.6639 -3.2127
  908MOL0     H22555   3.061  11.089  12.219 -3.0789  2.2567 -0.4824
  908MOL0     H22556   3.224  11.081  11.953 -0.9158  2.3421  0.7607
  908MOL0     H22557   3.225  10.957  12.086 -1.0935  0.8688  0.8494
  908MOL0     H22558   3.009  11.017  11.886 -1.1069  0.3450 -0.6259
  908MOL0     H22559   2.981  10.928  12.044 -0.6646  1.2691  0.6139
  908MOL0     H22560   3.114  10.746  11.967 -0.4715 -1.3920 -1.4168
  908MOL0     H22561   3.160  10.832  11.806 -2.5335  1.7824 -2.8860
  908MOL0     H22562   3.604  11.003  12.062 -0.0497  1.3256  2.4364
  908MOL0     H22563   3.713  10.986  11.820 -2.4642  0.4567 -0.7709
  908MOL0     H22564   3.754  11.299  11.340  0.9124  1.1328 -0.5735
  908MOL0     H22565   3.883  11.260  11.130 -0.0984 -2.5986 -1.6614
  908MOL0     H22566   4.689  10.915   9.737  0.8051 -2.0179  0.5928
  908MOL0     H22567   4.868  10.934   9.541 -1.0384  0.4163  0.3499
  908MOL0     H22568   5.412  11.157   9.474  1.5508  0.4032 -1.0645
  908MOL0     H22569   5.528  11.177   9.259 -0.0954 -0.8331  0.9741
  908MOL0     H22570   5.651  10.927   9.116  0.0840 -1.4684 -0.7094
  908MOL0     H22571   5.551  10.822   9.019 -1.3766  0.6316 -0.8847
  908MOL0     H22572   5.647  11.078   8.929 -0.0273 -0.3488  5.0521
  908MOL0     H22573   5.572  10.962   8.822  2.3398 -0.0877 -1.5599
  908MOL0     H22574   5.752  10.799   8.839 -0.8049  0.4159 -1.0349
  908MOL0     H22575   5.845  10.909   8.956 -0.6033  3.9137  0.3089
  908MOL0     H22576   5.747  11.008   8.683 -1.2559 -1.9051 -0.8957
  908MOL0     H22577   5.892  10.913   8.686  2.6338  1.9625 -0.0597
  908MOL0     H22578   5.934  11.332   8.782  0.2073  0.1636 -0.6624
  908MOL0     H22579   5.282  10.864   9.101  1.7064 -3.6534  1.4548
  908MOL0     H22580   5.172  10.847   9.331 -0.5560  0.4616 -0.2618
  909MOL0     O22581   5.252   6.344   0.162  0.3877  0.1149  0.4969
  909MOL0     C22582   5.326   6.248   0.181  0.1481  0.0952  0.3855
  909MOL0     O22583   5.447   6.260   0.248 -0.2376  0.2071  0.0202
  909MOL0     C22584   5.495   6.381   0.270  0.4303 -0.2775  0.7293
  909MOL0     C22585   5.567   6.442   0.165  0.1763 -0.4719 -0.5866
  909MOL0     C22586   5.610   6.580   0.177  0.1072  0.3154  1.2513
  909MOL0     C22587   5.607   6.642   0.300  0.4036 -0.1379 -0.5645
  909MOL0     O22588   5.656   6.767   0.329  0.1485 -0.4218  0.6544
  909MOL0     C22589   5.794   6.757   0.362 -0.2760  0.0986 -0.0190
  909MOL0     C22590   5.846   6.885   0.442 -0.3542  0.1629 -0.0528
  909MOL0     C22591   5.996   6.891   0.423  0.2301 -0.8216 -0.2825
  909MOL0     C22592   6.071   6.989   0.518 -0.5387  0.1457 -1.1343
  909MOL0     C22593   5.994   7.125   0.546 -0.5423  0.1600  0.0135
  909MOL0     C22594   6.077   7.210   0.634  0.0316 -0.2182  0.2960
  909MOL0     C22595   5.985   7.328   0.673 -0.0822 -0.6081 -0.0950
  909MOL0     C22596   6.061   7.429   0.761  0.9729  0.5505 -0.6641
  909MOL0     N22597   6.150   7.383   0.866  0.3020  0.2854  0.3226
  909MOL0     C22598   6.122   7.384   0.994 -0.4160 -0.1064  0.3436
  909MOL0     C22599   6.231   7.322   1.043 -0.3893  1.1229  0.6818
  909MOL0     C22600   6.253   7.272   1.180 -0.6015 -0.2859  0.8056
  909MOL0     C22601   6.209   7.119   1.189 -0.7748 -0.4275  1.4245
  909MOL0     C22602   6.267   7.043   1.308 -0.4398 -0.4554 -0.1780
  909MOL0     C22603   6.196   7.097   1.436  0.2417 -0.1277 -0.1674
  909MOL0     O22604   6.215   6.996   1.530 -0.8191  1.1442 -0.3244
  909MOL0     C22605   6.135   6.977   1.641  1.0277 -0.6076 -0.1075
  909MOL0     C22606   6.125   6.854   1.703  0.7174  0.2011  0.1830
  909MOL0     C22607   6.052   6.835   1.824  0.1722 -0.4001 -0.6931
  909MOL0     C22608   6.054   6.688   1.883 -0.2230 -0.3530 -0.7046
  909MOL0     C22609   5.974   6.945   1.872  0.0071 -0.2106 -0.6996
  909MOL0     C22610   5.896   6.925   1.990  0.6063 -0.2823 -0.1384
  909MOL0     O22611   5.948   6.947   2.116  0.3494  0.3149 -0.2593
  909MOL0     C22612   5.871   6.876   2.218  0.2713  0.3415 -0.5106
  909MOL0     C22613   5.809   6.752   2.205 -0.0806 -0.6567 -0.3809
  909MOL0     C22614   5.737   6.708   2.322  0.6095 -0.3392  0.0591
  909MOL0     C22615   5.743   6.768   2.446 -0.5500 -0.2160 -0.2012
  909MOL0     O22616   5.686   6.731   2.561  0.4049 -0.1846  0.3309
  909MOL0     C22617   5.712   6.585   2.591  0.2741 -0.2684 -0.1816
  909MOL0     C22618   5.584   6.513   2.625 -0.4369 -0.5351  0.2292
  909MOL0     C22619   5.546   6.555   2.770 -0.8999  0.4078 -0.2897
  909MOL0     C22620   5.422   6.470   2.818 -0.6093 -0.5691 -0.4059
  909MOL0     C22621   5.299   6.467   2.730 -0.2332  0.1010 -0.1464
  909MOL0     C22622   5.202   6.352   2.760 -0.2214 -0.6453  0.0301
  909MOL0     C22623   5.088   6.346   2.668 -0.0230  0.7129  0.2008
  909MOL0     C22624   5.118   6.346   2.515  0.3361 -0.2811  0.6059
  909MOL0    Cl22625   5.266   6.250   2.477  0.2791 -0.0611 -0.8118
  909MOL0     C22626   5.823   6.875   2.457 -0.1218  0.7168 -0.7317
  909MOL0     C22627   5.855   6.938   2.341 -0.4598 -0.6112 -0.4933
  909MOL0     O22628   5.773   6.918   1.971 -0.5697 -0.3950 -0.6679
  909MOL0     C22629   5.983   7.076   1.815  0.4708  0.1927  0.3833
  909MOL0     C22630   6.058   7.088   1.700 -0.9422  0.2888 -0.0357
  909MOL0     N22631   6.325   7.298   0.943  0.4044 -0.5195 -0.0346
  909MOL0     N22632   6.279   7.341   0.831 -0.1122 -0.4681 -0.1553
  909MOL0     C22633   5.539   6.577   0.407 -0.0649  0.6344 -0.4234
  909MOL0     C22634   5.484   6.450   0.387 -0.6432  0.0518  0.1534
  909MOL0     C22635   5.275   6.122   0.154 -0.4734  0.6828 -0.2859
  909MOL0     C22636   5.167   6.099   0.068  0.3559 -0.0031  0.1302
  909MOL0     C22637   5.126   5.974   0.033 -0.3405 -0.0384 -0.1202
  909MOL0     C22638   5.188   5.856   0.078  0.1720 -0.5156 -0.1113
  909MOL0     O22639   5.155   5.734   0.017  0.3704  0.5539  0.8843
  909MOL0     C22640   5.221   5.613   0.050  1.1907  0.1402  1.1259
  909MOL0     C22641   5.328   5.592  -0.059  0.4669 -0.6453 -0.3818
  909MOL0     C22642   5.265   5.601  -0.199  0.2478 -0.4180  0.2152
  909MOL0     C22643   5.302   5.740  -0.262 -0.1832 -0.2472 -0.1220
  909MOL0     C22644   5.218   5.745  -0.377  0.2768 -0.2338  0.3506
  909MOL0     C22645   5.140   5.744  -0.473 -0.8248  0.7483  0.3032
  909MOL0     C22646   5.286   5.876   0.177 -0.0567  0.1286 -0.2066
  909MOL0     C22647   5.334   6.004   0.202  0.0495  0.7005  0.1036
  909MOL0     H22648   5.580   6.375   0.081 -1.2651 -0.5114 -0.8001
  909MOL0     H22649   5.658   6.621   0.089  0.4254  0.7625  1.6262
  909MOL0     H22650   5.798   6.671   0.430  2.0467 -1.3092 -1.7419
  909MOL0     H22651   5.856   6.740   0.273  1.7864 -1.3903  1.5900
  909MOL0     H22652   5.791   6.970   0.403 -1.0406 -1.8156 -3.8956
  909MOL0     H22653   5.825   6.873   0.549 -0.7469 -4.0335 -0.4123
  909MOL0     H22654   6.032   6.789   0.434  1.3564 -0.3030  1.1523
  909MOL0     H22655   6.025   6.909   0.319  1.4363 -1.4404 -0.0722
  909MOL0     H22656   6.086   6.931   0.610  1.8013  0.1424 -1.4556
  909MOL0     H22657   6.175   7.011   0.494 -0.2349  0.8053  0.6292
  909MOL0     H22658   5.996   7.177   0.450  1.5944 -2.1715 -1.3455
  909MOL0     H22659   5.895   7.105   0.589  0.2168 -2.3025  0.8095
  909MOL0     H22660   6.098   7.150   0.723 -2.1835 -3.9392 -1.4405
  909MOL0     H22661   6.172   7.249   0.596 -0.7514  4.2916  2.3220
  909MOL0     H22662   5.936   7.369   0.584  0.4272  1.8515  0.6651
  909MOL0     H22663   5.909   7.287   0.740  1.7476  0.2942  2.6928
  909MOL0     H22664   5.987   7.492   0.812 -1.7695 -2.7657 -0.1597
  909MOL0     H22665   6.112   7.482   0.680  1.2779  1.6327  0.2209
  909MOL0     H22666   6.033   7.416   1.049 -0.5748  0.8046 -0.4110
  909MOL0     H22667   6.360   7.268   1.207  0.2533 -0.8038 -2.2926
  909MOL0     H22668   6.200   7.333   1.253 -3.3209  0.1141 -1.3567
  909MOL0     H22669   6.242   7.060   1.103  2.3420 -0.2824  2.4021
  909MOL0     H22670   6.101   7.116   1.207 -0.7155 -0.7653  1.7311
  909MOL0     H22671   6.374   7.061   1.310 -0.5205  0.1003 -0.4817
  909MOL0     H22672   6.240   6.938   1.293 -3.5083 -0.9349  5.7367
  909MOL0     H22673   6.091   7.106   1.408  1.3783  0.3177 -5.3519
  909MOL0     H22674   6.227   7.199   1.463 -1.5498  0.8920 -1.6722
  909MOL0     H22675   6.173   6.774   1.646 -1.3764  0.5770 -2.2834
  909MOL0     H22676   6.159   6.660   1.879  0.4506  2.0814 -1.6907
  909MOL0     H22677   5.997   6.686   1.977 -0.7141  1.8956 -0.8963
  909MOL0     H22678   6.014   6.610   1.818  0.9286 -1.7167  0.1871
  909MOL0     H22679   5.814   6.697   2.112  0.4599  0.1327 -0.8304
  909MOL0     H22680   5.670   6.624   2.307  2.5854 -1.7466 -1.5247
  909MOL0     H22681   5.757   6.533   2.506 -0.4470 -2.2884  0.5977
  909MOL0     H22682   5.793   6.575   2.663  6.2792  2.5703 -5.5168
  909MOL0     H22683   5.510   6.548   2.552  1.6450  1.7536 -0.9105
  909MOL0     H22684   5.591   6.404   2.623 -0.2786 -0.6146  2.3109
  909MOL0     H22685   5.539   6.662   2.792 -0.3380  0.0036  2.0805
  909MOL0     H22686   5.625   6.517   2.835  0.7068 -1.1301 -2.9457
  909MOL0     H22687   5.448   6.366   2.842  2.0564  0.3620  1.1296
  909MOL0     H22688   5.397   6.520   2.912 -1.3894 -2.5453  0.5114
  909MOL0     H22689   5.343   6.437   2.635  1.9795  2.4895 -0.0051
  909MOL0     H22690   5.255   6.567   2.729  0.0418  0.2272  0.1431
  909MOL0     H22691   5.246   6.251   2.760  0.2007 -0.6984 -4.4993
  909MOL0     H22692   5.165   6.363   2.862 -3.4638  0.5755 -1.1686
  909MOL0     H22693   5.013   6.425   2.681  0.4350  1.1777  0.0606
  909MOL0     H22694   5.038   6.253   2.694  0.3091  0.5755  0.3505
  909MOL0     H22695   5.136   6.444   2.471 -1.4627 -0.3956 -0.4571
  909MOL0     H22696   5.034   6.309   2.457  0.7897 -0.8375  0.2952
  909MOL0     H22697   5.829   6.923   2.554 -4.0734 -2.5358  1.3952
  909MOL0     H22698   5.911   7.029   2.359  0.2342 -0.5252 -2.7266
  909MOL0     H22699   5.914   7.153   1.850  2.2451  1.8792  0.3128
  909MOL0     H22700   6.056   7.182   1.646 -1.2864 -0.1290 -0.7658
  909MOL0     H22701   5.528   6.629   0.502 -1.2547  0.4144 -0.4240
  909MOL0     H22702   5.413   6.409   0.458 -2.8473 -3.1792 -3.5544
  909MOL0     H22703   5.123   6.189   0.028  1.4381 -0.1478 -1.4424
  909MOL0     H22704   5.047   5.974  -0.041 -0.2441  2.6490 -0.3260
  909MOL0     H22705   5.261   5.628   0.151 -0.1637  3.6596  1.2666
  909MOL0     H22706   5.141   5.538   0.048  1.0566  0.2958  0.2454
  909MOL0     H22707   5.357   5.487  -0.052 -1.3436 -1.3222 -2.1122
  909MOL0     H22708   5.408   5.667  -0.057  1.5393 -1.7487 -0.5342
  909MOL0     H22709   5.157   5.588  -0.192  0.5863 -3.0166  2.0109
  909MOL0     H22710   5.301   5.519  -0.263 -1.6126  0.4832 -2.1213
  909MOL0     H22711   5.403   5.728  -0.300 -0.8881  0.7233 -2.4660
  909MOL0     H22712   5.303   5.823  -0.190  0.1843  1.3758 -1.9042
  909MOL0     H22713   5.078   5.728  -0.559  0.2869  0.5209 -0.4818
  909MOL0     H22714   5.339   5.791   0.219 -0.8440 -0.5101 -0.4854
  909MOL0     H22715   5.412   6.012   0.278 -1.8403  0.2032  2.2230
  910MOL0     O22716   3.886   3.193   0.567 -0.6695  0.0588 -0.5297
  910MOL0     C22717   3.786   3.181   0.494  0.0898 -0.0990  0.2599
  910MOL0     O22718   3.665   3.250   0.504  0.1256 -0.3134 -0.5542
  910MOL0     C22719   3.631   3.333   0.608  0.5475 -0.6125  0.9770
  910MOL0     C22720   3.506   3.409   0.592 -0.1023 -0.4046 -0.8224
  910MOL0     C22721   3.451   3.474   0.697  0.6648 -0.5214 -0.2036
  910MOL0     C22722   3.499   3.447   0.831 -1.1363 -1.3123 -1.3315
  910MOL0     O22723   3.437   3.485   0.948  0.2477  0.0660 -0.0250
  910MOL0     C22724   3.474   3.615   0.981 -0.9281  1.0021 -0.8774
  910MOL0     C22725   3.376   3.720   0.933 -0.1258 -0.6895 -0.5788
  910MOL0     C22726   3.231   3.676   0.917 -0.8682 -0.0102 -0.4375
  910MOL0     C22727   3.150   3.805   0.921  0.4291  0.2653 -0.1327
  910MOL0     C22728   3.006   3.783   0.870 -0.0528 -0.0268 -0.4125
  910MOL0     C22729   2.935   3.920   0.869  0.0745 -0.0233 -0.9662
  910MOL0     C22730   2.791   3.904   0.817 -0.5301 -0.7498 -0.1902
  910MOL0     C22731   2.697   4.023   0.849  0.0294 -0.2227 -0.2703
  910MOL0     N22732   2.555   4.003   0.796 -0.0385 -1.2150 -0.1134
  910MOL0     C22733   2.447   3.992   0.877 -0.1892  0.0978  0.2999
  910MOL0     C22734   2.348   3.970   0.792 -0.0413 -1.4109  0.1914
  910MOL0     C22735   2.206   3.974   0.815  0.6569 -0.6570 -0.6868
  910MOL0     C22736   2.170   4.083   0.924 -0.8762 -0.0204  0.0164
  910MOL0     C22737   2.224   4.225   0.893  0.6955  0.2182  0.6451
  910MOL0     C22738   2.197   4.310   1.016 -0.7104 -0.4030 -0.1738
  910MOL0     O22739   2.272   4.280   1.143 -0.3158  0.5808 -0.0300
  910MOL0     C22740   2.407   4.272   1.143 -0.2443  1.0739  0.6599
  910MOL0     C22741   2.497   4.349   1.069  0.1824 -0.5123 -0.0652
  910MOL0     C22742   2.637   4.338   1.079  1.0021  0.1500  0.2123
  910MOL0     C22743   2.724   4.435   1.004  0.9737  0.1354 -0.9766
  910MOL0     C22744   2.694   4.239   1.164  0.2519  0.7628  0.8190
  910MOL0     C22745   2.833   4.190   1.161 -0.3808 -0.0264  0.1770
  910MOL0     O22746   2.878   4.145   1.278  0.6685  1.0011 -0.2151
  910MOL0     C22747   3.006   4.096   1.278  0.3958 -1.0972 -0.2468
  910MOL0     C22748   3.112   4.172   1.227 -0.1032 -0.4037 -0.3721
  910MOL0     C22749   3.243   4.114   1.220 -0.5409 -1.9697  0.0451
  910MOL0     C22750   3.267   3.980   1.265 -0.9750 -0.6447 -0.0854
  910MOL0     O22751   3.385   3.921   1.271  0.1563  0.2687  0.0571
  910MOL0     C22752   3.507   4.002   1.245 -0.1075 -0.5626 -0.2610
  910MOL0     C22753   3.629   3.918   1.292  0.2784 -1.1006 -0.1597
  910MOL0     C22754   3.775   3.972   1.279  0.8902 -0.1034  0.8796
  910MOL0     C22755   3.875   3.857   1.292  0.1576  0.0791 -0.4857
  910MOL0     C22756   4.013   3.907   1.255 -0.1980  0.3898  0.6304
  910MOL0     C22757   4.122   3.798   1.251 -0.2975 -0.7849  0.2795
  910MOL0     C22758   4.146   3.721   1.394  0.4312  0.3204  0.4494
  910MOL0     C22759   4.280   3.653   1.389 -0.0744 -0.2476  0.3703
  910MOL0    Cl22760   4.298   3.547   1.537  0.3584 -0.4373 -0.1106
  910MOL0     C22761   3.158   3.916   1.330 -0.0584 -0.5792 -0.5855
  910MOL0     C22762   3.028   3.975   1.332  0.1143  0.3419  0.4798
  910MOL0     O22763   2.895   4.196   1.053 -0.4558 -0.1188 -0.3050
  910MOL0     C22764   2.603   4.169   1.241 -0.1442  0.4383 -0.7868
  910MOL0     C22765   2.467   4.196   1.245 -1.1043  0.1546  0.9094
  910MOL0     N22766   2.398   3.959   0.660 -0.0539  0.5842  0.7014
  910MOL0     N22767   2.526   3.981   0.665  0.5916 -0.0862 -0.6245
  910MOL0     C22768   3.613   3.361   0.845  0.4525  0.1816 -0.6449
  910MOL0     C22769   3.673   3.304   0.737  0.1386 -0.5008 -0.2226
  910MOL0     C22770   3.798   3.073   0.394  0.9978  0.5108 -0.1174
  910MOL0     C22771   3.705   3.053   0.290  0.2514 -0.4342 -0.2189
  910MOL0     C22772   3.713   2.952   0.200  0.2768 -0.0360  1.0077
  910MOL0     C22773   3.820   2.865   0.200  0.3472 -0.1384 -0.3179
  910MOL0     O22774   3.815   2.753   0.107  1.1607  0.9682  0.1445
  910MOL0     C22775   3.916   2.654   0.102  0.1465 -0.2749 -0.8023
  910MOL0     C22776   3.888   2.560  -0.010 -0.1821  0.2037 -0.8203
  910MOL0     C22777   3.910   2.617  -0.154  0.4382 -0.8433 -0.3490
  910MOL0     C22778   3.900   2.507  -0.265  0.7963 -0.7900  0.0524
  910MOL0     C22779   3.771   2.436  -0.253  0.2388 -0.4307  0.3892
  910MOL0     C22780   3.661   2.384  -0.250  0.7090  0.6276  0.1332
  910MOL0     C22781   3.910   2.876   0.302 -0.3711  0.6976  0.0678
  910MOL0     C22782   3.896   2.971   0.405 -0.5030 -0.4483 -0.5791
  910MOL0     H22783   3.459   3.403   0.494  0.8409 -1.3297 -1.2448
  910MOL0     H22784   3.358   3.521   0.665  1.4059  1.6691  0.6760
  910MOL0     H22785   3.499   3.615   1.087  2.8411  0.8245 -1.6233
  910MOL0     H22786   3.567   3.647   0.933 -1.4177 -0.5019 -2.9496
  910MOL0     H22787   3.385   3.807   0.998  1.4414 -1.8415  0.8041
  910MOL0     H22788   3.410   3.756   0.835  3.9410  0.0004  0.9102
  910MOL0     H22789   3.221   3.627   0.820  0.7872 -1.8006  0.2442
  910MOL0     H22790   3.218   3.621   1.011 -2.5141  3.1390  1.3680
  910MOL0     H22791   3.152   3.842   1.024  3.3988 -0.9897  0.3562
  910MOL0     H22792   3.202   3.876   0.856  0.5833  1.3839  1.1621
  910MOL0     H22793   2.992   3.728   0.777 -5.9229 -0.9915  0.6348
  910MOL0     H22794   2.949   3.714   0.934 -0.1810  1.4857  1.1981
  910MOL0     H22795   2.934   3.961   0.970  0.2822  1.1143 -1.4088
  910MOL0     H22796   2.991   3.989   0.805  1.7318 -0.3547  0.0506
  910MOL0     H22797   2.802   3.892   0.709 -0.2734  2.3777 -0.6101
  910MOL0     H22798   2.738   3.818   0.860 -1.4912  1.3770  3.3414
  910MOL0     H22799   2.734   4.121   0.818 -2.9609  1.2082  0.3914
  910MOL0     H22800   2.683   4.026   0.957 -1.2223  1.9032 -0.4333
  910MOL0     H22801   2.431   4.010   0.983 -0.3880 -1.2179  0.5015
  910MOL0     H22802   2.152   3.990   0.721  2.4700 -2.1726 -2.0651
  910MOL0     H22803   2.172   3.873   0.839 -1.3662 -0.1548 -1.2416
  910MOL0     H22804   2.213   4.046   1.017  0.9424  2.3031  0.2015
  910MOL0     H22805   2.061   4.086   0.932 -1.1574 -0.6516 -2.6143
  910MOL0     H22806   2.172   4.263   0.805  1.2264  1.8227  0.9964
  910MOL0     H22807   2.329   4.231   0.862  1.2628 -2.8376  1.6493
  910MOL0     H22808   2.090   4.310   1.034 -0.3681 -0.7929  2.1918
  910MOL0     H22809   2.213   4.413   0.983 -1.4934 -0.2429 -0.0712
  910MOL0     H22810   2.476   4.420   0.990  2.2897  0.5709  0.2901
  910MOL0     H22811   2.752   4.388   0.909  0.6201 -0.7375 -0.6508
  910MOL0     H22812   2.659   4.520   0.982 -5.0739 -4.1769 -2.2074
  910MOL0     H22813   2.811   4.457   1.067  1.8938  1.6265 -2.6659
  910MOL0     H22814   3.099   4.276   1.198 -0.3755 -0.3713 -0.1311
  910MOL0     H22815   3.317   4.181   1.177 -1.6136 -1.1180 -0.5225
  910MOL0     H22816   3.515   4.027   1.139  0.2902 -1.5506 -0.4752
  910MOL0     H22817   3.505   4.092   1.307  1.4979  0.7409 -2.0187
  910MOL0     H22818   3.612   3.893   1.397  0.2789 -3.3369 -0.6455
  910MOL0     H22819   3.636   3.825   1.235  2.4127 -1.9994  1.4039
  910MOL0     H22820   3.805   4.044   1.356  0.2257 -3.1635  4.2861
  910MOL0     H22821   3.792   4.021   1.183 -1.3577 -1.8083 -0.5023
  910MOL0     H22822   3.867   3.824   1.395  2.2814  0.4445 -0.1513
  910MOL0     H22823   3.847   3.772   1.228  1.1129 -0.1521 -0.6069
  910MOL0     H22824   4.041   3.991   1.320  0.9227  2.5314 -2.4167
  910MOL0     H22825   4.020   3.962   1.161  1.2008  2.4141  1.8218
  910MOL0     H22826   4.114   3.724   1.171 -1.8701 -2.4921  1.8840
  910MOL0     H22827   4.216   3.853   1.246  0.5975 -1.4396  4.8178
  910MOL0     H22828   4.070   3.643   1.401  1.5836 -0.8901 -0.0429
  910MOL0     H22829   4.135   3.786   1.481  1.8519  1.7432 -0.3714
  910MOL0     H22830   4.365   3.721   1.380 -1.7027  1.7966 -0.3266
  910MOL0     H22831   4.275   3.589   1.300 -2.1245  0.5426 -0.1240
  910MOL0     H22832   3.181   3.818   1.369  3.9559 -1.7680 -4.9676
  910MOL0     H22833   2.958   3.912   1.386 -0.8885 -0.8734 -2.1043
  910MOL0     H22834   2.624   4.097   1.320  2.8915  0.8502 -1.0995
  910MOL0     H22835   2.406   4.153   1.325  0.0659 -1.1229  1.1487
  910MOL0     H22836   3.643   3.323   0.942 -1.9413  0.7111  0.3939
  910MOL0     H22837   3.745   3.226   0.760  3.7433  1.4775 -3.7278
  910MOL0     H22838   3.622   3.122   0.279  0.6567 -0.1423 -1.6416
  910MOL0     H22839   3.631   2.934   0.132  1.6615  0.3856 -0.8417
  910MOL0     H22840   4.018   2.695   0.102 -0.1598  0.7993  2.4609
  910MOL0     H22841   3.917   2.596   0.195 -4.0362 -0.4740 -0.6955
  910MOL0     H22842   3.793   2.509   0.004 -1.0459  1.5514 -1.6208
  910MOL0     H22843   3.960   2.477  -0.006 -1.2907 -0.8306  3.5980
  910MOL0     H22844   4.000   2.679  -0.141  0.6960 -1.6311  2.2040
  910MOL0     H22845   3.826   2.684  -0.175  1.7064  0.3812 -1.7238
  910MOL0     H22846   3.982   2.434  -0.262  1.0333 -0.5045  0.8054
  910MOL0     H22847   3.921   2.561  -0.357 -0.9230  2.6669  1.4869
  910MOL0     H22848   3.560   2.347  -0.243  1.4128 -2.4260 -3.0530
  910MOL0     H22849   3.988   2.800   0.304 -3.1181 -2.4860  3.9684
  910MOL0     H22850   3.961   2.966   0.492 -2.0513  1.5774  0.7786
  911MOL0     O22851   2.625   3.543   8.882  0.1973 -0.5570 -0.0519
  911MOL0     C22852   2.622   3.598   8.986 -0.7880 -0.4816  1.1862
  911MOL0     O22853   2.734   3.627   9.069 -1.1069 -0.3762  0.3089
  911MOL0     C22854   2.859   3.635   9.006  0.1585 -0.1692 -0.5310
  911MOL0     C22855   2.895   3.673   8.883  1.0191  0.2140 -0.0809
  911MOL0     C22856   3.025   3.697   8.848  0.5564  0.0728 -0.7790
  911MOL0     C22857   3.130   3.675   8.941  1.3714 -0.0055 -0.7633
  911MOL0     O22858   3.263   3.681   8.913  0.7156 -0.3621  0.3695
  911MOL0     C22859   3.305   3.747   8.797 -0.4690 -0.5410  0.0054
  911MOL0     C22860   3.456   3.727   8.768  0.2592  0.0585 -1.3057
  911MOL0     C22861   3.480   3.827   8.656  0.1442 -0.5206  1.0914
  911MOL0     C22862   3.626   3.816   8.615 -0.0047 -0.8873 -0.3665
  911MOL0     C22863   3.666   3.887   8.486  1.1885 -0.0631 -0.2238
  911MOL0     C22864   3.691   4.041   8.483  0.6088 -0.5012 -0.0433
  911MOL0     C22865   3.826   4.084   8.549 -0.3867  0.3323 -0.2751
  911MOL0     C22866   3.844   4.233   8.525 -0.0036 -0.7038 -1.2666
  911MOL0     N22867   3.828   4.322   8.643  0.0871  0.0852  0.5975
  911MOL0     C22868   3.926   4.354   8.729 -0.4324  0.3292 -0.6740
  911MOL0     C22869   3.858   4.430   8.814 -0.3557  0.6592 -0.7186
  911MOL0     C22870   3.913   4.490   8.943  1.0721 -0.1615 -0.0040
  911MOL0     C22871   3.880   4.643   8.958  1.2500 -1.9982 -0.7591
  911MOL0     C22872   3.763   4.668   9.050  0.3591  0.1107  0.2136
  911MOL0     C22873   3.746   4.814   9.063 -0.6918  0.1351 -0.3021
  911MOL0     O22874   3.630   4.857   9.130 -0.1056  0.0926  0.2509
  911MOL0     C22875   3.662   4.919   9.248  1.0555  0.3917 -0.1821
  911MOL0     C22876   3.698   5.047   9.257  0.1823  0.5375 -0.2290
  911MOL0     C22877   3.727   5.115   9.378  0.2675  0.6408 -0.0185
  911MOL0     C22878   3.769   5.255   9.384 -0.6952 -0.6653 -0.8345
  911MOL0     C22879   3.715   5.045   9.501  0.0504  0.7680 -1.0908
  911MOL0     C22880   3.761   5.084   9.641  0.6808  0.9405  0.7483
  911MOL0     O22881   3.767   5.208   9.674  0.2338  0.6965 -0.3924
  911MOL0     C22882   3.794   5.247   9.805  0.3819 -0.8367 -0.4691
  911MOL0     C22883   3.714   5.201   9.912 -0.3671  0.0744  0.4810
  911MOL0     C22884   3.732   5.255  10.037 -0.5812  0.1180  1.2982
  911MOL0     C22885   3.830   5.345  10.067 -0.8331 -0.4993 -0.4566
  911MOL0     O22886   3.855   5.393  10.198  0.2357  0.0353 -0.1598
  911MOL0     C22887   3.740   5.441  10.265  0.3698  0.7849  0.3039
  911MOL0     C22888   3.771   5.546  10.371 -0.3939  0.5507  0.0810
  911MOL0     C22889   3.654   5.611  10.435  0.6434  0.2572  0.0844
  911MOL0     C22890   3.695   5.712  10.551  0.7316 -0.6615 -0.2593
  911MOL0     C22891   3.577   5.798  10.588 -0.5377  0.4113  0.2259
  911MOL0     C22892   3.445   5.726  10.587 -0.5617  0.7336  0.2782
  911MOL0     C22893   3.332   5.805  10.649 -0.3461  0.5544  0.6686
  911MOL0     C22894   3.194   5.733  10.627 -0.0310  0.6481 -0.0849
  911MOL0    Cl22895   3.190   5.568  10.712 -0.1623 -0.2118 -0.1249
  911MOL0     C22896   3.920   5.381   9.967 -1.0241  0.2958 -0.0598
  911MOL0     C22897   3.907   5.332   9.836  0.8536  0.2214  0.3913
  911MOL0     O22898   3.796   4.989   9.724 -0.0606 -0.4147 -0.1372
  911MOL0     C22899   3.669   4.908   9.484  0.7081 -0.2885 -0.5620
  911MOL0     C22900   3.646   4.843   9.363 -0.2248  0.0893 -0.7321
  911MOL0     N22901   3.725   4.434   8.792 -0.3914 -0.2713  0.1704
  911MOL0     N22902   3.703   4.362   8.693 -1.1429 -0.2352  0.4866
  911MOL0     C22903   3.098   3.637   9.071 -0.0733  0.3883 -0.1333
  911MOL0     C22904   2.967   3.624   9.098  0.5903 -0.1864  0.0839
  911MOL0     C22905   2.495   3.643   9.045  0.3138 -0.2880 -0.3676
  911MOL0     C22906   2.376   3.591   8.998  0.0841  0.4410 -0.1707
  911MOL0     C22907   2.260   3.637   9.051 -0.5349  0.3715  0.2284
  911MOL0     C22908   2.255   3.748   9.133  0.0446 -0.3044 -0.1821
  911MOL0     O22909   2.138   3.796   9.173 -0.0599 -0.5489 -0.4567
  911MOL0     C22910   2.141   3.926   9.220 -1.4237 -0.4748 -0.9293
  911MOL0     C22911   2.022   4.003   9.168 -0.0467  0.0011 -0.2305
  911MOL0     C22912   1.900   3.937   9.224  0.7346 -0.1823 -0.3901
  911MOL0     C22913   1.772   4.012   9.194 -0.2676 -0.1828  0.5871
  911MOL0     C22914   1.749   4.020   9.052  1.7358  0.1744  0.5186
  911MOL0     C22915   1.721   4.040   8.938  0.8523  0.6352  0.0032
  911MOL0     C22916   2.378   3.803   9.186 -0.0415 -0.1050  0.1318
  911MOL0     C22917   2.501   3.751   9.135  0.0089  0.5268  0.1493
  911MOL0     H22918   2.821   3.688   8.804 -0.2123 -0.4547  0.9000
  911MOL0     H22919   3.053   3.714   8.745  3.6675 -1.8190 -0.3923
  911MOL0     H22920   3.264   3.702   8.706  0.5135 -3.4864  0.9256
  911MOL0     H22921   3.282   3.854   8.807  1.1709 -0.1148 -0.4740
  911MOL0     H22922   3.525   3.748   8.850 -3.3862  4.7961  1.0954
  911MOL0     H22923   3.476   3.623   8.740  2.8064 -0.1609  0.9049
  911MOL0     H22924   3.417   3.807   8.569 -2.9562 -1.0740  3.2892
  911MOL0     H22925   3.454   3.929   8.687  3.9824  1.2253 -0.7608
  911MOL0     H22926   3.700   3.852   8.687 -1.6050  0.3363  0.7636
  911MOL0     H22927   3.635   3.710   8.591 -0.7407 -0.3334 -3.6127
  911MOL0     H22928   3.755   3.835   8.450  1.0556 -0.7821  0.4547
  911MOL0     H22929   3.591   3.862   8.411 -0.0597  0.3573  0.8424
  911MOL0     H22930   3.695   4.057   8.375  1.1147 -2.3310 -0.3435
  911MOL0     H22931   3.608   4.086   8.538 -0.9111  0.2279 -2.7198
  911MOL0     H22932   3.847   4.067   8.655  2.1951  2.3949 -0.3574
  911MOL0     H22933   3.898   4.027   8.491  0.0837  0.8535 -0.2052
  911MOL0     H22934   3.782   4.277   8.446  1.3337  0.2004 -1.8701
  911MOL0     H22935   3.951   4.234   8.500  0.8156 -0.5464  1.9164
  911MOL0     H22936   4.029   4.321   8.735 -1.1385 -2.1610 -1.0754
  911MOL0     H22937   3.871   4.438   9.030 -0.7434  1.8054  0.3862
  911MOL0     H22938   4.022   4.482   8.937  1.0311  0.0226 -1.2824
  911MOL0     H22939   3.864   4.679   8.856 -2.1510 -1.0024 -0.0011
  911MOL0     H22940   3.967   4.697   8.997 -0.8403  1.3660 -0.4214
  911MOL0     H22941   3.781   4.612   9.142  3.0386 -3.4494 -2.1933
  911MOL0     H22942   3.676   4.623   9.002  0.3670  2.2026 -1.8966
  911MOL0     H22943   3.736   4.865   8.967  3.2623 -2.1598 -2.1536
  911MOL0     H22944   3.839   4.851   9.107  0.4123 -0.4018 -2.0749
  911MOL0     H22945   3.724   5.102   9.168  1.9236 -0.1517 -0.1828
  911MOL0     H22946   3.848   5.276   9.457 -1.8133 -3.1151  1.2714
  911MOL0     H22947   3.789   5.285   9.281  1.1535 -0.1434 -0.3579
  911MOL0     H22948   3.687   5.313   9.427  2.6472  2.0829  2.4752
  911MOL0     H22949   3.634   5.133   9.884 -1.7828  2.1814 -0.8491
  911MOL0     H22950   3.670   5.216  10.118  0.2005 -0.9597  1.4032
  911MOL0     H22951   3.673   5.483  10.189 -2.6886  1.4868  3.1225
  911MOL0     H22952   3.691   5.352  10.307 -0.5143  0.6949 -0.8418
  911MOL0     H22953   3.841   5.503  10.442  1.7217  1.4498 -1.3589
  911MOL0     H22954   3.829   5.628  10.328  1.5413 -1.6762 -1.8516
  911MOL0     H22955   3.573   5.545  10.467 -0.3244 -0.9903 -4.3274
  911MOL0     H22956   3.618   5.681  10.360  0.2854  0.8981  0.8367
  911MOL0     H22957   3.746   5.660  10.632  2.0724 -0.8120 -1.1630
  911MOL0     H22958   3.773   5.781  10.519  1.8918 -1.9709 -0.3797
  911MOL0     H22959   3.567   5.870  10.507 -4.1259 -0.8602 -0.6283
  911MOL0     H22960   3.586   5.847  10.685  0.8325 -0.8464  0.7770
  911MOL0     H22961   3.427   5.709  10.480 -1.5875  1.4025  0.3312
  911MOL0     H22962   3.457   5.632  10.643  0.5451 -0.1081 -1.2776
  911MOL0     H22963   3.317   5.902  10.601 -3.3586 -0.3745 -0.4924
  911MOL0     H22964   3.355   5.813  10.756 -0.6385 -2.2898  1.0289
  911MOL0     H22965   3.162   5.719  10.523  0.9404 -1.7296 -0.1210
  911MOL0     H22966   3.120   5.805  10.664  0.3720  1.3284 -0.5741
  911MOL0     H22967   4.001   5.450   9.987 -0.1824 -0.0201 -2.1345
  911MOL0     H22968   3.968   5.371   9.755  3.6671  2.1086  3.1632
  911MOL0     H22969   3.634   4.845   9.565 -0.9000 -2.5570 -2.8419
  911MOL0     H22970   3.611   4.740   9.354 -0.1745 -0.1069  1.0204
  911MOL0     H22971   3.171   3.615   9.149  0.1831 -1.8830 -0.9299
  911MOL0     H22972   2.930   3.606   9.199  1.2447 -2.1736  0.0198
  911MOL0     H22973   2.371   3.506   8.931 -0.9679  1.8605 -1.9992
  911MOL0     H22974   2.161   3.593   9.043 -1.6847  1.7533  4.4149
  911MOL0     H22975   2.147   3.931   9.329  0.6435  0.3097 -1.0372
  911MOL0     H22976   2.228   3.984   9.188 -0.9775 -0.0432  0.9453
  911MOL0     H22977   2.021   4.006   9.059  1.2645  0.4445 -0.2507
  911MOL0     H22978   2.026   4.109   9.198  0.3543  0.8466 -2.9641
  911MOL0     H22979   1.914   3.923   9.331  3.1865 -0.5587 -0.7082
  911MOL0     H22980   1.893   3.839   9.176  0.0992  1.6602 -4.4983
  911MOL0     H22981   1.768   4.105   9.251 -2.2135 -0.5925  1.2261
  911MOL0     H22982   1.692   3.953   9.241 -0.9136  0.2011 -0.0058
  911MOL0     H22983   1.726   4.054   8.832  1.0422 -0.2121 -0.1111
  911MOL0     H22984   2.381   3.883   9.259  2.5356  1.7122 -1.7603
  911MOL0     H22985   2.595   3.798   9.161  0.1432  0.7288 -0.6670
  912MOL0     O22986   4.035   7.167   4.432  0.6069 -0.0903 -0.8902
  912MOL0     C22987   4.010   7.204   4.547 -0.3273  0.6692 -0.9535
  912MOL0     O22988   4.101   7.255   4.627  0.7446  0.4289  0.1954
  912MOL0     C22989   4.240   7.259   4.599 -0.1957 -0.0318 -0.0808
  912MOL0     C22990   4.309   7.148   4.556 -0.6703 -0.9812 -0.3167
  912MOL0     C22991   4.442   7.166   4.519  1.0301  0.4920  0.1769
  912MOL0     C22992   4.510   7.295   4.526 -0.1216  0.3589  0.7345
  912MOL0     O22993   4.638   7.309   4.475  0.3179 -0.5472  0.1851
  912MOL0     C22994   4.707   7.428   4.518 -0.2077  0.9530  0.0133
  912MOL0     C22995   4.854   7.416   4.467  0.0439  0.1691 -0.1409
  912MOL0     C22996   4.891   7.451   4.324  0.4866  0.2080  0.5899
  912MOL0     C22997   4.851   7.590   4.271  0.9313  0.8733  0.1958
  912MOL0     C22998   4.892   7.596   4.123  1.0941  0.5563  0.8188
  912MOL0     C22999   4.857   7.726   4.062 -0.5167  0.1151 -0.3421
  912MOL0     C23000   4.697   7.730   4.050  0.5747 -0.4943 -0.1176
  912MOL0     C23001   4.648   7.858   3.973  0.3746  0.2424 -0.2306
  912MOL0     N23002   4.683   7.979   4.051 -0.0813 -0.7497  0.6831
  912MOL0     C23003   4.784   8.075   4.020  0.4513  0.0717  0.0059
  912MOL0     C23004   4.805   8.141   4.137 -0.3384 -0.5069 -0.4508
  912MOL0     C23005   4.899   8.252   4.174 -0.3059 -0.1479 -0.1089
  912MOL0     C23006   5.035   8.235   4.107 -1.4905  0.8920 -0.5408
  912MOL0     C23007   5.143   8.319   4.175 -0.4275  0.2295 -0.2179
  912MOL0     C23008   5.180   8.286   4.323 -0.1075 -0.4673  0.4285
  912MOL0     O23009   5.295   8.365   4.361  0.9310  0.2324 -0.3120
  912MOL0     C23010   5.352   8.342   4.479  0.1581 -0.1664  0.1176
  912MOL0     C23011   5.418   8.453   4.528  0.6075 -0.0020 -0.4428
  912MOL0     C23012   5.460   8.460   4.659 -0.4449  0.1628  0.5994
  912MOL0     C23013   5.487   8.601   4.709 -0.2237 -0.0129 -1.5696
  912MOL0     C23014   5.441   8.347   4.738 -0.3066 -0.8750 -0.4156
  912MOL0     C23015   5.485   8.349   4.884 -1.0069 -0.0219  0.8356
  912MOL0     O23016   5.544   8.465   4.942 -0.2838  0.2715 -0.0118
  912MOL0     C23017   5.598   8.469   5.069  0.3109  0.3043 -0.0504
  912MOL0     C23018   5.569   8.387   5.184 -0.7704 -0.1504 -0.5256
  912MOL0     C23019   5.645   8.410   5.304  0.6516  0.1090 -0.7659
  912MOL0     C23020   5.735   8.516   5.307  0.3330 -0.1896 -0.2928
  912MOL0     O23021   5.823   8.556   5.407 -0.3976  0.3528  0.5964
  912MOL0     C23022   5.787   8.512   5.541  0.2695  0.2390  0.7678
  912MOL0     C23023   5.847   8.616   5.647 -0.2318 -0.2901 -1.0182
  912MOL0     C23024   5.995   8.614   5.641  0.5185  1.1711  0.8936
  912MOL0     C23025   6.056   8.703   5.754 -0.4093 -0.3884  0.1216
  912MOL0     C23026   6.210   8.674   5.775  0.7565  0.5309 -0.1561
  912MOL0     C23027   6.288   8.777   5.868  0.3321  1.0865  0.5035
  912MOL0     C23028   6.320   8.907   5.800 -0.4090  0.6509 -0.2918
  912MOL0     C23029   6.384   9.004   5.891 -0.9367  0.1563 -0.3147
  912MOL0    Cl23030   6.326   9.034   6.060 -0.1243 -0.2312 -0.4652
  912MOL0     C23031   5.747   8.614   5.200  0.8860  0.3768 -0.8678
  912MOL0     C23032   5.685   8.571   5.085 -0.7137 -0.3119 -0.4245
  912MOL0     O23033   5.483   8.237   4.937 -0.1102 -0.5429  0.2709
  912MOL0     C23034   5.388   8.229   4.683 -0.1671 -0.1998  0.1710
  912MOL0     C23035   5.350   8.224   4.547 -0.2373  1.6782 -0.1531
  912MOL0     N23036   4.711   8.104   4.223  0.5607  0.4381  0.2993
  912MOL0     N23037   4.643   7.999   4.176 -0.7333 -0.0487 -0.4500
  912MOL0     C23038   4.427   7.398   4.574 -0.5554  0.0326  1.3902
  912MOL0     C23039   4.303   7.377   4.616  0.0086 -0.0271  0.2986
  912MOL0     C23040   3.870   7.188   4.605 -0.4959 -0.5654 -0.1202
  912MOL0     C23041   3.845   7.214   4.738 -0.9642  0.3289  1.0268
  912MOL0     C23042   3.720   7.187   4.785 -0.6059 -0.2096 -0.1716
  912MOL0     C23043   3.625   7.127   4.711  0.8599  0.0700  1.1536
  912MOL0     O23044   3.502   7.119   4.772 -0.0603  1.0195  0.7056
  912MOL0     C23045   3.417   7.018   4.724 -1.3574  0.4185  0.7158
  912MOL0     C23046   3.474   6.876   4.746  0.1431  0.2230 -0.4165
  912MOL0     C23047   3.362   6.772   4.723 -0.8293  1.2567  0.5535
  912MOL0     C23048   3.406   6.630   4.748 -0.3745  0.6718 -0.0872
  912MOL0     C23049   3.300   6.536   4.724  0.1922  0.7726 -0.6667
  912MOL0     C23050   3.234   6.435   4.726 -0.2462  0.6374  0.5468
  912MOL0     C23051   3.651   7.088   4.579  0.9442  0.3332  0.5020
  912MOL0     C23052   3.772   7.121   4.525  0.3848  0.2833  0.3881
  912MOL0     H23053   4.259   7.053   4.539 -3.1853 -0.0786  1.4846
  912MOL0     H23054   4.502   7.082   4.487  1.1525 -0.1912  2.0869
  912MOL0     H23055   4.657   7.515   4.475 -4.2628 -0.8362  0.6123
  912MOL0     H23056   4.706   7.440   4.627  0.0813 -0.6876  0.2144
  912MOL0     H23057   4.913   7.477   4.537 -1.3560 -0.3844  1.5945
  912MOL0     H23058   4.894   7.316   4.482  2.2000  1.2961  2.3189
  912MOL0     H23059   5.000   7.445   4.321  0.4771  0.4059 -0.3180
  912MOL0     H23060   4.843   7.376   4.261 -3.8006  2.1165  1.1838
  912MOL0     H23061   4.743   7.602   4.282  1.0240  0.4000  2.0181
  912MOL0     H23062   4.905   7.671   4.321  0.5614  2.3871 -1.7333
  912MOL0     H23063   4.998   7.573   4.106  0.8326  0.0001 -0.1543
  912MOL0     H23064   4.844   7.511   4.073  1.0590  0.4038  1.1108
  912MOL0     H23065   4.906   7.811   4.111 -0.1228  0.1772 -0.8385
  912MOL0     H23066   4.904   7.727   3.964  2.6623  0.9257  1.0607
  912MOL0     H23067   4.661   7.632   4.018  1.1962 -1.2491  1.3789
  912MOL0     H23068   4.652   7.743   4.148  0.5650 -2.0677  0.1109
  912MOL0     H23069   4.539   7.859   3.969 -0.0041 -2.9729  3.3732
  912MOL0     H23070   4.695   7.865   3.874  0.7561  0.3499 -0.0420
  912MOL0     H23071   4.832   8.095   3.925  0.7043 -2.2392 -0.4261
  912MOL0     H23072   4.861   8.348   4.138  0.9187 -0.1710 -1.5486
  912MOL0     H23073   4.913   8.252   4.283  1.4830 -0.1624 -0.3159
  912MOL0     H23074   5.015   8.264   4.003  0.5286  0.2029 -1.1675
  912MOL0     H23075   5.074   8.133   4.099  0.0213  1.4718 -0.8200
  912MOL0     H23076   5.120   8.426   4.171  1.4117  0.6285 -0.7715
  912MOL0     H23077   5.229   8.299   4.111 -1.7025 -0.2466 -1.8449
  912MOL0     H23078   5.204   8.180   4.336 -2.1743 -1.0397 -0.1234
  912MOL0     H23079   5.090   8.299   4.383 -1.2700  0.7577 -1.4836
  912MOL0     H23080   5.421   8.542   4.466  1.1303  0.1675 -0.1805
  912MOL0     H23081   5.461   8.676   4.635 -1.3666  0.3907 -0.7937
  912MOL0     H23082   5.429   8.622   4.800  0.9808 -1.1817 -0.4812
  912MOL0     H23083   5.596   8.607   4.720 -0.3454  1.7826 -1.0492
  912MOL0     H23084   5.490   8.312   5.180 -1.6712  0.7735 -0.6647
  912MOL0     H23085   5.633   8.349   5.393 -1.1366  0.9469 -0.3709
  912MOL0     H23086   5.678   8.507   5.553 -0.4217  0.8312 -3.6698
  912MOL0     H23087   5.823   8.411   5.564  0.5603 -0.5325 -2.5755
  912MOL0     H23088   5.806   8.715   5.629 -3.3634 -1.5659 -1.5385
  912MOL0     H23089   5.811   8.578   5.744  1.4531 -1.3325 -0.7551
  912MOL0     H23090   6.015   8.649   5.539 -0.2602  1.0682  0.6983
  912MOL0     H23091   6.036   8.513   5.648 -1.2299  0.2281 -1.3097
  912MOL0     H23092   6.047   8.808   5.725 -2.8504 -0.7629 -0.7210
  912MOL0     H23093   5.991   8.693   5.841 -2.3683 -2.9896 -1.5059
  912MOL0     H23094   6.259   8.645   5.681 -0.7704 -0.7257 -0.6107
  912MOL0     H23095   6.220   8.580   5.830  1.7746  0.0875 -1.0533
  912MOL0     H23096   6.229   8.789   5.960  0.7012  0.8130  0.7779
  912MOL0     H23097   6.382   8.725   5.887 -0.4358 -0.8433 -0.6314
  912MOL0     H23098   6.233   8.956   5.754  0.9639  2.8534 -0.6711
  912MOL0     H23099   6.387   8.881   5.718 -2.2813  0.9381 -1.9870
  912MOL0     H23100   6.388   9.104   5.847  2.2043  0.3115  0.0727
  912MOL0     H23101   6.492   8.987   5.899 -0.8099  0.9341 -0.3235
  912MOL0     H23102   5.811   8.702   5.204  0.6999  0.5954 -2.2341
  912MOL0     H23103   5.711   8.623   4.992 -0.6008 -0.0500 -0.2478
  912MOL0     H23104   5.371   8.141   4.744  0.5897 -1.3719 -1.2354
  912MOL0     H23105   5.306   8.135   4.502  1.5760 -0.8455  2.7162
  912MOL0     H23106   4.462   7.500   4.581 -3.2273  1.0602  1.0896
  912MOL0     H23107   4.236   7.456   4.647  0.3578  0.8271 -1.0331
  912MOL0     H23108   3.930   7.246   4.798 -0.4634  1.5384 -0.2606
  912MOL0     H23109   3.692   7.226   4.882 -0.8935  0.9308 -0.7031
  912MOL0     H23110   3.321   7.020   4.776  0.9400 -0.5614  5.5599
  912MOL0     H23111   3.395   7.022   4.617 -5.1736 -2.7056  1.1238
  912MOL0     H23112   3.518   6.873   4.847  0.7268  1.6487 -0.5970
  912MOL0     H23113   3.559   6.853   4.682 -0.6334 -1.0457 -1.0342
  912MOL0     H23114   3.332   6.784   4.618 -0.5656 -0.8858  0.1841
  912MOL0     H23115   3.270   6.799   4.775 -1.9127  1.5484 -1.3933
  912MOL0     H23116   3.430   6.628   4.854  0.9578 -0.6423 -0.3815
  912MOL0     H23117   3.492   6.590   4.693 -2.2478 -0.4480 -2.4026
  912MOL0     H23118   3.172   6.348   4.738 -0.6815  1.2614  3.6164
  912MOL0     H23119   3.577   7.051   4.508  1.6842 -0.2832  0.0444
  912MOL0     H23120   3.789   7.083   4.425 -2.2804  1.8772 -0.7749
  913MOL0     O23121   6.221   2.755   5.159  0.3451 -0.4003 -0.3605
  913MOL0     C23122   6.205   2.677   5.071  0.2663  0.0515  0.0239
  913MOL0     O23123   6.209   2.543   5.080 -0.1592 -0.1734  1.5337
  913MOL0     C23124   6.243   2.486   5.196 -0.2956  0.1134 -0.4940
  913MOL0     C23125   6.370   2.436   5.242 -0.7202 -0.0850  0.0320
  913MOL0     C23126   6.390   2.366   5.366  0.4281 -1.1039 -0.0251
  913MOL0     C23127   6.280   2.349   5.448 -0.2021 -0.1484  0.1757
  913MOL0     O23128   6.295   2.273   5.560 -0.0990 -0.1170  0.0999
  913MOL0     C23129   6.215   2.154   5.566  0.5757  0.3747  0.6867
  913MOL0     C23130   6.217   2.109   5.714  0.0052  0.3599 -0.2194
  913MOL0     C23131   6.180   1.959   5.722  0.5473 -0.6480  0.6640
  913MOL0     C23132   6.190   1.911   5.868  0.1766 -0.4936 -0.1575
  913MOL0     C23133   6.125   1.777   5.887 -0.5237 -0.6627  0.3254
  913MOL0     C23134   6.144   1.731   6.043  0.1275 -0.4291  0.3712
  913MOL0     C23135   6.053   1.622   6.094  0.7993 -0.1447  0.0488
  913MOL0     C23136   6.065   1.606   6.250  0.0659 -0.1004  0.1398
  913MOL0     N23137   5.952   1.677   6.310  0.2342  0.6503 -0.6175
  913MOL0     C23138   5.827   1.622   6.306 -0.0696  1.0045  0.6166
  913MOL0     C23139   5.751   1.690   6.396  0.2718 -0.5542 -0.7380
  913MOL0     C23140   5.606   1.673   6.438  0.6044 -1.0434 -0.1762
  913MOL0     C23141   5.586   1.616   6.575 -0.9038  0.0784 -0.6514
  913MOL0     C23142   5.638   1.699   6.699  1.0148  0.3666 -0.0752
  913MOL0     C23143   5.621   1.631   6.834 -0.5718  1.2224  0.3296
  913MOL0     O23144   5.692   1.503   6.858  0.0314  0.1246 -0.0369
  913MOL0     C23145   5.818   1.507   6.891 -0.4985  0.3959  0.1545
  913MOL0     C23146   5.913   1.531   6.789 -0.0963  0.7498 -1.2278
  913MOL0     C23147   6.049   1.552   6.812  1.5177 -0.1992  0.1432
  913MOL0     C23148   6.135   1.569   6.690 -0.5700 -0.2929 -0.2199
  913MOL0     C23149   6.089   1.553   6.955 -0.4352  0.4184 -0.6696
  913MOL0     C23150   6.225   1.567   7.008  0.4919 -0.1597  0.0049
  913MOL0     O23151   6.301   1.660   6.938  0.0155 -0.0284  0.2618
  913MOL0     C23152   6.438   1.687   6.970  0.7424 -0.2851  0.1201
  913MOL0     C23153   6.523   1.587   7.002 -0.0439  0.1175  0.4560
  913MOL0     C23154   6.656   1.614   7.014 -0.2563 -0.2434 -0.2470
  913MOL0     C23155   6.712   1.744   7.017 -1.1275  0.4976 -0.1443
  913MOL0     O23156   6.840   1.769   7.058 -0.2396  0.0980 -0.2783
  913MOL0     C23157   6.948   1.674   7.045  0.0166  0.2703 -0.0019
  913MOL0     C23158   7.074   1.762   7.034  0.2058  0.2459  0.3802
  913MOL0     C23159   7.100   1.856   6.916 -0.5764 -0.5652 -0.4234
  913MOL0     C23160   7.137   1.785   6.789  0.3668 -0.5390 -0.6451
  913MOL0     C23161   7.120   1.870   6.669 -0.5956  0.8269 -0.3871
  913MOL0     C23162   7.244   1.973   6.666 -1.0364 -0.6190  0.9398
  913MOL0     C23163   7.228   2.061   6.539  1.1358  0.7522  0.4688
  913MOL0     C23164   7.334   2.168   6.517 -0.7605 -1.3937 -0.2453
  913MOL0    Cl23165   7.501   2.111   6.481 -0.5380 -0.2306 -0.0526
  913MOL0     C23166   6.632   1.845   6.975  0.2840  0.0461  0.2135
  913MOL0     C23167   6.490   1.815   6.960 -0.0431 -0.4511  0.0446
  913MOL0     O23168   6.264   1.505   7.105  0.5559  0.0315  0.1757
  913MOL0     C23169   5.995   1.520   7.052 -0.2801  0.9428 -0.6111
  913MOL0     C23170   5.859   1.499   7.022  0.0991  0.4110 -0.3023
  913MOL0     N23171   5.831   1.785   6.447  0.2399 -0.5857 -0.5300
  913MOL0     N23172   5.958   1.761   6.415  0.0202  0.2409 -0.4445
  913MOL0     C23173   6.155   2.413   5.422  0.1774 -0.4770 -0.4673
  913MOL0     C23174   6.136   2.471   5.298  0.1304  0.7573 -1.0602
  913MOL0     C23175   6.168   2.721   4.942  0.0950 -0.3632 -0.0440
  913MOL0     C23176   6.078   2.825   4.916  0.4605 -0.3578 -0.3684
  913MOL0     C23177   6.029   2.864   4.789  0.3287 -0.1318 -0.4176
  913MOL0     C23178   6.078   2.785   4.675  0.3005 -0.1235 -0.2776
  913MOL0     O23179   6.020   2.826   4.557  0.5348 -0.0168 -0.5022
  913MOL0     C23180   6.061   2.765   4.425 -0.5244  0.6967  0.1941
  913MOL0     C23181   6.086   2.875   4.318 -0.8341 -0.1190 -1.2704
  913MOL0     C23182   6.231   2.948   4.326  0.7993  0.4428  0.4216
  913MOL0     C23183   6.243   3.067   4.231 -0.1867 -0.8076 -1.0004
  913MOL0     C23184   6.385   3.113   4.222  0.3474  0.2278 -0.3186
  913MOL0     C23185   6.501   3.133   4.221 -0.4210  0.1256  0.8248
  913MOL0     C23186   6.160   2.675   4.702  0.5044  1.0674  0.0990
  913MOL0     C23187   6.194   2.647   4.831 -1.0764  0.3334  0.3198
  913MOL0     H23188   6.455   2.462   5.179 -1.7767  1.8423 -0.6930
  913MOL0     H23189   6.487   2.334   5.401  0.0795 -1.5647  0.5317
  913MOL0     H23190   6.118   2.180   5.526  2.2343  3.0224 -1.9592
  913MOL0     H23191   6.259   2.082   5.496  4.5680  2.8457  0.3553
  913MOL0     H23192   6.316   2.129   5.755 -0.5211  1.3641  0.6267
  913MOL0     H23193   6.144   2.167   5.773  0.2679 -1.3475  1.9038
  913MOL0     H23194   6.080   1.944   5.679  1.4007  0.9069 -2.1344
  913MOL0     H23195   6.255   1.897   5.671  0.3715 -0.6016  0.3486
  913MOL0     H23196   6.290   1.907   5.912 -1.3678  2.6441  4.4656
  913MOL0     H23197   6.137   1.988   5.926  1.9654  0.0852  0.7760
  913MOL0     H23198   6.022   1.768   5.854  0.4604 -1.5526 -2.8667
  913MOL0     H23199   6.172   1.695   5.832 -0.6155 -0.2906 -0.3149
  913MOL0     H23200   6.248   1.703   6.063  0.5977 -0.8935 -2.3425
  913MOL0     H23201   6.116   1.826   6.089 -2.6265 -1.1763  0.4551
  913MOL0     H23202   5.951   1.650   6.065  0.2592 -2.8139 -0.9196
  913MOL0     H23203   6.065   1.525   6.045  1.9206  1.4804 -3.2500
  913MOL0     H23204   6.150   1.655   6.298 -0.0724 -0.3850  0.6870
  913MOL0     H23205   6.058   1.502   6.284 -1.5838 -0.1492 -0.2869
  913MOL0     H23206   5.798   1.530   6.256  0.4749  2.4350 -2.5933
  913MOL0     H23207   5.549   1.765   6.425  0.1042 -1.2516  0.4799
  913MOL0     H23208   5.563   1.602   6.366 -1.9355  0.4047 -0.2189
  913MOL0     H23209   5.653   1.531   6.584 -0.9750  0.0540 -0.3219
  913MOL0     H23210   5.478   1.603   6.591 -1.4645  0.1856 -3.8321
  913MOL0     H23211   5.564   1.779   6.692 -1.2828 -1.6752 -0.4012
  913MOL0     H23212   5.737   1.740   6.678  1.0570  0.0731 -0.4671
  913MOL0     H23213   5.513   1.616   6.840 -0.8801  3.3639  0.8528
  913MOL0     H23214   5.653   1.705   6.908 -3.1066  0.4233  2.3835
  913MOL0     H23215   5.884   1.537   6.684  2.4719 -1.1979 -2.1575
  913MOL0     H23216   6.123   1.484   6.622  0.2383  1.5468 -2.8578
  913MOL0     H23217   6.115   1.669   6.651  1.6205  0.0637 -0.5511
  913MOL0     H23218   6.240   1.575   6.719 -0.2817  1.4834 -1.4570
  913MOL0     H23219   6.487   1.486   7.018 -1.2382  0.3223 -0.7244
  913MOL0     H23220   6.725   1.535   7.040 -0.2793 -0.9967 -2.3205
  913MOL0     H23221   6.959   1.607   7.131  2.6796  1.4705  0.6813
  913MOL0     H23222   6.943   1.609   6.956  0.3184  1.4569 -0.9115
  913MOL0     H23223   7.064   1.823   7.125  0.5520 -0.6962  1.0744
  913MOL0     H23224   7.164   1.701   7.044  1.8675  2.3291 -0.9779
  913MOL0     H23225   7.179   1.929   6.936 -0.1747 -1.2016  0.3476
  913MOL0     H23226   7.004   1.904   6.893 -0.8033  2.0848  4.6874
  913MOL0     H23227   7.234   1.735   6.798  0.3791 -1.0499 -2.9625
  913MOL0     H23228   7.066   1.703   6.771 -3.1795  1.6624  2.0489
  913MOL0     H23229   7.025   1.924   6.658  0.0747  2.0533 -0.2700
  913MOL0     H23230   7.133   1.798   6.587  0.6768 -1.9229  2.0607
  913MOL0     H23231   7.243   2.030   6.760  0.8097  0.3784  0.4119
  913MOL0     H23232   7.341   1.923   6.660 -1.3841 -1.1091 -1.0849
  913MOL0     H23233   7.134   2.112   6.564  1.7240  1.4007  1.4332
  913MOL0     H23234   7.205   1.997   6.453 -0.1159  2.8144 -0.8134
  913MOL0     H23235   7.338   2.239   6.601 -1.6454 -0.0495 -1.3060
  913MOL0     H23236   7.287   2.230   6.440 -2.4922 -0.7396  1.2515
  913MOL0     H23237   6.679   1.942   6.971 -1.4665  0.9925  1.4241
  913MOL0     H23238   6.410   1.882   6.931 -2.2765 -2.6658  0.7448
  913MOL0     H23239   6.008   1.497   7.157 -2.7649 -0.5022 -0.5395
  913MOL0     H23240   5.793   1.471   7.104  0.5738  0.4996  0.1134
  913MOL0     H23241   6.070   2.410   5.489  0.1109 -3.0968 -0.5632
  913MOL0     H23242   6.038   2.513   5.281 -0.8827 -1.5821 -1.3037
  913MOL0     H23243   6.038   2.887   4.996  0.4812  1.3930 -1.6641
  913MOL0     H23244   5.957   2.942   4.768 -2.4929 -1.8779  2.0973
  913MOL0     H23245   6.151   2.706   4.441  1.0869  3.1223  0.6093
  913MOL0     H23246   5.973   2.714   4.384 -2.8285  3.6074  1.1239
  913MOL0     H23247   5.997   2.939   4.315  1.4633  3.3806 -1.6213
  913MOL0     H23248   6.078   2.821   4.223 -0.0221 -0.9171 -0.8921
  913MOL0     H23249   6.305   2.870   4.306  1.6056  0.9865  1.2199
  913MOL0     H23250   6.246   2.980   4.429  1.9781 -0.0058  0.4061
  913MOL0     H23251   6.189   3.153   4.272  4.1952  3.2742 -2.8698
  913MOL0     H23252   6.202   3.050   4.132  1.0606  0.2833 -1.7453
  913MOL0     H23253   6.606   3.144   4.237 -0.0073 -2.0184 -0.1251
  913MOL0     H23254   6.179   2.604   4.622  1.6715 -1.3306  2.3564
  913MOL0     H23255   6.264   2.566   4.849  1.7570  2.9495  2.1333
  914MOL0     O23256   4.852   9.046   2.302 -0.4665 -0.2331  0.8889
  914MOL0     C23257   4.829   8.966   2.214  0.0324  0.4162  0.3999
  914MOL0     O23258   4.811   8.993   2.079 -0.4550 -0.8002 -0.2506
  914MOL0     C23259   4.839   9.106   2.012 -0.0960  0.2444 -0.5816
  914MOL0     C23260   4.911   9.207   2.064  0.0641  0.3265  0.5965
  914MOL0     C23261   4.925   9.323   1.990  0.2820  0.7179 -0.8526
  914MOL0     C23262   4.856   9.348   1.864  0.0065  0.5927 -0.0472
  914MOL0     O23263   4.852   9.462   1.790  0.2579  0.6075 -0.0262
  914MOL0     C23264   4.887   9.578   1.865  0.0378 -0.8707  0.5577
  914MOL0     C23265   4.848   9.701   1.786 -0.3422  0.4819 -0.3335
  914MOL0     C23266   4.970   9.787   1.749  1.0048 -0.5324 -0.1532
  914MOL0     C23267   4.932   9.904   1.663 -0.2929 -0.1217  1.0298
  914MOL0     C23268   5.057   9.987   1.626 -0.2065 -0.2049 -1.0571
  914MOL0     C23269   5.135  10.050   1.749  0.5217 -0.3075 -0.1103
  914MOL0     C23270   5.257  10.131   1.713 -0.6258  0.7914  1.3379
  914MOL0     C23271   5.355  10.145   1.828 -0.6161 -1.6068 -0.5809
  914MOL0     N23272   5.465  10.218   1.765 -0.5184 -0.0430 -0.3161
  914MOL0     C23273   5.507  10.345   1.764  1.3170 -0.5003 -0.4311
  914MOL0     C23274   5.611  10.353   1.682 -0.0502  0.2930  0.1582
  914MOL0     C23275   5.681  10.475   1.628  0.7498 -0.0113 -0.0961
  914MOL0     C23276   5.765  10.553   1.736 -0.1090  0.1687 -0.2300
  914MOL0     C23277   5.893  10.470   1.777 -0.2092 -0.8859  0.6938
  914MOL0     C23278   5.905  10.462   1.929 -0.3981  0.4392 -0.3520
  914MOL0     O23279   5.931  10.590   1.989  0.3363  0.0265 -0.3107
  914MOL0     C23280   5.961  10.599   2.122 -0.5302 -0.1161  0.5656
  914MOL0     C23281   5.990  10.726   2.158 -0.9417 -0.0931 -0.9552
  914MOL0     C23282   6.010  10.771   2.288  0.2976 -0.4873 -0.1239
  914MOL0     C23283   6.056  10.918   2.310 -0.5970 -0.0977 -0.7075
  914MOL0     C23284   6.025  10.663   2.386  0.0853  0.7416 -0.3158
  914MOL0     C23285   6.069  10.686   2.530 -0.9819 -0.4419 -0.1528
  914MOL0     O23286   6.163  10.614   2.585 -0.6571  0.3489 -0.0580
  914MOL0     C23287   6.227  10.627   2.709 -0.5857  0.3415  1.3332
  914MOL0     C23288   6.276  10.529   2.776 -0.4820 -0.1380 -0.3651
  914MOL0     C23289   6.335  10.546   2.903  0.3244 -1.2558  0.2034
  914MOL0     C23290   6.373  10.676   2.948  0.9478 -1.2583 -0.2532
  914MOL0     O23291   6.441  10.708   3.063  0.0305  0.8657 -0.7043
  914MOL0     C23292   6.467  10.607   3.167 -0.1388  0.5743  0.0576
  914MOL0     C23293   6.487  10.687   3.295 -0.6012 -0.4750  0.7189
  914MOL0     C23294   6.519  10.587   3.409  0.7503  0.7316 -0.0895
  914MOL0     C23295   6.569  10.660   3.531 -0.4616  0.0019 -0.5629
  914MOL0     C23296   6.564  10.566   3.649  0.3252 -0.3524  0.4367
  914MOL0     C23297   6.553  10.647   3.776 -0.1416  1.0087 -0.2425
  914MOL0     C23298   6.565  10.556   3.900 -0.5088  0.6181 -0.3657
  914MOL0     C23299   6.454  10.563   4.001 -0.1022 -0.1580  0.5798
  914MOL0    Cl23300   6.302  10.527   3.929  0.1235  0.2275  0.0430
  914MOL0     C23301   6.325  10.785   2.865 -1.2705 -0.2797 -0.5884
  914MOL0     C23302   6.258  10.758   2.749 -0.1306  0.6960  0.0094
  914MOL0     O23303   6.014  10.780   2.581  0.4009  0.0258 -0.8669
  914MOL0     C23304   6.011  10.535   2.353  0.3398  0.0928 -1.0609
  914MOL0     C23305   5.966  10.495   2.227 -0.1180 -0.5183 -0.4722
  914MOL0     N23306   5.632  10.231   1.632  0.0998  0.4219 -0.0265
  914MOL0     N23307   5.557  10.150   1.683  0.2242 -0.4679 -0.3663
  914MOL0     C23308   4.793   9.239   1.814  0.5511  0.4356 -0.1993
  914MOL0     C23309   4.784   9.121   1.886  0.2272 -0.0542  0.0683
  914MOL0     C23310   4.808   8.829   2.265  0.2270  1.1493  0.3021
  914MOL0     C23311   4.801   8.800   2.407  0.5098  1.0314  0.6325
  914MOL0     C23312   4.781   8.670   2.447  0.2491 -0.7894  0.2607
  914MOL0     C23313   4.743   8.572   2.352  0.9850  1.0516 -0.4107
  914MOL0     O23314   4.727   8.444   2.406  0.8243  0.3262 -0.6950
  914MOL0     C23315   4.764   8.331   2.331 -0.3028 -0.5747 -1.2556
  914MOL0     C23316   4.863   8.255   2.426  1.0748  0.4506 -0.0553
  914MOL0     C23317   4.938   8.133   2.362 -0.1917  0.2778  0.4299
  914MOL0     C23318   5.076   8.158   2.293 -0.1419 -0.7080 -1.5756
  914MOL0     C23319   5.075   8.262   2.195 -0.1496  0.1463  0.6658
  914MOL0     C23320   5.082   8.332   2.088  0.6719 -0.0576 -0.8090
  914MOL0     C23321   4.741   8.600   2.212 -0.0238  0.1793 -0.3817
  914MOL0     C23322   4.781   8.729   2.171  0.6351  0.5475  0.8198
  914MOL0     H23323   4.961   9.196   2.160 -0.6891  1.6468  1.1737
  914MOL0     H23324   4.998   9.394   2.025 -0.4418  0.7792  0.6382
  914MOL0     H23325   4.838   9.579   1.963  2.8475 -0.2960  2.0837
  914MOL0     H23326   4.993   9.582   1.894  0.0398 -2.0134  0.7517
  914MOL0     H23327   4.805   9.663   1.693  0.9513 -1.7573 -0.0879
  914MOL0     H23328   4.779   9.759   1.849  3.0795  2.4784  1.9192
  914MOL0     H23329   4.995   9.834   1.845  2.5200 -0.3857 -0.5845
  914MOL0     H23330   5.046   9.716   1.714  0.8695 -3.4567  4.6303
  914MOL0     H23331   4.884   9.869   1.572  0.9711 -1.9347  1.0240
  914MOL0     H23332   4.864   9.976   1.711 -1.6869 -2.0675  2.1153
  914MOL0     H23333   5.123   9.913   1.579  1.6667  0.9519 -0.3550
  914MOL0     H23334   5.033  10.069   1.558 -1.9929  0.1503 -0.0422
  914MOL0     H23335   5.065  10.114   1.803  1.2618 -0.1455  0.6749
  914MOL0     H23336   5.178   9.967   1.806  1.5852  0.0002 -0.4457
  914MOL0     H23337   5.312  10.072   1.638 -0.8053  0.2054  1.6552
  914MOL0     H23338   5.243  10.227   1.664  0.6456 -0.0610 -0.8845
  914MOL0     H23339   5.379  10.046   1.869 -2.7400 -2.1346 -0.4860
  914MOL0     H23340   5.311  10.201   1.911  0.4723 -1.8506  0.1907
  914MOL0     H23341   5.466  10.438   1.803 -1.3248 -1.1662 -1.3981
  914MOL0     H23342   5.735  10.462   1.534 -2.6702 -2.2597 -2.0001
  914MOL0     H23343   5.598  10.538   1.596  1.1366  0.4598 -0.1692
  914MOL0     H23344   5.702  10.564   1.826  1.2436 -0.7058  0.8662
  914MOL0     H23345   5.788  10.654   1.701  0.2263 -0.2187 -1.1399
  914MOL0     H23346   5.986  10.516   1.744 -1.1682  0.2920 -0.4951
  914MOL0     H23347   5.890  10.377   1.720  0.2468  0.0626 -0.9473
  914MOL0     H23348   5.986  10.396   1.961  1.1692  1.4469 -2.0852
  914MOL0     H23349   5.816  10.413   1.969  0.2510  0.6478  1.4542
  914MOL0     H23350   5.997  10.798   2.077 -0.2007  1.3895  0.3614
  914MOL0     H23351   6.052  10.963   2.210 -0.4062  1.8237  0.1062
  914MOL0     H23352   5.992  10.975   2.377  2.4532  2.7235  0.0876
  914MOL0     H23353   6.157  10.916   2.351 -0.3112 -2.6284 -1.3349
  914MOL0     H23354   6.262  10.427   2.743 -2.3111 -1.3226  3.4380
  914MOL0     H23355   6.341  10.455   2.962  0.8566 -0.2176  1.8258
  914MOL0     H23356   6.377  10.554   3.201  0.7087  0.7350  2.7921
  914MOL0     H23357   6.544  10.532   3.146 -0.7222 -0.4563  1.4450
  914MOL0     H23358   6.566  10.761   3.281 -1.8029  0.8348  0.5952
  914MOL0     H23359   6.402  10.748   3.326 -1.3331 -1.8601  1.5434
  914MOL0     H23360   6.593  10.510   3.386 -0.5506  0.4316 -3.8835
  914MOL0     H23361   6.425  10.531   3.418  0.4885  0.5885 -2.8395
  914MOL0     H23362   6.668  10.705   3.522  0.4885 -1.8733 -0.0326
  914MOL0     H23363   6.512  10.749   3.559  0.4544  0.1293  0.9605
  914MOL0     H23364   6.657  10.509   3.645  1.0506  0.6971  1.7632
  914MOL0     H23365   6.478  10.498   3.643  0.8704 -0.9912 -0.4822
  914MOL0     H23366   6.630  10.724   3.782  0.7176  0.0722  1.6846
  914MOL0     H23367   6.458  10.702   3.780  0.7111  2.4823  0.3963
  914MOL0     H23368   6.652  10.593   3.956 -0.2888 -0.2118 -0.1506
  914MOL0     H23369   6.587  10.454   3.867  0.0999 -0.2225  2.3306
  914MOL0     H23370   6.451  10.669   4.031  2.4393  0.0744  0.1871
  914MOL0     H23371   6.480  10.507   4.091  2.5730  0.1385  0.0715
  914MOL0     H23372   6.357  10.880   2.906 -1.6504 -0.7614  0.9040
  914MOL0     H23373   6.224  10.843   2.691 -0.1032  0.5282 -0.2547
  914MOL0     H23374   6.033  10.459   2.427 -1.6129 -0.5503 -1.0870
  914MOL0     H23375   5.947  10.393   2.195 -1.1497 -0.0981 -1.2636
  914MOL0     H23376   4.756   9.253   1.713 -3.7083 -0.3227  1.0386
  914MOL0     H23377   4.741   9.038   1.831  1.7024 -0.3671 -0.6508
  914MOL0     H23378   4.820   8.875   2.483 -4.2792  1.9327  1.2671
  914MOL0     H23379   4.794   8.669   2.555 -0.3706  1.0621  0.4028
  914MOL0     H23380   4.677   8.270   2.306 -0.9461 -0.8997  1.4493
  914MOL0     H23381   4.814   8.346   2.235  0.3808  1.1736 -0.6588
  914MOL0     H23382   4.806   8.218   2.511  1.5188 -0.8631 -0.3072
  914MOL0     H23383   4.935   8.320   2.477  1.8460  0.5558 -1.2352
  914MOL0     H23384   4.878   8.084   2.285 -0.4983 -1.5273  1.7584
  914MOL0     H23385   4.943   8.064   2.446  0.4846  1.4978  1.4263
  914MOL0     H23386   5.097   8.066   2.238 -1.3520 -2.3293  0.4797
  914MOL0     H23387   5.148   8.176   2.374 -0.9348  0.3288 -1.0729
  914MOL0     H23388   5.107   8.385   1.998 -1.1462  2.3481  0.0232
  914MOL0     H23389   4.698   8.523   2.149 -0.3490 -1.1993  1.4285
  914MOL0     H23390   4.772   8.743   2.064 -2.8812 -0.7799  0.7849
  915MOL0     O23391   5.869   7.955   4.868  0.2698 -0.0455  0.3613
  915MOL0     C23392   5.889   7.881   4.780 -1.0558  0.6708 -0.0499
  915MOL0     O23393   5.912   7.747   4.789 -0.7710  0.9463  0.4341
  915MOL0     C23394   5.874   7.681   4.906 -0.9971  0.2105 -0.9966
  915MOL0     C23395   5.939   7.696   5.026 -0.0306  0.1824 -0.6623
  915MOL0     C23396   5.911   7.604   5.130  0.1726 -0.5535  0.1771
  915MOL0     C23397   5.817   7.493   5.122 -0.2760  0.1779  0.9102
  915MOL0     O23398   5.786   7.397   5.218 -0.1447 -0.0864 -0.3647
  915MOL0     C23399   5.807   7.464   5.341  0.5252 -0.9374 -0.9405
  915MOL0     C23400   5.734   7.385   5.451 -0.0170  0.2350 -0.6976
  915MOL0     C23401   5.577   7.394   5.422  0.0749  0.0015  0.0149
  915MOL0     C23402   5.502   7.361   5.550 -0.2508 -0.5061  0.1612
  915MOL0     C23403   5.458   7.217   5.567  0.4375 -0.2445 -0.0870
  915MOL0     C23404   5.400   7.200   5.710  1.0547 -0.5767  1.0311
  915MOL0     C23405   5.335   7.072   5.742 -0.6875 -0.6177  0.0646
  915MOL0     C23406   5.218   7.036   5.650  0.4009  0.0256 -0.0273
  915MOL0     N23407   5.123   7.147   5.654  0.1675  0.4167 -1.0349
  915MOL0     C23408   5.067   7.198   5.760 -1.5949 -1.5604 -0.3826
  915MOL0     C23409   5.004   7.300   5.706  1.2219  0.3833 -0.5110
  915MOL0     C23410   4.943   7.402   5.799 -0.6622 -0.1781 -0.1667
  915MOL0     C23411   5.041   7.520   5.842  0.9256  0.6230  0.7313
  915MOL0     C23412   5.113   7.582   5.720 -0.0933 -0.5251 -0.1049
  915MOL0     C23413   5.231   7.660   5.770  0.0615 -0.5301  0.2407
  915MOL0     O23414   5.323   7.690   5.663 -0.6446  0.4378  0.8039
  915MOL0     C23415   5.379   7.815   5.680 -0.3042  0.0098 -0.6277
  915MOL0     C23416   5.390   7.906   5.577  0.1164 -0.1809 -0.9145
  915MOL0     C23417   5.474   8.017   5.590 -0.0430  0.2625 -0.4955
  915MOL0     C23418   5.488   8.100   5.472 -0.4099 -0.9223 -0.2909
  915MOL0     C23419   5.523   8.049   5.719 -0.1571 -0.5157 -0.7315
  915MOL0     C23420   5.608   8.173   5.743  0.4449 -0.2626  1.0806
  915MOL0     O23421   5.691   8.168   5.855 -0.1673 -0.7213  0.3013
  915MOL0     C23422   5.726   8.288   5.918  0.1883  0.4183 -0.2972
  915MOL0     C23423   5.639   8.394   5.934 -0.3463  0.4612  0.6458
  915MOL0     C23424   5.670   8.518   5.988  0.0694 -0.5739  0.3666
  915MOL0     C23425   5.802   8.537   6.033  1.7563  0.5145 -0.7999
  915MOL0     O23426   5.847   8.644   6.099  0.2394 -0.6678 -0.8201
  915MOL0     C23427   5.746   8.720   6.164  0.4733 -0.3778 -0.2508
  915MOL0     C23428   5.798   8.839   6.248 -0.1159 -0.3727  0.0840
  915MOL0     C23429   5.911   8.918   6.178  0.4591 -0.6591 -0.1379
  915MOL0     C23430   5.864   8.960   6.039  0.1092  0.1625  0.8984
  915MOL0     C23431   5.963   9.041   5.940 -0.4961  0.0084  1.0462
  915MOL0     C23432   5.922   9.186   5.951 -0.4291  0.6633  0.5310
  915MOL0     C23433   5.989   9.281   5.861 -1.3649 -0.4996  1.0800
  915MOL0     C23434   6.023   9.422   5.938 -0.7314  0.1786  0.4841
  915MOL0    Cl23435   6.152   9.395   6.053 -0.1912  0.6283 -0.2885
  915MOL0     C23436   5.890   8.432   6.033  0.2737 -0.8355  0.2091
  915MOL0     C23437   5.851   8.312   5.980 -0.6617  0.8376 -0.0334
  915MOL0     O23438   5.597   8.271   5.668  0.1457 -0.3535 -0.4388
  915MOL0     C23439   5.484   7.980   5.829 -1.3024 -0.2154 -0.4914
  915MOL0     C23440   5.415   7.861   5.809 -0.2826  0.6300  1.0182
  915MOL0     N23441   5.010   7.307   5.570  0.3828 -0.6264 -0.4057
  915MOL0     N23442   5.081   7.208   5.540  0.2282  0.6680 -0.4197
  915MOL0     C23443   5.750   7.490   5.000  0.0323  0.3795 -0.4496
  915MOL0     C23444   5.785   7.574   4.894  0.4848 -0.4885 -0.2072
  915MOL0     C23445   5.902   7.940   4.646  0.7659 -0.1155  1.6110
  915MOL0     C23446   5.886   7.854   4.530 -0.4549  0.5586 -0.7455
  915MOL0     C23447   5.908   7.902   4.404 -0.7567 -0.7256 -0.0419
  915MOL0     C23448   5.937   8.034   4.379 -0.2598 -0.3715  0.3469
  915MOL0     O23449   5.956   8.075   4.255 -1.0939 -0.0366  0.1092
  915MOL0     C23450   6.042   8.189   4.221  0.2649  0.2371  1.3832
  915MOL0     C23451   6.093   8.176   4.081 -0.5133 -0.0593 -0.0617
  915MOL0     C23452   6.174   8.057   4.045  0.1740 -0.5688  0.3657
  915MOL0     C23453   6.127   7.997   3.911  0.3934 -0.3724 -0.6535
  915MOL0     C23454   6.105   8.098   3.813 -0.7349 -1.4129  0.8156
  915MOL0     C23455   6.081   8.192   3.737  0.3153 -0.3153 -0.6174
  915MOL0     C23456   5.940   8.121   4.490  0.7106 -0.0927  0.1820
  915MOL0     C23457   5.926   8.075   4.625  0.1833 -0.5078  0.8996
  915MOL0     H23458   6.018   7.769   5.043  3.1895 -2.1425 -4.1529
  915MOL0     H23459   5.970   7.613   5.221 -0.7551  3.2188  0.5772
  915MOL0     H23460   5.907   7.478   5.383 -1.5781  4.3711  3.5350
  915MOL0     H23461   5.745   7.553   5.340 -0.0738 -1.3039  0.9109
  915MOL0     H23462   5.766   7.281   5.463 -3.9152 -0.8189  3.0518
  915MOL0     H23463   5.763   7.434   5.545 -1.2361  0.4942 -0.4362
  915MOL0     H23464   5.553   7.498   5.400 -0.7795 -0.0037  0.8346
  915MOL0     H23465   5.549   7.337   5.333  1.7494  1.8644 -1.8149
  915MOL0     H23466   5.568   7.372   5.636 -2.1408 -2.2895  1.9244
  915MOL0     H23467   5.417   7.429   5.561  0.0624 -0.1504  0.4564
  915MOL0     H23468   5.383   7.195   5.491  0.0686 -0.2794  0.2866
  915MOL0     H23469   5.546   7.153   5.552  1.7974  1.2902  1.0586
  915MOL0     H23470   5.486   7.212   5.777  0.7245  0.4776  1.2859
  915MOL0     H23471   5.324   7.274   5.735  0.9099  0.0044 -0.9758
  915MOL0     H23472   5.410   6.993   5.746 -0.0074 -0.0008 -0.2123
  915MOL0     H23473   5.293   7.062   5.842 -1.7550 -1.6195 -0.4637
  915MOL0     H23474   5.179   6.944   5.694  0.5220  0.8655  1.8910
  915MOL0     H23475   5.256   7.038   5.547  3.0757  0.3803  0.8901
  915MOL0     H23476   5.100   7.172   5.860 -0.3685 -2.8840 -1.0834
  915MOL0     H23477   4.848   7.436   5.755 -1.5377  2.3065  3.1658
  915MOL0     H23478   4.911   7.353   5.892 -0.6117  1.8014  0.9524
  915MOL0     H23479   5.115   7.480   5.912  0.0619 -1.7727  0.4059
  915MOL0     H23480   4.990   7.602   5.893 -2.5903 -0.8508 -0.0924
  915MOL0     H23481   5.033   7.635   5.666  1.4392  1.0167 -0.9558
  915MOL0     H23482   5.153   7.503   5.656  0.0750 -2.5337  2.3292
  915MOL0     H23483   5.280   7.609   5.853 -0.8680  0.9897  1.8105
  915MOL0     H23484   5.188   7.753   5.809  0.8510  0.1392 -0.4544
  915MOL0     H23485   5.357   7.891   5.475  0.1125  2.8969 -1.4445
  915MOL0     H23486   5.439   8.197   5.484  1.0677 -0.2525  0.5312
  915MOL0     H23487   5.591   8.121   5.441 -0.9281  1.4959 -0.5997
  915MOL0     H23488   5.438   8.061   5.382 -1.7540  0.7379 -0.3022
  915MOL0     H23489   5.538   8.370   5.904  0.4407  0.2461 -2.0701
  915MOL0     H23490   5.598   8.596   6.011  1.9661  0.6935  2.4536
  915MOL0     H23491   5.674   8.755   6.089 -2.9056 -1.3090  2.3199
  915MOL0     H23492   5.689   8.663   6.238 -0.5667  0.4455 -0.3827
  915MOL0     H23493   5.704   8.893   6.262 -0.2782 -0.6442  0.0437
  915MOL0     H23494   5.835   8.816   6.348  2.5248  0.8588 -0.5115
  915MOL0     H23495   6.003   8.860   6.169  1.0423  0.5986 -3.5095
  915MOL0     H23496   5.932   9.001   6.247 -1.7856  1.2602 -1.6129
  915MOL0     H23497   5.853   8.860   5.996  2.6790 -1.2320  3.1108
  915MOL0     H23498   5.771   9.015   6.054 -0.9688 -1.2581 -0.2636
  915MOL0     H23499   5.951   9.011   5.835 -4.0461  2.5023  0.5796
  915MOL0     H23500   6.064   9.017   5.975 -1.2301 -3.7193  1.0968
  915MOL0     H23501   5.814   9.181   5.937 -0.3970 -2.6262  0.6305
  915MOL0     H23502   5.931   9.219   6.054  1.3158 -1.2340  1.0613
  915MOL0     H23503   5.924   9.294   5.774  2.2589  1.2515 -1.6357
  915MOL0     H23504   6.076   9.235   5.815 -1.0299  2.8117 -2.0012
  915MOL0     H23505   5.936   9.465   5.987  2.1354  3.0697  3.6250
  915MOL0     H23506   6.058   9.499   5.869 -1.4403  2.2559  2.3356
  915MOL0     H23507   5.990   8.446   6.075 -0.6594  1.2806  1.9146
  915MOL0     H23508   5.933   8.241   5.983 -2.4345 -1.2713  2.4812
  915MOL0     H23509   5.528   8.019   5.920 -0.0029 -1.4471 -0.5429
  915MOL0     H23510   5.410   7.789   5.890 -2.3799 -0.8975 -0.3983
  915MOL0     H23511   5.676   7.412   4.995 -0.5544  1.0024 -2.6023
  915MOL0     H23512   5.739   7.570   4.795 -1.1924  4.1974  0.1144
  915MOL0     H23513   5.860   7.749   4.542  2.9881 -0.4392 -1.1253
  915MOL0     H23514   5.914   7.829   4.323  0.5021 -0.1768 -0.4768
  915MOL0     H23515   5.978   8.277   4.232 -0.8367 -0.1335 -1.1745
  915MOL0     H23516   6.125   8.192   4.292 -1.0046 -1.4901  3.0498
  915MOL0     H23517   6.169   8.252   4.062  0.5712 -1.4042 -1.3672
  915MOL0     H23518   6.007   8.180   4.014  0.4800  1.2797 -1.3175
  915MOL0     H23519   6.149   7.977   4.115 -1.2876  0.0241  0.5750
  915MOL0     H23520   6.280   8.081   4.053 -0.1520  1.2718 -0.3445
  915MOL0     H23521   6.032   7.945   3.923  1.8278 -2.8402  0.5964
  915MOL0     H23522   6.191   7.919   3.870 -0.4850 -0.2621 -2.3223
  915MOL0     H23523   6.056   8.276   3.675 -0.9012 -0.5272 -0.4429
  915MOL0     H23524   5.954   8.226   4.469 -4.1922  0.1234 -3.9770
  915MOL0     H23525   5.956   8.139   4.708 -0.7270 -1.5369  2.0646
  916MOL0     O23526   5.894   7.114   8.032  0.3357 -0.5212 -0.1526
  916MOL0     C23527   5.817   7.192   7.979 -0.2448  0.5316  0.3159
  916MOL0     O23528   5.696   7.156   7.916 -0.4413 -0.5461  0.6533
  916MOL0     C23529   5.681   7.031   7.862 -0.6066  0.0489  1.0948
  916MOL0     C23530   5.716   7.005   7.728  0.0532 -1.6057  0.1878
  916MOL0     C23531   5.673   6.885   7.672 -0.6989  0.3262  0.5230
  916MOL0     C23532   5.639   6.772   7.743 -0.2313 -1.5249  0.2477
  916MOL0     O23533   5.635   6.651   7.679 -0.5750  0.1089  0.0558
  916MOL0     C23534   5.504   6.604   7.651  0.9451 -0.2407  0.2957
  916MOL0     C23535   5.415   6.553   7.764 -0.4792 -0.3267 -0.1150
  916MOL0     C23536   5.499   6.450   7.846  0.1066  0.2126  0.5074
  916MOL0     C23537   5.448   6.451   7.983  0.9348  0.7554 -0.7718
  916MOL0     C23538   5.506   6.341   8.077 -0.4834 -0.8603  1.0250
  916MOL0     C23539   5.421   6.349   8.209 -0.0011  0.1929  0.5691
  916MOL0     C23540   5.474   6.288   8.340 -0.4150 -0.1243 -0.8087
  916MOL0     C23541   5.602   6.351   8.403 -0.3537  0.0110 -0.0280
  916MOL0     N23542   5.582   6.487   8.470  0.5128 -0.3032  0.2901
  916MOL0     C23543   5.658   6.607   8.448  0.3328 -0.6939  0.8888
  916MOL0     C23544   5.606   6.694   8.536  0.3586 -1.0645  0.2437
  916MOL0     C23545   5.653   6.832   8.566 -0.0603  1.3025  0.0465
  916MOL0     C23546   5.674   6.858   8.716 -0.1359 -0.5219 -0.5990
  916MOL0     C23547   5.659   7.014   8.737 -0.7865  0.5842 -0.6879
  916MOL0     C23548   5.530   7.056   8.807  0.6684 -0.5749  0.6608
  916MOL0     O23549   5.534   7.015   8.938 -0.0524 -0.5382  0.2155
  916MOL0     C23550   5.429   7.031   9.031  0.5308  0.5138  0.5586
  916MOL0     C23551   5.315   7.121   9.006  0.6501 -0.5215  0.2025
  916MOL0     C23552   5.207   7.139   9.092  0.1058 -0.2180  0.2256
  916MOL0     C23553   5.118   7.251   9.055  0.3078  0.0854 -0.0577
  916MOL0     C23554   5.210   7.064   9.213  0.5725 -0.2072 -0.7637
  916MOL0     C23555   5.094   7.075   9.319 -0.5054 -0.2223  0.2739
  916MOL0     O23556   4.991   7.160   9.294 -0.3892  0.1923 -0.5743
  916MOL0     C23557   4.916   7.199   9.406  0.3853  0.4390 -0.2363
  916MOL0     C23558   4.978   7.294   9.486  0.3185  0.2670  0.5328
  916MOL0     C23559   4.925   7.348   9.596  1.2025 -0.1524  0.9161
  916MOL0     C23560   4.796   7.311   9.624 -0.4982 -0.4772  0.2241
  916MOL0     O23561   4.725   7.375   9.732  0.7132  0.4952 -0.5920
  916MOL0     C23562   4.724   7.523   9.725 -0.0495 -0.1129 -0.6321
  916MOL0     C23563   4.653   7.576   9.855 -0.8022  0.9226 -0.7845
  916MOL0     C23564   4.625   7.727   9.857 -0.5711  0.2505  0.4870
  916MOL0     C23565   4.470   7.768   9.871 -0.6150 -0.9192 -0.5467
  916MOL0     C23566   4.386   7.701   9.764 -0.6643  0.0051  0.6321
  916MOL0     C23567   4.403   7.784   9.635  0.1309 -0.9274 -0.0908
  916MOL0     C23568   4.435   7.693   9.517 -0.2879 -0.0389 -0.0670
  916MOL0     C23569   4.452   7.769   9.389 -0.0397 -0.2710  0.1397
  916MOL0    Cl23570   4.308   7.856   9.315 -0.5003  0.0426  0.0329
  916MOL0     C23571   4.730   7.209   9.546  0.0315  0.4922 -1.2964
  916MOL0     C23572   4.797   7.135   9.450 -0.4113 -0.5477  0.0521
  916MOL0     O23573   5.104   7.005   9.426 -0.1535 -0.5237 -0.0183
  916MOL0     C23574   5.310   6.975   9.235 -0.1645 -0.1052  0.2986
  916MOL0     C23575   5.423   6.958   9.151 -0.2950  0.0189 -0.8863
  916MOL0     N23576   5.507   6.634   8.610  0.5310 -0.1452  1.1814
  916MOL0     N23577   5.487   6.519   8.568 -0.3154 -0.1337  0.0577
  916MOL0     C23578   5.629   6.790   7.890  0.4496  0.5722  0.5263
  916MOL0     C23579   5.638   6.917   7.940  0.7213  0.1411 -0.3340
  916MOL0     C23580   5.843   7.335   7.994 -0.7234 -0.3291  0.9399
  916MOL0     C23581   5.745   7.428   7.951 -1.0359  0.5829 -0.1085
  916MOL0     C23582   5.777   7.566   7.953  0.5113  0.1438  0.8392
  916MOL0     C23583   5.913   7.624   7.983  0.6484  0.5017  0.6386
  916MOL0     O23584   5.930   7.762   7.963  0.2328 -0.1084  0.7985
  916MOL0     C23585   6.059   7.809   8.023  0.1841 -0.8335  0.3323
  916MOL0     C23586   6.062   7.963   8.021 -0.1077 -0.6765  0.5527
  916MOL0     C23587   6.154   8.019   8.133  0.2188 -0.6707  0.3828
  916MOL0     C23588   6.303   7.999   8.113 -0.4241  0.4969  0.2868
  916MOL0     C23589   6.356   8.065   8.233 -0.3988 -0.2711 -0.9648
  916MOL0     C23590   6.394   8.111   8.335  0.3487  0.2725  0.4092
  916MOL0     C23591   6.001   7.529   8.032 -0.3261  0.0466 -0.3165
  916MOL0     C23592   5.966   7.389   8.039 -0.5927 -0.3639 -0.1000
  916MOL0     H23593   5.765   7.089   7.681 -1.7181  1.4021  3.2031
  916MOL0     H23594   5.687   6.864   7.567 -3.5407 -2.2786  0.5074
  916MOL0     H23595   5.448   6.673   7.587  0.3834 -1.4412 -0.5506
  916MOL0     H23596   5.524   6.510   7.599 -1.1996  0.3725 -1.8421
  916MOL0     H23597   5.398   6.644   7.821 -1.8703 -0.1141 -0.8321
  916MOL0     H23598   5.325   6.509   7.719 -0.1579 -4.1470  2.4871
  916MOL0     H23599   5.476   6.356   7.795  0.8658  0.4554 -0.3145
  916MOL0     H23600   5.608   6.462   7.835  0.0158  0.4281 -0.1932
  916MOL0     H23601   5.475   6.547   8.028 -1.6624  1.7423 -1.2071
  916MOL0     H23602   5.339   6.455   7.990  0.9958  1.2550  0.0257
  916MOL0     H23603   5.495   6.246   8.026 -1.1063  0.1668 -0.8475
  916MOL0     H23604   5.612   6.363   8.096 -0.3672 -0.8808  0.4126
  916MOL0     H23605   5.402   6.454   8.233  0.4806  0.3169  0.4194
  916MOL0     H23606   5.329   6.298   8.179  0.0018  1.7441 -2.4812
  916MOL0     H23607   5.390   6.281   8.409 -0.6905  0.7199 -1.0516
  916MOL0     H23608   5.486   6.183   8.313 -4.2192 -1.0003  0.3823
  916MOL0     H23609   5.689   6.371   8.340  0.4826  3.5517  1.9816
  916MOL0     H23610   5.634   6.280   8.481 -0.8107  1.4128  1.4952
  916MOL0     H23611   5.718   6.642   8.365 -0.8775  1.0479  0.6848
  916MOL0     H23612   5.748   6.853   8.516 -0.7281  0.2464 -1.7830
  916MOL0     H23613   5.585   6.903   8.519 -3.5479 -2.0279 -0.4894
  916MOL0     H23614   5.779   6.836   8.738 -0.0497 -0.4052 -0.8799
  916MOL0     H23615   5.610   6.802   8.784 -1.2903  0.7455 -0.6071
  916MOL0     H23616   5.669   7.073   8.646 -0.2578 -1.5418 -2.0942
  916MOL0     H23617   5.741   7.040   8.804  0.1358 -0.3555 -1.4084
  916MOL0     H23618   5.445   7.028   8.743 -0.5715  0.7654  1.6629
  916MOL0     H23619   5.519   7.163   8.793 -1.4030 -0.7193  0.8512
  916MOL0     H23620   5.292   7.172   8.913 -1.5669 -1.4007  0.1984
  916MOL0     H23621   5.016   7.210   9.057  0.8292 -1.2679 -0.1325
  916MOL0     H23622   5.129   7.335   9.124  0.4095 -1.8960  2.4950
  916MOL0     H23623   5.139   7.291   8.955 -1.4055  0.4894 -0.2875
  916MOL0     H23624   5.075   7.333   9.457  1.4111 -1.2617  1.9090
  916MOL0     H23625   4.974   7.417   9.664  2.6690 -1.5341  1.3131
  916MOL0     H23626   4.821   7.573   9.717 -0.8311  1.4007 -0.9499
  916MOL0     H23627   4.668   7.552   9.636  2.1197  1.2835 -1.6049
  916MOL0     H23628   4.562   7.517   9.866 -1.2265  1.4295 -1.4859
  916MOL0     H23629   4.718   7.554   9.940  1.1783 -0.4625 -2.5526
  916MOL0     H23630   4.672   7.773   9.770  1.1900  0.8135  1.6704
  916MOL0     H23631   4.676   7.774   9.942  0.4870  1.6938 -0.8831
  916MOL0     H23632   4.436   7.738   9.970 -5.3549 -1.4854 -2.1067
  916MOL0     H23633   4.456   7.875   9.856 -2.2346 -0.9008  0.9175
  916MOL0     H23634   4.282   7.714   9.794 -0.9871  1.4126 -0.9521
  916MOL0     H23635   4.403   7.594   9.749  0.5066  0.0765  1.3156
  916MOL0     H23636   4.304   7.825   9.614 -1.0344 -3.5863 -0.2053
  916MOL0     H23637   4.481   7.859   9.650  1.9537 -3.0105  1.4464
  916MOL0     H23638   4.345   7.631   9.518 -2.6834  3.0397  4.0330
  916MOL0     H23639   4.520   7.625   9.526 -1.1150 -0.8794  1.9863
  916MOL0     H23640   4.475   7.690   9.317 -2.7302 -0.9868 -0.0260
  916MOL0     H23641   4.535   7.840   9.389  0.3507 -0.7175  0.2914
  916MOL0     H23642   4.627   7.183   9.570  0.2645 -0.4194 -1.2604
  916MOL0     H23643   4.755   7.053   9.392  2.7628 -2.3890  0.1034
  916MOL0     H23644   5.307   6.917   9.327 -1.1724  0.1485  0.4456
  916MOL0     H23645   5.509   6.895   9.174 -0.6819 -0.2857 -0.2103
  916MOL0     H23646   5.601   6.701   7.945  0.8651 -0.8860 -1.4934
  916MOL0     H23647   5.637   6.921   8.049 -0.9148 -4.1066 -0.0260
  916MOL0     H23648   5.641   7.403   7.932 -0.5221 -1.8651 -0.0364
  916MOL0     H23649   5.699   7.638   7.932 -0.0603  0.1487  2.7646
  916MOL0     H23650   6.087   7.762   8.118 -1.6258  3.2854  3.2274
  916MOL0     H23651   6.135   7.777   7.952  1.9075  1.2330  1.1344
  916MOL0     H23652   5.961   7.998   8.043 -0.1076  2.2100 -3.1016
  916MOL0     H23653   6.078   7.995   7.918  0.0176 -1.4968  0.3085
  916MOL0     H23654   6.109   7.956   8.210 -2.8998  1.3532  0.3993
  916MOL0     H23655   6.136   8.126   8.148  1.4688 -0.3543 -0.2646
  916MOL0     H23656   6.332   8.040   8.016 -0.8967 -3.0625 -1.5116
  916MOL0     H23657   6.328   7.893   8.116 -0.4082  0.3470 -2.6765
  916MOL0     H23658   6.425   8.152   8.429  2.7755 -0.5356  0.0221
  916MOL0     H23659   6.097   7.553   8.076 -1.0945  0.7067  1.0981
  916MOL0     H23660   6.044   7.320   8.068 -0.8827 -1.2545 -1.3663
  917MOL0     O23661   9.148   3.734   3.389  0.2508  0.4434  0.3627
  917MOL0     C23662   9.217   3.634   3.387 -0.8969 -0.4896 -0.8806
  917MOL0     O23663   9.177   3.519   3.329 -0.5186 -0.3680 -0.1684
  917MOL0     C23664   9.060   3.516   3.276  0.3177  0.7290 -0.8186
  917MOL0     C23665   9.033   3.569   3.145 -0.7752  0.3995 -0.7689
  917MOL0     C23666   8.901   3.584   3.097 -0.3655 -0.4772  0.1780
  917MOL0     C23667   8.796   3.543   3.187  1.0744 -0.0059 -0.7970
  917MOL0     O23668   8.670   3.562   3.136  0.3718 -1.1380 -0.3270
  917MOL0     C23669   8.564   3.533   3.228 -0.3244  0.2275  0.5530
  917MOL0     C23670   8.425   3.541   3.158  0.4417  0.9046 -0.0057
  917MOL0     C23671   8.311   3.560   3.267  0.6394  0.0877  0.1157
  917MOL0     C23672   8.166   3.525   3.215 -0.2776 -0.0613 -0.5164
  917MOL0     C23673   8.060   3.573   3.309  0.3242 -0.8692  0.0208
  917MOL0     C23674   8.024   3.713   3.276 -0.5220  0.2955  0.0186
  917MOL0     C23675   7.933   3.724   3.147 -0.2312  0.3427 -0.1088
  917MOL0     C23676   7.778   3.705   3.172  0.7179  0.9210 -0.4205
  917MOL0     N23677   7.752   3.564   3.213  0.0042 -1.0378 -0.7958
  917MOL0     C23678   7.714   3.519   3.338 -0.1265  1.3630 -0.2566
  917MOL0     C23679   7.673   3.392   3.319 -0.1106  0.4131  0.7487
  917MOL0     C23680   7.616   3.304   3.423  1.3478 -1.1384 -0.0567
  917MOL0     C23681   7.661   3.159   3.417  0.5971 -0.6864 -0.0311
  917MOL0     C23682   7.588   3.073   3.509 -0.1668  0.1563 -0.3084
  917MOL0     C23683   7.618   2.930   3.477 -0.2437 -0.4188 -0.7283
  917MOL0     O23684   7.524   2.866   3.565 -0.4892 -0.1427 -0.0813
  917MOL0     C23685   7.515   2.725   3.557  0.7530 -0.4355 -0.5747
  917MOL0     C23686   7.402   2.666   3.617  0.1718 -0.2735 -1.0616
  917MOL0     C23687   7.386   2.529   3.630  0.5090  0.6359  0.3188
  917MOL0     C23688   7.263   2.480   3.707  0.3944  0.0076  0.5795
  917MOL0     C23689   7.474   2.446   3.546  0.5715  0.0557  0.6338
  917MOL0     C23690   7.461   2.303   3.528 -0.7486 -0.0195  0.2549
  917MOL0     O23691   7.576   2.224   3.527 -0.3924  0.2838  0.0536
  917MOL0     C23692   7.556   2.088   3.483 -0.2806 -0.1216 -0.7473
  917MOL0     C23693   7.485   1.990   3.554 -0.1614 -0.2006 -0.7327
  917MOL0     C23694   7.483   1.861   3.506 -0.6807  0.0402  0.2008
  917MOL0     C23695   7.569   1.826   3.395  0.3493  0.6107  0.2978
  917MOL0     O23696   7.571   1.698   3.352  0.8414 -0.0027 -0.1674
  917MOL0     C23697   7.436   1.638   3.321 -0.6454 -0.0374 -0.0253
  917MOL0     C23698   7.401   1.688   3.170  0.8373 -0.1246 -0.0191
  917MOL0     C23699   7.498   1.670   3.061 -0.2354  0.3677  0.1908
  917MOL0     C23700   7.439   1.666   2.921  0.2331  0.0193 -0.2319
  917MOL0     C23701   7.550   1.635   2.815  0.0906 -0.1639 -0.1067
  917MOL0     C23702   7.588   1.485   2.806  0.3353 -0.5631 -0.5796
  917MOL0     C23703   7.694   1.465   2.693 -0.5841  0.2573 -0.0206
  917MOL0     C23704   7.690   1.314   2.635  0.3120  0.5369 -1.4575
  917MOL0    Cl23705   7.819   1.293   2.510  0.6371 -0.0761  0.0389
  917MOL0     C23706   7.654   1.921   3.336 -0.1308  0.7316 -0.5593
  917MOL0     C23707   7.635   2.053   3.373 -0.2042 -0.1272  0.2996
  917MOL0     O23708   7.344   2.270   3.497 -0.4005  0.0821  0.4381
  917MOL0     C23709   7.581   2.513   3.472  0.3294 -0.6577  0.4586
  917MOL0     C23710   7.601   2.647   3.485 -0.1501  0.4049 -0.2446
  917MOL0     N23711   7.678   3.363   3.183 -0.3890 -0.5761  1.1576
  917MOL0     N23712   7.735   3.466   3.119  0.8326  0.7057  0.6167
  917MOL0     C23713   8.827   3.489   3.312 -0.2965 -0.0431 -0.2281
  917MOL0     C23714   8.953   3.465   3.357  0.4865  0.6628  0.5453
  917MOL0     C23715   9.349   3.652   3.454 -0.4134 -0.4952 -0.9456
  917MOL0     C23716   9.373   3.767   3.540 -0.3983  0.3377  0.0755
  917MOL0     C23717   9.502   3.778   3.592  0.2131 -0.4116 -1.1742
  917MOL0     C23718   9.605   3.681   3.587  0.4844 -0.1659  0.0855
  917MOL0     O23719   9.722   3.699   3.668 -0.1026  0.7867 -0.5655
  917MOL0     C23720   9.820   3.614   3.632 -0.6433  0.1354  0.2350
  917MOL0     C23721   9.938   3.659   3.716 -0.1434  0.3966 -1.2045
  917MOL0     C23722  10.074   3.597   3.689 -0.2969  1.3541  0.1412
  917MOL0     C23723  10.100   3.466   3.764  0.6310 -0.1081  1.0528
  917MOL0     C23724  10.177   3.479   3.890  0.1864 -0.7108  0.8405
  917MOL0     C23725  10.242   3.504   3.983 -0.9910 -0.3601 -0.7718
  917MOL0     C23726   9.582   3.571   3.506  0.4921 -0.6858 -0.1401
  917MOL0     C23727   9.452   3.548   3.444 -0.7878 -0.3709  0.1842
  917MOL0     H23728   9.120   3.600   3.089 -1.5711  1.5506 -1.4339
  917MOL0     H23729   8.882   3.627   3.000 -1.0896 -3.5648 -1.1589
  917MOL0     H23730   8.572   3.432   3.270  1.1482  0.1622  0.1718
  917MOL0     H23731   8.581   3.603   3.311  2.1434 -0.4367  0.6901
  917MOL0     H23732   8.423   3.629   3.093 -0.8059 -0.7454 -2.3345
  917MOL0     H23733   8.396   3.459   3.092 -2.6531  2.3990 -0.7427
  917MOL0     H23734   8.330   3.497   3.355 -0.2252  0.7531  0.7932
  917MOL0     H23735   8.318   3.662   3.304 -3.1113  1.6421 -2.8366
  917MOL0     H23736   8.156   3.574   3.117  3.7414  0.0167 -1.0690
  917MOL0     H23737   8.156   3.417   3.217  0.8325 -0.2358  2.8509
  917MOL0     H23738   7.963   3.521   3.307 -0.7811  1.1184 -0.0133
  917MOL0     H23739   8.086   3.549   3.412 -1.6414 -2.8175  0.1516
  917MOL0     H23740   7.976   3.759   3.363  0.1930  1.3688 -0.1438
  917MOL0     H23741   8.116   3.765   3.250 -0.6986  0.8641  0.5133
  917MOL0     H23742   7.946   3.828   3.115  1.6662 -0.5228 -2.4291
  917MOL0     H23743   7.957   3.664   3.059 -1.6235  0.0978 -0.3410
  917MOL0     H23744   7.726   3.712   3.076 -0.5756  1.5279  0.3027
  917MOL0     H23745   7.754   3.783   3.245  0.1561  2.9083 -2.5840
  917MOL0     H23746   7.735   3.581   3.425  2.6136  2.7989 -1.8126
  917MOL0     H23747   7.635   3.349   3.521 -1.9957 -3.7880  2.0275
  917MOL0     H23748   7.507   3.306   3.419  1.2898 -1.7372  1.0127
  917MOL0     H23749   7.770   3.165   3.422  0.5477 -0.7664  3.9806
  917MOL0     H23750   7.628   3.126   3.318 -0.7044 -0.2546  0.2298
  917MOL0     H23751   7.482   3.095   3.501 -0.5739 -1.2473  0.8098
  917MOL0     H23752   7.603   3.112   3.610 -2.5815  2.4411 -0.7340
  917MOL0     H23753   7.721   2.903   3.502 -0.2049  0.4677  0.1370
  917MOL0     H23754   7.599   2.913   3.371  2.0082  3.3177 -1.9231
  917MOL0     H23755   7.334   2.731   3.670  0.8342 -1.2436  1.1085
  917MOL0     H23756   7.176   2.535   3.671  1.7845  2.8223  1.2503
  917MOL0     H23757   7.231   2.379   3.681  0.2425  0.7356 -2.3915
  917MOL0     H23758   7.267   2.490   3.816 -2.0222 -2.5177  1.0021
  917MOL0     H23759   7.437   2.027   3.644  0.4446  0.8966 -0.8328
  917MOL0     H23760   7.420   1.788   3.557  0.6306 -1.0780  0.2737
  917MOL0     H23761   7.453   1.533   3.298  1.8937  0.4033 -0.5474
  917MOL0     H23762   7.366   1.647   3.405  1.0496  0.1666  1.4328
  917MOL0     H23763   7.309   1.639   3.138  1.4321 -2.0288  0.9678
  917MOL0     H23764   7.381   1.795   3.179 -1.3937 -0.5706  0.9213
  917MOL0     H23765   7.559   1.581   3.078 -2.3299 -0.9282  1.3618
  917MOL0     H23766   7.562   1.758   3.064 -0.2292  0.3875 -0.3506
  917MOL0     H23767   7.375   1.577   2.912 -1.7969  1.3532  0.3310
  917MOL0     H23768   7.379   1.756   2.908 -0.7041 -0.3054  1.5356
  917MOL0     H23769   7.644   1.685   2.839  1.3986 -2.1594 -0.7859
  917MOL0     H23770   7.515   1.678   2.721 -0.8566 -0.6332  0.0197
  917MOL0     H23771   7.620   1.459   2.907 -0.0329 -2.0801 -0.8207
  917MOL0     H23772   7.500   1.423   2.789 -1.4153  1.7326 -0.2708
  917MOL0     H23773   7.793   1.481   2.736  0.5378  0.1835 -2.3964
  917MOL0     H23774   7.690   1.536   2.610  4.0227 -3.1511 -3.6811
  917MOL0     H23775   7.601   1.285   2.579  0.5914  2.0314 -2.7701
  917MOL0     H23776   7.698   1.240   2.715  1.7546  0.2563 -1.8314
  917MOL0     H23777   7.720   1.892   3.255 -0.0269  2.4774 -1.1591
  917MOL0     H23778   7.690   2.130   3.319 -0.1058 -0.4486 -0.0623
  917MOL0     H23779   7.639   2.445   3.410  1.1779 -2.7227  3.2994
  917MOL0     H23780   7.678   2.696   3.427 -0.4563  0.7621 -0.3584
  917MOL0     H23781   8.746   3.483   3.384 -0.6987  3.6238 -0.1557
  917MOL0     H23782   8.984   3.435   3.456  1.2285 -0.5454 -0.0289
  917MOL0     H23783   9.302   3.848   3.551 -0.1022  0.8242 -1.3559
  917MOL0     H23784   9.533   3.864   3.651  1.6869 -2.0330  0.5858
  917MOL0     H23785   9.794   3.509   3.647  1.4063 -0.6276 -1.1006
  917MOL0     H23786   9.854   3.623   3.528  3.2517 -2.1584  1.1000
  917MOL0     H23787   9.919   3.637   3.822  2.8323 -1.4901 -0.9432
  917MOL0     H23788   9.945   3.766   3.698  3.1868  0.6191  0.7439
  917MOL0     H23789  10.159   3.665   3.701 -1.5428  3.3109 -1.4791
  917MOL0     H23790  10.064   3.569   3.583 -0.1406  0.0501  0.4545
  917MOL0     H23791  10.153   3.391   3.704  3.3852  1.4502  1.3580
  917MOL0     H23792  10.010   3.411   3.792  0.7768 -1.2686 -0.6236
  917MOL0     H23793  10.296   3.519   4.074 -0.1640 -1.3598 -1.0757
  917MOL0     H23794   9.651   3.492   3.480 -3.0472 -3.5855 -1.5575
  917MOL0     H23795   9.431   3.457   3.389 -0.8920 -0.6464  0.6733
  918MOL0     O23796   0.310   7.224   2.396 -0.1365  0.2880  0.3406
  918MOL0     C23797   0.371   7.253   2.291 -0.7579 -0.0918  0.2056
  918MOL0     O23798   0.458   7.175   2.226  0.0421  0.2926  0.7266
  918MOL0     C23799   0.489   7.040   2.252 -1.0172  0.1366 -0.3016
  918MOL0     C23800   0.391   6.954   2.300 -0.3384  0.8207  0.0762
  918MOL0     C23801   0.428   6.821   2.333  0.1975  0.8167 -0.1413
  918MOL0     C23802   0.558   6.777   2.307  0.0000 -0.2033  0.1243
  918MOL0     O23803   0.588   6.644   2.337  0.7379 -0.9440  0.2126
  918MOL0     C23804   0.680   6.574   2.252  0.4606  0.9316  1.0907
  918MOL0     C23805   0.814   6.565   2.320 -0.5192  0.3503 -0.3922
  918MOL0     C23806   0.825   6.442   2.400  0.1000 -0.3383 -0.5216
  918MOL0     C23807   0.964   6.420   2.469 -0.4194 -0.0410 -0.0748
  918MOL0     C23808   1.037   6.293   2.418  0.5315  1.0050 -0.2728
  918MOL0     C23809   0.960   6.159   2.427 -0.0530 -0.0399 -0.0355
  918MOL0     C23810   0.891   6.130   2.568 -1.1015  0.0481  0.7377
  918MOL0     C23811   0.895   5.979   2.600 -0.5038 -0.1336  0.6381
  918MOL0     N23812   1.028   5.941   2.659 -0.1456  0.0775 -0.3334
  918MOL0     C23813   1.075   5.968   2.785 -0.3429 -0.6867  0.6446
  918MOL0     C23814   1.186   5.895   2.793 -0.1332  0.4058  0.6915
  918MOL0     C23815   1.277   5.894   2.909  0.5016  0.3478  0.0488
  918MOL0     C23816   1.304   6.012   3.002  0.2780 -0.0763  0.5616
  918MOL0     C23817   1.370   5.988   3.137  0.1258  0.6204 -0.4135
  918MOL0     C23818   1.480   5.883   3.135 -0.1009 -0.2731  0.1488
  918MOL0     O23819   1.545   5.857   3.266 -0.0797  0.0330  0.5968
  918MOL0     C23820   1.536   5.737   3.316 -0.4630  0.8594  0.2414
  918MOL0     C23821   1.656   5.671   3.345 -0.5256 -0.4402 -0.6774
  918MOL0     C23822   1.660   5.559   3.426  0.1413 -1.1205  0.7174
  918MOL0     C23823   1.793   5.495   3.445  0.7970 -0.3832  0.4389
  918MOL0     C23824   1.536   5.502   3.471 -0.1460 -0.0759 -0.1313
  918MOL0     C23825   1.516   5.377   3.554  0.5659  0.1670  0.0692
  918MOL0     O23826   1.582   5.359   3.671 -0.2028 -0.3160 -0.5170
  918MOL0     C23827   1.581   5.244   3.752  0.2470 -0.5848  0.0785
  918MOL0     C23828   1.687   5.152   3.755 -0.3906  0.0946  0.2707
  918MOL0     C23829   1.674   5.039   3.832 -0.2413  0.5349  0.0229
  918MOL0     C23830   1.550   4.998   3.888 -0.6584  0.1522 -0.6564
  918MOL0     O23831   1.542   4.899   3.973  0.4858  0.6923 -0.4048
  918MOL0     C23832   1.527   4.934   4.111  0.4808 -0.2381  0.7857
  918MOL0     C23833   1.526   4.824   4.213 -0.1691 -0.3394  0.4069
  918MOL0     C23834   1.573   4.875   4.342  0.7109  0.0692  0.6254
  918MOL0     C23835   1.467   4.942   4.432 -0.0129 -0.2349 -0.4068
  918MOL0     C23836   1.534   5.020   4.548 -0.1596  0.7718 -0.4482
  918MOL0     C23837   1.420   5.055   4.652 -0.5018 -0.8848  0.9488
  918MOL0     C23838   1.472   5.103   4.791  0.4483  0.4992  0.0313
  918MOL0     C23839   1.586   5.052   4.874 -0.2620  0.3360  0.9497
  918MOL0    Cl23840   1.752   5.121   4.822  0.0381 -0.0416 -0.2444
  918MOL0     C23841   1.444   5.087   3.870  0.5019  0.5058  0.0027
  918MOL0     C23842   1.460   5.212   3.810 -1.2341 -0.2796  0.0525
  918MOL0     O23843   1.420   5.301   3.516  0.8966  0.3941  0.8583
  918MOL0     C23844   1.419   5.562   3.435  0.2113 -0.5795  0.4398
  918MOL0     C23845   1.414   5.677   3.358  0.5810 -0.1614  1.3575
  918MOL0     N23846   1.201   5.827   2.673 -0.5944  0.2329  0.0018
  918MOL0     N23847   1.102   5.852   2.596 -0.2649  0.1945 -0.0233
  918MOL0     C23848   0.659   6.864   2.253  0.1706  0.9690 -0.7785
  918MOL0     C23849   0.619   6.995   2.236  0.2069  0.2430  0.2704
  918MOL0     C23850   0.368   7.397   2.255  0.0013  0.5745 -0.2738
  918MOL0     C23851   0.314   7.496   2.338 -0.9417 -0.0620 -0.2917
  918MOL0     C23852   0.316   7.633   2.296  0.3104  0.4080 -0.2958
  918MOL0     C23853   0.374   7.665   2.174 -1.6727 -0.9271  0.2415
  918MOL0     O23854   0.396   7.797   2.151  0.5495 -0.0971 -0.2859
  918MOL0     C23855   0.497   7.850   2.068 -0.7686  0.7956  0.5679
  918MOL0     C23856   0.631   7.835   2.136  0.0448  0.0536  0.0375
  918MOL0     C23857   0.709   7.968   2.132  0.4610 -0.0030  0.6812
  918MOL0     C23858   0.782   8.003   2.002 -0.1464  1.2753  0.3031
  918MOL0     C23859   0.685   8.067   1.908 -1.0051 -0.2976 -0.0638
  918MOL0     C23860   0.609   8.130   1.836 -0.3965 -0.1946  0.0556
  918MOL0     C23861   0.435   7.565   2.091  1.1630 -0.1094  0.7660
  918MOL0     C23862   0.431   7.429   2.132 -0.2222 -0.6771  0.5064
  918MOL0     H23863   0.289   6.983   2.321 -0.3252  1.6468 -0.9210
  918MOL0     H23864   0.348   6.753   2.362 -1.4762  2.9501  0.5507
  918MOL0     H23865   0.644   6.476   2.220 -1.5615  0.8377  3.4107
  918MOL0     H23866   0.689   6.622   2.154 -0.7952 -1.0027 -0.0504
  918MOL0     H23867   0.891   6.561   2.243 -0.1207  2.7169 -0.1760
  918MOL0     H23868   0.837   6.650   2.385 -1.9492  0.7729 -0.4003
  918MOL0     H23869   0.760   6.455   2.487  0.7569 -2.6385  0.3915
  918MOL0     H23870   0.793   6.353   2.346 -1.3706  1.5000 -2.8833
  918MOL0     H23871   1.028   6.506   2.450  1.0184 -1.5864 -2.9825
  918MOL0     H23872   0.952   6.413   2.577  1.5388  1.4910  0.2848
  918MOL0     H23873   1.058   6.312   2.312 -0.6870 -0.5339 -0.8245
  918MOL0     H23874   1.130   6.293   2.476  1.5579  1.7324 -1.8542
  918MOL0     H23875   0.884   6.145   2.349 -2.5132  0.5792  2.0854
  918MOL0     H23876   1.025   6.073   2.409 -2.4894 -2.3022  1.2242
  918MOL0     H23877   0.948   6.182   2.646  0.8776 -1.0554  0.1201
  918MOL0     H23878   0.785   6.156   2.565 -1.0991  0.1935 -3.8212
  918MOL0     H23879   0.889   5.930   2.502 -0.7822  2.0129 -0.4820
  918MOL0     H23880   0.820   5.943   2.670  0.7608  0.6223  2.4944
  918MOL0     H23881   1.022   6.030   2.856 -1.3754 -1.3652  0.4890
  918MOL0     H23882   1.235   5.808   2.962 -2.3386  1.9600  0.6167
  918MOL0     H23883   1.381   5.873   2.881  0.1306 -1.2428 -0.2107
  918MOL0     H23884   1.207   6.061   3.016  1.2912  2.1174  0.4048
  918MOL0     H23885   1.376   6.077   2.951 -1.5264  1.3749 -0.2531
  918MOL0     H23886   1.288   5.951   3.200  0.0965 -0.5591 -1.1106
  918MOL0     H23887   1.407   6.084   3.173  2.1627  1.1680 -3.6210
  918MOL0     H23888   1.565   5.916   3.074 -0.2798  0.1982  0.1536
  918MOL0     H23889   1.448   5.783   3.104  3.2769 -1.4662  0.0299
  918MOL0     H23890   1.744   5.720   3.304  0.4223  1.4073  3.0703
  918MOL0     H23891   1.837   5.481   3.346 -2.0775 -1.5617 -0.7709
  918MOL0     H23892   1.855   5.550   3.516  1.0552  1.8421 -1.3836
  918MOL0     H23893   1.781   5.392   3.479 -4.2611 -1.1517 -2.6449
  918MOL0     H23894   1.778   5.155   3.695 -1.4300 -0.7483 -1.4232
  918MOL0     H23895   1.759   4.973   3.845  0.1077  1.3530  2.5067
  918MOL0     H23896   1.611   4.999   4.138 -3.4093  4.0425  4.3242
  918MOL0     H23897   1.434   4.988   4.126 -2.3828 -5.2429  3.8373
  918MOL0     H23898   1.423   4.787   4.226 -0.5313 -0.2285 -1.7933
  918MOL0     H23899   1.594   4.746   4.178  2.8910  2.0659  0.6114
  918MOL0     H23900   1.654   4.947   4.327  0.5295  0.7900  2.7233
  918MOL0     H23901   1.613   4.789   4.397 -2.8796 -1.5293  0.9769
  918MOL0     H23902   1.402   5.000   4.364 -3.0012  2.8826  4.4925
  918MOL0     H23903   1.402   4.865   4.474 -3.7056  2.7866 -0.0307
  918MOL0     H23904   1.571   5.112   4.501 -1.6012  0.7254 -1.7399
  918MOL0     H23905   1.607   4.963   4.606 -1.4591  1.7020  2.3223
  918MOL0     H23906   1.364   5.135   4.603 -0.8159 -2.9591 -2.4500
  918MOL0     H23907   1.366   4.960   4.666 -0.3105 -1.5461 -2.1778
  918MOL0     H23908   1.380   5.089   4.848 -1.6904 -1.5651 -3.4886
  918MOL0     H23909   1.489   5.210   4.782  0.1582  0.4121 -2.0510
  918MOL0     H23910   1.581   4.944   4.889 -0.2812  0.4512  1.8406
  918MOL0     H23911   1.562   5.087   4.975 -0.8351  0.1360  0.8907
  918MOL0     H23912   1.350   5.058   3.916 -0.2262  3.1055  0.3210
  918MOL0     H23913   1.375   5.280   3.803 -0.5922  1.3265  4.3841
  918MOL0     H23914   1.328   5.516   3.471 -1.2119  1.5778 -0.2354
  918MOL0     H23915   1.317   5.723   3.338  2.1667  2.5276 -0.9403
  918MOL0     H23916   0.753   6.823   2.218  0.0307 -0.4431  0.3982
  918MOL0     H23917   0.690   7.062   2.188 -1.0033  1.1113 -0.3630
  918MOL0     H23918   0.257   7.477   2.429  0.6181 -1.3265  0.4635
  918MOL0     H23919   0.281   7.716   2.357  0.2806  1.5030 -1.7292
  918MOL0     H23920   0.516   7.804   1.970 -1.3048 -0.9967  1.2627
  918MOL0     H23921   0.465   7.947   2.028  2.1988  1.7155  0.2051
  918MOL0     H23922   0.690   7.763   2.078  1.1065  2.6473 -2.2947
  918MOL0     H23923   0.636   7.808   2.242  1.2744  3.5873  1.0264
  918MOL0     H23924   0.784   7.957   2.211  4.2751  2.8481 -2.1824
  918MOL0     H23925   0.645   8.055   2.151 -4.9424 -3.5048  0.6463
  918MOL0     H23926   0.823   7.917   1.948  0.6740  0.8182  1.6083
  918MOL0     H23927   0.862   8.076   2.018  0.7585  0.2256  0.6680
  918MOL0     H23928   0.540   8.176   1.768 -0.8097  0.1547  0.7006
  918MOL0     H23929   0.484   7.594   1.999 -2.1424 -1.1819 -1.5447
  918MOL0     H23930   0.483   7.360   2.067  0.0457  1.2735 -1.4595
  919MOL0     O23931   8.921   8.412   5.563 -0.8014  0.2225 -0.8494
  919MOL0     C23932   8.826   8.359   5.618  0.3221  0.3436 -0.9023
  919MOL0     O23933   8.704   8.329   5.552 -0.8563  0.1224 -0.5123
  919MOL0     C23934   8.712   8.301   5.410  0.3448 -1.8725  0.1322
  919MOL0     C23935   8.820   8.237   5.350 -0.1005  1.0550 -0.8321
  919MOL0     C23936   8.807   8.208   5.215  0.0596  0.1983  0.3650
  919MOL0     C23937   8.701   8.242   5.132 -0.1627 -0.1729 -0.4142
  919MOL0     O23938   8.700   8.218   4.992  0.1839 -0.6659  0.1523
  919MOL0     C23939   8.814   8.182   4.913  0.0621 -0.2920 -0.4541
  919MOL0     C23940   8.790   8.180   4.766  0.0237 -1.2588 -0.0342
  919MOL0     C23941   8.740   8.319   4.706 -1.0613  0.4541  0.1886
  919MOL0     C23942   8.812   8.445   4.748 -0.7705 -0.1917  0.2736
  919MOL0     C23943   8.934   8.485   4.664  0.4325  0.4870  1.3649
  919MOL0     C23944   9.015   8.606   4.719 -0.0315  0.0037 -0.0666
  919MOL0     C23945   8.934   8.738   4.726  0.1560 -0.2159 -0.2898
  919MOL0     C23946   8.911   8.788   4.591 -0.4493  0.1582  1.1140
  919MOL0     N23947   8.854   8.924   4.612  0.0649 -0.6878 -0.2789
  919MOL0     C23948   8.890   9.026   4.688 -0.0488 -0.1713 -0.3994
  919MOL0     C23949   8.795   9.122   4.675 -0.1661 -0.2161 -0.0833
  919MOL0     C23950   8.795   9.250   4.760 -0.0027  0.1683  0.1286
  919MOL0     C23951   8.873   9.358   4.696  0.9382 -0.4552  0.4129
  919MOL0     C23952   8.790   9.435   4.588 -0.7615  0.1463 -0.3606
  919MOL0     C23953   8.867   9.546   4.529 -0.8446  0.4867 -0.7225
  919MOL0     O23954   8.774   9.654   4.504  0.0694  0.1492 -0.0704
  919MOL0     C23955   8.704   9.650   4.385 -0.2443  0.7498  0.4053
  919MOL0     C23956   8.713   9.568   4.272  0.0374 -0.1212  1.1174
  919MOL0     C23957   8.628   9.590   4.154 -0.1764  0.5574 -0.4350
  919MOL0     C23958   8.674   9.512   4.031  0.5473  0.1557  0.3063
  919MOL0     C23959   8.538   9.702   4.156 -1.1729 -0.3756  0.5972
  919MOL0     C23960   8.450   9.738   4.045  0.6254  0.2299  0.0524
  919MOL0     O23961   8.429   9.872   4.020 -0.3628  0.7815  0.6768
  919MOL0     C23962   8.344   9.897   3.912 -0.6665  0.1182  0.6691
  919MOL0     C23963   8.227   9.960   3.931 -0.4962  0.1521  0.3633
  919MOL0     C23964   8.130   9.973   3.833 -0.9809 -0.7914  0.8054
  919MOL0     C23965   8.156   9.954   3.700  0.2996 -0.5182  0.1503
  919MOL0     O23966   8.069   9.975   3.598 -0.4706 -0.1258  0.2920
  919MOL0     C23967   7.962  10.066   3.592  0.2305 -0.2135 -0.4134
  919MOL0     C23968   7.914  10.091   3.451 -0.0310 -0.8695 -0.2431
  919MOL0     C23969   8.028  10.173   3.375  0.0283 -0.2037 -0.6882
  919MOL0     C23970   7.997  10.209   3.237 -0.5220 -0.5316 -0.9675
  919MOL0     C23971   8.124  10.248   3.163 -0.5241 -0.0063  1.0121
  919MOL0     C23972   8.099  10.295   3.017 -0.0025 -0.3576 -0.1263
  919MOL0     C23973   8.223  10.292   2.921  0.0201 -0.3583 -0.2465
  919MOL0     C23974   8.215  10.382   2.803  0.3058  0.6523  0.0633
  919MOL0    Cl23975   8.073  10.319   2.711  0.2574  0.0726 -0.2858
  919MOL0     C23976   8.285   9.900   3.667  0.4845  0.8243  0.2631
  919MOL0     C23977   8.374   9.875   3.782 -0.8075  0.9434  0.0513
  919MOL0     O23978   8.409   9.644   3.981 -0.0725 -0.1011 -0.8439
  919MOL0     C23979   8.523   9.778   4.271  0.2944 -0.8766 -0.1295
  919MOL0     C23980   8.600   9.750   4.380  0.0293 -1.1719  0.2004
  919MOL0     N23981   8.703   9.077   4.583  0.5817 -0.1566 -0.6353
  919MOL0     N23982   8.738   8.961   4.548 -0.1659  0.6600  0.2216
  919MOL0     C23983   8.595   8.310   5.190 -0.0241 -0.8389 -0.1578
  919MOL0     C23984   8.596   8.337   5.328  0.1719 -0.0835  0.0432
  919MOL0     C23985   8.841   8.326   5.760 -0.7927 -0.5801  1.0114
  919MOL0     C23986   8.963   8.338   5.823 -0.0998  0.5512 -0.2721
  919MOL0     C23987   8.975   8.282   5.957  0.0347  0.2932 -0.1779
  919MOL0     C23988   8.864   8.241   6.027  0.6935  0.3223  0.4074
  919MOL0     O23989   8.885   8.200   6.159 -0.3070  0.4316  0.1325
  919MOL0     C23990   8.781   8.193   6.257  0.3995 -0.0179 -0.0084
  919MOL0     C23991   8.846   8.196   6.391 -1.2316  0.7324  0.5596
  919MOL0     C23992   8.755   8.162   6.509  0.5913 -0.0095  0.0856
  919MOL0     C23993   8.812   8.201   6.646  0.2295  0.4039  0.8944
  919MOL0     C23994   8.761   8.336   6.678 -0.1843 -0.2544 -0.0091
  919MOL0     C23995   8.718   8.438   6.730 -0.5929  0.0215 -0.1085
  919MOL0     C23996   8.746   8.231   5.954  1.2278  0.6111  0.2369
  919MOL0     C23997   8.731   8.266   5.819  0.4068 -0.0626  0.1820
  919MOL0     H23998   8.910   8.190   5.387 -1.1818 -3.1161 -2.9656
  919MOL0     H23999   8.894   8.160   5.172  0.4752  2.3492 -1.3677
  919MOL0     H24000   8.906   8.237   4.930  1.5880 -2.1403 -2.2676
  919MOL0     H24001   8.843   8.084   4.954  1.7984  0.4102  0.0855
  919MOL0     H24002   8.887   8.175   4.715  0.4926  2.3671  0.2519
  919MOL0     H24003   8.721   8.101   4.735  2.5884 -3.7030  0.1247
  919MOL0     H24004   8.748   8.312   4.597  0.0014  3.0532  0.0331
  919MOL0     H24005   8.639   8.330   4.747 -1.3842 -0.7058 -0.2523
  919MOL0     H24006   8.757   8.539   4.733  2.3867  1.3384 -3.5173
  919MOL0     H24007   8.839   8.439   4.854  0.4485  0.0347 -0.0117
  919MOL0     H24008   8.999   8.396   4.666 -0.3281 -0.1340 -0.0703
  919MOL0     H24009   8.908   8.504   4.559 -3.9760 -2.7069  1.6064
  919MOL0     H24010   9.050   8.588   4.822  1.9465 -0.4800 -0.7834
  919MOL0     H24011   9.107   8.617   4.662  0.6436  0.4413  1.0863
  919MOL0     H24012   8.844   8.732   4.788  2.1675  0.3824  2.9259
  919MOL0     H24013   8.995   8.805   4.786  0.7239  0.2284 -1.3328
  919MOL0     H24014   8.836   8.721   4.547 -0.3047 -0.4058  1.7045
  919MOL0     H24015   8.997   8.788   4.523  0.7502  0.8805  2.5740
  919MOL0     H24016   8.974   9.028   4.757  0.4662 -1.7487 -0.9342
  919MOL0     H24017   8.694   9.276   4.791 -0.2515 -0.4020 -0.1764
  919MOL0     H24018   8.847   9.229   4.853  4.3219 -1.6243 -2.3764
  919MOL0     H24019   8.958   9.310   4.647 -0.7838 -3.3807  0.0868
  919MOL0     H24020   8.911   9.432   4.767 -1.6058  2.7286 -1.2730
  919MOL0     H24021   8.703   9.471   4.643 -0.3889 -1.0055  1.0815
  919MOL0     H24022   8.762   9.368   4.506 -3.6347  0.0038  0.6176
  919MOL0     H24023   8.917   9.515   4.436  1.0081 -0.3784  0.4981
  919MOL0     H24024   8.947   9.583   4.594 -3.1910  3.6030  0.6643
  919MOL0     H24025   8.791   9.493   4.262  2.6641  2.0811  3.4930
  919MOL0     H24026   8.588   9.446   4.016 -1.3251  2.4515  0.1913
  919MOL0     H24027   8.690   9.580   3.946  0.6624 -2.1896 -1.6496
  919MOL0     H24028   8.762   9.451   4.049  0.7180  0.7875  1.7567
  919MOL0     H24029   8.197  10.007   4.024 -0.9251  4.2586 -1.6215
  919MOL0     H24030   8.036  10.011   3.872 -1.9490 -2.6645  0.3865
  919MOL0     H24031   7.883  10.029   3.658  1.7396 -3.2027 -0.1315
  919MOL0     H24032   8.001  10.164   3.620  1.1991 -0.5217 -0.6704
  919MOL0     H24033   7.890   9.989   3.422 -2.1911  0.3372 -3.2650
  919MOL0     H24034   7.826  10.153   3.432  0.4395  0.1854  0.8863
  919MOL0     H24035   8.125  10.123   3.368  0.6618  0.9815 -0.5805
  919MOL0     H24036   8.040  10.257   3.443 -1.9476 -2.4578  2.7623
  919MOL0     H24037   7.967  10.118   3.183  4.5231 -0.9604 -3.6833
  919MOL0     H24038   7.925  10.290   3.247  0.1334 -0.0558 -0.0358
  919MOL0     H24039   8.189  10.161   3.154  0.9488  0.9997  1.5523
  919MOL0     H24040   8.190  10.320   3.212 -1.4114 -0.0958  2.3910
  919MOL0     H24041   8.032  10.224   2.969 -1.1359 -0.4599  1.5045
  919MOL0     H24042   8.048  10.392   3.012  2.3405  0.8699 -2.4649
  919MOL0     H24043   8.250  10.193   2.883 -0.7400 -0.2221 -1.1740
  919MOL0     H24044   8.305  10.329   2.984  0.4958  1.6027 -1.9369
  919MOL0     H24045   8.303  10.379   2.738 -0.6224 -3.3703 -1.2736
  919MOL0     H24046   8.201  10.483   2.844  1.3390 -0.1396  2.5845
  919MOL0     H24047   8.317   9.886   3.564 -1.4401  2.1704 -0.5570
  919MOL0     H24048   8.466   9.821   3.766 -2.4811 -2.1884  0.0985
  919MOL0     H24049   8.463   9.866   4.289  0.9469 -0.8613  2.2685
  919MOL0     H24050   8.603   9.823   4.460  1.1541 -0.9715  0.0010
  919MOL0     H24051   8.507   8.326   5.128  0.1138 -1.0300 -0.4036
  919MOL0     H24052   8.513   8.392   5.372  0.6507  3.0620 -2.5484
  919MOL0     H24053   9.053   8.375   5.775  0.4669 -2.1662 -1.4881
  919MOL0     H24054   9.066   8.293   6.015 -0.1366  2.9331 -0.2683
  919MOL0     H24055   8.711   8.276   6.241 -2.8390 -2.9969 -3.1923
  919MOL0     H24056   8.723   8.101   6.247 -1.4963  1.2900 -2.2301
  919MOL0     H24057   8.906   8.284   6.414  1.9292 -1.4449  1.3280
  919MOL0     H24058   8.925   8.120   6.388 -0.4625  1.5413  0.0551
  919MOL0     H24059   8.738   8.054   6.505 -0.8253  0.2238 -0.8022
  919MOL0     H24060   8.660   8.214   6.494  1.7541  2.9535  2.0379
  919MOL0     H24061   8.921   8.193   6.637 -0.0429 -1.8800 -2.6056
  919MOL0     H24062   8.792   8.121   6.718  1.4396 -0.3294  0.4498
  919MOL0     H24063   8.674   8.513   6.794  0.3197  0.1181  0.4275
  919MOL0     H24064   8.655   8.192   6.000  0.7860 -1.2616 -2.0634
  919MOL0     H24065   8.635   8.247   5.773  1.6569 -5.1296 -0.9810
  920MOL0     O24066   3.482   9.797   9.191 -0.5086 -0.3484 -0.3836
  920MOL0     C24067   3.522   9.893   9.127  0.2218 -0.1855 -0.5911
  920MOL0     O24068   3.565   9.895   8.996  0.2448 -0.1672 -0.4499
  920MOL0     C24069   3.556   9.775   8.928  0.3017  0.8059  0.7243
  920MOL0     C24070   3.436   9.711   8.921 -0.0112 -1.0074  0.3111
  920MOL0     C24071   3.431   9.589   8.854  1.2639 -0.9656 -0.5246
  920MOL0     C24072   3.542   9.517   8.816  0.2471 -0.6386 -0.3583
  920MOL0     O24073   3.530   9.399   8.746  0.4185 -0.1014  0.3279
  920MOL0     C24074   3.606   9.287   8.792  0.0785 -0.5562 -0.7306
  920MOL0     C24075   3.570   9.162   8.712 -0.5006  0.2567  0.5654
  920MOL0     C24076   3.632   9.033   8.770  0.1537  1.0929  0.4112
  920MOL0     C24077   3.775   9.011   8.739 -0.0238  1.0191  0.1281
  920MOL0     C24078   3.823   8.875   8.766 -0.1241 -0.0922  0.1710
  920MOL0     C24079   3.855   8.846   8.912 -0.7509  0.2148  0.1732
  920MOL0     C24080   3.752   8.748   8.973 -1.6525  0.6713 -0.1798
  920MOL0     C24081   3.710   8.769   9.115 -0.3992  0.5985  0.5208
  920MOL0     N24082   3.794   8.681   9.201 -0.5358 -0.2352 -0.4632
  920MOL0     C24083   3.741   8.573   9.267  0.4067 -0.3637  0.4091
  920MOL0     C24084   3.844   8.507   9.323 -0.2966 -0.1494 -0.3723
  920MOL0     C24085   3.823   8.376   9.396 -0.8464 -0.6645 -0.5726
  920MOL0     C24086   3.951   8.291   9.388  0.2504 -0.1595  0.3845
  920MOL0     C24087   3.938   8.165   9.473 -0.3045 -0.1427 -0.6057
  920MOL0     C24088   3.824   8.072   9.413 -0.0168 -0.5912 -0.3912
  920MOL0     O24089   3.777   7.972   9.498 -0.5639 -0.1729 -0.7634
  920MOL0     C24090   3.836   7.855   9.476 -0.4355  0.6094 -1.6048
  920MOL0     C24091   3.755   7.746   9.479  0.1629  0.0403 -0.8101
  920MOL0     C24092   3.795   7.609   9.470 -0.3210 -0.4444 -0.3622
  920MOL0     C24093   3.698   7.492   9.477 -0.5387  0.6830 -0.4528
  920MOL0     C24094   3.935   7.588   9.449  0.5972 -0.0113 -0.1269
  920MOL0     C24095   3.996   7.456   9.427 -0.3591  0.4331 -0.6125
  920MOL0     O24096   4.131   7.445   9.463 -0.0267 -0.3253  0.0007
  920MOL0     C24097   4.192   7.335   9.402  0.1942 -0.6242 -0.3746
  920MOL0     C24098   4.174   7.195   9.434  0.8921  0.1196  0.2253
  920MOL0     C24099   4.264   7.097   9.389  0.1446  0.3274 -0.5239
  920MOL0     C24100   4.362   7.127   9.299 -0.7438 -0.0960 -0.5432
  920MOL0     O24101   4.438   7.026   9.244 -0.7744 -0.0662 -0.4610
  920MOL0     C24102   4.525   7.050   9.140  0.2156  0.0394 -0.9571
  920MOL0     C24103   4.615   6.924   9.120  0.4036  0.1476 -0.2951
  920MOL0     C24104   4.719   6.953   9.020 -0.0299 -0.1059  0.8736
  920MOL0     C24105   4.786   6.833   8.966 -0.6943 -0.7521  0.1260
  920MOL0     C24106   4.892   6.864   8.861  0.2131  0.0226 -0.8654
  920MOL0     C24107   4.970   6.731   8.829 -0.7504 -0.5040  1.2003
  920MOL0     C24108   5.062   6.751   8.713  0.1023  0.4423 -0.4958
  920MOL0     C24109   5.192   6.832   8.737 -0.0584  0.6679  0.4165
  920MOL0    Cl24110   5.155   7.003   8.745 -0.3181 -0.5139  0.0110
  920MOL0     C24111   4.371   7.268   9.253 -0.6503 -0.7931 -0.2363
  920MOL0     C24112   4.277   7.363   9.299 -0.6920  0.1564 -0.4631
  920MOL0     O24113   3.930   7.371   9.364 -0.0619 -0.1361 -0.9471
  920MOL0     C24114   4.021   7.697   9.446 -0.6340  0.2874 -0.6369
  920MOL0     C24115   3.967   7.829   9.457  0.3388  1.1285 -0.9083
  920MOL0     N24116   3.961   8.585   9.308 -0.4732  0.1088  0.5346
  920MOL0     N24117   3.929   8.687   9.235  0.2839  0.3811 -0.2851
  920MOL0     C24118   3.668   9.581   8.825  0.1064 -0.4630 -0.1485
  920MOL0     C24119   3.674   9.715   8.881  0.3601 -0.1662 -0.6894
  920MOL0     C24120   3.509  10.019   9.216  1.0711  0.2125  0.7761
  920MOL0     C24121   3.486  10.008   9.348 -0.2712  0.2051 -0.4525
  920MOL0     C24122   3.482  10.124   9.433 -1.0838 -0.9274 -0.8271
  920MOL0     C24123   3.527  10.253   9.379  0.1668  0.6486 -0.1663
  920MOL0     O24124   3.554  10.352   9.463 -0.1770 -0.2377 -0.0100
  920MOL0     C24125   3.444  10.381   9.549 -0.0317 -1.0815  0.3717
  920MOL0     C24126   3.459  10.527   9.589  0.1524  0.0005 -0.1761
  920MOL0     C24127   3.324  10.598   9.602 -0.0989 -0.8159  0.4166
  920MOL0     C24128   3.347  10.740   9.652  0.4570  0.5463 -0.8788
  920MOL0     C24129   3.388  10.743   9.791  1.1491 -0.0105 -0.6115
  920MOL0     C24130   3.402  10.757   9.908 -0.5051 -0.4467  0.4288
  920MOL0     C24131   3.560  10.259   9.243 -0.4663  0.1226 -0.4113
  920MOL0     C24132   3.553  10.144   9.171 -0.1149  0.1423  0.1867
  920MOL0     H24133   3.345   9.760   8.955  1.4138 -0.7918  4.3596
  920MOL0     H24134   3.333   9.554   8.823  0.3381  3.0411 -2.9058
  920MOL0     H24135   3.715   9.294   8.778  0.8443 -2.2181  2.9977
  920MOL0     H24136   3.586   9.275   8.899 -0.2827 -1.3313 -0.8831
  920MOL0     H24137   3.462   9.145   8.713 -0.0658 -2.9266  0.7204
  920MOL0     H24138   3.608   9.164   8.609 -1.1896  1.2726  0.3065
  920MOL0     H24139   3.633   9.027   8.879  3.4031 -2.7337  0.3906
  920MOL0     H24140   3.568   8.951   8.737  1.6148 -0.0687  0.3949
  920MOL0     H24141   3.785   9.038   8.633  1.7124 -1.0747 -0.3262
  920MOL0     H24142   3.839   9.076   8.799  1.4883 -0.9204  0.7020
  920MOL0     H24143   3.754   8.800   8.728  1.4201 -0.5617 -1.9044
  920MOL0     H24144   3.914   8.851   8.710 -1.6299 -2.0085 -1.6120
  920MOL0     H24145   3.953   8.803   8.936 -1.7485 -2.7735 -0.6364
  920MOL0     H24146   3.851   8.938   8.971 -1.8401  0.2305  0.0830
  920MOL0     H24147   3.669   8.744   8.902  2.2900  0.1428 -5.3425
  920MOL0     H24148   3.790   8.646   8.961 -1.0295  1.0732 -1.9361
  920MOL0     H24149   3.608   8.730   9.122 -1.2307  2.8013  1.6608
  920MOL0     H24150   3.719   8.877   9.129 -1.6736  1.3513 -3.2266
  920MOL0     H24151   3.639   8.536   9.256  0.3345 -0.7595  2.1718
  920MOL0     H24152   3.799   8.397   9.500  0.5972 -0.0933 -0.3402
  920MOL0     H24153   3.734   8.325   9.358 -1.4763  0.5011 -0.6987
  920MOL0     H24154   4.039   8.350   9.413 -0.1783  1.7658 -2.2400
  920MOL0     H24155   3.964   8.261   9.283 -0.4225 -2.4582  0.8981
  920MOL0     H24156   3.919   8.181   9.579 -0.0948  0.4614 -0.6518
  920MOL0     H24157   4.035   8.115   9.466 -1.5202 -2.5713 -1.1086
  920MOL0     H24158   3.856   8.033   9.316  1.2479 -2.1133  0.5892
  920MOL0     H24159   3.725   8.116   9.398  0.3970 -0.0737 -1.7664
  920MOL0     H24160   3.650   7.775   9.485  0.3751  0.8752 -0.9391
  920MOL0     H24161   3.596   7.509   9.513 -0.3270 -0.6605  0.8613
  920MOL0     H24162   3.687   7.460   9.372 -1.6231  1.6011 -0.6333
  920MOL0     H24163   3.735   7.410   9.540 -0.3039  1.6981  0.7565
  920MOL0     H24164   4.099   7.160   9.503 -0.5400 -0.7208 -1.6906
  920MOL0     H24165   4.248   6.994   9.421 -0.7136  0.7983  0.6123
  920MOL0     H24166   4.471   7.067   9.046  0.4057  1.7714 -0.7830
  920MOL0     H24167   4.580   7.144   9.149  0.3836 -0.0728 -0.8123
  920MOL0     H24168   4.646   6.896   9.221 -8.3224  2.2496  4.0102
  920MOL0     H24169   4.555   6.838   9.089 -2.0052  1.3156  0.8063
  920MOL0     H24170   4.798   7.008   9.073 -2.1507  2.0701  1.9649
  920MOL0     H24171   4.689   7.014   8.934 -2.0767 -3.9398 -1.4110
  920MOL0     H24172   4.846   6.786   9.044  0.5447  1.5060  0.6086
  920MOL0     H24173   4.713   6.761   8.927  1.2740 -1.6861 -2.0369
  920MOL0     H24174   4.955   6.932   8.919  1.3383 -1.7738  0.0828
  920MOL0     H24175   4.848   6.919   8.777 -1.1185 -0.5967 -0.6163
  920MOL0     H24176   5.013   6.690   8.921 -1.0663 -1.0130  1.1271
  920MOL0     H24177   4.900   6.648   8.815 -1.9083  0.3008  2.0702
  920MOL0     H24178   4.999   6.795   8.635 -1.4745 -0.0299  0.4631
  920MOL0     H24179   5.096   6.651   8.686  0.7404  0.5545 -0.1382
  920MOL0     H24180   5.256   6.818   8.649  2.2037 -1.3200  2.2296
  920MOL0     H24181   5.241   6.798   8.829  0.0654  0.8978  0.4357
  920MOL0     H24182   4.446   7.301   9.182  0.6975 -1.7528  0.6832
  920MOL0     H24183   4.293   7.467   9.272  1.9143 -0.7625 -3.0675
  920MOL0     H24184   4.126   7.671   9.447 -0.6855 -0.2423  2.2196
  920MOL0     H24185   4.033   7.915   9.460  0.5100  1.0007  2.1320
  920MOL0     H24186   3.761   9.536   8.791 -0.6873 -0.1574 -2.9372
  920MOL0     H24187   3.770   9.765   8.877  0.1394  0.2349 -1.2455
  920MOL0     H24188   3.464   9.913   9.395  0.6989  1.8499  3.7675
  920MOL0     H24189   3.455  10.109   9.537  1.2645 -0.4107 -0.0809
  920MOL0     H24190   3.345  10.355   9.512  0.5711 -0.8830 -1.4707
  920MOL0     H24191   3.461  10.312   9.633  3.3022  0.2930  0.9914
  920MOL0     H24192   3.522  10.576   9.515  1.1954 -0.4377  0.3971
  920MOL0     H24193   3.508  10.542   9.686 -3.2313  2.4602  1.3573
  920MOL0     H24194   3.277  10.540   9.682  0.1966 -1.0347  0.4301
  920MOL0     H24195   3.267  10.595   9.509  1.3745  1.4677 -0.6575
  920MOL0     H24196   3.251  10.788   9.631 -0.3502 -1.3103 -1.6097
  920MOL0     H24197   3.421  10.792   9.590  3.1382 -0.0531  1.5872
  920MOL0     H24198   3.394  10.779  10.013 -1.4955 -0.5921  0.3912
  920MOL0     H24199   3.587  10.354   9.198 -1.6682  0.0879 -1.2552
  920MOL0     H24200   3.582  10.147   9.066 -0.2230  0.8975  0.1714
  921MOL0     O24201   2.993   0.182   0.976  0.2968  0.1463 -0.5903
  921MOL0     C24202   3.107   0.147   0.950 -1.0442  1.3416 -0.5874
  921MOL0     O24203   3.160   0.111   0.831 -0.5079  0.6537 -0.2972
  921MOL0     C24204   3.081   0.093   0.731  1.1182  0.6033  0.1285
  921MOL0     C24205   3.056   0.203   0.654 -0.7460 -0.7464 -0.6280
  921MOL0     C24206   2.956   0.195   0.552 -0.1411  0.1524 -1.1364
  921MOL0     C24207   2.893   0.069   0.528 -0.8442 -0.3113  0.0709
  921MOL0     O24208   2.806   0.054   0.421 -0.5049  1.0861  0.0177
  921MOL0     C24209   2.849  -0.014   0.309 -1.2902 -0.4574 -0.4674
  921MOL0     C24210   2.926   0.090   0.215  0.3902  0.7451 -0.9370
  921MOL0     C24211   2.826   0.209   0.181  1.2853 -0.2549 -0.7542
  921MOL0     C24212   2.886   0.324   0.097 -0.1344 -0.8312  0.0833
  921MOL0     C24213   2.775   0.434   0.061  0.1791  0.1503  1.0865
  921MOL0     C24214   2.836   0.572   0.092 -0.0962 -0.3821 -0.1673
  921MOL0     C24215   2.771   0.678  -0.007  0.2595 -0.4906  0.2610
  921MOL0     C24216   2.834   0.825   0.012  0.9204 -0.0716  0.6005
  921MOL0     N24217   2.979   0.825   0.002 -0.2930  0.3846  1.1141
  921MOL0     C24218   3.060   0.894   0.096 -0.4584  0.8022  0.1804
  921MOL0     C24219   3.171   0.928   0.027  0.9902  0.8351  0.1182
  921MOL0     C24220   3.278   1.026   0.086 -0.0373  0.1496 -0.1205
  921MOL0     C24221   3.278   1.162   0.023  0.5953  0.2027 -0.0987
  921MOL0     C24222   3.397   1.248   0.077  0.5517 -0.4851 -0.5200
  921MOL0     C24223   3.357   1.338   0.190 -1.0228  0.2350 -0.5163
  921MOL0     O24224   3.468   1.342   0.285  0.0240  0.1691 -0.1290
  921MOL0     C24225   3.459   1.272   0.403  0.9691 -0.2545  0.0919
  921MOL0     C24226   3.501   1.138   0.407  0.2095  0.6781 -0.0960
  921MOL0     C24227   3.493   1.060   0.527  0.2811  0.6539 -0.4577
  921MOL0     C24228   3.522   0.918   0.528 -0.5800  0.4357  0.0889
  921MOL0     C24229   3.464   1.130   0.647 -0.9330 -0.3968 -0.2875
  921MOL0     C24230   3.473   1.076   0.782 -0.2049 -0.1155  0.1077
  921MOL0     O24231   3.358   1.028   0.832  0.9042 -1.0708 -0.6561
  921MOL0     C24232   3.331   1.020   0.974 -0.2608 -0.0091  1.0524
  921MOL0     C24233   3.421   1.033   1.079 -0.0865  0.4785  0.3043
  921MOL0     C24234   3.372   1.056   1.208  0.5821  0.4629 -0.5109
  921MOL0     C24235   3.236   1.036   1.237  0.0148 -0.5355  0.8126
  921MOL0     O24236   3.183   1.061   1.361  0.7645  0.0484 -0.1638
  921MOL0     C24237   3.268   1.038   1.473  0.1609 -0.1940  0.1767
  921MOL0     C24238   3.199   1.057   1.613  0.3059  0.2926  0.3411
  921MOL0     C24239   3.128   0.929   1.662  0.2220  0.1334  0.1263
  921MOL0     C24240   3.028   0.959   1.776  1.2242  0.1812 -0.8704
  921MOL0     C24241   2.956   0.836   1.844 -0.8148  0.4644 -0.2635
  921MOL0     C24242   2.808   0.862   1.862 -0.4662 -0.2777 -0.0917
  921MOL0     C24243   2.715   0.848   1.738  0.0641 -0.6578 -0.3538
  921MOL0     C24244   2.582   0.770   1.772 -0.5465 -0.5405  0.2154
  921MOL0    Cl24245   2.628   0.601   1.821  0.1100  0.0535  0.2878
  921MOL0     C24246   3.152   1.014   1.128  0.1610 -0.3734  0.8805
  921MOL0     C24247   3.198   1.008   1.002  0.0117 -0.3727 -1.1090
  921MOL0     O24248   3.586   1.049   0.824  0.6074  0.9097 -0.4503
  921MOL0     C24249   3.424   1.264   0.638  0.2094 -1.6155 -0.0427
  921MOL0     C24250   3.428   1.338   0.519  1.0896  0.4434  0.1599
  921MOL0     N24251   3.167   0.868  -0.105 -0.8430  0.3435  0.0707
  921MOL0     N24252   3.053   0.802  -0.114 -0.2810 -0.6121  0.6378
  921MOL0     C24253   2.931  -0.040   0.601  1.1850  0.7108  1.8952
  921MOL0     C24254   3.021  -0.025   0.699 -0.5446  0.8685  0.3022
  921MOL0     C24255   3.187   0.109   1.065  0.1161 -0.4618 -0.5256
  921MOL0     C24256   3.314   0.041   1.052 -0.0562 -0.2180  0.1613
  921MOL0     C24257   3.392  -0.003   1.162  0.6717 -0.3397 -0.2064
  921MOL0     C24258   3.341   0.018   1.294 -0.3824 -0.9126 -0.8310
  921MOL0     O24259   3.415  -0.014   1.407  0.6043  0.3783  1.3702
  921MOL0     C24260   3.356  -0.084   1.529 -0.7461 -0.6292  0.2381
  921MOL0     C24261   3.258  -0.205   1.493  0.1086 -0.5679  0.1779
  921MOL0     C24262   3.208  -0.259   1.631 -0.4393 -0.3569  0.2809
  921MOL0     C24263   3.090  -0.353   1.631  0.8350  0.5590 -0.5331
  921MOL0     C24264   2.970  -0.294   1.570 -0.2094  0.4032 -0.5218
  921MOL0     C24265   2.876  -0.240   1.509 -0.1010  0.1581 -0.9325
  921MOL0     C24266   3.224   0.081   1.313  0.3516  0.2600  0.0931
  921MOL0     C24267   3.147   0.126   1.197  0.8220  0.0036 -1.0813
  921MOL0     H24268   3.093   0.305   0.667 -2.9147  0.1465 -0.9750
  921MOL0     H24269   2.929   0.274   0.482  0.3878  0.8877 -0.5336
  921MOL0     H24270   2.908  -0.101   0.341 -0.4727  0.7569  1.5496
  921MOL0     H24271   2.756  -0.053   0.267 -1.3607  0.1292 -0.8673
  921MOL0     H24272   3.014   0.119   0.274 -0.7605  0.3588  1.0831
  921MOL0     H24273   2.951   0.046   0.118 -1.1033 -2.1946 -0.1414
  921MOL0     H24274   2.737   0.158   0.141 -0.4357  1.6276  0.4666
  921MOL0     H24275   2.790   0.252   0.275 -1.4790 -0.5211 -1.5887
  921MOL0     H24276   2.973   0.360   0.153  1.5016 -1.3076 -2.0220
  921MOL0     H24277   2.930   0.282   0.006  5.0804  0.6789  1.5651
  921MOL0     H24278   2.737   0.427  -0.041 -0.9240  1.6140  1.3563
  921MOL0     H24279   2.689   0.424   0.129  1.3033 -0.3674  2.4768
  921MOL0     H24280   2.832   0.601   0.197 -1.7204 -2.2592  0.3659
  921MOL0     H24281   2.940   0.556   0.062 -0.4089 -3.7133  0.1778
  921MOL0     H24282   2.806   0.647  -0.106  0.3698 -0.2313  0.2179
  921MOL0     H24283   2.662   0.686  -0.005  0.3060  0.2961  0.0016
  921MOL0     H24284   2.825   0.860   0.116  1.5731 -0.2965  0.7362
  921MOL0     H24285   2.779   0.893  -0.053 -2.9502 -2.4893  1.0338
  921MOL0     H24286   3.037   0.929   0.196 -2.1138 -0.5067  0.2892
  921MOL0     H24287   3.262   1.017   0.194  0.5782 -4.8613 -0.2207
  921MOL0     H24288   3.379   0.986   0.078 -0.4427 -0.7905 -0.7688
  921MOL0     H24289   3.182   1.207   0.050  0.9387  1.8562 -1.4542
  921MOL0     H24290   3.277   1.163  -0.086  2.6291 -1.6851 -0.2023
  921MOL0     H24291   3.426   1.310  -0.008  1.6301  0.7992  0.7453
  921MOL0     H24292   3.486   1.193   0.108  1.0752  0.8513  0.4020
  921MOL0     H24293   3.267   1.300   0.239  0.9055 -4.6769 -0.2023
  921MOL0     H24294   3.329   1.436   0.150 -1.6264 -0.5779 -2.1530
  921MOL0     H24295   3.522   1.090   0.312  2.0574  0.1386  0.5486
  921MOL0     H24296   3.543   0.880   0.428 -3.1742 -4.6774  1.1606
  921MOL0     H24297   3.597   0.896   0.605 -1.5215  1.0207  1.2052
  921MOL0     H24298   3.440   0.858   0.568  3.0232 -5.7972 -0.5576
  921MOL0     H24299   3.527   1.059   1.075  0.3798 -1.1683  1.1295
  921MOL0     H24300   3.435   1.085   1.292 -1.2173  4.6392 -0.3434
  921MOL0     H24301   3.314   0.939   1.468  1.2238  0.2852  0.2071
  921MOL0     H24302   3.349   1.112   1.470  1.0270 -1.1552 -0.4120
  921MOL0     H24303   3.278   1.089   1.681  0.1296  1.4515  0.0287
  921MOL0     H24304   3.122   1.134   1.621 -1.2450 -1.1506 -0.1308
  921MOL0     H24305   3.194   0.847   1.692 -1.2077 -2.8139 -3.8752
  921MOL0     H24306   3.070   0.875   1.586  0.5998  0.0406 -0.0976
  921MOL0     H24307   3.069   1.024   1.854 -0.6362  1.3209 -0.7626
  921MOL0     H24308   2.950   1.023   1.733 -1.4403 -0.9260  1.8645
  921MOL0     H24309   2.993   0.821   1.946 -2.8403 -0.8106  0.3407
  921MOL0     H24310   2.978   0.742   1.794  0.8259 -1.3202  3.3971
  921MOL0     H24311   2.775   0.796   1.943  2.1935 -2.3699 -0.5618
  921MOL0     H24312   2.794   0.959   1.910 -0.4125 -0.7740  0.9763
  921MOL0     H24313   2.754   0.777   1.664  0.5022 -0.5737 -0.2043
  921MOL0     H24314   2.689   0.940   1.684 -2.0832 -1.1336 -0.2125
  921MOL0     H24315   2.509   0.770   1.691 -0.3120  0.6800 -0.0209
  921MOL0     H24316   2.529   0.826   1.850  1.3008  0.4339  0.8390
  921MOL0     H24317   3.045   1.017   1.143 -0.2910  1.9880 -1.9298
  921MOL0     H24318   3.131   0.977   0.923 -1.7141 -1.8454  0.8113
  921MOL0     H24319   3.399   1.321   0.727 -0.5372 -3.8863  1.2770
  921MOL0     H24320   3.399   1.443   0.517  0.9587  0.4864  2.2516
  921MOL0     H24321   2.886  -0.139   0.595  0.1490  1.1061  2.8277
  921MOL0     H24322   3.057  -0.104   0.765  0.8025  1.1954 -0.0076
  921MOL0     H24323   3.349   0.021   0.951  0.1697 -1.8987  0.5278
  921MOL0     H24324   3.485  -0.054   1.143 -0.4667 -2.1948 -1.0110
  921MOL0     H24325   3.443  -0.116   1.588 -0.6400  1.0004  1.0222
  921MOL0     H24326   3.310  -0.007   1.592 -1.6374 -1.2277  0.3333
  921MOL0     H24327   3.318  -0.281   1.443  3.6934  0.2996  2.7595
  921MOL0     H24328   3.177  -0.165   1.432 -0.4095  1.4316  2.0318
  921MOL0     H24329   3.171  -0.178   1.696 -2.4459 -0.7373 -0.3317
  921MOL0     H24330   3.297  -0.286   1.689 -0.2826 -0.9436 -0.2215
  921MOL0     H24331   3.073  -0.397   1.730 -3.2456 -0.6566 -1.5865
  921MOL0     H24332   3.129  -0.441   1.577  1.1663  1.0660 -1.1326
  921MOL0     H24333   2.794  -0.189   1.461 -0.8606 -0.5925 -0.4629
  921MOL0     H24334   3.202   0.102   1.417  2.3988  3.2163  0.0387
  921MOL0     H24335   3.056   0.181   1.221 -0.5958 -1.3274 -3.0983
  922MOL0     O24336   1.817   3.101   8.068 -0.3736 -0.3071  0.4978
  922MOL0     C24337   1.736   3.006   8.100 -1.2683 -0.2034 -0.2577
  922MOL0     O24338   1.600   3.000   8.079  0.3923 -0.0029 -0.3284
  922MOL0     C24339   1.531   3.104   8.011 -0.7030  0.1720 -0.3417
  922MOL0     C24340   1.575   3.168   7.900  0.3816  0.5154  0.4104
  922MOL0     C24341   1.498   3.263   7.837 -0.1755 -0.3504  0.6701
  922MOL0     C24342   1.375   3.304   7.889  0.3801  0.3606  0.0942
  922MOL0     O24343   1.308   3.395   7.817  0.4262 -0.5055  0.3481
  922MOL0     C24344   1.172   3.425   7.849 -0.3343 -1.0392 -0.2297
  922MOL0     C24345   1.125   3.529   7.750  0.4551  0.0603  0.4113
  922MOL0     C24346   1.013   3.623   7.808  0.7148  0.3625  0.4856
  922MOL0     C24347   0.948   3.691   7.688 -1.0294 -0.0637  0.9031
  922MOL0     C24348   0.801   3.719   7.709  0.4391 -0.1008 -0.3100
  922MOL0     C24349   0.735   3.790   7.590 -1.3830 -0.4353 -0.9679
  922MOL0     C24350   0.759   3.936   7.589 -0.0258 -0.3088  0.1395
  922MOL0     C24351   0.851   3.985   7.476  0.4430  0.0244 -0.2345
  922MOL0     N24352   0.846   4.137   7.474 -0.6217 -0.3878 -0.5017
  922MOL0     C24353   0.750   4.217   7.422 -0.3196  1.3427 -0.3517
  922MOL0     C24354   0.787   4.341   7.447 -0.1239 -0.4067  0.5344
  922MOL0     C24355   0.715   4.465   7.401 -0.2274 -0.9169 -0.0776
  922MOL0     C24356   0.821   4.587   7.416  0.3309 -0.4795  0.8114
  922MOL0     C24357   0.776   4.712   7.338  0.8934  0.2146  0.2160
  922MOL0     C24358   0.884   4.823   7.355 -0.5378  0.2229  0.1922
  922MOL0     O24359   1.007   4.769   7.302 -0.1201 -0.1970  0.7243
  922MOL0     C24360   1.122   4.846   7.309  1.8533  0.5234 -0.5582
  922MOL0     C24361   1.118   4.988   7.311  0.4342 -0.0759 -0.3460
  922MOL0     C24362   1.225   5.073   7.353  0.4193  0.6387 -0.5028
  922MOL0     C24363   1.202   5.229   7.357 -0.2440  0.3263  0.0822
  922MOL0     C24364   1.339   5.007   7.406 -0.0240 -0.6960  0.1331
  922MOL0     C24365   1.457   5.076   7.458 -0.0009  0.3958  0.1308
  922MOL0     O24366   1.578   5.007   7.446 -0.5757  0.4062  0.1079
  922MOL0     C24367   1.693   5.066   7.480  0.3855  1.1615  0.7113
  922MOL0     C24368   1.777   5.008   7.571  0.3979  0.7206 -0.2672
  922MOL0     C24369   1.902   5.062   7.601 -0.2342  1.1324 -0.2396
  922MOL0     C24370   1.952   5.164   7.531  1.1503  0.8732  0.2310
  922MOL0     O24371   2.070   5.226   7.543 -0.4909 -0.2036  0.0666
  922MOL0     C24372   2.079   5.281   7.678 -0.9522  1.1906  0.7204
  922MOL0     C24373   2.166   5.410   7.686  0.0315  0.4027  0.2798
  922MOL0     C24374   2.197   5.453   7.829 -0.1226 -0.3833 -0.1893
  922MOL0     C24375   2.238   5.605   7.826  0.2017  0.9948  1.4780
  922MOL0     C24376   2.260   5.663   7.968 -0.0767 -0.4678  0.3989
  922MOL0     C24377   2.281   5.821   7.951 -0.8918  0.6668  0.3919
  922MOL0     C24378   2.298   5.895   8.085  0.3980  1.4297  0.4663
  922MOL0     C24379   2.335   6.047   8.048 -0.0883  0.1931 -0.2130
  922MOL0    Cl24380   2.359   6.135   8.216  0.2317  0.1848 -0.4753
  922MOL0     C24381   1.871   5.212   7.428 -0.3179 -0.4981 -0.5957
  922MOL0     C24382   1.746   5.166   7.403 -0.3889  0.2769  0.1187
  922MOL0     O24383   1.448   5.196   7.504 -0.8414  0.4034 -0.4432
  922MOL0     C24384   1.341   4.862   7.392 -0.0906  0.3507  0.4832
  922MOL0     C24385   1.237   4.788   7.334  0.2923 -1.3607 -0.7676
  922MOL0     N24386   0.897   4.336   7.532 -0.4443 -0.0675  0.3841
  922MOL0     N24387   0.928   4.216   7.554  0.3193  0.0171  0.0994
  922MOL0     C24388   1.325   3.232   8.006  0.1025  0.8615  0.5768
  922MOL0     C24389   1.413   3.136   8.070  0.7892 -0.6540 -0.5285
  922MOL0     C24390   1.789   2.889   8.187  0.2928  0.1103 -0.5923
  922MOL0     C24391   1.722   2.825   8.285 -0.4501 -0.4922 -0.7695
  922MOL0     C24392   1.780   2.725   8.359  0.4432  0.1777 -0.7206
  922MOL0     C24393   1.911   2.687   8.346  0.0096 -0.0146 -0.8500
  922MOL0     O24394   1.956   2.595   8.444 -0.1216 -0.1990 -0.2408
  922MOL0     C24395   2.071   2.524   8.425  0.8286 -0.5161 -0.4195
  922MOL0     C24396   2.088   2.403   8.522 -0.7264 -0.2274  0.8823
  922MOL0     C24397   2.241   2.374   8.546 -0.2529  0.2582 -0.4312
  922MOL0     C24398   2.340   2.325   8.432 -0.6281  0.3233 -0.1749
  922MOL0     C24399   2.308   2.183   8.409  0.7367 -0.1614 -0.1802
  922MOL0     C24400   2.283   2.065   8.383  0.6892 -0.4183  0.0515
  922MOL0     C24401   1.995   2.764   8.259 -0.8620 -0.4533 -0.5940
  922MOL0     C24402   1.929   2.862   8.182  0.4309  0.0046  0.4860
  922MOL0     H24403   1.669   3.139   7.854  1.0869  0.1092  2.0430
  922MOL0     H24404   1.520   3.318   7.746 -3.5973  0.8878  0.4495
  922MOL0     H24405   1.095   3.348   7.848 -0.4405 -1.0394 -3.5876
  922MOL0     H24406   1.185   3.469   7.948 -0.1875 -0.2025 -0.6080
  922MOL0     H24407   1.215   3.588   7.733  0.3391 -0.1207 -0.9046
  922MOL0     H24408   1.091   3.475   7.662  2.5430 -0.1606 -0.3043
  922MOL0     H24409   0.948   3.549   7.855  2.4081 -1.1647  0.5295
  922MOL0     H24410   1.041   3.691   7.889  0.3649 -1.3202  2.0835
  922MOL0     H24411   1.005   3.781   7.667 -1.1977  0.6016  3.0042
  922MOL0     H24412   0.957   3.632   7.596 -0.3670 -2.2056  2.2513
  922MOL0     H24413   0.753   3.621   7.714  0.2321 -0.0069 -0.4357
  922MOL0     H24414   0.773   3.760   7.806 -3.7942  0.6343 -1.6166
  922MOL0     H24415   0.776   3.737   7.504  3.6180 -0.3777  1.0628
  922MOL0     H24416   0.631   3.760   7.606 -1.2102  0.1840  2.0997
  922MOL0     H24417   0.660   3.981   7.571  0.2485  1.1508  1.8788
  922MOL0     H24418   0.804   3.972   7.682  0.0684 -0.2374  0.0649
  922MOL0     H24419   0.819   3.950   7.378 -1.2376 -0.5825  0.4842
  922MOL0     H24420   0.947   3.937   7.495 -0.8047 -2.6858 -0.1679
  922MOL0     H24421   0.661   4.186   7.367  0.0235 -2.3380  0.8831
  922MOL0     H24422   0.684   4.444   7.298  0.7099  2.5049 -1.2107
  922MOL0     H24423   0.624   4.481   7.460  0.0387 -2.2816  0.7492
  922MOL0     H24424   0.912   4.545   7.373 -0.1996 -1.2767  0.4401
  922MOL0     H24425   0.837   4.619   7.519  1.4517  2.6461 -0.2238
  922MOL0     H24426   0.684   4.745   7.387  0.9545  1.5354 -0.5145
  922MOL0     H24427   0.766   4.690   7.231  0.7453 -0.5698  0.3867
  922MOL0     H24428   0.902   4.839   7.462  3.7381  0.0944 -0.3278
  922MOL0     H24429   0.855   4.918   7.310 -2.0607 -0.2432  0.1493
  922MOL0     H24430   1.027   5.043   7.286  2.0519  2.9063 -0.1502
  922MOL0     H24431   1.200   5.262   7.461  0.1160  2.0325 -0.4248
  922MOL0     H24432   1.284   5.288   7.315 -0.2678 -0.0697 -0.5408
  922MOL0     H24433   1.103   5.249   7.315 -1.8674 -1.6337  2.7121
  922MOL0     H24434   1.736   4.920   7.619  1.9353  0.0388 -0.1204
  922MOL0     H24435   1.968   5.013   7.673 -0.3249 -2.7208 -2.5086
  922MOL0     H24436   1.979   5.302   7.717 -1.7040 -2.4534  1.1214
  922MOL0     H24437   2.130   5.198   7.728 -0.3537  0.0553 -1.6416
  922MOL0     H24438   2.263   5.401   7.636 -0.4210  2.8018 -1.1836
  922MOL0     H24439   2.116   5.490   7.631  1.6243 -0.7717 -3.0924
  922MOL0     H24440   2.281   5.400   7.875 -1.0906 -0.0974  2.0218
  922MOL0     H24441   2.109   5.430   7.889 -0.2784  0.3443 -0.1381
  922MOL0     H24442   2.327   5.621   7.766 -1.9853  1.4589 -1.9166
  922MOL0     H24443   2.163   5.662   7.770 -0.2987 -1.2966 -0.3161
  922MOL0     H24444   2.354   5.623   8.007 -1.2992 -1.4237  2.5892
  922MOL0     H24445   2.176   5.641   8.035 -1.3914 -2.6669 -1.8253
  922MOL0     H24446   2.362   5.847   7.882 -1.6686  2.0669 -0.0440
  922MOL0     H24447   2.201   5.869   7.893 -1.2065 -1.8591 -1.4134
  922MOL0     H24448   2.376   5.854   8.150 -1.7364 -2.5870  0.7761
  922MOL0     H24449   2.210   5.885   8.149  0.3806  1.4633  0.4479
  922MOL0     H24450   2.252   6.101   8.001 -0.9798  3.5168  4.4675
  922MOL0     H24451   2.432   6.050   7.997 -1.5861  0.6581 -3.2562
  922MOL0     H24452   1.909   5.295   7.369  1.0941 -0.7622 -0.1117
  922MOL0     H24453   1.689   5.210   7.322  0.4704  0.0248 -0.6257
  922MOL0     H24454   1.437   4.816   7.415  0.8960  1.6965 -0.7675
  922MOL0     H24455   1.234   4.680   7.342  0.1389 -1.5630 -2.9527
  922MOL0     H24456   1.225   3.236   8.049 -0.1201 -0.4521  0.2407
  922MOL0     H24457   1.385   3.085   8.162 -0.4172  0.9398  0.0502
  922MOL0     H24458   1.618   2.849   8.304 -1.0540 -1.9531 -2.0686
  922MOL0     H24459   1.730   2.677   8.442  2.4838  0.7642  0.9254
  922MOL0     H24460   2.056   2.472   8.330 -0.6586  0.6005 -0.8282
  922MOL0     H24461   2.159   2.589   8.430  0.2887  0.1350  1.8358
  922MOL0     H24462   2.042   2.309   8.489 -3.4092  0.8021  1.4234
  922MOL0     H24463   2.039   2.420   8.618 -1.4455 -0.2486  0.5326
  922MOL0     H24464   2.236   2.288   8.613 -2.7884 -0.5679 -1.5244
  922MOL0     H24465   2.283   2.462   8.595 -0.7714  0.5988 -0.5878
  922MOL0     H24466   2.441   2.329   8.475 -1.7913 -0.4988  2.8572
  922MOL0     H24467   2.343   2.368   8.331  2.1357  1.9690  0.4918
  922MOL0     H24468   2.257   1.964   8.356  0.0301 -0.3311  0.3445
  922MOL0     H24469   2.103   2.748   8.253 -1.1029 -2.8498  0.2677
  922MOL0     H24470   1.990   2.925   8.118  1.5956 -1.3644  0.2027
  923MOL0     O24471   3.353   2.570   8.003  0.1068 -0.1561  0.4565
  923MOL0     C24472   3.438   2.484   8.037  1.0683 -0.1358 -0.9065
  923MOL0     O24473   3.528   2.502   8.134 -0.1379  0.6748  0.3741
  923MOL0     C24474   3.530   2.602   8.228 -0.1545 -0.1924 -0.7712
  923MOL0     C24475   3.425   2.702   8.254 -0.3677 -0.1022 -0.2733
  923MOL0     C24476   3.450   2.803   8.347 -0.1526  0.0411 -0.1387
  923MOL0     C24477   3.572   2.810   8.426  0.1932  0.4627 -0.2575
  923MOL0     O24478   3.579   2.915   8.513 -0.5694  0.6840  0.2094
  923MOL0     C24479   3.551   2.888   8.648 -0.2131 -1.0102 -0.2163
  923MOL0     C24480   3.399   2.851   8.657  0.2619 -0.9403 -0.5778
  923MOL0     C24481   3.339   2.865   8.791 -0.1385  0.5025 -0.4814
  923MOL0     C24482   3.397   2.766   8.901  0.2408  0.1215  0.1535
  923MOL0     C24483   3.370   2.835   9.034 -0.3695  0.7358 -0.7034
  923MOL0     C24484   3.397   2.729   9.149 -0.3536 -1.2662  1.0841
  923MOL0     C24485   3.368   2.777   9.283 -0.3105 -0.5838  0.3379
  923MOL0     C24486   3.220   2.770   9.316  0.5714  0.3714  0.3996
  923MOL0     N24487   3.214   2.735   9.463 -0.6629  0.4086 -0.3061
  923MOL0     C24488   3.267   2.619   9.520 -0.0977 -0.0432  0.1151
  923MOL0     C24489   3.250   2.636   9.654  0.1417  0.2063 -0.2306
  923MOL0     C24490   3.309   2.545   9.763  0.4550 -0.0259 -0.1750
  923MOL0     C24491   3.223   2.419   9.780 -0.3386 -0.7815 -0.0354
  923MOL0     C24492   3.296   2.307   9.858 -0.8690 -0.8884 -0.2162
  923MOL0     C24493   3.278   2.169   9.796  0.2118  0.3388 -0.4492
  923MOL0     O24494   3.368   2.161   9.680  0.6858  0.6985 -0.0389
  923MOL0     C24495   3.399   2.040   9.627  1.0434  0.4308 -0.2141
  923MOL0     C24496   3.489   2.041   9.515 -0.8846 -0.1306 -0.3653
  923MOL0     C24497   3.541   1.921   9.456  0.1097 -0.6982 -0.1244
  923MOL0     C24498   3.654   1.949   9.361  0.8773  0.4715 -0.6888
  923MOL0     C24499   3.484   1.796   9.493  0.4495  0.7222  0.1722
  923MOL0     C24500   3.531   1.662   9.444  1.2642  0.2978  0.7861
  923MOL0     O24501   3.437   1.553   9.445  0.2651  0.5862 -0.6376
  923MOL0     C24502   3.498   1.440   9.409 -0.8517  0.4846 -0.0469
  923MOL0     C24503   3.567   1.356   9.503  0.0600 -0.1386  0.3430
  923MOL0     C24504   3.616   1.232   9.460 -0.4780  0.1425  0.2839
  923MOL0     C24505   3.609   1.187   9.328 -1.1212  0.9740 -0.6378
  923MOL0     O24506   3.654   1.066   9.283  0.2970 -0.6504  0.7307
  923MOL0     C24507   3.688   0.971   9.385  0.2049 -0.7004 -0.1997
  923MOL0     C24508   3.749   0.852   9.320 -1.0082  0.1313 -0.1352
  923MOL0     C24509   3.639   0.762   9.244 -0.7578 -0.5312 -0.6829
  923MOL0     C24510   3.703   0.637   9.169  0.3131  1.4048  0.5703
  923MOL0     C24511   3.627   0.628   9.043 -0.8617 -0.0169 -0.1633
  923MOL0     C24512   3.688   0.526   8.948  1.0059 -0.9069 -0.1964
  923MOL0     C24513   3.603   0.519   8.823  0.0071 -0.3247 -0.3722
  923MOL0     C24514   3.657   0.440   8.701 -0.1472  0.3203 -0.6427
  923MOL0    Cl24515   3.700   0.264   8.745  0.7472  0.5311  0.1260
  923MOL0     C24516   3.549   1.273   9.237 -0.0675 -0.2210 -0.0349
  923MOL0     C24517   3.498   1.398   9.272 -0.0802 -0.5703  0.5895
  923MOL0     O24518   3.651   1.648   9.408  0.5677 -0.5399  0.8358
  923MOL0     C24519   3.384   1.796   9.595 -0.0304  0.3533  0.5619
  923MOL0     C24520   3.355   1.913   9.669  0.6218  0.8781 -0.2931
  923MOL0     N24521   3.179   2.751   9.681 -0.0643  0.8821  0.9996
  923MOL0     N24522   3.155   2.807   9.563 -0.3229 -1.0624 -0.7716
  923MOL0     C24523   3.671   2.720   8.397 -0.1580 -0.4524  0.9220
  923MOL0     C24524   3.643   2.612   8.310  0.3482 -0.2158  1.0015
  923MOL0     C24525   3.439   2.360   7.960  0.1438 -0.3148  0.1251
  923MOL0     C24526   3.333   2.326   7.870 -0.4253  0.2818  0.3527
  923MOL0     C24527   3.342   2.214   7.798  0.1704 -0.1486  0.1536
  923MOL0     C24528   3.452   2.133   7.804  0.4655  0.1817  0.5836
  923MOL0     O24529   3.450   2.029   7.712 -0.5611  0.7182  0.5644
  923MOL0     C24530   3.521   1.911   7.747 -0.6810  0.0669 -0.4820
  923MOL0     C24531   3.481   1.789   7.663 -0.9855  0.0026 -0.2052
  923MOL0     C24532   3.565   1.779   7.540  0.0701  0.3927  0.4739
  923MOL0     C24533   3.533   1.635   7.472 -0.0418 -0.9438  0.0079
  923MOL0     C24534   3.407   1.647   7.391  1.2234 -0.5015  0.3314
  923MOL0     C24535   3.303   1.657   7.309 -0.3029  0.1286 -0.1776
  923MOL0     C24536   3.554   2.160   7.902 -0.3005 -0.5143 -0.2901
  923MOL0     C24537   3.553   2.286   7.979 -0.1030  0.3599 -1.3747
  923MOL0     H24538   3.336   2.708   8.193 -0.8504  0.5586  0.4764
  923MOL0     H24539   3.385   2.888   8.363 -0.9430 -0.7380  0.9388
  923MOL0     H24540   3.607   2.802   8.687  1.4419  0.3190  0.4716
  923MOL0     H24541   3.574   2.978   8.705 -3.8079  0.8701 -1.4369
  923MOL0     H24542   3.351   2.919   8.586  1.6736  0.6177 -0.1054
  923MOL0     H24543   3.386   2.749   8.618  0.8686 -0.7879 -1.2013
  923MOL0     H24544   3.356   2.967   8.826  0.4738  1.1683 -2.5921
  923MOL0     H24545   3.229   2.857   8.789 -0.1936  0.8411  0.7048
  923MOL0     H24546   3.343   2.670   8.902 -3.9895  2.2302 -0.3548
  923MOL0     H24547   3.503   2.744   8.886  0.2141  0.6774 -0.9318
  923MOL0     H24548   3.422   2.930   9.052  0.2844 -0.2009  3.6172
  923MOL0     H24549   3.266   2.865   9.045 -0.6549 -1.0741  3.1533
  923MOL0     H24550   3.332   2.643   9.131 -2.1247  0.5195 -1.8866
  923MOL0     H24551   3.503   2.710   9.131 -0.6621  0.6098 -5.5795
  923MOL0     H24552   3.428   2.707   9.341  0.8091  0.8038  0.9336
  923MOL0     H24553   3.408   2.879   9.284 -2.9236  0.6356 -2.7737
  923MOL0     H24554   3.164   2.688   9.269  1.8851 -0.0630 -0.4463
  923MOL0     H24555   3.173   2.865   9.287  0.3126  0.2952  0.5641
  923MOL0     H24556   3.332   2.557   9.460  1.5188  1.8422 -0.2060
  923MOL0     H24557   3.410   2.514   9.736  0.8233  1.6424 -0.8293
  923MOL0     H24558   3.324   2.593   9.860 -0.4885 -2.0278  1.0279
  923MOL0     H24559   3.199   2.381   9.680  2.4617 -3.2756  0.1031
  923MOL0     H24560   3.129   2.439   9.831 -0.2155  0.7981 -0.3634
  923MOL0     H24561   3.271   2.306   9.964 -0.2796 -0.7243 -0.0696
  923MOL0     H24562   3.404   2.328   9.861 -1.1550  0.8108 -0.3599
  923MOL0     H24563   3.171   2.175   9.776 -0.1353  1.7629  1.5250
  923MOL0     H24564   3.294   2.096   9.876  0.3074  1.2647  0.3940
  923MOL0     H24565   3.540   2.132   9.484  0.4010 -1.0474 -0.9996
  923MOL0     H24566   3.733   1.873   9.361 -0.0423 -0.7462  3.0898
  923MOL0     H24567   3.619   1.962   9.258  0.3982 -2.9501 -1.0911
  923MOL0     H24568   3.710   2.035   9.398  1.6059  0.9303 -2.7272
  923MOL0     H24569   3.588   1.392   9.604 -0.7209 -0.4322  0.6190
  923MOL0     H24570   3.663   1.172   9.537 -1.2408 -1.8312 -0.7162
  923MOL0     H24571   3.764   0.996   9.459 -1.9620 -0.1739  1.9605
  923MOL0     H24572   3.599   0.932   9.436  0.4178 -0.6636  0.2035
  923MOL0     H24573   3.839   0.885   9.266  1.4460 -0.1897  3.4266
  923MOL0     H24574   3.793   0.788   9.396  0.5459 -2.4983 -3.0158
  923MOL0     H24575   3.582   0.821   9.173  1.8755  0.7556 -1.8603
  923MOL0     H24576   3.568   0.730   9.321  2.8925  0.0703  3.3399
  923MOL0     H24577   3.808   0.665   9.154  0.6170 -0.0329 -0.1452
  923MOL0     H24578   3.704   0.545   9.228  2.3391 -0.7202 -2.5212
  923MOL0     H24579   3.647   0.719   8.986  4.0939 -0.4895  0.3310
  923MOL0     H24580   3.522   0.609   9.068 -0.2780 -1.3798  1.4209
  923MOL0     H24581   3.788   0.569   8.933 -0.0990  2.7398  1.6731
  923MOL0     H24582   3.685   0.427   8.994 -0.5263 -0.7114  0.1558
  923MOL0     H24583   3.571   0.613   8.778  0.9407  1.7993  3.0912
  923MOL0     H24584   3.508   0.472   8.849 -1.6793  1.0764 -3.4356
  923MOL0     H24585   3.748   0.486   8.661  0.1765  2.2759  2.0565
  923MOL0     H24586   3.570   0.439   8.634 -1.2277 -1.6941  0.6819
  923MOL0     H24587   3.544   1.247   9.132 -1.7715 -0.3288  0.0411
  923MOL0     H24588   3.452   1.465   9.200  1.0431  0.9709  1.2581
  923MOL0     H24589   3.347   1.702   9.636  1.2985 -1.1243 -1.4815
  923MOL0     H24590   3.292   1.890   9.754 -0.0688  2.1115 -0.4646
  923MOL0     H24591   3.764   2.733   8.451  0.1926  2.6309 -0.2109
  923MOL0     H24592   3.721   2.540   8.288  0.0352 -0.7134  1.5108
  923MOL0     H24593   3.245   2.388   7.881  0.0950  0.9866  0.6054
  923MOL0     H24594   3.260   2.190   7.731 -0.8433  1.3270  0.8082
  923MOL0     H24595   3.629   1.925   7.739 -0.4155 -0.5909  1.5517
  923MOL0     H24596   3.500   1.885   7.851  0.5190  1.1319  0.0576
  923MOL0     H24597   3.374   1.798   7.642 -0.6390 -0.1727 -2.2093
  923MOL0     H24598   3.493   1.689   7.706 -2.3050 -0.6032 -1.2010
  923MOL0     H24599   3.670   1.798   7.563  0.4134  0.4953 -1.0866
  923MOL0     H24600   3.540   1.848   7.459 -0.0674 -1.2343 -0.9463
  923MOL0     H24601   3.524   1.562   7.553  1.2874  0.5914  1.6312
  923MOL0     H24602   3.619   1.601   7.413  1.2532 -0.4885  1.5642
  923MOL0     H24603   3.243   1.680   7.224  0.8314 -1.4907 -1.4808
  923MOL0     H24604   3.632   2.087   7.912  0.9632  0.9280  0.8244
  923MOL0     H24605   3.636   2.308   8.045 -0.9160  0.2633 -0.3100
  924MOL0     O24606   7.949   2.298   3.071  0.1943 -0.6061 -0.2774
  924MOL0     C24607   7.920   2.337   3.184 -0.4955  0.2010  0.3450
  924MOL0     O24608   7.818   2.420   3.206  0.2082  0.4809  0.2159
  924MOL0     C24609   7.722   2.456   3.110 -0.2588  0.0373  0.2897
  924MOL0     C24610   7.618   2.366   3.065  0.4894  0.8267 -0.6864
  924MOL0     C24611   7.527   2.415   2.972  0.2510  1.4771  0.1752
  924MOL0     C24612   7.523   2.544   2.931 -0.2788  0.1591  0.2796
  924MOL0     O24613   7.413   2.577   2.845 -0.1421 -0.3081  0.2790
  924MOL0     C24614   7.388   2.718   2.819 -0.4966  0.3865  0.7620
  924MOL0     C24615   7.246   2.745   2.750 -0.0817 -0.2247 -0.8563
  924MOL0     C24616   7.251   2.860   2.658  0.5714  0.2078  0.0713
  924MOL0     C24617   7.114   2.908   2.610 -0.1788 -0.1016  0.3776
  924MOL0     C24618   7.119   3.055   2.552 -0.2338 -0.8277 -0.2056
  924MOL0     C24619   6.983   3.128   2.536  0.3938 -0.0831 -0.0900
  924MOL0     C24620   6.900   3.141   2.672 -0.2134  0.9119  0.2349
  924MOL0     C24621   6.783   3.246   2.662  0.1594  0.0587  0.0047
  924MOL0     N24622   6.711   3.275   2.787  0.0576 -0.1645  0.0516
  924MOL0     C24623   6.601   3.207   2.833 -0.6927 -0.2924  0.1723
  924MOL0     C24624   6.573   3.251   2.959  0.1580 -0.5529 -0.4256
  924MOL0     C24625   6.460   3.209   3.039 -0.1385 -0.3083  0.4308
  924MOL0     C24626   6.505   3.093   3.132 -0.7474 -0.0651  0.4134
  924MOL0     C24627   6.388   3.021   3.204  0.3520  0.1488  0.0492
  924MOL0     C24628   6.296   3.119   3.279 -0.7965 -0.7321 -1.1013
  924MOL0     O24629   6.195   3.039   3.352  0.0433 -1.0654 -1.1668
  924MOL0     C24630   6.240   2.966   3.465  0.3314  0.4189 -0.4333
  924MOL0     C24631   6.268   2.829   3.453  0.0201  0.7560  0.2667
  924MOL0     C24632   6.337   2.758   3.545  0.9113 -0.1607 -0.3979
  924MOL0     C24633   6.344   2.609   3.513  0.2070 -0.3361 -0.3415
  924MOL0     C24634   6.384   2.817   3.664 -0.5681 -0.2598  0.3797
  924MOL0     C24635   6.449   2.748   3.764  0.3951  0.8259 -0.3165
  924MOL0     O24636   6.456   2.830   3.882 -0.0127 -0.0742  0.3329
  924MOL0     C24637   6.486   2.779   4.005 -0.5210  0.5956  0.7207
  924MOL0     C24638   6.444   2.646   4.058 -0.1765 -0.5599 -0.7746
  924MOL0     C24639   6.482   2.610   4.195  0.9478  0.1698  0.4918
  924MOL0     C24640   6.564   2.689   4.281  1.1849  0.7073  0.1860
  924MOL0     O24641   6.598   2.637   4.401  0.5132  0.0511  0.4892
  924MOL0     C24642   6.632   2.728   4.502 -0.2178  0.2694 -0.2819
  924MOL0     C24643   6.720   2.642   4.597  0.2034 -0.7765  0.0422
  924MOL0     C24644   6.628   2.540   4.669  0.5122 -0.4274  0.5894
  924MOL0     C24645   6.714   2.482   4.777 -0.3798 -0.0819  0.2095
  924MOL0     C24646   6.636   2.363   4.829  1.7597 -0.0959 -0.8248
  924MOL0     C24647   6.685   2.331   4.969 -0.2979 -0.6760 -0.1234
  924MOL0     C24648   6.632   2.193   5.010  0.4694  0.1192 -0.9979
  924MOL0     C24649   6.680   2.066   4.953 -0.5077 -0.4801  0.2514
  924MOL0    Cl24650   6.826   2.021   5.044 -0.3740 -0.0465 -0.6232
  924MOL0     C24651   6.602   2.810   4.223 -0.6937 -1.1048  0.8473
  924MOL0     C24652   6.569   2.852   4.090 -0.4916 -0.8203  0.5755
  924MOL0     O24653   6.474   2.630   3.763  0.2413  0.2752  0.1266
  924MOL0     C24654   6.363   2.960   3.678 -0.2961 -0.2676  1.3468
  924MOL0     C24655   6.295   3.030   3.574  0.1905  0.4376 -0.1488
  924MOL0     N24656   6.672   3.343   2.994  0.5330 -0.3832  0.7698
  924MOL0     N24657   6.757   3.351   2.891  0.0296 -0.0304  0.2634
  924MOL0     C24658   7.641   2.623   2.969  0.2657 -0.3681 -0.4842
  924MOL0     C24659   7.734   2.584   3.063 -0.4857  0.6868  0.6863
  924MOL0     C24660   8.004   2.312   3.308 -0.1138  0.0012  0.4352
  924MOL0     C24661   8.100   2.211   3.322 -1.5721  0.3727 -0.1255
  924MOL0     C24662   8.187   2.205   3.429  0.2155  0.4742  1.2437
  924MOL0     C24663   8.186   2.287   3.532 -0.1036 -1.6527  0.3093
  924MOL0     O24664   8.263   2.270   3.645 -0.5687  0.2181 -0.2524
  924MOL0     C24665   8.262   2.138   3.707  0.2275 -0.4091  1.2651
  924MOL0     C24666   8.264   2.131   3.859  1.0083 -0.3743 -0.4806
  924MOL0     C24667   8.401   2.162   3.915  0.0365  0.3788 -0.3910
  924MOL0     C24668   8.409   2.208   4.066  1.4312  0.0924 -0.1027
  924MOL0     C24669   8.404   2.093   4.157 -0.8785 -0.9679 -0.4714
  924MOL0     C24670   8.433   1.990   4.223  0.4133 -0.0340  0.5060
  924MOL0     C24671   8.074   2.376   3.536 -0.0161 -0.5310  0.1741
  924MOL0     C24672   7.988   2.393   3.426 -0.9098 -0.6687  0.1583
  924MOL0     H24673   7.624   2.262   3.098  1.0199  1.4404  1.2776
  924MOL0     H24674   7.435   2.361   2.954  0.2270  0.5176  2.7301
  924MOL0     H24675   7.377   2.782   2.907 -4.9801  1.9484 -0.6443
  924MOL0     H24676   7.470   2.752   2.756  0.2532 -2.6941 -0.0701
  924MOL0     H24677   7.213   2.648   2.711  1.7677 -1.8778  1.4108
  924MOL0     H24678   7.181   2.784   2.829  2.2491  1.5110  0.3231
  924MOL0     H24679   7.292   2.942   2.717 -0.5118 -0.3179  1.6289
  924MOL0     H24680   7.321   2.835   2.577  1.7980 -0.2969  1.2481
  924MOL0     H24681   7.081   2.831   2.541  0.1926 -1.3721  1.5768
  924MOL0     H24682   7.048   2.898   2.697  0.4025  1.2147  1.0139
  924MOL0     H24683   7.168   3.114   2.631 -2.7024 -0.4293  1.1377
  924MOL0     H24684   7.177   3.056   2.459 -2.2189  0.3105 -1.4934
  924MOL0     H24685   6.999   3.232   2.507 -3.5019  0.7277  0.1274
  924MOL0     H24686   6.928   3.092   2.448  1.1591 -0.8734 -0.2582
  924MOL0     H24687   6.860   3.044   2.705 -1.9711  2.1455  1.9804
  924MOL0     H24688   6.978   3.156   2.747  1.5807 -1.1419 -1.1158
  924MOL0     H24689   6.716   3.213   2.581 -0.5923 -1.2646  1.1150
  924MOL0     H24690   6.833   3.339   2.635  0.3117 -0.8145 -3.2232
  924MOL0     H24691   6.546   3.123   2.791  0.5427 -1.7435  1.3522
  924MOL0     H24692   6.416   3.286   3.103  1.4237 -0.6708  2.0340
  924MOL0     H24693   6.384   3.169   2.973 -0.6054  3.4565 -1.6094
  924MOL0     H24694   6.596   3.121   3.185 -0.2637  0.0735 -0.4633
  924MOL0     H24695   6.546   3.018   3.064 -1.1836  0.9637 -1.0533
  924MOL0     H24696   6.436   2.957   3.278  2.4041 -0.2155 -1.5127
  924MOL0     H24697   6.325   2.963   3.135 -2.0893  0.8956  1.5234
  924MOL0     H24698   6.245   3.183   3.206  0.3784 -1.1156 -2.2993
  924MOL0     H24699   6.360   3.184   3.340 -0.0486 -0.8783 -1.7222
  924MOL0     H24700   6.229   2.777   3.366 -1.2624  1.4505  0.4110
  924MOL0     H24701   6.304   2.584   3.415 -1.4853 -0.1963  0.2857
  924MOL0     H24702   6.446   2.569   3.515 -0.0354 -0.9385  0.2887
  924MOL0     H24703   6.286   2.555   3.588 -0.3616  2.1767  1.1534
  924MOL0     H24704   6.388   2.582   3.991 -1.9192  2.1612 -2.1059
  924MOL0     H24705   6.466   2.505   4.219 -3.0735  0.3083 -0.7146
  924MOL0     H24706   6.685   2.818   4.469 -0.4665 -0.2415 -2.1837
  924MOL0     H24707   6.540   2.752   4.556 -0.2391  0.1637 -0.2705
  924MOL0     H24708   6.800   2.604   4.534 -0.3545 -0.0954 -1.1158
  924MOL0     H24709   6.767   2.714   4.664  2.6363  0.4983 -2.7960
  924MOL0     H24710   6.599   2.459   4.601 -2.8405  1.2632 -0.2372
  924MOL0     H24711   6.534   2.575   4.714 -0.2058 -0.5968 -0.7226
  924MOL0     H24712   6.807   2.441   4.735 -0.9222 -0.3415 -0.7454
  924MOL0     H24713   6.737   2.553   4.857  0.2000 -0.4071  0.3443
  924MOL0     H24714   6.665   2.278   4.766  1.0011 -0.5555 -0.5592
  924MOL0     H24715   6.528   2.372   4.815  0.9142 -6.2530 -1.0629
  924MOL0     H24716   6.794   2.342   4.970 -0.4071  0.9945  2.1246
  924MOL0     H24717   6.658   2.409   5.041  0.3614 -1.2236  0.7431
  924MOL0     H24718   6.523   2.192   5.005  0.3910 -2.8493 -0.3567
  924MOL0     H24719   6.659   2.186   5.115  0.3726  1.1661 -0.8952
  924MOL0     H24720   6.719   2.069   4.851  2.1483  1.4877  1.1647
  924MOL0     H24721   6.610   1.983   4.958  0.5349 -1.3335  1.3858
  924MOL0     H24722   6.655   2.885   4.281 -1.5189  1.1528 -1.1883
  924MOL0     H24723   6.620   2.939   4.048 -1.7113 -0.0428  0.6461
  924MOL0     H24724   6.405   3.020   3.758 -0.6538  1.5766  0.2004
  924MOL0     H24725   6.308   3.137   3.585  0.7826  0.3240  0.3224
  924MOL0     H24726   7.658   2.715   2.914  5.5310  1.6421  3.5575
  924MOL0     H24727   7.816   2.648   3.095 -0.4744  0.3719  1.3158
  924MOL0     H24728   8.108   2.136   3.244  1.0166 -4.5428  4.1971
  924MOL0     H24729   8.260   2.125   3.419  0.4819  0.9994 -2.1522
  924MOL0     H24730   8.173   2.087   3.667  1.2547  0.2401 -2.2115
  924MOL0     H24731   8.349   2.088   3.663  0.9983  3.2436 -1.9883
  924MOL0     H24732   8.237   2.029   3.886 -1.1826  0.5566  1.1463
  924MOL0     H24733   8.181   2.195   3.891  1.5129  0.6469 -1.1458
  924MOL0     H24734   8.454   2.230   3.848 -0.9416  1.6026  0.0399
  924MOL0     H24735   8.474   2.081   3.906  2.3618  1.9378  2.5782
  924MOL0     H24736   8.317   2.260   4.091  1.2386 -0.8595  1.2784
  924MOL0     H24737   8.491   2.273   4.101  1.0875  1.3247 -1.4724
  924MOL0     H24738   8.450   1.912   4.294  0.2501  0.6792  1.3489
  924MOL0     H24739   8.052   2.411   3.636  0.0450 -1.1339  0.4020
  924MOL0     H24740   7.894   2.448   3.425 -1.4928 -1.3893  3.4581
  925MOL0     O24741   3.132  10.776   4.158 -0.3294 -0.0018 -0.3835
  925MOL0     C24742   3.170  10.658   4.139  0.4220 -0.1260 -0.4003
  925MOL0     O24743   3.254  10.613   4.039  0.1399 -0.0606 -0.2950
  925MOL0     C24744   3.356  10.700   3.996  0.4932  0.5054 -0.1219
  925MOL0     C24745   3.398  10.694   3.865  0.4775  0.0805  0.4028
  925MOL0     C24746   3.509  10.765   3.819  0.4749  0.2891  0.2505
  925MOL0     C24747   3.580  10.844   3.903 -0.9858 -0.1854 -1.7302
  925MOL0     O24748   3.681  10.940   3.869  0.9955  0.9462 -0.2178
  925MOL0     C24749   3.739  10.951   3.738 -0.1579  0.4934 -0.7867
  925MOL0     C24750   3.694  11.077   3.675  0.2333  0.8165 -0.1191
  925MOL0     C24751   3.609  11.045   3.559 -0.1068  0.0545 -0.5439
  925MOL0     C24752   3.668  10.957   3.445  0.1904 -0.3425 -0.6644
  925MOL0     C24753   3.592  10.973   3.317 -0.3347 -0.0142  0.1855
  925MOL0     C24754   3.611  11.102   3.228 -0.8212 -0.3781  0.6301
  925MOL0     C24755   3.524  11.089   3.104  0.3287 -0.5285 -0.1590
  925MOL0     C24756   3.577  10.994   3.007  0.3548 -0.8929  0.7358
  925MOL0     N24757   3.494  11.008   2.880 -0.2248 -0.1854 -0.2372
  925MOL0     C24758   3.557  10.989   2.755 -0.1919 -0.3076 -0.0072
  925MOL0     C24759   3.459  11.007   2.664  0.5314  0.5429  0.1930
  925MOL0     C24760   3.486  11.012   2.517  0.2709  0.7327  1.1906
  925MOL0     C24761   3.518  11.157   2.473 -0.1646 -0.0593  0.1596
  925MOL0     C24762   3.440  11.268   2.537 -0.4018 -1.6712 -0.9864
  925MOL0     C24763   3.287  11.253   2.511  0.8224 -0.5773 -0.4731
  925MOL0     O24764   3.236  11.333   2.406  0.3713  0.3868  0.1000
  925MOL0     C24765   3.251  11.272   2.279 -0.1951  0.3010 -0.2855
  925MOL0     C24766   3.162  11.167   2.257 -0.1534  0.3437  0.1726
  925MOL0     C24767   3.182  11.086   2.147 -1.0367 -0.2287 -0.8212
  925MOL0     C24768   3.118  10.948   2.161  0.3563 -0.1742  0.5973
  925MOL0     C24769   3.280  11.120   2.049 -0.7870 -0.0619 -0.1013
  925MOL0     C24770   3.315  11.039   1.929 -0.5981 -0.2361 -1.1041
  925MOL0     O24771   3.443  11.044   1.886  0.3343  0.6983 -0.4956
  925MOL0     C24772   3.492  10.964   1.792 -0.8395  0.5332 -0.1610
  925MOL0     C24773   3.638  10.959   1.787 -0.0930 -0.1588 -0.0518
  925MOL0     C24774   3.709  10.861   1.725  0.1205 -0.2333  0.3042
  925MOL0     C24775   3.638  10.781   1.636 -0.1179  0.0817 -0.8258
  925MOL0     O24776   3.703  10.687   1.563  0.7239  0.5436  0.2545
  925MOL0     C24777   3.778  10.585   1.635  0.5840  0.3065 -0.3030
  925MOL0     C24778   3.911  10.556   1.557 -0.4273 -0.0295  1.1669
  925MOL0     C24779   4.015  10.671   1.587  0.9173  1.6609  0.4915
  925MOL0     C24780   4.148  10.639   1.539 -1.0603 -0.1091  0.8185
  925MOL0     C24781   4.263  10.732   1.585 -0.0467  0.7357 -0.1046
  925MOL0     C24782   4.403  10.682   1.545 -0.4298 -0.6721  0.7956
  925MOL0     C24783   4.511  10.777   1.606 -0.1191 -1.2512 -0.5960
  925MOL0     C24784   4.649  10.712   1.576  0.0930 -0.5010 -0.5949
  925MOL0    Cl24785   4.690  10.686   1.406 -0.3371 -0.3347 -0.3914
  925MOL0     C24786   3.500  10.786   1.618  0.5522  0.1455  0.4663
  925MOL0     C24787   3.432  10.881   1.697  0.2249 -0.1446 -0.0568
  925MOL0     O24788   3.231  10.980   1.872  0.4833 -0.0829 -0.2877
  925MOL0     C24789   3.345  11.242   2.065 -0.3253  0.7217  0.4839
  925MOL0     C24790   3.335  11.321   2.180 -1.1638  0.3292  0.5940
  925MOL0     N24791   3.338  11.014   2.737  0.7480 -0.3310  0.7034
  925MOL0     N24792   3.359  11.033   2.863  0.7028 -0.0042 -0.0309
  925MOL0     C24793   3.543  10.852   4.039 -0.0820  0.4449  0.0499
  925MOL0     C24794   3.426  10.782   4.079 -0.5576  0.5126 -0.2041
  925MOL0     C24795   3.100  10.568   4.228 -0.0388 -0.1852 -0.6562
  925MOL0     C24796   3.084  10.436   4.188  0.5934  0.0831 -0.1366
  925MOL0     C24797   3.025  10.337   4.268  0.1161  0.1391  0.5141
  925MOL0     C24798   2.971  10.377   4.391 -0.0918  0.3449  0.4092
  925MOL0     O24799   2.903  10.291   4.475  0.9228  0.0022  0.2953
  925MOL0     C24800   2.916  10.152   4.447 -0.3990  0.0384  0.7748
  925MOL0     C24801   2.812  10.063   4.516 -0.0383 -0.5644  0.2019
  925MOL0     C24802   2.820   9.915   4.479 -0.4008 -0.4857  0.6231
  925MOL0     C24803   2.713   9.847   4.549 -0.4749  0.8036 -0.3160
  925MOL0     C24804   2.693   9.707   4.528  0.1168 -0.3273 -0.3838
  925MOL0     C24805   2.654   9.587   4.496 -0.0702 -0.4536  0.4677
  925MOL0     C24806   2.991  10.510   4.441  0.8666 -0.1362  0.4280
  925MOL0     C24807   3.053  10.600   4.354 -0.6420 -0.6065 -1.0697
  925MOL0     H24808   3.342  10.621   3.807  2.3967 -0.0874 -1.3955
  925MOL0     H24809   3.527  10.757   3.712 -0.6970  1.4324 -0.0591
  925MOL0     H24810   3.847  10.964   3.753 -0.1543  0.1854 -0.5414
  925MOL0     H24811   3.734  10.855   3.685  2.0995 -2.3095  3.4799
  925MOL0     H24812   3.637  11.128   3.753  0.4251 -1.0821  1.3516
  925MOL0     H24813   3.783  11.130   3.642 -0.5904  3.1740  1.1769
  925MOL0     H24814   3.520  10.993   3.594 -0.2234 -0.0002 -0.9220
  925MOL0     H24815   3.574  11.133   3.504 -1.3593  0.6029  1.0628
  925MOL0     H24816   3.767  11.000   3.426  0.7311 -0.7205  1.1699
  925MOL0     H24817   3.685  10.855   3.478 -4.7469 -0.9273  0.8677
  925MOL0     H24818   3.625  10.887   3.259 -0.1148 -3.0619  4.3884
  925MOL0     H24819   3.486  10.965   3.346 -0.2363 -0.7336  0.3531
  925MOL0     H24820   3.583  11.196   3.276  0.8733  1.1402 -1.1516
  925MOL0     H24821   3.715  11.110   3.196 -0.4968 -1.3639  1.4063
  925MOL0     H24822   3.422  11.052   3.123 -0.1426  0.0197 -1.5147
  925MOL0     H24823   3.514  11.191   3.065  3.5063 -0.2329 -0.4503
  925MOL0     H24824   3.564  10.894   3.050 -1.1361 -0.4856  1.2752
  925MOL0     H24825   3.683  11.014   2.992 -0.1539  1.5851 -0.0329
  925MOL0     H24826   3.664  10.992   2.736 -0.0652  1.0783  0.7939
  925MOL0     H24827   3.564  10.941   2.487  0.2872  1.5637 -0.8126
  925MOL0     H24828   3.398  10.974   2.465  1.6245 -2.4353  0.9948
  925MOL0     H24829   3.508  11.169   2.364 -1.7732 -0.0492  0.2872
  925MOL0     H24830   3.623  11.172   2.500 -0.5372 -0.3020  1.8250
  925MOL0     H24831   3.489  11.364   2.516 -1.8868 -0.4989  0.6290
  925MOL0     H24832   3.454  11.263   2.646 -2.5550  0.3857 -0.5236
  925MOL0     H24833   3.238  11.298   2.597  0.1865 -0.5018 -0.8666
  925MOL0     H24834   3.253  11.149   2.505 -1.9347  0.3074 -3.3192
  925MOL0     H24835   3.080  11.150   2.327 -0.0458 -0.1854  0.1724
  925MOL0     H24836   3.068  10.929   2.256  0.3219  0.5200  0.7216
  925MOL0     H24837   3.050  10.930   2.077 -0.5034 -5.1326  2.0237
  925MOL0     H24838   3.200  10.876   2.149  1.5162  0.8722  1.8816
  925MOL0     H24839   3.694  11.038   1.837 -2.3705  2.4284 -1.2924
  925MOL0     H24840   3.818  10.862   1.724  0.1910 -2.3126 -0.9981
  925MOL0     H24841   3.792  10.608   1.741  1.4974  1.0744 -0.5773
  925MOL0     H24842   3.721  10.492   1.630 -1.1237  1.2696  0.4452
  925MOL0     H24843   3.957  10.460   1.586 -2.5278 -0.5521  3.0495
  925MOL0     H24844   3.874  10.556   1.454 -2.2484  3.2441  1.7026
  925MOL0     H24845   4.006  10.680   1.696 -3.6114 -2.3317  0.8089
  925MOL0     H24846   3.996  10.770   1.544 -3.7251 -0.5951 -3.7153
  925MOL0     H24847   4.190  10.540   1.560  0.1095 -0.2712 -1.9239
  925MOL0     H24848   4.146  10.651   1.430  2.2433  0.2474  0.7193
  925MOL0     H24849   4.255  10.732   1.694 -0.8869  1.6252 -0.1466
  925MOL0     H24850   4.237  10.835   1.556  0.2098  0.1391 -2.7033
  925MOL0     H24851   4.413  10.582   1.586  1.6795 -0.3481  1.2294
  925MOL0     H24852   4.405  10.686   1.435 -3.0062  0.2803  0.7295
  925MOL0     H24853   4.494  10.791   1.713 -0.1716 -4.3595 -0.1062
  925MOL0     H24854   4.504  10.874   1.555  1.6605 -2.0485 -2.5329
  925MOL0     H24855   4.667  10.625   1.640  1.9093 -0.1411 -0.5910
  925MOL0     H24856   4.713  10.791   1.615 -0.4819  1.4933 -3.3975
  925MOL0     H24857   3.451  10.747   1.529 -2.0933  2.1010  0.9269
  925MOL0     H24858   3.328  10.909   1.683  0.2009 -1.1515 -2.4883
  925MOL0     H24859   3.415  11.284   1.993 -1.2066  0.5349 -0.5061
  925MOL0     H24860   3.415  11.393   2.186  0.7601 -1.7552  1.1897
  925MOL0     H24861   3.601  10.924   4.095  2.5568  0.3459 -2.3009
  925MOL0     H24862   3.408  10.788   4.186  1.7810  3.4898  0.1310
  925MOL0     H24863   3.120  10.400   4.092  1.0460  3.0525 -1.1923
  925MOL0     H24864   3.010  10.241   4.220  1.6904  1.4048 -2.7991
  925MOL0     H24865   2.879  10.150   4.344  0.9903  1.7509  0.1760
  925MOL0     H24866   3.018  10.114   4.455  0.7684  2.5951 -0.6810
  925MOL0     H24867   2.713  10.096   4.483 -1.7900 -3.6950  1.8498
  925MOL0     H24868   2.805  10.064   4.625 -0.5877 -1.2644  0.1790
  925MOL0     H24869   2.911   9.872   4.520 -0.5680  1.4530  3.2719
  925MOL0     H24870   2.824   9.905   4.370  1.3272 -2.0471  0.7884
  925MOL0     H24871   2.615   9.892   4.529 -0.0246  1.2945 -1.5095
  925MOL0     H24872   2.738   9.869   4.653  1.8442 -2.7361  0.0480
  925MOL0     H24873   2.634   9.487   4.463  1.7583 -0.2289 -1.5027
  925MOL0     H24874   2.947  10.538   4.536  0.3014  0.1867  0.0728
  925MOL0     H24875   3.054  10.699   4.398 -3.8141  0.1542 -2.4154
  926MOL0     O24876   8.858   6.384   6.313 -0.3085  0.3817 -0.6143
  926MOL0     C24877   8.790   6.476   6.273  0.0503 -0.5424 -0.1429
  926MOL0     O24878   8.827   6.614   6.270  0.6827  0.3207 -0.2005
  926MOL0     C24879   8.951   6.655   6.306  0.4315  0.0722 -0.6810
  926MOL0     C24880   9.060   6.669   6.218  0.4193  0.2485 -0.2566
  926MOL0     C24881   9.186   6.672   6.283  0.0394  0.1197 -0.9035
  926MOL0     C24882   9.204   6.699   6.424 -0.8854 -0.0978 -0.5000
  926MOL0     O24883   9.328   6.722   6.488  0.1396 -0.2733 -1.0311
  926MOL0     C24884   9.405   6.597   6.494  0.2672 -0.9256 -0.1150
  926MOL0     C24885   9.374   6.540   6.632 -0.1823 -0.1848  0.6314
  926MOL0     C24886   9.419   6.628   6.760  0.1664  0.7979  0.4205
  926MOL0     C24887   9.570   6.651   6.752 -0.3979 -0.4457  0.6212
  926MOL0     C24888   9.631   6.680   6.893  0.3351 -0.1841  0.3769
  926MOL0     C24889   9.550   6.801   6.971 -0.0337 -0.0999  0.2206
  926MOL0     C24890   9.601   6.793   7.117  0.1204 -0.3919  0.2857
  926MOL0     C24891   9.492   6.812   7.210 -0.4724 -1.0109 -0.1796
  926MOL0     N24892   9.557   6.797   7.339  0.1962  0.4405 -0.1737
  926MOL0     C24893   9.615   6.887   7.413  0.6291 -0.1574 -0.0678
  926MOL0     C24894   9.672   6.821   7.517  0.7022  0.6830  0.1974
  926MOL0     C24895   9.737   6.886   7.636 -0.2008 -0.1164  0.6895
  926MOL0     C24896   9.649   6.972   7.719  0.7810 -0.0509 -0.4410
  926MOL0     C24897   9.533   6.888   7.782 -1.0764  0.6730 -0.0463
  926MOL0     C24898   9.514   6.928   7.936 -0.0978  0.6088  0.1588
  926MOL0     O24899   9.634   6.909   8.012  0.4199 -0.5458 -0.2332
  926MOL0     C24900   9.673   6.784   8.017  0.0298 -0.2665 -0.1537
  926MOL0     C24901   9.596   6.688   8.072  0.4672  0.6410  1.0842
  926MOL0     C24902   9.635   6.549   8.100 -0.3469 -0.1094 -0.2881
  926MOL0     C24903   9.534   6.449   8.150 -0.1264  0.3950  0.3449
  926MOL0     C24904   9.762   6.516   8.070 -0.8078  0.6213  0.7880
  926MOL0     C24905   9.823   6.379   8.093  0.1912 -0.4021  0.0947
  926MOL0     O24906   9.924   6.340   8.014 -0.6285  0.0071 -0.5467
  926MOL0     C24907   9.987   6.211   8.032  0.1383 -0.1685 -1.1463
  926MOL0     C24908  10.115   6.198   7.994  0.2744 -0.0805  0.6467
  926MOL0     C24909  10.196   6.086   8.007  0.5882  0.5834 -0.8156
  926MOL0     C24910  10.139   5.966   8.070 -0.0884 -0.3079 -0.3444
  926MOL0     O24911  10.204   5.851   8.079  0.6227 -0.3465  0.0227
  926MOL0     C24912  10.268   5.805   7.957 -0.0735  0.8301  0.4942
  926MOL0     C24913  10.185   5.676   7.934  0.5076 -0.5319  0.5532
  926MOL0     C24914  10.241   5.551   7.998 -0.2693  0.4542  1.2540
  926MOL0     C24915  10.269   5.558   8.146 -0.5762  0.3987 -0.6986
  926MOL0     C24916  10.359   5.441   8.194  0.1224 -0.7710 -0.1697
  926MOL0     C24917  10.291   5.308   8.188  0.8566  0.4662 -0.1215
  926MOL0     C24918  10.387   5.200   8.250 -0.0297 -0.0969 -0.0547
  926MOL0     C24919  10.320   5.063   8.265 -0.4180  0.5489  0.1080
  926MOL0    Cl24920  10.176   5.083   8.379 -0.0967 -0.1671  0.3090
  926MOL0     C24921  10.009   5.987   8.125  0.0902 -0.1653  0.1139
  926MOL0     C24922   9.925   6.097   8.088  0.6449  1.1764 -0.8178
  926MOL0     O24923   9.772   6.310   8.184 -0.2858  0.1405  0.0076
  926MOL0     C24924   9.840   6.618   7.997 -0.3306 -0.6983 -0.8451
  926MOL0     C24925   9.800   6.748   7.975 -0.3598 -0.6713  0.2829
  926MOL0     N24926   9.650   6.680   7.500 -0.1702  0.1522 -0.6332
  926MOL0     N24927   9.585   6.675   7.394  0.7972 -0.3718 -0.5058
  926MOL0     C24928   9.088   6.710   6.500  0.1948  1.8714 -0.1672
  926MOL0     C24929   8.961   6.675   6.448 -0.3025 -1.3496 -0.4895
  926MOL0     C24930   8.660   6.443   6.222 -0.0134  0.0926 -0.1409
  926MOL0     C24931   8.643   6.318   6.153 -0.6368  0.4405  0.0811
  926MOL0     C24932   8.524   6.269   6.102  0.2004 -0.0119 -0.8022
  926MOL0     C24933   8.412   6.351   6.119  0.4747  0.6507  0.4397
  926MOL0     O24934   8.290   6.307   6.066  0.4706  0.9979 -0.0060
  926MOL0     C24935   8.256   6.173   6.096 -0.1172  0.6195 -0.2366
  926MOL0     C24936   8.106   6.160   6.096  0.2270 -0.4552  0.8859
  926MOL0     C24937   8.049   6.012   6.091 -0.1366 -0.2529 -0.1589
  926MOL0     C24938   8.085   5.919   6.206 -0.3175 -0.2456 -0.1088
  926MOL0     C24939   8.031   5.959   6.336 -0.0922 -0.1310  1.2743
  926MOL0     C24940   8.001   6.012   6.439 -0.4175  0.2265  0.8216
  926MOL0     C24941   8.423   6.476   6.168  0.0816  0.3249  0.1154
  926MOL0     C24942   8.549   6.526   6.219  1.1300 -0.9090 -0.0024
  926MOL0     H24943   9.065   6.652   6.110  0.7836 -0.4967 -0.1298
  926MOL0     H24944   9.277   6.666   6.224 -0.2079  0.0206 -1.2772
  926MOL0     H24945   9.390   6.529   6.410 -0.4552  2.1260 -2.6697
  926MOL0     H24946   9.507   6.637   6.489  0.7813 -2.1913 -0.2614
  926MOL0     H24947   9.268   6.517   6.638 -0.5781  0.7427 -1.6707
  926MOL0     H24948   9.423   6.442   6.641  0.9215  0.1111 -1.5708
  926MOL0     H24949   9.361   6.719   6.744 -0.9463 -0.3108 -2.5779
  926MOL0     H24950   9.391   6.578   6.853 -0.8448  1.7661  0.6647
  926MOL0     H24951   9.626   6.569   6.705  2.9090  0.3097  2.9073
  926MOL0     H24952   9.580   6.743   6.694 -0.2596 -0.2280  0.9872
  926MOL0     H24953   9.630   6.587   6.951  1.4894 -2.1389 -2.4895
  926MOL0     H24954   9.737   6.707   6.883  0.6345 -0.1814  2.7886
  926MOL0     H24955   9.565   6.894   6.915 -1.4712 -2.0138 -3.7629
  926MOL0     H24956   9.441   6.792   6.980  0.0316  0.9904  2.9940
  926MOL0     H24957   9.657   6.700   7.136 -1.3290 -2.1911 -3.2419
  926MOL0     H24958   9.672   6.875   7.129 -1.1136  1.6152 -3.9956
  926MOL0     H24959   9.404   6.751   7.187 -1.1712  0.5110 -1.7385
  926MOL0     H24960   9.468   6.919   7.213  3.3307 -0.0038  3.5263
  926MOL0     H24961   9.600   6.994   7.402 -0.3387 -0.3722 -1.0001
  926MOL0     H24962   9.788   6.805   7.689  1.1332 -0.1618 -0.5760
  926MOL0     H24963   9.814   6.957   7.604 -0.8798  1.4523  2.3854
  926MOL0     H24964   9.586   7.047   7.669 -0.2030 -0.5762 -0.0279
  926MOL0     H24965   9.697   7.032   7.797  2.3222 -2.5406  0.6486
  926MOL0     H24966   9.561   6.783   7.774  1.0588  0.9228  2.6078
  926MOL0     H24967   9.444   6.914   7.724 -0.2050 -1.1418 -2.3388
  926MOL0     H24968   9.438   6.865   7.983 -1.3570  1.6150 -0.4498
  926MOL0     H24969   9.473   7.030   7.934 -0.4429  0.5090  1.6174
  926MOL0     H24970   9.498   6.711   8.113  0.9445  0.3149  2.4527
  926MOL0     H24971   9.560   6.391   8.240 -1.5787  0.3811  0.7821
  926MOL0     H24972   9.433   6.488   8.166 -2.3114 -3.4667 -2.3589
  926MOL0     H24973   9.512   6.385   8.064  1.3886  0.5830 -0.2139
  926MOL0     H24974  10.163   6.277   7.937  1.8263 -1.1796  0.3576
  926MOL0     H24975  10.296   6.066   7.971  0.6102 -0.6172 -0.1632
  926MOL0     H24976  10.245   5.870   7.872 -2.3286  3.1717  2.7141
  926MOL0     H24977  10.374   5.781   7.973 -0.1187 -0.5487 -1.0544
  926MOL0     H24978  10.081   5.686   7.967 -0.1510 -1.4791 -1.1157
  926MOL0     H24979  10.171   5.665   7.826  0.1081  0.4720  0.4850
  926MOL0     H24980  10.335   5.531   7.945 -0.5867  1.0494  0.4375
  926MOL0     H24981  10.164   5.476   7.974 -0.7562  1.3048  0.0406
  926MOL0     H24982  10.333   5.644   8.169  2.5663 -2.8357  5.0662
  926MOL0     H24983  10.179   5.573   8.206 -0.6226 -2.9211  0.2358
  926MOL0     H24984  10.395   5.449   8.297 -2.7410 -3.4888  1.2060
  926MOL0     H24985  10.443   5.441   8.124  0.1068  0.4583 -0.2152
  926MOL0     H24986  10.196   5.324   8.242  1.3289  5.3692 -0.2145
  926MOL0     H24987  10.277   5.280   8.084 -3.0660 -1.3024  0.7140
  926MOL0     H24988  10.416   5.226   8.352 -0.5548 -2.9198  0.9106
  926MOL0     H24989  10.475   5.198   8.186 -0.2440 -1.0286 -0.3300
  926MOL0     H24990  10.384   4.993   8.319 -1.2052  0.7737  1.3828
  926MOL0     H24991  10.286   5.014   8.173 -0.6890 -0.7067  0.8527
  926MOL0     H24992   9.973   5.899   8.177  2.2679 -0.1317  1.8151
  926MOL0     H24993   9.823   6.081   8.122  0.6236 -0.1130 -1.4451
  926MOL0     H24994   9.936   6.607   7.948 -0.6654  1.0092 -1.9564
  926MOL0     H24995   9.869   6.820   7.931  0.0597 -1.0430  0.3228
  926MOL0     H24996   9.101   6.739   6.604  1.7068 -3.3131  1.3784
  926MOL0     H24997   8.888   6.666   6.528  1.6157 -3.0595  1.1690
  926MOL0     H24998   8.727   6.252   6.134 -0.8625 -0.2593  1.4280
  926MOL0     H24999   8.520   6.169   6.060  3.0768 -0.2628 -0.6435
  926MOL0     H25000   8.301   6.102   6.026  1.1288 -0.3612  1.4730
  926MOL0     H25001   8.306   6.132   6.184  2.9602 -0.1332 -2.1599
  926MOL0     H25002   8.067   6.214   6.009 -0.1625 -1.8231  0.1896
  926MOL0     H25003   8.065   6.209   6.184 -1.3760 -0.9398  0.4401
  926MOL0     H25004   8.073   5.968   5.994 -4.3885 -2.4885 -0.4536
  926MOL0     H25005   7.941   6.019   6.105 -0.1069  2.7238 -0.7628
  926MOL0     H25006   8.193   5.919   6.222 -0.4664 -2.4042  1.2936
  926MOL0     H25007   8.052   5.820   6.174  0.8011 -0.5164 -0.4562
  926MOL0     H25008   7.972   6.047   6.536 -0.5402  0.8302  0.5713
  926MOL0     H25009   8.337   6.541   6.163  0.8976  1.3359 -2.0507
  926MOL0     H25010   8.539   6.622   6.269  0.2756 -1.3778  0.7580
  927MOL0     O25011   8.264   3.723   1.568  0.6027  0.3894  0.4801
  927MOL0     C25012   8.247   3.616   1.623  0.3674  0.3516 -0.0142
  927MOL0     O25013   8.218   3.493   1.561 -1.1408 -0.8546 -0.0363
  927MOL0     C25014   8.134   3.488   1.451  0.1671 -0.9490  0.2012
  927MOL0     C25015   8.183   3.462   1.319 -0.1263  0.7311 -1.4907
  927MOL0     C25016   8.093   3.447   1.212 -0.7847 -0.0092 -0.2391
  927MOL0     C25017   7.958   3.492   1.232 -0.1521  0.6973 -0.0861
  927MOL0     O25018   7.870   3.515   1.135  0.0036 -0.3253  0.1664
  927MOL0     C25019   7.888   3.490   0.998  0.2493  0.2114  0.1213
  927MOL0     C25020   7.781   3.571   0.916  0.6436  0.4679 -0.5338
  927MOL0     C25021   7.791   3.721   0.912  0.0842  0.4241 -0.1524
  927MOL0     C25022   7.931   3.768   0.849  0.0469 -0.2186 -0.7939
  927MOL0     C25023   7.975   3.904   0.920 -0.7492 -0.1340  0.1429
  927MOL0     C25024   8.026   3.879   1.065 -0.6628  0.5471  0.5246
  927MOL0     C25025   8.148   3.971   1.093 -0.5265  0.2216 -0.8175
  927MOL0     C25026   8.180   3.976   1.250  1.8110  0.8150 -0.2205
  927MOL0     N25027   8.315   4.019   1.293  0.1953  0.0163  0.1718
  927MOL0     C25028   8.401   3.943   1.366  0.0259 -0.8185 -0.3642
  927MOL0     C25029   8.494   4.025   1.416 -0.0787  0.2116  0.6895
  927MOL0     C25030   8.620   3.984   1.491  0.9933  0.3396 -0.6634
  927MOL0     C25031   8.717   3.921   1.391 -0.0972 -1.4543  0.8385
  927MOL0     C25032   8.819   4.016   1.326 -0.1995  1.0825 -1.0048
  927MOL0     C25033   8.951   3.948   1.298 -1.0805  0.0824  0.2280
  927MOL0     O25034   9.054   4.031   1.251 -0.0150  0.0062 -1.2406
  927MOL0     C25035   9.053   4.099   1.133  0.2030 -0.0347  1.4150
  927MOL0     C25036   9.026   4.240   1.104 -0.4251  0.3296 -0.6552
  927MOL0     C25037   9.053   4.300   0.985  0.0421  0.1972 -0.0340
  927MOL0     C25038   9.002   4.434   0.970  0.9774  0.4407 -0.2230
  927MOL0     C25039   9.099   4.223   0.881 -0.1327  0.1966  0.0326
  927MOL0     C25040   9.116   4.283   0.745 -0.4613 -0.7135 -0.0256
  927MOL0     O25041   9.109   4.204   0.638 -0.2509 -0.2457 -0.5569
  927MOL0     C25042   9.104   4.263   0.512 -0.0846 -0.1238  0.2211
  927MOL0     C25043   8.991   4.248   0.436 -0.5393 -0.0573  0.0879
  927MOL0     C25044   8.985   4.280   0.301 -0.0774 -0.5488  0.5473
  927MOL0     C25045   9.092   4.342   0.235  0.3770 -0.7454 -0.2168
  927MOL0     O25046   9.085   4.367   0.101 -0.5760  0.2146  0.5631
  927MOL0     C25047   9.205   4.347   0.022  0.0979 -0.4102  0.2314
  927MOL0     C25048   9.278   4.209   0.050  0.5936  1.4247 -0.9687
  927MOL0     C25049   9.196   4.080  -0.006 -0.1289  0.6267 -0.2395
  927MOL0     C25050   9.286   3.963   0.025 -0.4523 -0.1800 -0.1243
  927MOL0     C25051   9.228   3.820  -0.007  0.8003 -0.5249  0.1091
  927MOL0     C25052   9.306   3.709   0.047 -0.5171 -0.3217  0.2642
  927MOL0     C25053   9.239   3.566   0.047 -0.1084  0.0423 -0.5038
  927MOL0     C25054   9.332   3.452   0.097  0.0825 -0.2321 -0.7262
  927MOL0    Cl25055   9.449   3.400  -0.040  0.2349  0.1069 -0.1698
  927MOL0     C25056   9.197   4.370   0.313  0.6054  0.5860  0.0361
  927MOL0     C25057   9.205   4.327   0.451  0.2705  1.0571  0.2548
  927MOL0     O25058   9.121   4.405   0.727  0.5768  0.1443 -0.4492
  927MOL0     C25059   9.117   4.083   0.897  0.0460 -0.4718 -0.0376
  927MOL0     C25060   9.104   4.027   1.023  0.3398  0.7965 -0.0294
  927MOL0     N25061   8.470   4.150   1.356  0.0571  0.8091 -0.5998
  927MOL0     N25062   8.357   4.145   1.288 -0.3218 -0.0453  0.2223
  927MOL0     C25063   7.909   3.520   1.361  0.0110  0.0292  0.5396
  927MOL0     C25064   8.000   3.521   1.465  0.0032 -0.1790 -0.7682
  927MOL0     C25065   8.279   3.591   1.772  0.5663  1.1958  0.5367
  927MOL0     C25066   8.359   3.672   1.847  0.1377 -0.0869  0.7903
  927MOL0     C25067   8.383   3.639   1.979  0.5634  0.4703  0.7177
  927MOL0     C25068   8.334   3.510   2.028 -0.9559  1.1042  0.1761
  927MOL0     O25069   8.343   3.458   2.157  0.8392  0.4011 -0.3572
  927MOL0     C25070   8.439   3.531   2.240 -0.3306 -0.2672 -0.2997
  927MOL0     C25071   8.522   3.449   2.341  1.0876 -0.2094 -0.1327
  927MOL0     C25072   8.443   3.412   2.463 -0.4992 -0.0822 -0.9353
  927MOL0     C25073   8.365   3.286   2.450 -0.2086  0.4295  0.2378
  927MOL0     C25074   8.332   3.230   2.576 -0.4777 -0.6450 -0.5387
  927MOL0     C25075   8.309   3.168   2.678  0.5093  1.1758  0.1064
  927MOL0     C25076   8.263   3.427   1.949 -0.8859 -0.4766  1.1144
  927MOL0     C25077   8.229   3.465   1.822  1.1085  1.3695  0.1734
  927MOL0     H25078   8.290   3.446   1.312 -0.1153  0.8072 -1.4948
  927MOL0     H25079   8.132   3.449   1.111 -1.9763 -0.9925 -0.7544
  927MOL0     H25080   7.989   3.526   0.974  0.8635  0.1444  2.4161
  927MOL0     H25081   7.890   3.384   0.972  1.4974  0.5341 -1.2139
  927MOL0     H25082   7.787   3.536   0.813 -0.7774  1.2633 -0.8966
  927MOL0     H25083   7.684   3.544   0.958  1.6092  1.1901  2.4369
  927MOL0     H25084   7.710   3.756   0.848 -0.7085  0.6874  0.9717
  927MOL0     H25085   7.780   3.759   1.014  1.9763  0.4343  0.0845
  927MOL0     H25086   8.014   3.697   0.851 -0.0077 -0.2961 -1.2118
  927MOL0     H25087   7.920   3.782   0.741  1.6424 -4.8331 -1.7893
  927MOL0     H25088   8.051   3.963   0.867 -1.5232  1.2152  0.4784
  927MOL0     H25089   7.885   3.966   0.914 -0.2825  0.5791  0.4043
  927MOL0     H25090   7.947   3.897   1.138 -1.5809  1.2206 -0.5902
  927MOL0     H25091   8.059   3.775   1.080 -3.6655 -0.4968  0.4516
  927MOL0     H25092   8.227   3.919   1.039  0.4407  0.2852  0.5031
  927MOL0     H25093   8.127   4.074   1.061 -2.5007  0.1450  0.0636
  927MOL0     H25094   8.151   3.879   1.292 -0.5029  1.0619 -1.1050
  927MOL0     H25095   8.110   4.047   1.295  3.0070  0.2854  2.6861
  927MOL0     H25096   8.395   3.838   1.391  2.3184 -1.3958 -1.9571
  927MOL0     H25097   8.668   4.072   1.534  0.0291  0.3598  0.4050
  927MOL0     H25098   8.595   3.917   1.573 -2.3083  2.9793  0.7310
  927MOL0     H25099   8.672   3.882   1.299  5.3545  1.1613 -3.5927
  927MOL0     H25100   8.758   3.832   1.439 -0.4234 -2.2498 -0.3001
  927MOL0     H25101   8.856   4.076   1.410  0.9855  0.7445 -1.2595
  927MOL0     H25102   8.798   4.071   1.234 -1.9697  2.9190  0.4043
  927MOL0     H25103   8.933   3.884   1.211  2.4291 -2.8370  1.3867
  927MOL0     H25104   8.987   3.896   1.388 -0.9955  1.6347  1.1138
  927MOL0     H25105   9.012   4.290   1.200  0.9327 -3.3549  1.6893
  927MOL0     H25106   8.946   4.451   1.062 -2.2243 -0.6503 -1.8256
  927MOL0     H25107   9.079   4.511   0.964  0.8124  0.5695 -0.7472
  927MOL0     H25108   8.934   4.467   0.891 -1.1620 -1.5331  0.6757
  927MOL0     H25109   8.906   4.202   0.486 -0.4890 -0.9535 -0.6341
  927MOL0     H25110   8.895   4.255   0.246 -1.2887 -0.3307  2.3420
  927MOL0     H25111   9.169   4.356  -0.081  0.2533  2.6471  0.3560
  927MOL0     H25112   9.277   4.428   0.032  0.1586 -0.6020  1.6603
  927MOL0     H25113   9.371   4.211  -0.008  2.4505  2.1390  1.8703
  927MOL0     H25114   9.307   4.187   0.153  1.1624  3.4672 -0.6543
  927MOL0     H25115   9.191   4.096  -0.114  0.4051  2.2734 -0.0534
  927MOL0     H25116   9.106   4.063   0.053 -0.4210 -1.0537 -1.1178
  927MOL0     H25117   9.369   3.975  -0.046  0.6514  1.7942  1.3799
  927MOL0     H25118   9.326   3.968   0.127  0.5017  0.0833 -0.4936
  927MOL0     H25119   9.211   3.820  -0.115  0.1566  3.2738  0.0637
  927MOL0     H25120   9.126   3.818   0.033  0.7433  3.1798  0.5301
  927MOL0     H25121   9.391   3.693  -0.021  0.6173 -3.5205  2.2118
  927MOL0     H25122   9.354   3.737   0.141  0.6357  1.9248 -0.9180
  927MOL0     H25123   9.192   3.543  -0.049 -4.0613  0.9241  1.0278
  927MOL0     H25124   9.157   3.583   0.118  0.5919 -1.8774  0.8596
  927MOL0     H25125   9.285   3.359   0.131  3.4707 -2.1879 -0.9344
  927MOL0     H25126   9.395   3.488   0.178 -0.0462 -2.1210  0.2782
  927MOL0     H25127   9.276   4.433   0.272  0.2698  0.9823 -0.0058
  927MOL0     H25128   9.293   4.355   0.507 -1.2882  1.8276  2.4154
  927MOL0     H25129   9.146   4.012   0.820  0.4432 -0.6383  0.2566
  927MOL0     H25130   9.121   3.922   1.043  0.3761  1.3619  3.6518
  927MOL0     H25131   7.808   3.558   1.371  0.1057  1.2572 -2.2695
  927MOL0     H25132   7.969   3.540   1.567  0.8333  2.8090 -1.0039
  927MOL0     H25133   8.409   3.759   1.806 -3.3149  1.5160 -0.3600
  927MOL0     H25134   8.448   3.711   2.028  1.2254  0.2533  0.1685
  927MOL0     H25135   8.510   3.579   2.172 -0.2996 -1.9192 -1.4739
  927MOL0     H25136   8.384   3.612   2.289 -0.8978  0.1761 -1.6130
  927MOL0     H25137   8.602   3.513   2.378 -0.1211  1.2722  0.0431
  927MOL0     H25138   8.560   3.361   2.289 -1.3901 -0.1771 -2.2015
  927MOL0     H25139   8.373   3.491   2.493 -0.7779 -0.2313 -1.1888
  927MOL0     H25140   8.518   3.398   2.542  0.5204 -0.4175 -1.9263
  927MOL0     H25141   8.410   3.205   2.392 -0.4519  1.2206 -1.1003
  927MOL0     H25142   8.275   3.303   2.389  0.6846  1.1213 -0.9297
  927MOL0     H25143   8.284   3.123   2.772 -2.9600  0.6967 -0.8915
  927MOL0     H25144   8.213   3.339   1.989 -0.5211 -1.3996 -0.3712
  927MOL0     H25145   8.160   3.404   1.764  1.0158  2.9553 -1.4637
  928MOL0     O25146   6.685   2.330  10.023 -0.3415 -0.1340 -0.0820
  928MOL0     C25147   6.575   2.280  10.012  0.5008  0.5744  0.2338
  928MOL0     O25148   6.473   2.281  10.108 -0.3861 -0.4285  0.0145
  928MOL0     C25149   6.489   2.344  10.227 -0.0767  0.1312 -0.5940
  928MOL0     C25150   6.484   2.267  10.343  0.7926 -0.4344  0.2786
  928MOL0     C25151   6.502   2.326  10.468 -0.5070  0.2724 -1.5592
  928MOL0     C25152   6.529   2.463  10.479 -0.0935 -0.8659 -0.5247
  928MOL0     O25153   6.535   2.526  10.593  0.1689 -0.5176 -0.2114
  928MOL0     C25154   6.620   2.478  10.696  0.5838  0.1509  0.4025
  928MOL0     C25155   6.766   2.510  10.649 -0.0378 -0.6553 -1.2348
  928MOL0     C25156   6.859   2.522  10.778  0.0816 -0.1713 -0.4617
  928MOL0     C25157   6.883   2.376  10.844 -0.7222 -0.5068 -0.3083
  928MOL0     C25158   6.984   2.290  10.772 -0.8952 -0.4613 -0.0458
  928MOL0     C25159   7.036   2.158  10.842  0.6099  0.5288  1.2477
  928MOL0     C25160   7.134   2.164  10.955 -0.0504  0.5354 -0.5069
  928MOL0     C25161   7.229   2.278  10.937 -0.1036  0.3022  0.0765
  928MOL0     N25162   7.350   2.243  11.015 -0.0816 -0.0883 -0.8441
  928MOL0     C25163   7.478   2.242  10.959  0.6718  0.7144 -0.2126
  928MOL0     C25164   7.560   2.237  11.068  0.5020  0.7116 -0.7463
  928MOL0     C25165   7.709   2.245  11.087 -0.7289  0.3019 -0.7983
  928MOL0     C25166   7.777   2.368  11.015 -0.4775  0.0539  0.9057
  928MOL0     C25167   7.748   2.506  11.076  0.2164 -1.4607 -0.1041
  928MOL0     C25168   7.611   2.550  11.028 -0.5856 -0.2832  0.3083
  928MOL0     O25169   7.606   2.692  11.025 -0.3353 -0.5936  0.2727
  928MOL0     C25170   7.486   2.751  10.995  0.1479 -0.3468 -0.1146
  928MOL0     C25171   7.479   2.890  10.968 -0.2495 -0.4777 -0.4814
  928MOL0     C25172   7.361   2.953  10.933 -0.2818  0.3082 -0.1637
  928MOL0     C25173   7.361   3.103  10.917 -0.1526  0.4316 -1.0200
  928MOL0     C25174   7.244   2.882  10.918 -0.2661  1.0523  0.6466
  928MOL0     C25175   7.111   2.938  10.894 -0.7911 -0.5857 -0.0459
  928MOL0     O25176   7.081   3.069  10.942  0.3610 -0.2952 -0.2247
  928MOL0     C25177   6.968   3.126  10.900  0.3138  0.2334  0.5989
  928MOL0     C25178   6.962   3.152  10.766 -0.8413 -0.0460  0.7498
  928MOL0     C25179   6.857   3.224  10.715  0.1143  0.0405  0.8543
  928MOL0     C25180   6.749   3.268  10.794  0.2270 -0.1486  0.5094
  928MOL0     O25181   6.642   3.328  10.731 -0.3640 -0.0872 -0.2883
  928MOL0     C25182   6.539   3.384  10.816 -0.2957  0.7136 -0.0782
  928MOL0     C25183   6.410   3.444  10.752 -0.3019  0.3688  0.3540
  928MOL0     C25184   6.361   3.367  10.618  0.3355 -1.3360 -0.1987
  928MOL0     C25185   6.228   3.415  10.566  0.2248 -0.5554 -0.0223
  928MOL0     C25186   6.158   3.307  10.475 -0.4772 -0.3237  0.4442
  928MOL0     C25187   6.249   3.266  10.354 -0.2761  1.1460 -0.4614
  928MOL0     C25188   6.274   3.376  10.246  0.6442  0.0454 -0.6607
  928MOL0     C25189   6.325   3.319  10.111 -0.7792 -0.3522 -0.5217
  928MOL0    Cl25190   6.500   3.244  10.104 -0.2170 -0.3418  0.2211
  928MOL0     C25191   6.759   3.242  10.930  0.2294  0.3965 -0.6718
  928MOL0     C25192   6.877   3.188  10.985 -1.0359  0.2147 -0.4089
  928MOL0     O25193   7.033   2.861  10.843  0.0913  0.3949  0.3459
  928MOL0     C25194   7.252   2.743  10.938 -0.1661  0.7124 -0.1177
  928MOL0     C25195   7.369   2.671  10.976 -0.2412 -0.3131  0.4023
  928MOL0     N25196   7.485   2.234  11.184  0.0161 -0.5406  0.5363
  928MOL0     N25197   7.360   2.236  11.155 -1.1267 -0.2874  0.0513
  928MOL0     C25198   6.516   2.548  10.358  0.0009  0.7758  0.3677
  928MOL0     C25199   6.497   2.481  10.236 -0.8697  0.2442  1.0454
  928MOL0     C25200   6.557   2.197   9.889  1.1884 -1.4157 -0.4757
  928MOL0     C25201   6.669   2.121   9.841  0.5245  0.4560  0.3294
  928MOL0     C25202   6.647   2.026   9.744  0.1523  0.7145 -0.5726
  928MOL0     C25203   6.520   2.008   9.682 -0.0622 -0.1079  0.0279
  928MOL0     O25204   6.492   1.918   9.589 -0.2838 -0.7327 -0.5675
  928MOL0     C25205   6.510   1.777   9.616  0.2726  0.4269 -0.4377
  928MOL0     C25206   6.425   1.708   9.519  0.4494 -0.6051  0.4956
  928MOL0     C25207   6.474   1.717   9.379  0.2712  0.2007  0.1330
  928MOL0     C25208   6.618   1.739   9.343  0.1551  0.7423  0.3789
  928MOL0     C25209   6.706   1.618   9.363  0.7730 -0.0466  0.1804
  928MOL0     C25210   6.778   1.522   9.379 -0.7331 -0.4029 -0.1355
  928MOL0     C25211   6.418   2.080   9.738  1.1329 -0.6045  0.8062
  928MOL0     C25212   6.425   2.170   9.839  0.6631  0.2925  0.5850
  928MOL0     H25213   6.479   2.159  10.334 -0.2659 -0.2745 -1.3857
  928MOL0     H25214   6.483   2.271  10.560  0.7148  3.5517  0.8443
  928MOL0     H25215   6.589   2.538  10.782  0.2384  0.7985 -0.1582
  928MOL0     H25216   6.610   2.376  10.735  2.9570  0.7110  2.7720
  928MOL0     H25217   6.812   2.430  10.590 -1.6463 -1.4803 -1.4103
  928MOL0     H25218   6.774   2.602  10.590  0.3909 -0.4381 -0.8501
  928MOL0     H25219   6.958   2.566  10.766  0.1226  1.0806  3.2136
  928MOL0     H25220   6.808   2.578  10.857 -0.7847 -0.2550 -0.9455
  928MOL0     H25221   6.937   2.393  10.937  4.8634 -2.4649 -2.7370
  928MOL0     H25222   6.790   2.322  10.862 -1.0268  0.5637  1.4695
  928MOL0     H25223   6.949   2.257  10.673 -0.7077  5.2614 -2.3909
  928MOL0     H25224   7.068   2.356  10.749 -1.0661 -0.0791  0.4179
  928MOL0     H25225   6.944   2.104  10.868 -0.6275  2.1713  0.5188
  928MOL0     H25226   7.091   2.106  10.764 -2.7456  1.2513 -1.8961
  928MOL0     H25227   7.103   2.167  11.060  1.2609  1.6163 -0.1097
  928MOL0     H25228   7.188   2.069  10.959 -1.1804 -0.0873  1.7058
  928MOL0     H25229   7.178   2.370  10.967 -0.4477  1.0316 -2.4983
  928MOL0     H25230   7.267   2.285  10.834 -0.0297  1.3617  0.1679
  928MOL0     H25231   7.512   2.236  10.856  1.2432  2.1212 -0.1252
  928MOL0     H25232   7.743   2.241  11.191  2.1783 -2.4377 -1.7015
  928MOL0     H25233   7.746   2.155  11.037 -1.3735 -0.8311  0.6710
  928MOL0     H25234   7.760   2.347  10.909  0.5792  0.8558  0.5634
  928MOL0     H25235   7.885   2.353  11.016 -0.0849  2.4933  1.0670
  928MOL0     H25236   7.812   2.579  11.024 -0.8970  0.0163  0.5256
  928MOL0     H25237   7.771   2.502  11.183 -1.1689 -0.7479  0.2453
  928MOL0     H25238   7.533   2.504  11.090  0.3832 -3.0336 -0.3376
  928MOL0     H25239   7.612   2.514  10.924 -0.2754  2.4128 -0.6868
  928MOL0     H25240   7.573   2.944  10.964 -0.0956 -0.5531  1.4337
  928MOL0     H25241   7.462   3.139  10.895  0.8060 -0.9821  0.7317
  928MOL0     H25242   7.288   3.144  10.847  0.4769  0.1645 -1.8479
  928MOL0     H25243   7.328   3.138  11.015  0.4567  0.8273 -0.9478
  928MOL0     H25244   7.025   3.102  10.693 -4.4707 -4.1426  0.0373
  928MOL0     H25245   6.849   3.242  10.608 -1.5801 -0.2992  0.8908
  928MOL0     H25246   6.495   3.302  10.873  0.6377  0.8742  0.9027
  928MOL0     H25247   6.581   3.455  10.887 -1.9403  0.3062  1.3642
  928MOL0     H25248   6.344   3.448  10.839 -1.7027  2.7103 -0.6830
  928MOL0     H25249   6.428   3.551  10.734 -1.0234  0.2326 -1.4094
  928MOL0     H25250   6.352   3.260  10.642  1.5157 -1.9809 -2.4041
  928MOL0     H25251   6.434   3.371  10.537 -0.0530 -1.8182 -0.5778
  928MOL0     H25252   6.170   3.418  10.659 -0.2851 -1.5220 -0.2957
  928MOL0     H25253   6.246   3.514  10.523 -1.3398  0.2555  1.0841
  928MOL0     H25254   6.056   3.335  10.448 -0.0002 -0.3646 -1.6062
  928MOL0     H25255   6.143   3.218  10.537  0.8019 -2.3035 -1.8707
  928MOL0     H25256   6.355   3.247  10.377  0.4360 -1.6830 -4.7688
  928MOL0     H25257   6.205   3.179  10.305 -1.3983 -0.1452  2.6467
  928MOL0     H25258   6.347   3.450  10.280 -0.1411 -0.6830  3.0392
  928MOL0     H25259   6.176   3.423  10.228 -0.8869 -1.7404  2.3083
  928MOL0     H25260   6.321   3.401  10.039  1.5642 -1.8426 -2.5267
  928MOL0     H25261   6.252   3.246  10.074  2.5979 -3.0335 -2.5233
  928MOL0     H25262   6.684   3.258  11.006  1.2222 -0.8254  0.6039
  928MOL0     H25263   6.904   3.178  11.090  1.3278  0.6364 -0.9295
  928MOL0     H25264   7.167   2.676  10.931 -0.9688  1.8209 -1.9636
  928MOL0     H25265   7.347   2.565  10.975 -4.1966  0.3510  0.4675
  928MOL0     H25266   6.509   2.656  10.371 -1.8265  0.5184  1.9633
  928MOL0     H25267   6.505   2.544  10.148  2.4077 -2.3608 -0.7609
  928MOL0     H25268   6.767   2.145   9.880  0.4335  0.5225  0.5197
  928MOL0     H25269   6.738   1.989   9.699 -0.2087  0.9899 -1.5588
  928MOL0     H25270   6.618   1.760   9.611  0.5343  2.2179 -2.7058
  928MOL0     H25271   6.486   1.747   9.718  0.4436  2.8268  0.3822
  928MOL0     H25272   6.327   1.756   9.522  1.4477  1.5641  0.1914
  928MOL0     H25273   6.409   1.602   9.543 -2.1721  0.1957  2.8708
  928MOL0     H25274   6.412   1.795   9.334 -0.0113  0.3115  0.7045
  928MOL0     H25275   6.445   1.624   9.328  1.2746 -0.6239  1.0301
  928MOL0     H25276   6.658   1.825   9.399  1.7479  0.2065  0.1134
  928MOL0     H25277   6.625   1.767   9.237  1.7097  0.1765  0.3085
  928MOL0     H25278   6.842   1.442   9.411 -0.0306  1.4027  3.4798
  928MOL0     H25279   6.317   2.051   9.712  2.1796 -1.2225 -3.1870
  928MOL0     H25280   6.332   2.212   9.878 -0.9595 -1.5461 -1.0887
  929MOL0     O25281   1.579   4.229   1.209 -0.5116 -0.3725 -0.2848
  929MOL0     C25282   1.642   4.333   1.178 -0.4260  0.6516  0.2313
  929MOL0     O25283   1.618   4.457   1.230  0.2840 -0.3065 -0.1413
  929MOL0     C25284   1.512   4.475   1.318  0.8510  0.1121  0.6238
  929MOL0     C25285   1.531   4.536   1.445  0.0672 -0.1666  0.0797
  929MOL0     C25286   1.423   4.570   1.534  0.2446  0.4972  0.0055
  929MOL0     C25287   1.292   4.555   1.484 -1.1677  0.9010  0.9626
  929MOL0     O25288   1.193   4.621   1.548  0.7315  0.4767 -0.1762
  929MOL0     C25289   1.064   4.660   1.492  1.1377  0.0382 -0.9072
  929MOL0     C25290   0.963   4.547   1.515 -0.1927 -0.8453 -0.4670
  929MOL0     C25291   0.819   4.596   1.528  0.2879  0.3623  0.6253
  929MOL0     C25292   0.740   4.637   1.397 -0.6329  0.6025 -0.2083
  929MOL0     C25293   0.623   4.711   1.428  0.0519 -0.4711  0.2995
  929MOL0     C25294   0.505   4.643   1.501  0.0042  0.7551  0.1678
  929MOL0     C25295   0.464   4.505   1.457 -0.6950  0.3888  1.1523
  929MOL0     C25296   0.332   4.466   1.526 -1.0840  0.6851  0.5853
  929MOL0     N25297   0.334   4.317   1.531  0.6852 -0.1469 -1.2996
  929MOL0     C25298   0.366   4.242   1.645  0.8522 -0.8019  0.8456
  929MOL0     C25299   0.350   4.111   1.608 -0.6816 -0.1841 -0.3022
  929MOL0     C25300   0.371   3.991   1.699  0.3066  0.0313  0.1050
  929MOL0     C25301   0.489   3.910   1.646  0.4798  0.5548 -0.8242
  929MOL0     C25302   0.520   3.784   1.742 -0.1432  0.1773 -0.2511
  929MOL0     C25303   0.566   3.823   1.891  0.2877  0.6346 -0.4708
  929MOL0     O25304   0.528   3.718   1.982 -0.3440  0.9429  0.8768
  929MOL0     C25305   0.533   3.754   2.115  0.1658 -0.2526  0.2661
  929MOL0     C25306   0.554   3.644   2.201 -0.2616  0.0388  0.1375
  929MOL0     C25307   0.574   3.672   2.339  0.3146  0.0849  0.4039
  929MOL0     C25308   0.589   3.553   2.429 -0.2685  0.5606 -0.1604
  929MOL0     C25309   0.545   3.801   2.396 -0.5646 -0.5120 -0.4353
  929MOL0     C25310   0.524   3.819   2.542 -0.4775  0.7938 -0.1475
  929MOL0     O25311   0.403   3.861   2.579 -0.5250 -0.1687 -0.1907
  929MOL0     C25312   0.373   3.880   2.713 -0.0995  0.0232 -0.4612
  929MOL0     C25313   0.398   3.785   2.812  0.4695 -0.3590  0.9485
  929MOL0     C25314   0.348   3.806   2.945  0.1927 -0.2195  0.0127
  929MOL0     C25315   0.267   3.920   2.970  0.0590 -0.5616  0.0411
  929MOL0     O25316   0.234   3.963   3.099 -0.0751  0.3153  0.1935
  929MOL0     C25317   0.300   3.908   3.217 -0.8293  1.0350 -0.7655
  929MOL0     C25318   0.205   3.828   3.306 -0.4782 -0.6554  0.0836
  929MOL0     C25319   0.103   3.924   3.359 -0.1699 -0.1277  0.7170
  929MOL0     C25320   0.002   3.861   3.449 -0.1476  1.0843 -0.2038
  929MOL0     C25321   0.030   3.914   3.593  0.5027 -0.0083 -0.4990
  929MOL0     C25322  -0.043   3.843   3.698  0.1072  1.2030 -0.1809
  929MOL0     C25323  -0.003   3.892   3.833 -0.5679  0.5130  0.0023
  929MOL0     C25324  -0.034   3.797   3.945 -0.4401  0.4414 -0.2570
  929MOL0    Cl25325  -0.203   3.754   3.982 -0.0006  0.3416  0.2877
  929MOL0     C25326   0.252   4.020   2.875  0.1592 -0.7441  0.4109
  929MOL0     C25327   0.309   4.003   2.744  0.0601  1.6298  0.8137
  929MOL0     O25328   0.617   3.793   2.614  0.6893  0.1062 -0.6280
  929MOL0     C25329   0.531   3.907   2.313  0.5671 -0.3982  0.6101
  929MOL0     C25330   0.526   3.882   2.176 -0.5728 -0.2716  0.4674
  929MOL0     N25331   0.299   4.116   1.478 -0.2443  0.3526 -0.2353
  929MOL0     N25332   0.297   4.238   1.435 -0.1798  0.4228 -0.1583
  929MOL0     C25333   1.275   4.500   1.363  0.2013 -0.1461 -0.1018
  929MOL0     C25334   1.375   4.458   1.277  0.0317  0.5975  0.3034
  929MOL0     C25335   1.724   4.324   1.052  0.1899  0.1324  0.7671
  929MOL0     C25336   1.804   4.428   0.995 -0.2866  0.9596 -0.3550
  929MOL0     C25337   1.865   4.414   0.870 -0.9067  0.2739  0.1103
  929MOL0     C25338   1.850   4.295   0.800 -0.6518  0.8599  0.4694
  929MOL0     O25339   1.901   4.269   0.675 -0.0833  0.2697  0.2647
  929MOL0     C25340   1.986   4.361   0.603  0.7521 -0.4528 -0.0942
  929MOL0     C25341   2.033   4.322   0.463 -0.0150 -0.9134  0.0676
  929MOL0     C25342   2.144   4.213   0.469  0.0079  0.1621 -0.5850
  929MOL0     C25343   2.172   4.160   0.336 -0.0491 -0.0370 -0.1727
  929MOL0     C25344   2.289   4.072   0.334 -0.6383  0.2784  0.0393
  929MOL0     C25345   2.392   4.001   0.346 -0.2180 -0.7000 -0.0385
  929MOL0     C25346   1.774   4.189   0.856  0.2179 -0.4966 -0.2747
  929MOL0     C25347   1.717   4.206   0.980  0.5679 -1.4176  0.0589
  929MOL0     H25348   1.635   4.549   1.474 -0.4775 -1.1145  2.7943
  929MOL0     H25349   1.451   4.611   1.630  1.9716  0.3081 -0.3703
  929MOL0     H25350   1.034   4.754   1.540 -0.7358  0.0158 -1.9529
  929MOL0     H25351   1.064   4.681   1.385  1.6366 -1.5870 -1.2421
  929MOL0     H25352   0.966   4.480   1.428 -0.4405 -0.7537 -0.5467
  929MOL0     H25353   0.995   4.496   1.606  0.1239  0.8106  0.3964
  929MOL0     H25354   0.759   4.517   1.574  3.4410 -0.8026  3.0353
  929MOL0     H25355   0.811   4.669   1.609 -0.9514 -0.1080  0.9548
  929MOL0     H25356   0.816   4.688   1.336 -1.0896  0.8281 -0.5949
  929MOL0     H25357   0.724   4.544   1.341  1.1137  0.6663 -0.8860
  929MOL0     H25358   0.656   4.794   1.491  0.5277 -0.6715  0.3195
  929MOL0     H25359   0.576   4.746   1.336 -2.7083 -1.7709  1.0890
  929MOL0     H25360   0.545   4.637   1.603  0.6654  1.1180 -0.0614
  929MOL0     H25361   0.421   4.712   1.491 -0.7581 -0.3893 -1.5958
  929MOL0     H25362   0.454   4.507   1.348  3.3445  1.0448  0.6507
  929MOL0     H25363   0.544   4.436   1.486  0.4113  1.5577  0.9379
  929MOL0     H25364   0.242   4.490   1.468 -0.1671 -1.9023 -2.1762
  929MOL0     H25365   0.325   4.516   1.623  2.5473  2.2382  0.1913
  929MOL0     H25366   0.392   4.270   1.747 -2.1528 -2.9814  2.3739
  929MOL0     H25367   0.404   4.023   1.799 -4.4129  0.9041  1.6068
  929MOL0     H25368   0.278   3.939   1.722  0.4006  1.3907  4.6119
  929MOL0     H25369   0.582   3.968   1.646  1.6664 -1.2193 -2.4328
  929MOL0     H25370   0.465   3.870   1.547 -3.6403 -2.9443  1.2439
  929MOL0     H25371   0.594   3.718   1.695  0.4626 -0.6752  1.8082
  929MOL0     H25372   0.427   3.730   1.762  0.6292 -0.6177  1.4415
  929MOL0     H25373   0.527   3.918   1.927 -0.4209 -0.4036  1.6899
  929MOL0     H25374   0.675   3.830   1.894  0.2017  2.2405  2.5172
  929MOL0     H25375   0.554   3.544   2.161  1.0734  0.6179 -1.4286
  929MOL0     H25376   0.585   3.456   2.380  0.7184  0.3739  0.1117
  929MOL0     H25377   0.691   3.560   2.468 -0.6774  0.3989  0.9895
  929MOL0     H25378   0.517   3.554   2.512 -2.7793 -0.4322 -2.1665
  929MOL0     H25379   0.446   3.690   2.786 -1.1543 -0.7788 -0.7263
  929MOL0     H25380   0.354   3.731   3.023 -0.5851  3.8649  4.4347
  929MOL0     H25381   0.380   3.843   3.184 -0.1407  1.5692 -0.1790
  929MOL0     H25382   0.343   3.992   3.272  1.9661 -0.3974 -0.6308
  929MOL0     H25383   0.159   3.739   3.261  0.4512 -2.0469  1.7600
  929MOL0     H25384   0.273   3.794   3.385  0.3099 -0.1583 -0.3701
  929MOL0     H25385   0.054   3.959   3.268  1.0149  2.5385  0.9945
  929MOL0     H25386   0.151   4.015   3.398 -0.8279  1.1749 -1.3293
  929MOL0     H25387  -0.097   3.880   3.407 -1.7005  1.5982  3.2861
  929MOL0     H25388   0.022   3.754   3.446  4.2715  1.7408 -1.5904
  929MOL0     H25389  -0.016   4.014   3.599  0.4186 -0.1581  2.1157
  929MOL0     H25390   0.137   3.918   3.616  1.5499 -1.8028 -4.2812
  929MOL0     H25391  -0.151   3.856   3.709 -0.4845 -1.7546 -1.5664
  929MOL0     H25392  -0.032   3.734   3.694 -0.6726  1.0889  0.5201
  929MOL0     H25393  -0.049   3.990   3.850 -2.0463 -0.4043  1.5856
  929MOL0     H25394   0.105   3.908   3.841 -0.9129  3.2003  0.2444
  929MOL0     H25395   0.005   3.847   4.034 -0.8618 -0.4670  0.4530
  929MOL0     H25396   0.013   3.702   3.920  0.4706  1.1251 -1.2298
  929MOL0     H25397   0.211   4.112   2.914 -1.9251 -1.2391 -0.4762
  929MOL0     H25398   0.294   4.083   2.673 -3.3864 -2.3981 -3.6688
  929MOL0     H25399   0.501   4.009   2.338 -1.9901 -1.2455  1.3412
  929MOL0     H25400   0.516   3.972   2.116 -1.9572 -0.1505  0.8286
  929MOL0     H25401   1.173   4.476   1.335  1.4146 -1.1379 -4.3182
  929MOL0     H25402   1.346   4.391   1.197 -0.7915 -0.5411  1.5066
  929MOL0     H25403   1.809   4.508   1.067 -2.9331 -0.4407  1.5844
  929MOL0     H25404   1.935   4.492   0.840 -0.4777  0.5010  1.6183
  929MOL0     H25405   1.940   4.460   0.595 -0.6164 -1.1757 -1.4179
  929MOL0     H25406   2.069   4.376   0.674 -0.8833 -0.3451  1.9045
  929MOL0     H25407   2.095   4.408   0.436  2.5589 -3.0518 -1.3921
  929MOL0     H25408   1.946   4.293   0.405  0.7292 -1.8227 -0.6338
  929MOL0     H25409   2.119   4.131   0.537 -0.0944 -1.0856 -2.0555
  929MOL0     H25410   2.238   4.251   0.509 -0.1366 -1.1999  1.1498
  929MOL0     H25411   2.194   4.244   0.270  3.6528 -0.1831  0.6381
  929MOL0     H25412   2.081   4.108   0.306 -1.9927  1.4260  2.6864
  929MOL0     H25413   2.481   3.943   0.361 -1.9229 -3.4492  0.1934
  929MOL0     H25414   1.759   4.096   0.802 -0.0144 -0.5191 -0.1763
  929MOL0     H25415   1.658   4.120   1.012  0.9848 -1.9332 -0.5459
  930MOL0     O25416   9.249   4.121   7.517  0.7868  0.1878 -0.0787
  930MOL0     C25417   9.184   4.192   7.444 -0.4773  0.1070  0.0616
  930MOL0     O25418   9.239   4.310   7.391 -0.4245  0.7209  0.3143
  930MOL0     C25419   9.373   4.329   7.426 -0.5073  0.0584 -0.5280
  930MOL0     C25420   9.405   4.435   7.523  0.6189  0.1448 -0.3947
  930MOL0     C25421   9.531   4.471   7.546  0.2475 -0.8324  0.6911
  930MOL0     C25422   9.640   4.410   7.479  0.2045  0.7820  1.1592
  930MOL0     O25423   9.768   4.457   7.489 -0.3069  0.2088  0.7876
  930MOL0     C25424   9.860   4.352   7.530  0.3628  1.3674  0.1224
  930MOL0     C25425   9.997   4.397   7.556  0.7184 -0.8426  0.1503
  930MOL0     C25426  10.082   4.281   7.607  0.0759  0.0318 -0.1233
  930MOL0     C25427  10.234   4.315   7.620  0.5953 -0.3982  0.4272
  930MOL0     C25428  10.266   4.422   7.725  0.5822  0.2011  1.1015
  930MOL0     C25429  10.240   4.372   7.870 -0.1434  0.1147  0.3438
  930MOL0     C25430  10.300   4.239   7.914  0.6357  0.5226 -0.4300
  930MOL0     C25431  10.449   4.237   7.896 -0.1722  0.6626 -0.2358
  930MOL0     N25432  10.529   4.132   7.957 -0.4780 -0.1201 -0.1446
  930MOL0     C25433  10.544   4.001   7.912 -0.1877 -0.3261 -0.6211
  930MOL0     C25434  10.623   3.951   8.010  0.1618  0.9911  0.4413
  930MOL0     C25435  10.659   3.807   8.048  0.6917 -0.7478 -0.4140
  930MOL0     C25436  10.759   3.759   7.951 -0.1858 -0.4576  0.0715
  930MOL0     C25437  10.818   3.628   8.004 -0.3563  0.1510 -0.0351
  930MOL0     C25438  10.844   3.542   7.890 -0.3652  0.6431  0.3693
  930MOL0     O25439  10.935   3.608   7.799  0.0077 -0.2864  0.1769
  930MOL0     C25440  10.972   3.519   7.696 -0.2503 -0.3401  0.4613
  930MOL0     C25441  10.903   3.527   7.582  0.4085  0.5771  0.2843
  930MOL0     C25442  10.938   3.459   7.463 -0.3246  0.1628 -0.2332
  930MOL0     C25443  10.847   3.489   7.343  0.6839 -0.6430  0.6018
  930MOL0     C25444  11.053   3.367   7.468 -0.2088 -0.7139 -0.1194
  930MOL0     C25445  11.093   3.273   7.355  0.0799 -1.0467 -0.4245
  930MOL0     O25446  11.171   3.164   7.370  0.0569  1.4095  1.0673
  930MOL0     C25447  11.230   3.085   7.261 -0.0787 -0.3793 -1.0174
  930MOL0     C25448  11.344   3.015   7.306  0.3482 -0.1245  0.0781
  930MOL0     C25449  11.422   2.937   7.218 -0.2005  0.7688 -0.0147
  930MOL0     C25450  11.384   2.922   7.087  0.4327 -0.3078 -0.3888
  930MOL0     O25451  11.459   2.831   7.007 -0.4984 -0.2430 -0.4438
  930MOL0     C25452  11.376   2.744   6.919  0.0999 -0.2353 -1.2111
  930MOL0     C25453  11.451   2.711   6.797  0.6244  0.3210  0.4878
  930MOL0     C25454  11.545   2.582   6.820  0.1518  0.0955  0.6879
  930MOL0     C25455  11.648   2.603   6.913  0.1812 -1.1152  0.2401
  930MOL0     C25456  11.760   2.520   6.902 -0.2512 -0.1562 -0.4968
  930MOL0     C25457  11.852   2.507   7.022 -0.0578 -0.2224  0.4146
  930MOL0     C25458  11.942   2.629   7.059  0.2289  0.3128  0.0382
  930MOL0     C25459  12.025   2.662   6.927 -0.0894  0.7800 -0.3568
  930MOL0    Cl25460  12.145   2.520   6.909  0.2118  0.2281  0.0495
  930MOL0     C25461  11.264   2.988   7.049 -0.0966 -0.7843 -0.1046
  930MOL0     C25462  11.192   3.072   7.130 -0.5040  0.6740  0.5956
  930MOL0     O25463  11.042   3.301   7.246  0.2973 -0.3273 -0.0688
  930MOL0     C25464  11.116   3.357   7.595  0.3925 -0.3704  1.1092
  930MOL0     C25465  11.076   3.427   7.711  0.9579 -0.5148  0.7019
  930MOL0     N25466  10.666   4.044   8.092 -0.5465  0.1780 -0.9465
  930MOL0     N25467  10.608   4.152   8.069 -0.8385  0.7297  0.4095
  930MOL0     C25468   9.613   4.308   7.382  0.2438  0.8655 -0.4217
  930MOL0     C25469   9.483   4.267   7.352 -0.4288  0.0564 -0.3281
  930MOL0     C25470   9.039   4.150   7.434  0.3294 -0.6655  0.0401
  930MOL0     C25471   8.998   4.020   7.418  0.3397  0.0094  0.1984
  930MOL0     C25472   8.861   3.988   7.420 -0.1203 -0.7190 -0.1847
  930MOL0     C25473   8.765   4.088   7.426 -1.3872 -0.0431 -0.4483
  930MOL0     O25474   8.637   4.048   7.449  0.5597  0.3056 -0.0355
  930MOL0     C25475   8.599   4.026   7.584 -0.6807  0.4044  0.4696
  930MOL0     C25476   8.455   3.972   7.601  0.1397  0.0966  0.8741
  930MOL0     C25477   8.445   3.832   7.536  0.0660  0.1651 -0.0725
  930MOL0     C25478   8.300   3.780   7.566 -0.8737  0.6707 -0.2849
  930MOL0     C25479   8.222   3.830   7.457  0.0084  0.2921 -0.2330
  930MOL0     C25480   8.167   3.836   7.347 -1.1924 -0.2842  0.7715
  930MOL0     C25481   8.807   4.214   7.456  1.2826 -0.3687 -0.4373
  930MOL0     C25482   8.942   4.246   7.452 -0.4191  0.0574 -0.7245
  930MOL0     H25483   9.322   4.490   7.566  0.4253  1.9882 -2.8808
  930MOL0     H25484   9.547   4.550   7.619 -0.6896 -1.2419  1.3632
  930MOL0     H25485   9.812   4.302   7.615 -2.6149  1.1467 -1.5583
  930MOL0     H25486   9.874   4.274   7.455  2.5773  0.9290  0.9177
  930MOL0     H25487  10.038   4.423   7.458  2.1817 -0.2045  0.9029
  930MOL0     H25488   9.992   4.481   7.626 -0.1712 -1.1123  0.4266
  930MOL0     H25489  10.036   4.244   7.699  0.7699  0.3163  0.3514
  930MOL0     H25490  10.074   4.198   7.536  1.6999  1.4566 -2.0823
  930MOL0     H25491  10.287   4.224   7.652 -0.8952 -1.5051 -0.1460
  930MOL0     H25492  10.276   4.339   7.522  2.2246 -1.0038  0.9336
  930MOL0     H25493  10.369   4.453   7.705  0.8557 -1.9957 -1.4802
  930MOL0     H25494  10.191   4.498   7.705 -1.7206 -2.2846 -0.4275
  930MOL0     H25495  10.253   4.449   7.946  2.0299  1.8333 -1.6021
  930MOL0     H25496  10.134   4.350   7.884  0.2422 -0.1141  3.5567
  930MOL0     H25497  10.281   4.225   8.021  0.3369  0.4897 -0.4867
  930MOL0     H25498  10.258   4.160   7.850 -1.0495  1.5298 -0.6109
  930MOL0     H25499  10.483   4.331   7.941 -1.1672  2.1226 -2.3774
  930MOL0     H25500  10.477   4.239   7.790  4.4503 -3.6459  0.5006
  930MOL0     H25501  10.498   3.944   7.832 -0.4697 -1.0839  0.0644
  930MOL0     H25502  10.712   3.804   8.144 -1.8953  1.6811  1.2655
  930MOL0     H25503  10.571   3.743   8.042 -1.2315  1.7782 -1.1891
  930MOL0     H25504  10.838   3.825   7.914  0.6131 -1.3237  0.1718
  930MOL0     H25505  10.705   3.740   7.858  1.1703 -2.2805 -0.4056
  930MOL0     H25506  10.740   3.575   8.060 -0.8926  1.8536  0.9061
  930MOL0     H25507  10.918   3.629   8.050  1.5047 -3.5798 -3.4340
  930MOL0     H25508  10.750   3.521   7.837  1.2529  1.4054 -3.1407
  930MOL0     H25509  10.884   3.443   7.917  2.1396  0.5998 -2.8655
  930MOL0     H25510  10.817   3.592   7.580 -1.2931 -1.5349 -2.0670
  930MOL0     H25511  10.787   3.400   7.323  1.6418 -1.1374 -0.1829
  930MOL0     H25512  10.781   3.574   7.363 -0.2832 -0.7918 -1.7098
  930MOL0     H25513  10.914   3.518   7.262  1.3143 -0.1900  1.2707
  930MOL0     H25514  11.355   3.012   7.414  1.0197  0.0437  0.0179
  930MOL0     H25515  11.499   2.869   7.251 -0.7328 -0.5684 -1.4343
  930MOL0     H25516  11.337   2.657   6.971  1.0885 -0.1625 -0.3260
  930MOL0     H25517  11.282   2.792   6.887 -0.5852  0.3981  1.4770
  930MOL0     H25518  11.382   2.682   6.718  1.6067  0.0142 -0.2900
  930MOL0     H25519  11.505   2.793   6.749 -1.1301 -0.8660 -3.9529
  930MOL0     H25520  11.582   2.554   6.722 -1.1095  0.9041 -0.0454
  930MOL0     H25521  11.475   2.506   6.857 -1.3928  0.4223 -1.3644
  930MOL0     H25522  11.679   2.708   6.905 -2.3462  0.0388  3.4524
  930MOL0     H25523  11.608   2.608   7.014  0.3497 -2.6272  0.4121
  930MOL0     H25524  11.824   2.535   6.815 -0.3846 -2.2851 -1.0134
  930MOL0     H25525  11.726   2.417   6.890  0.5309 -0.5909  0.7795
  930MOL0     H25526  11.797   2.472   7.110  0.5317 -1.3092  0.3733
  930MOL0     H25527  11.912   2.419   6.995  0.2703  0.0229  0.3481
  930MOL0     H25528  12.003   2.601   7.146 -2.7382 -6.0084  0.6530
  930MOL0     H25529  11.885   2.720   7.078 -1.2715 -0.5787 -0.0264
  930MOL0     H25530  12.100   2.740   6.946  2.8041 -2.3359  2.4055
  930MOL0     H25531  11.958   2.680   6.843 -1.8546 -0.6297  0.6818
  930MOL0     H25532  11.238   2.973   6.945  2.3855  1.9076 -1.2496
  930MOL0     H25533  11.104   3.127   7.097 -2.6347 -1.0378  3.0218
  930MOL0     H25534  11.205   3.300   7.620  0.1107 -1.6104 -0.5656
  930MOL0     H25535  11.128   3.436   7.806 -2.3796 -4.2020  3.1696
  930MOL0     H25536   9.696   4.256   7.335  0.1189 -0.4729  0.7915
  930MOL0     H25537   9.460   4.187   7.282 -0.3809 -1.3905  1.2494
  930MOL0     H25538   9.073   3.945   7.398  0.3142  0.6265 -2.5431
  930MOL0     H25539   8.823   3.891   7.389  1.3199 -0.8850 -1.5990
  930MOL0     H25540   8.677   3.961   7.626 -0.1544  0.8866  0.2475
  930MOL0     H25541   8.606   4.113   7.650 -0.3123  1.4284 -0.8886
  930MOL0     H25542   8.380   4.038   7.557 -1.5736 -3.8792 -2.9521
  930MOL0     H25543   8.437   3.968   7.709 -1.7168 -0.7305  0.5806
  930MOL0     H25544   8.519   3.770   7.586  0.1028 -0.5475 -0.9946
  930MOL0     H25545   8.467   3.839   7.430  2.0162  1.8973  0.3737
  930MOL0     H25546   8.268   3.819   7.664 -0.0610  2.0612 -0.5409
  930MOL0     H25547   8.300   3.671   7.570  0.9768  0.6870  1.5079
  930MOL0     H25548   8.109   3.834   7.256 -0.2057 -1.6081  0.1324
  930MOL0     H25549   8.742   4.300   7.460  0.8798 -0.6400 -1.0772
  930MOL0     H25550   8.985   4.343   7.476 -0.2108 -0.8206  2.9922
  931MOL0     O25551   9.283   3.029   3.931 -0.7449 -0.1583 -0.1115
  931MOL0     C25552   9.340   2.926   3.911  0.4339 -0.0475 -0.3764
  931MOL0     O25553   9.373   2.836   4.013  0.0080 -0.6560  0.0888
  931MOL0     C25554   9.361   2.869   4.136 -1.2538 -0.4021  0.2517
  931MOL0     C25555   9.437   2.968   4.193 -1.0781 -0.1141 -0.1688
  931MOL0     C25556   9.409   3.008   4.322 -0.3402 -0.6394  0.7167
  931MOL0     C25557   9.310   2.950   4.400 -0.8727 -0.4890  0.6500
  931MOL0     O25558   9.271   2.985   4.526 -0.6020  0.3707 -0.4899
  931MOL0     C25559   9.288   3.120   4.569  0.3306 -0.6872  0.1680
  931MOL0     C25560   9.153   3.190   4.597 -0.5293  1.2363 -0.1004
  931MOL0     C25561   9.064   3.193   4.475  0.1800 -0.4456  0.1161
  931MOL0     C25562   9.115   3.294   4.372  0.5690  0.1415  0.4660
  931MOL0     C25563   9.059   3.251   4.228  0.1117 -1.2355 -0.1381
  931MOL0     C25564   8.904   3.277   4.215 -0.1856 -0.7219  0.8834
  931MOL0     C25565   8.857   3.292   4.069 -0.5438 -0.0493  0.5827
  931MOL0     C25566   8.826   3.153   4.010 -0.5002 -0.2034  0.5036
  931MOL0     N25567   8.838   3.139   3.863 -0.3776 -0.3295  0.7622
  931MOL0     C25568   8.951   3.136   3.788 -0.5060 -0.1120  0.6459
  931MOL0     C25569   8.899   3.125   3.659 -1.2232 -0.2760  0.2482
  931MOL0     C25570   8.990   3.122   3.538  0.2182 -0.4039 -0.2062
  931MOL0     C25571   8.923   3.031   3.436 -0.1361 -0.9757 -0.3135
  931MOL0     C25572   9.016   2.968   3.337  0.1206  0.1016 -0.5213
  931MOL0     C25573   9.052   3.060   3.211 -0.7949  0.5535 -0.2685
  931MOL0     O25574   9.166   3.005   3.148  0.3981  0.5472 -0.0491
  931MOL0     C25575   9.230   3.069   3.039  0.2449 -0.1767  0.4182
  931MOL0     C25576   9.331   2.994   2.978 -0.0530  1.0783  0.0266
  931MOL0     C25577   9.408   3.063   2.877  0.4470  0.1813  0.2511
  931MOL0     C25578   9.541   3.001   2.829 -0.9393 -0.3140 -0.8780
  931MOL0     C25579   9.370   3.191   2.834 -0.4389 -0.1918  1.3562
  931MOL0     C25580   9.434   3.268   2.719 -0.5877 -0.3406  0.4812
  931MOL0     O25581   9.339   3.310   2.626  0.5050 -0.5057 -0.6058
  931MOL0     C25582   9.383   3.366   2.508 -0.0738  0.8354 -0.4741
  931MOL0     C25583   9.296   3.355   2.403  0.9532  0.2885  0.7585
  931MOL0     C25584   9.312   3.408   2.278  0.7532 -0.3644  1.5822
  931MOL0     C25585   9.431   3.466   2.247  0.6838  0.8207  0.2118
  931MOL0     O25586   9.454   3.509   2.117 -0.0629 -0.2432  0.6937
  931MOL0     C25587   9.580   3.527   2.064 -0.9942  0.7304 -0.0507
  931MOL0     C25588   9.562   3.557   1.915  0.3672 -0.3841 -0.5032
  931MOL0     C25589   9.658   3.486   1.833 -0.1876  0.5583  0.2293
  931MOL0     C25590   9.646   3.509   1.690  0.1615  1.0950  0.5319
  931MOL0     C25591   9.752   3.433   1.600 -0.7629  0.1810  0.2729
  931MOL0     C25592   9.710   3.412   1.458  0.1289 -0.0711  0.4399
  931MOL0     C25593   9.674   3.550   1.389  0.4831 -0.3967 -0.9953
  931MOL0     C25594   9.659   3.533   1.240  0.5416  0.0147  0.4262
  931MOL0    Cl25595   9.829   3.518   1.162  0.7168  0.0676 -0.4548
  931MOL0     C25596   9.511   3.501   2.358  0.2311 -0.1744 -0.6853
  931MOL0     C25597   9.487   3.458   2.487 -0.1963 -0.1157 -0.9660
  931MOL0     O25598   9.559   3.279   2.717 -0.2044 -0.3939  0.0418
  931MOL0     C25599   9.260   3.252   2.899 -0.1248  0.7156 -0.0083
  931MOL0     C25600   9.201   3.197   3.005 -0.1001  1.3111 -0.0037
  931MOL0     N25601   8.763   3.120   3.661  0.0948 -0.1669  0.1188
  931MOL0     N25602   8.726   3.123   3.779  0.1381  0.8357 -0.0461
  931MOL0     C25603   9.251   2.835   4.351  0.2685  0.6582 -0.9478
  931MOL0     C25604   9.277   2.803   4.216  0.4153  0.1428  0.5192
  931MOL0     C25605   9.376   2.899   3.775 -0.2425  0.2913  0.0874
  931MOL0     C25606   9.416   2.772   3.736  0.2074 -0.4067 -0.8269
  931MOL0     C25607   9.459   2.742   3.599  0.5056 -0.3235  0.2214
  931MOL0     C25608   9.453   2.835   3.493  1.1531 -0.5170  0.6604
  931MOL0     O25609   9.513   2.834   3.370 -0.5583  0.1959  0.6244
  931MOL0     C25610   9.596   2.720   3.338 -1.2104  0.2828 -0.0879
  931MOL0     C25611   9.745   2.743   3.351 -0.0638 -1.8224 -0.7771
  931MOL0     C25612   9.806   2.876   3.290  1.4884 -0.1709  0.3496
  931MOL0     C25613   9.822   2.862   3.143  0.0552 -0.1307  0.5340
  931MOL0     C25614   9.854   2.990   3.078 -0.1653 -0.4842  0.5122
  931MOL0     C25615   9.868   3.092   3.015  0.1697 -0.3193  0.2641
  931MOL0     C25616   9.419   2.960   3.532  0.0258  0.4076  1.1544
  931MOL0     C25617   9.374   2.992   3.662  0.2606 -0.6162 -0.8338
  931MOL0     H25618   9.515   3.024   4.143 -1.0141 -0.0653 -0.0139
  931MOL0     H25619   9.467   3.088   4.367 -0.2870 -1.0093  1.3135
  931MOL0     H25620   9.349   3.114   4.660 -0.2705 -0.4566  0.5963
  931MOL0     H25621   9.335   3.184   4.494 -2.3967  1.6931  0.3042
  931MOL0     H25622   9.108   3.130   4.677  2.2537  0.0245  0.6859
  931MOL0     H25623   9.165   3.294   4.630 -2.8996  1.8169 -0.8739
  931MOL0     H25624   9.061   3.089   4.442 -3.6249  0.1561 -2.1023
  931MOL0     H25625   8.957   3.206   4.497  0.4331  1.4984  0.4385
  931MOL0     H25626   9.087   3.397   4.394 -3.1595 -0.1546 -2.0488
  931MOL0     H25627   9.224   3.285   4.369  0.6323  1.2090 -1.3922
  931MOL0     H25628   9.108   3.298   4.142 -1.6681  1.8082  0.3671
  931MOL0     H25629   9.077   3.143   4.218 -1.5511 -1.5130 -0.4891
  931MOL0     H25630   8.838   3.202   4.259 -1.8348 -0.2662 -0.7009
  931MOL0     H25631   8.877   3.369   4.268 -1.7219 -0.1953 -0.7340
  931MOL0     H25632   8.769   3.357   4.075 -1.1662 -0.9620  2.2014
  931MOL0     H25633   8.935   3.346   4.015 -2.5694  0.6896 -1.7880
  931MOL0     H25634   8.732   3.119   4.054 -0.8658 -1.1292 -0.9086
  931MOL0     H25635   8.888   3.076   4.057  0.6871  1.1171  1.1767
  931MOL0     H25636   9.055   3.154   3.815 -1.1714  1.0001  2.6434
  931MOL0     H25637   9.007   3.221   3.496 -1.2585  0.5512  1.3408
  931MOL0     H25638   9.083   3.068   3.559  0.8834  0.0126 -1.9427
  931MOL0     H25639   8.862   3.090   3.367 -0.6582 -0.9212  0.1887
  931MOL0     H25640   8.860   2.961   3.492  1.4786 -0.6125  2.1380
  931MOL0     H25641   8.990   2.865   3.311 -0.3007 -0.6209  2.4068
  931MOL0     H25642   9.112   2.966   3.388  0.7875  0.3501 -1.7307
  931MOL0     H25643   9.089   3.155   3.250  2.0423  1.4884 -4.5024
  931MOL0     H25644   8.968   3.064   3.141 -0.5012 -2.3401 -0.9221
  931MOL0     H25645   9.347   2.893   3.015 -1.0447  0.2537 -1.6783
  931MOL0     H25646   9.563   3.023   2.723 -1.9904 -1.5661 -1.3733
  931MOL0     H25647   9.622   3.045   2.889  0.7895 -0.6214 -2.8431
  931MOL0     H25648   9.541   2.893   2.845  0.6574 -0.5614 -2.1796
  931MOL0     H25649   9.211   3.288   2.406  0.1991  1.1471 -0.8265
  931MOL0     H25650   9.244   3.364   2.206  2.9391 -1.7384  0.2222
  931MOL0     H25651   9.634   3.599   2.126 -0.2924  0.7352 -0.6540
  931MOL0     H25652   9.635   3.433   2.068 -2.6357 -0.2447  0.8165
  931MOL0     H25653   9.460   3.535   1.883 -0.3833 -1.4137  2.2807
  931MOL0     H25654   9.579   3.664   1.900  1.8099 -0.2306  1.7303
  931MOL0     H25655   9.633   3.380   1.847 -0.2455  0.4034 -0.9677
  931MOL0     H25656   9.761   3.504   1.863  0.7333  0.9048 -2.8301
  931MOL0     H25657   9.545   3.484   1.654 -0.2056 -1.1692  2.8808
  931MOL0     H25658   9.658   3.617   1.674  1.8541  0.7965 -0.4929
  931MOL0     H25659   9.780   3.335   1.640  1.7813  0.6394 -0.1936
  931MOL0     H25660   9.838   3.499   1.611 -0.6322  0.0003  0.3451
  931MOL0     H25661   9.792   3.365   1.402 -0.9271 -0.6556 -0.6547
  931MOL0     H25662   9.628   3.341   1.450 -0.2498 -0.1299  3.6052
  931MOL0     H25663   9.750   3.624   1.418  0.8106  0.4608 -3.7650
  931MOL0     H25664   9.574   3.582   1.420  1.0793 -1.9829  3.2327
  931MOL0     H25665   9.610   3.623   1.199 -0.0825 -1.8570 -3.3862
  931MOL0     H25666   9.601   3.448   1.204 -0.4855  0.7401  0.3018
  931MOL0     H25667   9.607   3.551   2.348  0.7859 -1.1893 -0.6426
  931MOL0     H25668   9.555   3.479   2.569  1.5864 -1.1016 -2.1335
  931MOL0     H25669   9.220   3.345   2.861  0.2223  0.7514 -0.2839
  931MOL0     H25670   9.108   3.239   3.042 -1.8116 -1.2037 -1.1535
  931MOL0     H25671   9.196   2.765   4.413 -1.1800  1.3490 -1.4004
  931MOL0     H25672   9.220   2.722   4.171  0.0414  0.5021  0.3319
  931MOL0     H25673   9.417   2.692   3.810 -0.3365  1.4738  1.3371
  931MOL0     H25674   9.477   2.635   3.587 -1.3687 -0.5452 -1.1905
  931MOL0     H25675   9.578   2.626   3.391  0.3618 -2.0847 -3.3689
  931MOL0     H25676   9.579   2.685   3.236 -3.9386  1.5997 -0.1617
  931MOL0     H25677   9.802   2.659   3.309  2.3038 -0.1934 -0.9999
  931MOL0     H25678   9.761   2.745   3.459 -1.6902 -1.4255 -0.5163
  931MOL0     H25679   9.897   2.911   3.341  2.4406  0.5736 -1.7660
  931MOL0     H25680   9.744   2.964   3.309  1.4237 -0.0530 -0.4039
  931MOL0     H25681   9.728   2.832   3.094  0.7674 -1.3602 -0.1330
  931MOL0     H25682   9.893   2.785   3.112 -1.2674 -0.6349 -1.5092
  931MOL0     H25683   9.870   3.196   2.987  1.0658 -0.2412  0.5848
  931MOL0     H25684   9.453   3.039   3.465  3.2120 -0.4456  1.5665
  931MOL0     H25685   9.353   3.095   3.691  0.4032 -1.4342  2.6960
  932MOL0     O25686  10.297   2.541   6.204 -0.3240  0.1023  0.2548
  932MOL0     C25687  10.189   2.490   6.183 -0.1672 -0.3004  1.0595
  932MOL0     O25688  10.160   2.380   6.098  0.2994  0.1032 -0.3708
  932MOL0     C25689  10.260   2.305   6.038  0.1670  0.0749  0.3303
  932MOL0     C25690  10.341   2.371   5.952  0.3121  0.5488  0.2260
  932MOL0     C25691  10.431   2.300   5.876 -0.3999  0.0982  0.8704
  932MOL0     C25692  10.429   2.152   5.892  0.4101 -0.2881  0.2813
  932MOL0     O25693  10.494   2.080   5.797  0.0728  0.3626  0.1027
  932MOL0     C25694  10.504   1.938   5.807 -0.6495 -0.2121 -0.4712
  932MOL0     C25695  10.616   1.892   5.711 -0.0622 -0.0505 -0.0662
  932MOL0     C25696  10.744   1.978   5.750  0.2842  0.1028 -0.1094
  932MOL0     C25697  10.873   1.881   5.753 -0.7187  0.4393  0.0026
  932MOL0     C25698  11.000   1.965   5.759  0.0400 -0.2580 -0.3350
  932MOL0     C25699  11.060   2.004   5.901  0.5379 -0.6698  0.7066
  932MOL0     C25700  11.184   2.093   5.900  0.4819  1.1276  0.2015
  932MOL0     C25701  11.170   2.240   5.861 -0.4573  0.9495  0.2595
  932MOL0     N25702  11.100   2.316   5.963 -0.3360 -0.7771 -0.0362
  932MOL0     C25703  10.967   2.336   5.960 -0.4399 -0.0646 -0.6304
  932MOL0     C25704  10.957   2.410   6.067 -0.5129 -0.1636 -0.0429
  932MOL0     C25705  10.830   2.458   6.132 -0.5107  0.1566 -0.1757
  932MOL0     C25706  10.798   2.600   6.102  0.2541 -0.8839 -0.3386
  932MOL0     C25707  10.750   2.687   6.213 -0.3659  0.8205 -0.3834
  932MOL0     C25708  10.623   2.626   6.283  0.0656 -0.5378 -1.5301
  932MOL0     O25709  10.592   2.724   6.388  0.1931  0.3185 -0.5283
  932MOL0     C25710  10.490   2.682   6.474  0.3863  0.0189 -0.6401
  932MOL0     C25711  10.437   2.787   6.550  0.5330 -0.1928 -0.0567
  932MOL0     C25712  10.324   2.773   6.643 -0.0523 -0.1733  0.4322
  932MOL0     C25713  10.280   2.896   6.724  0.1145 -0.0664  1.0971
  932MOL0     C25714  10.273   2.638   6.654 -0.1422  0.6096  0.0234
  932MOL0     C25715  10.165   2.612   6.754  0.2189 -0.6839 -0.4233
  932MOL0     O25716  10.158   2.477   6.799  0.1301 -0.3502  0.2523
  932MOL0     C25717  10.040   2.449   6.864  0.1643 -0.6730  0.1834
  932MOL0     C25718  10.042   2.465   7.006  0.0242  0.6987  0.6760
  932MOL0     C25719   9.921   2.460   7.074 -0.5516 -0.2158  0.0813
  932MOL0     C25720   9.804   2.436   7.005 -0.2910  0.1774  0.1658
  932MOL0     O25721   9.683   2.438   7.065  0.1978 -0.1908  0.0132
  932MOL0     C25722   9.667   2.551   7.154  0.3430  0.1922 -0.5063
  932MOL0     C25723   9.519   2.567   7.190 -0.8909  0.9643 -0.6093
  932MOL0     C25724   9.437   2.610   7.067  0.4867  0.1270  0.7342
  932MOL0     C25725   9.350   2.494   7.011  0.3546 -0.2160 -0.0406
  932MOL0     C25726   9.228   2.471   7.100 -0.6172 -0.5875  0.6011
  932MOL0     C25727   9.138   2.358   7.051  0.8252 -0.3485 -0.0445
  932MOL0     C25728   8.987   2.386   7.109  0.1454  0.2615 -0.2708
  932MOL0     C25729   8.894   2.275   7.056 -0.1889  0.9426 -0.5420
  932MOL0    Cl25730   8.890   2.258   6.876  0.1292  0.0015  0.3170
  932MOL0     C25731   9.808   2.427   6.862 -0.4302 -0.3986 -0.3123
  932MOL0     C25732   9.926   2.434   6.791 -0.0198  0.2063  0.0746
  932MOL0     O25733  10.091   2.704   6.776  0.4400  0.9571 -0.4947
  932MOL0     C25734  10.325   2.533   6.576  0.1355  0.4801  0.4330
  932MOL0     C25735  10.429   2.559   6.485  0.8305  0.4683 -0.1176
  932MOL0     N25736  11.077   2.450   6.127 -0.5840 -0.5632  0.0143
  932MOL0     N25737  11.167   2.386   6.056 -0.8956 -0.9197  1.1143
  932MOL0     C25738  10.353   2.095   5.997 -0.0529 -0.5386 -0.0792
  932MOL0     C25739  10.264   2.172   6.062  0.4598 -1.3427  0.5132
  932MOL0     C25740  10.082   2.563   6.250 -1.2156  0.3238 -0.5945
  932MOL0     C25741  10.119   2.667   6.327  0.5594 -0.5209 -0.5042
  932MOL0     C25742  10.033   2.741   6.402  0.6844 -1.3088 -0.7508
  932MOL0     C25743   9.902   2.705   6.412  1.7379  0.3896  0.5462
  932MOL0     O25744   9.813   2.765   6.490  0.0482  0.5226 -0.9360
  932MOL0     C25745   9.718   2.679   6.559 -1.1356 -0.8734 -0.3842
  932MOL0     C25746   9.658   2.780   6.672 -0.0865  0.1505 -0.7391
  932MOL0     C25747   9.758   2.787   6.793 -0.2604 -0.4755 -0.2272
  932MOL0     C25748   9.747   2.927   6.844  0.2703 -0.6267 -0.3336
  932MOL0     C25749   9.849   2.928   6.954  0.8011  0.0094 -0.6679
  932MOL0     C25750   9.911   2.907   7.052 -0.3228  0.1097 -0.6235
  932MOL0     C25751   9.851   2.596   6.329 -0.0012 -0.3546  0.0285
  932MOL0     C25752   9.949   2.528   6.248 -0.7378  0.0521  0.3648
  932MOL0     H25753  10.328   2.478   5.941  0.9260  0.6554  0.5118
  932MOL0     H25754  10.500   2.345   5.806 -0.1421 -1.4366  0.0787
  932MOL0     H25755  10.530   1.919   5.911  0.8093 -1.5906 -1.0331
  932MOL0     H25756  10.412   1.880   5.792  0.7220 -2.2735 -1.4969
  932MOL0     H25757  10.642   1.786   5.723  1.5876 -0.4178 -4.8276
  932MOL0     H25758  10.592   1.914   5.607 -0.3254 -0.3215 -0.0619
  932MOL0     H25759  10.764   2.056   5.676  4.0073  0.1073  0.6806
  932MOL0     H25760  10.741   2.019   5.851  2.8380 -1.2142  0.6010
  932MOL0     H25761  10.875   1.831   5.850  0.7652  2.2208  0.9621
  932MOL0     H25762  10.869   1.795   5.685 -0.9632 -1.8976  2.7865
  932MOL0     H25763  11.085   1.931   5.700  0.2396  1.6419 -1.2317
  932MOL0     H25764  10.976   2.057   5.704 -1.3375  0.2639  1.0424
  932MOL0     H25765  10.981   2.068   5.941 -1.5123 -2.0215 -0.9302
  932MOL0     H25766  11.072   1.917   5.967  1.6078 -1.1305 -0.0641
  932MOL0     H25767  11.226   2.083   6.001 -3.1098  0.4157  1.7817
  932MOL0     H25768  11.258   2.046   5.835  2.7405  4.2796  0.2335
  932MOL0     H25769  11.124   2.250   5.762  0.3162  1.0836 -0.0943
  932MOL0     H25770  11.269   2.280   5.837 -0.8648  0.8996 -1.6494
  932MOL0     H25771  10.899   2.293   5.888  1.7757 -2.1268 -1.6290
  932MOL0     H25772  10.742   2.399   6.103 -0.8674  1.4288 -1.9056
  932MOL0     H25773  10.836   2.447   6.240 -0.6938 -0.5152 -0.2259
  932MOL0     H25774  10.717   2.602   6.028  1.2737  1.2779 -1.4965
  932MOL0     H25775  10.880   2.658   6.058 -2.7913 -0.5289 -6.6286
  932MOL0     H25776  10.721   2.784   6.173  0.2530  0.9335 -0.5669
  932MOL0     H25777  10.835   2.710   6.277  0.0759  0.8195 -0.9622
  932MOL0     H25778  10.654   2.530   6.324  1.4898  0.6333  0.2443
  932MOL0     H25779  10.539   2.621   6.213 -0.6087 -0.1549 -0.7627
  932MOL0     H25780  10.488   2.883   6.545 -1.6465  0.9351 -2.2821
  932MOL0     H25781  10.175   2.923   6.706 -0.8009 -3.6643  0.3218
  932MOL0     H25782  10.287   2.880   6.832 -2.2020  2.8378  1.8117
  932MOL0     H25783  10.339   2.979   6.684 -0.7546 -0.7417 -1.8533
  932MOL0     H25784  10.138   2.476   7.056  0.3914  0.8813 -0.0521
  932MOL0     H25785   9.925   2.481   7.180 -1.7919  0.5829 -0.0042
  932MOL0     H25786   9.725   2.537   7.246  0.6158  0.5395 -0.6215
  932MOL0     H25787   9.715   2.640   7.113  0.8615  1.5216  2.6685
  932MOL0     H25788   9.485   2.471   7.230 -3.2337  1.7010 -0.6645
  932MOL0     H25789   9.492   2.629   7.276 -2.3417  0.1185 -0.4231
  932MOL0     H25790   9.506   2.634   6.986 -0.1865  0.4088  0.2362
  932MOL0     H25791   9.371   2.695   7.086  0.8271  0.6098 -0.2104
  932MOL0     H25792   9.318   2.512   6.908 -1.0584 -3.9763 -0.4060
  932MOL0     H25793   9.405   2.399   7.015  1.0424  0.1660 -0.3175
  932MOL0     H25794   9.172   2.564   7.109 -0.0194 -0.2188  0.5271
  932MOL0     H25795   9.273   2.448   7.196  0.4778 -0.6615  0.0843
  932MOL0     H25796   9.137   2.352   6.942 -4.4046  1.2044 -0.3422
  932MOL0     H25797   9.181   2.269   7.097  0.1604 -0.7671 -0.2159
  932MOL0     H25798   8.948   2.476   7.061  2.2111  1.1638 -0.3843
  932MOL0     H25799   8.989   2.402   7.217 -3.3390  1.7833 -0.3134
  932MOL0     H25800   8.790   2.292   7.086 -1.1510 -1.1695 -2.4255
  932MOL0     H25801   8.925   2.184   7.108 -0.9173  0.8790 -0.1951
  932MOL0     H25802   9.709   2.419   6.818 -0.0578 -0.7243 -1.1088
  932MOL0     H25803   9.929   2.446   6.683 -0.1344  0.5486  0.1068
  932MOL0     H25804  10.282   2.434   6.590  0.3198  0.5520  1.6033
  932MOL0     H25805  10.463   2.474   6.427  1.0791 -0.7021  1.6806
  932MOL0     H25806  10.353   1.989   6.021 -3.5865 -0.8931 -1.1126
  932MOL0     H25807  10.195   2.123   6.130 -0.7801 -0.1270  0.1957
  932MOL0     H25808  10.223   2.696   6.338  0.5668 -0.4159 -0.8507
  932MOL0     H25809  10.063   2.822   6.466 -2.6785  0.6926 -1.4361
  932MOL0     H25810   9.639   2.624   6.507  0.9216 -3.3537 -1.0880
  932MOL0     H25811   9.771   2.607   6.621 -0.3708 -0.3843 -0.4633
  932MOL0     H25812   9.561   2.752   6.712  0.3023  0.7487  0.6934
  932MOL0     H25813   9.655   2.880   6.627  1.8664  0.6347  0.1002
  932MOL0     H25814   9.862   2.765   6.767 -0.7620 -1.1498 -1.8276
  932MOL0     H25815   9.722   2.718   6.869  2.3840  0.1850  1.8024
  932MOL0     H25816   9.647   2.936   6.887 -0.5950 -1.5990 -2.0383
  932MOL0     H25817   9.766   3.007   6.771  0.4392  0.3757  0.7746
  932MOL0     H25818   9.959   2.889   7.146  1.2677  1.8265 -1.0421
  932MOL0     H25819   9.746   2.568   6.337 -0.2156  0.8785  2.2523
  932MOL0     H25820   9.937   2.442   6.182  1.3436 -0.0551  0.0619
  933MOL0     O25821   4.820   7.261   5.077 -0.6017 -1.2128 -0.4958
  933MOL0     C25822   4.788   7.257   4.963 -0.5597 -0.6505 -0.0951
  933MOL0     O25823   4.792   7.367   4.875 -0.4261 -0.2984 -0.0956
  933MOL0     C25824   4.815   7.494   4.913 -0.3916 -1.1683  0.8529
  933MOL0     C25825   4.721   7.584   4.873 -0.7984 -0.2376 -0.2157
  933MOL0     C25826   4.743   7.719   4.893  0.4973 -0.5970 -0.3279
  933MOL0     C25827   4.861   7.768   4.950  0.4794 -0.3904 -0.9792
  933MOL0     O25828   4.858   7.907   4.963  0.0501  0.5801 -0.4225
  933MOL0     C25829   4.982   7.965   5.024  0.6790  0.7025  1.1858
  933MOL0     C25830   4.959   8.114   5.019  0.2110 -0.2537 -0.8708
  933MOL0     C25831   5.085   8.189   5.061  0.6638  0.3856  0.2858
  933MOL0     C25832   5.075   8.336   5.034  0.2878 -0.4446  0.8864
  933MOL0     C25833   5.161   8.431   5.125 -0.9173  0.1782  0.0973
  933MOL0     C25834   5.175   8.579   5.065 -0.4572 -0.2963  0.1741
  933MOL0     C25835   5.252   8.663   5.164 -0.5842 -0.1708 -0.3068
  933MOL0     C25836   5.254   8.822   5.141 -0.5244  0.3544  0.3980
  933MOL0     N25837   5.309   8.864   5.010  0.6525  0.6263 -0.3729
  933MOL0     C25838   5.401   8.953   4.988  1.0256 -0.1682  0.2474
  933MOL0     C25839   5.395   8.982   4.859 -0.9119 -0.4100 -0.7789
  933MOL0     C25840   5.493   9.080   4.794  0.0139 -0.2467  0.5501
  933MOL0     C25841   5.516   9.066   4.648 -0.8945 -0.0756  0.0127
  933MOL0     C25842   5.581   9.195   4.586  0.0424  0.4801 -0.7768
  933MOL0     C25843   5.485   9.315   4.564 -0.2301  0.2777  0.0772
  933MOL0     O25844   5.378   9.271   4.480  0.4848 -0.6182  0.4184
  933MOL0     C25845   5.367   9.286   4.346 -0.2777  0.8091 -0.7108
  933MOL0     C25846   5.459   9.342   4.257  0.2117  0.1777  0.8973
  933MOL0     C25847   5.444   9.364   4.119  0.3420 -0.0794  0.4024
  933MOL0     C25848   5.557   9.439   4.040  0.8172  0.1530  0.3948
  933MOL0     C25849   5.320   9.315   4.065  0.4707 -0.4711 -0.0282
  933MOL0     C25850   5.280   9.336   3.928  1.0964  0.1809 -0.1632
  933MOL0     O25851   5.188   9.250   3.872  0.0243 -0.8379 -0.4354
  933MOL0     C25852   5.179   9.262   3.734 -0.5067  0.1675 -0.1866
  933MOL0     C25853   5.064   9.315   3.675  1.2454 -0.0658  0.6739
  933MOL0     C25854   5.061   9.342   3.546  0.0285 -0.2053 -0.0345
  933MOL0     C25855   5.157   9.329   3.454 -0.1233  0.0089 -0.9377
  933MOL0     O25856   5.142   9.383   3.326  0.2424  0.0944  0.2417
  933MOL0     C25857   5.248   9.338   3.230  0.0338  0.0791 -0.4647
  933MOL0     C25858   5.208   9.405   3.096 -0.0047 -0.4191  0.7164
  933MOL0     C25859   5.323   9.422   2.997 -0.1641 -0.4590  0.4042
  933MOL0     C25860   5.289   9.545   2.912  0.6061 -1.2666 -0.5071
  933MOL0     C25861   5.375   9.564   2.787  0.0241 -0.0247  0.3643
  933MOL0     C25862   5.310   9.674   2.698 -0.1161 -0.6437  0.3040
  933MOL0     C25863   5.395   9.718   2.566 -0.6795 -0.0219 -0.0758
  933MOL0     C25864   5.516   9.803   2.609  0.5457  0.6317 -0.3295
  933MOL0    Cl25865   5.633   9.798   2.480 -0.4574  0.0355  0.0853
  933MOL0     C25866   5.275   9.262   3.507  0.2166 -1.1517 -0.6738
  933MOL0     C25867   5.284   9.226   3.647  0.4053  1.1637  0.3574
  933MOL0     O25868   5.313   9.444   3.872  0.7168  0.5170  0.7699
  933MOL0     C25869   5.239   9.236   4.155 -0.2582  0.2170  1.0553
  933MOL0     C25870   5.256   9.223   4.286 -0.4648  0.2943 -0.1910
  933MOL0     N25871   5.290   8.918   4.801  0.3469  0.2341 -0.3048
  933MOL0     N25872   5.229   8.850   4.898 -0.7222  0.1127 -0.5819
  933MOL0     C25873   4.958   7.682   4.993 -0.0472 -0.5013 -0.3870
  933MOL0     C25874   4.936   7.538   4.965  0.9516 -0.7037  0.1519
  933MOL0     C25875   4.758   7.124   4.908 -0.0434  0.0754 -0.1938
  933MOL0     C25876   4.744   7.105   4.771 -0.1744  0.6014 -0.2166
  933MOL0     C25877   4.731   6.978   4.706  0.8095  0.9754  0.0053
  933MOL0     C25878   4.706   6.869   4.795  1.3641 -0.5076  0.1313
  933MOL0     O25879   4.662   6.742   4.747  0.2170 -0.1322 -0.3334
  933MOL0     C25880   4.586   6.740   4.623  0.3396  0.6392 -0.4364
  933MOL0     C25881   4.645   6.650   4.515 -0.4342  0.1517  1.0418
  933MOL0     C25882   4.667   6.506   4.559 -0.7444 -0.5347  0.1092
  933MOL0     C25883   4.751   6.434   4.449  1.3859 -0.1788  0.3931
  933MOL0     C25884   4.732   6.283   4.470 -0.7011 -0.3202  0.5690
  933MOL0     C25885   4.728   6.163   4.493 -0.1482 -0.5073  0.1188
  933MOL0     C25886   4.692   6.886   4.939 -0.1302  0.0574  0.5954
  933MOL0     C25887   4.729   7.015   4.987 -0.0024 -0.1041 -0.1342
  933MOL0     H25888   4.632   7.546   4.823 -1.5633  0.6081  0.4413
  933MOL0     H25889   4.664   7.788   4.865 -0.9012 -2.4037 -1.0540
  933MOL0     H25890   4.988   7.938   5.129 -2.2179 -0.2586  1.1870
  933MOL0     H25891   5.062   7.930   4.958  1.6761 -0.5574  2.9812
  933MOL0     H25892   4.934   8.147   4.918 -1.8801  1.8020  0.2430
  933MOL0     H25893   4.881   8.137   5.092 -0.3648 -0.4561 -1.4164
  933MOL0     H25894   5.102   8.176   5.168  1.3055  0.1793  0.1640
  933MOL0     H25895   5.175   8.152   5.011  1.4088  0.3273  1.6287
  933MOL0     H25896   5.110   8.360   4.933  1.5917  2.3242  1.8796
  933MOL0     H25897   4.971   8.370   5.040  0.5414  0.4426  0.4023
  933MOL0     H25898   5.110   8.434   5.222 -3.4864 -0.0005 -1.1725
  933MOL0     H25899   5.258   8.382   5.132 -0.7029  0.1487 -2.4020
  933MOL0     H25900   5.222   8.579   4.966 -1.6392  2.9911 -0.5101
  933MOL0     H25901   5.075   8.623   5.065 -0.5007 -0.2408 -2.7021
  933MOL0     H25902   5.208   8.652   5.264 -1.1558 -0.0538 -0.5416
  933MOL0     H25903   5.357   8.632   5.171 -0.0997  1.5604  0.5876
  933MOL0     H25904   5.307   8.876   5.220  0.2208  0.9332 -0.4816
  933MOL0     H25905   5.147   8.839   5.141 -0.8219 -1.3022  0.5043
  933MOL0     H25906   5.479   8.988   5.055 -0.0009 -0.0298  1.4000
  933MOL0     H25907   5.459   9.182   4.815 -1.5146 -0.7097  0.4691
  933MOL0     H25908   5.583   9.069   4.855 -1.0554  1.9666  2.6893
  933MOL0     H25909   5.418   9.038   4.610 -1.3816 -0.8402  1.7432
  933MOL0     H25910   5.581   8.981   4.625  2.1063  1.4237  2.0672
  933MOL0     H25911   5.624   9.167   4.490 -0.6664  3.0245 -1.9368
  933MOL0     H25912   5.651   9.234   4.660 -1.8391  0.4947  1.1065
  933MOL0     H25913   5.528   9.408   4.526 -0.2071  1.0573  1.8987
  933MOL0     H25914   5.447   9.353   4.660  0.6886  0.0580  0.5453
  933MOL0     H25915   5.551   9.386   4.294  1.0896  0.9726 -1.9529
  933MOL0     H25916   5.527   9.544   4.034 -1.4403 -0.2708  2.5991
  933MOL0     H25917   5.649   9.453   4.097  1.4516 -1.4701 -0.1560
  933MOL0     H25918   5.563   9.388   3.943  0.7453 -1.1962  1.0862
  933MOL0     H25919   4.974   9.341   3.731 -0.2003 -1.5818 -0.8073
  933MOL0     H25920   4.967   9.385   3.513  0.2911  0.7875  0.4572
  933MOL0     H25921   5.349   9.354   3.269 -0.9033 -1.4636  2.9496
  933MOL0     H25922   5.232   9.230   3.222 -1.2091  0.2442 -0.4080
  933MOL0     H25923   5.134   9.331   3.064 -0.2944  0.0686  0.2391
  933MOL0     H25924   5.162   9.503   3.117  1.6774  0.2756  1.3310
  933MOL0     H25925   5.330   9.336   2.929 -3.4012  0.5227 -1.3375
  933MOL0     H25926   5.422   9.435   3.043  0.5358 -1.9207 -0.6051
  933MOL0     H25927   5.184   9.537   2.882  0.0968  0.4530  0.6772
  933MOL0     H25928   5.301   9.630   2.979  0.7446 -3.0049  1.7958
  933MOL0     H25929   5.384   9.472   2.727  0.4009  1.2945 -1.7127
  933MOL0     H25930   5.478   9.595   2.807  0.4802 -1.5590  0.5610
  933MOL0     H25931   5.213   9.641   2.659  0.5093 -0.3164 -1.6529
  933MOL0     H25932   5.283   9.763   2.754 -0.3813  1.3400 -2.7340
  933MOL0     H25933   5.328   9.773   2.498  0.2341 -2.7682 -3.4312
  933MOL0     H25934   5.429   9.640   2.498 -0.0405 -0.3553  0.6137
  933MOL0     H25935   5.546   9.756   2.704 -1.1283  0.8799  0.3479
  933MOL0     H25936   5.495   9.908   2.630  0.9040  1.1139 -2.2286
  933MOL0     H25937   5.369   9.242   3.455  1.3961  1.3854  0.3503
  933MOL0     H25938   5.370   9.173   3.685 -2.6126 -4.1802  0.7123
  933MOL0     H25939   5.153   9.193   4.106 -0.2358  0.6584  0.6163
  933MOL0     H25940   5.167   9.190   4.339 -0.2536  0.7562  0.4503
  933MOL0     H25941   5.053   7.710   5.037 -1.4079  1.6478  1.3628
  933MOL0     H25942   5.011   7.465   4.993  1.9253 -0.1594 -0.9488
  933MOL0     H25943   4.764   7.202   4.726  1.1482  2.3241  3.6995
  933MOL0     H25944   4.745   6.970   4.599  4.5198 -0.9961  0.4707
  933MOL0     H25945   4.487   6.699   4.646  1.0976  0.2342  2.4901
  933MOL0     H25946   4.567   6.833   4.569 -0.5523  0.2511 -0.8242
  933MOL0     H25947   4.738   6.690   4.473 -0.8535 -0.8767 -1.0297
  933MOL0     H25948   4.584   6.636   4.425  4.0483  1.0744 -2.5134
  933MOL0     H25949   4.568   6.468   4.585  0.2785 -1.5614  2.8697
  933MOL0     H25950   4.730   6.518   4.648 -1.7213  4.1375  0.4412
  933MOL0     H25951   4.857   6.460   4.444  1.1555  0.6494 -0.8416
  933MOL0     H25952   4.714   6.458   4.348  1.1395  0.8895  0.7190
  933MOL0     H25953   4.724   6.057   4.511  3.5108 -0.6630  0.8816
  933MOL0     H25954   4.674   6.806   5.010 -1.1901  1.3549  1.8536
  933MOL0     H25955   4.728   7.013   5.096 -1.1576 -3.5933 -0.0641
  934MOL0     O25956   0.332   3.315  11.012 -0.0754 -0.0611 -1.1519
  934MOL0     C25957   0.346   3.396  10.926  0.8738  0.2831  0.4833
  934MOL0     O25958   0.437   3.498  10.931 -0.1739 -0.0088 -0.6376
  934MOL0     C25959   0.514   3.515  11.046 -0.0671  0.1292  0.1793
  934MOL0     C25960   0.647   3.465  11.050 -1.2398 -0.3527 -0.0268
  934MOL0     C25961   0.709   3.467  11.171  0.0753  0.1069  0.2041
  934MOL0     C25962   0.659   3.533  11.287  1.0370 -0.8587 -0.8475
  934MOL0     O25963   0.752   3.536  11.387  0.0790 -0.1273 -0.7824
  934MOL0     C25964   0.713   3.607  11.507  0.0269 -0.1258 -0.3514
  934MOL0     C25965   0.840   3.600  11.590 -0.0808 -0.1366 -0.0961
  934MOL0     C25966   0.893   3.453  11.616  0.4517 -0.3202 -0.6539
  934MOL0     C25967   1.029   3.439  11.547  0.1651 -0.1025 -0.2967
  934MOL0     C25968   1.060   3.294  11.554  0.6759  0.3947  0.2118
  934MOL0     C25969   0.975   3.208  11.448  0.3889  0.1117 -0.3866
  934MOL0     C25970   0.926   3.077  11.511  0.2433  0.3191  0.3315
  934MOL0     C25971   0.828   3.111  11.629  0.3904  0.1705  0.0554
  934MOL0     N25972   0.744   2.989  11.671 -0.3340 -0.2039 -0.3207
  934MOL0     C25973   0.769   2.905  11.782 -1.0574  0.5981  0.1638
  934MOL0     C25974   0.663   2.811  11.783  0.6002 -0.1535 -0.8995
  934MOL0     C25975   0.652   2.718  11.891  0.2774  0.1999 -0.5593
  934MOL0     C25976   0.528   2.636  11.898  0.9362  0.1175  1.6443
  934MOL0     C25977   0.528   2.522  11.802  0.2827  0.5507 -0.4338
  934MOL0     C25978   0.407   2.435  11.806 -0.0655  0.5198  0.2124
  934MOL0     O25979   0.404   2.329  11.712 -0.1128  0.4904 -0.4992
  934MOL0     C25980   0.300   2.235  11.722 -0.2914  0.0561  0.5785
  934MOL0     C25981   0.321   2.121  11.643 -0.5540  0.8130 -0.1168
  934MOL0     C25982   0.223   2.010  11.654 -0.4915  0.3326  0.1749
  934MOL0     C25983   0.252   1.879  11.577  0.5614  1.0737  0.8106
  934MOL0     C25984   0.105   2.034  11.727 -0.6100  0.5242  0.2812
  934MOL0     C25985   0.005   1.924  11.742 -0.2092  0.7335 -0.0834
  934MOL0     O25986  -0.125   1.967  11.761 -0.8014 -0.1163 -0.1785
  934MOL0     C25987  -0.244   1.888  11.747  0.0813  0.5685  0.8383
  934MOL0     C25988  -0.252   1.762  11.692 -0.3157  1.3530 -0.6624
  934MOL0     C25989  -0.371   1.692  11.690 -0.5203  0.2799 -0.7531
  934MOL0     C25990  -0.490   1.760  11.716  0.6904  0.0759 -0.8243
  934MOL0     O25991  -0.612   1.705  11.689 -0.2539  0.8123  0.5877
  934MOL0     C25992  -0.649   1.590  11.764 -0.3268 -0.5666  0.0682
  934MOL0     C25993  -0.683   1.479  11.672  0.2572  0.2175  0.8536
  934MOL0     C25994  -0.782   1.391  11.736 -0.1329 -0.0375 -0.0781
  934MOL0     C25995  -0.767   1.378  11.886 -0.7803  0.2145  0.6884
  934MOL0     C25996  -0.865   1.272  11.943 -0.3832 -0.5737  0.1819
  934MOL0     C25997  -0.845   1.262  12.099  0.1557  0.5705 -0.0275
  934MOL0     C25998  -0.972   1.197  12.155 -0.3203 -0.0687 -0.7953
  934MOL0     C25999  -0.958   1.169  12.318 -0.5124 -1.1605  0.1789
  934MOL0    Cl26000  -0.965   1.324  12.401  0.0212 -0.0242 -0.1834
  934MOL0     C26001  -0.486   1.892  11.753 -0.3293 -0.5134 -1.2154
  934MOL0     C26002  -0.359   1.957  11.781 -0.1618  0.5190 -0.1058
  934MOL0     O26003   0.054   1.817  11.781 -0.2145 -0.2606 -0.1593
  934MOL0     C26004   0.080   2.154  11.781  0.4436 -0.2213 -0.3881
  934MOL0     C26005   0.171   2.253  11.776 -0.0378  0.9388  1.0091
  934MOL0     N26006   0.581   2.846  11.688 -0.1454 -0.7315 -0.1452
  934MOL0     N26007   0.624   2.950  11.628  1.4661  0.3153  0.0279
  934MOL0     C26008   0.530   3.586  11.282 -0.7284  0.3469  0.0058
  934MOL0     C26009   0.460   3.585  11.156  0.0338 -0.3855 -0.3929
  934MOL0     C26010   0.254   3.398  10.808 -0.2976  0.6764 -0.3980
  934MOL0     C26011   0.212   3.278  10.757  0.3059 -0.1736 -0.5590
  934MOL0     C26012   0.136   3.268  10.642  0.0091  0.5460 -0.6447
  934MOL0     C26013   0.089   3.390  10.582  0.3822  0.9846 -0.0974
  934MOL0     O26014   0.009   3.371  10.467 -0.5565  0.7091  0.1124
  934MOL0     C26015  -0.028   3.479  10.389  0.4980  0.0794 -0.3574
  934MOL0     C26016  -0.055   3.446  10.244  0.6135 -0.2305  0.6982
  934MOL0     C26017  -0.202   3.389  10.227 -0.2216 -0.5728  0.3841
  934MOL0     C26018  -0.204   3.244  10.282 -0.5800 -0.3570 -0.2120
  934MOL0     C26019  -0.298   3.150  10.217  0.1196 -0.2248 -0.5550
  934MOL0     C26020  -0.377   3.087  10.159  0.7234  0.5467 -0.4166
  934MOL0     C26021   0.118   3.517  10.643 -0.9940  0.1491  0.1762
  934MOL0     C26022   0.212   3.518  10.745 -0.2725 -0.4901  0.4089
  934MOL0     H26023   0.679   3.407  10.963  0.1492 -1.2075  1.0148
  934MOL0     H26024   0.804   3.414  11.170 -0.2059 -0.4124  0.7776
  934MOL0     H26025   0.686   3.709  11.477  0.4744  0.0928 -0.0337
  934MOL0     H26026   0.620   3.562  11.542  1.3379 -1.9457  0.9563
  934MOL0     H26027   0.912   3.671  11.549 -1.0998  1.3917  0.6501
  934MOL0     H26028   0.828   3.651  11.687 -0.6210 -0.7323  0.1591
  934MOL0     H26029   0.917   3.438  11.721  1.3999  0.8240 -0.6734
  934MOL0     H26030   0.824   3.372  11.594  1.0708 -1.4053  1.2058
  934MOL0     H26031   1.022   3.461  11.440 -2.6783 -4.1189 -1.1694
  934MOL0     H26032   1.108   3.495  11.597 -0.3956  0.5215 -0.0925
  934MOL0     H26033   1.168   3.283  11.540  0.4267  0.4700 -2.4273
  934MOL0     H26034   1.042   3.270  11.659 -1.1618  2.6180  0.4917
  934MOL0     H26035   0.892   3.270  11.413  0.5609 -0.2976 -1.5604
  934MOL0     H26036   1.038   3.193  11.360  1.6857 -2.1360  0.8422
  934MOL0     H26037   0.883   3.024  11.425  0.5442  3.3489 -1.8448
  934MOL0     H26038   1.009   3.014  11.543  0.7989 -0.2801 -2.1034
  934MOL0     H26039   0.753   3.185  11.601 -0.4439 -0.4632  0.5669
  934MOL0     H26040   0.884   3.139  11.718  1.0742  0.2972 -0.4113
  934MOL0     H26041   0.858   2.902  11.844  0.5960  1.9739 -1.9636
  934MOL0     H26042   0.747   2.666  11.908  1.0077  2.5138  3.7245
  934MOL0     H26043   0.639   2.784  11.977 -2.9820 -2.1447  0.9631
  934MOL0     H26044   0.445   2.701  11.869  0.2502 -1.6217 -0.6096
  934MOL0     H26045   0.515   2.589  11.996 -2.2948 -2.1454  0.2836
  934MOL0     H26046   0.612   2.452  11.816 -1.3721 -1.4577 -0.0570
  934MOL0     H26047   0.532   2.568  11.703  3.8835  1.6109  0.0622
  934MOL0     H26048   0.318   2.496  11.787  0.3808  1.8438  2.0476
  934MOL0     H26049   0.404   2.397  11.909  1.3745 -0.1680  0.0163
  934MOL0     H26050   0.420   2.110  11.599 -0.6907  1.8693 -0.7038
  934MOL0     H26051   0.307   1.911  11.488  0.8445  0.8370  0.8963
  934MOL0     H26052   0.305   1.808  11.641 -0.8883 -0.0083  0.8331
  934MOL0     H26053   0.162   1.829  11.543  0.5667 -0.7397  3.2285
  934MOL0     H26054  -0.166   1.703  11.661  0.1608 -0.8227  3.9979
  934MOL0     H26055  -0.373   1.584  11.687 -1.7694  0.2856 -0.3589
  934MOL0     H26056  -0.561   1.578  11.829 -0.8428  1.5848  1.2484
  934MOL0     H26057  -0.743   1.603  11.818 -4.3366 -0.2544 -6.0055
  934MOL0     H26058  -0.734   1.508  11.580  0.0096 -0.6266  0.7160
  934MOL0     H26059  -0.596   1.415  11.653 -1.6427 -1.8543 -1.7260
  934MOL0     H26060  -0.793   1.292  11.691  1.9276 -2.3691  3.9540
  934MOL0     H26061  -0.882   1.437  11.734  0.5314  1.4336 -0.5615
  934MOL0     H26062  -0.665   1.346  11.908 -0.2061 -0.4828 -2.5100
  934MOL0     H26063  -0.780   1.468  11.946  1.4652  1.4052 -0.4661
  934MOL0     H26064  -0.863   1.175  11.893 -1.5888  0.8153 -2.7584
  934MOL0     H26065  -0.962   1.317  11.923 -0.4824  1.6930  4.4909
  934MOL0     H26066  -0.762   1.192  12.110 -2.2387 -2.5903 -0.7384
  934MOL0     H26067  -0.821   1.355  12.151  0.6518  0.9644 -0.9365
  934MOL0     H26068  -0.988   1.099  12.108 -0.8602  1.1186 -3.2776
  934MOL0     H26069  -1.057   1.263  12.132  0.3766  0.6779 -1.2919
  934MOL0     H26070  -0.858   1.132  12.345  0.0588 -1.3227 -1.9432
  934MOL0     H26071  -1.040   1.109  12.358  0.3648 -2.0793  0.6367
  934MOL0     H26072  -0.570   1.956  11.780  1.2812  1.7811 -1.3264
  934MOL0     H26073  -0.358   2.057  11.822 -3.1015 -0.0925  1.7204
  934MOL0     H26074  -0.005   2.162  11.847  2.4291 -1.6626  2.5707
  934MOL0     H26075   0.157   2.347  11.829  0.4051  0.1846  2.5216
  934MOL0     H26076   0.482   3.637  11.364 -1.0566 -0.6468  0.4508
  934MOL0     H26077   0.366   3.640  11.160  0.8111  1.0142 -0.7677
  934MOL0     H26078   0.250   3.185  10.799  0.5057 -0.0716 -0.5148
  934MOL0     H26079   0.114   3.169  10.603  1.1772  0.5421 -1.3348
  934MOL0     H26080  -0.121   3.516  10.434  0.7575  2.3480 -1.5345
  934MOL0     H26081   0.042   3.563  10.383 -0.2923  0.6570 -3.2008
  934MOL0     H26082   0.029   3.390  10.202  2.4950  3.6296 -1.1826
  934MOL0     H26083  -0.046   3.540  10.189  0.1635 -0.5642  0.0411
  934MOL0     H26084  -0.204   3.369  10.119  3.6420 -3.8573  0.6556
  934MOL0     H26085  -0.274   3.459  10.270  0.9924 -0.4794  2.3984
  934MOL0     H26086  -0.234   3.253  10.387  0.5611 -2.3410  0.3461
  934MOL0     H26087  -0.102   3.205  10.268 -0.4286 -0.0289 -0.0517
  934MOL0     H26088  -0.449   3.030  10.103 -0.8224  1.1922  0.8294
  934MOL0     H26089   0.082   3.607  10.594 -1.8072 -1.8867 -3.2910
  934MOL0     H26090   0.263   3.610  10.771 -0.0335  0.4239 -2.7667
  935MOL0     O26091   8.844   0.697   9.003  0.8177  0.2881 -0.4725
  935MOL0     C26092   8.912   0.758   9.089 -1.1735  0.0084 -0.1351
  935MOL0     O26093   9.044   0.734   9.129  0.6861  0.7519 -0.4114
  935MOL0     C26094   9.112   0.635   9.064  0.0614 -0.9593  0.2781
  935MOL0     C26095   9.105   0.616   8.925 -0.3985 -0.0383 -0.2184
  935MOL0     C26096   9.183   0.526   8.857  0.1136  0.5017 -0.6561
  935MOL0     C26097   9.293   0.469   8.928  0.3007 -0.6403  0.0034
  935MOL0     O26098   9.372   0.399   8.846  0.3287  0.1013  1.0126
  935MOL0     C26099   9.481   0.330   8.897  0.5921  0.1806  0.2921
  935MOL0     C26100   9.418   0.202   8.944 -0.5447  0.8406 -0.4015
  935MOL0     C26101   9.538   0.096   8.966  0.0220  0.0028 -0.0454
  935MOL0     C26102   9.585   0.036   8.824 -0.8028 -0.2286 -0.3014
  935MOL0     C26103   9.700  -0.055   8.835  0.2649 -0.4297  0.5749
  935MOL0     C26104   9.827   0.018   8.880  0.2406 -0.0234  1.0944
  935MOL0     C26105   9.949  -0.085   8.844  0.2046  0.6273 -0.3763
  935MOL0     C26106   9.968  -0.130   8.702  0.0434 -0.1851  0.4990
  935MOL0     N26107  10.005  -0.028   8.611 -0.4879  0.1026  0.4385
  935MOL0     C26108   9.916   0.052   8.545  0.0702 -0.4700 -0.4128
  935MOL0     C26109   9.977   0.077   8.425 -0.7809  0.2647  0.3990
  935MOL0     C26110   9.935   0.147   8.297 -0.2338  0.3877 -0.0335
  935MOL0     C26111  10.025   0.263   8.251  0.8808  0.0596  1.6921
  935MOL0     C26112   9.992   0.309   8.105  0.3913  0.4152  0.0171
  935MOL0     C26113  10.109   0.392   8.049 -0.1421  0.7162 -0.5252
  935MOL0     O26114  10.081   0.417   7.914  0.2809 -0.5174  0.7779
  935MOL0     C26115   9.977   0.509   7.877  0.5352  0.5735  0.0576
  935MOL0     C26116   9.921   0.618   7.948  0.0983  0.4076 -0.0229
  935MOL0     C26117   9.811   0.697   7.904  0.3058 -0.1803 -0.1613
  935MOL0     C26118   9.755   0.800   7.994 -0.9539  0.1884  0.3996
  935MOL0     C26119   9.751   0.676   7.777  0.4892  0.1702 -0.9511
  935MOL0     C26120   9.629   0.741   7.723 -0.8203 -0.3394  1.2367
  935MOL0     O26121   9.563   0.831   7.801 -0.5393  0.8221 -0.5983
  935MOL0     C26122   9.485   0.929   7.736  0.1820 -0.0068 -0.0292
  935MOL0     C26123   9.467   1.046   7.807 -0.7536 -0.2681 -1.2774
  935MOL0     C26124   9.353   1.128   7.794 -0.1145 -0.0016 -0.9338
  935MOL0     C26125   9.244   1.100   7.715  0.7707 -0.7054  0.1834
  935MOL0     O26126   9.130   1.179   7.704 -0.2204 -0.4744  0.0871
  935MOL0     C26127   9.121   1.263   7.587  0.5263 -0.3376 -0.3201
  935MOL0     C26128   9.142   1.205   7.454  0.1453  1.0038 -0.8616
  935MOL0     C26129   9.068   1.278   7.343  0.3180 -0.4454  0.1196
  935MOL0     C26130   9.082   1.186   7.221  0.1300 -0.2718  0.7293
  935MOL0     C26131   8.980   1.072   7.211  0.1306 -1.5051 -0.7474
  935MOL0     C26132   8.837   1.108   7.244  0.5431 -1.1385  0.6066
  935MOL0     C26133   8.736   0.989   7.247 -0.0233  0.6467 -0.1436
  935MOL0     C26134   8.591   1.012   7.304 -0.7587 -0.6776  0.4588
  935MOL0    Cl26135   8.613   0.992   7.480  0.4219 -0.0118 -0.0073
  935MOL0     C26136   9.256   0.974   7.652 -0.6286 -1.3147 -0.4899
  935MOL0     C26137   9.372   0.894   7.661 -0.4413  0.0030 -0.2891
  935MOL0     O26138   9.593   0.719   7.606  0.0543  0.6895 -0.0864
  935MOL0     C26139   9.811   0.570   7.704  0.2845 -0.4564 -0.2437
  935MOL0     C26140   9.927   0.489   7.749  0.2893 -0.3327  0.9492
  935MOL0     N26141  10.092   0.006   8.414 -0.3504 -0.2365  0.2421
  935MOL0     N26142  10.111  -0.049   8.530  0.2769  0.2205  0.6130
  935MOL0     C26143   9.316   0.502   9.064  0.5398 -0.0145 -0.2751
  935MOL0     C26144   9.224   0.583   9.132 -0.9922 -0.3899 -0.3741
  935MOL0     C26145   8.837   0.873   9.157 -0.6595  0.6671 -0.1586
  935MOL0     C26146   8.712   0.921   9.105 -0.4983  0.3027 -1.0450
  935MOL0     C26147   8.642   1.030   9.161 -0.2166 -0.3997  0.0937
  935MOL0     C26148   8.700   1.098   9.267  0.6107 -0.0192 -1.0003
  935MOL0     O26149   8.649   1.217   9.313  0.5097  0.4513 -0.2547
  935MOL0     C26150   8.531   1.279   9.252 -0.2999 -0.6748 -0.0499
  935MOL0     C26151   8.529   1.426   9.283  0.7056 -0.2444 -0.9303
  935MOL0     C26152   8.504   1.448   9.436 -0.1786  0.5713  0.8742
  935MOL0     C26153   8.528   1.593   9.483  0.1423  0.3791 -0.0644
  935MOL0     C26154   8.663   1.637   9.452  0.7443  0.8705  0.3440
  935MOL0     C26155   8.779   1.644   9.417 -0.2055 -0.3394 -0.9390
  935MOL0     C26156   8.826   1.057   9.317  0.6878  0.4382  0.5233
  935MOL0     C26157   8.894   0.944   9.264  0.0518 -0.1737 -0.1946
  935MOL0     H26158   9.024   0.664   8.872  1.1387  2.2657 -0.6430
  935MOL0     H26159   9.166   0.508   8.752 -0.9962  2.4802 -0.8642
  935MOL0     H26160   9.551   0.302   8.818 -1.6105 -0.8554 -1.4300
  935MOL0     H26161   9.537   0.377   8.978  0.9548 -0.7284  0.5867
  935MOL0     H26162   9.373   0.231   9.040 -1.2793  1.1031 -0.8196
  935MOL0     H26163   9.346   0.165   8.870 -0.4076 -0.7239  0.2048
  935MOL0     H26164   9.623   0.137   9.021 -0.7443  1.2860  0.2198
  935MOL0     H26165   9.490   0.013   9.019  0.5564  0.0582  0.5303
  935MOL0     H26166   9.496  -0.009   8.779 -1.5739  0.5468  0.4232
  935MOL0     H26167   9.614   0.117   8.756  1.4005  0.3715  1.2299
  935MOL0     H26168   9.684  -0.131   8.911  0.1674 -1.5490 -0.5371
  935MOL0     H26169   9.715  -0.109   8.741  1.4628  2.8160 -1.2853
  935MOL0     H26170   9.846   0.108   8.823 -0.5688 -0.7332 -0.3441
  935MOL0     H26171   9.823   0.037   8.988  1.5607 -1.3817  1.4309
  935MOL0     H26172  10.045  -0.041   8.871 -0.3601  2.1959 -0.8483
  935MOL0     H26173   9.940  -0.178   8.901  1.4338  0.2538 -0.7766
  935MOL0     H26174   9.880  -0.183   8.664 -0.3782 -0.2514  1.5237
  935MOL0     H26175  10.056  -0.194   8.716  2.1188  2.0521 -1.4871
  935MOL0     H26176   9.817   0.075   8.583 -0.2823 -2.7319  0.2094
  935MOL0     H26177   9.915   0.074   8.218 -1.5699 -0.1026  0.7333
  935MOL0     H26178   9.835   0.189   8.312  0.4263  1.8145  0.5551
  935MOL0     H26179  10.127   0.228   8.269  1.4344  0.9765  0.4546
  935MOL0     H26180  10.017   0.351   8.316 -1.9642  3.1759 -2.3375
  935MOL0     H26181   9.900   0.368   8.107  1.3916  2.0354  0.7537
  935MOL0     H26182   9.984   0.215   8.050  2.7994 -1.2992  2.3683
  935MOL0     H26183  10.203   0.337   8.040 -0.2361  0.8452 -2.5813
  935MOL0     H26184  10.120   0.488   8.100  0.1881  0.4462 -0.0813
  935MOL0     H26185   9.951   0.630   8.052 -1.2698 -2.6736  0.8537
  935MOL0     H26186   9.649   0.781   8.010 -1.3011  1.3336 -0.3733
  935MOL0     H26187   9.815   0.784   8.084  5.7377 -1.8701 -3.6832
  935MOL0     H26188   9.775   0.903   7.963  0.2481  0.6046  2.3614
  935MOL0     H26189   9.535   1.081   7.885 -0.5927 -2.1487 -0.5095
  935MOL0     H26190   9.357   1.224   7.845 -0.4163  0.3296 -1.5141
  935MOL0     H26191   9.027   1.320   7.583  0.1398 -0.9552 -0.1292
  935MOL0     H26192   9.197   1.342   7.592 -1.4117  1.7539 -1.6911
  935MOL0     H26193   9.248   1.208   7.429 -0.3103  1.9775 -2.8504
  935MOL0     H26194   9.097   1.106   7.447  2.5199  0.0081 -4.9706
  935MOL0     H26195   9.092   1.383   7.326 -1.0630 -0.2558 -0.7803
  935MOL0     H26196   8.963   1.291   7.367  0.1802  2.3913 -1.5941
  935MOL0     H26197   9.078   1.238   7.125 -1.7468 -1.5186  0.0778
  935MOL0     H26198   9.185   1.148   7.223  0.6226  0.9916  0.3405
  935MOL0     H26199   8.999   0.998   7.291 -4.2319 -1.6751  0.4026
  935MOL0     H26200   8.989   1.027   7.112 -0.8914 -2.3703 -0.4779
  935MOL0     H26201   8.837   1.141   7.349  3.2496 -2.2598  1.0403
  935MOL0     H26202   8.794   1.184   7.179  0.3866 -2.9044 -1.4508
  935MOL0     H26203   8.779   0.902   7.297  0.3607  0.0788 -1.4225
  935MOL0     H26204   8.716   0.958   7.144  0.9681  1.3144 -0.5525
  935MOL0     H26205   8.526   0.936   7.260  3.3788 -2.3897 -3.6238
  935MOL0     H26206   8.538   1.105   7.283 -4.4882 -2.3317  1.6052
  935MOL0     H26207   9.175   0.932   7.594 -2.4058 -1.5401  1.9789
  935MOL0     H26208   9.367   0.791   7.628  0.5344 -1.0659  2.5302
  935MOL0     H26209   9.770   0.545   7.607 -1.2230 -2.6689  0.8629
  935MOL0     H26210   9.974   0.408   7.695 -2.5627 -0.4831 -1.6405
  935MOL0     H26211   9.408   0.479   9.116 -0.1291 -1.0860  0.4761
  935MOL0     H26212   9.252   0.607   9.234 -1.3183 -1.9069  0.0999
  935MOL0     H26213   8.656   0.875   9.025  0.6352 -1.2755 -0.9600
  935MOL0     H26214   8.538   1.040   9.132 -1.1530 -2.4543  2.4091
  935MOL0     H26215   8.530   1.277   9.142 -2.0930 -0.8885 -0.0609
  935MOL0     H26216   8.432   1.241   9.280  0.1791 -1.0399  1.1977
  935MOL0     H26217   8.447   1.476   9.230 -0.2436  2.0643  2.3951
  935MOL0     H26218   8.625   1.457   9.241 -0.1483 -1.3593 -3.9677
  935MOL0     H26219   8.581   1.386   9.482  1.3356  0.7070 -1.3353
  935MOL0     H26220   8.404   1.420   9.470  0.2318 -0.7436  1.0546
  935MOL0     H26221   8.514   1.615   9.590  3.6415  0.1150  0.5802
  935MOL0     H26222   8.462   1.655   9.422 -2.2010 -0.5195  1.4149
  935MOL0     H26223   8.883   1.665   9.405 -0.1408  0.4633  0.7927
  935MOL0     H26224   8.871   1.121   9.393 -2.3042  0.8648  2.1055
  935MOL0     H26225   8.989   0.915   9.307 -1.2028  0.7190  3.5668
  936MOL0     O26226   2.330  10.765   5.410  0.4409 -0.0801  0.2938
  936MOL0     C26227   2.297  10.772   5.289  0.3223 -0.6658 -0.7980
  936MOL0     O26228   2.348  10.873   5.204 -0.3168  0.0888 -0.5863
  936MOL0     C26229   2.467  10.928   5.238  0.5918  0.5767  0.7443
  936MOL0     C26230   2.586  10.849   5.253 -1.8789 -0.4618 -0.4251
  936MOL0     C26231   2.716  10.908   5.251 -0.1144  0.5372  0.7117
  936MOL0     C26232   2.721  11.048   5.250 -0.7409 -0.9182 -0.2773
  936MOL0     O26233   2.845  11.111   5.250 -0.4617 -0.1262 -0.3861
  936MOL0     C26234   2.902  11.104   5.381 -0.4713  0.5869 -0.3123
  936MOL0     C26235   3.052  11.083   5.368 -0.4343  0.2755  0.3565
  936MOL0     C26236   3.128  11.060   5.502  0.0868 -0.9703 -0.5126
  936MOL0     C26237   3.289  11.075   5.490  0.3966 -0.1523 -0.1805
  936MOL0     C26238   3.351  11.068   5.619 -0.0088 -0.1450 -0.1710
  936MOL0     C26239   3.509  11.067   5.620 -1.0127  0.4551  0.2838
  936MOL0     C26240   3.571  11.070   5.764  0.2800  0.2450  0.4098
  936MOL0     C26241   3.698  11.164   5.779  0.3876 -0.1488  0.1691
  936MOL0     N26242   3.666  11.309   5.773  1.1695  1.1215  0.5441
  936MOL0     C26243   3.542  11.358   5.809 -0.1580 -0.1887  0.6927
  936MOL0     C26244   3.566  11.487   5.828 -0.4418 -0.0212 -0.1563
  936MOL0     C26245   3.461  11.597   5.863 -0.6210 -0.1800  0.1730
  936MOL0     C26246   3.398  11.576   5.999 -0.0143 -0.3007 -0.1765
  936MOL0     C26247   3.302  11.689   6.026 -0.9437 -0.4566  0.5119
  936MOL0     C26248   3.209  11.671   6.142 -0.9169  0.1558 -0.4701
  936MOL0     O26249   3.140  11.555   6.165  0.3559  0.4113  0.6354
  936MOL0     C26250   3.047  11.544   6.068  0.2571 -0.5846  0.4085
  936MOL0     C26251   2.934  11.626   6.059  1.0012  0.7269 -0.1558
  936MOL0     C26252   2.832  11.602   5.968 -0.1698 -0.5167 -0.2175
  936MOL0     C26253   2.710  11.693   5.953  0.8396  0.1725  0.0135
  936MOL0     C26254   2.852  11.496   5.878 -0.0966  1.0312 -0.1650
  936MOL0     C26255   2.750  11.445   5.787  0.8952  1.1859 -0.6312
  936MOL0     O26256   2.622  11.455   5.821 -0.5536 -0.9395 -0.1454
  936MOL0     C26257   2.526  11.389   5.738  0.8516 -0.1916 -0.1230
  936MOL0     C26258   2.440  11.294   5.793 -0.0639  0.4210  0.2862
  936MOL0     C26259   2.328  11.247   5.714 -0.2007 -0.5367  0.4261
  936MOL0     C26260   2.316  11.280   5.581  1.0204  0.1504  0.5067
  936MOL0     O26261   2.213  11.237   5.495 -0.3525 -0.4646 -0.6808
  936MOL0     C26262   2.218  11.091   5.468 -0.0097  0.2061  0.5194
  936MOL0     C26263   2.074  11.037   5.476 -1.0101  0.6733 -0.2468
  936MOL0     C26264   2.001  11.059   5.616 -1.0706  0.2090  0.2915
  936MOL0     C26265   1.884  10.974   5.649  0.3295  0.3011  1.0386
  936MOL0     C26266   1.916  10.848   5.720  0.5473  0.3283  0.2548
  936MOL0     C26267   1.924  10.875   5.873  0.3844  0.0398  1.0811
  936MOL0     C26268   1.807  10.799   5.942  0.1875  0.1301 -0.2540
  936MOL0     C26269   1.831  10.793   6.094  0.5150  0.3832 -0.0145
  936MOL0    Cl26270   1.837  10.955   6.166  0.0260  0.1936 -0.1523
  936MOL0     C26271   2.402  11.375   5.538  0.2251 -0.5377  0.2333
  936MOL0     C26272   2.507  11.439   5.612 -0.3825  0.6811 -0.1577
  936MOL0     O26273   2.789  11.382   5.690  0.6256  0.4721  0.4165
  936MOL0     C26274   2.973  11.417   5.883 -0.1425  0.1351  0.3578
  936MOL0     C26275   3.070  11.438   5.979  0.1051 -0.4217 -0.8354
  936MOL0     N26276   3.699  11.519   5.824 -0.1751 -0.3835  0.1943
  936MOL0     N26277   3.760  11.407   5.788  1.1325 -0.0984  1.5068
  936MOL0     C26278   2.609  11.124   5.246 -0.1609  0.4335  0.1898
  936MOL0     C26279   2.479  11.066   5.238  0.3330 -0.1368 -0.2478
  936MOL0     C26280   2.179  10.695   5.245 -0.7050 -0.0635 -0.5528
  936MOL0     C26281   2.107  10.723   5.134  0.1323  0.3597  0.5093
  936MOL0     C26282   1.991  10.660   5.101 -0.2882  0.4436 -1.0079
  936MOL0     C26283   1.944  10.550   5.181  0.7258  0.3462  0.1163
  936MOL0     O26284   1.829  10.493   5.132 -0.4814 -0.2738 -0.8426
  936MOL0     C26285   1.760  10.398   5.214 -0.1920  0.3069 -0.0768
  936MOL0     C26286   1.805  10.256   5.179  0.2347  0.0016 -0.5721
  936MOL0     C26287   1.878  10.240   5.048  0.3774  0.9735  0.7932
  936MOL0     C26288   1.909  10.086   5.028 -0.2756  0.5140  0.0506
  936MOL0     C26289   2.032  10.062   5.110 -0.2246  0.5125  0.9018
  936MOL0     C26290   2.126  10.040   5.182  0.1219 -0.5825  0.1635
  936MOL0     C26291   2.018  10.516   5.293 -0.2331 -0.0266 -0.6028
  936MOL0     C26292   2.132  10.590   5.330 -0.4678 -1.0441 -0.6742
  936MOL0     H26293   2.567  10.743   5.262 -0.8781 -0.5903  0.3650
  936MOL0     H26294   2.810  10.852   5.248 -0.4152  0.0638 -0.4065
  936MOL0     H26295   2.868  11.190   5.440  0.7113  0.0964  1.1402
  936MOL0     H26296   2.855  11.018   5.431 -0.8165  0.7052 -0.4290
  936MOL0     H26297   3.063  10.990   5.310 -5.2020 -0.7100  0.6697
  936MOL0     H26298   3.092  11.166   5.310  1.1711 -1.1773 -0.7577
  936MOL0     H26299   3.093  11.144   5.562 -0.9228 -0.7721 -1.3498
  936MOL0     H26300   3.102  10.961   5.540 -2.3213 -1.1183 -2.2847
  936MOL0     H26301   3.328  10.991   5.430 -1.3382 -1.0270 -0.1433
  936MOL0     H26302   3.308  11.171   5.441 -0.8786 -0.2528 -0.9251
  936MOL0     H26303   3.316  11.152   5.681  0.8952 -1.4233  2.1910
  936MOL0     H26304   3.329  10.973   5.667  2.2600  0.4996  2.4437
  936MOL0     H26305   3.558  10.979   5.576  2.0030  2.1127  0.0479
  936MOL0     H26306   3.549  11.155   5.569  1.8852  0.7667  2.8710
  936MOL0     H26307   3.488  11.096   5.829 -0.1211 -3.4487  1.5620
  936MOL0     H26308   3.595  10.973   5.806  1.5976  0.6731  0.6988
  936MOL0     H26309   3.789  11.138   5.724  1.5927 -0.0816  2.0474
  936MOL0     H26310   3.719  11.149   5.885  2.5398  2.8055  0.2895
  936MOL0     H26311   3.452  11.298   5.819 -1.0422  1.3646  2.8072
  936MOL0     H26312   3.503  11.698   5.858 -1.3281  0.1253  0.2765
  936MOL0     H26313   3.386  11.605   5.784 -0.7872  0.4315  0.3800
  936MOL0     H26314   3.471  11.597   6.078 -1.7158  1.1176  1.0884
  936MOL0     H26315   3.355  11.476   6.008 -0.6366 -0.0726 -0.5050
  936MOL0     H26316   3.238  11.724   5.944  0.7760  1.5737 -0.0347
  936MOL0     H26317   3.367  11.774   6.048 -4.3111  2.4519  0.2337
  936MOL0     H26318   3.150  11.763   6.149 -0.9225  0.1338 -0.1873
  936MOL0     H26319   3.279  11.680   6.226 -1.2699  2.8542 -0.3734
  936MOL0     H26320   2.927  11.722   6.109 -0.0339  1.2529 -1.2272
  936MOL0     H26321   2.733  11.798   5.973  3.0637 -0.0269 -1.0832
  936MOL0     H26322   2.658  11.696   5.856 -0.1015 -2.7130  0.3467
  936MOL0     H26323   2.630  11.647   6.011  1.8321 -1.4176  0.1904
  936MOL0     H26324   2.456  11.260   5.895  0.7022 -0.6667 -0.1789
  936MOL0     H26325   2.262  11.172   5.756 -0.4627 -0.5829 -0.0627
  936MOL0     H26326   2.245  11.076   5.363 -0.9084  1.2499  0.1116
  936MOL0     H26327   2.287  11.036   5.531  0.4417 -1.0445 -0.9966
  936MOL0     H26328   2.007  11.080   5.401 -1.3528 -0.3539 -0.5525
  936MOL0     H26329   2.099  10.931   5.463  2.4201  1.2279  0.9272
  936MOL0     H26330   1.971  11.163   5.630  1.5544  0.9150  1.4441
  936MOL0     H26331   2.074  11.052   5.698 -2.3237  4.3791  2.0530
  936MOL0     H26332   1.812  11.031   5.709  0.1237  2.1840 -0.9060
  936MOL0     H26333   1.840  10.950   5.552 -2.3127 -2.6096  2.7489
  936MOL0     H26334   2.010  10.804   5.686 -0.7895  0.6107 -4.4176
  936MOL0     H26335   1.825  10.791   5.703 -1.0048  2.8680 -0.5137
  936MOL0     H26336   2.021  10.836   5.906  1.1745 -0.6900 -1.7476
  936MOL0     H26337   1.921  10.982   5.891 -2.1484  0.1471  0.3838
  936MOL0     H26338   1.800  10.695   5.909  0.6289 -1.0280  2.9220
  936MOL0     H26339   1.716  10.852   5.912  0.9590  1.1690 -0.8002
  936MOL0     H26340   1.925  10.741   6.114 -0.6687 -1.4523  1.1425
  936MOL0     H26341   1.759  10.722   6.136  1.8065 -1.2343 -0.4218
  936MOL0     H26342   2.390  11.410   5.436 -4.3230 -0.4407  0.6255
  936MOL0     H26343   2.565  11.515   5.560  1.4816 -1.4260 -1.3227
  936MOL0     H26344   2.966  11.332   5.816  0.9718  1.1671 -1.1314
  936MOL0     H26345   3.146  11.362   5.994  1.5046  1.5315  3.5397
  936MOL0     H26346   2.621  11.232   5.238 -0.7857  0.3926 -2.2856
  936MOL0     H26347   2.397  11.129   5.207  2.7429  3.0781 -0.6014
  936MOL0     H26348   2.144  10.811   5.081  0.7746 -0.7819 -1.0399
  936MOL0     H26349   1.928  10.692   5.019  0.5540  3.0068 -0.7336
  936MOL0     H26350   1.759  10.421   5.321 -0.8730 -4.1555  1.0446
  936MOL0     H26351   1.654  10.406   5.189 -0.6574 -1.7368  1.0407
  936MOL0     H26352   1.713  10.196   5.179  0.1851  0.0470  0.5708
  936MOL0     H26353   1.871  10.226   5.261 -1.6817 -3.3131 -0.0603
  936MOL0     H26354   1.960  10.307   5.019 -0.7295  1.9095 -0.2542
  936MOL0     H26355   1.801  10.269   4.976 -1.7417  0.7642  2.8483
  936MOL0     H26356   1.928  10.078   4.921  0.5175  1.8409  0.0627
  936MOL0     H26357   1.815  10.034   5.047  0.0634  0.1930  0.9244
  936MOL0     H26358   2.212  10.019   5.244  0.9397  0.1287 -0.6886
  936MOL0     H26359   1.975  10.449   5.366  2.6563  2.0630  3.4190
  936MOL0     H26360   2.180  10.572   5.426  3.8098  1.1593 -2.1698
  937MOL0     O26361   4.785   5.220   6.554  0.2722  0.1104  0.5363
  937MOL0     C26362   4.775   5.142   6.452  0.2618  0.0217  0.6161
  937MOL0     O26363   4.864   5.036   6.426 -0.1540 -0.3382 -0.1405
  937MOL0     C26364   4.976   5.029   6.508 -0.0023  0.0080  0.2873
  937MOL0     C26365   4.977   5.014   6.648 -0.2350  0.2577 -0.0528
  937MOL0     C26366   5.088   4.970   6.721 -0.3642  1.3020  0.5870
  937MOL0     C26367   5.212   4.948   6.657 -0.1714  0.8530 -0.0113
  937MOL0     O26368   5.330   4.911   6.716 -0.2939 -0.4035  0.0622
  937MOL0     C26369   5.333   4.897   6.855 -0.3464 -0.5483 -0.3152
  937MOL0     C26370   5.464   4.856   6.902 -0.5556 -0.7421  1.0861
  937MOL0     C26371   5.572   4.956   6.938  0.1717 -0.6778 -0.4303
  937MOL0     C26372   5.534   5.041   7.057  0.5277  0.2782  0.4888
  937MOL0     C26373   5.658   5.129   7.107 -0.2246  0.2123  0.0798
  937MOL0     C26374   5.762   5.066   7.194  0.3817  0.9466  0.1274
  937MOL0     C26375   5.860   5.175   7.248 -0.9876 -0.9077 -0.2451
  937MOL0     C26376   5.927   5.271   7.139  1.0603 -1.0587 -0.7722
  937MOL0     N26377   6.046   5.344   7.190  0.0669  0.4540  0.0763
  937MOL0     C26378   6.097   5.458   7.131 -1.0911  0.3764  0.6714
  937MOL0     C26379   6.162   5.526   7.219 -0.7638 -1.0645 -0.4000
  937MOL0     C26380   6.239   5.654   7.195 -0.9001 -0.1983 -0.5639
  937MOL0     C26381   6.326   5.636   7.071 -1.0608 -0.2395 -0.0807
  937MOL0     C26382   6.439   5.754   7.088 -0.6310 -2.0521 -0.6602
  937MOL0     C26383   6.585   5.690   7.068  0.1616 -0.1900 -0.1654
  937MOL0     O26384   6.679   5.778   7.131 -0.1521 -0.9007 -0.0867
  937MOL0     C26385   6.685   5.906   7.085 -0.8395  0.0307  0.3275
  937MOL0     C26386   6.691   5.936   6.948 -0.2178  0.0205 -0.1543
  937MOL0     C26387   6.695   6.067   6.903  0.5780 -0.0150  1.0750
  937MOL0     C26388   6.676   6.093   6.757  0.8111 -0.3013 -0.3459
  937MOL0     C26389   6.688   6.175   6.990  0.6910  0.8413 -0.5072
  937MOL0     C26390   6.688   6.321   6.953  0.1211 -1.1651 -1.0076
  937MOL0     O26391   6.703   6.405   7.059  0.5248  0.5794 -0.5250
  937MOL0     C26392   6.675   6.532   7.046  0.0349 -0.5417  0.2330
  937MOL0     C26393   6.548   6.568   7.016 -0.0743 -0.1124 -0.0733
  937MOL0     C26394   6.517   6.708   6.990 -0.2796 -1.3156  0.5618
  937MOL0     C26395   6.621   6.803   7.006  0.1610 -1.3366 -0.0905
  937MOL0     O26396   6.608   6.934   6.960  0.1018  0.1202  0.1972
  937MOL0     C26397   6.497   6.965   6.864  0.4777 -0.0967  0.5339
  937MOL0     C26398   6.359   7.013   6.933  0.2517 -0.4432 -0.6309
  937MOL0     C26399   6.371   7.125   7.035 -0.6335 -0.3482 -0.0943
  937MOL0     C26400   6.414   7.256   6.969  0.1716 -0.2623  0.6486
  937MOL0     C26401   6.339   7.386   7.019  0.6068  0.2545 -0.0801
  937MOL0     C26402   6.366   7.421   7.164  0.9306 -0.9315  0.1949
  937MOL0     C26403   6.507   7.436   7.201  0.0485 -0.0206 -0.4966
  937MOL0     C26404   6.528   7.470   7.348  0.0245 -0.0184 -0.9451
  937MOL0    Cl26405   6.495   7.321   7.449 -0.0819 -0.0086 -0.2321
  937MOL0     C26406   6.747   6.759   7.044  0.0149 -0.2037 -0.0369
  937MOL0     C26407   6.773   6.630   7.075 -1.0628  1.6794  0.0218
  937MOL0     O26408   6.681   6.360   6.847  0.3967 -0.3910 -0.0150
  937MOL0     C26409   6.677   6.142   7.127 -0.3557  0.1185 -0.4745
  937MOL0     C26410   6.679   6.005   7.176  0.3890  0.3128  0.5764
  937MOL0     N26411   6.191   5.433   7.318 -0.7356  0.0518 -0.0578
  937MOL0     N26412   6.114   5.336   7.302  0.4576 -0.6615  0.5652
  937MOL0     C26413   5.211   4.969   6.512  0.5783  0.2233 -0.0837
  937MOL0     C26414   5.100   5.011   6.441  0.2414 -0.2117 -0.3547
  937MOL0     C26415   4.649   5.148   6.365 -1.2536  1.4845 -0.5646
  937MOL0     C26416   4.536   5.225   6.398  1.1506 -0.0475 -0.4549
  937MOL0     C26417   4.426   5.229   6.316 -0.4562  0.1446  0.1663
  937MOL0     C26418   4.424   5.163   6.194 -0.1965  0.1991  0.2845
  937MOL0     O26419   4.301   5.178   6.126  0.0778 -0.1884 -0.0410
  937MOL0     C26420   4.253   5.070   6.041  0.1647 -0.5826 -0.6785
  937MOL0     C26421   4.124   5.120   5.973  0.9263  0.2707  1.1826
  937MOL0     C26422   4.141   5.189   5.830 -0.0061 -0.1544  0.7719
  937MOL0     C26423   4.012   5.248   5.790  1.4143 -0.2358  0.4031
  937MOL0     C26424   4.012   5.316   5.659  0.8578 -0.2824  0.2831
  937MOL0     C26425   4.008   5.365   5.546  0.3837 -0.6687 -0.3694
  937MOL0     C26426   4.537   5.092   6.154  0.1869 -0.3986  0.2023
  937MOL0     C26427   4.647   5.079   6.241 -0.5427  0.4845 -1.5078
  937MOL0     H26428   4.882   5.030   6.697 -0.8399 -0.1116 -1.0797
  937MOL0     H26429   5.100   4.970   6.829  2.6318 -0.8859  0.4133
  937MOL0     H26430   5.316   4.996   6.899 -0.1020 -1.1477  1.1898
  937MOL0     H26431   5.251   4.832   6.887 -1.0110  0.8002  0.8646
  937MOL0     H26432   5.451   4.790   6.988 -2.3694 -0.3409  1.1629
  937MOL0     H26433   5.492   4.793   6.817 -2.2760  1.1365 -1.0295
  937MOL0     H26434   5.650   4.888   6.972 -1.3756 -3.2633 -1.7204
  937MOL0     H26435   5.600   5.008   6.845  1.7888  1.5944  1.2149
  937MOL0     H26436   5.457   5.113   7.030  1.6880 -0.1256 -5.3587
  937MOL0     H26437   5.481   4.977   7.127 -1.1849  1.4049  0.2793
  937MOL0     H26438   5.710   5.162   7.017  2.0084 -1.5176  0.6067
  937MOL0     H26439   5.610   5.209   7.164  1.0081  1.2684 -0.3012
  937MOL0     H26440   5.714   5.036   7.287  2.9807  1.0747  1.6179
  937MOL0     H26441   5.810   4.977   7.153 -2.0753 -1.8735  2.8841
  937MOL0     H26442   5.810   5.250   7.311  0.6029  1.8539 -2.0697
  937MOL0     H26443   5.927   5.118   7.312 -1.3096  0.1797  1.1241
  937MOL0     H26444   5.843   5.334   7.110  0.8552 -0.2240  1.4541
  937MOL0     H26445   5.961   5.210   7.055 -0.7340  1.5277 -3.5596
  937MOL0     H26446   6.082   5.495   7.030  1.4577  1.6207  0.6673
  937MOL0     H26447   6.178   5.743   7.183 -1.1379  0.0023  1.7124
  937MOL0     H26448   6.297   5.670   7.287 -2.6314 -3.3399  1.2602
  937MOL0     H26449   6.254   5.653   6.990 -1.7746 -0.5452  0.4743
  937MOL0     H26450   6.366   5.534   7.074  2.0301  0.8463 -0.7620
  937MOL0     H26451   6.438   5.807   7.183  0.9559 -2.0955 -0.5831
  937MOL0     H26452   6.425   5.831   7.011 -3.5831 -0.3770  1.3826
  937MOL0     H26453   6.609   5.681   6.961 -4.0933 -2.0404 -1.1588
  937MOL0     H26454   6.579   5.589   7.110  2.2700  0.2858  1.4232
  937MOL0     H26455   6.714   5.848   6.888  0.1117  1.0926 -1.6590
  937MOL0     H26456   6.587   6.152   6.737  0.2474  0.2391  3.0775
  937MOL0     H26457   6.767   6.128   6.708  0.1655 -0.9175 -2.0585
  937MOL0     H26458   6.644   5.996   6.718 -0.4684 -1.8242  3.8628
  937MOL0     H26459   6.473   6.492   6.999 -0.9372  1.4333 -4.2372
  937MOL0     H26460   6.426   6.735   6.939  1.5750 -1.1484 -3.0116
  937MOL0     H26461   6.531   7.049   6.803 -4.2055 -0.0021 -2.4443
  937MOL0     H26462   6.488   6.883   6.792  1.6476  0.1719  0.0513
  937MOL0     H26463   6.287   7.031   6.852  0.5472 -0.8298 -0.9821
  937MOL0     H26464   6.335   6.938   7.008  3.3003  0.7939  1.8036
  937MOL0     H26465   6.436   7.084   7.112 -1.5144  0.1120  0.9267
  937MOL0     H26466   6.272   7.133   7.082 -0.1202 -0.2692  0.9963
  937MOL0     H26467   6.522   7.272   6.969  0.7322 -3.3780  1.5011
  937MOL0     H26468   6.399   7.244   6.861  4.5497  2.0789 -0.4437
  937MOL0     H26469   6.235   7.353   7.010  0.5588 -0.1232  1.4868
  937MOL0     H26470   6.371   7.457   6.942 -2.0586  0.7973 -0.7944
  937MOL0     H26471   6.314   7.516   7.182 -0.4495 -1.7250  0.5578
  937MOL0     H26472   6.308   7.359   7.233  0.1726 -0.9389 -0.4366
  937MOL0     H26473   6.543   7.518   7.138  1.9384 -1.2617 -1.1066
  937MOL0     H26474   6.555   7.342   7.171 -1.7907 -0.6810 -1.4865
  937MOL0     H26475   6.459   7.548   7.382  1.3494  0.6901  0.2178
  937MOL0     H26476   6.631   7.505   7.364 -0.2776 -0.1140  1.5953
  937MOL0     H26477   6.816   6.842   7.054 -1.1867  1.0443 -1.5668
  937MOL0     H26478   6.872   6.592   7.096 -2.3919 -1.8595  0.6268
  937MOL0     H26479   6.682   6.210   7.211  1.4501  0.7411 -1.0451
  937MOL0     H26480   6.679   5.975   7.280  1.5532 -3.9117 -0.4680
  937MOL0     H26481   5.301   4.941   6.458 -0.6222  0.9526 -2.6313
  937MOL0     H26482   5.081   5.007   6.334 -2.1758  1.2475 -0.0556
  937MOL0     H26483   4.525   5.293   6.482 -0.2094 -2.4849  1.4978
  937MOL0     H26484   4.341   5.295   6.328 -0.6802 -0.2336  0.6938
  937MOL0     H26485   4.333   5.031   5.978  2.1718  1.3767  0.5278
  937MOL0     H26486   4.221   4.996   6.115  1.4167  0.0419  0.5360
  937MOL0     H26487   4.070   5.184   6.043  1.2316  0.1740  1.5096
  937MOL0     H26488   4.061   5.031   5.962 -1.1602  2.0094 -3.3926
  937MOL0     H26489   4.159   5.114   5.752 -0.5090 -0.1792  0.6729
  937MOL0     H26490   4.226   5.257   5.831 -1.7706  2.1956  2.4113
  937MOL0     H26491   3.972   5.320   5.862 -5.1895  0.4127 -3.1327
  937MOL0     H26492   3.932   5.177   5.771 -1.0498  2.4907 -0.1797
  937MOL0     H26493   4.027   5.418   5.455  1.2058 -3.2834 -1.7904
  937MOL0     H26494   4.550   5.042   6.059  4.0534 -1.5800  1.1966
  937MOL0     H26495   4.731   5.014   6.222 -2.0807 -2.3649  0.6953
  938MOL0     O26496  11.438   9.551   4.609  0.3498 -0.9992  0.0605
  938MOL0     C26497  11.467   9.672   4.584 -0.0428  0.6588 -0.5960
  938MOL0     O26498  11.499   9.733   4.460 -0.2651  0.2098 -0.4829
  938MOL0     C26499  11.486   9.666   4.334 -0.1126  0.1166  0.0494
  938MOL0     C26500  11.513   9.738   4.224 -0.5522  0.4199 -0.2255
  938MOL0     C26501  11.511   9.684   4.097 -0.1333  0.8040  0.5693
  938MOL0     C26502  11.492   9.547   4.072 -0.2515  0.3288  0.0683
  938MOL0     O26503  11.515   9.516   3.944  0.4926  0.6834 -0.6950
  938MOL0     C26504  11.515   9.371   3.923  0.1364 -0.0888  0.3428
  938MOL0     C26505  11.591   9.354   3.792 -0.1382 -0.3466  0.1871
  938MOL0     C26506  11.530   9.446   3.684  0.0518  1.7488  1.0656
  938MOL0     C26507  11.390   9.388   3.635 -0.0008 -0.0346  0.2252
  938MOL0     C26508  11.386   9.355   3.488 -0.8483 -1.1220 -0.0453
  938MOL0     C26509  11.245   9.312   3.452 -0.5174  0.7160  0.4205
  938MOL0     C26510  11.229   9.256   3.311 -0.4237 -1.2710  0.4339
  938MOL0     C26511  11.175   9.116   3.310  0.6372  0.9410  0.5006
  938MOL0     N26512  11.077   9.075   3.414  0.1157 -0.5705  0.6753
  938MOL0     C26513  10.943   9.113   3.436  0.0403  1.1011 -0.0139
  938MOL0     C26514  10.898   9.065   3.553  0.2199 -0.4975  0.3195
  938MOL0     C26515  10.781   9.101   3.640  0.0116  0.6386  0.1100
  938MOL0     C26516  10.830   9.158   3.776 -0.3152 -1.1840 -1.1956
  938MOL0     C26517  10.725   9.184   3.894  0.7963 -0.8401  0.5649
  938MOL0     C26518  10.690   9.062   3.974 -0.6533  1.5046 -0.2776
  938MOL0     O26519  10.589   8.996   3.903  0.0233  1.2146  0.9303
  938MOL0     C26520  10.472   8.975   3.971  0.4579 -0.5875 -0.8069
  938MOL0     C26521  10.417   9.065   4.067  0.0779 -0.0634  0.0768
  938MOL0     C26522  10.294   9.040   4.127 -0.1217  0.2895  0.8031
  938MOL0     C26523  10.246   9.125   4.244  0.8594  0.8296  0.6560
  938MOL0     C26524  10.219   8.928   4.082 -0.3599 -0.1159  0.2769
  938MOL0     C26525  10.084   8.897   4.136 -0.2063  0.4350  0.8998
  938MOL0     O26526  10.044   8.761   4.130  0.8731 -0.2964 -0.3033
  938MOL0     C26527   9.926   8.730   4.200  0.5732  1.3650  0.6431
  938MOL0     C26528   9.853   8.617   4.145 -0.3610 -1.0884 -0.0178
  938MOL0     C26529   9.731   8.582   4.202  0.3588 -0.2087  0.1387
  938MOL0     C26530   9.678   8.656   4.309  0.3700 -0.0269 -0.6050
  938MOL0     O26531   9.554   8.622   4.348  0.7011  0.6885 -0.3215
  938MOL0     C26532   9.438   8.686   4.293 -0.1817 -0.1494 -0.1234
  938MOL0     C26533   9.334   8.594   4.223  0.1534  0.6040  1.2876
  938MOL0     C26534   9.252   8.508   4.324  0.5916  0.0743  0.5682
  938MOL0     C26535   9.171   8.418   4.238 -0.2804  0.9504  0.7456
  938MOL0     C26536   9.109   8.322   4.326  0.3494  0.0338 -0.9977
  938MOL0     C26537   9.031   8.209   4.253 -0.3635  0.2372 -0.2450
  938MOL0     C26538   8.984   8.105   4.358 -1.3347 -0.5008  0.2942
  938MOL0     C26539   8.902   7.995   4.300 -0.5118 -0.0284  0.1238
  938MOL0    Cl26540   9.001   7.881   4.208 -0.4016  0.4058 -0.3583
  938MOL0     C26541   9.745   8.760   4.366 -0.4266 -1.3290  0.4858
  938MOL0     C26542   9.869   8.800   4.316 -0.2762  0.0475 -0.3762
  938MOL0     O26543  10.008   8.987   4.169 -0.3513  0.2475  0.5425
  938MOL0     C26544  10.268   8.849   3.985 -1.0821  0.2706  0.2645
  938MOL0     C26545  10.388   8.871   3.925 -0.6494 -0.0750  0.1025
  938MOL0     N26546  11.003   8.988   3.600 -0.4234  0.0287 -0.2478
  938MOL0     N26547  11.112   9.001   3.523 -0.0573  1.0496 -0.4065
  938MOL0     C26548  11.459   9.468   4.188 -0.4958 -0.2266 -0.1885
  938MOL0     C26549  11.457   9.530   4.314 -0.5223 -0.0471  0.2307
  938MOL0     C26550  11.435   9.755   4.694  0.5265 -0.5337 -0.0861
  938MOL0     C26551  11.439   9.716   4.834 -0.0262  0.7240 -0.2829
  938MOL0     C26552  11.429   9.803   4.939  0.2897  0.7031  0.0309
  938MOL0     C26553  11.411   9.945   4.919 -0.4879 -0.3876  0.1306
  938MOL0     O26554  11.408  10.044   5.019 -0.6284 -0.9975  0.5224
  938MOL0     C26555  11.420  10.005   5.157  0.1099  0.9500  0.4222
  938MOL0     C26556  11.453  10.130   5.230 -0.4860 -0.6149  0.2871
  938MOL0     C26557  11.514  10.103   5.362  0.8957  0.1909 -0.2121
  938MOL0     C26558  11.398  10.096   5.470  0.9080  0.2373  0.2304
  938MOL0     C26559  11.343  10.234   5.496  0.4899  0.0049  0.4930
  938MOL0     C26560  11.312  10.348   5.512 -0.3904  0.2020 -0.2175
  938MOL0     C26561  11.402   9.994   4.785  0.0820  1.1315  0.0512
  938MOL0     C26562  11.424   9.895   4.678  0.7662 -0.3800 -0.8040
  938MOL0     H26563  11.540   9.842   4.242 -2.1507  0.7294  0.5440
  938MOL0     H26564  11.530   9.755   4.017  0.9894 -0.9514 -0.7955
  938MOL0     H26565  11.569   9.313   3.998 -2.5085 -2.8243  0.2906
  938MOL0     H26566  11.416   9.329   3.907  0.6449 -0.1332 -3.7927
  938MOL0     H26567  11.699   9.369   3.803 -0.1969  3.1759 -2.2169
  938MOL0     H26568  11.578   9.251   3.759  3.4618 -0.9697  0.2745
  938MOL0     H26569  11.511   9.549   3.712 -3.7009  1.6292 -0.4615
  938MOL0     H26570  11.597   9.439   3.597  0.5937  1.1945  1.5149
  938MOL0     H26571  11.366   9.301   3.696  1.4674  1.0357  2.4871
  938MOL0     H26572  11.317   9.468   3.650 -0.5496 -0.8749  2.4093
  938MOL0     H26573  11.407   9.447   3.433  2.5058 -1.3984  0.5224
  938MOL0     H26574  11.471   9.290   3.464  2.2411  1.2688  3.3025
  938MOL0     H26575  11.228   9.234   3.527  2.8844  0.0808  0.6517
  938MOL0     H26576  11.177   9.397   3.468 -0.1811  1.1302 -0.3373
  938MOL0     H26577  11.159   9.310   3.247 -1.7979 -2.4227  0.8968
  938MOL0     H26578  11.318   9.264   3.248  0.9143 -0.0824  2.3563
  938MOL0     H26579  11.265   9.055   3.298  1.8157  2.7638 -0.4238
  938MOL0     H26580  11.132   9.095   3.212  1.3528  0.7190  0.2301
  938MOL0     H26581  10.890   9.181   3.370 -0.1234  1.4475  0.4703
  938MOL0     H26582  10.719   9.164   3.577 -0.3053 -2.3232 -2.8038
  938MOL0     H26583  10.728   9.009   3.664  4.5514 -1.9786  1.3220
  938MOL0     H26584  10.864   9.254   3.737 -1.9446 -0.5069 -1.0488
  938MOL0     H26585  10.911   9.099   3.819  0.2226  1.4638  1.7591
  938MOL0     H26586  10.635   9.236   3.857  0.1543 -0.9235  1.9373
  938MOL0     H26587  10.776   9.251   3.963 -4.3977  1.2055  2.9942
  938MOL0     H26588  10.656   9.079   4.077 -4.7149 -2.6907 -0.5760
  938MOL0     H26589  10.777   8.996   3.967 -0.8355  1.4602 -2.6352
  938MOL0     H26590  10.464   9.159   4.096 -1.1466  1.3154 -2.1438
  938MOL0     H26591  10.172   9.196   4.206  0.5944 -0.0872 -0.6148
  938MOL0     H26592  10.200   9.068   4.326 -0.2050 -0.4260 -0.7558
  938MOL0     H26593  10.333   9.176   4.287  0.6129  1.1229  0.8113
  938MOL0     H26594   9.902   8.572   4.060 -1.2180  0.5990 -1.4680
  938MOL0     H26595   9.680   8.496   4.159 -1.0914  1.2347 -1.2093
  938MOL0     H26596   9.385   8.734   4.376  2.6454  1.3500  0.9399
  938MOL0     H26597   9.467   8.768   4.226 -1.0341  1.1680  1.0529
  938MOL0     H26598   9.273   8.665   4.165  2.4691  3.2241  1.8548
  938MOL0     H26599   9.392   8.527   4.158 -0.0958  1.0314  0.6135
  938MOL0     H26600   9.187   8.561   4.394 -1.7022 -1.6740 -0.1288
  938MOL0     H26601   9.324   8.454   4.387 -0.6418  0.9850  2.8679
  938MOL0     H26602   9.098   8.478   4.184  1.3588  1.2136 -1.3209
  938MOL0     H26603   9.238   8.367   4.168  1.2038  2.4417  1.0246
  938MOL0     H26604   9.048   8.375   4.399  4.1543 -0.9384  3.2975
  938MOL0     H26605   9.180   8.264   4.384 -0.5461  0.1883  0.2996
  938MOL0     H26606   8.949   8.261   4.204 -0.8940  1.5519  1.9054
  938MOL0     H26607   9.091   8.168   4.171 -2.1075 -3.3040  0.0641
  938MOL0     H26608   8.938   8.160   4.440  1.7133 -0.4943  2.1500
  938MOL0     H26609   9.068   8.060   4.411 -0.2014  0.8196 -0.3416
  938MOL0     H26610   8.828   8.046   4.238  2.4814  3.3753 -0.9604
  938MOL0     H26611   8.867   7.937   4.386  3.9297 -3.7814 -0.2114
  938MOL0     H26612   9.700   8.829   4.437  1.6720 -2.0735  2.6565
  938MOL0     H26613   9.920   8.889   4.350  0.0303  0.7061 -2.3999
  938MOL0     H26614  10.221   8.760   3.945  0.7125 -0.0869 -1.1633
  938MOL0     H26615  10.428   8.821   3.838 -1.9197 -1.6846  0.3942
  938MOL0     H26616  11.449   9.362   4.167  0.2369 -1.1852  3.5093
  938MOL0     H26617  11.460   9.461   4.398  2.4818  1.7597  1.8048
  938MOL0     H26618  11.457   9.618   4.877  0.0496  2.8213  5.3038
  938MOL0     H26619  11.434   9.749   5.034 -0.7373 -0.3275 -0.4658
  938MOL0     H26620  11.328   9.961   5.196  1.6589 -2.3075  0.6568
  938MOL0     H26621  11.502   9.935   5.170 -0.3221  0.7666  2.6816
  938MOL0     H26622  11.365  10.194   5.240  0.1456  0.2461  0.3739
  938MOL0     H26623  11.533  10.187   5.181 -0.0193 -0.3218  1.3524
  938MOL0     H26624  11.567  10.196   5.383  0.8176 -0.1789  1.8829
  938MOL0     H26625  11.580  10.016   5.368  1.6544  0.8644  2.2340
  938MOL0     H26626  11.442  10.061   5.563 -0.1228 -2.3187 -0.1669
  938MOL0     H26627  11.326  10.020   5.438 -0.5633  2.1648 -1.3372
  938MOL0     H26628  11.282  10.448   5.539  0.3692  0.2452  0.5012
  938MOL0     H26629  11.391  10.100   4.762 -2.2512  0.9840  0.1751
  938MOL0     H26630  11.428   9.938   4.579 -1.5316  3.2061  0.4802
  939MOL0     O26631   1.768   6.620   7.070  0.0843 -0.1309  0.5212
  939MOL0     C26632   1.686   6.539   7.032  0.1683 -0.5647  0.0885
  939MOL0     O26633   1.599   6.480   7.110  0.2275  0.1242  0.4432
  939MOL0     C26634   1.568   6.541   7.229 -0.0164  1.1873  0.7655
  939MOL0     C26635   1.616   6.489   7.341 -0.4198 -0.0098  0.2888
  939MOL0     C26636   1.587   6.550   7.463  0.1394 -0.2181  0.0280
  939MOL0     C26637   1.509   6.676   7.468  1.3298  0.5187 -0.8082
  939MOL0     O26638   1.484   6.745   7.584  0.4758  0.0785  0.3580
  939MOL0     C26639   1.503   6.670   7.709 -0.5678  0.2018  0.0823
  939MOL0     C26640   1.435   6.743   7.822  0.4581 -0.6283  0.0038
  939MOL0     C26641   1.288   6.729   7.826 -0.7226 -0.7081  0.2132
  939MOL0     C26642   1.256   6.619   7.936  0.1215  0.6048  0.9153
  939MOL0     C26643   1.280   6.648   8.084 -0.0099 -0.1569 -0.3876
  939MOL0     C26644   1.209   6.776   8.144 -0.7701 -0.2189  0.3420
  939MOL0     C26645   1.233   6.775   8.296 -0.9574  0.4809  0.1654
  939MOL0     C26646   1.229   6.912   8.359 -0.0371  0.4018  0.6941
  939MOL0     N26647   1.099   6.957   8.321  0.6772  0.5360  0.1689
  939MOL0     C26648   0.982   6.913   8.383  0.3018 -0.5764  0.5061
  939MOL0     C26649   0.885   6.992   8.332 -0.4611 -0.6744 -0.6471
  939MOL0     C26650   0.738   6.999   8.367 -1.2149 -0.0746  0.5479
  939MOL0     C26651   0.674   6.865   8.325 -0.0747  0.6191 -1.1741
  939MOL0     C26652   0.539   6.831   8.388  0.0053  0.5261 -0.1047
  939MOL0     C26653   0.488   6.695   8.328  0.7986 -0.6805  0.5120
  939MOL0     O26654   0.578   6.583   8.344 -0.8138  0.8182 -0.4775
  939MOL0     C26655   0.521   6.472   8.384 -0.1933  1.1168  0.9848
  939MOL0     C26656   0.522   6.365   8.290  1.2717  0.0630  0.3180
  939MOL0     C26657   0.462   6.246   8.310  0.6530  0.1642 -1.0314
  939MOL0     C26658   0.432   6.154   8.194  0.1595 -0.6847 -0.1886
  939MOL0     C26659   0.415   6.218   8.437 -0.3565  0.0600 -0.4902
  939MOL0     C26660   0.376   6.084   8.493 -0.6030 -0.3241 -0.2687
  939MOL0     O26661   0.280   6.085   8.586  0.4442 -0.2023 -0.3056
  939MOL0     C26662   0.243   5.986   8.676 -0.6433  0.8285  0.9409
  939MOL0     C26663   0.116   5.998   8.725 -0.7939  1.1204  0.4027
  939MOL0     C26664   0.058   5.888   8.798 -0.9072  0.8084  0.0202
  939MOL0     C26665   0.135   5.778   8.839  0.0384 -0.0612 -0.8893
  939MOL0     O26666   0.083   5.688   8.935 -0.9728 -0.5342 -0.2248
  939MOL0     C26667  -0.055   5.652   8.918 -0.3213 -0.6190  0.8450
  939MOL0     C26668  -0.120   5.587   9.044  1.1498 -0.0699 -0.2305
  939MOL0     C26669  -0.057   5.451   9.093  1.0477 -0.4994 -0.6249
  939MOL0     C26670   0.082   5.470   9.148 -0.9503 -1.1841  0.6508
  939MOL0     C26671   0.135   5.357   9.234 -0.0040  0.2501 -0.2830
  939MOL0     C26672   0.116   5.203   9.185 -0.2783 -0.8209 -0.5115
  939MOL0     C26673   0.192   5.191   9.052  0.6337 -0.9648 -0.3209
  939MOL0     C26674   0.267   5.064   9.025 -0.7360  0.5462  0.2661
  939MOL0    Cl26675   0.179   4.923   9.089  0.2772  0.0449 -0.2828
  939MOL0     C26676   0.269   5.768   8.795 -0.3611  0.5339  0.2612
  939MOL0     C26677   0.317   5.862   8.706 -0.2190 -0.7234 -0.1254
  939MOL0     O26678   0.429   5.977   8.451 -0.1172  0.2500  0.2098
  939MOL0     C26679   0.413   6.324   8.535 -0.3787  0.5787 -0.1771
  939MOL0     C26680   0.474   6.442   8.510 -0.3324 -1.2174 -0.2484
  939MOL0     N26681   0.940   7.069   8.240  1.0405  0.3468  0.4195
  939MOL0     N26682   1.065   7.045   8.220  0.3952  0.3123 -0.5939
  939MOL0     C26683   1.461   6.728   7.342  0.4129  0.2968 -0.3037
  939MOL0     C26684   1.497   6.665   7.227  0.9958 -0.7078  0.2414
  939MOL0     C26685   1.702   6.470   6.897 -0.0515  1.0317 -0.3755
  939MOL0     C26686   1.614   6.368   6.854  1.2470  0.2204  0.3928
  939MOL0     C26687   1.626   6.302   6.728 -0.0155  0.1960  0.1043
  939MOL0     C26688   1.731   6.346   6.640 -0.2649  0.1440  0.6643
  939MOL0     O26689   1.742   6.286   6.519  0.1168  0.4697 -0.2550
  939MOL0     C26690   1.764   6.370   6.404 -0.4366  0.2239 -0.0666
  939MOL0     C26691   1.763   6.305   6.271  0.0165  0.6746 -0.4512
  939MOL0     C26692   1.624   6.251   6.228  0.3258  0.0749  0.3017
  939MOL0     C26693   1.620   6.230   6.077 -0.6530 -0.1773  0.9691
  939MOL0     C26694   1.697   6.104   6.040  0.6940 -0.3352  0.1488
  939MOL0     C26695   1.758   6.005   6.012  0.0683  0.1210 -0.1961
  939MOL0     C26696   1.828   6.435   6.691  0.2917  0.3821  0.3157
  939MOL0     C26697   1.810   6.501   6.814  0.1560  0.5700 -0.9935
  939MOL0     H26698   1.686   6.405   7.338 -1.1248 -0.9222  4.0723
  939MOL0     H26699   1.636   6.508   7.551 -1.5126 -0.5595  0.8176
  939MOL0     H26700   1.451   6.574   7.698 -2.6436  1.1016  1.3315
  939MOL0     H26701   1.608   6.647   7.730  0.0416  0.8555 -2.0850
  939MOL0     H26702   1.492   6.711   7.910  2.9829 -2.7110 -2.2051
  939MOL0     H26703   1.449   6.851   7.814  0.8374 -0.8429 -4.4029
  939MOL0     H26704   1.242   6.824   7.854  0.1200  0.5119 -2.2084
  939MOL0     H26705   1.235   6.711   7.732 -1.2299  2.0522 -0.1078
  939MOL0     H26706   1.151   6.593   7.920 -0.3084  1.7595  1.7469
  939MOL0     H26707   1.307   6.527   7.907  0.5757  1.1393 -0.0343
  939MOL0     H26708   1.252   6.560   8.143 -2.8565  0.4267 -0.7347
  939MOL0     H26709   1.388   6.661   8.095 -0.2159  1.3778  0.0453
  939MOL0     H26710   1.251   6.867   8.101 -1.6011  0.2151  0.4147
  939MOL0     H26711   1.102   6.773   8.118 -1.0825  2.8985  0.9135
  939MOL0     H26712   1.159   6.704   8.335  0.3762 -0.4208  1.1547
  939MOL0     H26713   1.335   6.740   8.317 -1.0187  0.2266  0.0462
  939MOL0     H26714   1.295   6.985   8.311 -1.0390  0.1748 -1.1078
  939MOL0     H26715   1.249   6.905   8.466 -0.9377 -1.0784  0.7925
  939MOL0     H26716   0.968   6.839   8.461 -0.1802 -4.1788 -2.6876
  939MOL0     H26717   0.727   7.022   8.473  2.1331  2.4602  0.4974
  939MOL0     H26718   0.691   7.085   8.320 -1.4753  1.2772  3.1152
  939MOL0     H26719   0.743   6.786   8.355  0.4286  1.7799  0.9551
  939MOL0     H26720   0.668   6.859   8.216 -2.3977 -1.3560 -1.0045
  939MOL0     H26721   0.456   6.901   8.379 -0.2953  0.1650 -0.1891
  939MOL0     H26722   0.551   6.812   8.495 -0.2790  0.1958 -0.1246
  939MOL0     H26723   0.455   6.706   8.224 -2.2488 -3.2474  1.0644
  939MOL0     H26724   0.393   6.680   8.380  0.1322  0.7221 -0.2396
  939MOL0     H26725   0.552   6.372   8.186 -2.4143 -1.8515 -1.0909
  939MOL0     H26726   0.422   6.207   8.099 -0.9190  0.3902  0.5002
  939MOL0     H26727   0.511   6.079   8.200  0.9319  0.2227  2.2521
  939MOL0     H26728   0.334   6.108   8.210  0.1949 -0.1505  1.9687
  939MOL0     H26729   0.061   6.088   8.702 -0.7843  0.8134 -0.9095
  939MOL0     H26730  -0.043   5.906   8.833 -0.0684  2.6839  1.7058
  939MOL0     H26731  -0.121   5.735   8.891 -0.8914 -1.5096 -0.6412
  939MOL0     H26732  -0.060   5.593   8.826  2.6630  3.3175 -2.1972
  939MOL0     H26733  -0.109   5.654   9.129  0.9679 -0.3586  0.0233
  939MOL0     H26734  -0.228   5.569   9.036  1.3561 -1.5218  0.0396
  939MOL0     H26735  -0.044   5.388   9.004  2.3469  2.2205 -2.4984
  939MOL0     H26736  -0.112   5.397   9.171  1.6774  0.9797  0.8913
  939MOL0     H26737   0.146   5.477   9.060 -0.8316  0.3836  0.8379
  939MOL0     H26738   0.087   5.565   9.202  0.6903 -2.8047  3.6611
  939MOL0     H26739   0.074   5.361   9.325 -2.8242 -1.1058 -1.9784
  939MOL0     H26740   0.233   5.388   9.271 -0.5348  0.8255  0.6853
  939MOL0     H26741   0.167   5.134   9.253  2.5253  1.5048 -0.0561
  939MOL0     H26742   0.015   5.163   9.180  0.2456 -2.3658  0.4357
  939MOL0     H26743   0.253   5.281   9.036 -1.4216  0.4376 -0.5808
  939MOL0     H26744   0.116   5.197   8.974 -0.3730 -3.7687  0.2998
  939MOL0     H26745   0.371   5.065   9.060  0.4507 -2.9926 -2.5557
  939MOL0     H26746   0.288   5.058   8.918  0.6403  0.5248  0.5156
  939MOL0     H26747   0.322   5.679   8.830 -0.1368  1.3528  2.1636
  939MOL0     H26748   0.406   5.835   8.651 -0.7660 -1.4844 -0.6608
  939MOL0     H26749   0.370   6.297   8.630 -3.1833 -4.5470 -2.4931
  939MOL0     H26750   0.478   6.515   8.590 -1.2034 -2.3428  0.8718
  939MOL0     H26751   1.404   6.820   7.351  3.2537  2.1799 -0.3210
  939MOL0     H26752   1.460   6.703   7.132 -1.9988  1.6288  2.1617
  939MOL0     H26753   1.526   6.343   6.912 -0.6809 -0.3442 -2.5598
  939MOL0     H26754   1.558   6.225   6.695 -0.5661  1.0986 -0.9471
  939MOL0     H26755   1.689   6.449   6.413 -1.8544 -1.3091  2.6246
  939MOL0     H26756   1.865   6.410   6.416 -0.4634 -0.0595  1.1542
  939MOL0     H26757   1.840   6.227   6.278  0.8077  1.5767  1.6738
  939MOL0     H26758   1.800   6.369   6.190 -2.3174 -0.7256 -2.7933
  939MOL0     H26759   1.546   6.315   6.270  1.3153  0.5892  1.3988
  939MOL0     H26760   1.602   6.152   6.267  0.0040 -0.9248 -2.2353
  939MOL0     H26761   1.677   6.315   6.038  1.2716 -0.5846  2.6945
  939MOL0     H26762   1.515   6.235   6.047 -0.3349 -3.1103 -1.1449
  939MOL0     H26763   1.809   5.913   5.991  1.0491  0.8686 -1.1990
  939MOL0     H26764   1.900   6.474   6.619  1.5248  1.8369  2.2535
  939MOL0     H26765   1.883   6.579   6.832  0.0655  0.2531  0.9256
  940MOL0     O26766   2.741   5.721  10.004 -0.4594 -0.3347 -0.1897
  940MOL0     C26767   2.748   5.800   9.908  0.1623  0.5522 -1.1249
  940MOL0     O26768   2.646   5.819   9.825  0.0241  0.2865 -1.5323
  940MOL0     C26769   2.521   5.751   9.828 -0.2718  0.2098  0.1072
  940MOL0     C26770   2.464   5.695   9.950 -0.5024 -0.4394  0.5693
  940MOL0     C26771   2.344   5.619   9.950 -0.8184 -0.4543  0.4848
  940MOL0     C26772   2.284   5.580   9.825  0.4019  0.1834 -0.4748
  940MOL0     O26773   2.165   5.509   9.816  0.5973 -0.9745  0.7677
  940MOL0     C26774   2.052   5.577   9.748  0.9721  1.3861 -0.6642
  940MOL0     C26775   1.974   5.486   9.650 -1.2133  0.6603  0.1677
  940MOL0     C26776   2.052   5.457   9.522 -0.1550 -0.0474  0.7823
  940MOL0     C26777   1.978   5.371   9.418  0.3840 -0.9561  0.4462
  940MOL0     C26778   1.876   5.468   9.336 -0.8921 -0.6222 -0.4851
  940MOL0     C26779   1.949   5.565   9.237  0.2554  0.1914  0.0411
  940MOL0     C26780   2.057   5.499   9.157  0.0933 -0.4911 -0.3083
  940MOL0     C26781   2.098   5.598   9.048 -0.1936  0.3074  0.0336
  940MOL0     N26782   2.009   5.607   8.930  0.2236  0.8116 -0.1400
  940MOL0     C26783   1.941   5.520   8.844 -0.3423  0.0489 -0.2262
  940MOL0     C26784   1.857   5.598   8.772 -0.4765 -0.5432 -0.0001
  940MOL0     C26785   1.768   5.533   8.669 -0.1724  0.4523  0.3972
  940MOL0     C26786   1.725   5.636   8.555 -0.6932  0.1515 -0.5255
  940MOL0     C26787   1.636   5.568   8.444 -0.4022 -0.2288  1.2471
  940MOL0     C26788   1.493   5.533   8.474  0.0874 -0.4154  0.4998
  940MOL0     O26789   1.411   5.642   8.515 -1.1526  0.4833  0.5839
  940MOL0     C26790   1.309   5.610   8.588  0.6649  1.2653 -0.0849
  940MOL0     C26791   1.266   5.697   8.685 -0.4355 -0.2180 -0.0419
  940MOL0     C26792   1.142   5.674   8.750  0.0261  0.1490  0.6597
  940MOL0     C26793   1.095   5.783   8.836 -0.5069 -0.3752  0.3228
  940MOL0     C26794   1.059   5.563   8.717  0.5516 -0.7691 -0.0587
  940MOL0     C26795   0.927   5.535   8.767  0.5489 -0.1029 -0.1928
  940MOL0     O26796   0.852   5.451   8.690 -0.2128 -0.3404  0.6352
  940MOL0     C26797   0.719   5.457   8.703 -0.7316  0.0666  0.6258
  940MOL0     C26798   0.649   5.391   8.808  0.2422  0.1816 -0.5478
  940MOL0     C26799   0.510   5.378   8.816 -1.0108  0.4594 -0.1990
  940MOL0     C26800   0.432   5.434   8.712 -0.3811  0.0511 -0.1289
  940MOL0     O26801   0.295   5.425   8.721 -0.1043 -0.4611  0.1546
  940MOL0     C26802   0.229   5.426   8.594  0.9297  0.4368  0.3083
  940MOL0     C26803   0.097   5.346   8.590  0.3608 -0.9665  0.0802
  940MOL0     C26804   0.120   5.202   8.643 -0.0418 -0.8014  0.0512
  940MOL0     C26805  -0.018   5.120   8.624 -1.3013 -0.8019 -0.0362
  940MOL0     C26806  -0.083   5.096   8.764 -0.4232  0.5459  0.0383
  940MOL0     C26807  -0.043   4.957   8.834  0.8313 -0.0116 -0.0311
  940MOL0     C26808  -0.122   4.942   8.967 -0.1335  0.0656  0.3839
  940MOL0     C26809  -0.274   4.948   8.968 -0.4432  0.3277  0.1450
  940MOL0    Cl26810  -0.362   4.915   9.126  0.2570 -0.0680 -0.0093
  940MOL0     C26811   0.497   5.522   8.611 -0.1470  0.2584 -0.1115
  940MOL0     C26812   0.641   5.533   8.610  0.1890 -0.0198  0.6446
  940MOL0     O26813   0.878   5.604   8.857  0.3931  0.5795 -0.3000
  940MOL0     C26814   1.107   5.475   8.617 -0.0112  0.6876 -0.1072
  940MOL0     C26815   1.230   5.496   8.570  0.1163 -0.8473  1.3516
  940MOL0     N26816   1.882   5.726   8.804 -0.4800 -0.8641  1.1833
  940MOL0     N26817   1.971   5.730   8.892  0.8299  0.7796  0.0976
  940MOL0     C26818   2.339   5.635   9.710  0.5919 -0.5401 -0.4497
  940MOL0     C26819   2.457   5.708   9.710 -0.0183 -0.0586 -0.8497
  940MOL0     C26820   2.878   5.865   9.882  0.4837 -0.5829 -0.0012
  940MOL0     C26821   2.919   5.891   9.750  0.0973  0.4302  0.6571
  940MOL0     C26822   3.037   5.954   9.708  0.2944 -0.4807  1.0547
  940MOL0     C26823   3.120   6.022   9.804 -0.0938  0.3807 -0.7607
  940MOL0     O26824   3.203   6.130   9.776  0.3535 -0.4704  0.0733
  940MOL0     C26825   3.196   6.174   9.639 -0.1171 -0.9031 -0.2367
  940MOL0     C26826   3.291   6.297   9.621  0.6454  0.0644  0.5605
  940MOL0     C26827   3.260   6.416   9.717 -0.2704 -0.7976 -1.0766
  940MOL0     C26828   3.153   6.502   9.675  0.3112 -0.2471 -0.5017
  940MOL0     C26829   3.097   6.585   9.781  1.1275  0.4343 -1.1995
  940MOL0     C26830   3.050   6.644   9.871 -0.0604  0.3103 -0.7162
  940MOL0     C26831   3.073   6.002   9.930  0.8445 -0.1193 -0.2010
  940MOL0     C26832   2.963   5.922   9.968 -0.0834  0.1520 -0.1096
  940MOL0     H26833   2.496   5.722  10.050 -2.3431 -2.0243  1.6620
  940MOL0     H26834   2.306   5.596  10.049 -1.4437 -3.5156 -0.3644
  940MOL0     H26835   1.989   5.602   9.834 -0.1788  0.1939 -1.1316
  940MOL0     H26836   2.075   5.672   9.698 -2.0472  2.2304 -0.6423
  940MOL0     H26837   1.962   5.400   9.717  1.3412 -0.0507 -0.1965
  940MOL0     H26838   1.874   5.528   9.634 -1.2376  0.3839 -0.4069
  940MOL0     H26839   2.085   5.552   9.478 -2.2790  1.3800  2.0900
  940MOL0     H26840   2.145   5.405   9.543  1.8274  2.4945 -0.9919
  940MOL0     H26841   2.051   5.312   9.362  0.1826 -0.0613 -0.8091
  940MOL0     H26842   1.914   5.295   9.465  0.1228 -0.2492  1.2665
  940MOL0     H26843   1.798   5.415   9.281 -0.5378 -2.5532  0.7990
  940MOL0     H26844   1.831   5.528   9.415  1.3980  0.5534  0.0239
  940MOL0     H26845   1.879   5.624   9.177 -1.5269 -1.4131  0.4584
  940MOL0     H26846   1.998   5.640   9.299 -0.0990  0.4790 -0.0231
  940MOL0     H26847   2.144   5.478   9.220  0.3301 -2.2047 -1.1519
  940MOL0     H26848   2.018   5.404   9.119  0.9635 -1.6723  1.5958
  940MOL0     H26849   2.196   5.563   9.015  0.5632  0.2271  2.2585
  940MOL0     H26850   2.115   5.701   9.079  1.5264 -0.7285  2.8338
  940MOL0     H26851   1.949   5.414   8.822  2.2429 -0.1448  1.3213
  940MOL0     H26852   1.825   5.451   8.624  2.1735  0.8037  2.4825
  940MOL0     H26853   1.678   5.500   8.722 -2.0731 -1.3339 -3.5484
  940MOL0     H26854   1.818   5.679   8.516  0.1472  0.3123  1.5454
  940MOL0     H26855   1.662   5.715   8.598 -3.6362 -1.6618 -1.2197
  940MOL0     H26856   1.681   5.470   8.426 -2.4020 -0.7038 -2.1880
  940MOL0     H26857   1.641   5.625   8.351  4.6446  0.5706  1.7435
  940MOL0     H26858   1.488   5.454   8.548  1.0361  0.5683  1.6541
  940MOL0     H26859   1.446   5.492   8.384 -1.4442  0.8711  0.6628
  940MOL0     H26860   1.323   5.789   8.692 -0.6476  0.4578 -4.2417
  940MOL0     H26861   1.009   5.835   8.794  1.1049  0.0723 -2.6453
  940MOL0     H26862   1.056   5.750   8.933  1.7039 -6.1597 -0.3372
  940MOL0     H26863   1.176   5.852   8.861  0.1398  0.1052 -2.7398
  940MOL0     H26864   0.707   5.319   8.864  0.3442 -2.4743 -3.7392
  940MOL0     H26865   0.472   5.317   8.897 -1.0939  2.1593  1.0941
  940MOL0     H26866   0.200   5.526   8.564 -0.1069  0.3086  0.8469
  940MOL0     H26867   0.298   5.388   8.518 -0.4233 -0.9136 -0.2900
  940MOL0     H26868   0.030   5.403   8.654 -0.4216 -1.7790  0.0137
  940MOL0     H26869   0.071   5.335   8.484  1.8375  0.7969 -0.5214
  940MOL0     H26870   0.142   5.207   8.750 -0.0763 -1.2611  0.0828
  940MOL0     H26871   0.206   5.167   8.584  0.3503  0.0215  0.1275
  940MOL0     H26872  -0.080   5.197   8.577  0.7366  0.6887 -0.4704
  940MOL0     H26873  -0.005   5.025   8.571  0.9041 -0.2004 -0.6872
  940MOL0     H26874  -0.187   5.102   8.732 -0.6262  0.1050  0.5842
  940MOL0     H26875  -0.069   5.184   8.828  4.5352 -1.8752  2.9485
  940MOL0     H26876  -0.073   4.876   8.767  0.0678  0.3460 -0.1415
  940MOL0     H26877   0.066   4.947   8.835  1.0487  1.2511 -2.5751
  940MOL0     H26878  -0.083   5.020   9.032  1.4617 -1.8111  1.8340
  940MOL0     H26879  -0.089   4.851   9.020 -0.3567 -2.1617 -2.9881
  940MOL0     H26880  -0.322   4.889   8.889  0.9684  1.9302 -2.0535
  940MOL0     H26881  -0.294   5.052   8.941 -1.8514 -0.3996 -1.8932
  940MOL0     H26882   0.433   5.584   8.548  1.3957  0.0754 -1.9640
  940MOL0     H26883   0.693   5.609   8.553 -0.0144 -0.2953  0.0943
  940MOL0     H26884   1.059   5.387   8.574 -1.3466 -0.5492  3.5126
  940MOL0     H26885   1.271   5.434   8.492  0.6583  0.6608  0.4070
  940MOL0     H26886   2.286   5.624   9.615 -2.9274 -0.1762  1.3200
  940MOL0     H26887   2.499   5.750   9.619 -1.6013  0.1379 -1.5237
  940MOL0     H26888   2.848   5.860   9.673  1.3692 -1.1412  0.0516
  940MOL0     H26889   3.038   5.958   9.599  0.6322 -1.5891  1.0031
  940MOL0     H26890   3.214   6.088   9.574 -0.2998 -1.5539  0.5592
  940MOL0     H26891   3.093   6.205   9.618 -0.2972 -0.6537  0.9332
  940MOL0     H26892   3.279   6.333   9.519 -2.5313  0.9806  1.1223
  940MOL0     H26893   3.391   6.258   9.640  0.0194 -1.9525 -0.0197
  940MOL0     H26894   3.352   6.473   9.737 -1.7631  1.2731  0.2767
  940MOL0     H26895   3.241   6.380   9.819  2.1070 -0.5487 -0.4856
  940MOL0     H26896   3.073   6.432   9.648  1.5613 -2.2305  0.6678
  940MOL0     H26897   3.182   6.560   9.587  0.0653 -0.4534 -0.7225
  940MOL0     H26898   2.992   6.693   9.948 -2.0793 -2.8069 -0.0743
  940MOL0     H26899   3.116   6.061  10.011  0.4594 -1.0996  0.7394
  940MOL0     H26900   2.935   5.921  10.073  2.0057  1.6100  0.5145
  941MOL0     O26901  10.649   2.412   3.646 -0.1919 -0.1020 -0.6066
  941MOL0     C26902  10.761   2.435   3.691 -0.7211 -1.2789  0.2815
  941MOL0     O26903  10.820   2.369   3.795  0.4034 -0.0347 -0.1868
  941MOL0     C26904  10.767   2.243   3.816  0.2171 -0.0138  1.0544
  941MOL0     C26905  10.778   2.143   3.720 -0.4342 -0.1672 -0.1252
  941MOL0     C26906  10.702   2.021   3.737 -0.8061 -0.4009  0.4711
  941MOL0     C26907  10.640   1.995   3.869  0.3045  0.0691  0.3093
  941MOL0     O26908  10.596   1.876   3.920  0.7017  0.5168 -0.0934
  941MOL0     C26909  10.590   1.765   3.825  0.2086 -0.2737  0.3605
  941MOL0     C26910  10.520   1.645   3.898  0.5005 -0.7017  0.1564
  941MOL0     C26911  10.527   1.515   3.828 -1.1168  0.8958 -0.8130
  941MOL0     C26912  10.464   1.519   3.692  0.2596  0.2640 -0.0717
  941MOL0     C26913  10.564   1.491   3.577 -1.0312  0.1084  1.2226
  941MOL0     C26914  10.477   1.464   3.449 -0.9540 -0.3136 -0.1677
  941MOL0     C26915  10.407   1.591   3.387  0.1324  0.4225 -0.2544
  941MOL0     C26916  10.498   1.692   3.333  0.2614 -0.4005  0.6840
  941MOL0     N26917  10.595   1.633   3.240  0.2566  0.3018 -0.5204
  941MOL0     C26918  10.569   1.531   3.150  0.1902  0.2749 -0.4632
  941MOL0     C26919  10.669   1.527   3.068 -1.1291 -0.5041  0.8334
  941MOL0     C26920  10.696   1.437   2.940 -0.3324 -1.3546 -0.3797
  941MOL0     C26921  10.770   1.309   2.981 -0.3127 -0.6634  0.0808
  941MOL0     C26922  10.660   1.224   3.058 -0.0096 -0.0139  0.3574
  941MOL0     C26923  10.529   1.186   2.981 -0.6596  0.2270 -0.4522
  941MOL0     O26924  10.478   1.058   3.027 -0.9827  0.7913  0.3584
  941MOL0     C26925  10.436   1.037   3.158 -0.2378  1.0238  0.1970
  941MOL0     C26926  10.346   1.119   3.224  0.0980  0.0726 -0.5745
  941MOL0     C26927  10.318   1.095   3.360 -0.2035  0.1378 -0.4706
  941MOL0     C26928  10.210   1.185   3.423 -0.7387 -0.0808 -0.2983
  941MOL0     C26929  10.383   0.990   3.437  1.0762  0.5772 -0.0505
  941MOL0     C26930  10.372   0.957   3.583  0.0902  0.6373 -0.3363
  941MOL0     O26931  10.387   0.825   3.625  0.1589  0.0399  0.6237
  941MOL0     C26932  10.423   0.812   3.752 -0.5238  0.8053  0.1451
  941MOL0     C26933  10.554   0.831   3.789 -0.5623  0.9315  1.1898
  941MOL0     C26934  10.601   0.817   3.918  0.5532  0.1502  0.7823
  941MOL0     C26935  10.508   0.756   4.013 -0.4734 -0.0054  0.4272
  941MOL0     O26936  10.568   0.724   4.134  0.0996 -0.0038  0.1678
  941MOL0     C26937  10.483   0.666   4.240 -0.1729  0.2310 -0.8360
  941MOL0     C26938  10.578   0.636   4.354  0.0923  0.7203  0.1106
  941MOL0     C26939  10.624   0.763   4.421 -0.3815  0.3989 -0.9345
  941MOL0     C26940  10.758   0.756   4.500  0.5214  1.2374  0.0708
  941MOL0     C26941  10.805   0.899   4.558 -0.2442  0.1866 -0.3369
  941MOL0     C26942  10.953   0.927   4.589  0.1781 -0.1668 -0.4955
  941MOL0     C26943  11.016   0.827   4.687 -0.0736  0.3077  0.8496
  941MOL0     C26944  10.987   0.846   4.833 -0.0588 -0.2062  0.0374
  941MOL0    Cl26945  11.113   0.782   4.932 -0.0955  0.1274 -0.3989
  941MOL0     C26946  10.380   0.731   3.974  0.9803  0.0211  0.2990
  941MOL0     C26947  10.334   0.761   3.844  0.0108 -0.0390  0.1136
  941MOL0     O26948  10.367   1.054   3.659 -0.2268  0.3273  0.0947
  941MOL0     C26949  10.481   0.926   3.362 -0.5200  0.7522  0.2447
  941MOL0     C26950  10.513   0.946   3.230 -0.2683  0.1973 -0.9113
  941MOL0     N26951  10.762   1.624   3.112 -0.1658 -0.2871  0.0052
  941MOL0     N26952  10.713   1.686   3.211 -0.1935 -0.5590 -0.3655
  941MOL0     C26953  10.634   2.100   3.963 -0.7773  1.1440  0.6397
  941MOL0     C26954  10.700   2.223   3.934  0.6429  0.7917  0.0789
  941MOL0     C26955  10.841   2.530   3.619  1.1132  0.2759 -0.3056
  941MOL0     C26956  10.979   2.531   3.642  0.2628 -0.4813 -0.3684
  941MOL0     C26957  11.062   2.622   3.571  0.5326  0.0816 -0.5794
  941MOL0     C26958  11.011   2.704   3.471 -0.0215 -0.0843 -0.8172
  941MOL0     O26959  11.098   2.800   3.421  0.0234  0.3644  0.3759
  941MOL0     C26960  11.071   2.858   3.295  0.4805  1.1349  0.3423
  941MOL0     C26961  11.196   2.905   3.226  0.3139 -0.1512  0.6064
  941MOL0     C26962  11.256   3.009   3.309  0.2863 -0.9669  0.7058
  941MOL0     C26963  11.395   3.051   3.253 -0.3281 -0.4585 -0.0840
  941MOL0     C26964  11.492   2.960   3.307 -0.6419  0.2412 -0.0184
  941MOL0     C26965  11.576   2.886   3.359  0.9517 -0.1865  0.2063
  941MOL0     C26966  10.876   2.695   3.443 -0.5758  0.1774  0.2430
  941MOL0     C26967  10.786   2.606   3.512  0.3134  0.3672  0.2011
  941MOL0     H26968  10.830   2.148   3.624  2.2631  1.2373  1.3011
  941MOL0     H26969  10.697   1.949   3.657 -2.4169 -2.2313  2.1301
  941MOL0     H26970  10.524   1.798   3.743  0.7289  1.3927  0.5662
  941MOL0     H26971  10.684   1.739   3.776 -1.7239  0.6696 -4.5119
  941MOL0     H26972  10.576   1.625   3.989 -0.9780 -2.4293  0.7550
  941MOL0     H26973  10.419   1.672   3.930 -0.5799 -4.9688  0.9625
  941MOL0     H26974  10.631   1.483   3.814 -0.9355  0.2736  1.4939
  941MOL0     H26975  10.477   1.445   3.895 -2.2205  1.1445 -1.3680
  941MOL0     H26976  10.385   1.443   3.699  0.9236 -0.3646  0.8831
  941MOL0     H26977  10.425   1.620   3.673 -0.9721  0.2143  1.8598
  941MOL0     H26978  10.645   1.560   3.552 -0.1909 -1.5674 -1.0408
  941MOL0     H26979  10.616   1.399   3.605 -0.6138 -0.0794 -0.0956
  941MOL0     H26980  10.532   1.412   3.370 -0.4741 -0.5255  0.3028
  941MOL0     H26981  10.394   1.398   3.477 -2.3441  1.7506  0.8537
  941MOL0     H26982  10.342   1.562   3.304  0.6071 -1.2514 -0.0639
  941MOL0     H26983  10.334   1.628   3.461 -0.5652 -1.2469 -0.0762
  941MOL0     H26984  10.539   1.737   3.424  1.8762 -2.7788  1.2188
  941MOL0     H26985  10.452   1.780   3.286  1.5547 -0.4072 -0.6595
  941MOL0     H26986  10.476   1.475   3.142 -0.1123  0.2003  2.5537
  941MOL0     H26987  10.599   1.405   2.900 -1.0491 -0.6438  0.7352
  941MOL0     H26988  10.743   1.502   2.866  0.6927 -1.4230  0.1898
  941MOL0     H26989  10.848   1.341   3.051 -3.7635  1.4872  3.3331
  941MOL0     H26990  10.814   1.252   2.899 -1.8676  0.3886 -1.5557
  941MOL0     H26991  10.643   1.280   3.150  1.1208 -0.1857  0.6851
  941MOL0     H26992  10.706   1.130   3.090  1.2876  0.5308  0.1459
  941MOL0     H26993  10.551   1.183   2.874  1.9605 -1.6631  0.0401
  941MOL0     H26994  10.454   1.265   2.993 -0.2507  1.0316 -2.6811
  941MOL0     H26995  10.309   1.198   3.160  0.2529 -0.5655 -1.4731
  941MOL0     H26996  10.235   1.192   3.529  0.3054 -0.6825 -0.4960
  941MOL0     H26997  10.213   1.292   3.400 -1.2739  1.5119  5.4783
  941MOL0     H26998  10.113   1.138   3.404  1.0870 -3.7347 -1.5084
  941MOL0     H26999  10.613   0.853   3.700  1.9464 -2.2672  1.8829
  941MOL0     H27000  10.705   0.841   3.936  1.2057 -3.2499  2.3849
  941MOL0     H27001  10.403   0.738   4.261  0.0783  0.6451 -1.2596
  941MOL0     H27002  10.441   0.575   4.197  1.2496  0.0569 -1.9248
  941MOL0     H27003  10.535   0.564   4.425 -0.1707  0.5080 -0.2611
  941MOL0     H27004  10.653   0.574   4.304  1.4235  2.9568 -0.8265
  941MOL0     H27005  10.548   0.802   4.489  0.8779  1.4847 -0.1119
  941MOL0     H27006  10.649   0.836   4.344 -1.8118  0.7259 -1.1135
  941MOL0     H27007  10.742   0.684   4.580 -4.8874  0.7023 -1.1126
  941MOL0     H27008  10.838   0.727   4.431  4.4605  1.6845  4.0354
  941MOL0     H27009  10.742   0.921   4.645  2.0896 -0.3557  1.5850
  941MOL0     H27010  10.777   0.986   4.498 -4.2497  0.7332  1.9506
  941MOL0     H27011  10.998   0.924   4.489  0.2045 -1.4707 -0.4662
  941MOL0     H27012  10.965   1.028   4.630  0.8956  0.0740 -1.2646
  941MOL0     H27013  11.124   0.837   4.674 -0.5335  3.2040 -1.8273
  941MOL0     H27014  10.980   0.728   4.657 -0.4896 -0.7465  4.3522
  941MOL0     H27015  10.894   0.795   4.859  0.5164 -1.8005 -0.9347
  941MOL0     H27016  10.979   0.954   4.851  0.4580  0.1018 -1.4417
  941MOL0     H27017  10.323   0.683   4.053 -0.0094  2.3334  1.0924
  941MOL0     H27018  10.231   0.732   3.825 -0.1728  0.8473 -0.2974
  941MOL0     H27019  10.547   0.848   3.398 -1.4916 -1.2911 -2.1298
  941MOL0     H27020  10.584   0.876   3.188 -0.6411  1.2609 -3.4887
  941MOL0     H27021  10.585   2.083   4.058 -2.5898  4.1877  0.3802
  941MOL0     H27022  10.690   2.308   4.001 -3.2388  1.4302 -1.0765
  941MOL0     H27023  11.037   2.488   3.723  1.6264  2.1578  0.1812
  941MOL0     H27024  11.168   2.627   3.594  0.0623 -0.9614  2.2047
  941MOL0     H27025  11.025   2.775   3.241  1.6417 -0.2758  1.4359
  941MOL0     H27026  10.999   2.939   3.312  0.4992  0.7679  2.5013
  941MOL0     H27027  11.160   2.931   3.126  0.3003  2.0589  1.1493
  941MOL0     H27028  11.266   2.822   3.208  1.6830  1.4709 -2.3129
  941MOL0     H27029  11.267   2.979   3.413  0.7087 -0.5256  0.7957
  941MOL0     H27030  11.190   3.096   3.317 -0.0057 -1.3366  2.9816
  941MOL0     H27031  11.408   3.151   3.293  1.8047 -0.4259 -0.7500
  941MOL0     H27032  11.398   3.049   3.143 -0.4503  2.4180 -0.2002
  941MOL0     H27033  11.653   2.823   3.398  0.8142  0.8096  2.1832
  941MOL0     H27034  10.826   2.764   3.375 -0.3740  3.0566  2.8027
  941MOL0     H27035  10.680   2.616   3.490  0.3773  0.5679 -0.0217
  942MOL0     O27036  10.363   7.309   4.303  0.4224  0.3380 -0.8456
  942MOL0     C27037  10.464   7.279   4.235 -0.6702 -1.2156 -0.2945
  942MOL0     O27038  10.576   7.352   4.219 -0.1799 -0.3152  0.0400
  942MOL0     C27039  10.580   7.472   4.291 -0.4780  0.4398 -0.7072
  942MOL0     C27040  10.589   7.600   4.224 -0.2631  0.9696 -0.2562
  942MOL0     C27041  10.612   7.706   4.297 -0.0931 -0.7820 -0.1663
  942MOL0     C27042  10.616   7.708   4.436  0.8899  0.6342  0.1063
  942MOL0     O27043  10.657   7.806   4.521  0.2038 -0.2125 -0.7786
  942MOL0     C27044  10.665   7.947   4.469  0.2423 -0.0886 -0.0008
  942MOL0     C27045  10.621   8.036   4.587  0.2743 -0.2389 -0.1264
  942MOL0     C27046  10.613   8.186   4.539 -0.6299 -0.7507  0.3678
  942MOL0     C27047  10.615   8.280   4.657  0.5064 -0.1177  0.7551
  942MOL0     C27048  10.482   8.318   4.719  0.5749 -1.2660  0.2512
  942MOL0     C27049  10.487   8.388   4.859 -1.1347  0.5840  0.0576
  942MOL0     C27050  10.537   8.289   4.974 -0.1567 -0.5368  0.4395
  942MOL0     C27051  10.436   8.185   5.008  0.3668  0.5906  0.4390
  942MOL0     N27052  10.483   8.080   5.104 -0.2068  0.6253 -0.1893
  942MOL0     C27053  10.504   7.944   5.070  0.3059 -0.1187 -0.2636
  942MOL0     C27054  10.553   7.897   5.184 -0.0989  0.8048 -0.0177
  942MOL0     C27055  10.577   7.761   5.239  0.8471 -0.5142 -0.4662
  942MOL0     C27056  10.718   7.715   5.260  1.0220 -0.5924 -0.3857
  942MOL0     C27057  10.713   7.556   5.247 -0.8559 -0.6443  0.1014
  942MOL0     C27058  10.636   7.483   5.362  0.7793  0.8047 -0.4139
  942MOL0     O27059  10.716   7.477   5.484  0.2859 -0.1934  0.7127
  942MOL0     C27060  10.639   7.472   5.593 -0.4734 -0.2924  0.1281
  942MOL0     C27061  10.607   7.345   5.637  0.3872 -1.0042  0.4350
  942MOL0     C27062  10.532   7.322   5.757 -0.2377 -0.4785  0.2328
  942MOL0     C27063  10.494   7.184   5.793  0.1357 -0.0406  0.8532
  942MOL0     C27064  10.472   7.437   5.821  0.0794  0.4372  0.9626
  942MOL0     C27065  10.368   7.433   5.917 -0.6312  0.6707 -0.5194
  942MOL0     O27066  10.291   7.550   5.922 -0.5846  0.3796  0.8361
  942MOL0     C27067  10.230   7.582   6.040 -0.0759  0.2234  0.2592
  942MOL0     C27068  10.093   7.578   6.048 -0.5300  0.1938 -1.4136
  942MOL0     C27069  10.037   7.607   6.182 -0.5970 -0.1037  0.0771
  942MOL0     C27070  10.115   7.625   6.295 -0.3891  0.8917 -0.2112
  942MOL0     O27071  10.061   7.648   6.412  0.0651 -0.0754 -0.3874
  942MOL0     C27072  10.021   7.528   6.478  0.9875  1.1037 -0.4586
  942MOL0     C27073   9.876   7.501   6.467  0.0889  0.3766  0.7589
  942MOL0     C27074   9.833   7.398   6.567  0.6753 -0.0375 -0.4433
  942MOL0     C27075   9.679   7.405   6.593  0.6752 -0.1480  0.0702
  942MOL0     C27076   9.654   7.510   6.704 -0.6715  0.1301  0.4402
  942MOL0     C27077   9.516   7.524   6.753 -0.7623  0.4717  0.3214
  942MOL0     C27078   9.504   7.642   6.848 -2.1672 -0.5579  0.3808
  942MOL0     C27079   9.365   7.656   6.895  0.0242  0.8961  0.0904
  942MOL0    Cl27080   9.306   7.504   6.978 -0.1048 -0.1861 -0.3061
  942MOL0     C27081  10.251   7.629   6.275 -0.1580 -0.4771 -0.3522
  942MOL0     C27082  10.311   7.607   6.147 -0.8779  0.1641  0.0685
  942MOL0     O27083  10.366   7.344   6.006  0.2557  0.5197  0.1117
  942MOL0     C27084  10.515   7.560   5.772 -0.1846 -0.1480  0.2316
  942MOL0     C27085  10.596   7.581   5.662 -0.5339 -0.7341  0.0620
  942MOL0     N27086  10.583   8.000   5.261 -0.8638 -0.0463 -0.4092
  942MOL0     N27087  10.528   8.112   5.226 -0.3741  0.4294 -0.3476
  942MOL0     C27088  10.591   7.587   4.498 -0.2092 -0.0887  0.2137
  942MOL0     C27089  10.578   7.467   4.428 -0.5811 -0.0937 -1.0769
  942MOL0     C27090  10.445   7.157   4.148 -0.1347  1.2205 -0.7490
  942MOL0     C27091  10.326   7.098   4.127 -0.2841  0.4922  0.8601
  942MOL0     C27092  10.302   6.975   4.059  0.4914  0.7013  0.3792
  942MOL0     C27093  10.417   6.905   4.002  0.3791 -0.7929 -0.8109
  942MOL0     O27094  10.393   6.787   3.931  0.0769  0.1068  0.3590
  942MOL0     C27095  10.503   6.720   3.865 -0.9900  0.1781 -0.1313
  942MOL0     C27096  10.572   6.767   3.743 -0.1161 -0.4740 -0.7963
  942MOL0     C27097  10.472   6.820   3.646  0.9856 -0.3095  0.6466
  942MOL0     C27098  10.521   6.801   3.511 -0.3168  0.5808 -0.7182
  942MOL0     C27099  10.437   6.836   3.392  0.7297  0.3322 -0.2529
  942MOL0     C27100  10.366   6.867   3.302  0.2400  0.1936 -0.6642
  942MOL0     C27101  10.545   6.967   4.032  0.0590  0.1929  0.5777
  942MOL0     C27102  10.555   7.090   4.099 -0.3238  0.3234  0.6050
  942MOL0     H27103  10.581   7.599   4.116 -0.5126 -1.1169 -0.2610
  942MOL0     H27104  10.628   7.788   4.229  0.0623  0.1429  0.9526
  942MOL0     H27105  10.763   7.981   4.434  1.6790 -0.7896  3.0167
  942MOL0     H27106  10.601   7.967   4.382 -1.8664 -0.2760  1.4304
  942MOL0     H27107  10.536   7.997   4.643  1.2590 -0.4927  1.2297
  942MOL0     H27108  10.706   8.043   4.655 -1.1074  0.8059  1.5866
  942MOL0     H27109  10.694   8.197   4.466 -3.6903  0.4763 -3.1322
  942MOL0     H27110  10.521   8.218   4.491  0.8121  3.1559 -0.1541
  942MOL0     H27111  10.688   8.242   4.729  0.1918  1.7893  2.1547
  942MOL0     H27112  10.653   8.369   4.606 -0.7261 -1.8225 -3.5460
  942MOL0     H27113  10.415   8.381   4.660 -0.8944 -2.9990 -0.0005
  942MOL0     H27114  10.419   8.231   4.740 -3.2150  1.3225  0.5912
  942MOL0     H27115  10.551   8.475   4.844 -0.9495  0.5486  0.6041
  942MOL0     H27116  10.384   8.415   4.887 -1.8255 -1.8845  0.1763
  942MOL0     H27117  10.631   8.242   4.944 -0.8226 -1.3481 -0.4906
  942MOL0     H27118  10.573   8.337   5.065  1.1478  0.9007 -0.7871
  942MOL0     H27119  10.418   8.125   4.918  0.0975 -0.8102  1.3944
  942MOL0     H27120  10.344   8.230   5.046  0.7449 -0.3022  2.5547
  942MOL0     H27121  10.473   7.892   4.980 -3.8314  0.2925  0.6865
  942MOL0     H27122  10.534   7.763   5.340  3.9890  0.0550  0.9856
  942MOL0     H27123  10.519   7.699   5.171 -0.9296  1.2611 -0.6860
  942MOL0     H27124  10.754   7.753   5.356 -3.7337  1.5620  0.8140
  942MOL0     H27125  10.777   7.758   5.178  2.1225 -1.0239  0.1649
  942MOL0     H27126  10.815   7.515   5.250 -0.1061  0.9789 -1.5871
  942MOL0     H27127  10.675   7.530   5.148 -0.4787  0.9840 -0.4986
  942MOL0     H27128  10.619   7.378   5.336 -2.7430  0.5189  2.3479
  942MOL0     H27129  10.541   7.536   5.370  1.7003  2.3913  0.4850
  942MOL0     H27130  10.650   7.256   5.592  0.0969 -0.8831 -0.0884
  942MOL0     H27131  10.544   7.139   5.879  2.4822 -1.7037 -1.2172
  942MOL0     H27132  10.387   7.172   5.816  0.1609 -2.9015 -0.1470
  942MOL0     H27133  10.512   7.126   5.702  0.5631  0.3717  0.6707
  942MOL0     H27134  10.039   7.548   5.958 -2.6330 -0.6585  0.0559
  942MOL0     H27135   9.929   7.608   6.190 -0.4700 -0.5455  3.4750
  942MOL0     H27136  10.087   7.444   6.456 -1.4890 -1.2533  0.5314
  942MOL0     H27137  10.037   7.549   6.584  0.1211  3.4335 -0.7430
  942MOL0     H27138   9.821   7.594   6.486 -2.4490 -1.2761  2.0268
  942MOL0     H27139   9.856   7.462   6.367 -0.4145 -0.3451  1.1360
  942MOL0     H27140   9.888   7.402   6.661  2.3731 -2.5248 -1.2436
  942MOL0     H27141   9.858   7.298   6.530 -2.4078 -1.2073  0.2651
  942MOL0     H27142   9.630   7.431   6.499  4.0001 -0.0016 -1.7742
  942MOL0     H27143   9.639   7.310   6.631  2.1520 -1.1450 -0.7720
  942MOL0     H27144   9.686   7.602   6.655  1.2934 -0.3672  0.6786
  942MOL0     H27145   9.711   7.472   6.790  0.1032  1.4969  0.5644
  942MOL0     H27146   9.446   7.536   6.670 -3.1567  0.2465  2.1948
  942MOL0     H27147   9.491   7.433   6.808 -0.8680  0.9645  1.1114
  942MOL0     H27148   9.534   7.735   6.798 -2.8387 -0.1335  0.7364
  942MOL0     H27149   9.561   7.634   6.941 -5.5293 -3.0676  2.4518
  942MOL0     H27150   9.301   7.686   6.811 -1.3728 -2.3238 -0.1577
  942MOL0     H27151   9.358   7.736   6.970 -0.2869  0.2329  0.7882
  942MOL0     H27152  10.306   7.634   6.369 -1.8218  1.1943  0.6042
  942MOL0     H27153  10.418   7.597   6.131 -0.8741 -0.4997  0.4782
  942MOL0     H27154  10.474   7.654   5.807 -1.9047 -1.2192  1.2872
  942MOL0     H27155  10.614   7.685   5.637  0.1648 -1.3668 -2.4092
  942MOL0     H27156  10.593   7.573   4.606 -0.5739 -3.8185 -0.1437
  942MOL0     H27157  10.578   7.371   4.480  2.1152 -0.1504 -0.9991
  942MOL0     H27158  10.246   7.164   4.160 -0.6699  0.3610  0.2147
  942MOL0     H27159  10.212   6.917   4.048  1.5099 -0.4629 -3.2389
  942MOL0     H27160  10.582   6.694   3.936 -0.9082  0.1552 -0.2311
  942MOL0     H27161  10.466   6.620   3.841 -0.4048 -0.1745  0.4124
  942MOL0     H27162  10.627   6.677   3.712  0.3318 -0.7626  0.7788
  942MOL0     H27163  10.638   6.849   3.774  1.3122 -1.9392  0.2464
  942MOL0     H27164  10.446   6.925   3.665 -0.0288 -0.0032 -2.0000
  942MOL0     H27165  10.375   6.769   3.640 -0.1436  1.9237 -2.4047
  942MOL0     H27166  10.544   6.696   3.493  1.3262  1.1269 -2.0319
  942MOL0     H27167  10.610   6.866   3.510 -1.3339  2.0475 -0.2126
  942MOL0     H27168  10.305   6.893   3.217  0.9657 -2.4208 -2.0851
  942MOL0     H27169  10.632   6.903   4.023 -0.6257 -0.8204  0.8667
  942MOL0     H27170  10.654   7.127   4.127 -1.2890  1.4199  2.8556
  943MOL0     O27171   8.012   9.350   0.336 -0.0341  0.1400  0.0936
  943MOL0     C27172   7.933   9.305   0.252 -0.6383  0.2932 -0.9152
  943MOL0     O27173   7.821   9.239   0.282 -0.5845 -0.0876 -0.1555
  943MOL0     C27174   7.786   9.212   0.415 -0.3350 -0.5958 -0.0540
  943MOL0     C27175   7.879   9.188   0.524  0.6258  0.4513  0.2182
  943MOL0     C27176   7.826   9.153   0.648  0.2207 -0.8439  0.8323
  943MOL0     C27177   7.689   9.175   0.685 -0.3402 -1.0091  0.3971
  943MOL0     O27178   7.639   9.163   0.813  0.0573 -1.3224  0.0530
  943MOL0     C27179   7.724   9.170   0.926 -0.7309 -0.5663  0.6048
  943MOL0     C27180   7.625   9.145   1.039  0.0510  0.8095 -0.0997
  943MOL0     C27181   7.564   9.282   1.076  0.4038 -0.4012  0.0204
  943MOL0     C27182   7.467   9.274   1.191 -0.8052  0.2095  0.8428
  943MOL0     C27183   7.325   9.244   1.164  0.5644 -0.3034 -0.1728
  943MOL0     C27184   7.254   9.362   1.100 -1.2634 -0.0905 -0.8844
  943MOL0     C27185   7.114   9.333   1.057 -0.2147  0.4812 -0.4786
  943MOL0     C27186   7.131   9.241   0.940 -0.3708  0.1669  0.2322
  943MOL0     N27187   6.998   9.197   0.904 -1.2099 -0.1944 -1.5050
  943MOL0     C27188   6.905   9.275   0.836 -0.2384  1.1157 -0.4074
  943MOL0     C27189   6.798   9.194   0.825 -0.2756 -0.1458  0.0406
  943MOL0     C27190   6.686   9.226   0.740  0.3501 -0.8214  0.9587
  943MOL0     C27191   6.552   9.157   0.790 -0.8029  0.5430  0.4472
  943MOL0     C27192   6.432   9.231   0.729  0.9283 -0.8287 -0.1575
  943MOL0     C27193   6.304   9.157   0.779 -0.1175 -0.2472 -0.2114
  943MOL0     O27194   6.186   9.230   0.728 -0.1329 -0.8125 -0.4115
  943MOL0     C27195   6.078   9.158   0.718 -0.0295  0.1077 -0.2424
  943MOL0     C27196   5.979   9.201   0.646 -0.3434  0.0200  0.2686
  943MOL0     C27197   5.862   9.122   0.622  0.6430  0.2352  0.8365
  943MOL0     C27198   5.759   9.197   0.522  0.2569 -0.1467 -1.2734
  943MOL0     C27199   5.840   8.994   0.691  0.4515 -0.5742  0.4065
  943MOL0     C27200   5.717   8.901   0.668  0.0510 -0.3378 -1.1920
  943MOL0     O27201   5.733   8.768   0.684 -0.3787  0.2307 -0.9895
  943MOL0     C27202   5.646   8.668   0.650  0.6397  0.2150  0.5656
  943MOL0     C27203   5.514   8.680   0.596 -0.4307 -0.0969  0.6606
  943MOL0     C27204   5.441   8.566   0.573  1.2045  0.4245 -1.3449
  943MOL0     C27205   5.481   8.435   0.605  0.8453 -0.1258 -0.3572
  943MOL0     O27206   5.393   8.328   0.571  0.5932  0.2155  0.8722
  943MOL0     C27207   5.250   8.344   0.608  0.6313  1.0286  0.0031
  943MOL0     C27208   5.229   8.350   0.760  0.8954 -0.6976 -0.6225
  943MOL0     C27209   5.076   8.320   0.796  0.1227  0.3388 -1.2181
  943MOL0     C27210   5.060   8.298   0.952  0.1484 -0.0050  0.0755
  943MOL0     C27211   4.935   8.214   0.982 -0.8776 -0.5558 -0.3803
  943MOL0     C27212   4.913   8.261   1.132 -0.5907 -0.4292 -0.1299
  943MOL0     C27213   4.834   8.151   1.210  0.1209 -0.1091 -0.6022
  943MOL0     C27214   4.903   8.124   1.347 -0.3114  0.7146 -0.1421
  943MOL0    Cl27215   4.873   8.241   1.463  0.1267  0.0226 -0.1513
  943MOL0     C27216   5.613   8.425   0.651  0.7334  0.3511  0.0435
  943MOL0     C27217   5.696   8.535   0.665  0.3677 -0.5341 -0.0263
  943MOL0     O27218   5.615   8.961   0.635  0.3126  0.4366 -0.4147
  943MOL0     C27219   5.941   8.956   0.774  0.0483  0.0103 -0.0047
  943MOL0     C27220   6.065   9.033   0.786  0.1020  0.1398  0.2995
  943MOL0     N27221   6.825   9.074   0.885  0.3171 -0.6537 -0.5039
  943MOL0     N27222   6.949   9.080   0.934 -0.2335 -0.4616 -1.0458
  943MOL0     C27223   7.601   9.202   0.579  0.0463 -0.2826 -0.5894
  943MOL0     C27224   7.648   9.222   0.447  0.4219 -0.8850  0.4822
  943MOL0     C27225   7.947   9.350   0.114  0.5191 -0.5225 -0.3687
  943MOL0     C27226   7.841   9.334   0.016  0.1265 -0.7139 -0.6728
  943MOL0     C27227   7.852   9.377  -0.111 -0.1571 -0.4916  0.7739
  943MOL0     C27228   7.977   9.424  -0.156 -0.3280  0.4296 -0.1971
  943MOL0     O27229   7.993   9.459  -0.284  0.7712  0.6157  0.1834
  943MOL0     C27230   7.926   9.381  -0.385 -0.1851  0.2188  0.2339
  943MOL0     C27231   8.040   9.300  -0.464  0.1402 -0.5473 -0.1681
  943MOL0     C27232   8.135   9.400  -0.524 -0.0043 -0.7790  0.8246
  943MOL0     C27233   8.216   9.357  -0.644 -0.5120  0.2996  0.0926
  943MOL0     C27234   8.306   9.242  -0.610  0.4769  0.3422  0.1071
  943MOL0     C27235   8.369   9.140  -0.575  0.3163  0.3851 -0.2731
  943MOL0     C27236   8.087   9.422  -0.074  0.3056 -0.0894 -0.5714
  943MOL0     C27237   8.074   9.385   0.066  0.0054  0.2364 -0.0212
  943MOL0     H27238   7.985   9.176   0.507  0.5292 -1.1357  0.5932
  943MOL0     H27239   7.903   9.126   0.720 -0.4937  1.7940  2.7641
  943MOL0     H27240   7.795   9.086   0.926  0.8464  0.7013 -0.9875
  943MOL0     H27241   7.785   9.259   0.945  1.2031 -1.7159  0.1291
  943MOL0     H27242   7.542   9.080   1.009 -0.2402  2.3324 -3.0348
  943MOL0     H27243   7.674   9.100   1.125 -4.2122  2.1383  3.3891
  943MOL0     H27244   7.651   9.331   1.123 -0.5741  2.5919 -1.0833
  943MOL0     H27245   7.538   9.337   0.985  2.1449 -1.4594 -1.1845
  943MOL0     H27246   7.503   9.185   1.244 -0.5325 -0.3869 -0.3051
  943MOL0     H27247   7.461   9.358   1.260 -0.7016 -0.9825  2.3630
  943MOL0     H27248   7.329   9.155   1.100  3.4357 -0.1713 -0.2945
  943MOL0     H27249   7.268   9.228   1.256  1.2725 -0.8862  0.1766
  943MOL0     H27250   7.240   9.431   1.184 -2.7028 -3.8495  2.2962
  943MOL0     H27251   7.317   9.405   1.022 -0.1116 -2.4871 -1.3782
  943MOL0     H27252   7.062   9.293   1.145  2.2902  0.5167  1.1259
  943MOL0     H27253   7.055   9.414   1.013 -1.2708  0.5292  0.9240
  943MOL0     H27254   7.206   9.162   0.948  0.3277  0.8638  0.6351
  943MOL0     H27255   7.169   9.304   0.859 -0.2216  1.3939  1.2194
  943MOL0     H27256   6.911   9.377   0.801 -0.1836  1.0195 -0.6871
  943MOL0     H27257   6.678   9.335   0.736 -2.0489 -0.9548  0.4588
  943MOL0     H27258   6.719   9.189   0.643  2.6051 -1.5059  1.9059
  943MOL0     H27259   6.549   9.166   0.899  1.6201 -3.3458  1.0220
  943MOL0     H27260   6.561   9.049   0.776  0.6664  0.4792  1.5797
  943MOL0     H27261   6.449   9.207   0.624  0.6809 -0.7181 -0.2239
  943MOL0     H27262   6.420   9.339   0.742  3.3746 -0.5746  0.4669
  943MOL0     H27263   6.291   9.169   0.887 -0.0876 -1.6792 -0.0373
  943MOL0     H27264   6.309   9.050   0.757 -1.3427 -0.4157  0.2765
  943MOL0     H27265   5.989   9.299   0.601  2.3494  0.0557  0.7925
  943MOL0     H27266   5.673   9.145   0.481  0.5300 -0.7740 -1.0633
  943MOL0     H27267   5.728   9.293   0.564  0.1113 -0.5840 -0.3596
  943MOL0     H27268   5.812   9.227   0.431 -0.9372  2.7028 -1.1458
  943MOL0     H27269   5.464   8.775   0.587 -2.4139 -0.9818  1.8223
  943MOL0     H27270   5.338   8.588   0.545  0.5366 -0.1039  0.5463
  943MOL0     H27271   5.189   8.412   0.547  0.7963 -0.2437 -1.6447
  943MOL0     H27272   5.210   8.244   0.587  2.0458  0.7426 -1.5100
  943MOL0     H27273   5.299   8.274   0.797  1.5902 -0.2334 -0.9688
  943MOL0     H27274   5.250   8.445   0.810  1.0451 -1.5672  1.0482
  943MOL0     H27275   5.039   8.230   0.746  5.0394 -1.4363 -2.1912
  943MOL0     H27276   5.016   8.404   0.762 -1.2152  1.1377  2.5977
  943MOL0     H27277   5.151   8.251   0.991  1.6234  1.5865 -1.2455
  943MOL0     H27278   5.052   8.399   0.993  1.5993 -0.5764  1.9090
  943MOL0     H27279   4.970   8.110   0.990  3.5550  0.7428  0.0932
  943MOL0     H27280   4.847   8.227   0.919 -1.5247 -0.4395  0.5374
  943MOL0     H27281   5.015   8.264   1.171 -0.3821 -2.0442 -0.4809
  943MOL0     H27282   4.870   8.361   1.145  2.4799  0.8757  0.7549
  943MOL0     H27283   4.816   8.065   1.145  2.2362 -0.4803 -0.7850
  943MOL0     H27284   4.740   8.204   1.227  0.0834 -0.6730  1.2031
  943MOL0     H27285   5.012   8.118   1.342 -0.1756  0.7783  1.9929
  943MOL0     H27286   4.862   8.031   1.387  1.1813  0.1592  0.1675
  943MOL0     H27287   5.632   8.319   0.664 -1.3700  0.1371  2.1143
  943MOL0     H27288   5.799   8.534   0.698 -1.2454 -3.1986  6.9343
  943MOL0     H27289   5.944   8.868   0.836  1.1338 -2.2590 -3.0131
  943MOL0     H27290   6.132   9.000   0.865  3.7799  0.1659 -2.5069
  943MOL0     H27291   7.498   9.194   0.613 -0.1125  0.9082 -0.7595
  943MOL0     H27292   7.586   9.260   0.367  1.5136 -2.6712 -1.3101
  943MOL0     H27293   7.746   9.293   0.050 -1.2897  1.5356 -1.6963
  943MOL0     H27294   7.760   9.370  -0.167 -0.5188  1.8144  0.9842
  943MOL0     H27295   7.857   9.307  -0.345  2.6784 -3.4203 -0.9321
  943MOL0     H27296   7.882   9.453  -0.454  0.9035  1.5212  0.8614
  943MOL0     H27297   7.996   9.235  -0.540  0.2548 -1.8310  0.8334
  943MOL0     H27298   8.093   9.233  -0.396  2.2877 -1.5507 -2.6880
  943MOL0     H27299   8.205   9.423  -0.442  0.7104  0.6259 -0.1293
  943MOL0     H27300   8.089   9.497  -0.548  4.0177  1.0376 -0.5198
  943MOL0     H27301   8.270   9.443  -0.685 -2.6574  1.2213 -0.9757
  943MOL0     H27302   8.139   9.320  -0.712 -0.3699 -0.3155  0.2642
  943MOL0     H27303   8.445   9.077  -0.533  2.7943  3.5599  0.4039
  943MOL0     H27304   8.186   9.442  -0.112  0.5087 -1.8037 -1.0479
  943MOL0     H27305   8.160   9.368   0.130 -0.3679 -1.8027  0.0076
  944MOL0     O27306   2.088   9.585   5.050 -0.2596 -0.4821  0.3559
  944MOL0     C27307   1.974   9.535   5.057  0.3458 -0.5290  0.3191
  944MOL0     O27308   1.905   9.511   5.174 -0.1030  0.3147  0.4627
  944MOL0     C27309   1.950   9.551   5.293  1.0121  0.3972 -0.9236
  944MOL0     C27310   1.898   9.666   5.338  0.3033 -0.1375  0.2682
  944MOL0     C27311   1.945   9.722   5.455 -0.0051 -1.1715 -0.6831
  944MOL0     C27312   2.049   9.655   5.524 -0.5147 -0.3861  0.3303
  944MOL0     O27313   2.083   9.701   5.650 -0.1860 -0.5030  0.4360
  944MOL0     C27314   2.212   9.670   5.716  0.1904 -0.5198  0.1457
  944MOL0     C27315   2.317   9.741   5.634 -0.3362  0.2067  0.0455
  944MOL0     C27316   2.298   9.891   5.654  0.1817 -1.1662 -0.3721
  944MOL0     C27317   2.429   9.963   5.611 -0.0353  0.1061 -0.7757
  944MOL0     C27318   2.405  10.104   5.557 -0.1511 -0.0641 -0.7265
  944MOL0     C27319   2.323  10.201   5.641  0.9173 -0.0498 -0.4145
  944MOL0     C27320   2.297  10.338   5.566  0.3345  0.5765 -0.0106
  944MOL0     C27321   2.401  10.447   5.611 -0.3741  0.5445  0.4848
  944MOL0     N27322   2.538  10.406   5.600 -0.6381  0.1292 -0.4721
  944MOL0     C27323   2.607  10.412   5.489 -0.0911  0.6882  0.1597
  944MOL0     C27324   2.738  10.382   5.514  0.0184 -0.4066 -0.0905
  944MOL0     C27325   2.850  10.387   5.414 -0.4818 -0.0201 -0.5000
  944MOL0     C27326   2.847  10.274   5.311  0.4415  0.4938 -0.2739
  944MOL0     C27327   2.958  10.296   5.206  0.5348 -0.2717 -0.3916
  944MOL0     C27328   3.086  10.368   5.243 -0.0009  0.2539 -0.4034
  944MOL0     O27329   3.164  10.292   5.338 -0.0252 -0.4479 -0.0327
  944MOL0     C27330   3.233  10.353   5.442 -0.3103 -0.3805 -0.5353
  944MOL0     C27331   3.268  10.485   5.443 -0.9607 -0.0532 -0.5720
  944MOL0     C27332   3.366  10.553   5.527 -0.1239  0.1627 -0.1558
  944MOL0     C27333   3.383  10.707   5.522  0.2903 -0.3315 -0.3179
  944MOL0     C27334   3.436  10.475   5.620 -0.7826  0.4499  0.7745
  944MOL0     C27335   3.547  10.525   5.701 -0.1031 -0.1265 -0.6145
  944MOL0     O27336   3.623  10.633   5.661 -0.7629  0.0853  0.3259
  944MOL0     C27337   3.709  10.692   5.744 -0.8203 -0.6801  0.2037
  944MOL0     C27338   3.698  10.703   5.880  0.4574  0.1601 -0.2784
  944MOL0     C27339   3.789  10.772   5.961  0.2437 -1.5365 -0.1433
  944MOL0     C27340   3.894  10.850   5.900 -0.1523 -1.0730 -0.0129
  944MOL0     O27341   3.951  10.936   5.987 -0.8255  0.0665  0.2609
  944MOL0     C27342   4.074  10.988   5.933  0.3646  0.2810 -0.0345
  944MOL0     C27343   4.109  11.122   6.009 -0.0879 -0.1995 -0.1861
  944MOL0     C27344   4.158  11.099   6.159 -0.3409 -0.8344 -0.4485
  944MOL0     C27345   4.311  11.078   6.196  0.5472 -1.1099 -0.9516
  944MOL0     C27346   4.410  11.193   6.161  0.0356  0.5943 -0.2807
  944MOL0     C27347   4.423  11.296   6.270 -0.2080 -0.7422 -0.5897
  944MOL0     C27348   4.542  11.405   6.239  0.1332  0.2923 -0.0099
  944MOL0     C27349   4.536  11.463   6.099 -0.0777 -0.1467  0.6848
  944MOL0    Cl27350   4.546  11.648   6.117  0.0117  0.4525  0.2406
  944MOL0     C27351   3.894  10.861   5.761  0.0643  0.7466 -0.0820
  944MOL0     C27352   3.814  10.769   5.688 -0.0104 -0.8482 -0.4363
  944MOL0     O27353   3.563  10.461   5.806 -0.9028 -0.5975 -0.5126
  944MOL0     C27354   3.404  10.335   5.620  0.6613 -0.2541 -0.3140
  944MOL0     C27355   3.297  10.269   5.539 -0.0455  0.5867  0.2570
  944MOL0     N27356   2.741  10.339   5.642  0.0155  0.5524  0.3354
  944MOL0     N27357   2.618  10.358   5.697 -0.2190 -0.2067 -0.2569
  944MOL0     C27358   2.089   9.533   5.481 -1.8160  0.6160 -0.3368
  944MOL0     C27359   2.045   9.480   5.362  0.0605 -0.8207 -0.2062
  944MOL0     C27360   1.910   9.486   4.927  0.0734  0.0719  0.2244
  944MOL0     C27361   1.775   9.472   4.928  0.7090  1.0027 -0.3172
  944MOL0     C27362   1.709   9.430   4.815  0.0629  0.3133 -0.6301
  944MOL0     C27363   1.775   9.390   4.704 -1.1785  0.7263  0.6137
  944MOL0     O27364   1.706   9.356   4.582  0.1704  0.0274 -0.7894
  944MOL0     C27365   1.580   9.409   4.553  0.2608  0.5292  0.5062
  944MOL0     C27366   1.478   9.287   4.580  0.0796 -1.0927 -0.2185
  944MOL0     C27367   1.338   9.334   4.624  0.2311  0.4160 -0.4871
  944MOL0     C27368   1.263   9.238   4.718 -0.2665 -0.3031 -0.3228
  944MOL0     C27369   1.337   9.219   4.842 -0.1824 -0.4463 -0.2776
  944MOL0     C27370   1.397   9.213   4.945 -0.0323  0.5928  1.1784
  944MOL0     C27371   1.917   9.395   4.707  0.1000 -0.0926  1.4229
  944MOL0     C27372   1.988   9.450   4.815  0.2534  0.4875  0.4118
  944MOL0     H27373   1.819   9.708   5.277  0.7201 -2.1240 -1.7747
  944MOL0     H27374   1.905   9.802   5.516  1.2657 -2.4355  1.9666
  944MOL0     H27375   2.201   9.706   5.818  1.7724  0.7374 -0.0996
  944MOL0     H27376   2.241   9.566   5.730  2.1887  0.3049  3.0410
  944MOL0     H27377   2.420   9.715   5.662  0.1514  2.2499  0.3121
  944MOL0     H27378   2.313   9.708   5.530 -0.5523  1.7309 -0.4432
  944MOL0     H27379   2.213   9.934   5.601  0.3378 -0.0548  0.2402
  944MOL0     H27380   2.277   9.919   5.758  2.1093  2.7489 -0.8544
  944MOL0     H27381   2.501   9.961   5.693  1.0225 -1.4206 -1.6965
  944MOL0     H27382   2.488   9.917   5.531  3.6839 -0.3623  1.9937
  944MOL0     H27383   2.493  10.150   5.512 -0.2393 -0.6609 -1.5329
  944MOL0     H27384   2.346  10.084   5.467  1.2584  2.5970 -2.3735
  944MOL0     H27385   2.224  10.155   5.656 -0.2055  2.8096  1.9900
  944MOL0     H27386   2.362  10.225   5.741 -1.9665 -0.0612  0.8181
  944MOL0     H27387   2.290  10.320   5.459  0.9791 -4.9944  0.5804
  944MOL0     H27388   2.210  10.396   5.597  1.3737  3.8976 -2.7388
  944MOL0     H27389   2.382  10.478   5.714 -0.0542  0.4799  0.5654
  944MOL0     H27390   2.377  10.535   5.551  0.9907  1.7455  1.6092
  944MOL0     H27391   2.586  10.460   5.394 -2.4039 -0.9474 -0.2307
  944MOL0     H27392   2.853  10.485   5.365  2.3217  0.5232  0.5633
  944MOL0     H27393   2.942  10.386   5.474 -1.9797 -1.3166  1.9394
  944MOL0     H27394   2.753  10.276   5.255  0.2451  0.8033  0.0650
  944MOL0     H27395   2.844  10.174   5.355  1.7806  0.1483 -0.9398
  944MOL0     H27396   2.919  10.377   5.144 -0.1883 -0.0938  0.2829
  944MOL0     H27397   2.975  10.211   5.140 -1.7344  2.8952 -5.8200
  944MOL0     H27398   3.065  10.471   5.273  4.3210  1.6985 -1.6567
  944MOL0     H27399   3.149  10.376   5.154  4.6616 -5.1403  1.7447
  944MOL0     H27400   3.226  10.545   5.362  2.4300  1.7259 -1.2292
  944MOL0     H27401   3.481  10.720   5.475  0.8034 -2.9608 -0.1107
  944MOL0     H27402   3.315  10.761   5.455  2.0850  0.5437 -1.5193
  944MOL0     H27403   3.371  10.746   5.623 -3.3164 -1.1660 -0.3002
  944MOL0     H27404   3.610  10.663   5.931 -0.1993  3.1213  1.1145
  944MOL0     H27405   3.764  10.775   6.067 -0.6001  1.9125 -0.3304
  944MOL0     H27406   4.159  10.920   5.943 -1.4355 -2.1920 -0.8453
  944MOL0     H27407   4.070  11.024   5.830  1.2336  1.0117  0.1660
  944MOL0     H27408   4.191  11.176   5.961  0.5168 -1.9420 -1.1908
  944MOL0     H27409   4.018  11.183   6.006  1.3944  2.0883 -2.8620
  944MOL0     H27410   4.091  11.019   6.194 -0.6911 -0.8811 -1.2012
  944MOL0     H27411   4.135  11.188   6.217  0.7372 -1.6628  1.3151
  944MOL0     H27412   4.315  11.058   6.304  2.2638 -3.5454 -1.3853
  944MOL0     H27413   4.355  10.983   6.165  2.0784 -0.9848  0.6508
  944MOL0     H27414   4.366  11.233   6.069  0.2187  1.7197  0.1067
  944MOL0     H27415   4.501  11.141   6.128 -0.5969  1.1475 -3.1504
  944MOL0     H27416   4.329  11.352   6.272 -0.9795 -1.8981  2.9242
  944MOL0     H27417   4.437  11.238   6.362 -3.0650  1.5746  1.5102
  944MOL0     H27418   4.646  11.373   6.254 -0.2924 -1.3846 -0.4033
  944MOL0     H27419   4.509  11.488   6.302  0.8448  1.1348 -0.7330
  944MOL0     H27420   4.444  11.438   6.044  0.5083 -0.7463 -0.0464
  944MOL0     H27421   4.610  11.421   6.030  0.2990  1.2716  0.1745
  944MOL0     H27422   3.945  10.925   5.690 -3.2793  2.3894 -1.2323
  944MOL0     H27423   3.841  10.755   5.584  3.7014  0.1878  0.2269
  944MOL0     H27424   3.455  10.282   5.700  1.1837 -0.5899 -0.8607
  944MOL0     H27425   3.274  10.164   5.533  1.6861  0.1088  1.1908
  944MOL0     H27426   2.159   9.475   5.541 -1.4409 -0.8568 -2.0874
  944MOL0     H27427   2.095   9.393   5.320  3.5835 -0.8411  3.4116
  944MOL0     H27428   1.716   9.494   5.017 -0.0595  2.9293 -1.2385
  944MOL0     H27429   1.604   9.403   4.823  1.0928 -4.0804  0.6926
  944MOL0     H27430   1.558   9.501   4.607 -1.7846  1.2843 -1.4676
  944MOL0     H27431   1.563   9.433   4.447 -1.8665 -5.7589 -1.0303
  944MOL0     H27432   1.517   9.220   4.657  0.3273  1.3890  2.0007
  944MOL0     H27433   1.477   9.225   4.491 -1.3192 -2.9446  1.0151
  944MOL0     H27434   1.280   9.351   4.533 -3.1478 -1.3199  1.1439
  944MOL0     H27435   1.349   9.431   4.673  1.6562  1.0749 -2.0355
  944MOL0     H27436   1.253   9.139   4.672 -1.3080 -0.5987  0.5205
  944MOL0     H27437   1.162   9.259   4.753 -1.1948 -1.0057 -2.3841
  944MOL0     H27438   1.448   9.217   5.039 -2.0096  0.2029  2.3086
  944MOL0     H27439   1.977   9.362   4.623  2.1999  2.7104  1.6641
  944MOL0     H27440   2.096   9.459   4.809  0.7031 -1.5606  3.4039
  945MOL0     O27441   0.091   3.791  10.106  0.6935 -1.1395  0.0808
  945MOL0     C27442   0.151   3.696  10.065  0.6481  0.7839 -0.1222
  945MOL0     O27443   0.230   3.609  10.130 -0.7134 -0.2416  0.1041
  945MOL0     C27444   0.284   3.633  10.254 -0.1962 -0.0177 -0.0594
  945MOL0     C27445   0.296   3.757  10.317 -0.9868  0.3954 -0.0477
  945MOL0     C27446   0.364   3.765  10.440  0.4524 -0.0179  0.1034
  945MOL0     C27447   0.419   3.656  10.508  0.5039  0.1732  0.3256
  945MOL0     O27448   0.500   3.690  10.611  0.8345  0.0621 -0.0498
  945MOL0     C27449   0.600   3.602  10.665 -0.0737 -0.6132  0.6466
  945MOL0     C27450   0.671   3.683  10.771 -0.1884  0.4274  0.4479
  945MOL0     C27451   0.802   3.617  10.793 -0.0715  0.2778 -0.2514
  945MOL0     C27452   0.923   3.664  10.705  0.0942 -0.5035  0.6715
  945MOL0     C27453   1.048   3.574  10.713 -0.0950 -0.4632  0.0274
  945MOL0     C27454   1.121   3.584  10.848  0.5689 -0.5352  0.7758
  945MOL0     C27455   1.205   3.705  10.874 -0.0825  0.2908  0.0686
  945MOL0     C27456   1.336   3.718  10.807 -0.7082 -0.8780 -0.5128
  945MOL0     N27457   1.445   3.728  10.901  0.8926  0.4849  0.7374
  945MOL0     C27458   1.501   3.625  10.970  0.6727 -0.1821 -0.6211
  945MOL0     C27459   1.568   3.681  11.076 -0.8756 -0.3573  0.9982
  945MOL0     C27460   1.663   3.615  11.182  0.1833  0.5158  0.0594
  945MOL0     C27461   1.674   3.467  11.156  0.0116  1.0109 -0.5698
  945MOL0     C27462   1.771   3.401  11.255  0.3120  0.3337 -0.4398
  945MOL0     C27463   1.789   3.249  11.247  0.4749 -0.2760  0.3398
  945MOL0     O27464   1.897   3.185  11.311  0.0004 -0.2361  0.1762
  945MOL0     C27465   2.033   3.199  11.269  0.1818  0.5255 -0.6701
  945MOL0     C27466   2.128   3.159  11.373  0.0100 -0.3426 -0.1166
  945MOL0     C27467   2.266   3.167  11.352 -0.3630  0.2765 -0.9404
  945MOL0     C27468   2.356   3.106  11.458  0.1553  0.2628 -0.2296
  945MOL0     C27469   2.316   3.223  11.227  0.9725 -0.0754  0.2527
  945MOL0     C27470   2.458   3.240  11.202 -0.6794  0.0609  0.3355
  945MOL0     O27471   2.548   3.164  11.263  0.1397  0.2803  0.3031
  945MOL0     C27472   2.672   3.139  11.234  0.8240 -0.0210 -0.2699
  945MOL0     C27473   2.747   3.200  11.134  0.4276 -1.3384 -0.1334
  945MOL0     C27474   2.886   3.179  11.127  0.1438 -0.6702  0.4305
  945MOL0     C27475   2.939   3.075  11.206 -1.2002 -0.0454 -0.0061
  945MOL0     O27476   3.072   3.041  11.199 -0.3132 -0.2761 -0.0963
  945MOL0     C27477   3.162   3.140  11.219 -0.3426 -0.2640  0.3273
  945MOL0     C27478   3.308   3.093  11.215  0.1900  0.3111  0.4852
  945MOL0     C27479   3.324   2.980  11.319  0.0697  0.7345  0.2723
  945MOL0     C27480   3.440   2.895  11.263 -0.0793 -0.6188 -0.1812
  945MOL0     C27481   3.498   2.797  11.361 -1.1374  1.2920  0.1273
  945MOL0     C27482   3.409   2.678  11.370 -0.6198 -0.2659 -0.8738
  945MOL0     C27483   3.377   2.613  11.511  0.3337 -0.7883 -0.7501
  945MOL0     C27484   3.270   2.703  11.590 -0.1167 -0.2653  0.5058
  945MOL0    Cl27485   3.118   2.655  11.534  0.4212  0.3763  0.2880
  945MOL0     C27486   2.866   3.012  11.295 -0.0877  0.2964  0.2848
  945MOL0     C27487   2.730   3.044  11.317 -0.3429  0.5782 -0.9060
  945MOL0     O27488   2.482   3.322  11.110  0.5462  0.0461 -0.9018
  945MOL0     C27489   2.217   3.255  11.129  0.8121  0.3592 -0.5596
  945MOL0     C27490   2.073   3.244  11.139  0.0762 -0.2002  0.4932
  945MOL0     N27491   1.565   3.815  11.058  0.3981 -0.4085  0.1959
  945MOL0     N27492   1.489   3.845  10.954 -0.1456 -0.1459 -0.9133
  945MOL0     C27493   0.410   3.537  10.440 -1.3756  0.4770  0.5735
  945MOL0     C27494   0.350   3.523  10.317 -0.8730 -1.7837  0.0021
  945MOL0     C27495   0.107   3.660   9.931  0.2250 -1.1093  1.0321
  945MOL0     C27496   0.187   3.592   9.843 -1.0972  0.0901  0.2841
  945MOL0     C27497   0.147   3.566   9.705 -1.1550  0.1108  0.0488
  945MOL0     C27498   0.021   3.608   9.663  0.4671  0.4501  0.5269
  945MOL0     O27499  -0.028   3.586   9.535 -0.0831  0.5048  0.5786
  945MOL0     C27500   0.030   3.471   9.460  0.4984  1.0054  0.6614
  945MOL0     C27501  -0.074   3.406   9.370 -0.9319 -0.2729  0.4342
  945MOL0     C27502  -0.014   3.301   9.274 -0.3758 -0.3594  0.1123
  945MOL0     C27503  -0.126   3.213   9.200  1.0239  0.4747  0.3006
  945MOL0     C27504  -0.209   3.282   9.098 -0.2235  0.0910 -0.0205
  945MOL0     C27505  -0.293   3.338   9.020 -0.2230  0.7585 -0.1124
  945MOL0     C27506  -0.063   3.680   9.753 -0.3265  0.8819  1.3313
  945MOL0     C27507  -0.023   3.696   9.878  0.7161 -1.1290 -0.2673
  945MOL0     H27508   0.271   3.845  10.259 -1.5292  1.1106  1.2098
  945MOL0     H27509   0.388   3.861  10.485  2.4484  0.6878 -2.2336
  945MOL0     H27510   0.565   3.503  10.695 -1.9072 -0.4116 -0.7019
  945MOL0     H27511   0.679   3.576  10.594  2.3730  0.3837  2.8175
  945MOL0     H27512   0.685   3.786  10.738  1.0830  0.2260  0.3016
  945MOL0     H27513   0.599   3.678  10.853 -1.8599 -1.0904 -1.0278
  945MOL0     H27514   0.820   3.641  10.899 -3.4962 -1.6840  0.9426
  945MOL0     H27515   0.782   3.510  10.791  0.6537  0.0262  2.1625
  945MOL0     H27516   0.901   3.663  10.598  1.2317 -2.7512  0.3993
  945MOL0     H27517   0.955   3.765  10.731  1.8355 -0.9768  0.4542
  945MOL0     H27518   1.022   3.468  10.702 -0.3449 -0.7772  2.9228
  945MOL0     H27519   1.122   3.603  10.638 -1.0414  2.3108  0.0536
  945MOL0     H27520   1.055   3.577  10.936  1.9229 -1.1479  1.7728
  945MOL0     H27521   1.186   3.497  10.856  1.7186  0.0022 -1.8040
  945MOL0     H27522   1.144   3.792  10.847 -2.0915 -1.4694 -1.3712
  945MOL0     H27523   1.214   3.712  10.983 -4.3553  0.2987  0.5862
  945MOL0     H27524   1.339   3.817  10.759  1.2977  0.3957  1.9888
  945MOL0     H27525   1.366   3.641  10.736 -1.6486 -2.4835  0.7835
  945MOL0     H27526   1.497   3.518  10.952  2.1935 -1.4009  4.6543
  945MOL0     H27527   1.763   3.660  11.183  1.5297 -2.2801  1.5294
  945MOL0     H27528   1.620   3.636  11.280  0.2990 -1.2942  0.5273
  945MOL0     H27529   1.714   3.457  11.055 -2.9406  0.6061 -1.8042
  945MOL0     H27530   1.584   3.404  11.158  0.8091 -0.2018 -1.5898
  945MOL0     H27531   1.742   3.412  11.360  1.9421  1.8962 -0.1021
  945MOL0     H27532   1.870   3.444  11.235  0.1473  0.8488 -0.1605
  945MOL0     H27533   1.790   3.229  11.139  5.1026  2.8873 -0.5372
  945MOL0     H27534   1.704   3.198  11.293  3.0170 -2.1376  3.3862
  945MOL0     H27535   2.084   3.113  11.460  0.6092  0.8472  0.8433
  945MOL0     H27536   2.422   3.187  11.490  0.6466  0.5658 -1.9076
  945MOL0     H27537   2.294   3.064  11.538  2.0088  1.1730  1.7754
  945MOL0     H27538   2.421   3.025  11.423  1.1360  0.9303  0.0371
  945MOL0     H27539   2.705   3.270  11.062 -2.3137 -2.4974  0.2219
  945MOL0     H27540   2.949   3.239  11.064 -2.0935  0.4394 -0.8552
  945MOL0     H27541   3.158   3.204  11.131  4.3091  1.1856  0.8789
  945MOL0     H27542   3.132   3.201  11.304  0.8556 -1.3340  1.5731
  945MOL0     H27543   3.321   3.049  11.116 -1.9675 -0.5116  0.5101
  945MOL0     H27544   3.373   3.179  11.228 -0.4524  1.1719 -1.6624
  945MOL0     H27545   3.243   2.913  11.348  0.6630  0.5526  1.5731
  945MOL0     H27546   3.344   3.022  11.418 -1.2487 -2.4921  2.0343
  945MOL0     H27547   3.416   2.840  11.171 -0.7511 -3.3688  1.5120
  945MOL0     H27548   3.524   2.961  11.240 -0.6370  1.6944  3.6882
  945MOL0     H27549   3.508   2.841  11.461  1.2455 -0.3186  0.6855
  945MOL0     H27550   3.598   2.770  11.324 -1.0688  1.7882 -0.0709
  945MOL0     H27551   3.314   2.711  11.327 -0.5833  1.2489  0.1719
  945MOL0     H27552   3.451   2.593  11.314 -2.2603 -1.1855 -0.7776
  945MOL0     H27553   3.473   2.613  11.563 -1.5078  1.5730  3.0232
  945MOL0     H27554   3.333   2.514  11.501  1.0340 -1.2011  0.1061
  945MOL0     H27555   3.284   2.804  11.551  1.1935 -0.8959 -0.7454
  945MOL0     H27556   3.273   2.690  11.698 -0.8557 -2.5490  0.3163
  945MOL0     H27557   2.920   2.931  11.343 -2.1239 -3.1558 -2.7986
  945MOL0     H27558   2.680   2.984  11.392 -4.1292  0.1390 -3.5020
  945MOL0     H27559   2.254   3.305  11.040 -2.8133  2.5101 -1.0822
  945MOL0     H27560   2.003   3.286  11.068 -0.7199 -1.3722  0.5704
  945MOL0     H27561   0.458   3.453  10.490 -0.1986  0.4597 -0.5198
  945MOL0     H27562   0.367   3.423  10.276 -0.3606 -1.9689  0.6594
  945MOL0     H27563   0.287   3.564   9.873 -0.1047 -0.3171 -3.0532
  945MOL0     H27564   0.217   3.523   9.635 -2.6880 -1.2182 -0.7544
  945MOL0     H27565   0.118   3.510   9.409  0.6633 -0.7903 -0.5407
  945MOL0     H27566   0.073   3.394   9.525 -2.4776 -2.4025 -1.0355
  945MOL0     H27567  -0.143   3.479   9.325 -3.0727 -1.4708  1.6065
  945MOL0     H27568  -0.125   3.344   9.444  1.0580 -2.2554  0.2320
  945MOL0     H27569   0.037   3.239   9.348 -0.7641 -0.4610  0.2991
  945MOL0     H27570   0.055   3.334   9.197 -1.8275  0.1725 -1.0056
  945MOL0     H27571  -0.201   3.169   9.266  0.6840 -3.0736 -2.1732
  945MOL0     H27572  -0.069   3.131   9.155 -0.2350  0.1142 -0.6884
  945MOL0     H27573  -0.364   3.392   8.962 -0.7872  0.7636  0.5730
  945MOL0     H27574  -0.159   3.720   9.724 -1.1578 -1.5751  0.4634
  945MOL0     H27575  -0.094   3.739   9.948  0.9578  2.5070 -1.9878
  946MOL0     O27576  10.407   5.892   3.445  0.3624 -0.3031  0.2799
  946MOL0     C27577  10.515   5.905   3.393 -0.6190 -0.4449 -0.0601
  946MOL0     O27578  10.630   5.865   3.444 -0.0750 -0.0735 -0.0002
  946MOL0     C27579  10.631   5.785   3.557 -0.4286 -0.8149  0.5697
  946MOL0     C27580  10.673   5.838   3.675 -0.0631  0.2667 -0.6929
  946MOL0     C27581  10.704   5.757   3.787  0.1595 -0.8686  1.0866
  946MOL0     C27582  10.674   5.619   3.790  0.3425  0.4180 -0.6573
  946MOL0     O27583  10.694   5.538   3.899 -0.7899 -0.4714 -0.3423
  946MOL0     C27584  10.585   5.465   3.955 -0.3035  0.0152  0.0146
  946MOL0     C27585  10.590   5.499   4.099  0.6675 -0.1441  0.6689
  946MOL0     C27586  10.536   5.393   4.190  0.6100 -0.8715  1.2690
  946MOL0     C27587  10.633   5.278   4.202  0.0582 -0.0509 -0.7386
  946MOL0     C27588  10.563   5.169   4.293 -0.0480  0.2655  1.0671
  946MOL0     C27589  10.664   5.053   4.319  0.7916 -0.0635  0.4318
  946MOL0     C27590  10.730   5.044   4.453 -0.3062  0.2831 -0.2698
  946MOL0     C27591  10.782   4.906   4.495  0.0496  0.5726 -1.1827
  946MOL0     N27592  10.866   4.853   4.384 -0.0786 -0.8123 -0.1518
  946MOL0     C27593  10.835   4.754   4.292  0.5821 -0.9472 -1.6240
  946MOL0     C27594  10.890   4.789   4.176 -0.6408  0.1511  0.2769
  946MOL0     C27595  10.883   4.713   4.048 -0.2660 -0.3013 -0.4623
  946MOL0     C27596  10.978   4.601   4.040  0.1382  0.0905  0.3030
  946MOL0     C27597  10.978   4.549   3.895  0.3668 -0.8758  0.6282
  946MOL0     C27598  10.874   4.433   3.875 -0.0444 -0.2308 -0.9384
  946MOL0     O27599  10.737   4.475   3.915  0.0878  0.8405 -0.1638
  946MOL0     C27600  10.647   4.436   3.817  0.1000  0.3220  0.0391
  946MOL0     C27601  10.606   4.522   3.722 -0.2148 -0.6289 -0.5570
  946MOL0     C27602  10.511   4.485   3.630  0.2109 -0.3201 -0.0942
  946MOL0     C27603  10.492   4.590   3.521 -0.2968  0.1832  0.0958
  946MOL0     C27604  10.457   4.353   3.636 -0.3255 -0.4670 -0.1697
  946MOL0     C27605  10.350   4.305   3.536  0.8486 -0.0364  0.5801
  946MOL0     O27606  10.272   4.395   3.471 -0.0220  0.0203 -0.4102
  946MOL0     C27607  10.219   4.370   3.348  0.2320 -0.6889 -0.6253
  946MOL0     C27608  10.108   4.449   3.311  0.5807  0.2597  0.0728
  946MOL0     C27609  10.056   4.442   3.180  0.1598  0.4875  0.2442
  946MOL0     C27610  10.113   4.347   3.090 -0.6807 -0.7533  0.1220
  946MOL0     O27611  10.064   4.320   2.964 -0.4063 -0.4487  0.8876
  946MOL0     C27612   9.967   4.220   2.970  1.7088 -0.4908 -0.5221
  946MOL0     C27613   9.895   4.236   2.842  0.6367 -0.9606 -0.6289
  946MOL0     C27614   9.804   4.362   2.839  0.3344 -0.2032 -0.5676
  946MOL0     C27615   9.727   4.361   2.706 -0.0807 -0.3123  0.0478
  946MOL0     C27616   9.612   4.463   2.695 -0.1397 -0.7420 -0.2906
  946MOL0     C27617   9.652   4.613   2.709 -1.1218  1.0799 -0.5183
  946MOL0     C27618   9.549   4.708   2.651  0.3553 -0.1692 -0.0549
  946MOL0     C27619   9.590   4.854   2.661  0.3923 -0.8495 -0.2389
  946MOL0    Cl27620   9.600   4.916   2.824  0.4669  0.0178 -0.3582
  946MOL0     C27621  10.230   4.285   3.131  0.4215 -0.9663 -0.1200
  946MOL0     C27622  10.284   4.298   3.255  1.1253 -0.3086 -0.2492
  946MOL0     O27623  10.335   4.183   3.523  0.2594  0.1498  0.1963
  946MOL0     C27624  10.493   4.261   3.740 -0.9406  1.1262  0.0322
  946MOL0     C27625  10.592   4.308   3.824  1.1130  0.6444  0.2424
  946MOL0     N27626  10.990   4.884   4.200  0.3829 -0.1590 -0.3622
  946MOL0     N27627  10.973   4.918   4.327  0.4352 -0.0242  0.0020
  946MOL0     C27628  10.606   5.564   3.677 -0.9735 -0.3732  0.3642
  946MOL0     C27629  10.597   5.641   3.558  0.0672 -0.7770 -0.1009
  946MOL0     C27630  10.519   5.960   3.262  0.1436 -0.4833 -0.3638
  946MOL0     C27631  10.638   5.963   3.190  0.1113 -0.4672 -0.3837
  946MOL0     C27632  10.637   5.991   3.062  0.2141  0.7149  0.5759
  946MOL0     C27633  10.524   6.026   2.996 -0.3798  0.5396 -0.0406
  946MOL0     O27634  10.552   6.067   2.866  0.2349 -0.0721 -0.1443
  946MOL0     C27635  10.439   6.112   2.781  0.5035 -0.1551  0.1660
  946MOL0     C27636  10.362   5.991   2.725  0.5267 -0.4478  0.6047
  946MOL0     C27637  10.455   5.883   2.656 -0.4931 -0.4682 -0.5051
  946MOL0     C27638  10.379   5.772   2.571 -0.7100 -0.6811 -0.6593
  946MOL0     C27639  10.410   5.641   2.627  0.5759 -0.0982 -1.0126
  946MOL0     C27640  10.421   5.539   2.691 -0.4995  0.8746  0.4451
  946MOL0     C27641  10.402   6.030   3.067 -1.0661 -0.0638 -0.2081
  946MOL0     C27642  10.401   5.991   3.202 -0.0561 -0.6957 -0.4065
  946MOL0     H27643  10.719   5.935   3.693  1.8935 -0.6834 -0.2729
  946MOL0     H27644  10.736   5.796   3.883  0.1769 -1.1008  1.1780
  946MOL0     H27645  10.486   5.479   3.909  0.0066 -0.4411 -0.8134
  946MOL0     H27646  10.608   5.360   3.938  0.1477  0.1405 -0.1621
  946MOL0     H27647  10.692   5.528   4.127 -0.1098  2.8099  0.7277
  946MOL0     H27648  10.525   5.585   4.111 -0.5502 -0.7346 -1.2329
  946MOL0     H27649  10.507   5.425   4.291 -1.6232 -4.5032  1.9431
  946MOL0     H27650  10.440   5.353   4.155  0.9169 -3.1823  2.9180
  946MOL0     H27651  10.667   5.238   4.106  0.7315 -1.2524 -0.0302
  946MOL0     H27652  10.720   5.309   4.259 -1.9228  3.9436  0.4338
  946MOL0     H27653  10.539   5.216   4.389 -2.6096  0.7217  0.2998
  946MOL0     H27654  10.474   5.124   4.247  0.2004  0.9451 -0.0986
  946MOL0     H27655  10.610   4.960   4.301  1.4452  0.0573 -2.9768
  946MOL0     H27656  10.747   5.056   4.247 -0.8474 -1.7785 -1.7022
  946MOL0     H27657  10.815   5.112   4.444  0.7547 -0.9454  0.2724
  946MOL0     H27658  10.661   5.079   4.530  3.1829 -0.5492  3.5672
  946MOL0     H27659  10.695   4.844   4.517  1.6355 -2.0824 -2.0582
  946MOL0     H27660  10.847   4.911   4.582 -0.5577 -1.8685 -0.5102
  946MOL0     H27661  10.772   4.669   4.314 -0.0977 -0.4654 -1.6741
  946MOL0     H27662  10.780   4.678   4.047 -0.1398 -0.7951  0.9763
  946MOL0     H27663  10.892   4.780   3.963 -2.1533  0.6407  0.0448
  946MOL0     H27664  10.945   4.525   4.111  0.3859 -1.0835 -0.7916
  946MOL0     H27665  11.080   4.635   4.061  0.3723  0.4551 -1.2847
  946MOL0     H27666  11.079   4.514   3.872  0.0926  0.2331 -3.0101
  946MOL0     H27667  10.972   4.635   3.828  1.1261 -0.5488  0.9763
  946MOL0     H27668  10.906   4.345   3.931 -0.5102  0.4620  0.4915
  946MOL0     H27669  10.880   4.407   3.769  1.3716  0.6143 -1.0797
  946MOL0     H27670  10.668   4.611   3.729 -0.1635 -0.6044 -1.2993
  946MOL0     H27671  10.402   4.643   3.555 -0.4200  0.8887 -1.2789
  946MOL0     H27672  10.578   4.657   3.512  2.5562 -3.4357 -2.2960
  946MOL0     H27673  10.462   4.545   3.426  0.2977  2.5867 -1.3051
  946MOL0     H27674  10.072   4.504   3.397  2.6283 -0.1263  1.2603
  946MOL0     H27675   9.966   4.490   3.141  0.2379 -2.0620 -3.6412
  946MOL0     H27676  10.001   4.117   2.982 -2.5848 -2.0565  0.2582
  946MOL0     H27677   9.900   4.242   3.054  0.9951  2.7706 -1.8186
  946MOL0     H27678   9.971   4.246   2.763 -0.9882 -2.4816 -2.4835
  946MOL0     H27679   9.843   4.144   2.817  2.5844 -1.6574 -2.4547
  946MOL0     H27680   9.847   4.459   2.864  0.8438 -0.9574  1.6832
  946MOL0     H27681   9.736   4.358   2.925  0.6041  2.7531 -0.1133
  946MOL0     H27682   9.800   4.376   2.626 -0.0919  1.6893  0.3676
  946MOL0     H27683   9.693   4.260   2.682 -3.1209  0.6432 -0.1389
  946MOL0     H27684   9.541   4.445   2.777  0.2187 -4.2419 -0.6274
  946MOL0     H27685   9.574   4.454   2.593 -3.0668  3.6197  0.1392
  946MOL0     H27686   9.678   4.632   2.813  0.8752  1.1089 -0.9817
  946MOL0     H27687   9.740   4.633   2.647 -2.1018  1.2583 -1.8999
  946MOL0     H27688   9.462   4.681   2.711 -0.1179 -1.0654 -1.1265
  946MOL0     H27689   9.528   4.688   2.546  0.4649  1.8212 -0.5125
  946MOL0     H27690   9.520   4.909   2.598  1.6005  1.3530  0.2155
  946MOL0     H27691   9.688   4.849   2.611 -0.6188  1.5316 -2.7393
  946MOL0     H27692  10.273   4.210   3.065  2.7809 -1.1670  1.5484
  946MOL0     H27693  10.375   4.243   3.277  1.7911  1.0665  0.6141
  946MOL0     H27694  10.462   4.158   3.732  1.5915  0.3990 -1.7227
  946MOL0     H27695  10.645   4.247   3.896 -2.6750 -2.3599  0.8182
  946MOL0     H27696  10.578   5.459   3.670 -2.2621  0.0070 -0.7718
  946MOL0     H27697  10.565   5.586   3.470 -1.3983  1.0397 -0.7679
  946MOL0     H27698  10.729   5.934   3.242 -0.9012 -2.6617  0.2979
  946MOL0     H27699  10.718   5.990   2.990 -1.1465  1.1653 -1.0164
  946MOL0     H27700  10.372   6.175   2.839 -0.1614 -1.7066  1.1602
  946MOL0     H27701  10.476   6.161   2.691  2.1092 -1.3533  0.1150
  946MOL0     H27702  10.283   6.027   2.659  1.6165 -0.7249 -0.9062
  946MOL0     H27703  10.313   5.941   2.809  0.0471 -2.5932 -0.8665
  946MOL0     H27704  10.522   5.851   2.737  0.3630  0.8033 -0.6769
  946MOL0     H27705  10.512   5.948   2.589  2.3247  0.5240  2.5210
  946MOL0     H27706  10.432   5.765   2.475 -0.0146  0.5444 -0.3905
  946MOL0     H27707  10.279   5.812   2.552  0.3203  2.2409 -0.5143
  946MOL0     H27708  10.438   5.460   2.761  2.7009  0.0260 -1.1382
  946MOL0     H27709  10.313   6.065   3.014 -0.5132  1.6660 -0.0505
  946MOL0     H27710  10.305   6.002   3.250  1.5178  3.1093  2.4289
  947MOL0     O27711   7.497   1.638   0.124  0.4938  0.2606  0.1436
  947MOL0     C27712   7.475   1.652   0.238 -0.1110 -0.5084  0.4215
  947MOL0     O27713   7.378   1.586   0.311  0.2995  0.5467 -0.1459
  947MOL0     C27714   7.279   1.525   0.237  0.0079 -0.7105 -0.4450
  947MOL0     C27715   7.156   1.588   0.213 -0.0450  0.1037  0.2224
  947MOL0     C27716   7.048   1.526   0.143 -0.7570 -0.5021  0.3348
  947MOL0     C27717   7.072   1.404   0.085 -0.2059 -0.5199  0.8334
  947MOL0     O27718   6.968   1.358  -0.004  0.2402  0.6816  0.7306
  947MOL0     C27719   6.961   1.213  -0.031 -0.5257 -0.4871 -0.5453
  947MOL0     C27720   6.841   1.170  -0.114 -0.1365  0.6002  0.2141
  947MOL0     C27721   6.829   1.017  -0.125 -0.9425  0.5919 -0.4618
  947MOL0     C27722   6.777   0.973  -0.262 -0.4040 -0.6460 -0.2578
  947MOL0     C27723   6.629   0.930  -0.258 -0.7508 -0.0377  0.5557
  947MOL0     C27724   6.535   1.048  -0.203 -0.1352 -0.0321  0.0402
  947MOL0     C27725   6.386   1.004  -0.203 -0.2934  0.7511 -0.1425
  947MOL0     C27726   6.335   0.970  -0.342  0.2354 -0.6925 -1.1302
  947MOL0     N27727   6.316   0.827  -0.366  0.6285  0.8962  0.2060
  947MOL0     C27728   6.389   0.726  -0.311 -0.6794  0.3083 -0.0147
  947MOL0     C27729   6.333   0.612  -0.357 -0.5383 -1.1902 -0.1169
  947MOL0     C27730   6.361   0.476  -0.311 -0.1239 -0.6921 -0.3902
  947MOL0     C27731   6.407   0.371  -0.422 -0.0338 -0.3595  1.2125
  947MOL0     C27732   6.304   0.335  -0.535 -1.0146  0.2756 -0.7836
  947MOL0     C27733   6.179   0.274  -0.484  0.2279 -0.2193  0.1283
  947MOL0     O27734   6.113   0.236  -0.606 -0.0247  0.2015 -0.1202
  947MOL0     C27735   6.072   0.110  -0.592  0.5589  0.1002  1.2690
  947MOL0     C27736   5.938   0.080  -0.598 -0.1155  1.5215 -0.4850
  947MOL0     C27737   5.890  -0.060  -0.590  0.3524  0.2456 -0.1367
  947MOL0     C27738   5.739  -0.093  -0.601 -0.2795 -0.1109 -0.1065
  947MOL0     C27739   5.980  -0.167  -0.588 -0.3838  0.1147 -0.5380
  947MOL0     C27740   5.948  -0.308  -0.595 -0.6872  0.4192  0.5155
  947MOL0     O27741   6.051  -0.383  -0.579  0.1712  0.0019 -0.3960
  947MOL0     C27742   6.068  -0.497  -0.650 -0.1541 -0.4027 -0.4349
  947MOL0     C27743   6.099  -0.617  -0.589 -1.3327 -0.5475 -0.5925
  947MOL0     C27744   6.134  -0.729  -0.675 -0.9897  1.2637 -0.8963
  947MOL0     C27745   6.137  -0.721  -0.817  0.8276  0.2709  0.1054
  947MOL0     O27746   6.183  -0.834  -0.884 -0.0431 -0.0258  0.1263
  947MOL0     C27747   6.100  -0.860  -0.998 -0.4875 -0.1994  0.7694
  947MOL0     C27748   6.155  -0.979  -1.080 -0.2103  0.8935  0.6428
  947MOL0     C27749   6.309  -0.985  -1.109  0.5035  0.2220 -0.1781
  947MOL0     C27750   6.340  -1.121  -1.180 -0.1680 -0.9047  0.4833
  947MOL0     C27751   6.487  -1.134  -1.213 -0.4965  0.1002 -0.2304
  947MOL0     C27752   6.515  -1.279  -1.243  0.5916  1.2502 -0.6597
  947MOL0     C27753   6.510  -1.375  -1.121  0.3336  0.4200  0.4449
  947MOL0     C27754   6.467  -1.516  -1.177 -0.4899 -0.6205  0.1652
  947MOL0    Cl27755   6.488  -1.653  -1.055 -0.1090  0.2499 -0.1410
  947MOL0     C27756   6.108  -0.590  -0.871  0.1860  0.3932 -0.0931
  947MOL0     C27757   6.073  -0.486  -0.786  0.4685  0.4814 -1.0504
  947MOL0     O27758   5.844  -0.343  -0.649  0.4910  0.4711  0.4184
  947MOL0     C27759   6.118  -0.134  -0.584  0.8470 -0.8935 -0.2721
  947MOL0     C27760   6.162   0.005  -0.583 -0.9804 -0.0792  0.5465
  947MOL0     N27761   6.228   0.645  -0.440  0.3623 -1.3537  0.7284
  947MOL0     N27762   6.218   0.774  -0.441  1.0190 -0.3362  0.4663
  947MOL0     C27763   7.199   1.344   0.102 -0.6497 -0.2261  1.0092
  947MOL0     C27764   7.297   1.408   0.167  0.7251 -0.3181 -0.0560
  947MOL0     C27765   7.578   1.723   0.306  0.9712 -0.3761 -0.7375
  947MOL0     C27766   7.665   1.814   0.239 -0.9207  0.3851  0.3879
  947MOL0     C27767   7.754   1.893   0.308 -0.8849 -0.5722  0.1864
  947MOL0     C27768   7.776   1.887   0.445 -0.3430  0.2193  0.8038
  947MOL0     O27769   7.860   1.960   0.518 -0.2370 -0.4207  0.5108
  947MOL0     C27770   7.908   2.088   0.480  0.5243  0.1260  0.6989
  947MOL0     C27771   7.794   2.187   0.495  0.0927 -0.3907 -1.0253
  947MOL0     C27772   7.837   2.333   0.462  0.2969  0.8969  0.5010
  947MOL0     C27773   7.743   2.456   0.493 -0.3699  0.6499 -0.0252
  947MOL0     C27774   7.616   2.446   0.422 -0.9709 -0.0371 -0.2636
  947MOL0     C27775   7.511   2.433   0.369  0.1594  0.2378 -0.1699
  947MOL0     C27776   7.690   1.798   0.507  0.0057 -0.2970 -0.2059
  947MOL0     C27777   7.586   1.725   0.449 -0.7506  0.7444  0.3629
  947MOL0     H27778   7.139   1.686   0.256 -0.2541  0.8362 -1.4615
  947MOL0     H27779   6.952   1.570   0.121 -0.4033 -0.6519 -1.7172
  947MOL0     H27780   7.058   1.175  -0.062  1.6264  4.1466 -0.2849
  947MOL0     H27781   6.940   1.163   0.064  2.3943 -1.8334 -0.5039
  947MOL0     H27782   6.748   1.203  -0.067 -1.5961 -1.8403 -0.7646
  947MOL0     H27783   6.850   1.220  -0.211  0.7848  3.0614  1.4901
  947MOL0     H27784   6.927   0.979  -0.094 -0.5407 -0.3527 -2.6838
  947MOL0     H27785   6.769   0.975  -0.044  1.3470 -2.5701 -0.1903
  947MOL0     H27786   6.786   1.060  -0.329  0.2733  0.7890  1.6139
  947MOL0     H27787   6.842   0.893  -0.299 -0.1489  0.3391 -2.0530
  947MOL0     H27788   6.594   0.917  -0.361 -0.0891 -0.6649  0.4063
  947MOL0     H27789   6.634   0.836  -0.202  0.2492 -0.1137  0.3663
  947MOL0     H27790   6.560   1.075  -0.100  2.0201 -0.7554 -0.2558
  947MOL0     H27791   6.541   1.141  -0.261 -2.4938 -1.6510 -3.1328
  947MOL0     H27792   6.358   0.929  -0.129 -0.2146  1.9671  1.1427
  947MOL0     H27793   6.342   1.096  -0.165  1.1765  0.9331  1.2070
  947MOL0     H27794   6.405   1.008  -0.417  2.4586 -2.7757 -0.2359
  947MOL0     H27795   6.238   1.017  -0.358  0.4015 -0.8327 -2.7590
  947MOL0     H27796   6.477   0.727  -0.248  0.5127  3.4161 -1.5164
  947MOL0     H27797   6.434   0.474  -0.230 -0.1225 -0.4123 -0.3818
  947MOL0     H27798   6.268   0.457  -0.257  1.0698  2.3391  3.1260
  947MOL0     H27799   6.442   0.279  -0.375  0.5789 -0.2639  0.9541
  947MOL0     H27800   6.505   0.401  -0.461  1.4012 -3.7264  1.8673
  947MOL0     H27801   6.356   0.266  -0.603 -0.2812  0.7497 -0.7080
  947MOL0     H27802   6.277   0.429  -0.584  2.7213  0.4080 -2.9217
  947MOL0     H27803   6.118   0.359  -0.451  2.4876  2.4891 -2.1611
  947MOL0     H27804   6.193   0.185  -0.423  1.8372 -3.8188 -4.8354
  947MOL0     H27805   5.869   0.162  -0.613 -3.1899 -0.8804 -0.4824
  947MOL0     H27806   5.672  -0.006  -0.594  0.2403  0.2722  0.2139
  947MOL0     H27807   5.716  -0.126  -0.702 -2.9371 -3.0075  1.2708
  947MOL0     H27808   5.700  -0.166  -0.529 -0.9068 -0.2131 -0.5427
  947MOL0     H27809   6.099  -0.616  -0.480 -2.0072  0.8651 -0.5794
  947MOL0     H27810   6.148  -0.828  -0.633 -0.6448  0.6062 -2.4884
  947MOL0     H27811   5.998  -0.885  -0.968 -0.4826 -1.9187 -0.4957
  947MOL0     H27812   6.107  -0.776  -1.067  2.0726  0.6125  1.8740
  947MOL0     H27813   6.143  -1.081  -1.043 -0.8599  0.2525 -1.2189
  947MOL0     H27814   6.101  -0.982  -1.175  0.0836 -0.4398  0.4930
  947MOL0     H27815   6.367  -0.967  -1.018 -0.2876 -0.0963  0.4025
  947MOL0     H27816   6.332  -0.908  -1.183  0.2064  0.7778  0.3076
  947MOL0     H27817   6.312  -1.197  -1.106 -2.0685 -2.0348 -1.2872
  947MOL0     H27818   6.292  -1.125  -1.278  2.0383 -0.4006 -0.6683
  947MOL0     H27819   6.540  -1.100  -1.124 -1.2895  1.0301 -0.0865
  947MOL0     H27820   6.519  -1.064  -1.292  1.8111  1.9988  2.1920
  947MOL0     H27821   6.444  -1.320  -1.315 -0.2664 -3.0945  2.2501
  947MOL0     H27822   6.617  -1.302  -1.275  1.6121 -0.0730  3.0077
  947MOL0     H27823   6.443  -1.340  -1.041 -2.4099 -2.7934 -0.2038
  947MOL0     H27824   6.606  -1.385  -1.071  0.3036 -2.2769  0.1268
  947MOL0     H27825   6.531  -1.530  -1.264  2.5480  0.5388  2.0751
  947MOL0     H27826   6.361  -1.510  -1.203 -0.4803 -0.1836  0.2161
  947MOL0     H27827   6.127  -0.570  -0.976 -0.2429  2.9596  0.2588
  947MOL0     H27828   6.058  -0.387  -0.827  3.5263 -0.2014 -4.3810
  947MOL0     H27829   6.198  -0.207  -0.593  3.0262  1.4790 -1.2109
  947MOL0     H27830   6.269   0.022  -0.586 -1.0790  0.7477  1.1551
  947MOL0     H27831   7.213   1.251   0.048  3.1719  2.1610 -2.7920
  947MOL0     H27832   7.387   1.350   0.185  0.5476 -0.5168  0.2015
  947MOL0     H27833   7.645   1.825   0.133 -0.0187  1.3900  0.3048
  947MOL0     H27834   7.823   1.950   0.247 -0.8354  0.2405  0.9747
  947MOL0     H27835   7.982   2.124   0.552  0.7809  1.2713 -0.0983
  947MOL0     H27836   7.951   2.083   0.379  2.9223 -0.9509  1.6920
  947MOL0     H27837   7.766   2.177   0.600  2.5518  0.7133 -0.1882
  947MOL0     H27838   7.707   2.169   0.432 -0.8715 -4.2180  1.0555
  947MOL0     H27839   7.874   2.340   0.360  2.0096 -4.3764  0.4468
  947MOL0     H27840   7.923   2.345   0.529 -1.7397  0.1508  3.4779
  947MOL0     H27841   7.797   2.545   0.460 -1.4999  2.4924  2.7302
  947MOL0     H27842   7.734   2.470   0.601  0.9585 -0.3193  0.2342
  947MOL0     H27843   7.417   2.453   0.321 -0.4924  1.7218  1.6353
  947MOL0     H27844   7.710   1.779   0.612 -1.4220 -2.4434 -0.2491
  947MOL0     H27845   7.520   1.666   0.512 -2.7433  1.4523 -0.9541
  948MOL0     O27846   5.993   3.739   0.069  1.2309 -0.3876 -0.5845
  948MOL0     C27847   5.895   3.720   0.152 -0.8558 -0.4096 -0.4743
  948MOL0     O27848   5.901   3.740   0.287 -0.0817 -0.1283  0.0141
  948MOL0     C27849   6.015   3.795   0.333  0.2734 -0.7616 -1.1155
  948MOL0     C27850   6.073   3.708   0.425  0.4375 -0.0768  1.1595
  948MOL0     C27851   6.190   3.747   0.490 -0.3448  0.2265  0.1267
  948MOL0     C27852   6.240   3.876   0.474  0.6166 -0.5569  1.0700
  948MOL0     O27853   6.336   3.921   0.554  0.3014  0.5019 -0.5991
  948MOL0     C27854   6.471   3.916   0.489  0.0146 -0.5163 -0.3300
  948MOL0     C27855   6.516   4.052   0.438  0.7267  0.2964 -0.0352
  948MOL0     C27856   6.659   4.045   0.410 -0.2773 -0.2168  0.0445
  948MOL0     C27857   6.716   4.177   0.354  0.7676 -0.2242  0.3156
  948MOL0     C27858   6.871   4.151   0.331  0.6244  0.4636  0.3584
  948MOL0     C27859   6.954   4.282   0.296 -0.1092  0.7542  0.1344
  948MOL0     C27860   7.069   4.240   0.200  0.7713 -0.7632  0.0986
  948MOL0     C27861   7.180   4.155   0.269  0.0205 -0.1012  0.2291
  948MOL0     N27862   7.160   4.011   0.298  0.3191  0.2664  0.3881
  948MOL0     C27863   7.153   3.915   0.212  0.4513  0.5064  0.2265
  948MOL0     C27864   7.116   3.811   0.289  0.0642  0.9597 -0.5039
  948MOL0     C27865   7.094   3.676   0.232  0.6291  0.0207  0.8055
  948MOL0     C27866   6.949   3.614   0.250  0.3217 -0.0199 -0.9271
  948MOL0     C27867   6.941   3.462   0.258 -0.3377 -0.0700  0.2834
  948MOL0     C27868   7.013   3.384   0.153  0.1431  0.4740  0.5799
  948MOL0     O27869   6.979   3.443   0.031  0.2522  0.1646  0.6018
  948MOL0     C27870   6.864   3.401  -0.047 -0.4102  0.4645 -0.2720
  948MOL0     C27871   6.870   3.458  -0.174 -0.3365  0.2101  0.4833
  948MOL0     C27872   6.768   3.443  -0.276 -1.0618 -0.6006 -0.1882
  948MOL0     C27873   6.774   3.539  -0.389  0.9777  0.0087 -0.3106
  948MOL0     C27874   6.660   3.352  -0.246 -0.3853  1.4964 -0.2790
  948MOL0     C27875   6.542   3.321  -0.325 -0.5063  0.4889  0.4617
  948MOL0     O27876   6.509   3.191  -0.355 -0.1577  0.0150 -0.3161
  948MOL0     C27877   6.403   3.151  -0.436  0.0571 -0.2956 -0.4624
  948MOL0     C27878   6.426   3.046  -0.523 -1.0011 -0.0620 -0.2490
  948MOL0     C27879   6.320   2.993  -0.597  0.4049 -0.0484 -0.7238
  948MOL0     C27880   6.198   3.059  -0.596 -0.5319 -0.1074  0.0283
  948MOL0     O27881   6.100   3.030  -0.689  0.0946 -1.3382  0.0700
  948MOL0     C27882   5.986   2.967  -0.630  0.0264 -0.7607  0.5096
  948MOL0     C27883   5.890   2.952  -0.750 -0.3307  0.1816 -0.3016
  948MOL0     C27884   5.896   3.058  -0.862  0.3783  0.4222  0.2795
  948MOL0     C27885   5.812   3.009  -0.986 -1.1733  0.0369 -0.4361
  948MOL0     C27886   5.869   3.093  -1.105 -0.2527  0.0434  0.7303
  948MOL0     C27887   5.793   3.072  -1.235 -0.0447 -0.4318 -0.6982
  948MOL0     C27888   5.835   3.170  -1.346  0.1471 -0.4115 -0.6201
  948MOL0     C27889   5.982   3.158  -1.394  1.0643 -0.8788  0.7524
  948MOL0    Cl27890   5.977   3.058  -1.541 -0.3074 -0.2007  0.3293
  948MOL0     C27891   6.172   3.166  -0.516  2.0390 -0.1071  0.1551
  948MOL0     C27892   6.283   3.214  -0.433 -0.3040  0.3312  0.1332
  948MOL0     O27893   6.488   3.417  -0.366  1.0184  0.2804  0.6622
  948MOL0     C27894   6.655   3.290  -0.112 -0.4618  0.2207  0.2236
  948MOL0     C27895   6.755   3.314  -0.025  0.2995 -0.3993  0.7313
  948MOL0     N27896   7.095   3.842   0.426 -0.5513  0.2396  0.1038
  948MOL0     N27897   7.120   3.969   0.431  0.1581 -0.3154  0.0426
  948MOL0     C27898   6.169   3.960   0.383 -0.9845 -0.5454  0.3110
  948MOL0     C27899   6.056   3.928   0.317 -0.2792  0.5912  0.2796
  948MOL0     C27900   5.769   3.671   0.107 -0.0620 -1.2057 -0.4125
  948MOL0     C27901   5.725   3.714  -0.016  0.2993  0.3342 -0.2225
  948MOL0     C27902   5.603   3.660  -0.068  0.2847  0.5749 -0.1428
  948MOL0     C27903   5.533   3.564   0.004  0.4427  0.1169  0.8565
  948MOL0     O27904   5.429   3.505  -0.064  0.5380  0.3555 -0.1955
  948MOL0     C27905   5.354   3.396   0.004 -0.2167 -0.4875 -0.3495
  948MOL0     C27906   5.247   3.348  -0.096 -0.0995  0.5381  0.0572
  948MOL0     C27907   5.158   3.465  -0.146  0.6647  0.1453  0.4317
  948MOL0     C27908   5.040   3.479  -0.053 -0.2278 -0.6128 -0.4150
  948MOL0     C27909   4.931   3.396  -0.090 -0.1837  0.8495  0.5794
  948MOL0     C27910   4.845   3.305  -0.112  0.0635  0.4271 -0.4037
  948MOL0     C27911   5.575   3.530   0.128 -0.0599  0.0267  1.5030
  948MOL0     C27912   5.689   3.581   0.184 -0.1970 -0.8971 -0.3029
  948MOL0     H27913   6.041   3.605   0.436  2.8400 -1.0332 -0.2089
  948MOL0     H27914   6.249   3.692   0.562 -1.4716  1.5969  2.1816
  948MOL0     H27915   6.540   3.886   0.568  1.2465  0.3103 -1.0570
  948MOL0     H27916   6.474   3.839   0.412 -1.3432 -1.8506  0.8763
  948MOL0     H27917   6.473   4.066   0.339  1.4479 -1.9069 -0.7157
  948MOL0     H27918   6.493   4.138   0.502 -1.2072  0.3840 -0.7973
  948MOL0     H27919   6.698   4.027   0.511  2.0512 -1.2175 -0.9443
  948MOL0     H27920   6.699   3.961   0.353  1.7062  1.2467 -0.8430
  948MOL0     H27921   6.662   4.210   0.265 -1.0966 -0.7268  1.2069
  948MOL0     H27922   6.696   4.259   0.423 -0.7713  1.3282 -1.8578
  948MOL0     H27923   6.925   4.126   0.423 -3.3237 -1.9369  2.2586
  948MOL0     H27924   6.880   4.069   0.260  2.1378 -1.0645  2.1944
  948MOL0     H27925   6.891   4.351   0.238 -1.0118 -0.7993 -0.7889
  948MOL0     H27926   6.990   4.346   0.378 -1.0383 -1.0348  2.0478
  948MOL0     H27927   7.016   4.170   0.134  0.9002 -2.0548  1.2973
  948MOL0     H27928   7.108   4.329   0.152 -0.1008 -1.0228 -1.1411
  948MOL0     H27929   7.208   4.199   0.364  2.5190  1.1962 -1.0256
  948MOL0     H27930   7.275   4.162   0.214 -0.8189  1.4925 -1.1110
  948MOL0     H27931   7.171   3.907   0.106  2.9346  0.4474  0.5883
  948MOL0     H27932   7.120   3.671   0.126 -2.1541 -0.8684  0.0976
  948MOL0     H27933   7.164   3.607   0.280 -0.3991 -0.4167  1.7021
  948MOL0     H27934   6.875   3.656   0.181 -2.0643  1.0178  2.0393
  948MOL0     H27935   6.926   3.651   0.350  0.5776 -0.4620 -0.6993
  948MOL0     H27936   6.840   3.420   0.257  0.4303 -2.0017 -0.4897
  948MOL0     H27937   6.989   3.426   0.349  0.0704 -4.6892 -1.4771
  948MOL0     H27938   6.984   3.279   0.155  2.8812 -0.3675  2.0869
  948MOL0     H27939   7.122   3.383   0.167  0.1573 -1.3200  0.5566
  948MOL0     H27940   6.961   3.507  -0.206  0.2997 -3.0625 -3.4359
  948MOL0     H27941   6.741   3.495  -0.484 -2.4353  0.6233  0.4612
  948MOL0     H27942   6.707   3.621  -0.364  0.9689  0.0032 -0.3162
  948MOL0     H27943   6.877   3.570  -0.408  1.2002 -1.5862 -2.0529
  948MOL0     H27944   6.524   2.999  -0.521 -0.9913 -0.0296  0.5072
  948MOL0     H27945   6.333   2.895  -0.643 -1.5133 -0.0403 -1.3524
  948MOL0     H27946   5.993   2.872  -0.577 -1.9910 -2.7600 -2.5351
  948MOL0     H27947   5.935   3.043  -0.569  0.6958 -1.0096  1.4005
  948MOL0     H27948   5.938   2.862  -0.791 -0.5083  0.4861 -1.1988
  948MOL0     H27949   5.788   2.929  -0.719 -0.6890  0.1581 -1.4619
  948MOL0     H27950   5.999   3.078  -0.892 -0.2758  1.8145 -1.1844
  948MOL0     H27951   5.870   3.157  -0.825  2.8262  1.3637 -0.3000
  948MOL0     H27952   5.827   2.903  -1.008 -3.1975 -0.8864  2.1198
  948MOL0     H27953   5.706   3.034  -0.977 -1.1308  3.9553 -5.8353
  948MOL0     H27954   5.973   3.061  -1.111 -0.2187  0.2089  0.4492
  948MOL0     H27955   5.860   3.200  -1.086 -3.0070  0.5803 -2.5454
  948MOL0     H27956   5.804   2.967  -1.265  2.3260 -0.2026 -0.8362
  948MOL0     H27957   5.686   3.090  -1.220  0.3801  1.5367  0.3183
  948MOL0     H27958   5.815   3.275  -1.322 -3.1607 -0.6115 -1.9893
  948MOL0     H27959   5.768   3.157  -1.431  0.7758 -1.4358 -0.9755
  948MOL0     H27960   6.042   3.105  -1.320 -1.1350 -0.2543  3.0997
  948MOL0     H27961   6.034   3.252  -1.414  0.9913 -1.1810 -1.0571
  948MOL0     H27962   6.071   3.202  -0.535  1.7183 -1.7782 -1.5992
  948MOL0     H27963   6.269   3.301  -0.370  2.9868  1.5811 -0.6403
  948MOL0     H27964   6.575   3.219  -0.094  0.7518 -1.4286 -0.5085
  948MOL0     H27965   6.764   3.253   0.064  3.1751 -2.3969 -0.7467
  948MOL0     H27966   6.221   4.055   0.374 -0.3150 -0.7716  1.5756
  948MOL0     H27967   6.012   3.990   0.239  2.0441 -0.9168 -2.4323
  948MOL0     H27968   5.776   3.789  -0.074  1.8821  0.2397  0.9813
  948MOL0     H27969   5.565   3.680  -0.168 -2.4708 -0.8448  0.5124
  948MOL0     H27970   5.419   3.318   0.045 -1.2400 -1.5377 -0.6477
  948MOL0     H27971   5.313   3.444   0.093  1.4208 -2.1252  1.3928
  948MOL0     H27972   5.196   3.263  -0.051 -3.4686  1.2877 -1.9856
  948MOL0     H27973   5.306   3.293  -0.169 -0.4610 -0.3861  0.4458
  948MOL0     H27974   5.115   3.458  -0.246  1.7956  2.2862 -0.2628
  948MOL0     H27975   5.219   3.555  -0.157  3.0758 -0.8612  3.8741
  948MOL0     H27976   5.001   3.581  -0.045  0.7392 -0.3775  2.7220
  948MOL0     H27977   5.064   3.456   0.051 -2.7245  1.7707  0.8216
  948MOL0     H27978   4.771   3.233  -0.140  0.1897  1.0692 -2.6463
  948MOL0     H27979   5.518   3.459   0.187 -2.9789  0.2149 -0.8078
  948MOL0     H27980   5.733   3.561   0.281 -1.2292  0.9656  0.6118
  949MOL0     O27981   1.190   0.869   3.627 -0.2698  0.1540 -0.4781
  949MOL0     C27982   1.213   0.834   3.744 -0.3147 -0.3991 -0.4044
  949MOL0     O27983   1.123   0.766   3.830 -0.1439 -0.7406  0.3930
  949MOL0     C27984   1.011   0.735   3.761 -1.4515  0.2105  0.5036
  949MOL0     C27985   1.014   0.611   3.697  0.2909 -0.3032 -1.0598
  949MOL0     C27986   0.909   0.577   3.617  0.1593  0.2917 -0.4786
  949MOL0     C27987   0.794   0.660   3.603  0.4855  0.1543  0.4584
  949MOL0     O27988   0.688   0.634   3.528 -0.3739 -0.1696 -0.6357
  949MOL0     C27989   0.704   0.557   3.412 -0.3205 -0.6655  0.4666
  949MOL0     C27990   0.587   0.582   3.319  0.3367 -0.0657 -0.2949
  949MOL0     C27991   0.610   0.543   3.173 -0.1562 -0.0973 -0.5360
  949MOL0     C27992   0.650   0.396   3.159 -0.0817  0.1540 -0.8843
  949MOL0     C27993   0.624   0.336   3.027 -0.6493 -0.3664 -0.5229
  949MOL0     C27994   0.726   0.382   2.930 -0.5662  0.0188 -0.2204
  949MOL0     C27995   0.721   0.313   2.789  0.5526  0.5576  0.5834
  949MOL0     C27996   0.578   0.347   2.738  0.5602 -0.6480  0.8479
  949MOL0     N27997   0.574   0.314   2.590 -0.8155 -0.4622 -0.6893
  949MOL0     C27998   0.592   0.189   2.534 -0.0583  0.7348 -0.0209
  949MOL0     C27999   0.552   0.204   2.403  0.9819  0.2458  0.5743
  949MOL0     C28000   0.537   0.100   2.293  0.7692  0.1036 -0.0326
  949MOL0     C28001   0.670   0.066   2.242 -0.6722 -0.5296  0.6299
  949MOL0     C28002   0.661  -0.012   2.105  0.0503 -0.9387  0.5642
  949MOL0     C28003   0.624  -0.161   2.141  0.7013 -0.2711  0.8556
  949MOL0     O28004   0.576  -0.223   2.021 -0.2907  0.3598 -0.0291
  949MOL0     C28005   0.603  -0.361   2.001  0.2219  0.1860  0.1650
  949MOL0     C28006   0.642  -0.459   2.097 -1.1200  0.9576  0.3845
  949MOL0     C28007   0.658  -0.595   2.060 -0.1663 -0.6114  0.8386
  949MOL0     C28008   0.719  -0.686   2.161 -0.1624 -0.8593 -1.5599
  949MOL0     C28009   0.608  -0.639   1.934  0.5332  0.2160  0.0407
  949MOL0     C28010   0.590  -0.781   1.906 -0.3610 -0.1718 -1.5771
  949MOL0     O28011   0.469  -0.822   1.867  0.3618 -0.1673  0.1024
  949MOL0     C28012   0.425  -0.945   1.903  0.1680  0.4943  0.4858
  949MOL0     C28013   0.490  -1.030   2.008  0.7175  0.0944 -0.8537
  949MOL0     C28014   0.436  -1.154   2.047 -0.4642  1.0511  0.3447
  949MOL0     C28015   0.315  -1.197   1.987  0.4001 -0.1413  0.2540
  949MOL0     O28016   0.259  -1.307   2.042 -0.0697 -0.4267 -0.3507
  949MOL0     C28017   0.187  -1.387   1.949 -0.3857  0.5774 -0.2396
  949MOL0     C28018   0.084  -1.477   2.022 -0.2262 -0.3451 -0.4325
  949MOL0     C28019   0.142  -1.561   2.137  0.3609 -0.3021 -1.2129
  949MOL0     C28020   0.026  -1.587   2.235 -1.1764  1.1801  0.1627
  949MOL0     C28021   0.070  -1.619   2.376  1.1473  0.0180 -0.6433
  949MOL0     C28022  -0.039  -1.673   2.480  0.5593  0.5432  0.2181
  949MOL0     C28023  -0.150  -1.562   2.506  0.1979 -0.3001 -0.1703
  949MOL0     C28024  -0.258  -1.605   2.607 -1.2355  0.5584 -0.0449
  949MOL0    Cl28025  -0.186  -1.581   2.775 -0.3000 -0.0423 -0.0372
  949MOL0     C28026   0.237  -1.104   1.908  0.2525 -0.7517  0.6711
  949MOL0     C28027   0.297  -0.991   1.857 -0.4723 -0.4580 -0.9861
  949MOL0     O28028   0.693  -0.846   1.912 -0.5070 -0.7122  0.0576
  949MOL0     C28029   0.558  -0.540   1.842  0.6466 -0.0068  0.0360
  949MOL0     C28030   0.560  -0.400   1.873 -0.7310 -0.5066 -0.2686
  949MOL0     N28031   0.534   0.336   2.383 -0.9629 -0.2093 -1.1219
  949MOL0     N28032   0.554   0.401   2.492  0.1300  0.3009 -0.1373
  949MOL0     C28033   0.790   0.776   3.684 -0.0887  0.7646  0.1546
  949MOL0     C28034   0.898   0.816   3.768  1.2954 -0.3301 -0.4429
  949MOL0     C28035   1.337   0.861   3.813  0.4117 -0.5470 -0.6507
  949MOL0     C28036   1.431   0.930   3.734  0.9064 -0.0579 -0.0642
  949MOL0     C28037   1.560   0.948   3.781 -0.5710  0.0790 -1.2431
  949MOL0     C28038   1.598   0.913   3.912 -0.1318  0.2192 -0.4529
  949MOL0     O28039   1.725   0.953   3.961  0.1550 -1.1261  0.4583
  949MOL0     C28040   1.833   0.859   3.941  0.1220 -1.4673 -0.2233
  949MOL0     C28041   1.968   0.915   4.008  0.2780  1.0927  0.0062
  949MOL0     C28042   2.018   1.036   3.935 -0.5906  0.0113  1.1801
  949MOL0     C28043   2.032   1.014   3.783 -0.2736  0.2075 -0.1730
  949MOL0     C28044   2.071   1.133   3.712 -0.4291 -0.2276  0.3705
  949MOL0     C28045   2.091   1.238   3.643  0.4068 -0.9076 -1.0224
  949MOL0     C28046   1.503   0.848   3.992 -0.2410 -0.1622 -0.8200
  949MOL0     C28047   1.375   0.825   3.947  0.2774  1.3536  0.0541
  949MOL0     H28048   1.100   0.549   3.720 -0.7172 -0.7520  2.0277
  949MOL0     H28049   0.900   0.474   3.586 -0.0875  1.0157 -3.0237
  949MOL0     H28050   0.799   0.589   3.369 -0.7648  2.5568  1.5756
  949MOL0     H28051   0.694   0.453   3.445  1.5839 -0.9770  0.1227
  949MOL0     H28052   0.507   0.515   3.352  0.5459  1.1021  2.9337
  949MOL0     H28053   0.547   0.684   3.325 -0.8975 -0.5760  0.6396
  949MOL0     H28054   0.526   0.570   3.109  1.0372 -0.6745 -2.4351
  949MOL0     H28055   0.694   0.594   3.126 -0.1480  2.1521  1.7153
  949MOL0     H28056   0.759   0.395   3.173 -0.0452 -0.8293 -1.1641
  949MOL0     H28057   0.605   0.335   3.238 -0.6298  2.3377  0.5911
  949MOL0     H28058   0.651   0.230   3.031  1.1848 -0.1104 -3.3016
  949MOL0     H28059   0.518   0.352   3.006 -0.5602 -1.7194 -2.3316
  949MOL0     H28060   0.699   0.488   2.922  0.9352  0.3289 -1.9565
  949MOL0     H28061   0.831   0.376   2.960  0.2414  0.4472 -2.7529
  949MOL0     H28062   0.792   0.355   2.717 -1.2879  2.3732 -0.2565
  949MOL0     H28063   0.740   0.206   2.797 -0.1292  0.3130 -0.7671
  949MOL0     H28064   0.558   0.451   2.763  0.9359 -0.9669  2.6406
  949MOL0     H28065   0.497   0.287   2.781 -1.7028  2.1235  0.7510
  949MOL0     H28066   0.596   0.100   2.597 -1.9627  0.8349  0.3092
  949MOL0     H28067   0.471   0.017   2.320  0.4290  0.5110  0.4118
  949MOL0     H28068   0.464   0.140   2.221 -2.2116 -3.8120  0.4369
  949MOL0     H28069   0.722   0.007   2.317 -0.9531 -1.1716  0.3267
  949MOL0     H28070   0.720   0.163   2.235 -0.8410 -0.2596  2.5832
  949MOL0     H28071   0.762  -0.013   2.063  0.9053  1.5056  2.2851
  949MOL0     H28072   0.591   0.034   2.035  0.6475  0.2028  0.6837
  949MOL0     H28073   0.535  -0.162   2.205  0.6476  1.6292  0.8760
  949MOL0     H28074   0.700  -0.218   2.195  0.1426  0.9006  3.0355
  949MOL0     H28075   0.662  -0.417   2.195 -1.1344  0.9463  0.3924
  949MOL0     H28076   0.729  -0.629   2.254 -3.3594 -2.2328 -0.2103
  949MOL0     H28077   0.648  -0.767   2.181  1.0887 -1.2145  2.3299
  949MOL0     H28078   0.820  -0.721   2.138  1.5171  5.0193 -5.5611
  949MOL0     H28079   0.580  -0.985   2.049 -1.2139  2.8883  0.6273
  949MOL0     H28080   0.491  -1.205   2.126 -2.1608 -1.3171  0.1074
  949MOL0     H28081   0.128  -1.330   1.876  0.2003 -0.5422 -1.6291
  949MOL0     H28082   0.263  -1.444   1.894  0.0082  1.4221 -0.5907
  949MOL0     H28083   0.011  -1.407   2.063  1.9840  1.6506  0.3143
  949MOL0     H28084   0.026  -1.542   1.955 -0.1878  0.1892 -0.9972
  949MOL0     H28085   0.225  -1.511   2.188  0.7581 -2.4458  0.4007
  949MOL0     H28086   0.193  -1.656   2.115 -3.3782 -1.9713 -3.6492
  949MOL0     H28087  -0.033  -1.496   2.249  2.3331  3.4645  1.6272
  949MOL0     H28088  -0.036  -1.671   2.202  0.1482  0.3755 -0.3564
  949MOL0     H28089   0.136  -1.541   2.414 -1.0987  1.5856  0.2335
  949MOL0     H28090   0.123  -1.713   2.355 -0.6510 -1.5980  1.5953
  949MOL0     H28091  -0.083  -1.769   2.452 -3.3319  2.3101 -0.4021
  949MOL0     H28092   0.019  -1.687   2.572 -1.0444  1.2888  1.4085
  949MOL0     H28093  -0.198  -1.547   2.409  1.1702 -0.6180 -0.7162
  949MOL0     H28094  -0.096  -1.470   2.529  4.2764 -2.7460  1.1896
  949MOL0     H28095  -0.281  -1.709   2.581  0.8827 -0.0121  0.1444
  949MOL0     H28096  -0.352  -1.551   2.598 -2.4285 -1.1275  1.5400
  949MOL0     H28097   0.131  -1.116   1.890  0.3148 -2.2664  1.1981
  949MOL0     H28098   0.254  -0.933   1.776  0.2804  0.1287 -0.9760
  949MOL0     H28099   0.500  -0.567   1.754  0.9389 -2.0671  0.4208
  949MOL0     H28100   0.520  -0.329   1.801  1.5509  1.1974  0.0491
  949MOL0     H28101   0.701   0.835   3.665  0.1546  0.8344 -0.8192
  949MOL0     H28102   0.890   0.910   3.821 -0.8087 -1.6335  1.7629
  949MOL0     H28103   1.409   0.970   3.636 -3.7460 -2.6984 -0.3927
  949MOL0     H28104   1.636   0.984   3.713 -1.9287  1.2911 -2.1673
  949MOL0     H28105   1.807   0.771   4.000  0.7431 -1.0625  0.7010
  949MOL0     H28106   1.851   0.839   3.835 -1.2427  0.9189 -0.9830
  949MOL0     H28107   2.045   0.840   3.992 -0.2418  1.2779 -5.3619
  949MOL0     H28108   1.952   0.925   4.116 -4.0575 -0.8082 -0.2588
  949MOL0     H28109   2.122   1.066   3.953 -0.3786  0.3068 -0.3643
  949MOL0     H28110   1.954   1.122   3.956 -1.1846 -0.9107  3.4396
  949MOL0     H28111   1.935   0.990   3.739 -0.6416 -1.1249  1.2804
  949MOL0     H28112   2.106   0.941   3.748  1.2096  2.2318 -1.4960
  949MOL0     H28113   2.103   1.323   3.578 -0.3276  1.8738  2.1592
  949MOL0     H28114   1.526   0.849   4.098 -0.9633  1.4284 -0.6452
  949MOL0     H28115   1.305   0.763   4.002  1.4089 -0.9855 -1.0301
  950MOL0     O28116   0.837   8.326   1.276 -0.1624  0.5312 -0.2348
  950MOL0     C28117   0.835   8.215   1.227 -0.9623 -0.2147  0.4108
  950MOL0     O28118   0.854   8.187   1.088 -0.2069  0.8521  0.1704
  950MOL0     C28119   0.878   8.297   1.010  0.0670 -0.3911  0.7843
  950MOL0     C28120   0.777   8.395   0.983  0.9996  0.1650  0.0410
  950MOL0     C28121   0.807   8.498   0.892 -0.2778 -0.0886  0.3220
  950MOL0     C28122   0.929   8.502   0.819 -0.4883 -0.4875 -0.4985
  950MOL0     O28123   0.957   8.605   0.736  0.1379  0.5022  0.0923
  950MOL0     C28124   1.073   8.696   0.770 -0.5416 -0.4017 -0.4456
  950MOL0     C28125   1.040   8.835   0.826 -0.1091  0.3543 -0.6368
  950MOL0     C28126   0.938   8.896   0.729 -0.1881 -1.0274 -0.6119
  950MOL0     C28127   1.006   8.896   0.581 -0.2827  0.0270 -0.5900
  950MOL0     C28128   0.976   9.006   0.478 -0.2516 -0.8719  0.8631
  950MOL0     C28129   1.037   9.141   0.524 -0.3906 -0.6327  0.0198
  950MOL0     C28130   0.992   9.262   0.438 -0.4822 -0.7611 -0.1134
  950MOL0     C28131   0.840   9.298   0.456  0.4501 -0.4642 -0.4800
  950MOL0     N28132   0.806   9.435   0.422  0.4232 -0.1147 -0.7528
  950MOL0     C28133   0.833   9.550   0.497  0.5782 -0.8644  0.5505
  950MOL0     C28134   0.776   9.654   0.433 -0.1477 -0.3768  0.0273
  950MOL0     C28135   0.795   9.802   0.484 -0.4485 -0.7927 -0.3005
  950MOL0     C28136   0.939   9.850   0.446  0.2389  0.6369 -0.4663
  950MOL0     C28137   0.992   9.976   0.504 -0.1455 -0.6818 -0.5668
  950MOL0     C28138   1.049   9.955   0.651 -0.1702  0.4952  0.4420
  950MOL0     O28139   1.139  10.055   0.708 -0.3937 -0.3199  0.3800
  950MOL0     C28140   1.082  10.180   0.727  1.4822 -0.6350  0.3571
  950MOL0     C28141   0.940  10.208   0.729  0.0425  0.5311 -0.3458
  950MOL0     C28142   0.892  10.340   0.732  0.6514 -0.8518  0.0846
  950MOL0     C28143   0.745  10.357   0.692 -0.2826  0.0350 -0.6454
  950MOL0     C28144   0.987  10.447   0.744 -0.6672 -0.1692  0.6773
  950MOL0     C28145   0.953  10.588   0.735  0.3185 -0.1619  0.3522
  950MOL0     O28146   1.024  10.665   0.822  0.3034 -0.2746 -0.5052
  950MOL0     C28147   1.011  10.799   0.816  0.8508  0.0610 -0.2313
  950MOL0     C28148   0.950  10.881   0.907  0.4698  0.9254 -1.5208
  950MOL0     C28149   0.955  11.014   0.885 -0.3826  0.7441 -0.8852
  950MOL0     C28150   1.021  11.077   0.784 -0.6823  0.2473  0.6660
  950MOL0     O28151   1.004  11.212   0.766  0.4730 -0.1572  0.6427
  950MOL0     C28152   1.131  11.272   0.743  0.3063  0.1788  0.0664
  950MOL0     C28153   1.120  11.418   0.748 -0.4232 -0.3171 -0.0831
  950MOL0     C28154   1.084  11.481   0.886 -0.6836 -0.7508  0.5996
  950MOL0     C28155   0.935  11.517   0.901  0.6483  0.6199 -0.2979
  950MOL0     C28156   0.923  11.673   0.872 -0.8350 -0.1491  0.1737
  950MOL0     C28157   0.782  11.735   0.875 -0.5432  0.0222 -0.1574
  950MOL0     C28158   0.750  11.751   1.025  0.2595 -0.6124 -0.2794
  950MOL0     C28159   0.654  11.868   1.027 -0.1920 -0.2088  0.3042
  950MOL0    Cl28160   0.490  11.829   0.960  0.1938 -0.3347  0.0567
  950MOL0     C28161   1.070  10.990   0.679 -0.1285  0.7187  0.8975
  950MOL0     C28162   1.067  10.855   0.702 -0.5298 -0.2342  1.1534
  950MOL0     O28163   0.880  10.626   0.648 -0.3544 -0.2678  0.7625
  950MOL0     C28164   1.130  10.418   0.755  0.2233 -0.2576 -0.4388
  950MOL0     C28165   1.174  10.288   0.744 -0.3947 -0.1640 -0.9450
  950MOL0     N28166   0.729   9.600   0.311  0.2268 -0.4368  0.3716
  950MOL0     N28167   0.744   9.478   0.308  0.1945 -0.4856 -0.1450
  950MOL0     C28168   1.018   8.395   0.842  0.8091  0.6326  0.2078
  950MOL0     C28169   0.994   8.302   0.935  0.6962 -0.1508 -0.0254
  950MOL0     C28170   0.820   8.101   1.322 -0.9810  0.2088  0.2827
  950MOL0     C28171   0.812   7.970   1.271  0.1777 -0.4803 -0.3264
  950MOL0     C28172   0.795   7.863   1.355  0.2124  0.6998 -0.5144
  950MOL0     C28173   0.799   7.869   1.499 -0.9155 -0.7556 -0.2406
  950MOL0     O28174   0.780   7.752   1.571 -0.0564 -0.1174 -0.2198
  950MOL0     C28175   0.796   7.766   1.714  0.3285  0.1562 -0.4195
  950MOL0     C28176   0.798   7.636   1.778 -0.4493 -0.0362 -0.0584
  950MOL0     C28177   0.668   7.547   1.754 -0.2401 -1.4711  0.7992
  950MOL0     C28178   0.685   7.415   1.813  0.0064 -0.7666  0.4421
  950MOL0     C28179   0.719   7.411   1.953  0.4489 -0.0407 -0.2776
  950MOL0     C28180   0.753   7.414   2.071 -0.4656  0.0910  0.3031
  950MOL0     C28181   0.812   7.999   1.551 -0.1955 -0.7780  0.1278
  950MOL0     C28182   0.826   8.112   1.463 -0.3694  0.1270  0.1517
  950MOL0     H28183   0.673   8.383   1.013  1.4259 -3.5006  0.6035
  950MOL0     H28184   0.738   8.579   0.872 -0.6417 -0.7000 -1.0456
  950MOL0     H28185   1.130   8.645   0.848 -0.2958  0.2115 -0.2203
  950MOL0     H28186   1.145   8.702   0.688  0.8974 -3.0704  0.4896
  950MOL0     H28187   0.997   8.815   0.925 -0.4226 -3.1158 -1.3529
  950MOL0     H28188   1.127   8.897   0.848 -2.9722  3.8708  2.0571
  950MOL0     H28189   0.842   8.844   0.723  1.5915 -4.7559  0.3346
  950MOL0     H28190   0.926   8.996   0.772 -0.6760 -1.4885  0.3492
  950MOL0     H28191   1.114   8.914   0.586 -0.7955  3.9154  3.0749
  950MOL0     H28192   0.986   8.801   0.532 -0.5425 -1.9529  2.9778
  950MOL0     H28193   1.022   8.967   0.387 -1.5135 -3.8467  1.3864
  950MOL0     H28194   0.871   9.034   0.481  0.0247  3.5853 -6.6124
  950MOL0     H28195   1.011   9.161   0.628  0.8647  1.4254  0.0041
  950MOL0     H28196   1.145   9.122   0.528 -0.2170  0.1800 -0.5930
  950MOL0     H28197   1.058   9.345   0.464 -1.0461  0.1389 -1.4328
  950MOL0     H28198   1.012   9.245   0.332  1.3944 -2.6928  0.4855
  950MOL0     H28199   0.815   9.296   0.562 -0.6314  4.1956 -0.4066
  950MOL0     H28200   0.783   9.225   0.398  2.1897 -0.9200 -1.6886
  950MOL0     H28201   0.886   9.548   0.591  1.4306  0.1291  0.1054
  950MOL0     H28202   0.728   9.877   0.441  0.3516  0.7862  1.0501
  950MOL0     H28203   0.781   9.810   0.593 -0.7893  2.5802 -0.4746
  950MOL0     H28204   0.939   9.876   0.340 -2.9892 -0.9057 -0.9707
  950MOL0     H28205   1.012   9.771   0.465  0.5623  1.5383  2.6288
  950MOL0     H28206   0.917  10.056   0.503 -0.5342 -1.0224  0.3603
  950MOL0     H28207   1.080  10.007   0.447  2.6365 -5.7099  0.4427
  950MOL0     H28208   1.102   9.860   0.647  0.5260  0.8547  0.9790
  950MOL0     H28209   0.964   9.941   0.719  0.1667 -0.2284  0.7148
  950MOL0     H28210   0.869  10.128   0.712 -0.2465  1.2546 -3.2237
  950MOL0     H28211   0.699  10.449   0.730 -0.0700  0.2958 -1.0198
  950MOL0     H28212   0.734  10.357   0.584 -0.7236 -0.0788 -0.6021
  950MOL0     H28213   0.696  10.272   0.740  1.5463  0.3642  2.0590
  950MOL0     H28214   0.891  10.845   0.991  0.2073  0.3774 -1.9324
  950MOL0     H28215   0.885  11.079   0.937  0.8437  2.0875 -0.8125
  950MOL0     H28216   1.209  11.239   0.812  0.0735  1.4192  0.9808
  950MOL0     H28217   1.165  11.247   0.643 -1.5736  0.6590 -0.7522
  950MOL0     H28218   1.213  11.465   0.713 -2.4797  1.6640 -3.5338
  950MOL0     H28219   1.060  11.453   0.663  2.9469  0.4333 -2.3714
  950MOL0     H28220   1.135  11.578   0.895 -1.6778 -0.1070 -0.3592
  950MOL0     H28221   1.127  11.415   0.961  1.9604 -1.7425 -1.6255
  950MOL0     H28222   0.884  11.441   0.840  3.2041 -3.6977  2.4684
  950MOL0     H28223   0.905  11.492   1.003 -1.8852 -0.5669 -1.2323
  950MOL0     H28224   0.969  11.691   0.774 -0.8702  1.2844  0.3932
  950MOL0     H28225   0.978  11.735   0.943 -4.4649  0.6060  2.5641
  950MOL0     H28226   0.784  11.835   0.832  3.1272  0.6613  1.0702
  950MOL0     H28227   0.700  11.678   0.831 -0.9762  0.5131  0.0118
  950MOL0     H28228   0.834  11.784   1.087 -0.4712  1.5949 -0.3890
  950MOL0     H28229   0.698  11.661   1.060 -1.5047 -0.4331 -2.2837
  950MOL0     H28230   0.693  11.955   0.974  1.0284 -0.8595  0.0991
  950MOL0     H28231   0.646  11.905   1.130  2.0880  3.8540 -0.7598
  950MOL0     H28232   1.098  11.040   0.587  0.4304  1.0868  1.2617
  950MOL0     H28233   1.101  10.786   0.626  1.3134  0.1867  1.5476
  950MOL0     H28234   1.203  10.498   0.754  0.8260 -0.7681 -2.7408
  950MOL0     H28235   1.276  10.250   0.740 -0.7645 -1.2214 -0.6271
  950MOL0     H28236   1.112   8.383   0.788 -0.9280  0.1529 -2.9717
  950MOL0     H28237   1.064   8.220   0.949 -0.3957 -1.0815  0.1145
  950MOL0     H28238   0.816   7.955   1.163  1.6215  1.0776 -0.5347
  950MOL0     H28239   0.783   7.762   1.318 -1.2497  0.8081 -0.3773
  950MOL0     H28240   0.892   7.804   1.752  1.0387 -0.3378 -1.6409
  950MOL0     H28241   0.707   7.820   1.746 -1.0041 -1.8786 -0.5455
  950MOL0     H28242   0.801   7.656   1.886  1.2736 -3.3126  0.6116
  950MOL0     H28243   0.881   7.569   1.755  0.6599  0.6351  1.7493
  950MOL0     H28244   0.652   7.533   1.647  0.3658  1.6306  0.2112
  950MOL0     H28245   0.575   7.587   1.795  0.6788  0.6785  0.9026
  950MOL0     H28246   0.767   7.364   1.761  0.1388  0.2488 -0.3812
  950MOL0     H28247   0.593   7.356   1.803 -0.1646 -1.1994  3.5349
  950MOL0     H28248   0.798   7.418   2.169 -2.3812  4.5086  1.2419
  950MOL0     H28249   0.801   8.018   1.657  2.1311 -2.5709  0.7907
  950MOL0     H28250   0.833   8.211   1.507  0.2347  0.2945 -0.3107
  951MOL0     O28251   4.514   6.303  11.136  0.5418 -0.1339  0.1219
  951MOL0     C28252   4.492   6.373  11.038 -0.1841  0.2731  1.5074
  951MOL0     O28253   4.374   6.423  11.005  0.0407  0.2416 -0.3772
  951MOL0     C28254   4.263   6.387  11.085  0.5514 -0.9291 -1.4428
  951MOL0     C28255   4.221   6.248  11.102 -0.7614 -1.1299  1.0732
  951MOL0     C28256   4.105   6.209  11.163 -0.2273  0.8077 -0.2760
  951MOL0     C28257   4.023   6.311  11.211  0.1096 -0.0053 -0.2409
  951MOL0     O28258   3.906   6.291  11.285  0.0233 -0.0115 -0.0484
  951MOL0     C28259   3.792   6.344  11.222 -0.2959 -0.4785 -0.7293
  951MOL0     C28260   3.675   6.279  11.290 -0.1009 -0.4651  0.2826
  951MOL0     C28261   3.676   6.263  11.445 -1.1480  0.9332  1.0454
  951MOL0     C28262   3.526   6.236  11.492 -0.2609  0.5461  0.3105
  951MOL0     C28263   3.525   6.213  11.645 -0.8754 -0.4236 -0.4550
  951MOL0     C28264   3.381   6.171  11.683  0.2308  0.8343 -0.0515
  951MOL0     C28265   3.345   6.032  11.632  0.2163 -0.0687  1.4941
  951MOL0     C28266   3.195   6.006  11.647  0.2703  0.2591 -0.4349
  951MOL0     N28267   3.114   6.101  11.572  0.3848  0.3069  0.6883
  951MOL0     C28268   3.120   6.115  11.437 -0.1855  0.0957 -0.5324
  951MOL0     C28269   3.059   6.229  11.415  0.5269  0.0302 -0.0150
  951MOL0     C28270   3.053   6.298  11.280  0.1426 -0.1859 -0.5645
  951MOL0     C28271   3.183   6.370  11.248  0.1772  0.6432  0.8971
  951MOL0     C28272   3.206   6.488  11.342 -0.0328 -0.0090  0.4972
  951MOL0     C28273   3.305   6.599  11.292  0.3281 -0.2861  0.2327
  951MOL0     O28274   3.268   6.646  11.159  1.3092 -0.0066 -0.4417
  951MOL0     C28275   3.208   6.769  11.143  0.9656 -0.0414  0.6623
  951MOL0     C28276   3.155   6.795  11.018 -0.3167 -0.7393  0.2122
  951MOL0     C28277   3.110   6.915  10.989  0.9389 -0.2893  1.0461
  951MOL0     C28278   3.079   6.945  10.842 -0.0700  0.1799  0.1314
  951MOL0     C28279   3.090   7.015  11.081 -0.6582 -0.0992 -0.2059
  951MOL0     C28280   3.033   7.149  11.063 -0.2737 -0.4507 -0.3649
  951MOL0     O28281   2.932   7.185  11.157  0.1873 -1.0161 -0.1125
  951MOL0     C28282   2.893   7.318  11.141  0.3970  0.0429 -0.0090
  951MOL0     C28283   2.972   7.435  11.176  0.5573 -0.5822  0.0488
  951MOL0     C28284   2.924   7.560  11.148 -0.2499  0.0789 -0.9425
  951MOL0     C28285   2.803   7.581  11.083 -0.4891  0.3037 -0.3422
  951MOL0     O28286   2.754   7.699  11.037 -0.6594 -0.5785 -0.1302
  951MOL0     C28287   2.855   7.800  10.999  0.4980  0.0177 -0.1622
  951MOL0     C28288   2.799   7.881  10.882  0.7099  0.8029 -0.5826
  951MOL0     C28289   2.698   7.991  10.915  0.9986  0.5990  0.6114
  951MOL0     C28290   2.682   8.095  10.808  0.3408  0.2264  0.1548
  951MOL0     C28291   2.574   8.204  10.856  0.4241 -0.4381  0.7077
  951MOL0     C28292   2.553   8.321  10.750  0.4228 -0.7979  0.1396
  951MOL0     C28293   2.454   8.421  10.798 -0.0578  0.0479 -0.0895
  951MOL0     C28294   2.424   8.536  10.720 -0.7870  0.4129  0.9854
  951MOL0    Cl28295   2.545   8.666  10.734  0.0040 -0.2278  0.0972
  951MOL0     C28296   2.722   7.474  11.049 -0.6265  0.6457  0.1848
  951MOL0     C28297   2.766   7.339  11.073 -0.4224 -0.6214 -0.7950
  951MOL0     O28298   3.078   7.217  10.978 -0.5406 -0.6122  0.2045
  951MOL0     C28299   3.123   6.987  11.215 -0.0741  0.1804 -0.3548
  951MOL0     C28300   3.174   6.859  11.251 -0.0288 -1.1649  0.2774
  951MOL0     N28301   3.025   6.286  11.529  0.5869 -0.3672  0.3940
  951MOL0     N28302   3.054   6.209  11.628 -0.5517 -0.8521 -0.4742
  951MOL0     C28303   4.062   6.445  11.195  0.3714  0.3290 -0.9026
  951MOL0     C28304   4.184   6.487  11.134 -0.2761 -0.9893 -0.3693
  951MOL0     C28305   4.608   6.424  10.957  0.3146  1.8202  0.3795
  951MOL0     C28306   4.725   6.407  11.016  0.0517  0.1957 -0.5726
  951MOL0     C28307   4.845   6.463  10.957  0.4065  0.6005 -0.2704
  951MOL0     C28308   4.833   6.533  10.833  0.6332  2.0361  0.1436
  951MOL0     O28309   4.954   6.574  10.781  0.4268  0.0473  0.0513
  951MOL0     C28310   4.943   6.660  10.664 -0.5566 -0.3363 -0.5117
  951MOL0     C28311   5.069   6.742  10.616  0.2456  0.5276 -0.4403
  951MOL0     C28312   5.178   6.647  10.563 -0.0626  0.1347 -0.8334
  951MOL0     C28313   5.300   6.723  10.510 -0.6406  0.4833 -0.8324
  951MOL0     C28314   5.258   6.778  10.377  0.8064 -1.2663 -0.1292
  951MOL0     C28315   5.251   6.842  10.277 -0.1852  1.1185  0.7656
  951MOL0     C28316   4.703   6.551  10.785 -0.0429 -0.4634 -0.0869
  951MOL0     C28317   4.593   6.498  10.840  0.6050 -0.0948 -1.5150
  951MOL0     H28318   4.290   6.173  11.063 -2.3249 -0.5028 -3.6288
  951MOL0     H28319   4.076   6.107  11.187 -0.7636  0.9559 -0.2853
  951MOL0     H28320   3.778   6.451  11.242 -1.9456 -1.1828  2.5044
  951MOL0     H28321   3.787   6.323  11.115  0.4766 -2.5657 -0.3932
  951MOL0     H28322   3.589   6.346  11.274  0.7756  1.6220  3.3466
  951MOL0     H28323   3.656   6.179  11.250  0.8116 -1.0736  1.3271
  951MOL0     H28324   3.741   6.179  11.471 -2.3937 -0.3343  0.2314
  951MOL0     H28325   3.723   6.353  11.487  1.1284 -0.2422  1.1770
  951MOL0     H28326   3.459   6.320  11.472  0.7265  0.8988 -1.6609
  951MOL0     H28327   3.488   6.152  11.434  2.2261 -0.1223 -0.4600
  951MOL0     H28328   3.597   6.140  11.681  1.6863  0.8828 -2.5820
  951MOL0     H28329   3.547   6.310  11.691 -2.4444 -0.7569  1.0909
  951MOL0     H28330   3.352   6.166  11.788  2.2527  0.1097  0.5165
  951MOL0     H28331   3.332   6.257  11.636  1.3320  1.5595  0.0960
  951MOL0     H28332   3.358   6.015  11.525 -0.1710 -0.8705  1.5701
  951MOL0     H28333   3.406   5.958  11.685 -1.8109 -3.3148 -0.3924
  951MOL0     H28334   3.180   6.013  11.755  1.7469 -2.3967  0.0309
  951MOL0     H28335   3.177   5.902  11.618  2.8108 -0.3796  0.0878
  951MOL0     H28336   3.180   6.046  11.378  0.3974 -1.1120  1.3620
  951MOL0     H28337   3.032   6.226  11.201  2.7152 -0.5646 -1.0123
  951MOL0     H28338   2.973   6.371  11.293 -0.7842 -1.4370  1.2353
  951MOL0     H28339   3.161   6.412  11.149  0.5095 -0.5019  0.3150
  951MOL0     H28340   3.263   6.295  11.248 -0.5925 -0.3078 -1.9881
  951MOL0     H28341   3.236   6.456  11.442 -1.3657 -0.9826  0.6176
  951MOL0     H28342   3.108   6.533  11.361 -1.5976 -2.0840 -1.9942
  951MOL0     H28343   3.399   6.548  11.267 -0.5073 -0.7036 -2.4385
  951MOL0     H28344   3.334   6.680  11.359  1.6816 -0.5006 -0.0554
  951MOL0     H28345   3.176   6.731  10.932  1.7564 -1.5177  1.2234
  951MOL0     H28346   2.980   6.988  10.826 -0.7874  0.4623  4.3129
  951MOL0     H28347   3.155   7.016  10.807  1.2779 -0.4618  1.6263
  951MOL0     H28348   3.079   6.851  10.787 -1.1478 -0.1214  0.6287
  951MOL0     H28349   3.073   7.417  11.212 -0.3379 -2.0867  1.9692
  951MOL0     H28350   2.986   7.643  11.181 -2.3209  0.0578  3.8354
  951MOL0     H28351   2.876   7.859  11.089 -0.2339 -1.7304  1.2109
  951MOL0     H28352   2.947   7.761  10.954 -0.8778 -2.2292 -1.2046
  951MOL0     H28353   2.881   7.943  10.846 -1.6376  3.3053 -2.0566
  951MOL0     H28354   2.778   7.812  10.799  1.8981 -0.3037  0.0006
  951MOL0     H28355   2.720   8.038  11.011 -2.0184 -0.3268  1.8722
  951MOL0     H28356   2.602   7.945  10.937  0.1505  2.9313  2.0883
  951MOL0     H28357   2.780   8.140  10.789 -0.6184  2.2569 -0.2761
  951MOL0     H28358   2.643   8.049  10.717  1.1301 -0.6827  0.2560
  951MOL0     H28359   2.599   8.243  10.955  1.2130 -2.6330  1.4504
  951MOL0     H28360   2.475   8.161  10.877 -0.1366  1.6089  2.6099
  951MOL0     H28361   2.649   8.362  10.718 -0.5233 -1.4035 -4.1595
  951MOL0     H28362   2.522   8.279  10.654 -0.4177  1.3183 -0.5693
  951MOL0     H28363   2.462   8.450  10.903 -0.3755 -0.1103 -0.0194
  951MOL0     H28364   2.355   8.373  10.793 -0.9609  1.9252 -1.7095
  951MOL0     H28365   2.319   8.561  10.740 -2.0955 -1.1388 -2.8590
  951MOL0     H28366   2.424   8.506  10.614 -1.4008 -3.3974  1.9074
  951MOL0     H28367   2.630   7.490  10.993  2.6432  0.1761 -6.3391
  951MOL0     H28368   2.721   7.241  11.062 -1.3142 -0.4410  0.8440
  951MOL0     H28369   3.105   7.055  11.297 -0.8040 -0.9503  0.4582
  951MOL0     H28370   3.202   6.831  11.352 -1.1707 -5.7435 -0.4406
  951MOL0     H28371   4.000   6.527  11.232  1.7367  0.5180  1.1679
  951MOL0     H28372   4.208   6.591  11.116 -2.2543 -0.5971 -1.0390
  951MOL0     H28373   4.733   6.374  11.119  1.2128  2.0024 -0.0314
  951MOL0     H28374   4.934   6.469  11.019 -0.4414 -1.8817  1.3291
  951MOL0     H28375   4.920   6.590  10.583  0.3490 -1.5548  0.2427
  951MOL0     H28376   4.874   6.743  10.680 -1.3020 -0.4270 -2.8055
  951MOL0     H28377   5.108   6.809  10.693 -1.4033  0.8096  0.1892
  951MOL0     H28378   5.046   6.810  10.533 -3.2073 -0.6209 -0.5693
  951MOL0     H28379   5.128   6.567  10.507 -0.4249 -2.6884  3.1134
  951MOL0     H28380   5.199   6.590  10.653 -2.6485 -1.4999 -1.1377
  951MOL0     H28381   5.381   6.652  10.493 -1.4755 -0.8882  0.5774
  951MOL0     H28382   5.333   6.796  10.585 -1.2364  0.3109 -0.3909
  951MOL0     H28383   5.219   6.908  10.199  1.4939  1.2607  0.1608
  951MOL0     H28384   4.686   6.605  10.692 -2.5015  0.6413  0.9386
  951MOL0     H28385   4.499   6.533  10.799 -0.0146 -1.2308 -1.1011
  952MOL0     O28386   9.723   0.285   1.281 -0.8156 -0.0303  0.6296
  952MOL0     C28387   9.663   0.193   1.226 -0.5271  0.1711  0.2057
  952MOL0     O28388   9.718   0.096   1.146 -0.2363 -0.0330  0.2750
  952MOL0     C28389   9.838   0.097   1.085 -0.0411 -1.0980 -0.1750
  952MOL0     C28390   9.840   0.016   0.981  0.5189  0.0023 -0.5983
  952MOL0     C28391   9.937   0.034   0.885  0.0899 -0.1011  0.4564
  952MOL0     C28392  10.050   0.118   0.895  0.4716  0.8364 -0.4402
  952MOL0     O28393  10.146   0.128   0.797  0.2614 -0.0243 -0.2852
  952MOL0     C28394  10.185   0.265   0.763 -0.7880  0.6290  0.6430
  952MOL0     C28395  10.330   0.284   0.757 -0.9846  0.6216 -0.1713
  952MOL0     C28396  10.354   0.410   0.673  0.0628  0.5894  0.1915
  952MOL0     C28397  10.376   0.393   0.522  0.3470  0.4574  0.4601
  952MOL0     C28398  10.372   0.517   0.431 -0.3821  0.7045 -0.4398
  952MOL0     C28399  10.234   0.559   0.400 -0.3795  0.0496  0.4913
  952MOL0     C28400  10.241   0.663   0.297 -0.4773 -0.5743 -0.7750
  952MOL0     C28401  10.109   0.679   0.239  0.6733 -0.7168 -0.9364
  952MOL0     N28402  10.106   0.773   0.130  0.3134 -0.3858  0.4940
  952MOL0     C28403  10.154   0.733   0.005 -0.0051 -0.2094 -0.4179
  952MOL0     C28404  10.106   0.824  -0.091 -0.1831 -0.7135 -1.5831
  952MOL0     C28405  10.110   0.819  -0.246 -0.6846  0.3827 -0.5455
  952MOL0     C28406  10.058   0.689  -0.296  0.7566  0.5595  0.5364
  952MOL0     C28407  10.026   0.692  -0.447 -0.4510 -0.0156 -0.9580
  952MOL0     C28408  10.150   0.674  -0.528 -0.8255  0.4144  1.1839
  952MOL0     O28409  10.103   0.697  -0.662 -0.1789  0.3035 -0.3991
  952MOL0     C28410  10.101   0.827  -0.705 -0.3440 -0.7085  0.1464
  952MOL0     C28411   9.992   0.886  -0.772  0.4400  0.4321 -0.2010
  952MOL0     C28412   9.991   1.016  -0.823 -0.2767 -0.6517 -0.2443
  952MOL0     C28413   9.863   1.062  -0.900 -0.0665  0.8187  0.4880
  952MOL0     C28414  10.110   1.098  -0.806 -0.8822  0.4088 -0.6452
  952MOL0     C28415  10.124   1.239  -0.843 -0.3863 -0.3215 -0.2020
  952MOL0     O28416  10.245   1.289  -0.897  0.8138  0.0462 -0.2240
  952MOL0     C28417  10.261   1.418  -0.947  0.4117  1.3961 -0.5106
  952MOL0     C28418  10.202   1.538  -0.911  0.1974 -0.7202 -1.0043
  952MOL0     C28419  10.256   1.665  -0.945 -0.0599 -0.6969  0.4654
  952MOL0     C28420  10.372   1.673  -1.029  0.5005 -0.1405  0.0195
  952MOL0     O28421  10.410   1.798  -1.064 -0.4062  0.9324 -0.3068
  952MOL0     C28422  10.545   1.812  -1.124  0.0506 -0.4112  0.3558
  952MOL0     C28423  10.597   1.960  -1.105  0.1298 -0.1541 -0.5732
  952MOL0     C28424  10.724   1.979  -1.186 -1.2976  0.2630 -0.5885
  952MOL0     C28425  10.766   2.117  -1.191 -0.0363  0.6153  0.1997
  952MOL0     C28426  10.903   2.153  -1.270  0.8352  0.1702  0.1638
  952MOL0     C28427  10.870   2.157  -1.421 -0.7918 -0.7369 -0.1288
  952MOL0     C28428  10.996   2.162  -1.508  0.0986  0.2477 -0.0567
  952MOL0     C28429  11.066   2.302  -1.500  0.1994 -0.4169  0.4168
  952MOL0    Cl28430  11.133   2.352  -1.653 -0.5495  0.6604  0.1112
  952MOL0     C28431  10.417   1.546  -1.075  0.1310 -0.1052  0.1508
  952MOL0     C28432  10.368   1.426  -1.037 -0.0547  0.9813 -0.0908
  952MOL0     O28433  10.024   1.294  -0.835 -0.4335  0.3850 -0.6229
  952MOL0     C28434  10.218   1.031  -0.742 -0.5124  0.0147 -0.2062
  952MOL0     C28435  10.218   0.902  -0.706  0.2921  1.4293 -0.1145
  952MOL0     N28436  10.035   0.918  -0.022  1.3683 -0.1059  0.2061
  952MOL0     N28437  10.031   0.883   0.104  0.3874 -0.2396 -0.4622
  952MOL0     C28438  10.053   0.186   1.010  0.1584 -0.6097 -0.6219
  952MOL0     C28439   9.955   0.174   1.110 -0.2657  0.8233 -0.4821
  952MOL0     C28440   9.508   0.195   1.254 -0.1666  0.4699 -0.0075
  952MOL0     C28441   9.440   0.302   1.315 -0.8384  0.4680  0.0158
  952MOL0     C28442   9.301   0.309   1.315  1.3449 -0.2930 -0.8381
  952MOL0     C28443   9.231   0.207   1.263  0.8723  0.5700 -0.0140
  952MOL0     O28444   9.099   0.196   1.288  1.2068 -0.1141  0.4647
  952MOL0     C28445   9.030   0.300   1.221 -0.0925  1.4415  1.6386
  952MOL0     C28446   8.922   0.225   1.144  0.2288  0.2616 -0.6983
  952MOL0     C28447   8.979   0.106   1.063 -0.1776  0.3911 -0.4883
  952MOL0     C28448   8.859   0.049   0.974 -0.7398 -0.6205  0.2919
  952MOL0     C28449   8.895  -0.060   0.877 -0.0690  0.2451 -0.0550
  952MOL0     C28450   8.902  -0.152   0.800  0.4145  0.3439 -0.0997
  952MOL0     C28451   9.295   0.098   1.214  0.3935  0.6913  0.2720
  952MOL0     C28452   9.435   0.090   1.208  0.4472 -0.7438 -0.2055
  952MOL0     H28453   9.743  -0.030   0.968 -0.3860  0.2412  3.8406
  952MOL0     H28454   9.918  -0.019   0.792  4.6139  0.9376 -1.3542
  952MOL0     H28455  10.149   0.277   0.661 -0.2671  3.9019  0.7492
  952MOL0     H28456  10.127   0.338   0.820 -1.1449 -0.3770  1.6042
  952MOL0     H28457  10.371   0.296   0.858 -1.9983 -0.5780  0.4052
  952MOL0     H28458  10.369   0.187   0.725 -0.6516  1.1346 -1.3583
  952MOL0     H28459  10.268   0.478   0.677 -0.6503 -0.3650  1.7839
  952MOL0     H28460  10.432   0.464   0.727 -0.8387 -0.0154  2.1930
  952MOL0     H28461  10.477   0.352   0.519  0.3458  0.3863  1.1670
  952MOL0     H28462  10.313   0.311   0.485  0.2115  0.9216 -0.3551
  952MOL0     H28463  10.432   0.595   0.479  1.6664  0.9422 -3.1670
  952MOL0     H28464  10.433   0.494   0.343 -0.7347 -1.7041 -0.1070
  952MOL0     H28465  10.181   0.473   0.360 -1.5563  1.6596 -1.6010
  952MOL0     H28466  10.177   0.592   0.488  0.9643 -0.8838  1.7589
  952MOL0     H28467  10.259   0.751   0.359  0.0715 -0.9878 -0.3353
  952MOL0     H28468  10.324   0.639   0.229  3.1156  2.2021  2.1701
  952MOL0     H28469  10.040   0.714   0.316  0.1159 -0.9948 -1.3007
  952MOL0     H28470  10.058   0.586   0.211 -0.2163 -0.3160 -0.6767
  952MOL0     H28471  10.216   0.644  -0.005 -0.9451 -1.1219  1.3426
  952MOL0     H28472  10.057   0.901  -0.294  0.0059  0.7378 -0.7182
  952MOL0     H28473  10.210   0.848  -0.279 -0.5634  0.3064 -0.2466
  952MOL0     H28474   9.959   0.670  -0.254  0.1901  2.0909 -0.0639
  952MOL0     H28475  10.124   0.607  -0.264 -1.3505 -2.0691 -1.3728
  952MOL0     H28476   9.973   0.779  -0.486  1.1908  0.3810 -2.3782
  952MOL0     H28477   9.958   0.606  -0.457  2.3761 -2.3983 -1.2758
  952MOL0     H28478  10.191   0.573  -0.519  0.5608  1.0812  2.8408
  952MOL0     H28479  10.219   0.751  -0.492 -0.2896  1.5772 -2.0002
  952MOL0     H28480   9.905   0.823  -0.783  0.4524  0.4340 -0.3049
  952MOL0     H28481   9.838   0.966  -0.946  0.9390  1.7811 -2.2397
  952MOL0     H28482   9.789   1.109  -0.834  1.9209  1.2591  2.5616
  952MOL0     H28483   9.889   1.135  -0.977  0.9653 -0.6388 -0.6194
  952MOL0     H28484  10.123   1.529  -0.838  2.7059 -1.5300  1.8200
  952MOL0     H28485  10.211   1.755  -0.904  1.7896 -0.5257  2.3367
  952MOL0     H28486  10.619   1.739  -1.088 -1.8433 -2.0978  1.0537
  952MOL0     H28487  10.540   1.777  -1.227 -2.7678  1.0194 -0.0871
  952MOL0     H28488  10.527   2.034  -1.147 -1.4012 -1.6375 -0.7634
  952MOL0     H28489  10.609   1.980  -0.999  0.7130 -2.3018 -0.1964
  952MOL0     H28490  10.714   1.939  -1.287 -1.9388 -0.9946 -0.0445
  952MOL0     H28491  10.790   1.924  -1.119 -2.8925  2.8966  3.5747
  952MOL0     H28492  10.685   2.171  -1.241 -0.1149  1.2847  1.0307
  952MOL0     H28493  10.766   2.154  -1.088 -1.2622  2.1860 -0.3188
  952MOL0     H28494  10.993   2.093  -1.250  1.1745 -0.2313 -2.2870
  952MOL0     H28495  10.933   2.249  -1.228  0.9943 -0.2075  0.9358
  952MOL0     H28496  10.805   2.078  -1.461 -0.2278 -1.2369 -0.0696
  952MOL0     H28497  10.818   2.252  -1.441  1.5167  0.5682 -0.2239
  952MOL0     H28498  10.956   2.147  -1.609 -1.8661 -0.8382  0.8126
  952MOL0     H28499  11.053   2.068  -1.505 -1.2692 -0.7103 -1.7059
  952MOL0     H28500  11.149   2.312  -1.429  0.4141  2.6148 -0.1532
  952MOL0     H28501  10.992   2.375  -1.466 -0.2100 -1.1219  1.0774
  952MOL0     H28502  10.498   1.548  -1.147  0.2284 -3.4699 -0.0011
  952MOL0     H28503  10.409   1.334  -1.075  3.3578  1.4599  2.0043
  952MOL0     H28504  10.308   1.091  -0.744  0.5475 -1.5051 -0.2002
  952MOL0     H28505  10.308   0.851  -0.675 -2.3599 -3.2110  0.7834
  952MOL0     H28506  10.140   0.246   1.035 -1.2948  1.2085  0.2852
  952MOL0     H28507   9.964   0.234   1.200 -3.0012 -0.2559  0.6183
  952MOL0     H28508   9.498   0.382   1.358 -1.3966  0.7707  0.2217
  952MOL0     H28509   9.253   0.395   1.360 -1.0171 -2.7025  1.6441
  952MOL0     H28510   8.970   0.356   1.293  1.1184  2.6864  1.7081
  952MOL0     H28511   9.079   0.356   1.141  1.5015 -2.4983 -0.4596
  952MOL0     H28512   8.872   0.302   1.086 -0.3916  1.5190  1.3915
  952MOL0     H28513   8.842   0.185   1.207  0.7595  1.8824  1.1048
  952MOL0     H28514   9.013   0.022   1.124 -4.3132 -0.7839  0.4654
  952MOL0     H28515   9.058   0.145   0.997 -0.9988 -0.6396 -2.1577
  952MOL0     H28516   8.823   0.140   0.925  1.4832  1.2537  1.9190
  952MOL0     H28517   8.777   0.016   1.038 -1.0126 -0.3085  0.1097
  952MOL0     H28518   8.905  -0.235   0.732 -1.8832 -0.9802  1.2591
  952MOL0     H28519   9.239   0.011   1.182  0.2320  0.5781  0.8441
  952MOL0     H28520   9.469  -0.008   1.178  0.4706 -1.0843  0.8903
  953MOL0     O28521   2.767   4.859   5.676 -0.3848  0.3523 -0.1489
  953MOL0     C28522   2.650   4.841   5.723 -0.8103 -0.5541 -0.7959
  953MOL0     O28523   2.599   4.931   5.823  0.1916 -0.1674 -0.0452
  953MOL0     C28524   2.686   5.026   5.872 -0.3132 -0.4953  0.1047
  953MOL0     C28525   2.689   5.167   5.824  0.4281  1.0152 -0.4903
  953MOL0     C28526   2.786   5.258   5.873  0.8874 -0.6451  0.3678
  953MOL0     C28527   2.884   5.219   5.960 -0.2127  1.1296 -0.3328
  953MOL0     O28528   2.980   5.306   6.002 -1.1774  0.4772  0.0463
  953MOL0     C28529   2.933   5.442   6.028  0.4430  0.0120  0.4603
  953MOL0     C28530   3.038   5.536   5.971 -0.3130 -0.2080  0.4565
  953MOL0     C28531   3.032   5.536   5.819 -1.3511  0.2084  0.0517
  953MOL0     C28532   3.002   5.673   5.759  0.5164  0.0368 -0.1537
  953MOL0     C28533   2.998   5.663   5.606 -0.5029  0.0292  0.2579
  953MOL0     C28534   3.125   5.665   5.524  0.5947 -0.3669 -0.5866
  953MOL0     C28535   3.092   5.627   5.384  0.2638  0.3071  0.2269
  953MOL0     C28536   3.210   5.656   5.291  1.3661 -0.3337  0.4554
  953MOL0     N28537   3.297   5.542   5.277 -0.1682  0.1882  0.4034
  953MOL0     C28538   3.277   5.429   5.204 -0.4993 -0.2757 -0.2058
  953MOL0     C28539   3.400   5.375   5.187  0.4579 -0.1107  0.4425
  953MOL0     C28540   3.453   5.262   5.110 -0.1906 -0.3657  0.9270
  953MOL0     C28541   3.363   5.166   5.038  0.9110 -0.1533 -0.2792
  953MOL0     C28542   3.266   5.111   5.137 -0.3771  0.1825  0.2250
  953MOL0     C28543   3.154   5.038   5.060  0.1757  0.3978  1.5907
  953MOL0     O28544   3.180   4.903   5.016  0.0247 -0.6143 -0.4423
  953MOL0     C28545   3.129   4.807   5.101  0.2139  0.5781  1.0547
  953MOL0     C28546   3.061   4.700   5.039 -0.1903 -0.9827 -0.1512
  953MOL0     C28547   3.003   4.599   5.113  0.3565 -0.6319  0.6053
  953MOL0     C28548   2.956   4.482   5.027 -0.9337  0.3400  0.2507
  953MOL0     C28549   3.009   4.589   5.252 -0.4078 -0.6032 -0.1517
  953MOL0     C28550   2.951   4.484   5.334 -0.0328  0.7422  0.1626
  953MOL0     O28551   2.912   4.363   5.283  1.0401  1.3192  0.3449
  953MOL0     C28552   2.830   4.268   5.360 -0.8547  0.0121 -0.1501
  953MOL0     C28553   2.867   4.232   5.495 -0.2384 -0.3607  0.7300
  953MOL0     C28554   2.787   4.145   5.564  0.1348 -0.4786  0.1018
  953MOL0     C28555   2.666   4.087   5.507  0.3240 -0.7741 -0.9994
  953MOL0     O28556   2.596   3.982   5.568 -0.2292  0.3540 -0.4461
  953MOL0     C28557   2.650   3.933   5.695  0.5840  0.3142 -0.6156
  953MOL0     C28558   2.573   3.796   5.733  0.0985  1.2260  0.0942
  953MOL0     C28559   2.643   3.674   5.689  0.5374 -0.2878 -0.9471
  953MOL0     C28560   2.605   3.631   5.548 -0.4123  0.2167  0.5296
  953MOL0     C28561   2.714   3.586   5.457  1.3430 -0.7361 -0.6683
  953MOL0     C28562   2.766   3.708   5.375  0.0635 -0.0315  0.1717
  953MOL0     C28563   2.880   3.672   5.292 -0.4114 -0.0772 -1.0995
  953MOL0     C28564   2.893   3.761   5.170 -0.4783 -0.1834 -0.0018
  953MOL0    Cl28565   3.066   3.739   5.127  0.3961  0.0377  0.2370
  953MOL0     C28566   2.628   4.136   5.380  0.0006 -0.9657 -0.1927
  953MOL0     C28567   2.718   4.214   5.307  1.4569  0.1132 -0.8603
  953MOL0     O28568   2.927   4.518   5.445 -0.2031 -0.0075 -0.1520
  953MOL0     C28569   3.072   4.702   5.314  0.2799  0.2799 -0.4110
  953MOL0     C28570   3.143   4.803   5.240 -0.4465 -0.4572 -0.9362
  953MOL0     N28571   3.488   5.456   5.257  0.1380  0.3299 -0.6028
  953MOL0     N28572   3.432   5.558   5.307 -0.5498 -0.3619 -0.3583
  953MOL0     C28573   2.888   5.082   6.005  0.2582 -0.3565 -0.1548
  953MOL0     C28574   2.793   4.992   5.961  0.1913  0.5904 -0.6646
  953MOL0     C28575   2.574   4.726   5.686  0.5787 -0.6855  0.3766
  953MOL0     C28576   2.624   4.621   5.612 -0.6637  0.7423  1.1974
  953MOL0     C28577   2.550   4.502   5.588  0.3906 -0.2053 -0.0742
  953MOL0     C28578   2.413   4.497   5.614  0.6750 -0.4572  0.1055
  953MOL0     O28579   2.318   4.406   5.570 -0.4493  0.7718 -0.1210
  953MOL0     C28580   2.356   4.270   5.542  0.4208 -0.4965  0.0137
  953MOL0     C28581   2.238   4.175   5.572 -0.2001 -1.2828 -0.0961
  953MOL0     C28582   2.269   4.033   5.567  0.0068 -0.1578 -1.2670
  953MOL0     C28583   2.264   3.955   5.441 -1.2127  0.1293 -0.2934
  953MOL0     C28584   2.304   3.825   5.476 -0.5219 -0.1906 -0.3074
  953MOL0     C28585   2.290   3.705   5.499 -0.1576 -0.6224  0.3630
  953MOL0     C28586   2.359   4.608   5.692  0.2488 -0.3910  0.6951
  953MOL0     C28587   2.442   4.713   5.727  0.5164 -0.5495 -0.0523
  953MOL0     H28588   2.592   5.187   5.779 -1.3617 -0.8999  2.2473
  953MOL0     H28589   2.775   5.359   5.836  0.0845  0.0254  2.3219
  953MOL0     H28590   2.835   5.472   5.988  0.2622  0.0977  0.9608
  953MOL0     H28591   2.923   5.446   6.137 -1.3754  1.6136  0.2995
  953MOL0     H28592   3.022   5.630   6.023  1.1563  0.0265  0.5296
  953MOL0     H28593   3.138   5.512   6.008  1.6503  3.7402 -1.7117
  953MOL0     H28594   3.130   5.505   5.783 -1.0838  1.7439 -0.6250
  953MOL0     H28595   2.962   5.463   5.779 -0.8057 -0.3319  0.0673
  953MOL0     H28596   2.905   5.713   5.793 -0.5370 -1.9912 -0.6419
  953MOL0     H28597   3.078   5.745   5.791  0.2958  1.3073 -2.2998
  953MOL0     H28598   2.943   5.572   5.582 -2.2956  1.0981  0.0429
  953MOL0     H28599   2.930   5.743   5.574 -1.2512 -0.5654  0.3286
  953MOL0     H28600   3.162   5.768   5.533 -0.6202  0.1468 -1.1846
  953MOL0     H28601   3.191   5.588   5.565  0.2930 -0.5702 -0.4848
  953MOL0     H28602   3.081   5.518   5.389  0.8193  0.3059  2.0324
  953MOL0     H28603   2.996   5.669   5.352  0.1125  0.1454  0.4573
  953MOL0     H28604   3.263   5.747   5.319  2.7777 -0.7727 -0.6478
  953MOL0     H28605   3.183   5.678   5.187  1.3670  2.0637  0.9117
  953MOL0     H28606   3.181   5.397   5.165 -0.1278 -2.2051  0.3870
  953MOL0     H28607   3.529   5.301   5.041 -3.0910 -1.3893 -3.2345
  953MOL0     H28608   3.505   5.196   5.180  2.4288  0.5046 -0.0633
  953MOL0     H28609   3.415   5.074   5.008 -0.0340 -1.1340  0.9867
  953MOL0     H28610   3.324   5.231   4.959 -1.0867 -0.3671  0.4919
  953MOL0     H28611   3.215   5.189   5.194 -2.2607 -0.5878 -0.3268
  953MOL0     H28612   3.320   5.047   5.208  1.4285 -0.0896 -1.3272
  953MOL0     H28613   3.133   5.107   4.978 -0.6060  0.4360  1.8202
  953MOL0     H28614   3.064   5.037   5.122  0.5045  1.4910  2.0977
  953MOL0     H28615   3.061   4.688   4.931 -0.4291 -2.5801  0.0019
  953MOL0     H28616   2.847   4.483   5.018 -0.8392 -1.6746 -2.4309
  953MOL0     H28617   2.997   4.482   4.926 -2.4091 -1.0963 -0.3986
  953MOL0     H28618   2.991   4.385   5.063  1.6307  0.4422 -1.6442
  953MOL0     H28619   2.946   4.282   5.549 -1.6577  3.3168 -0.2792
  953MOL0     H28620   2.819   4.137   5.667 -0.7384 -0.6189  0.3671
  953MOL0     H28621   2.759   3.929   5.702  0.5020 -0.5810  0.3057
  953MOL0     H28622   2.621   4.008   5.769 -0.9301  0.4262 -1.2741
  953MOL0     H28623   2.563   3.792   5.842 -3.8769 -0.3038 -0.1660
  953MOL0     H28624   2.471   3.782   5.698  0.7995 -2.7572 -0.8946
  953MOL0     H28625   2.643   3.588   5.757 -1.1239 -1.9445 -2.8888
  953MOL0     H28626   2.751   3.693   5.691 -0.1613  5.0352  0.1633
  953MOL0     H28627   2.527   3.555   5.550 -1.0713  0.8844  2.1479
  953MOL0     H28628   2.566   3.717   5.492 -0.4947  0.3844  0.8414
  953MOL0     H28629   2.687   3.506   5.387 -5.1845 -0.8100  1.2708
  953MOL0     H28630   2.788   3.539   5.523 -0.5265 -0.7839  1.5157
  953MOL0     H28631   2.685   3.761   5.325 -1.2132 -1.6653  0.4057
  953MOL0     H28632   2.810   3.776   5.449  0.2253  1.3206 -1.1259
  953MOL0     H28633   2.881   3.564   5.270 -0.3208 -1.0424  2.8527
  953MOL0     H28634   2.975   3.675   5.346 -0.9701 -0.7434 -0.0420
  953MOL0     H28635   2.865   3.863   5.200  0.4509  0.3307 -0.8347
  953MOL0     H28636   2.824   3.723   5.094  0.5633 -1.6509 -0.2473
  953MOL0     H28637   2.543   4.082   5.340 -0.1929  0.8704 -2.4385
  953MOL0     H28638   2.695   4.247   5.206  2.2933  0.2649 -1.0076
  953MOL0     H28639   3.073   4.702   5.423  1.5017  0.3734 -0.4021
  953MOL0     H28640   3.204   4.875   5.294  0.0677 -0.9163 -0.9039
  953MOL0     H28641   2.957   5.050   6.082 -1.0031  3.7152  3.0283
  953MOL0     H28642   2.808   4.893   6.000 -0.5851  2.0031  3.7087
  953MOL0     H28643   2.724   4.624   5.570 -0.9294  6.3393  0.2166
  953MOL0     H28644   2.605   4.417   5.549  0.5884  0.1993 -0.6933
  953MOL0     H28645   2.395   4.276   5.440 -0.3136 -0.4281 -0.2671
  953MOL0     H28646   2.434   4.253   5.616  0.4318 -0.9113 -0.0881
  953MOL0     H28647   2.154   4.203   5.508 -1.2755 -0.7927  1.4786
  953MOL0     H28648   2.221   4.192   5.679 -1.9995 -2.2038 -0.2020
  953MOL0     H28649   2.207   3.983   5.641  0.6060  1.3429  0.3213
  953MOL0     H28650   2.363   4.034   5.624  0.1569  1.7564 -1.4621
  953MOL0     H28651   2.337   3.996   5.371 -1.6272  3.5906  1.1033
  953MOL0     H28652   2.166   3.955   5.392 -1.4400  0.3575  0.1532
  953MOL0     H28653   2.286   3.598   5.505  0.9475 -0.6242  4.2766
  953MOL0     H28654   2.259   4.606   5.732  0.3574 -0.0089  0.9896
  953MOL0     H28655   2.394   4.786   5.791  0.8769  0.0593 -0.4631
  954MOL0     O28656   4.197   6.715   4.424 -0.3010 -0.1874 -0.2024
  954MOL0     C28657   4.145   6.765   4.323 -0.4521 -0.2013 -0.0770
  954MOL0     O28658   4.196   6.781   4.200 -0.4435 -0.6208  0.0832
  954MOL0     C28659   4.324   6.735   4.179  0.3502  0.2327 -0.5569
  954MOL0     C28660   4.344   6.602   4.128 -0.0402 -0.4211 -0.0147
  954MOL0     C28661   4.470   6.561   4.083 -0.9742  0.2146  0.3467
  954MOL0     C28662   4.576   6.646   4.119  0.2377  0.8208  0.0961
  954MOL0     O28663   4.712   6.617   4.091 -0.2799 -0.9448 -1.0348
  954MOL0     C28664   4.733   6.521   3.984  0.2406 -0.4167 -0.1019
  954MOL0     C28665   4.885   6.524   3.969 -0.3484 -0.7779  0.3900
  954MOL0     C28666   4.968   6.485   4.088  0.1472  0.2613 -0.0695
  954MOL0     C28667   5.113   6.517   4.042  0.1952 -0.5006  0.1312
  954MOL0     C28668   5.209   6.452   4.147 -1.5926  0.1017 -0.0371
  954MOL0     C28669   5.363   6.473   4.133  0.6506  0.1404 -0.2268
  954MOL0     C28670   5.447   6.411   4.246 -0.0475  0.5864  0.4377
  954MOL0     C28671   5.452   6.493   4.380  0.0885 -0.2773  1.4569
  954MOL0     N28672   5.543   6.614   4.378 -0.0483  0.7939  1.0051
  954MOL0     C28673   5.663   6.628   4.441 -0.1201  0.6018  0.7929
  954MOL0     C28674   5.713   6.750   4.401  1.2011  0.2348 -0.3696
  954MOL0     C28675   5.836   6.824   4.447 -0.3459  0.2671  0.1392
  954MOL0     C28676   5.971   6.758   4.462  0.3654 -0.1064  0.1620
  954MOL0     C28677   6.089   6.850   4.428 -0.5109  0.6631 -0.3383
  954MOL0     C28678   6.104   6.970   4.519 -0.5935  1.0239  0.3908
  954MOL0     O28679   6.162   7.073   4.439  0.0275 -1.0202  0.5143
  954MOL0     C28680   6.179   7.203   4.486 -0.0406  0.5712 -0.5410
  954MOL0     C28681   6.117   7.244   4.607  0.1390 -0.0286  0.0236
  954MOL0     C28682   6.127   7.376   4.635 -0.3440  0.3604  0.2703
  954MOL0     C28683   6.031   7.421   4.740 -0.4420 -0.6561 -0.7183
  954MOL0     C28684   6.203   7.466   4.554 -0.5165 -0.0220 -0.4097
  954MOL0     C28685   6.221   7.605   4.591 -0.5864 -0.7415  0.0456
  954MOL0     O28686   6.202   7.699   4.493  0.5711 -0.4720  0.3644
  954MOL0     C28687   6.252   7.823   4.491  0.7260  0.4462  0.5055
  954MOL0     C28688   6.227   7.909   4.596 -0.0405 -0.2774  0.6435
  954MOL0     C28689   6.278   8.044   4.585 -0.7152  1.3289  0.7688
  954MOL0     C28690   6.344   8.087   4.464 -0.0137  0.1632 -0.9958
  954MOL0     O28691   6.398   8.215   4.446 -0.1234  0.7722  0.0377
  954MOL0     C28692   6.329   8.327   4.501  0.0197  0.5297 -1.0541
  954MOL0     C28693   6.400   8.450   4.437  0.1580  0.2342 -0.2228
  954MOL0     C28694   6.362   8.594   4.484  0.6364 -0.2327  1.5474
  954MOL0     C28695   6.480   8.654   4.556  0.0155 -1.1193 -0.2732
  954MOL0     C28696   6.457   8.812   4.568  0.2102  0.9382 -0.4908
  954MOL0     C28697   6.585   8.856   4.660  0.6256 -0.0969  0.3373
  954MOL0     C28698   6.579   9.011   4.659  0.1103  1.0303 -0.6959
  954MOL0     C28699   6.672   9.076   4.763  0.1935  0.8014  0.4344
  954MOL0    Cl28700   6.668   8.991   4.924  0.3957 -0.0119 -0.0017
  954MOL0     C28701   6.358   7.993   4.359 -0.4325 -0.0334 -0.3078
  954MOL0     C28702   6.311   7.865   4.369  0.1080  0.5153  0.2236
  954MOL0     O28703   6.263   7.629   4.710 -0.3058  0.8537  0.4548
  954MOL0     C28704   6.268   7.424   4.449 -0.1343 -0.4181 -0.3036
  954MOL0     C28705   6.250   7.289   4.414 -0.9894  0.6862  0.6496
  954MOL0     N28706   5.622   6.805   4.314  0.3506  0.2706  0.0921
  954MOL0     N28707   5.516   6.727   4.306  0.0008 -0.0791 -0.1844
  954MOL0     C28708   4.559   6.765   4.175 -0.3774  0.1392 -0.2562
  954MOL0     C28709   4.434   6.816   4.210  0.6790 -0.3149 -0.1218
  954MOL0     C28710   4.000   6.792   4.353  0.6912 -0.5550  0.3973
  954MOL0     C28711   3.929   6.737   4.461  0.0247  0.2525 -0.3613
  954MOL0     C28712   3.787   6.744   4.467 -0.1726  0.4052  0.0811
  954MOL0     C28713   3.711   6.811   4.369 -0.8532 -0.3897  0.8708
  954MOL0     O28714   3.582   6.795   4.387 -0.4116 -0.6244  0.2634
  954MOL0     C28715   3.489   6.791   4.273 -0.5928 -1.2085 -0.2530
  954MOL0     C28716   3.367   6.857   4.328 -0.3274 -0.7105  0.3203
  954MOL0     C28717   3.247   6.848   4.229  0.3748 -0.6149 -0.9313
  954MOL0     C28718   3.129   6.922   4.294  0.2643  0.1785  0.1983
  954MOL0     C28719   3.026   6.840   4.357  0.5117  0.7434 -0.8350
  954MOL0     C28720   2.942   6.766   4.413  0.2665 -0.2145 -0.6775
  954MOL0     C28721   3.788   6.898   4.282 -0.2899 -0.5484 -1.3474
  954MOL0     C28722   3.930   6.882   4.272  0.0072 -0.4773 -0.2867
  954MOL0     H28723   4.257   6.540   4.110 -0.1186 -0.0595 -0.9230
  954MOL0     H28724   4.484   6.460   4.045  1.0073  0.6525 -0.2222
  954MOL0     H28725   4.708   6.422   4.023  0.5840 -0.6109 -0.3747
  954MOL0     H28726   4.683   6.541   3.889  2.8507 -0.3809 -1.5627
  954MOL0     H28727   4.905   6.462   3.882 -0.5720 -0.6364  0.2356
  954MOL0     H28728   4.903   6.629   3.944  1.2426 -1.3289 -0.9446
  954MOL0     H28729   4.948   6.543   4.178 -1.4026 -2.3312  1.3821
  954MOL0     H28730   4.942   6.379   4.104 -3.0940  0.7444 -1.3825
  954MOL0     H28731   5.129   6.477   3.942  0.1589  1.7339 -0.8130
  954MOL0     H28732   5.121   6.626   4.049  1.1347 -0.6337  1.3940
  954MOL0     H28733   5.183   6.487   4.247  0.3199 -0.4575  0.7069
  954MOL0     H28734   5.190   6.344   4.137  4.2026 -1.1070 -2.2938
  954MOL0     H28735   5.390   6.408   4.049 -0.4706 -2.3820  1.2349
  954MOL0     H28736   5.397   6.574   4.112  1.1584 -0.5638 -3.3658
  954MOL0     H28737   5.393   6.317   4.263 -0.3201  0.6067 -0.3044
  954MOL0     H28738   5.545   6.403   4.198  0.0355 -2.8932  0.9066
  954MOL0     H28739   5.477   6.413   4.452 -0.2523 -2.3871 -0.6424
  954MOL0     H28740   5.351   6.529   4.400 -2.0565 -2.6316 -3.4200
  954MOL0     H28741   5.701   6.551   4.507 -0.9820  0.4711  1.1485
  954MOL0     H28742   5.842   6.905   4.373  1.0297  0.4231  0.3988
  954MOL0     H28743   5.810   6.861   4.547 -1.5325 -0.4086  0.1023
  954MOL0     H28744   5.983   6.665   4.406  1.5951  0.7213 -1.0428
  954MOL0     H28745   5.978   6.729   4.567 -0.7642  0.0593  0.2862
  954MOL0     H28746   6.101   6.868   4.321 -0.2050 -0.7348 -0.5600
  954MOL0     H28747   6.164   6.773   4.444 -1.9865 -0.2599  2.9332
  954MOL0     H28748   6.155   6.946   4.612 -3.8413 -2.1501  1.6003
  954MOL0     H28749   6.001   6.998   4.545 -1.4126  0.6438 -2.1424
  954MOL0     H28750   6.056   7.184   4.674 -1.1425 -0.1358 -1.1952
  954MOL0     H28751   5.978   7.337   4.786 -3.1103 -0.7025 -3.5550
  954MOL0     H28752   6.088   7.482   4.811  0.4502 -0.1920 -1.7935
  954MOL0     H28753   5.958   7.491   4.698  1.2408  0.0632 -2.6186
  954MOL0     H28754   6.167   7.874   4.679 -0.7518 -3.6991 -1.1015
  954MOL0     H28755   6.280   8.118   4.665 -2.1066  0.0486  2.0472
  954MOL0     H28756   6.221   8.335   4.486 -1.0789 -3.8037  2.4402
  954MOL0     H28757   6.352   8.341   4.607  1.5133 -0.1888 -1.2518
  954MOL0     H28758   6.506   8.426   4.426  0.2495  0.9424 -0.9793
  954MOL0     H28759   6.364   8.444   4.334 -2.4011 -2.4381  0.6804
  954MOL0     H28760   6.268   8.593   4.540 -0.3683  2.3196  0.0560
  954MOL0     H28761   6.334   8.647   4.393 -1.8602 -1.1535  1.7082
  954MOL0     H28762   6.492   8.622   4.660  0.5484 -0.9549 -0.2831
  954MOL0     H28763   6.575   8.639   4.504  1.0272 -0.4728  1.3089
  954MOL0     H28764   6.365   8.841   4.620  2.7712  2.1071  3.8665
  954MOL0     H28765   6.471   8.872   4.478  1.5666  3.0863  1.0524
  954MOL0     H28766   6.569   8.809   4.757  1.8905 -0.3543  0.4362
  954MOL0     H28767   6.673   8.811   4.612  0.2567  0.6105 -1.0411
  954MOL0     H28768   6.474   9.038   4.679 -0.4975 -0.0169 -2.2645
  954MOL0     H28769   6.601   9.049   4.558  2.6969 -0.5002 -0.7863
  954MOL0     H28770   6.642   9.175   4.802  1.4519  0.4807  2.3470
  954MOL0     H28771   6.774   9.077   4.726 -1.0461  1.1811 -3.3861
  954MOL0     H28772   6.405   8.043   4.275  0.4490  1.7689  1.1952
  954MOL0     H28773   6.325   7.795   4.287  2.9181  0.8061  0.3709
  954MOL0     H28774   6.334   7.487   4.390  2.1624 -1.3093  1.1831
  954MOL0     H28775   6.289   7.260   4.317 -1.5160  1.3967  0.2132
  954MOL0     H28776   4.644   6.831   4.186  1.6501 -1.3327 -4.6572
  954MOL0     H28777   4.423   6.918   4.246 -2.0443 -0.5148 -0.1505
  954MOL0     H28778   3.974   6.662   4.526 -1.4909 -0.8494 -0.5155
  954MOL0     H28779   3.735   6.696   4.550  2.2876 -1.6518  0.5470
  954MOL0     H28780   3.522   6.844   4.183  0.3053 -2.3953 -0.6638
  954MOL0     H28781   3.472   6.688   4.242 -2.4869 -0.8439 -0.5126
  954MOL0     H28782   3.375   6.963   4.352  0.7401 -0.6712 -0.1695
  954MOL0     H28783   3.335   6.818   4.426  1.2382 -1.5964  0.5096
  954MOL0     H28784   3.228   6.746   4.196  1.2547  0.0119 -3.6773
  954MOL0     H28785   3.274   6.908   4.141  0.3149 -1.2162 -1.3626
  954MOL0     H28786   3.078   6.972   4.211 -0.1553  4.7876  2.8979
  954MOL0     H28787   3.155   6.988   4.377 -1.9512 -1.5626  2.4420
  954MOL0     H28788   2.868   6.695   4.444  0.9210 -0.7131 -0.2065
  954MOL0     H28789   3.740   6.959   4.206  2.3436  1.4718 -1.5102
  954MOL0     H28790   3.985   6.936   4.196 -1.2124 -2.2526 -2.5440
  955MOL0     O28791   4.836  10.471   7.617  0.3363 -0.1824  0.7782
  955MOL0     C28792   4.733  10.409   7.639  0.1411 -0.4347 -0.0820
  955MOL0     O28793   4.653  10.340   7.546  0.2457  0.8223 -0.0575
  955MOL0     C28794   4.701  10.329   7.415  0.2933  0.0903  0.0636
  955MOL0     C28795   4.790  10.225   7.395 -0.5208 -0.3485 -0.5570
  955MOL0     C28796   4.824  10.201   7.266  0.0096  0.7656  0.2504
  955MOL0     C28797   4.787  10.278   7.157 -0.2884 -0.3836  0.7168
  955MOL0     O28798   4.849  10.255   7.030  0.8163 -0.3236  0.4232
  955MOL0     C28799   4.754  10.240   6.915 -0.2064  0.0109  0.2079
  955MOL0     C28800   4.819  10.221   6.783 -0.6791  1.0834 -0.0473
  955MOL0     C28801   4.958  10.165   6.788  0.7847 -1.0203 -0.2954
  955MOL0     C28802   5.033  10.144   6.659  0.0395  0.3524 -0.0365
  955MOL0     C28803   5.157  10.049   6.665 -0.0890 -0.0702  1.4107
  955MOL0     C28804   5.263  10.096   6.767  0.6863  0.8853  1.0207
  955MOL0     C28805   5.341  10.225   6.723 -0.1938  0.6199 -0.4170
  955MOL0     C28806   5.383  10.238   6.575 -0.0056 -0.2515  0.6358
  955MOL0     N28807   5.489  10.342   6.552  0.7966 -0.3257 -0.5803
  955MOL0     C28808   5.493  10.470   6.603  0.9540  0.9142 -0.2353
  955MOL0     C28809   5.606  10.523   6.550  0.1300 -0.6642 -0.5339
  955MOL0     C28810   5.646  10.667   6.566  0.4028 -1.0035  0.6620
  955MOL0     C28811   5.605  10.758   6.429 -0.1050 -0.0132  0.2016
  955MOL0     C28812   5.453  10.771   6.428  0.2389  0.1858  0.9502
  955MOL0     C28813   5.405  10.839   6.559 -0.0269 -0.3986  0.1938
  955MOL0     O28814   5.303  10.926   6.518  0.4727  0.2139 -1.0260
  955MOL0     C28815   5.230  10.985   6.619  0.5923 -0.4852  0.1718
  955MOL0     C28816   5.175  11.110   6.590 -0.5419  0.3177 -0.1940
  955MOL0     C28817   5.087  11.175   6.682 -0.5457  0.0627  0.3332
  955MOL0     C28818   5.023  11.297   6.636 -0.5077 -0.0620 -0.5342
  955MOL0     C28819   5.070  11.127   6.811  0.1060  0.1479  0.5980
  955MOL0     C28820   4.986  11.182   6.923 -0.0220 -0.3302  0.0442
  955MOL0     O28821   5.024  11.126   7.051  0.5825 -0.3651 -0.0981
  955MOL0     C28822   4.958  11.191   7.153  0.2026  0.5499 -1.4633
  955MOL0     C28823   4.845  11.129   7.216 -0.5206 -0.6481 -0.0744
  955MOL0     C28824   4.771  11.203   7.301  0.8661  0.5994  0.0098
  955MOL0     C28825   4.804  11.330   7.338 -0.7473  0.3345 -0.1509
  955MOL0     O28826   4.716  11.388   7.418  0.7215 -0.2422  0.8701
  955MOL0     C28827   4.691  11.521   7.379 -0.1718 -0.8212 -0.3956
  955MOL0     C28828   4.541  11.556   7.388 -0.3492  0.7457  0.4359
  955MOL0     C28829   4.467  11.509   7.268  0.6065 -1.7991  0.8554
  955MOL0     C28830   4.512  11.574   7.141  0.3048  0.4477 -0.3514
  955MOL0     C28831   4.391  11.608   7.061  0.2730  0.2465  0.3385
  955MOL0     C28832   4.437  11.610   6.908 -0.2741  0.1024  0.6260
  955MOL0     C28833   4.323  11.656   6.818  0.3990 -0.8613 -0.0591
  955MOL0     C28834   4.309  11.579   6.696 -0.0029  0.1903  0.1994
  955MOL0    Cl28835   4.142  11.532   6.674 -0.3873  0.5876  0.0693
  955MOL0     C28836   4.921  11.393   7.275 -0.0079  0.2838 -1.0102
  955MOL0     C28837   5.000  11.318   7.188 -0.0055  0.4784 -0.1022
  955MOL0     O28838   4.885  11.244   6.897  0.2963 -0.2364  0.3951
  955MOL0     C28839   5.136  11.004   6.838 -0.0443 -0.1583 -0.6309
  955MOL0     C28840   5.202  10.928   6.743 -0.1921  0.0949 -0.6411
  955MOL0     N28841   5.677  10.422   6.492  0.4084 -0.0634  0.4349
  955MOL0     N28842   5.604  10.317   6.484  0.5088 -0.2850 -0.5347
  955MOL0     C28843   4.698  10.376   7.180 -0.8001 -0.4698  0.7758
  955MOL0     C28844   4.655  10.406   7.308 -0.0614 -0.4878  0.5849
  955MOL0     C28845   4.678  10.411   7.777 -0.2598 -1.3850  0.2705
  955MOL0     C28846   4.549  10.366   7.789  0.0933 -0.2102  0.4681
  955MOL0     C28847   4.500  10.367   7.918  0.0393  0.7170 -0.3388
  955MOL0     C28848   4.569  10.397   8.039  0.0242 -0.7912 -0.0598
  955MOL0     O28849   4.511  10.401   8.162  0.3311  0.1794 -0.0943
  955MOL0     C28850   4.415  10.298   8.197  0.0228 -0.7880 -0.2166
  955MOL0     C28851   4.281  10.375   8.210 -0.0211 -0.3874  0.1490
  955MOL0     C28852   4.184  10.315   8.303  0.5012 -0.5395 -0.2568
  955MOL0     C28853   4.042  10.386   8.304 -0.4635 -0.0993 -0.2508
  955MOL0     C28854   4.054  10.525   8.342 -0.3024  0.4663 -0.6609
  955MOL0     C28855   4.067  10.648   8.369 -0.8083  0.4931 -0.9735
  955MOL0     C28856   4.703  10.448   8.021  0.9288  0.3570 -0.3098
  955MOL0     C28857   4.757  10.449   7.891 -0.5821 -0.3267  0.2578
  955MOL0     H28858   4.825  10.172   7.483 -1.4349  1.0560  0.7092
  955MOL0     H28859   4.890  10.118   7.243 -0.5100  0.3278  0.3217
  955MOL0     H28860   4.698  10.148   6.932 -0.2085  0.2176  1.3775
  955MOL0     H28861   4.684  10.324   6.924 -0.8709 -0.7712  3.5041
  955MOL0     H28862   4.759  10.147   6.729  0.2961 -2.5740  3.4253
  955MOL0     H28863   4.830  10.312   6.724  1.9291  1.5724  1.0539
  955MOL0     H28864   5.009  10.242   6.846 -1.9793 -0.7629  2.0298
  955MOL0     H28865   4.957  10.071   6.844 -0.3472  0.7184  2.8837
  955MOL0     H28866   4.961  10.095   6.593  1.9065  0.3306 -2.1751
  955MOL0     H28867   5.061  10.235   6.606 -0.5650  1.9792  2.2456
  955MOL0     H28868   5.126   9.952   6.703  1.5949 -1.0856  0.3174
  955MOL0     H28869   5.194  10.027   6.564 -2.5205 -0.8015  0.6201
  955MOL0     H28870   5.220  10.111   6.866 -0.2456 -1.2605  0.9919
  955MOL0     H28871   5.339  10.019   6.785  0.9146  1.4257  2.4550
  955MOL0     H28872   5.279  10.313   6.745  1.1809  1.4936  0.0721
  955MOL0     H28873   5.429  10.222   6.788 -1.8124  0.0318  1.8600
  955MOL0     H28874   5.295  10.252   6.512 -0.6746 -1.6084  1.2146
  955MOL0     H28875   5.422  10.139   6.546 -1.3458 -2.5121  5.4810
  955MOL0     H28876   5.411  10.519   6.656  0.3835 -2.6211  2.5325
  955MOL0     H28877   5.598  10.707   6.655  0.3012  0.2724  0.0607
  955MOL0     H28878   5.749  10.680   6.599 -0.1940 -0.3082  2.3511
  955MOL0     H28879   5.634  10.723   6.330 -3.5800 -0.5811 -0.7250
  955MOL0     H28880   5.660  10.852   6.443  0.7106 -0.3922 -0.3519
  955MOL0     H28881   5.404  10.674   6.431  0.8162 -0.0992  1.4426
  955MOL0     H28882   5.417  10.828   6.342 -3.7216 -1.8779  1.0403
  955MOL0     H28883   5.476  10.910   6.601 -0.9384  0.2324  0.7038
  955MOL0     H28884   5.371  10.760   6.627 -0.4137  1.1650  1.8893
  955MOL0     H28885   5.213  11.158   6.500 -0.1903 -0.1438 -0.2949
  955MOL0     H28886   5.066  11.382   6.689 -0.1804 -1.0436  0.8308
  955MOL0     H28887   5.042  11.316   6.529 -2.2331 -0.1689 -0.8832
  955MOL0     H28888   4.915  11.295   6.649 -0.3287 -0.9284  0.9576
  955MOL0     H28889   4.814  11.025   7.216  0.6592 -1.1105 -3.0320
  955MOL0     H28890   4.688  11.161   7.357 -0.3250  1.1583 -1.2480
  955MOL0     H28891   4.745  11.589   7.445 -1.0661  0.1812 -0.6708
  955MOL0     H28892   4.722  11.545   7.277 -0.1496 -1.6736 -0.5972
  955MOL0     H28893   4.500  11.502   7.473 -2.7282 -0.8181 -1.5653
  955MOL0     H28894   4.522  11.664   7.395 -2.9647  0.3574  0.3035
  955MOL0     H28895   4.360  11.508   7.292  0.2765  0.1400 -0.3800
  955MOL0     H28896   4.487  11.406   7.238  3.5962 -0.5066 -2.1647
  955MOL0     H28897   4.571  11.664   7.158 -2.2104  1.9024  1.2848
  955MOL0     H28898   4.571  11.504   7.081  0.4085  0.8762 -0.7548
  955MOL0     H28899   4.350  11.702   7.098  0.8422 -0.2026  2.2531
  955MOL0     H28900   4.318  11.529   7.080 -1.2208  0.9232 -2.2173
  955MOL0     H28901   4.532  11.665   6.901  1.6670 -3.1778 -2.0891
  955MOL0     H28902   4.469  11.512   6.873 -3.6409 -1.2120  0.8585
  955MOL0     H28903   4.368  11.750   6.786  0.1449 -1.5773 -2.7962
  955MOL0     H28904   4.232  11.676   6.874  2.3049 -1.4254  3.5966
  955MOL0     H28905   4.365  11.486   6.686  1.4484  0.9294  1.0410
  955MOL0     H28906   4.333  11.652   6.618 -0.4547 -0.1341 -0.2519
  955MOL0     H28907   4.959  11.490   7.305  3.3406 -0.5388 -2.1290
  955MOL0     H28908   5.089  11.360   7.144 -0.0915  0.3390 -0.4092
  955MOL0     H28909   5.101  10.949   6.925  0.4686 -0.1199 -0.4020
  955MOL0     H28910   5.227  10.826   6.770  3.1283  1.3331  1.5572
  955MOL0     H28911   4.668  10.451   7.107  0.8537 -0.7108 -0.2083
  955MOL0     H28912   4.583  10.484   7.329  0.6232  0.5615 -0.8117
  955MOL0     H28913   4.478  10.342   7.711 -1.3262  0.9350  1.3731
  955MOL0     H28914   4.400  10.324   7.929  0.3685 -1.2337 -3.7100
  955MOL0     H28915   4.413  10.213   8.128  2.5843 -0.9273 -0.2133
  955MOL0     H28916   4.444  10.267   8.297 -2.5856  1.2418  1.3082
  955MOL0     H28917   4.255  10.389   8.105  0.7362 -3.6091 -0.5950
  955MOL0     H28918   4.312  10.473   8.245 -0.0369 -0.2025 -0.3545
  955MOL0     H28919   4.212  10.331   8.407 -2.7134  1.3088  0.4283
  955MOL0     H28920   4.172  10.211   8.271 -2.1740 -0.2199 -0.5320
  955MOL0     H28921   3.974  10.345   8.379  0.4885 -1.7206 -0.2313
  955MOL0     H28922   3.989  10.370   8.209 -3.7020  2.4967  0.9225
  955MOL0     H28923   4.069  10.752   8.394  2.6005  0.1436  0.7928
  955MOL0     H28924   4.755  10.473   8.113 -0.2450 -3.0153  1.4327
  955MOL0     H28925   4.859  10.483   7.876 -0.3174 -2.0184 -2.5921
  956MOL0     O28926   2.167   3.477   6.080  0.3266  0.2969 -0.0536
  956MOL0     C28927   2.134   3.468   5.958 -0.3607 -0.1543  0.2364
  956MOL0     O28928   2.113   3.348   5.889 -0.7114  0.3376  0.6737
  956MOL0     C28929   2.170   3.237   5.956  0.6058 -0.8399  1.7311
  956MOL0     C28930   2.302   3.200   5.921  0.6324  0.0436 -0.3548
  956MOL0     C28931   2.356   3.075   5.953  0.2126  0.3553 -0.7673
  956MOL0     C28932   2.266   2.980   6.020  0.1323 -0.4738 -0.7007
  956MOL0     O28933   2.292   2.855   6.051 -0.1743  0.3581 -0.4203
  956MOL0     C28934   2.418   2.793   6.011  0.9422  1.4392 -0.7338
  956MOL0     C28935   2.417   2.755   5.860 -0.4983  0.3544 -0.1494
  956MOL0     C28936   2.548   2.703   5.802 -0.5383 -0.0735  1.2177
  956MOL0     C28937   2.657   2.805   5.780 -0.4203  0.4476  0.1177
  956MOL0     C28938   2.626   2.906   5.672 -0.0968 -0.6109  0.3536
  956MOL0     C28939   2.754   2.997   5.644  1.2526  0.1813  0.9104
  956MOL0     C28940   2.736   3.104   5.537 -0.2288  0.0121 -0.0460
  956MOL0     C28941   2.673   3.238   5.585  0.6384  0.4293 -0.4073
  956MOL0     N28942   2.734   3.291   5.710 -0.4703 -0.1342 -1.4793
  956MOL0     C28943   2.870   3.332   5.721  1.1446  0.0754 -0.6412
  956MOL0     C28944   2.892   3.360   5.852  0.2338  0.0851  0.5047
  956MOL0     C28945   3.011   3.437   5.901  0.9120 -1.1641 -0.3102
  956MOL0     C28946   2.997   3.587   5.861  0.6321  1.4804 -0.0436
  956MOL0     C28947   3.081   3.671   5.946  0.5816 -0.0307 -1.1676
  956MOL0     C28948   3.025   3.811   5.984 -0.8575 -0.1391  0.5348
  956MOL0     O28949   2.956   3.871   5.869 -0.5421  1.0932  0.7669
  956MOL0     C28950   3.035   3.941   5.782 -0.4665  0.7205  0.8734
  956MOL0     C28951   3.126   4.043   5.823  0.7138 -0.2291  0.6321
  956MOL0     C28952   3.185   4.130   5.726  0.4457 -0.7680  0.7575
  956MOL0     C28953   3.257   4.264   5.771 -0.1144  0.4292  0.9349
  956MOL0     C28954   3.178   4.094   5.587  0.9279  0.6018 -1.0921
  956MOL0     C28955   3.260   4.143   5.471  0.2335 -0.9409  0.3269
  956MOL0     O28956   3.234   4.092   5.349  0.3340  0.5114 -1.4075
  956MOL0     C28957   3.248   4.167   5.239  0.6560  0.4926 -0.1037
  956MOL0     C28958   3.264   4.087   5.124 -1.3587 -1.0222 -0.2356
  956MOL0     C28959   3.284   4.141   5.000  0.1836 -0.0453 -0.5980
  956MOL0     C28960   3.277   4.280   4.983 -1.1824  0.8924  0.0490
  956MOL0     O28961   3.291   4.326   4.858  0.1203 -0.4095  0.2518
  956MOL0     C28962   3.352   4.458   4.833 -0.1555 -0.2161 -0.2113
  956MOL0     C28963   3.439   4.456   4.705 -0.9110  0.3842 -0.1118
  956MOL0     C28964   3.468   4.586   4.646 -0.6381 -0.8652 -0.4301
  956MOL0     C28965   3.612   4.650   4.692 -0.0825 -1.0982 -0.3012
  956MOL0     C28966   3.749   4.572   4.659  0.3630 -0.1469  0.9871
  956MOL0     C28967   3.760   4.542   4.507 -0.4189  0.0361  0.0777
  956MOL0     C28968   3.912   4.503   4.488  1.0098  0.7041  0.3182
  956MOL0     C28969   3.929   4.457   4.339 -0.0903  0.7529 -0.0447
  956MOL0    Cl28970   3.949   4.285   4.323 -0.2629 -0.1465  0.0030
  956MOL0     C28971   3.262   4.356   5.099  0.5378 -0.4350  0.0334
  956MOL0     C28972   3.237   4.303   5.224 -0.7954 -0.1839 -0.1769
  956MOL0     O28973   3.341   4.232   5.490 -0.0635 -0.0205 -0.2177
  956MOL0     C28974   3.093   3.990   5.556  0.0377  1.0107 -0.5869
  956MOL0     C28975   3.014   3.919   5.653 -0.6172  0.8432 -0.7434
  956MOL0     N28976   2.770   3.334   5.911 -0.6181 -0.4188 -0.0291
  956MOL0     N28977   2.672   3.303   5.832 -0.2588 -0.2098 -0.0319
  956MOL0     C28978   2.138   3.018   6.043  0.7500  0.7427 -0.3731
  956MOL0     C28979   2.085   3.143   6.014 -0.1471 -0.4137 -1.0558
  956MOL0     C28980   2.088   3.589   5.891  0.5041 -0.8340  0.3955
  956MOL0     C28981   2.086   3.719   5.941 -0.0366 -0.4947  0.3532
  956MOL0     C28982   2.033   3.836   5.867 -0.4266  0.5155  0.0520
  956MOL0     C28983   1.973   3.819   5.750  1.5809  0.6382  0.2911
  956MOL0     O28984   1.908   3.924   5.690  0.3091 -0.7879 -0.5699
  956MOL0     C28985   1.904   3.936   5.548  1.0802 -0.3088 -0.6460
  956MOL0     C28986   1.756   3.962   5.497 -0.1493 -0.3128 -0.4950
  956MOL0     C28987   1.675   3.835   5.527 -0.2851  0.3591  0.1227
  956MOL0     C28988   1.542   3.828   5.447 -0.1166 -0.3618  0.2288
  956MOL0     C28989   1.553   3.776   5.314 -1.3740  0.1879  0.4302
  956MOL0     C28990   1.563   3.751   5.193  0.0615  0.0568 -1.0096
  956MOL0     C28991   1.980   3.696   5.693 -0.8080 -0.1332 -0.3802
  956MOL0     C28992   2.042   3.579   5.751 -0.6791  1.3517 -0.1126
  956MOL0     H28993   2.364   3.267   5.862 -3.1551  0.2237 -4.7894
  956MOL0     H28994   2.458   3.042   5.936 -0.2672 -2.2917  0.9665
  956MOL0     H28995   2.505   2.851   6.041  0.4414  1.3205  1.0279
  956MOL0     H28996   2.427   2.708   6.079  1.8151  1.2767 -1.0300
  956MOL0     H28997   2.329   2.692   5.843 -0.4262  0.3489 -0.5136
  956MOL0     H28998   2.391   2.844   5.802 -0.9667  2.1797  2.6878
  956MOL0     H28999   2.590   2.611   5.844  0.9895  0.6551  1.3622
  956MOL0     H29000   2.514   2.668   5.704  0.1972  3.4247 -0.4480
  956MOL0     H29001   2.666   2.865   5.871  0.3046 -1.5685  1.4237
  956MOL0     H29002   2.752   2.751   5.774  0.3120  1.8605 -2.8159
  956MOL0     H29003   2.585   2.864   5.580 -3.5928  1.0020  1.0170
  956MOL0     H29004   2.546   2.975   5.701 -1.0887 -0.4530 -2.5106
  956MOL0     H29005   2.783   3.045   5.737  1.8946 -3.1410  2.5545
  956MOL0     H29006   2.832   2.926   5.616 -0.2570 -1.7064  1.2107
  956MOL0     H29007   2.842   3.111   5.514 -0.1735 -1.8540 -0.5701
  956MOL0     H29008   2.694   3.062   5.445 -1.6328 -0.3208  0.7112
  956MOL0     H29009   2.565   3.241   5.601  1.0384  3.5100  3.1555
  956MOL0     H29010   2.691   3.316   5.510  2.3973  1.8714  1.4164
  956MOL0     H29011   2.944   3.339   5.642  2.2165 -3.7762 -0.2303
  956MOL0     H29012   3.021   3.432   6.010  2.7823  3.0178 -0.0895
  956MOL0     H29013   3.100   3.393   5.856  1.2152  0.0222 -0.9030
  956MOL0     H29014   2.891   3.612   5.872 -0.2838 -1.5984 -0.8253
  956MOL0     H29015   3.018   3.600   5.755 -2.6268 -0.8571 -1.1313
  956MOL0     H29016   3.179   3.667   5.898  0.0745 -0.6661 -2.1937
  956MOL0     H29017   3.088   3.617   6.040  1.8764 -0.5106 -1.5146
  956MOL0     H29018   3.107   3.876   6.018 -1.1398  0.4953  0.0220
  956MOL0     H29019   2.960   3.798   6.071  1.0233 -2.6164  1.6919
  956MOL0     H29020   3.116   4.062   5.929 -0.1180  3.2739  0.0609
  956MOL0     H29021   3.224   4.285   5.873  1.3964 -1.7086  1.9328
  956MOL0     H29022   3.364   4.240   5.764 -0.7117 -2.6049  0.7922
  956MOL0     H29023   3.228   4.342   5.700 -1.2263 -0.7334  0.0655
  956MOL0     H29024   3.268   3.982   5.149 -0.7955 -1.0406 -0.3845
  956MOL0     H29025   3.314   4.075   4.919 -1.0423 -1.2484 -0.1073
  956MOL0     H29026   3.278   4.539   4.832 -1.7898 -1.5616 -3.3515
  956MOL0     H29027   3.415   4.479   4.920  2.0011 -0.0170 -1.7566
  956MOL0     H29028   3.519   4.387   4.731 -2.3378 -0.6378  1.8289
  956MOL0     H29029   3.393   4.407   4.618  1.7862  1.2847 -2.2154
  956MOL0     H29030   3.390   4.661   4.660 -0.3851  0.0331 -3.1330
  956MOL0     H29031   3.468   4.579   4.537 -0.4042 -1.1001 -0.4172
  956MOL0     H29032   3.625   4.753   4.657  0.5713 -0.9398  0.3763
  956MOL0     H29033   3.616   4.668   4.800  0.1721  0.2232 -0.5155
  956MOL0     H29034   3.745   4.479   4.717 -2.5750 -0.4224  0.4781
  956MOL0     H29035   3.827   4.634   4.703  0.7361 -0.7038  1.1195
  956MOL0     H29036   3.698   4.452   4.499 -1.3445  0.6826 -0.1305
  956MOL0     H29037   3.731   4.622   4.439  4.4852  1.5809 -0.5223
  956MOL0     H29038   3.948   4.432   4.563  0.9916  1.1758  0.7830
  956MOL0     H29039   3.961   4.600   4.498  0.6972  1.4243 -3.6282
  956MOL0     H29040   4.013   4.513   4.298 -1.1236  1.4626 -1.2846
  956MOL0     H29041   3.842   4.490   4.281 -0.8668 -2.4510 -0.9520
  956MOL0     H29042   3.275   4.464   5.094 -1.8502 -0.1511 -1.8786
  956MOL0     H29043   3.232   4.374   5.305  2.9356  2.4749 -1.9829
  956MOL0     H29044   3.086   3.955   5.454  0.7894  0.0104 -0.3140
  956MOL0     H29045   2.935   3.853   5.617  0.5539 -0.1774 -1.5249
  956MOL0     H29046   2.066   2.946   6.080 -1.4650  0.7312 -4.2353
  956MOL0     H29047   1.980   3.165   6.030  0.6972  2.9145  0.8046
  956MOL0     H29048   2.124   3.739   6.041 -1.1138  2.7574  0.2382
  956MOL0     H29049   2.038   3.938   5.904  1.7972  0.5311 -0.1980
  956MOL0     H29050   1.952   4.032   5.526  1.4060  0.7200  3.5691
  956MOL0     H29051   1.956   3.854   5.498 -2.1836 -1.0836 -3.1016
  956MOL0     H29052   1.755   3.989   5.391 -2.4866 -0.9064 -0.6681
  956MOL0     H29053   1.710   4.034   5.565 -0.7038 -2.4613  1.5463
  956MOL0     H29054   1.655   3.827   5.634  0.0421 -3.4655  0.0293
  956MOL0     H29055   1.740   3.759   5.482 -2.5369 -0.8283 -1.2821
  956MOL0     H29056   1.506   3.931   5.436  0.3674  0.0399  2.1263
  956MOL0     H29057   1.466   3.785   5.512 -0.3997 -0.4329 -0.1480
  956MOL0     H29058   1.576   3.731   5.089  4.4464 -0.9469 -0.4727
  956MOL0     H29059   1.928   3.687   5.598 -1.8593  0.2650  0.1375
  956MOL0     H29060   2.052   3.494   5.685  0.4585  1.2417  0.1814
  957MOL0     O29061   3.857   3.595   5.709 -0.8828  0.0716 -0.3744
  957MOL0     C29062   3.879   3.486   5.656 -0.1235  0.2638 -0.1182
  957MOL0     O29063   3.910   3.372   5.720 -0.0803 -0.6046 -0.3724
  957MOL0     C29064   3.937   3.380   5.859  1.3496  0.1513  1.0906
  957MOL0     C29065   4.053   3.334   5.907 -0.6726 -0.5893  1.2770
  957MOL0     C29066   4.083   3.370   6.044 -0.4594 -0.9128  0.0216
  957MOL0     C29067   3.988   3.422   6.132  0.2284  1.0322  0.0796
  957MOL0     O29068   4.033   3.458   6.259 -0.7953 -0.5200 -0.3006
  957MOL0     C29069   4.054   3.601   6.267  0.4065  0.3763  0.6401
  957MOL0     C29070   4.107   3.642   6.412  0.4522  0.0468  0.7081
  957MOL0     C29071   3.993   3.695   6.506  0.3120  0.3039 -0.6175
  957MOL0     C29072   3.896   3.588   6.560  0.1445 -0.7752  0.1368
  957MOL0     C29073   3.831   3.629   6.692  0.4881  0.1252  1.0655
  957MOL0     C29074   3.712   3.539   6.719 -0.5082 -0.0773  0.4045
  957MOL0     C29075   3.751   3.386   6.707 -0.0931 -0.8409 -0.2347
  957MOL0     C29076   3.668   3.292   6.791 -0.8052 -0.2141  0.4563
  957MOL0     N29077   3.697   3.152   6.765 -0.3335 -0.1050  0.3660
  957MOL0     C29078   3.820   3.095   6.764  0.5767 -0.3387  1.1412
  957MOL0     C29079   3.790   2.962   6.762 -0.3496 -0.5090 -0.7468
  957MOL0     C29080   3.886   2.842   6.769 -0.4759  0.0095 -0.0301
  957MOL0     C29081   3.969   2.861   6.899 -0.2070  0.4734  0.2550
  957MOL0     C29082   4.010   2.731   6.966 -0.1280  0.6223 -0.3277
  957MOL0     C29083   4.134   2.669   6.907 -0.2522 -0.3958  0.1567
  957MOL0     O29084   4.177   2.566   6.993  0.1975  0.3289  0.7958
  957MOL0     C29085   4.312   2.533   6.979  0.7589 -0.1945  0.2553
  957MOL0     C29086   4.363   2.454   7.082 -0.9970  0.3445  0.5040
  957MOL0     C29087   4.502   2.408   7.076 -0.3066  0.4364 -0.7502
  957MOL0     C29088   4.554   2.343   7.197  0.1417 -0.5432 -0.6226
  957MOL0     C29089   4.592   2.462   6.980 -0.0811  0.2246  0.8081
  957MOL0     C29090   4.738   2.417   6.953  0.5008 -0.8060 -0.5518
  957MOL0     O29091   4.787   2.316   7.033  0.8930 -0.1036 -0.0235
  957MOL0     C29092   4.909   2.265   7.002  0.3967  0.4466  1.1739
  957MOL0     C29093   5.024   2.277   7.085 -0.0448 -0.8478  0.9698
  957MOL0     C29094   5.146   2.225   7.038 -0.2819 -0.3927 -0.8991
  957MOL0     C29095   5.155   2.188   6.904 -0.3270 -0.0542 -0.3155
  957MOL0     O29096   5.277   2.148   6.856  0.9552  1.2921 -0.5398
  957MOL0     C29097   5.394   2.226   6.896 -0.2714  0.0718 -0.4929
  957MOL0     C29098   5.522   2.147   6.858  0.1413 -0.5850 -0.2103
  957MOL0     C29099   5.526   2.086   6.713  1.0527  1.1652 -0.3023
  957MOL0     C29100   5.541   2.199   6.603 -0.1131  0.3723 -0.2277
  957MOL0     C29101   5.589   2.166   6.463 -0.2575 -0.2948 -0.1822
  957MOL0     C29102   5.583   2.294   6.366 -0.3711  0.6249  0.6538
  957MOL0     C29103   5.674   2.403   6.409  0.8763  0.2988 -0.8353
  957MOL0     C29104   5.598   2.533   6.372  0.2648 -0.0959 -0.0153
  957MOL0    Cl29105   5.460   2.584   6.469  0.3858  0.2667 -0.5996
  957MOL0     C29106   5.043   2.184   6.823 -0.4507  0.1883  0.2035
  957MOL0     C29107   4.914   2.215   6.870 -0.3950  0.2821 -0.2656
  957MOL0     O29108   4.806   2.490   6.888  0.0290  0.9490 -0.3717
  957MOL0     C29109   4.536   2.555   6.884  0.5869 -0.2741  0.8787
  957MOL0     C29110   4.398   2.577   6.876  1.9661 -1.4316 -0.1835
  957MOL0     N29111   3.655   2.946   6.739 -0.1336  0.3330  0.8184
  957MOL0     N29112   3.604   3.060   6.749  0.0640  0.1285 -0.0054
  957MOL0     C29113   3.869   3.451   6.072 -0.2482 -0.7965 -0.0993
  957MOL0     C29114   3.837   3.430   5.946  0.2794  0.4173 -0.3127
  957MOL0     C29115   3.871   3.462   5.510  0.9669  0.2872  0.9447
  957MOL0     C29116   3.765   3.507   5.433  0.4369 -0.1070  0.5420
  957MOL0     C29117   3.760   3.491   5.296  0.4739 -0.7116  0.2090
  957MOL0     C29118   3.868   3.423   5.229 -0.2185 -0.1766  0.1506
  957MOL0     O29119   3.856   3.433   5.092 -0.2364 -0.0200 -0.0791
  957MOL0     C29120   3.953   3.372   5.008  0.4777  0.5052  0.1006
  957MOL0     C29121   3.898   3.375   4.862  0.0575 -0.8275 -0.1982
  957MOL0     C29122   3.815   3.259   4.839 -0.4734 -0.0683  0.5027
  957MOL0     C29123   3.745   3.271   4.701 -0.4726  0.4458  0.2711
  957MOL0     C29124   3.632   3.178   4.704 -1.1544 -0.4262  0.0365
  957MOL0     C29125   3.539   3.100   4.710 -0.0183 -0.0058 -0.1276
  957MOL0     C29126   3.969   3.363   5.313 -0.0608 -0.2677 -1.3604
  957MOL0     C29127   3.970   3.381   5.452  0.2817 -0.0522  1.3178
  957MOL0     H29128   4.102   3.275   5.829  1.0225  4.8207 -2.3893
  957MOL0     H29129   4.178   3.340   6.088  0.7922  2.2742 -0.2942
  957MOL0     H29130   4.108   3.645   6.183 -1.0383  1.4254  0.2372
  957MOL0     H29131   3.957   3.648   6.251 -0.7454 -1.9562  0.3519
  957MOL0     H29132   4.167   3.563   6.458  0.3569  0.2839  1.2390
  957MOL0     H29133   4.182   3.722   6.400  1.3041 -0.2310  3.4475
  957MOL0     H29134   4.042   3.730   6.598 -1.6725  0.6443  0.3497
  957MOL0     H29135   3.931   3.779   6.471 -1.7416 -0.4791  0.9739
  957MOL0     H29136   3.822   3.576   6.480 -1.4703  3.7396  0.6902
  957MOL0     H29137   3.961   3.500   6.565  0.9323 -0.2900 -1.0407
  957MOL0     H29138   3.899   3.644   6.776  1.2242  2.5512  0.1136
  957MOL0     H29139   3.788   3.727   6.671 -0.4519 -0.8640 -2.1850
  957MOL0     H29140   3.671   3.568   6.817 -0.7405  3.6277 -0.6195
  957MOL0     H29141   3.630   3.555   6.649 -0.9831  0.7911  1.1221
  957MOL0     H29142   3.742   3.354   6.602 -1.1173 -1.4504  0.0275
  957MOL0     H29143   3.857   3.371   6.730  1.2514  3.8007 -2.1916
  957MOL0     H29144   3.564   3.318   6.771 -0.1240  2.3338 -0.1605
  957MOL0     H29145   3.693   3.310   6.896  2.1020 -0.1372 -0.1636
  957MOL0     H29146   3.914   3.148   6.773  0.7797 -0.2359 -1.0508
  957MOL0     H29147   3.831   2.747   6.767  3.0517 -2.2213 -1.1563
  957MOL0     H29148   3.951   2.830   6.681 -2.9226 -1.2883 -1.8020
  957MOL0     H29149   3.900   2.917   6.963 -2.1202 -2.1371  0.6475
  957MOL0     H29150   4.058   2.919   6.875 -0.0147 -0.3040 -1.0180
  957MOL0     H29151   3.931   2.656   6.959  0.5858 -0.8906  4.2862
  957MOL0     H29152   4.026   2.751   7.073 -0.4682  0.8811 -0.3224
  957MOL0     H29153   4.203   2.754   6.903 -1.5492  0.6439 -2.7413
  957MOL0     H29154   4.110   2.633   6.807 -1.8636 -1.9969  1.0576
  957MOL0     H29155   4.298   2.423   7.163 -2.2237 -0.5891 -0.7800
  957MOL0     H29156   4.476   2.333   7.274  2.1943  0.8723  1.8121
  957MOL0     H29157   4.595   2.243   7.178 -0.6746 -0.8754 -0.6676
  957MOL0     H29158   4.632   2.414   7.226 -1.0526  0.1397  1.0733
  957MOL0     H29159   5.014   2.330   7.179 -1.3056  3.9569 -1.5296
  957MOL0     H29160   5.232   2.230   7.103  0.0542  0.8423 -1.4227
  957MOL0     H29161   5.400   2.320   6.841  2.5311 -0.1865 -0.8056
  957MOL0     H29162   5.396   2.269   6.996 -0.2297  4.6039 -2.2296
  957MOL0     H29163   5.607   2.216   6.861 -0.0193 -0.4087  2.1480
  957MOL0     H29164   5.539   2.063   6.927  2.8604  0.4118  0.4820
  957MOL0     H29165   5.429   2.037   6.700  0.9557  1.3187 -0.1659
  957MOL0     H29166   5.609   2.016   6.708  1.5636  1.5183  2.1068
  957MOL0     H29167   5.442   2.242   6.582 -1.7324 -2.0777  1.7678
  957MOL0     H29168   5.594   2.280   6.654  0.5785  0.8854 -1.7123
  957MOL0     H29169   5.518   2.096   6.420 -1.3258  1.0558 -0.7018
  957MOL0     H29170   5.689   2.122   6.463 -0.8889 -1.8021  0.6819
  957MOL0     H29171   5.589   2.270   6.259 -0.7312  0.4981  0.6622
  957MOL0     H29172   5.479   2.327   6.377 -0.7008 -0.7891  2.1526
  957MOL0     H29173   5.766   2.399   6.350  1.9232 -1.7182  0.8079
  957MOL0     H29174   5.693   2.406   6.517 -1.1804 -2.4602 -0.2829
  957MOL0     H29175   5.580   2.533   6.264  2.5318  0.5802 -0.4500
  957MOL0     H29176   5.670   2.615   6.376  1.0685 -0.5691 -2.7111
  957MOL0     H29177   5.050   2.149   6.721  0.2366  0.6348  0.0970
  957MOL0     H29178   4.820   2.209   6.816 -0.5410  1.6320 -0.1955
  957MOL0     H29179   4.607   2.599   6.815  2.6749 -0.1156  3.0149
  957MOL0     H29180   4.350   2.640   6.802 -0.0541 -2.0924  0.4987
  957MOL0     H29181   3.794   3.504   6.131  1.0092  2.1697 -0.9975
  957MOL0     H29182   3.738   3.463   5.916  0.1535  0.4790  0.1728
  957MOL0     H29183   3.682   3.553   5.487 -0.5254 -1.6229  0.4235
  957MOL0     H29184   3.680   3.533   5.236  2.3535  3.2929  0.2064
  957MOL0     H29185   4.043   3.434   5.014  0.4046  0.7678 -1.1831
  957MOL0     H29186   3.988   3.270   5.024  5.4030  1.2465 -3.5507
  957MOL0     H29187   3.988   3.383   4.801  0.0617  1.4375  0.0286
  957MOL0     H29188   3.849   3.472   4.851  0.0777 -0.8783 -0.7417
  957MOL0     H29189   3.735   3.255   4.914 -1.6614 -0.5419 -0.7499
  957MOL0     H29190   3.874   3.167   4.853  0.7025  0.3515 -1.3433
  957MOL0     H29191   3.820   3.245   4.626 -0.0444  1.1683  0.4331
  957MOL0     H29192   3.705   3.372   4.687 -0.3471  0.6574  1.3331
  957MOL0     H29193   3.468   3.021   4.720  0.8334 -0.5645  2.3850
  957MOL0     H29194   4.054   3.313   5.268  1.4160  2.9902 -2.5634
  957MOL0     H29195   4.053   3.338   5.507  1.3413  1.1572  0.7251
  958MOL0     O29196   4.436   3.577   8.578  0.3808 -0.0709  0.3887
  958MOL0     C29197   4.325   3.549   8.530  0.0890  1.0648  0.1120
  958MOL0     O29198   4.253   3.431   8.544  0.7252  0.0658  0.1517
  958MOL0     C29199   4.288   3.367   8.655 -0.3955  0.0879 -0.8490
  958MOL0     C29200   4.365   3.259   8.665 -0.2967  0.8956  0.4658
  958MOL0     C29201   4.381   3.197   8.791  0.0541  0.0583  0.9681
  958MOL0     C29202   4.303   3.240   8.907 -0.6174  0.1640 -0.0700
  958MOL0     O29203   4.330   3.173   9.023  0.6365  0.2939 -0.3146
  958MOL0     C29204   4.224   3.120   9.097 -0.4042  0.3596  0.7053
  958MOL0     C29205   4.289   2.985   9.152  0.2195 -0.8995 -0.2178
  958MOL0     C29206   4.277   2.878   9.045  0.3785 -1.1274 -0.4617
  958MOL0     C29207   4.353   2.750   9.074 -1.1343 -0.1597 -0.6300
  958MOL0     C29208   4.336   2.640   8.962 -0.2656 -0.6300 -1.0993
  958MOL0     C29209   4.400   2.505   9.003  1.1004 -0.3125 -0.0953
  958MOL0     C29210   4.299   2.401   9.070 -0.8005  0.4003 -0.0383
  958MOL0     C29211   4.174   2.356   8.976 -0.4628  0.5065 -0.6966
  958MOL0     N29212   4.228   2.317   8.850 -0.9495  0.3052  0.7078
  958MOL0     C29213   4.196   2.383   8.733 -0.1353 -0.1420 -0.5123
  958MOL0     C29214   4.241   2.296   8.638  0.6186  0.1140  1.0200
  958MOL0     C29215   4.198   2.300   8.492  0.7946  0.1688  0.0387
  958MOL0     C29216   4.061   2.221   8.477  1.2913  0.5409  0.3643
  958MOL0     C29217   4.009   2.210   8.332 -0.8547 -0.3180  0.7210
  958MOL0     C29218   3.968   2.332   8.244 -0.0251 -0.6383 -0.2514
  958MOL0     O29219   3.908   2.279   8.119  0.1770 -0.4638 -0.2613
  958MOL0     C29220   3.988   2.242   8.015 -0.9852 -0.0921 -0.9240
  958MOL0     C29221   3.937   2.187   7.898 -0.2994 -0.7361  0.0396
  958MOL0     C29222   4.021   2.127   7.799  0.1409 -0.3314  0.0660
  958MOL0     C29223   3.950   2.037   7.705  0.1662  0.9021 -0.7850
  958MOL0     C29224   4.168   2.143   7.808  0.6318  0.9504  1.0078
  958MOL0     C29225   4.259   2.084   7.696 -0.0721 -0.3473 -1.0006
  958MOL0     O29226   4.397   2.077   7.722 -0.2725 -0.1110 -0.0492
  958MOL0     C29227   4.472   2.045   7.612 -0.1981  0.4391  0.4351
  958MOL0     C29228   4.482   1.911   7.570  0.2787  0.4757  0.4573
  958MOL0     C29229   4.562   1.869   7.462 -0.3437 -0.6207 -0.3033
  958MOL0     C29230   4.628   1.965   7.387 -0.8090 -0.8029 -0.3757
  958MOL0     O29231   4.715   1.907   7.304 -0.1833 -0.6863  0.1449
  958MOL0     C29232   4.763   1.993   7.196  0.2904 -1.1390 -0.8999
  958MOL0     C29233   4.825   1.919   7.079  0.6264  0.6505  0.6089
  958MOL0     C29234   4.723   1.837   7.004 -0.1207  0.2300 -1.5001
  958MOL0     C29235   4.789   1.724   6.929  0.9966  1.3038 -1.2639
  958MOL0     C29236   4.690   1.635   6.873  0.7484  0.0524  0.9157
  958MOL0     C29237   4.761   1.531   6.797 -0.2210  0.9798 -0.5033
  958MOL0     C29238   4.672   1.416   6.736 -0.7102 -1.3733 -0.5274
  958MOL0     C29239   4.770   1.303   6.701 -0.4876 -0.2557  0.2044
  958MOL0    Cl29240   4.832   1.316   6.534 -0.2067  0.0669 -0.3139
  958MOL0     C29241   4.623   2.095   7.427  0.5431 -0.5494 -0.1751
  958MOL0     C29242   4.546   2.133   7.542  0.4309 -1.3120  0.0606
  958MOL0     O29243   4.214   2.059   7.585  0.0145  0.1898 -0.0997
  958MOL0     C29244   4.216   2.197   7.926  0.7833  0.6505  0.3403
  958MOL0     C29245   4.128   2.248   8.023 -0.3468 -0.2230 -0.3364
  958MOL0     N29246   4.298   2.188   8.697  0.0582  0.4178  0.2334
  958MOL0     N29247   4.262   2.192   8.816 -0.2709  0.2249 -0.3090
  958MOL0     C29248   4.214   3.348   8.899  0.1138  0.5167 -0.5635
  958MOL0     C29249   4.218   3.420   8.772  0.0704  0.1951 -0.0760
  958MOL0     C29250   4.270   3.644   8.440 -0.5946  0.4546  0.1514
  958MOL0     C29251   4.341   3.762   8.400 -0.3944 -0.5674  0.4095
  958MOL0     C29252   4.289   3.858   8.307  0.4540  1.2311 -0.0158
  958MOL0     C29253   4.171   3.820   8.248 -0.6096 -0.5582 -0.7044
  958MOL0     O29254   4.101   3.893   8.160 -0.1443  0.4076  0.3490
  958MOL0     C29255   4.107   4.042   8.183 -0.4575  1.4607  0.6360
  958MOL0     C29256   3.983   4.108   8.130  0.0022 -0.3090 -0.3107
  958MOL0     C29257   3.981   4.119   7.974  1.0618  0.8398 -0.0112
  958MOL0     C29258   3.851   4.040   7.929 -0.0107 -0.4062 -0.8741
  958MOL0     C29259   3.716   4.089   7.982  0.8254 -0.4133 -0.1608
  958MOL0     C29260   3.604   4.082   8.027  0.0994  0.4311  0.3246
  958MOL0     C29261   4.106   3.700   8.280 -0.0007  0.3356  0.2422
  958MOL0     C29262   4.154   3.612   8.372 -0.5774  0.5175 -0.0595
  958MOL0     H29263   4.401   3.231   8.567 -1.2084  2.2291 -0.2857
  958MOL0     H29264   4.444   3.109   8.786 -0.1544 -0.0125 -1.4401
  958MOL0     H29265   4.203   3.186   9.182 -1.2926 -0.4866  1.1730
  958MOL0     H29266   4.135   3.106   9.035  1.2483  1.0776 -2.0222
  958MOL0     H29267   4.395   3.013   9.161  0.2403 -0.2512 -2.0520
  958MOL0     H29268   4.256   2.948   9.249 -0.9670 -2.3998 -1.1493
  958MOL0     H29269   4.172   2.853   9.026 -0.3587  0.7244  0.8523
  958MOL0     H29270   4.309   2.911   8.946  0.4378 -0.9577 -0.3860
  958MOL0     H29271   4.461   2.764   9.075 -1.2485  0.8903  0.9868
  958MOL0     H29272   4.326   2.713   9.174  1.3002  3.3498  1.5366
  958MOL0     H29273   4.232   2.616   8.937 -0.5090 -1.6330  0.7011
  958MOL0     H29274   4.367   2.682   8.867  3.0976 -1.3147 -0.4161
  958MOL0     H29275   4.435   2.447   8.917  3.0055 -2.1909  1.7766
  958MOL0     H29276   4.490   2.527   9.062  1.9826 -2.0889 -0.7172
  958MOL0     H29277   4.366   2.315   9.082 -2.6155 -1.1405 -0.3548
  958MOL0     H29278   4.266   2.424   9.172 -0.9867  1.1854 -0.2674
  958MOL0     H29279   4.090   2.426   8.964 -0.2729  0.9394  0.3576
  958MOL0     H29280   4.145   2.266   9.031  0.4140 -0.5239 -1.8803
  958MOL0     H29281   4.149   2.480   8.719 -0.6145 -0.5181 -1.5647
  958MOL0     H29282   4.174   2.402   8.463  0.0318 -0.4839 -1.7511
  958MOL0     H29283   4.278   2.258   8.430 -0.0097 -2.3062  0.5658
  958MOL0     H29284   3.986   2.273   8.538  0.5819  0.6800 -0.6124
  958MOL0     H29285   4.063   2.118   8.514  0.3454  1.1216  2.1911
  958MOL0     H29286   3.920   2.149   8.348 -0.6531 -1.3220 -1.6371
  958MOL0     H29287   4.084   2.157   8.274 -0.2463 -0.5398  1.6872
  958MOL0     H29288   4.048   2.405   8.231 -1.0363  0.7283  0.7523
  958MOL0     H29289   3.902   2.398   8.302 -0.9481 -0.6159 -1.2900
  958MOL0     H29290   3.833   2.159   7.899 -0.1875 -1.3443  2.9272
  958MOL0     H29291   3.977   2.064   7.602 -0.1917  3.6557 -0.2292
  958MOL0     H29292   3.979   1.933   7.721 -2.7052 -0.1963 -2.0637
  958MOL0     H29293   3.844   2.053   7.724  0.6311  0.0711  3.5006
  958MOL0     H29294   4.424   1.827   7.607 -1.8860  0.1729 -3.1353
  958MOL0     H29295   4.547   1.769   7.424 -0.3828 -1.2365  1.2680
  958MOL0     H29296   4.682   2.053   7.152 -0.6741 -1.0155  0.9521
  958MOL0     H29297   4.846   2.051   7.236  0.1276 -2.4462  1.5128
  958MOL0     H29298   4.857   1.986   6.999  1.2427  0.2417  0.5026
  958MOL0     H29299   4.914   1.867   7.116 -0.6969 -0.5347  2.2698
  958MOL0     H29300   4.662   1.901   6.939 -4.3038 -2.6116 -0.7282
  958MOL0     H29301   4.667   1.800   7.090  3.1085  3.3503  2.3802
  958MOL0     H29302   4.859   1.762   6.854  1.9657 -0.8076 -1.4948
  958MOL0     H29303   4.856   1.673   6.998  1.0669  0.8576 -1.6612
  958MOL0     H29304   4.616   1.685   6.809 -1.6074 -1.1679  2.5377
  958MOL0     H29305   4.645   1.582   6.957  2.8068 -0.3243  1.8339
  958MOL0     H29306   4.831   1.576   6.725 -1.1388  1.4529 -1.1226
  958MOL0     H29307   4.812   1.481   6.880 -1.0452  2.4515  0.9533
  958MOL0     H29308   4.627   1.457   6.645  0.3579 -0.5792 -0.7325
  958MOL0     H29309   4.590   1.385   6.800 -0.0923  0.9456  1.5437
  958MOL0     H29310   4.708   1.216   6.724 -0.9352  0.1073  0.3624
  958MOL0     H29311   4.856   1.298   6.769 -1.9824 -2.3501  2.0732
  958MOL0     H29312   4.684   2.177   7.390 -1.2793  0.5412 -0.8736
  958MOL0     H29313   4.547   2.235   7.580 -0.9486 -1.0205 -0.6294
  958MOL0     H29314   4.320   2.199   7.959 -0.6683  2.1412  5.9489
  958MOL0     H29315   4.173   2.287   8.114 -2.1549  2.7802 -0.6041
  958MOL0     H29316   4.146   3.383   8.976  0.1016  3.0150 -1.5879
  958MOL0     H29317   4.161   3.511   8.757 -1.9691 -1.3112 -2.1497
  958MOL0     H29318   4.438   3.794   8.437 -0.0556 -0.5514 -0.4629
  958MOL0     H29319   4.341   3.948   8.275  0.2511  0.9433 -1.1702
  958MOL0     H29320   4.114   4.076   8.287  2.3906  3.4958 -0.0867
  958MOL0     H29321   4.188   4.086   8.123 -0.3619  1.5038  0.7944
  958MOL0     H29322   3.982   4.212   8.162  3.1902 -1.3022  3.9406
  958MOL0     H29323   3.896   4.056   8.169 -0.3062  0.1138 -0.4257
  958MOL0     H29324   4.059   4.070   7.914  1.2792  4.8229 -3.4472
  958MOL0     H29325   3.987   4.221   7.934  4.3007  0.2776 -1.2825
  958MOL0     H29326   3.868   3.933   7.942  0.1571 -0.3017 -0.1885
  958MOL0     H29327   3.861   4.054   7.821 -3.4761 -0.4558 -1.3040
  958MOL0     H29328   3.504   4.063   8.060  0.1801 -1.1080 -0.2339
  958MOL0     H29329   4.008   3.684   8.236 -0.5004  2.4482  0.5009
  958MOL0     H29330   4.100   3.520   8.392 -0.1822  0.4263  0.6001
  959MOL0     O29331   2.477   4.507   7.775 -0.2420 -0.6234  0.3019
  959MOL0     C29332   2.363   4.503   7.833  0.1883 -0.3544 -0.2825
  959MOL0     O29333   2.244   4.546   7.775 -0.7661 -0.7808 -1.0556
  959MOL0     C29334   2.247   4.577   7.643 -0.7832  0.0297 -1.0624
  959MOL0     C29335   2.173   4.695   7.607  0.2116  0.8598 -0.1940
  959MOL0     C29336   2.173   4.732   7.477 -0.2905  0.4675  0.2422
  959MOL0     C29337   2.224   4.654   7.368 -0.7410  0.8105  0.0277
  959MOL0     O29338   2.206   4.675   7.230 -0.3805  0.7197 -0.4032
  959MOL0     C29339   2.126   4.776   7.177 -0.6341  0.2152 -0.3189
  959MOL0     C29340   2.105   4.733   7.037 -0.0759 -0.5110  0.1188
  959MOL0     C29341   2.025   4.849   6.965  0.2786  0.3851  0.2033
  959MOL0     C29342   2.122   4.958   6.918  0.1969 -0.4461 -0.5054
  959MOL0     C29343   2.051   5.095   6.924  1.0107  0.2272 -0.7953
  959MOL0     C29344   2.146   5.221   6.901 -0.3787  0.7532 -1.0131
  959MOL0     C29345   2.060   5.347   6.907 -0.1133  0.0305  0.6506
  959MOL0     C29346   2.164   5.465   6.894 -0.4406  0.3067  0.1927
  959MOL0     N29347   2.114   5.595   6.846 -0.1015 -0.0367 -0.3751
  959MOL0     C29348   2.202   5.703   6.820 -0.5125 -0.0710  0.4754
  959MOL0     C29349   2.118   5.803   6.802  0.5542 -0.0939 -0.5932
  959MOL0     C29350   2.158   5.953   6.781  0.1419 -0.2372  0.7201
  959MOL0     C29351   2.192   6.012   6.921  0.1386 -0.4754  0.5683
  959MOL0     C29352   2.065   6.023   7.004 -0.2907  0.5303  0.8816
  959MOL0     C29353   2.106   6.070   7.148  0.5396 -0.4582 -0.2315
  959MOL0     O29354   2.053   6.195   7.171 -1.0082 -0.2251 -0.1417
  959MOL0     C29355   2.060   6.258   7.298 -0.0315  0.2200  0.2718
  959MOL0     C29356   2.138   6.220   7.405  0.4136 -0.5429 -0.4409
  959MOL0     C29357   2.128   6.295   7.533 -0.5811  0.8135  0.5594
  959MOL0     C29358   2.226   6.256   7.645  0.3185 -0.6084  0.5481
  959MOL0     C29359   2.034   6.395   7.539 -0.5996 -0.5974 -0.4943
  959MOL0     C29360   2.007   6.475   7.663  0.3407  1.1827  0.8992
  959MOL0     O29361   1.944   6.591   7.642  0.6386 -0.1043 -0.5664
  959MOL0     C29362   1.943   6.701   7.727  0.1952  0.7741 -0.9183
  959MOL0     C29363   1.862   6.807   7.686 -0.4344  0.2954 -0.7137
  959MOL0     C29364   1.867   6.928   7.750  0.3871  0.0349 -0.1058
  959MOL0     C29365   1.952   6.951   7.867  0.5381  1.3654  0.0819
  959MOL0     O29366   1.955   7.068   7.946  0.7946 -1.0789  0.9252
  959MOL0     C29367   1.833   7.102   8.015  0.7245 -0.7398  0.5185
  959MOL0     C29368   1.876   7.178   8.137  0.2395  0.1005 -0.1980
  959MOL0     C29369   1.988   7.101   8.216  0.2509  0.2449  0.0421
  959MOL0     C29370   2.017   7.180   8.346  0.2676 -0.1911  0.8427
  959MOL0     C29371   2.088   7.321   8.333 -0.1982  0.3718  0.2435
  959MOL0     C29372   2.243   7.307   8.305 -0.6635  0.0154  0.1439
  959MOL0     C29373   2.308   7.447   8.270  0.2168  0.6925  0.6419
  959MOL0     C29374   2.456   7.448   8.280 -0.2238  0.4242 -0.2305
  959MOL0    Cl29375   2.515   7.368   8.433  0.6795  0.2854 -0.5506
  959MOL0     C29376   2.035   6.845   7.898  0.0060  0.0295 -0.4775
  959MOL0     C29377   2.026   6.719   7.832 -0.1950 -0.0268 -0.8537
  959MOL0     O29378   2.032   6.428   7.777 -0.1424  0.0576  0.9501
  959MOL0     C29379   1.960   6.433   7.429  0.1585  0.4496 -0.4985
  959MOL0     C29380   1.974   6.367   7.310 -0.7014 -0.0379  0.4026
  959MOL0     N29381   1.990   5.765   6.811  0.8569  0.0524  0.3425
  959MOL0     N29382   1.987   5.633   6.837  0.5922 -1.4675  0.7913
  959MOL0     C29383   2.295   4.533   7.406  0.3113  0.1982  0.1004
  959MOL0     C29384   2.305   4.499   7.541  1.3142 -0.6026  0.4423
  959MOL0     C29385   2.355   4.462   7.975 -0.4106 -0.5498  0.4478
  959MOL0     C29386   2.235   4.420   8.027 -0.3160  1.2134 -0.9978
  959MOL0     C29387   2.227   4.377   8.168 -0.5608 -0.9922 -0.2865
  959MOL0     C29388   2.338   4.400   8.252  0.5912 -0.0101 -0.3652
  959MOL0     O29389   2.329   4.366   8.385  0.4148  0.4564 -0.4893
  959MOL0     C29390   2.440   4.295   8.448  0.2120 -0.8760  0.8311
  959MOL0     C29391   2.397   4.151   8.445  1.1846 -0.4474 -0.7788
  959MOL0     C29392   2.514   4.066   8.470 -0.1073 -0.0933  0.5713
  959MOL0     C29393   2.485   3.920   8.524  0.1729  0.4479 -0.5412
  959MOL0     C29394   2.419   3.914   8.663  0.2084 -0.2068  0.4161
  959MOL0     C29395   2.360   3.912   8.775 -1.0782  0.2519 -0.4770
  959MOL0     C29396   2.453   4.466   8.200 -0.1098 -0.1508 -0.0754
  959MOL0     C29397   2.460   4.496   8.067  0.2656  0.1739  0.3235
  959MOL0     H29398   2.112   4.759   7.671  0.1133  1.4393 -0.8559
  959MOL0     H29399   2.116   4.820   7.448  2.1396  1.7127 -1.1335
  959MOL0     H29400   2.032   4.788   7.231  1.0288  2.1329  2.4560
  959MOL0     H29401   2.180   4.871   7.181  1.9394 -1.1337 -0.7326
  959MOL0     H29402   2.206   4.723   6.995  0.8088  1.5997  1.5581
  959MOL0     H29403   2.064   4.632   7.042  1.7899 -1.4318 -1.7405
  959MOL0     H29404   1.980   4.792   6.884 -1.6292 -2.0412  2.7696
  959MOL0     H29405   1.938   4.886   7.019 -1.5731 -0.6856 -1.9033
  959MOL0     H29406   2.206   4.966   6.987 -1.7149 -1.8793  2.1541
  959MOL0     H29407   2.166   4.941   6.820  2.3380 -1.7495  0.6086
  959MOL0     H29408   1.972   5.084   6.850 -1.6190 -0.0421  1.8493
  959MOL0     H29409   1.990   5.104   7.015  0.1970 -1.2905 -1.1627
  959MOL0     H29410   2.224   5.221   6.978 -0.8347 -1.2461 -0.4833
  959MOL0     H29411   2.194   5.217   6.803  1.0059  4.1335 -0.6039
  959MOL0     H29412   2.000   5.336   6.816  0.2694 -0.8156  0.4883
  959MOL0     H29413   1.997   5.356   6.995 -0.2469 -2.2187  0.8581
  959MOL0     H29414   2.245   5.429   6.830 -1.1892 -0.7445 -0.2068
  959MOL0     H29415   2.196   5.476   6.998  1.3934 -0.0225 -0.3096
  959MOL0     H29416   2.310   5.719   6.826 -0.5103 -0.2669  0.9432
  959MOL0     H29417   2.245   5.967   6.716 -1.3749  0.5039 -1.2464
  959MOL0     H29418   2.073   5.996   6.729 -0.1128 -1.0848  0.4077
  959MOL0     H29419   2.239   6.108   6.898  0.2582 -0.9606 -1.4139
  959MOL0     H29420   2.260   5.947   6.977 -0.2424 -1.5246 -0.1459
  959MOL0     H29421   2.018   5.925   7.014 -2.5195  1.2763 -1.2822
  959MOL0     H29422   1.988   6.083   6.955  0.1077 -0.3362 -0.8774
  959MOL0     H29423   2.214   6.071   7.167  0.7063 -0.4877 -1.1604
  959MOL0     H29424   2.057   6.003   7.219 -0.2901 -1.0886 -1.3695
  959MOL0     H29425   2.211   6.141   7.394 -0.6267 -1.4028 -1.5436
  959MOL0     H29426   2.325   6.230   7.607  0.2042  2.2976 -2.0965
  959MOL0     H29427   2.228   6.320   7.734 -1.1048 -0.6830  0.6572
  959MOL0     H29428   2.198   6.157   7.682  4.0869 -1.5910  1.1890
  959MOL0     H29429   1.787   6.792   7.609  0.7418  0.6817 -1.9731
  959MOL0     H29430   1.789   6.998   7.724 -0.3042 -1.3244 -1.8702
  959MOL0     H29431   1.778   7.168   7.947  0.2781 -0.7386  0.8801
  959MOL0     H29432   1.772   7.015   8.040 -1.5928  0.9586  1.0679
  959MOL0     H29433   1.915   7.279   8.120  0.7727  0.8309  4.1454
  959MOL0     H29434   1.790   7.181   8.205 -1.1750 -1.5503 -1.8113
  959MOL0     H29435   2.082   7.081   8.164  1.8552 -5.1650  3.9907
  959MOL0     H29436   1.948   7.004   8.247 -0.5199  0.0820 -1.3673
  959MOL0     H29437   1.923   7.207   8.396 -0.1037 -0.3085  0.2269
  959MOL0     H29438   2.068   7.108   8.410  2.3797 -0.7100 -1.2808
  959MOL0     H29439   2.069   7.384   8.421 -1.6024  1.2641 -0.6616
  959MOL0     H29440   2.052   7.376   8.246  0.8365  0.9655  0.1731
  959MOL0     H29441   2.283   7.267   8.398 -1.0422  0.5762  0.5554
  959MOL0     H29442   2.261   7.234   8.226  1.8303  1.2303 -0.5012
  959MOL0     H29443   2.278   7.534   8.328 -0.0033  0.5238  0.7817
  959MOL0     H29444   2.284   7.471   8.166 -2.6655 -1.2635  0.7443
  959MOL0     H29445   2.460   7.557   8.275  2.1281  0.5192  1.7366
  959MOL0     H29446   2.501   7.396   8.195  2.2461  3.5829 -1.0662
  959MOL0     H29447   2.103   6.853   7.983 -0.6742 -1.1121  0.2092
  959MOL0     H29448   2.112   6.658   7.858 -1.7919 -1.9775  0.0989
  959MOL0     H29449   1.891   6.517   7.433  0.3421  0.5850 -0.1863
  959MOL0     H29450   1.925   6.411   7.223  1.7546  1.4492 -0.3653
  959MOL0     H29451   2.344   4.461   7.341  2.9365 -0.3157  2.4574
  959MOL0     H29452   2.354   4.411   7.582 -0.9514 -1.4921  1.4012
  959MOL0     H29453   2.140   4.407   7.976 -1.7098  0.6028  1.5793
  959MOL0     H29454   2.145   4.322   8.212 -2.3046  1.0047 -0.8538
  959MOL0     H29455   2.538   4.311   8.403 -0.5027  2.7910  0.2645
  959MOL0     H29456   2.444   4.338   8.548 -1.7039  0.2480  0.4901
  959MOL0     H29457   2.338   4.116   8.360  2.0124 -1.5854 -0.9134
  959MOL0     H29458   2.327   4.131   8.527  1.2641  3.1115  0.3523
  959MOL0     H29459   2.572   4.109   8.552 -2.4092 -0.9460  2.7667
  959MOL0     H29460   2.590   4.062   8.391  2.5449  3.4942  2.6400
  959MOL0     H29461   2.570   3.854   8.543 -0.5318 -0.1636  0.5945
  959MOL0     H29462   2.424   3.865   8.452 -1.5444 -0.4478  1.4967
  959MOL0     H29463   2.309   3.904   8.869  2.1612  4.3436  2.0435
  959MOL0     H29464   2.529   4.495   8.272 -0.6523 -0.2120  0.5380
  959MOL0     H29465   2.558   4.534   8.041 -0.3718  0.9822 -1.0361
  960MOL0     O29466   7.171   3.207   2.970 -0.1989  0.6263 -0.0740
  960MOL0     C29467   7.220   3.285   3.053 -0.4829  0.1256  0.0382
  960MOL0     O29468   7.276   3.239   3.175  0.9713 -0.5023  0.4485
  960MOL0     C29469   7.274   3.107   3.214  0.9725 -0.3749 -0.4410
  960MOL0     C29470   7.173   3.040   3.283  0.0964  0.0915 -0.5568
  960MOL0     C29471   7.191   2.899   3.313 -0.2621 -0.1810  0.0194
  960MOL0     C29472   7.308   2.839   3.263 -0.3068  1.5792 -0.2608
  960MOL0     O29473   7.335   2.701   3.282  0.2609 -0.4846 -0.7225
  960MOL0     C29474   7.227   2.607   3.305 -0.0382  0.4686  0.0468
  960MOL0     C29475   7.145   2.593   3.166  0.0048 -0.4688  0.1153
  960MOL0     C29476   7.075   2.460   3.167 -0.3425  0.0820 -0.1538
  960MOL0     C29477   7.014   2.416   3.029 -0.1896  0.6101 -0.5138
  960MOL0     C29478   6.946   2.275   3.043 -0.6302  0.0297  0.3786
  960MOL0     C29479   6.916   2.213   2.901 -0.0388  0.3424 -0.7801
  960MOL0     C29480   6.830   2.088   2.916  0.7759  0.8516 -0.3095
  960MOL0     C29481   6.678   2.129   2.935 -0.3391  0.3440 -0.5670
  960MOL0     N29482   6.612   2.188   2.831  0.4186 -0.1080 -0.1427
  960MOL0     C29483   6.626   2.148   2.698 -0.1093 -0.2001  0.1426
  960MOL0     C29484   6.574   2.250   2.620 -0.1746  0.4752  0.1554
  960MOL0     C29485   6.594   2.263   2.472  0.0183  0.1209  0.3122
  960MOL0     C29486   6.512   2.145   2.408  0.0165 -0.1035 -0.6444
  960MOL0     C29487   6.470   2.158   2.262  0.1109  0.6303 -1.0267
  960MOL0     C29488   6.394   2.042   2.205  1.2115  0.9681  0.9563
  960MOL0     O29489   6.373   2.063   2.065 -0.2394 -0.0503  0.0171
  960MOL0     C29490   6.294   1.981   1.996  0.5860  0.2590 -0.7489
  960MOL0     C29491   6.282   1.980   1.857 -1.1699 -0.4984  0.2643
  960MOL0     C29492   6.222   1.884   1.782 -0.2403  0.1477 -0.2309
  960MOL0     C29493   6.239   1.913   1.630  0.2521  0.5479 -0.1719
  960MOL0     C29494   6.163   1.769   1.841 -0.5632  0.0853 -0.4672
  960MOL0     C29495   6.096   1.668   1.760 -0.8708  0.2050  0.2094
  960MOL0     O29496   6.152   1.610   1.651 -0.3315  0.5446  0.7016
  960MOL0     C29497   6.080   1.519   1.576 -0.1573 -0.3916 -1.4462
  960MOL0     C29498   6.138   1.397   1.555 -0.3586  0.2740 -0.0596
  960MOL0     C29499   6.079   1.305   1.466 -0.8600  0.0679 -0.0064
  960MOL0     C29500   5.950   1.330   1.412  0.4191 -0.1694  0.4093
  960MOL0     O29501   5.891   1.224   1.356  0.2961 -0.5466  0.5121
  960MOL0     C29502   5.816   1.268   1.253  0.1724  0.0701 -0.1736
  960MOL0     C29503   5.763   1.140   1.179  0.5309  0.0381  0.2297
  960MOL0     C29504   5.665   1.156   1.066  0.1657 -1.1841  1.0837
  960MOL0     C29505   5.683   1.048   0.955  0.4190 -0.0559  0.0528
  960MOL0     C29506   5.614   0.917   0.995 -0.4776  0.8846  0.3601
  960MOL0     C29507   5.612   0.799   0.885 -0.6153  0.6109 -0.7449
  960MOL0     C29508   5.567   0.658   0.928 -0.2127 -0.0977 -0.6295
  960MOL0     C29509   5.545   0.550   0.816  0.7871 -0.2507 -0.6027
  960MOL0    Cl29510   5.667   0.552   0.688  0.0866  0.3612  0.1175
  960MOL0     C29511   5.895   1.457   1.441 -0.9805 -0.1543  0.1645
  960MOL0     C29512   5.968   1.554   1.511 -0.0258 -0.3981  0.0855
  960MOL0     O29513   5.998   1.618   1.818  0.7101  0.3510  0.3651
  960MOL0     C29514   6.169   1.769   1.978  0.0069 -1.2105  0.6615
  960MOL0     C29515   6.229   1.867   2.057  0.4917 -0.6447  0.4995
  960MOL0     N29516   6.518   2.341   2.706  0.4020 -0.2503 -1.0496
  960MOL0     N29517   6.536   2.301   2.829 -0.1488 -0.7447  1.0100
  960MOL0     C29518   7.405   2.918   3.195  0.6467 -0.0553  0.8666
  960MOL0     C29519   7.389   3.043   3.184  0.1667  0.0873  1.2338
  960MOL0     C29520   7.219   3.429   3.018 -0.4273  0.3088 -0.1196
  960MOL0     C29521   7.129   3.479   2.928  0.3742  0.0906  0.1692
  960MOL0     C29522   7.145   3.611   2.888 -0.4751 -0.1671  0.2378
  960MOL0     C29523   7.259   3.686   2.917  0.2633  0.0832  0.5850
  960MOL0     O29524   7.273   3.803   2.850 -0.8921  0.4050  0.4112
  960MOL0     C29525   7.377   3.897   2.892  0.1531  0.5486  0.1616
  960MOL0     C29526   7.501   3.851   2.818  0.3438 -1.0035 -0.0101
  960MOL0     C29527   7.628   3.911   2.883 -0.4261  0.4195 -0.3235
  960MOL0     C29528   7.738   3.856   2.794 -1.0041 -0.4922  0.7618
  960MOL0     C29529   7.869   3.917   2.822 -0.1397  0.8188 -0.0114
  960MOL0     C29530   7.980   3.959   2.839  0.2525  0.6545 -0.1003
  960MOL0     C29531   7.346   3.636   3.009 -0.0884 -0.5539  0.0382
  960MOL0     C29532   7.324   3.509   3.064 -0.1620 -0.5030  0.3664
  960MOL0     H29533   7.079   3.089   3.306  1.0294 -0.0251  4.9833
  960MOL0     H29534   7.123   2.848   3.381  1.5058 -0.2596  1.8311
  960MOL0     H29535   7.262   2.508   3.335  2.4814  0.7794 -1.5991
  960MOL0     H29536   7.161   2.644   3.384  1.6863  1.5404  1.0295
  960MOL0     H29537   7.077   2.679   3.158  1.5782  0.7458 -0.9832
  960MOL0     H29538   7.214   2.611   3.083  0.6668  2.9371  1.2549
  960MOL0     H29539   7.141   2.383   3.209 -0.2023  1.2318  1.8822
  960MOL0     H29540   6.987   2.453   3.230 -0.6184 -3.0306 -0.7296
  960MOL0     H29541   6.928   2.484   3.025  0.7243  2.5817  4.5867
  960MOL0     H29542   7.081   2.431   2.944  0.2415 -0.1343 -0.3130
  960MOL0     H29543   6.995   2.211   3.117 -1.5485  0.4579  1.3956
  960MOL0     H29544   6.851   2.303   3.091 -0.7659  1.0396 -0.4363
  960MOL0     H29545   6.879   2.288   2.832  0.3790  0.4098 -0.9358
  960MOL0     H29546   7.004   2.179   2.845 -0.0717  0.5939 -0.9805
  960MOL0     H29547   6.841   2.018   2.832  1.6770 -0.9307  1.2162
  960MOL0     H29548   6.855   2.036   3.009  2.7167  0.6093 -0.9128
  960MOL0     H29549   6.677   2.207   3.011 -2.8521 -1.4389  1.3691
  960MOL0     H29550   6.619   2.050   2.983  1.3087  1.4423  3.7625
  960MOL0     H29551   6.680   2.059   2.668  0.9366  0.9414 -1.5285
  960MOL0     H29552   6.550   2.361   2.451  0.9992  0.6476  0.6599
  960MOL0     H29553   6.700   2.262   2.447  0.0517  0.7046  0.4044
  960MOL0     H29554   6.422   2.125   2.467 -0.0878  1.8167 -0.0786
  960MOL0     H29555   6.579   2.059   2.401 -0.0124  0.0165 -3.0064
  960MOL0     H29556   6.564   2.155   2.206  0.9864  3.7174  0.0295
  960MOL0     H29557   6.403   2.244   2.261 -1.5918 -0.5906  0.3690
  960MOL0     H29558   6.293   2.024   2.241 -0.9893  4.3478 -2.7041
  960MOL0     H29559   6.445   1.946   2.216 -0.6440 -0.3878 -1.3370
  960MOL0     H29560   6.310   2.072   1.808 -1.8756  0.0539  0.8810
  960MOL0     H29561   6.225   2.020   1.609  1.7281  1.0294  1.0860
  960MOL0     H29562   6.346   1.897   1.614  0.8912  0.6732  3.2257
  960MOL0     H29563   6.167   1.861   1.566 -3.5270  4.8837  0.0097
  960MOL0     H29564   6.222   1.361   1.614  1.2671  1.9421 -1.2318
  960MOL0     H29565   6.112   1.203   1.452 -1.5860  0.0741 -2.0350
  960MOL0     H29566   5.726   1.315   1.292 -0.8989 -0.2277 -2.1270
  960MOL0     H29567   5.854   1.336   1.176  1.0816 -0.3014 -0.0625
  960MOL0     H29568   5.848   1.082   1.142 -1.3294 -3.2011  0.6704
  960MOL0     H29569   5.722   1.073   1.255  2.3859  0.1334  1.3928
  960MOL0     H29570   5.680   1.252   1.016  1.8862 -0.9506  1.9561
  960MOL0     H29571   5.563   1.174   1.102  0.8379  2.1031  1.6657
  960MOL0     H29572   5.629   1.088   0.869  0.5579  2.1350  0.9207
  960MOL0     H29573   5.787   1.047   0.922 -0.7255 -1.0303 -4.0741
  960MOL0     H29574   5.510   0.932   1.028 -0.6339 -0.5828  0.5641
  960MOL0     H29575   5.663   0.876   1.084 -1.1200  2.2203  1.3819
  960MOL0     H29576   5.534   0.836   0.817  0.9354  0.7862 -2.4958
  960MOL0     H29577   5.713   0.805   0.845 -0.6314  2.2262 -0.6236
  960MOL0     H29578   5.465   0.660   0.966  0.0408 -0.0410  0.0644
  960MOL0     H29579   5.640   0.618   0.999  2.0273  1.1846 -2.0886
  960MOL0     H29580   5.456   0.573   0.756 -0.2387  0.9733  1.2711
  960MOL0     H29581   5.529   0.454   0.865 -0.9914  1.0957  1.6463
  960MOL0     H29582   5.792   1.483   1.420 -1.7143 -2.4265  0.6095
  960MOL0     H29583   5.927   1.653   1.532  1.1618  0.3739 -1.0689
  960MOL0     H29584   6.124   1.683   2.027 -0.9951 -0.4883  1.0547
  960MOL0     H29585   6.205   1.845   2.161 -0.5669 -2.1918 -0.0375
  960MOL0     H29586   7.494   2.883   3.145  1.4916  0.8160  1.7203
  960MOL0     H29587   7.470   3.089   3.128 -0.9915  1.7532  0.8389
  960MOL0     H29588   7.044   3.426   2.887  0.2329  1.5959 -1.5972
  960MOL0     H29589   7.066   3.662   2.834 -0.3019 -0.6795 -0.5143
  960MOL0     H29590   7.358   4.000   2.858 -0.6997  0.4716  0.3790
  960MOL0     H29591   7.400   3.895   2.999  2.5779  1.8856 -0.2502
  960MOL0     H29592   7.498   3.891   2.716  0.8229  1.1361  0.7521
  960MOL0     H29593   7.508   3.742   2.811 -0.9597 -1.0145 -2.2543
  960MOL0     H29594   7.644   3.871   2.984 -1.9413 -2.4036 -1.0848
  960MOL0     H29595   7.626   4.020   2.890  0.6790  0.4114  0.3095
  960MOL0     H29596   7.718   3.873   2.688 -2.3136  1.4574  1.2820
  960MOL0     H29597   7.756   3.749   2.809  2.4697 -0.3310 -1.1940
  960MOL0     H29598   8.080   3.997   2.835 -0.0865  1.6134  0.3389
  960MOL0     H29599   7.439   3.689   3.029  0.0013 -0.0967 -1.5132
  960MOL0     H29600   7.383   3.469   3.146  0.4119  0.6966  0.5531
  961MOL0     O29601  10.171   9.425   7.502 -0.0072 -0.0177 -0.0147
  961MOL0     C29602  10.227   9.384   7.404  0.7978  1.3845 -0.5946
  961MOL0     O29603  10.289   9.264   7.399  0.6512 -0.1906 -0.0829
  961MOL0     C29604  10.302   9.190   7.516 -0.9046 -0.6978  0.8533
  961MOL0     C29605  10.232   9.069   7.536  0.0326 -0.3982 -0.3016
  961MOL0     C29606  10.235   8.990   7.646  0.2259 -0.0258  0.8821
  961MOL0     C29607  10.312   9.046   7.755 -1.0206  0.3291 -0.5132
  961MOL0     O29608  10.314   8.982   7.875 -0.2602 -0.1114 -0.0597
  961MOL0     C29609  10.340   8.847   7.877 -0.2836  0.1958 -0.0949
  961MOL0     C29610  10.314   8.800   8.024  0.2256  0.9689  0.0306
  961MOL0     C29611  10.191   8.848   8.083  0.6692 -0.6372 -0.6930
  961MOL0     C29612  10.068   8.776   8.021 -0.4269 -1.2139  0.1934
  961MOL0     C29613  10.002   8.875   7.918  0.7284 -0.6244 -0.5370
  961MOL0     C29614   9.912   8.787   7.837 -0.0662  0.3014 -0.0418
  961MOL0     C29615   9.813   8.890   7.758 -0.4656  0.2872 -0.7107
  961MOL0     C29616   9.760   8.824   7.635  0.7180  0.7566 -0.6693
  961MOL0     N29617   9.839   8.860   7.524  0.3790 -0.5706  0.3505
  961MOL0     C29618   9.781   8.923   7.409  0.9824  0.8617 -1.1266
  961MOL0     C29619   9.886   8.918   7.325  0.6871 -0.4265 -0.3162
  961MOL0     C29620   9.873   8.962   7.185 -1.5380  0.2175 -0.1261
  961MOL0     C29621   9.997   9.045   7.138  0.6575 -0.0604 -1.1770
  961MOL0     C29622  10.004   9.051   6.984 -0.6555 -0.7126  0.0677
  961MOL0     C29623  10.001   9.194   6.938  0.1598 -0.1457  0.0411
  961MOL0     O29624  10.080   9.185   6.812 -1.1214 -0.0846  0.0367
  961MOL0     C29625  10.064   9.288   6.718 -0.6208  0.4025  0.3765
  961MOL0     C29626  10.170   9.368   6.688 -0.0816 -0.4806  0.2377
  961MOL0     C29627  10.158   9.469   6.592  0.1048 -0.6506  0.5352
  961MOL0     C29628  10.282   9.546   6.545 -0.2442  0.4240  1.0889
  961MOL0     C29629  10.039   9.496   6.527 -0.5951 -0.3008 -0.2151
  961MOL0     C29630  10.019   9.607   6.434 -0.0003 -1.0321 -0.5131
  961MOL0     O29631   9.895   9.648   6.430  0.0565  0.7938 -0.0751
  961MOL0     C29632   9.845   9.705   6.317 -1.2646 -0.0334  0.5457
  961MOL0     C29633   9.750   9.794   6.355  0.7376  0.4882  0.8372
  961MOL0     C29634   9.681   9.863   6.247  0.4255 -0.1812  0.1017
  961MOL0     C29635   9.708   9.839   6.113  0.0872  0.8593 -1.6305
  961MOL0     O29636   9.630   9.900   6.023 -0.6267  0.3951 -0.9913
  961MOL0     C29637   9.553   9.809   5.940  0.4468  0.4323  0.3469
  961MOL0     C29638   9.409   9.855   5.915  0.3974 -0.0364  0.2638
  961MOL0     C29639   9.414   9.987   5.824 -0.1452  0.5812  0.2908
  961MOL0     C29640   9.278  10.019   5.765 -0.4327  0.4948  1.2806
  961MOL0     C29641   9.280  10.119   5.649 -0.7212 -0.8788 -0.1023
  961MOL0     C29642   9.335  10.260   5.686 -0.4229  0.4669  1.4707
  961MOL0     C29643   9.248  10.336   5.776 -0.4274 -0.1392 -0.6265
  961MOL0     C29644   9.335  10.456   5.811 -0.1208  0.2334  0.5474
  961MOL0    Cl29645   9.235  10.601   5.812  0.1152  0.1192  0.0701
  961MOL0     C29646   9.803   9.739   6.077 -0.5391 -0.0538 -0.5232
  961MOL0     C29647   9.875   9.669   6.179 -0.5568 -0.1847 -0.2225
  961MOL0     O29648  10.104   9.631   6.346 -0.5621  0.6295 -0.4055
  961MOL0     C29649   9.929   9.411   6.567 -1.6008 -0.7570 -0.0795
  961MOL0     C29650   9.941   9.316   6.667  0.2475 -0.1232 -0.1189
  961MOL0     N29651   9.998   8.867   7.386  0.4050  0.8062  0.3200
  961MOL0     N29652   9.965   8.829   7.508  0.1708  0.4174 -0.3835
  961MOL0     C29653  10.379   9.168   7.740 -0.0113 -0.5366  0.3914
  961MOL0     C29654  10.376   9.242   7.619  0.0513 -0.6666  0.4631
  961MOL0     C29655  10.219   9.468   7.283  0.1929 -0.0352  0.1926
  961MOL0     C29656  10.192   9.600   7.302  0.2758 -0.4615 -0.0398
  961MOL0     C29657  10.159   9.679   7.190 -0.1956 -1.3352 -0.2884
  961MOL0     C29658  10.162   9.632   7.061 -0.8604  0.1285  0.1894
  961MOL0     O29659  10.126   9.712   6.950  0.2663 -0.8661 -0.0726
  961MOL0     C29660  10.115   9.852   6.955  0.7112  0.2549  0.0164
  961MOL0     C29661  10.053   9.885   6.815  0.3629  0.5371  0.3616
  961MOL0     C29662  10.039  10.035   6.767 -0.4516  0.9019  0.5594
  961MOL0     C29663   9.944  10.057   6.645 -0.1437 -0.2142  0.5762
  961MOL0     C29664  10.021  10.016   6.527  0.3359 -0.3407  0.1719
  961MOL0     C29665  10.075   9.972   6.419  0.0601 -0.3725 -0.2048
  961MOL0     C29666  10.197   9.496   7.047  0.3998  0.2642  0.1266
  961MOL0     C29667  10.236   9.416   7.155  0.6276  0.7407  0.1671
  961MOL0     H29668  10.159   9.056   7.456 -1.5110  2.6766  0.4403
  961MOL0     H29669  10.165   8.909   7.657  2.8013 -2.0927  3.8735
  961MOL0     H29670  10.274   8.784   7.817 -0.2443 -0.3564  0.4364
  961MOL0     H29671  10.444   8.827   7.851 -0.1612 -2.3850  1.9126
  961MOL0     H29672  10.326   8.692   8.037  1.6772  1.4455  4.3633
  961MOL0     H29673  10.401   8.832   8.083  0.3642 -1.7472  1.4789
  961MOL0     H29674  10.176   8.824   8.189 -2.6227 -4.4840 -1.7842
  961MOL0     H29675  10.172   8.956   8.079 -1.3443 -0.9150  0.2299
  961MOL0     H29676  10.097   8.684   7.971  0.6387 -1.3526  1.0413
  961MOL0     H29677   9.998   8.739   8.096 -1.8390 -2.5195 -1.6911
  961MOL0     H29678   9.946   8.946   7.978  1.0033 -1.3845  0.6552
  961MOL0     H29679  10.080   8.926   7.862  0.6515  1.9938  1.5256
  961MOL0     H29680   9.967   8.724   7.767  0.4191 -0.9503  1.4249
  961MOL0     H29681   9.855   8.717   7.899  0.6552  1.0377  1.5034
  961MOL0     H29682   9.729   8.921   7.820 -0.2186  0.6780 -0.5674
  961MOL0     H29683   9.873   8.979   7.736  1.8035  0.1845  3.7343
  961MOL0     H29684   9.653   8.846   7.630  0.0755  0.2520  4.6238
  961MOL0     H29685   9.749   8.717   7.657  0.3104  0.6550 -1.3179
  961MOL0     H29686   9.682   8.964   7.395  1.5505  1.6412 -3.3015
  961MOL0     H29687   9.860   8.870   7.127  0.3798  0.6346 -1.3004
  961MOL0     H29688   9.788   9.028   7.164 -0.5523  0.8256 -2.6632
  961MOL0     H29689  10.095   9.005   7.166  0.3914 -1.9390 -2.7347
  961MOL0     H29690   9.999   9.143   7.188  0.9153 -0.2995 -0.7132
  961MOL0     H29691   9.934   8.985   6.931  1.1041  0.8195 -4.6923
  961MOL0     H29692  10.098   9.002   6.958 -0.8223 -1.7351  1.2583
  961MOL0     H29693  10.046   9.262   7.011  0.5060  2.1530 -2.1810
  961MOL0     H29694   9.898   9.231   6.927  0.1599 -0.3813 -0.8044
  961MOL0     H29695  10.266   9.343   6.733 -0.0269  0.4743  0.6887
  961MOL0     H29696  10.299   9.524   6.439 -2.8772  2.8178  0.0459
  961MOL0     H29697  10.280   9.655   6.556  2.3261  0.6009  0.3989
  961MOL0     H29698  10.371   9.528   6.606  1.9250  0.7097 -1.7805
  961MOL0     H29699   9.728   9.802   6.461 -0.2312 -0.7573  0.7504
  961MOL0     H29700   9.614   9.943   6.278 -1.1781 -1.4103 -0.0899
  961MOL0     H29701   9.613   9.816   5.849  1.2558  0.4731  0.8786
  961MOL0     H29702   9.558   9.704   5.970  2.0335 -0.2768 -2.0876
  961MOL0     H29703   9.360   9.784   5.847  1.2639 -0.1009 -0.3136
  961MOL0     H29704   9.345   9.864   6.003  0.9587  0.0452  0.6685
  961MOL0     H29705   9.490   9.983   5.746 -3.8123  1.5489 -3.6983
  961MOL0     H29706   9.437  10.059   5.904 -0.4271 -1.4033  2.2474
  961MOL0     H29707   9.243   9.922   5.729  4.2501 -1.2595  0.8015
  961MOL0     H29708   9.212  10.050   5.847 -0.8329 -0.0743  1.1774
  961MOL0     H29709   9.188  10.116   5.590  1.1554 -1.5758 -3.2494
  961MOL0     H29710   9.351  10.073   5.580  1.3824  1.5778  0.2894
  961MOL0     H29711   9.439  10.243   5.716 -1.3423 -3.0291  3.2677
  961MOL0     H29712   9.341  10.327   5.599 -1.2204  0.0707  1.0934
  961MOL0     H29713   9.224  10.291   5.873 -0.0001  2.6527  0.8687
  961MOL0     H29714   9.157  10.352   5.718 -1.6013 -0.7097  0.9830
  961MOL0     H29715   9.411  10.471   5.734  0.8585 -3.5352  0.5910
  961MOL0     H29716   9.374  10.432   5.910  0.5891  2.1320  0.7533
  961MOL0     H29717   9.823   9.723   5.971 -0.5758 -1.3750 -0.3465
  961MOL0     H29718   9.947   9.597   6.140 -2.0920 -2.7901  1.4405
  961MOL0     H29719   9.832   9.431   6.522 -0.8075 -1.9392 -2.4467
  961MOL0     H29720   9.864   9.247   6.700 -2.3123  2.7649  0.3996
  961MOL0     H29721  10.429   9.204   7.829 -2.1263  1.1051  0.9927
  961MOL0     H29722  10.428   9.336   7.606 -2.9444  0.7633 -2.8022
  961MOL0     H29723  10.176   9.638   7.403  0.4216  2.4084 -0.9978
  961MOL0     H29724  10.128   9.782   7.203  0.9936 -0.9686 -0.2196
  961MOL0     H29725  10.036   9.887   7.023  1.6354 -0.5499  1.5504
  961MOL0     H29726  10.214   9.897   6.961 -0.3065  2.9677 -1.6489
  961MOL0     H29727   9.958   9.832   6.802  0.8049  0.1037 -1.3534
  961MOL0     H29728  10.119   9.829   6.748 -0.3486  3.8968 -3.5761
  961MOL0     H29729  10.137  10.078   6.745  0.2830 -0.7445  0.4952
  961MOL0     H29730   9.989  10.091   6.846 -1.7873 -1.9361  1.8708
  961MOL0     H29731   9.918  10.163   6.640 -1.5178 -0.5564  0.1949
  961MOL0     H29732   9.850  10.002   6.651  0.1232 -0.5260  2.8090
  961MOL0     H29733  10.130   9.932   6.337 -3.2113  0.2559 -2.9075
  961MOL0     H29734  10.198   9.451   6.948  2.5144  0.9265 -0.2143
  961MOL0     H29735  10.261   9.313   7.135 -2.8386 -0.0872 -0.5625
  962MOL0     O29736   8.692   2.377   5.501 -0.2820 -0.0461  0.2050
  962MOL0     C29737   8.622   2.301   5.433 -0.2924 -0.6297 -0.4806
  962MOL0     O29738   8.611   2.161   5.452 -0.1256 -0.5263  0.0398
  962MOL0     C29739   8.691   2.116   5.556  0.8584 -0.5468  1.3366
  962MOL0     C29740   8.644   2.132   5.690  1.5949  0.7849 -0.6848
  962MOL0     C29741   8.714   2.073   5.798 -0.3706 -0.1157  0.0616
  962MOL0     C29742   8.846   2.022   5.776 -0.5712  0.1266  0.1813
  962MOL0     O29743   8.908   1.985   5.894  0.1157  0.1995 -0.5555
  962MOL0     C29744   9.024   1.911   5.895 -0.6241 -0.1606 -0.2645
  962MOL0     C29745   9.062   1.864   6.041  0.6828 -0.2091 -0.4177
  962MOL0     C29746   8.954   1.761   6.092 -0.5848 -1.0251 -0.2942
  962MOL0     C29747   8.944   1.644   6.001  0.3168  0.6773  0.0844
  962MOL0     C29748   8.877   1.522   6.066  0.6879 -0.6345  0.0062
  962MOL0     C29749   8.845   1.411   5.976  1.0149  0.2806  0.1437
  962MOL0     C29750   8.760   1.296   6.031 -0.3057 -0.1578  0.1504
  962MOL0     C29751   8.614   1.345   6.035  0.5932  0.4749 -0.4290
  962MOL0     N29752   8.565   1.340   5.894  0.0121 -0.8302 -0.7155
  962MOL0     C29753   8.515   1.222   5.834  0.1053 -0.9095  1.0587
  962MOL0     C29754   8.449   1.274   5.733 -0.5366 -0.6550  0.3692
  962MOL0     C29755   8.407   1.185   5.612  0.1942 -0.6356  0.3916
  962MOL0     C29756   8.274   1.116   5.638  0.9790  0.7833  0.4140
  962MOL0     C29757   8.143   1.213   5.656 -0.1592 -0.1287 -0.0594
  962MOL0     C29758   8.013   1.137   5.686  0.4942  0.2581 -0.5783
  962MOL0     O29759   7.991   1.044   5.581 -0.8920 -0.2555  1.0427
  962MOL0     C29760   7.961   1.089   5.449  0.4299  0.5415 -0.3102
  962MOL0     C29761   7.973   0.987   5.347 -0.2592  0.2391  0.1460
  962MOL0     C29762   7.957   1.018   5.209  0.3913  1.0567 -0.1685
  962MOL0     C29763   7.995   0.906   5.108 -0.5129 -0.5830 -0.3402
  962MOL0     C29764   7.938   1.152   5.167  0.0821  0.4332 -0.5468
  962MOL0     C29765   7.932   1.207   5.031 -0.8559 -0.6816 -0.0986
  962MOL0     O29766   7.984   1.336   5.026  0.5256 -0.4780  0.1447
  962MOL0     C29767   7.985   1.409   4.904 -0.3245 -0.2341 -1.1461
  962MOL0     C29768   7.878   1.435   4.816  0.7479  0.0472 -0.3835
  962MOL0     C29769   7.888   1.523   4.716 -0.5625 -0.1876  0.0651
  962MOL0     C29770   8.011   1.568   4.675  0.6206  0.3667  0.4057
  962MOL0     O29771   7.997   1.647   4.560 -0.6939 -0.0159  0.8830
  962MOL0     C29772   8.123   1.693   4.503 -0.0999  0.7471 -0.0305
  962MOL0     C29773   8.093   1.761   4.375 -0.2174 -0.7990  1.0148
  962MOL0     C29774   7.988   1.876   4.385  0.2858 -0.9634 -0.1490
  962MOL0     C29775   7.975   1.969   4.254  0.7969 -0.9391 -0.2840
  962MOL0     C29776   7.871   2.090   4.279 -1.3284 -0.8391 -0.2773
  962MOL0     C29777   7.875   2.170   4.145  0.1796  0.9836  0.0142
  962MOL0     C29778   7.794   2.294   4.136 -0.3397 -0.1435  0.8202
  962MOL0     C29779   7.800   2.343   3.983 -0.2854  0.6098 -0.5689
  962MOL0    Cl29780   7.714   2.487   3.929 -0.7811  0.1758  0.0078
  962MOL0     C29781   8.128   1.546   4.753  0.4323 -0.1448 -0.3327
  962MOL0     C29782   8.109   1.460   4.869 -0.5614  0.3012  0.6761
  962MOL0     O29783   7.885   1.147   4.935 -0.2849  0.0714 -0.3786
  962MOL0     C29784   7.919   1.248   5.270 -0.8318  0.5965 -0.3277
  962MOL0     C29785   7.932   1.217   5.412 -0.0520 -0.4032  0.0802
  962MOL0     N29786   8.451   1.416   5.736  0.6222  0.0303  0.4522
  962MOL0     N29787   8.533   1.451   5.823  0.4592 -0.4179  0.0367
  962MOL0     C29788   8.899   2.020   5.645  0.1947 -0.5236  0.8379
  962MOL0     C29789   8.820   2.071   5.532 -0.1731 -0.6187 -0.3202
  962MOL0     C29790   8.552   2.359   5.310 -0.6769  0.1420  0.4932
  962MOL0     C29791   8.529   2.274   5.198  0.6669 -0.5274  0.1988
  962MOL0     C29792   8.447   2.327   5.096  0.0500 -0.8854  0.9281
  962MOL0     C29793   8.404   2.461   5.092 -0.2374  0.1593 -1.9044
  962MOL0     O29794   8.326   2.521   4.997  0.5627  0.7674 -0.2553
  962MOL0     C29795   8.227   2.431   4.932 -0.3253  0.1098 -0.0218
  962MOL0     C29796   8.086   2.480   4.952 -0.1274 -0.4191 -0.4449
  962MOL0     C29797   8.067   2.621   4.901  0.8951  0.2974  1.4028
  962MOL0     C29798   7.923   2.685   4.934 -0.8252  0.1641 -0.3102
  962MOL0     C29799   7.897   2.691   5.078  0.2066  0.1408  0.3622
  962MOL0     C29800   7.863   2.707   5.187  0.2147  0.2245 -1.4783
  962MOL0     C29801   8.446   2.541   5.204 -0.3422  0.3421  0.2818
  962MOL0     C29802   8.522   2.495   5.311 -0.0816  0.1518 -0.3148
  962MOL0     H29803   8.547   2.177   5.709  1.1910 -1.4051  4.1917
  962MOL0     H29804   8.675   2.080   5.899 -1.4997 -0.4138 -0.3424
  962MOL0     H29805   9.013   1.821   5.833  0.2875  0.3546 -1.2099
  962MOL0     H29806   9.109   1.974   5.866 -1.7560  1.1958 -0.7271
  962MOL0     H29807   9.162   1.822   6.057  0.5684 -0.0328  0.8613
  962MOL0     H29808   9.054   1.945   6.114  1.8735 -1.0823  0.7180
  962MOL0     H29809   8.983   1.729   6.193  0.8620 -0.2242 -0.4279
  962MOL0     H29810   8.852   1.799   6.105 -0.4497 -0.6340 -0.3653
  962MOL0     H29811   8.874   1.672   5.922  2.4396  0.0464 -2.1455
  962MOL0     H29812   9.039   1.608   5.961 -1.3084 -6.0798  1.0107
  962MOL0     H29813   8.941   1.488   6.148  0.5030 -2.1409 -0.4412
  962MOL0     H29814   8.782   1.564   6.100  0.7889 -0.3682 -0.0339
  962MOL0     H29815   8.812   1.446   5.877 -2.2048 -0.6194  0.7923
  962MOL0     H29816   8.942   1.361   5.966  1.1359  0.5006  0.1930
  962MOL0     H29817   8.774   1.208   5.967 -5.3757 -0.4231 -1.0289
  962MOL0     H29818   8.796   1.258   6.127  3.4631 -0.0138 -1.0091
  962MOL0     H29819   8.608   1.444   6.080  1.4619  0.5219 -0.3897
  962MOL0     H29820   8.558   1.278   6.100 -0.0107 -2.1113 -3.3548
  962MOL0     H29821   8.516   1.114   5.840 -2.3621 -1.1387 -0.8157
  962MOL0     H29822   8.401   1.249   5.524  1.1859  1.9255  2.0988
  962MOL0     H29823   8.486   1.111   5.596  1.9104  0.2365  3.8903
  962MOL0     H29824   8.280   1.055   5.728 -1.7808 -1.8971 -1.0372
  962MOL0     H29825   8.254   1.059   5.547  0.5920  0.5795  0.6261
  962MOL0     H29826   8.131   1.275   5.567  1.0587 -1.5262 -1.2561
  962MOL0     H29827   8.151   1.286   5.737 -1.4539  2.4650 -2.1333
  962MOL0     H29828   7.926   1.203   5.693 -0.5832 -1.0194 -1.3966
  962MOL0     H29829   8.023   1.085   5.781 -1.0940  1.0912  0.0991
  962MOL0     H29830   8.007   0.888   5.374  1.2510  0.1972 -1.7370
  962MOL0     H29831   7.911   0.871   5.048 -0.0498 -0.0574 -1.3120
  962MOL0     H29832   8.077   0.955   5.054 -0.7497  3.2616  2.3094
  962MOL0     H29833   8.040   0.816   5.152 -0.2178 -0.8736 -1.2270
  962MOL0     H29834   7.781   1.399   4.852 -0.4605  2.9459 -0.4810
  962MOL0     H29835   7.808   1.532   4.644  0.6752  0.9546 -1.2090
  962MOL0     H29836   8.175   1.765   4.567  1.5611  0.7851 -1.3561
  962MOL0     H29837   8.194   1.611   4.490  0.4986  1.1523  0.6027
  962MOL0     H29838   8.189   1.802   4.343  0.3837 -0.2289  3.3770
  962MOL0     H29839   8.053   1.683   4.309 -0.8531 -1.3664  2.0466
  962MOL0     H29840   8.021   1.934   4.473  0.7078 -0.9257 -0.3298
  962MOL0     H29841   7.892   1.835   4.417  1.3862 -3.6969 -0.0742
  962MOL0     H29842   8.072   2.017   4.240  1.1341 -2.0899 -2.2189
  962MOL0     H29843   7.950   1.911   4.164  1.6979 -0.5067 -0.8231
  962MOL0     H29844   7.898   2.151   4.366 -2.6669  1.0937 -1.1428
  962MOL0     H29845   7.775   2.038   4.291 -1.5980 -0.4563 -0.7349
  962MOL0     H29846   7.975   2.208   4.121  0.3655 -0.1701 -1.1488
  962MOL0     H29847   7.848   2.094   4.071 -1.7068  1.0173  0.6307
  962MOL0     H29848   7.833   2.371   4.204  0.9619 -1.3317  1.4828
  962MOL0     H29849   7.693   2.276   4.172 -0.4231  0.8537  1.1281
  962MOL0     H29850   7.758   2.260   3.926  0.6320 -3.1068  3.6777
  962MOL0     H29851   7.903   2.356   3.949  0.3400  0.7190  1.2624
  962MOL0     H29852   8.228   1.582   4.731  0.8571 -2.5013 -2.7374
  962MOL0     H29853   8.202   1.431   4.917 -0.4461  2.0612  1.6006
  962MOL0     H29854   7.909   1.353   5.246  2.0142  1.7887  2.8246
  962MOL0     H29855   7.914   1.292   5.488  0.1345 -2.1917  1.9694
  962MOL0     H29856   9.004   1.993   5.632  1.1491  3.1798 -0.7019
  962MOL0     H29857   8.869   2.078   5.436 -0.5770  3.5857 -0.4028
  962MOL0     H29858   8.572   2.175   5.186  2.6563  0.2252  0.8592
  962MOL0     H29859   8.430   2.261   5.012  0.4024  1.7689 -1.3439
  962MOL0     H29860   8.241   2.437   4.824 -0.4404 -0.6483 -0.0843
  962MOL0     H29861   8.240   2.329   4.971  2.9009  1.0231  1.6699
  962MOL0     H29862   8.066   2.497   5.058  2.8643 -2.4709  0.5851
  962MOL0     H29863   8.014   2.406   4.916 -0.2983 -0.9180  0.9080
  962MOL0     H29864   8.080   2.630   4.793  2.2969  1.0042  1.6004
  962MOL0     H29865   8.144   2.689   4.939  2.3692  1.0933 -2.5412
  962MOL0     H29866   7.836   2.635   4.890 -1.8146 -0.1965  1.9379
  962MOL0     H29867   7.910   2.784   4.889  1.6374  0.6947  0.0118
  962MOL0     H29868   7.844   2.707   5.293 -0.5334 -2.3077 -1.5276
  962MOL0     H29869   8.424   2.647   5.202  0.9350  0.6950  2.0169
  962MOL0     H29870   8.557   2.555   5.394  0.2659 -2.9406  1.9227
  963MOL0     O29871   5.616   0.751   6.059  0.1439 -0.8007 -0.5019
  963MOL0     C29872   5.531   0.755   6.147  0.7096 -0.2994 -0.6431
  963MOL0     O29873   5.402   0.802   6.126 -0.4149 -0.6202  0.7557
  963MOL0     C29874   5.368   0.838   5.998  0.4433 -0.3214 -0.2361
  963MOL0     C29875   5.299   0.955   5.987 -0.5591 -0.6315  0.4148
  963MOL0     C29876   5.252   1.002   5.865 -0.4009  0.2251 -0.1394
  963MOL0     C29877   5.270   0.925   5.750  0.5810 -0.1292 -0.0045
  963MOL0     O29878   5.212   0.960   5.626  0.2192  0.2659 -0.6976
  963MOL0     C29879   5.148   1.087   5.610 -0.1940  0.0704 -0.6516
  963MOL0     C29880   5.110   1.102   5.465  0.3402 -0.3869 -0.8420
  963MOL0     C29881   4.990   1.004   5.433  0.0272 -0.1686  0.7207
  963MOL0     C29882   4.953   1.017   5.283  0.1595  0.5245  0.1235
  963MOL0     C29883   4.812   0.954   5.249 -0.3124 -0.1846 -0.2707
  963MOL0     C29884   4.734   1.011   5.122 -0.5331 -0.1461 -0.5284
  963MOL0     C29885   4.649   1.130   5.157 -0.6852  0.9909 -0.3535
  963MOL0     C29886   4.599   1.202   5.023 -0.5643 -0.2825 -0.0395
  963MOL0     N29887   4.545   1.105   4.937  0.0107 -1.6568  0.0463
  963MOL0     C29888   4.615   1.031   4.843 -0.1642 -0.2795  0.3475
  963MOL0     C29889   4.521   1.004   4.747 -0.4677  0.4021 -0.3489
  963MOL0     C29890   4.540   0.935   4.611 -0.2181  0.0080  0.8639
  963MOL0     C29891   4.673   0.955   4.545 -0.7048 -0.5062 -0.5271
  963MOL0     C29892   4.666   0.892   4.400  0.8567 -0.4488  0.0293
  963MOL0     C29893   4.764   0.959   4.311  0.4543 -0.4344 -0.4058
  963MOL0     O29894   4.901   0.945   4.359  0.2574  0.0633 -0.2613
  963MOL0     C29895   5.011   0.973   4.282 -0.1692  0.0137 -0.0384
  963MOL0     C29896   5.016   1.062   4.176  0.9971  0.8667 -0.1000
  963MOL0     C29897   5.133   1.106   4.120  0.1987 -0.5259 -0.2166
  963MOL0     C29898   5.117   1.212   4.010 -0.8939  0.4177  1.5331
  963MOL0     C29899   5.270   1.074   4.176  0.3375 -1.1815  0.0166
  963MOL0     C29900   5.401   1.137   4.144  0.0358  0.3072 -0.1827
  963MOL0     O29901   5.485   1.155   4.250 -0.5914  0.5839  0.2338
  963MOL0     C29902   5.611   1.194   4.221  1.1789 -1.1128  0.7834
  963MOL0     C29903   5.640   1.333   4.248  0.6280  0.4855  0.5163
  963MOL0     C29904   5.759   1.384   4.221 -0.3349 -0.4980  0.6823
  963MOL0     C29905   5.864   1.308   4.166 -0.6491  0.9293  1.1759
  963MOL0     O29906   5.996   1.356   4.141 -0.2789 -0.4797  0.3627
  963MOL0     C29907   6.004   1.456   4.031 -0.4611 -1.0019  0.1400
  963MOL0     C29908   5.971   1.425   3.888  0.7199  0.2469  0.3809
  963MOL0     C29909   6.048   1.306   3.826 -0.7152 -0.6436  0.4079
  963MOL0     C29910   6.178   1.365   3.765  0.1134  0.7807 -0.2242
  963MOL0     C29911   6.246   1.258   3.668 -0.3114 -0.1112  0.1408
  963MOL0     C29912   6.370   1.315   3.610  0.2472 -0.1705  0.1823
  963MOL0     C29913   6.451   1.208   3.541 -0.1266 -0.8819  0.0540
  963MOL0     C29914   6.605   1.251   3.528 -0.1892 -0.9842 -0.4695
  963MOL0    Cl29915   6.702   1.163   3.416  0.1428 -0.0014  0.0961
  963MOL0     C29916   5.845   1.171   4.148 -1.1043 -0.6776 -0.2860
  963MOL0     C29917   5.719   1.114   4.168  0.2666 -0.7692 -0.3968
  963MOL0     O29918   5.435   1.148   4.027 -0.0861  0.4043  0.5285
  963MOL0     C29919   5.255   0.993   4.293  0.6270  0.4563  0.4832
  963MOL0     C29920   5.136   0.933   4.340 -0.6006  0.6866 -0.0323
  963MOL0     N29921   4.394   1.038   4.793  0.5848  0.5224  0.0004
  963MOL0     N29922   4.414   1.107   4.891  0.2419 -1.1079  0.3082
  963MOL0     C29923   5.335   0.799   5.763  0.6143  0.2715 -0.3270
  963MOL0     C29924   5.393   0.766   5.883  0.2711  0.2641  0.0486
  963MOL0     C29925   5.575   0.690   6.282  0.1899  0.2111  0.6553
  963MOL0     C29926   5.681   0.605   6.297 -0.8473 -0.1452  0.4209
  963MOL0     C29927   5.715   0.543   6.425  0.5688 -0.0366  0.6864
  963MOL0     C29928   5.635   0.563   6.538 -0.1854 -0.9364  0.2584
  963MOL0     O29929   5.635   0.506   6.664 -0.4033 -0.0762  0.1617
  963MOL0     C29930   5.761   0.438   6.698  0.8657 -0.6574  0.0185
  963MOL0     C29931   5.880   0.547   6.708  0.2114 -1.1256  0.6232
  963MOL0     C29932   5.843   0.659   6.811  0.2494 -0.4902  0.1025
  963MOL0     C29933   5.815   0.620   6.953 -0.1757  0.4216  0.4804
  963MOL0     C29934   5.950   0.626   7.016 -0.1039  0.5742  0.4575
  963MOL0     C29935   6.059   0.633   7.069 -0.1254  0.7646  0.8232
  963MOL0     C29936   5.536   0.663   6.523 -0.6423  0.0719  0.3235
  963MOL0     C29937   5.508   0.725   6.401  0.6071 -0.2065 -0.4905
  963MOL0     H29938   5.277   1.016   6.074  0.5766  1.6910 -0.8117
  963MOL0     H29939   5.200   1.096   5.861  0.5915  0.7488 -1.3377
  963MOL0     H29940   5.062   1.097   5.677  0.3778  1.8387 -0.1573
  963MOL0     H29941   5.225   1.159   5.638  0.1857 -1.0516  1.3761
  963MOL0     H29942   5.072   1.202   5.444 -1.1818 -0.5355  0.8890
  963MOL0     H29943   5.201   1.090   5.405 -0.5553  1.5955 -2.7360
  963MOL0     H29944   5.015   0.902   5.463  1.3590  0.2135  1.0139
  963MOL0     H29945   4.903   1.034   5.491 -1.7870 -1.9777 -0.9367
  963MOL0     H29946   4.950   1.121   5.248 -3.6252  0.1445 -1.0689
  963MOL0     H29947   5.025   0.968   5.217 -1.5522 -0.4624 -1.0961
  963MOL0     H29948   4.811   0.847   5.230  0.2690 -0.4197  0.9764
  963MOL0     H29949   4.750   0.988   5.333  1.3522  2.1601  0.1339
  963MOL0     H29950   4.815   1.039   5.055 -0.0279  2.6153  1.1092
  963MOL0     H29951   4.672   0.933   5.076  1.2719 -1.1660 -1.3399
  963MOL0     H29952   4.559   1.095   5.207 -0.1982 -0.4814 -0.4731
  963MOL0     H29953   4.701   1.195   5.228 -0.7887 -0.4260  1.0483
  963MOL0     H29954   4.688   1.248   4.978 -2.3187  0.9886 -2.4106
  963MOL0     H29955   4.533   1.289   5.034 -0.0396  0.5266 -2.5488
  963MOL0     H29956   4.723   1.032   4.837 -0.2148 -0.1917 -0.7605
  963MOL0     H29957   4.521   0.828   4.615 -3.1273  0.0395 -4.0720
  963MOL0     H29958   4.458   0.978   4.553 -3.2223  2.9374  6.4744
  963MOL0     H29959   4.758   0.911   4.598  0.4583 -0.7199 -2.4768
  963MOL0     H29960   4.684   1.064   4.550 -2.0583 -0.4047  1.4657
  963MOL0     H29961   4.573   0.887   4.344  0.5186  0.2216  0.5149
  963MOL0     H29962   4.682   0.785   4.419  2.3528  0.0396  1.8827
  963MOL0     H29963   4.738   1.063   4.293 -1.3586 -0.6350  0.8226
  963MOL0     H29964   4.763   0.919   4.209  1.0314 -1.8980  0.1219
  963MOL0     H29965   4.924   1.092   4.127 -0.9195 -0.1272  2.5850
  963MOL0     H29966   5.174   1.207   3.917  1.9653  0.7348  3.1605
  963MOL0     H29967   5.011   1.223   3.984 -0.3505  1.9868 -0.2700
  963MOL0     H29968   5.161   1.304   4.049 -0.5839  1.0048 -0.1204
  963MOL0     H29969   5.568   1.407   4.280  0.2024  1.5836 -2.6345
  963MOL0     H29970   5.766   1.492   4.233 -3.6401 -0.1594  0.4359
  963MOL0     H29971   5.935   1.533   4.067 -0.1305 -2.0622  3.3918
  963MOL0     H29972   6.108   1.487   4.033 -0.9938  0.9750 -0.4783
  963MOL0     H29973   5.867   1.393   3.899  0.8976  0.2915  2.6725
  963MOL0     H29974   5.971   1.517   3.829 -0.1558 -1.0115 -1.7311
  963MOL0     H29975   5.988   1.253   3.752  0.7430 -1.3574 -0.3033
  963MOL0     H29976   6.066   1.228   3.900 -1.8782 -2.3700 -1.0603
  963MOL0     H29977   6.159   1.457   3.711  1.7641 -0.1703 -2.5936
  963MOL0     H29978   6.253   1.383   3.843  0.6198  3.1593 -1.1798
  963MOL0     H29979   6.172   1.233   3.591 -1.5252  0.0363  1.2324
  963MOL0     H29980   6.274   1.173   3.732  0.6770 -0.6905 -1.0156
  963MOL0     H29981   6.361   1.404   3.547 -1.2961 -0.3147  0.1608
  963MOL0     H29982   6.433   1.339   3.696  0.9738 -0.7465 -0.1739
  963MOL0     H29983   6.408   1.197   3.441 -0.7385 -0.7392  0.3021
  963MOL0     H29984   6.454   1.115   3.598  2.1061  0.2629  1.9793
  963MOL0     H29985   6.651   1.256   3.627 -0.5765  1.2004 -0.3307
  963MOL0     H29986   6.598   1.355   3.495  2.0408  0.1554  2.2780
  963MOL0     H29987   5.930   1.103   4.137 -1.1664 -0.5788 -1.4748
  963MOL0     H29988   5.703   1.008   4.154  1.9792 -1.3231  1.3827
  963MOL0     H29989   5.344   0.968   4.350 -1.6661  0.5788  4.4963
  963MOL0     H29990   5.144   0.875   4.431  1.9695  3.3807  1.6517
  963MOL0     H29991   5.342   0.736   5.675  3.5810  3.9234 -3.0298
  963MOL0     H29992   5.462   0.682   5.888  1.2049  0.9298 -1.0967
  963MOL0     H29993   5.748   0.583   6.214  1.5425 -0.9604  2.4557
  963MOL0     H29994   5.789   0.464   6.427 -0.7085 -1.2633  1.4139
  963MOL0     H29995   5.755   0.383   6.792 -0.8001 -0.0625  0.2922
  963MOL0     H29996   5.794   0.371   6.619  2.3547  1.2014 -1.0382
  963MOL0     H29997   5.891   0.599   6.612  2.7876 -2.7900 -0.0782
  963MOL0     H29998   5.976   0.506   6.739 -0.9178 -1.9400  3.3964
  963MOL0     H29999   5.746   0.701   6.782  1.4401  1.9167 -0.6284
  963MOL0     H30000   5.913   0.743   6.812  0.4107 -0.6202  1.2836
  963MOL0     H30001   5.778   0.517   6.962 -4.5207  1.7373  0.2100
  963MOL0     H30002   5.738   0.687   6.993 -1.2147 -0.5368  0.1416
  963MOL0     H30003   6.153   0.628   7.119  3.1930  0.8293 -4.5782
  963MOL0     H30004   5.480   0.689   6.612 -0.8104  1.2860 -0.1256
  963MOL0     H30005   5.443   0.811   6.397  0.5583 -0.2854 -2.2682
  964MOL0     O30006   4.512   4.898   2.961  1.0402  0.2819  0.5910
  964MOL0     C30007   4.552   4.863   3.072 -0.5006 -0.7372  0.8351
  964MOL0     O30008   4.598   4.736   3.093 -0.0102 -0.0743  0.0151
  964MOL0     C30009   4.608   4.638   2.995  0.4409 -0.0620  0.2650
  964MOL0     C30010   4.623   4.651   2.859 -0.3890 -0.2687  0.2492
  964MOL0     C30011   4.630   4.543   2.773  0.8821  0.0301  0.0772
  964MOL0     C30012   4.593   4.411   2.817 -0.4000  0.4079  0.4469
  964MOL0     O30013   4.575   4.317   2.714 -0.2373 -0.1214  0.2013
  964MOL0     C30014   4.536   4.187   2.755 -0.3254 -0.7215  0.5300
  964MOL0     C30015   4.489   4.083   2.647  0.7396 -0.2773  0.3967
  964MOL0     C30016   4.332   4.102   2.606 -0.8301 -0.3261 -0.1132
  964MOL0     C30017   4.268   3.978   2.544 -0.8959  0.0945  0.3749
  964MOL0     C30018   4.141   4.010   2.463 -0.8050 -0.4895  0.5132
  964MOL0     C30019   4.024   4.060   2.553  0.4635  0.9135 -0.6232
  964MOL0     C30020   3.882   4.069   2.488 -0.4151  0.1925 -0.4790
  964MOL0     C30021   3.780   4.095   2.602 -0.7739  0.1998  0.6043
  964MOL0     N30022   3.641   4.076   2.569 -0.6373  0.3415 -0.1317
  964MOL0     C30023   3.589   4.119   2.446 -0.1221 -0.8242  0.4524
  964MOL0     C30024   3.462   4.087   2.458  0.0021 -0.4062  0.3217
  964MOL0     C30025   3.355   4.122   2.357 -0.1621  0.7804  0.5812
  964MOL0     C30026   3.270   3.995   2.330  0.9155  0.2977 -0.1680
  964MOL0     C30027   3.244   3.990   2.182 -0.4952  0.6455  0.2658
  964MOL0     C30028   3.172   3.860   2.143 -0.2411 -0.4297 -0.0451
  964MOL0     O30029   3.077   3.813   2.236  0.2994  0.2286  0.4319
  964MOL0     C30030   3.015   3.696   2.197 -0.9698  0.2011  0.0607
  964MOL0     C30031   2.917   3.637   2.278  0.1624 -0.2861  1.0958
  964MOL0     C30032   2.853   3.515   2.262 -0.5860  1.0254 -1.2498
  964MOL0     C30033   2.737   3.474   2.353  0.2976  0.8436 -0.4078
  964MOL0     C30034   2.889   3.443   2.144  0.6121  0.0136  0.0827
  964MOL0     C30035   2.829   3.312   2.087  0.2375  0.6781  0.1182
  964MOL0     O30036   2.883   3.260   1.980  0.1570  0.6594 -0.0081
  964MOL0     C30037   2.814   3.157   1.925 -0.2701  1.1252  0.4569
  964MOL0     C30038   2.853   3.025   1.939  0.4068  0.8841  0.2808
  964MOL0     C30039   2.779   2.916   1.886 -0.3606  1.1171  0.7481
  964MOL0     C30040   2.661   2.944   1.817 -0.6490 -0.0207  0.1375
  964MOL0     O30041   2.595   2.863   1.741  0.4966 -0.5230  0.4532
  964MOL0     C30042   2.666   2.805   1.631 -0.0854  0.3770 -0.3932
  964MOL0     C30043   2.605   2.673   1.595  0.8030 -0.0662  0.2338
  964MOL0     C30044   2.626   2.559   1.700 -0.1222 -0.0017 -0.1259
  964MOL0     C30045   2.546   2.579   1.834  0.5029  0.3448 -0.5094
  964MOL0     C30046   2.558   2.443   1.910  0.6024  0.2160 -0.6636
  964MOL0     C30047   2.465   2.328   1.862  0.7480 -0.7980  0.6604
  964MOL0     C30048   2.306   2.360   1.875  0.4708 -0.3457 -0.9891
  964MOL0     C30049   2.228   2.251   1.800  0.2695 -0.7820 -0.3132
  964MOL0    Cl30050   2.284   2.086   1.816  0.1162 -0.3135  0.0451
  964MOL0     C30051   2.621   3.076   1.804  0.7145 -0.1346 -0.1246
  964MOL0     C30052   2.698   3.184   1.848 -0.0085  0.8049 -0.5571
  964MOL0     O30053   2.724   3.270   2.143  0.1363 -0.1681 -0.3029
  964MOL0     C30054   2.985   3.499   2.049  0.2203  0.5763 -0.3636
  964MOL0     C30055   3.045   3.621   2.082 -0.3098  0.4431 -0.0199
  964MOL0     N30056   3.433   4.023   2.579 -0.2465 -0.3006  0.2793
  964MOL0     N30057   3.544   4.025   2.645  0.6811  0.7476  0.7767
  964MOL0     C30058   4.584   4.396   2.956  0.1939 -0.4886 -0.2207
  964MOL0     C30059   4.582   4.511   3.039 -0.7416  0.7260  0.2288
  964MOL0     C30060   4.569   4.963   3.182 -0.3873 -0.1375 -0.7058
  964MOL0     C30061   4.500   5.088   3.179  0.3203  1.2746 -0.7676
  964MOL0     C30062   4.508   5.169   3.287 -0.5493 -0.2170 -0.2142
  964MOL0     C30063   4.597   5.148   3.398  0.6199 -0.4919  1.0177
  964MOL0     O30064   4.626   5.251   3.486 -0.2675  0.4867 -0.2125
  964MOL0     C30065   4.582   5.387   3.471  0.5285 -0.1380  0.6794
  964MOL0     C30066   4.643   5.470   3.348  1.1663  0.9956 -0.0258
  964MOL0     C30067   4.795   5.466   3.348 -0.2464  0.3162  0.2705
  964MOL0     C30068   4.855   5.513   3.224  0.8927 -0.4226  0.6732
  964MOL0     C30069   4.996   5.462   3.221 -0.3263 -0.5239  0.9553
  964MOL0     C30070   5.104   5.415   3.235  0.0952 -0.3503  0.3768
  964MOL0     C30071   4.656   5.025   3.408  0.1636 -0.8742  0.2054
  964MOL0     C30072   4.643   4.934   3.300 -0.0388 -0.8470  0.5929
  964MOL0     H30073   4.628   4.744   2.803 -0.7841 -0.2976  0.1621
  964MOL0     H30074   4.628   4.560   2.666 -1.9024  1.8280  0.3465
  964MOL0     H30075   4.630   4.150   2.797  1.0814 -0.0227 -1.7898
  964MOL0     H30076   4.455   4.196   2.828 -1.0935 -1.0375 -0.2641
  964MOL0     H30077   4.548   4.082   2.555  0.4161  1.1209  0.1567
  964MOL0     H30078   4.503   3.990   2.703 -0.8031 -1.2306 -0.7251
  964MOL0     H30079   4.268   4.134   2.688 -0.9753  1.2066 -0.7931
  964MOL0     H30080   4.331   4.176   2.525  0.0217 -0.4841 -0.2839
  964MOL0     H30081   4.332   3.927   2.471 -3.9129  1.1217 -3.3574
  964MOL0     H30082   4.254   3.900   2.619  0.3180 -2.4120 -1.8027
  964MOL0     H30083   4.167   4.086   2.389 -0.2428  1.4023  2.5320
  964MOL0     H30084   4.126   3.919   2.404  1.7784 -0.4419 -0.3379
  964MOL0     H30085   4.018   4.003   2.647  0.6761 -1.4274 -1.9452
  964MOL0     H30086   4.048   4.163   2.580 -1.8850  1.3819 -0.1281
  964MOL0     H30087   3.878   4.149   2.413 -1.4826  3.7300  2.9776
  964MOL0     H30088   3.841   3.980   2.440 -1.0056 -0.3170  0.9301
  964MOL0     H30089   3.782   4.200   2.634 -0.7313  0.3125  0.2372
  964MOL0     H30090   3.802   4.032   2.688 -0.8769 -0.5859  0.0671
  964MOL0     H30091   3.653   4.161   2.369  0.9803 -0.8288  1.3527
  964MOL0     H30092   3.291   4.203   2.394 -1.9397  1.1752 -2.9384
  964MOL0     H30093   3.406   4.153   2.265  0.0150 -1.3183 -0.0712
  964MOL0     H30094   3.176   3.991   2.386  0.2700 -3.7318 -1.2470
  964MOL0     H30095   3.324   3.902   2.353  1.6797  0.8152  0.1691
  964MOL0     H30096   3.343   3.996   2.136 -0.7192  0.2847 -0.2829
  964MOL0     H30097   3.176   4.064   2.138 -3.3711 -2.0390 -0.1821
  964MOL0     H30098   3.250   3.784   2.144 -1.1500 -1.3984 -0.9189
  964MOL0     H30099   3.135   3.862   2.040  1.4029 -0.9843 -0.6684
  964MOL0     H30100   2.903   3.688   2.373 -1.3147  1.7157 -0.1174
  964MOL0     H30101   2.728   3.366   2.372 -0.2311  1.1255  1.1204
  964MOL0     H30102   2.761   3.512   2.453  2.8051 -1.2883 -0.0607
  964MOL0     H30103   2.641   3.510   2.316  1.0723  1.3544 -2.0205
  964MOL0     H30104   2.942   2.999   1.996  0.0352 -0.0956  0.4435
  964MOL0     H30105   2.816   2.815   1.905  0.3476  1.1471 -0.4132
  964MOL0     H30106   2.651   2.876   1.550 -0.4028 -0.6550 -1.2649
  964MOL0     H30107   2.775   2.794   1.639  0.1481 -2.0712 -4.1911
  964MOL0     H30108   2.496   2.685   1.590  0.6968 -0.6187  1.0307
  964MOL0     H30109   2.634   2.649   1.492 -0.6582 -3.4528  0.4796
  964MOL0     H30110   2.732   2.563   1.726 -0.3507  3.7310  0.8413
  964MOL0     H30111   2.595   2.465   1.653 -2.0274  0.1963  0.6578
  964MOL0     H30112   2.579   2.661   1.898 -1.7848  0.9468 -0.0139
  964MOL0     H30113   2.440   2.592   1.812 -0.0258 -5.5787 -3.5043
  964MOL0     H30114   2.539   2.467   2.015  1.0345  0.4405 -0.6355
  964MOL0     H30115   2.663   2.411   1.906 -0.2233 -3.2419  1.4558
  964MOL0     H30116   2.480   2.310   1.755  1.9061  2.8928  0.0692
  964MOL0     H30117   2.495   2.245   1.926  0.2845 -0.2125  1.6624
  964MOL0     H30118   2.282   2.457   1.831 -0.8884 -1.1721 -2.1585
  964MOL0     H30119   2.275   2.355   1.980  1.8340 -0.6970 -0.5853
  964MOL0     H30120   2.242   2.257   1.692  3.1059 -1.5759 -0.0747
  964MOL0     H30121   2.121   2.263   1.819  0.1119  0.3039 -1.7417
  964MOL0     H30122   2.528   3.096   1.751  0.4985  1.2524  0.7172
  964MOL0     H30123   2.654   3.281   1.830 -2.6359  0.0317  1.1587
  964MOL0     H30124   3.037   3.441   1.974 -1.4213 -3.5012  1.3686
  964MOL0     H30125   3.125   3.631   2.009  0.9870 -1.5593  1.0201
  964MOL0     H30126   4.571   4.302   3.007 -3.4508  0.6806  1.3131
  964MOL0     H30127   4.556   4.497   3.143 -0.6911  3.3865  0.6625
  964MOL0     H30128   4.420   5.112   3.111  1.3173  0.9285 -2.1083
  964MOL0     H30129   4.454   5.263   3.284 -0.0272  0.2389  2.2839
  964MOL0     H30130   4.473   5.379   3.463  0.6232 -1.4896  0.4585
  964MOL0     H30131   4.594   5.446   3.563  2.1200  0.5586  0.0488
  964MOL0     H30132   4.611   5.574   3.344 -1.6882  0.3325  2.0296
  964MOL0     H30133   4.589   5.419   3.267  1.1653 -3.9475  2.6427
  964MOL0     H30134   4.831   5.364   3.360  1.9921  1.0117  0.0146
  964MOL0     H30135   4.833   5.526   3.432 -2.2761 -0.4682  1.8348
  964MOL0     H30136   4.850   5.622   3.228  0.9655 -0.2039 -2.6658
  964MOL0     H30137   4.791   5.474   3.144  1.6117 -1.1770  0.4478
  964MOL0     H30138   5.205   5.381   3.232  0.8829  1.8261 -3.3842
  964MOL0     H30139   4.713   4.987   3.492 -0.7001 -1.9149  0.3419
  964MOL0     H30140   4.689   4.836   3.311  0.1118 -0.8961 -0.3752
  965MOL0     O30141  11.045   0.943   7.389 -0.1308  0.8179  0.1675
  965MOL0     C30142  11.071   1.048   7.345 -0.3793 -0.0343  0.4944
  965MOL0     O30143  11.185   1.070   7.272  0.7685  0.0001 -0.0730
  965MOL0     C30144  11.283   0.977   7.232  0.2924  1.0589 -0.2715
  965MOL0     C30145  11.249   0.840   7.219  0.0316  0.2584 -0.5250
  965MOL0     C30146  11.343   0.748   7.197 -0.2894  0.6502 -1.5919
  965MOL0     C30147  11.477   0.787   7.187 -0.1684 -1.3686 -0.0851
  965MOL0     O30148  11.583   0.699   7.177 -0.1570 -0.0843  0.7277
  965MOL0     C30149  11.549   0.566   7.220  0.0527  0.9598 -0.4791
  965MOL0     C30150  11.685   0.497   7.270 -0.2676 -0.3011  0.2624
  965MOL0     C30151  11.780   0.453   7.152  0.5603 -0.5039  0.3161
  965MOL0     C30152  11.905   0.406   7.221 -0.2855  0.5831  0.4777
  965MOL0     C30153  12.004   0.320   7.140  0.6560 -0.0930 -0.5606
  965MOL0     C30154  12.069   0.406   7.027  0.4961  0.0823  1.1393
  965MOL0     C30155  12.142   0.307   6.921  0.7569  0.3242  1.0094
  965MOL0     C30156  12.245   0.216   6.983 -0.2365 -0.2048  0.0199
  965MOL0     N30157  12.360   0.214   6.899  0.8332 -0.2350  0.0787
  965MOL0     C30158  12.461   0.296   6.901 -1.3420 -0.5298 -0.6167
  965MOL0     C30159  12.536   0.268   6.794 -0.6462  1.1817 -0.3897
  965MOL0     C30160  12.656   0.345   6.748 -0.0348 -0.8400  0.0294
  965MOL0     C30161  12.771   0.248   6.694  0.8526  0.2366 -0.5359
  965MOL0     C30162  12.793   0.119   6.781  0.2299  0.1104  0.2556
  965MOL0     C30163  12.782  -0.001   6.689 -0.3298 -0.4333  0.0875
  965MOL0     O30164  12.911  -0.029   6.626 -0.0582 -0.4615  0.8140
  965MOL0     C30165  12.925  -0.133   6.534 -0.1454 -0.4548 -0.1266
  965MOL0     C30166  13.041  -0.138   6.479 -0.0548  0.2277 -0.2935
  965MOL0     C30167  13.082  -0.231   6.379  0.0392  0.0257  0.4314
  965MOL0     C30168  13.218  -0.233   6.319 -0.3781 -0.1155  0.0207
  965MOL0     C30169  12.992  -0.334   6.347 -0.1441  0.2181  0.2946
  965MOL0     C30170  13.024  -0.453   6.253  0.3177  0.1842  1.0034
  965MOL0     O30171  12.911  -0.535   6.222 -0.1522 -0.2721 -0.5018
  965MOL0     C30172  12.931  -0.654   6.150 -0.0581  0.5103 -0.1073
  965MOL0     C30173  12.982  -0.770   6.202 -0.2260 -1.0933 -0.2199
  965MOL0     C30174  13.011  -0.877   6.108 -0.7712 -0.7764 -0.3001
  965MOL0     C30175  12.990  -0.866   5.969 -0.3738 -0.4325 -0.0373
  965MOL0     O30176  13.022  -0.973   5.882  0.9969  0.2739 -0.2457
  965MOL0     C30177  13.094  -1.089   5.930  0.7096  0.5738  0.1764
  965MOL0     C30178  13.132  -1.183   5.815  1.1924  0.1628 -0.7073
  965MOL0     C30179  13.238  -1.128   5.716  0.9435 -0.1538 -0.5962
  965MOL0     C30180  13.205  -1.168   5.571 -0.4298  0.3236 -0.4592
  965MOL0     C30181  13.100  -1.079   5.504 -0.2492  0.7297  0.2043
  965MOL0     C30182  13.135  -0.930   5.474 -0.3527 -0.1212  0.1557
  965MOL0     C30183  13.019  -0.852   5.420  0.1786  0.3077  0.1811
  965MOL0     C30184  13.064  -0.715   5.387 -0.1848  0.1084  0.4303
  965MOL0    Cl30185  12.914  -0.639   5.344  0.4061  0.1178 -0.3156
  965MOL0     C30186  12.934  -0.746   5.925  0.2121  0.3742  0.1291
  965MOL0     C30187  12.903  -0.642   6.016  0.1133  0.6544  0.9763
  965MOL0     O30188  13.138  -0.489   6.221 -0.3380 -0.9445 -0.2023
  965MOL0     C30189  12.865  -0.323   6.405  0.2922 -0.3590  0.7982
  965MOL0     C30190  12.826  -0.225   6.494 -0.2286  0.2037 -0.2859
  965MOL0     N30191  12.472   0.172   6.715 -0.2451  0.1698 -0.2833
  965MOL0     N30192  12.367   0.139   6.784  0.8876  0.2379  0.4097
  965MOL0     C30193  11.520   0.919   7.199  0.6145 -0.3714  0.4016
  965MOL0     C30194  11.414   1.013   7.228 -0.4586 -0.6997 -0.9669
  965MOL0     C30195  10.991   1.163   7.386  0.3084  0.3982  0.0903
  965MOL0     C30196  11.021   1.300   7.366 -0.0736 -0.1481 -0.4069
  965MOL0     C30197  10.926   1.394   7.417 -0.5860  0.0830 -0.9693
  965MOL0     C30198  10.805   1.358   7.467 -0.1121  0.4589 -0.7175
  965MOL0     O30199  10.710   1.452   7.503  0.1113  0.1014 -0.3819
  965MOL0     C30200  10.724   1.590   7.490  0.1321  1.0222 -0.7512
  965MOL0     C30201  10.665   1.628   7.356  0.5565 -0.2359 -0.5175
  965MOL0     C30202  10.697   1.772   7.318  0.1011 -0.2509  0.3009
  965MOL0     C30203  10.682   1.799   7.173  0.4045  0.1876 -0.5937
  965MOL0     C30204  10.702   1.932   7.128 -0.0738 -0.3047 -0.0012
  965MOL0     C30205  10.711   2.048   7.088 -0.4195 -0.9003 -0.2111
  965MOL0     C30206  10.770   1.224   7.487 -0.0343 -1.1331  0.4988
  965MOL0     C30207  10.867   1.129   7.447 -0.9095 -1.3282 -0.8577
  965MOL0     H30208  11.145   0.807   7.220  0.3458 -2.1786 -6.9439
  965MOL0     H30209  11.310   0.647   7.172 -0.4161  0.4341 -0.5771
  965MOL0     H30210  11.481   0.562   7.306  1.9704 -1.6343  1.0590
  965MOL0     H30211  11.515   0.498   7.142  1.6446  0.1617 -0.5225
  965MOL0     H30212  11.722   0.559   7.352 -1.9055  0.4250  0.5049
  965MOL0     H30213  11.662   0.403   7.322  2.4546  0.3608  2.9430
  965MOL0     H30214  11.743   0.368   7.093 -1.2050 -1.5984  2.8483
  965MOL0     H30215  11.805   0.536   7.085 -0.0091 -0.6607 -0.1056
  965MOL0     H30216  11.953   0.494   7.265  1.2193  0.5552 -0.9838
  965MOL0     H30217  11.863   0.344   7.300 -0.6822 -0.8335 -0.7943
  965MOL0     H30218  12.068   0.266   7.210  0.6418 -0.7435 -1.0322
  965MOL0     H30219  11.945   0.235   7.105 -0.1642  1.0309 -2.0827
  965MOL0     H30220  11.996   0.472   6.980 -2.0425 -1.8962  2.0505
  965MOL0     H30221  12.137   0.480   7.070 -0.8460  0.3626  2.8992
  965MOL0     H30222  12.066   0.251   6.866  0.4804  1.5533  0.0794
  965MOL0     H30223  12.185   0.375   6.846  2.4016 -3.5844 -1.9592
  965MOL0     H30224  12.200   0.117   6.993 -1.0404 -0.0095 -1.2883
  965MOL0     H30225  12.282   0.241   7.082  2.3925 -4.4818  0.3586
  965MOL0     H30226  12.485   0.365   6.981  4.4012 -1.7504 -0.8423
  965MOL0     H30227  12.625   0.418   6.673  1.2438 -1.8354 -1.5462
  965MOL0     H30228  12.708   0.412   6.817  0.4436  0.2536 -1.3472
  965MOL0     H30229  12.861   0.307   6.676 -0.7247  1.9729 -3.5566
  965MOL0     H30230  12.730   0.214   6.599  3.8327 -3.3446 -0.7812
  965MOL0     H30231  12.715   0.102   6.855 -1.6804 -0.4350 -1.7510
  965MOL0     H30232  12.890   0.124   6.830  0.1419  3.4690  0.2986
  965MOL0     H30233  12.704   0.017   6.615 -1.0435 -0.6241  0.7789
  965MOL0     H30234  12.750  -0.081   6.757  0.9726  0.0066  1.2563
  965MOL0     H30235  13.116  -0.070   6.519 -0.8057  3.5909 -3.9374
  965MOL0     H30236  13.207  -0.193   6.218 -3.2666 -0.1242  0.2479
  965MOL0     H30237  13.282  -0.165   6.375 -3.4586  2.5158  0.6315
  965MOL0     H30238  13.266  -0.332   6.320 -1.2046 -0.5197  0.5979
  965MOL0     H30239  13.004  -0.783   6.307 -2.4582 -2.7486  0.1066
  965MOL0     H30240  13.057  -0.967   6.147 -4.3638 -3.0619 -0.8642
  965MOL0     H30241  13.176  -1.047   5.988  3.1143 -2.0427 -1.0851
  965MOL0     H30242  13.020  -1.138   5.994  0.4682  1.9510  1.0026
  965MOL0     H30243  13.171  -1.270   5.869  2.9264  1.3598  0.0540
  965MOL0     H30244  13.043  -1.203   5.755  1.7418  1.3279 -1.9769
  965MOL0     H30245  13.335  -1.175   5.735 -0.1747 -1.9365  1.0863
  965MOL0     H30246  13.254  -1.021   5.733 -1.7317 -0.0432  2.0081
  965MOL0     H30247  13.303  -1.173   5.523 -1.0771  1.0447 -1.9204
  965MOL0     H30248  13.158  -1.266   5.568 -3.3950  1.5727  0.9851
  965MOL0     H30249  13.011  -1.094   5.566  0.8884  0.3102  1.7816
  965MOL0     H30250  13.078  -1.109   5.401  1.2471  1.4264 -0.3491
  965MOL0     H30251  13.173  -0.891   5.569  0.6113 -1.0883  0.1803
  965MOL0     H30252  13.212  -0.908   5.400 -0.0930  1.6756  0.9101
  965MOL0     H30253  12.946  -0.856   5.501  1.4954 -1.2615  1.3833
  965MOL0     H30254  12.969  -0.915   5.346  2.3074 -2.0562  0.6340
  965MOL0     H30255  13.134  -0.709   5.304 -0.7818  4.1242  0.0037
  965MOL0     H30256  13.111  -0.656   5.466  0.5591 -0.1522  0.1905
  965MOL0     H30257  12.908  -0.738   5.820 -2.2694 -0.5998  0.6014
  965MOL0     H30258  12.853  -0.557   5.970 -1.8235  0.2186  2.1694
  965MOL0     H30259  12.795  -0.395   6.362 -1.4955  0.7761  1.6604
  965MOL0     H30260  12.723  -0.229   6.529 -1.6511 -0.1362 -4.0386
  965MOL0     H30261  11.625   0.943   7.188  0.9529 -1.9301 -0.0805
  965MOL0     H30262  11.431   1.119   7.240  0.5238 -1.0667  1.2625
  965MOL0     H30263  11.118   1.339   7.339 -0.2716  1.6347  1.2357
  965MOL0     H30264  10.957   1.498   7.414  2.8835 -0.7211  0.7733
  965MOL0     H30265  10.651   1.626   7.564  0.2048  0.8402 -0.5885
  965MOL0     H30266  10.821   1.633   7.517 -0.7610  1.2702  2.4983
  965MOL0     H30267  10.557   1.613   7.365  0.1848  1.9297 -0.7793
  965MOL0     H30268  10.687   1.558   7.275 -0.5237  1.0768 -1.9884
  965MOL0     H30269  10.801   1.803   7.332 -0.3145  1.1800  0.3963
  965MOL0     H30270  10.639   1.848   7.373  0.7240  0.8336 -0.4870
  965MOL0     H30271  10.577   1.772   7.159  0.3961 -0.1175  0.0612
  965MOL0     H30272  10.741   1.733   7.109 -1.8573  0.1411 -2.7865
  965MOL0     H30273  10.701   2.153   7.076 -3.1685 -1.0482  0.2299
  965MOL0     H30274  10.676   1.189   7.528 -2.6461  1.8501 -2.2783
  965MOL0     H30275  10.833   1.029   7.470  0.8361 -1.9642 -0.8799
  966MOL0     O30276   8.175   5.578   7.609  0.9314  0.3155 -1.1252
  966MOL0     C30277   8.094   5.656   7.558 -0.1137 -0.0906 -0.9525
  966MOL0     O30278   7.985   5.706   7.624  0.6165 -0.0266  0.7907
  966MOL0     C30279   7.978   5.692   7.760  1.1243  0.8469 -0.2103
  966MOL0     C30280   7.959   5.815   7.836  0.1114  0.4185  0.0703
  966MOL0     C30281   7.988   5.816   7.972  0.0885  0.5905  0.8824
  966MOL0     C30282   8.014   5.705   8.051  0.1321  0.6288 -0.0333
  966MOL0     O30283   8.025   5.708   8.187  0.5071  0.2695  0.3716
  966MOL0     C30284   8.159   5.710   8.233  0.0908 -1.5381 -0.3006
  966MOL0     C30285   8.148   5.740   8.384  0.0951 -0.2858 -0.0969
  966MOL0     C30286   8.068   5.867   8.431 -0.5801  0.1019  0.5627
  966MOL0     C30287   8.065   5.877   8.589 -0.3908 -0.4886 -0.3519
  966MOL0     C30288   8.002   5.996   8.645  0.2830 -1.1941  0.2104
  966MOL0     C30289   8.074   6.122   8.594 -0.0139  0.1266  0.3694
  966MOL0     C30290   8.032   6.250   8.667  0.6279  0.2222 -0.1469
  966MOL0     C30291   8.143   6.319   8.752  0.4941 -0.6409 -0.4412
  966MOL0     N30292   8.095   6.434   8.837  0.4809  0.0624 -0.1547
  966MOL0     C30293   8.023   6.438   8.951 -0.7706  0.4070 -0.0793
  966MOL0     C30294   7.980   6.564   8.968 -0.5280  0.1213 -0.2370
  966MOL0     C30295   7.888   6.622   9.076  0.8118 -1.0148 -0.4517
  966MOL0     C30296   7.785   6.519   9.111 -0.8789 -0.1893  0.2122
  966MOL0     C30297   7.657   6.513   9.015  0.3346  1.4574 -0.5077
  966MOL0     C30298   7.656   6.374   8.945  0.6424 -0.0800  0.1060
  966MOL0     O30299   7.612   6.288   9.042  0.2054 -0.0257  0.0649
  966MOL0     C30300   7.662   6.161   9.043 -0.1934 -0.1522  0.3852
  966MOL0     C30301   7.652   6.069   8.934  0.0058  0.8882  0.5258
  966MOL0     C30302   7.706   5.938   8.945  0.0359  1.5370  0.7106
  966MOL0     C30303   7.676   5.840   8.834 -0.7125  0.5803 -0.5566
  966MOL0     C30304   7.777   5.907   9.066 -1.3193  0.5442 -0.4697
  966MOL0     C30305   7.848   5.782   9.089  0.7213  1.6866 -0.3971
  966MOL0     O30306   7.843   5.736   9.219  0.2440  0.0673 -1.1070
  966MOL0     C30307   7.921   5.631   9.272  0.0250 -0.5579 -0.0864
  966MOL0     C30308   8.021   5.676   9.356  0.6354  0.0421 -0.4916
  966MOL0     C30309   8.084   5.574   9.434 -0.1706 -0.7173  0.3106
  966MOL0     C30310   8.066   5.445   9.420  0.6027 -0.0291 -0.1887
  966MOL0     O30311   8.133   5.350   9.493 -1.0301 -0.9093 -0.5861
  966MOL0     C30312   8.225   5.275   9.409 -0.3196 -0.5731  0.2151
  966MOL0     C30313   8.177   5.134   9.384  0.1707 -0.3973  0.3894
  966MOL0     C30314   8.288   5.044   9.337  0.0237  0.6581 -0.0815
  966MOL0     C30315   8.235   4.930   9.264  0.2714 -0.5050  0.4617
  966MOL0     C30316   8.226   4.954   9.111 -0.6381 -0.3491  0.1942
  966MOL0     C30317   8.108   4.870   9.061  0.2850  0.7229 -0.4484
  966MOL0     C30318   8.095   4.874   8.912  0.4349 -0.3674  0.7200
  966MOL0     C30319   7.985   4.774   8.851  0.3835  0.4112  0.0961
  966MOL0    Cl30320   7.954   4.838   8.692  0.3954  0.0867 -0.0090
  966MOL0     C30321   7.966   5.403   9.328  0.3385  0.8334  0.8516
  966MOL0     C30322   7.886   5.499   9.259 -0.0196  0.5366 -0.2618
  966MOL0     O30323   7.918   5.739   8.999  0.7033 -0.3360  0.1642
  966MOL0     C30324   7.776   5.995   9.174 -0.5443 -0.9596  1.1484
  966MOL0     C30325   7.713   6.125   9.169  0.1897  0.4394 -0.2460
  966MOL0     N30326   8.036   6.639   8.859 -0.4779 -0.2153 -0.0337
  966MOL0     N30327   8.104   6.560   8.785  0.2682 -0.2243  0.4374
  966MOL0     C30328   8.020   5.587   7.981  1.6352  0.7273 -0.5052
  966MOL0     C30329   8.008   5.582   7.837  0.3825  0.1273 -0.4156
  966MOL0     C30330   8.105   5.668   7.416  0.1888 -0.1707 -0.3474
  966MOL0     C30331   8.009   5.738   7.340  0.9457  0.1531  0.0555
  966MOL0     C30332   8.020   5.749   7.196  0.2868  0.3234 -0.1310
  966MOL0     C30333   8.135   5.708   7.133 -0.5453 -1.0184  0.5731
  966MOL0     O30334   8.158   5.733   7.005  0.4603  0.2655 -1.0181
  966MOL0     C30335   8.185   5.625   6.921 -0.0672 -0.2362 -0.1036
  966MOL0     C30336   8.097   5.624   6.793  0.8423  0.3295  0.0860
  966MOL0     C30337   7.956   5.590   6.845 -0.0683 -0.4061 -0.0104
  966MOL0     C30338   7.860   5.613   6.731 -0.2947  0.0278  0.9862
  966MOL0     C30339   7.719   5.635   6.784 -0.8028  0.7063  0.8360
  966MOL0     C30340   7.622   5.692   6.825  0.0108 -0.0006  0.7972
  966MOL0     C30341   8.235   5.645   7.208 -0.0356  0.5893 -0.7683
  966MOL0     C30342   8.222   5.625   7.348 -0.6366  0.1716  0.2445
  966MOL0     H30343   7.931   5.902   7.777 -7.5920 -1.0283  0.5454
  966MOL0     H30344   7.974   5.910   8.024 -0.1621  0.9175  0.2428
  966MOL0     H30345   8.205   5.613   8.215  0.5233 -0.9761 -2.4838
  966MOL0     H30346   8.224   5.777   8.177 -1.1425 -1.9416 -2.2873
  966MOL0     H30347   8.110   5.654   8.439  1.1964  1.3636  3.4962
  966MOL0     H30348   8.255   5.748   8.405  1.0246 -3.4445 -2.7464
  966MOL0     H30349   8.115   5.958   8.391  1.8984 -0.5002  1.8693
  966MOL0     H30350   7.963   5.858   8.401 -0.0572 -1.5765 -0.9650
  966MOL0     H30351   8.029   5.782   8.630 -2.5485  1.1361  1.8120
  966MOL0     H30352   8.169   5.884   8.622 -0.7652  1.0607  0.6356
  966MOL0     H30353   7.897   6.012   8.621  0.3302 -2.5922 -1.0804
  966MOL0     H30354   8.029   6.001   8.751 -0.2364  1.1197  0.2837
  966MOL0     H30355   8.182   6.103   8.598 -0.4041 -2.2835  0.6974
  966MOL0     H30356   8.046   6.141   8.490 -2.4729  2.0766  1.2786
  966MOL0     H30357   7.989   6.326   8.602  2.3249  2.4173  1.1669
  966MOL0     H30358   7.947   6.216   8.727 -1.1198  0.4945 -2.3175
  966MOL0     H30359   8.236   6.351   8.704  1.0718  0.7531  1.5000
  966MOL0     H30360   8.177   6.253   8.832 -0.6344 -0.1909  0.4392
  966MOL0     H30361   8.001   6.356   9.019 -0.4179  1.2086  1.0299
  966MOL0     H30362   7.941   6.647   9.168 -1.7749  0.1344  0.8176
  966MOL0     H30363   7.826   6.711   9.059 -0.3697 -1.3398  1.8591
  966MOL0     H30364   7.751   6.537   9.214  1.0067 -1.4954  1.1302
  966MOL0     H30365   7.835   6.422   9.116 -0.8788 -0.2662  6.3050
  966MOL0     H30366   7.666   6.588   8.936  3.1653  2.3808  0.5646
  966MOL0     H30367   7.564   6.523   9.071  0.8787 -0.4014  0.8820
  966MOL0     H30368   7.757   6.351   8.907  1.0699  2.9362 -0.8677
  966MOL0     H30369   7.581   6.381   8.866  0.1986 -0.3222  0.5070
  966MOL0     H30370   7.605   6.107   8.844  1.0660  0.3823 -0.2761
  966MOL0     H30371   7.728   5.853   8.738 -0.8478 -1.3998 -0.9507
  966MOL0     H30372   7.698   5.739   8.870  0.2623  0.7307 -0.6954
  966MOL0     H30373   7.569   5.848   8.815 -0.9745  1.0491  1.0676
  966MOL0     H30374   8.049   5.777   9.383  0.9207 -0.1039 -0.2378
  966MOL0     H30375   8.159   5.604   9.506 -0.4126 -1.6323  0.9621
  966MOL0     H30376   8.231   5.326   9.312 -3.6583  0.3122  0.3452
  966MOL0     H30377   8.319   5.263   9.463 -1.6091 -0.0118  2.7517
  966MOL0     H30378   8.134   5.121   9.483 -0.8930  0.5437  0.0728
  966MOL0     H30379   8.097   5.139   9.309  0.2606  1.9536  0.3575
  966MOL0     H30380   8.316   5.005   9.436 -1.4593  0.7611  0.4021
  966MOL0     H30381   8.365   5.107   9.292  0.4531  2.3480  2.7503
  966MOL0     H30382   8.290   4.836   9.276  2.1704  0.4213 -0.5327
  966MOL0     H30383   8.130   4.920   9.293  0.0474  0.7304  0.1406
  966MOL0     H30384   8.324   4.934   9.066 -1.3541 -2.0805 -0.6729
  966MOL0     H30385   8.199   5.059   9.096 -0.6045  0.1117  2.8664
  966MOL0     H30386   8.114   4.765   9.091 -3.6320 -0.5581 -3.3397
  966MOL0     H30387   8.022   4.913   9.113  2.0976  1.0021  2.5904
  966MOL0     H30388   8.197   4.850   8.881  1.9046  1.6309  3.5527
  966MOL0     H30389   8.072   4.977   8.882 -0.6742 -0.0249  2.5822
  966MOL0     H30390   7.895   4.774   8.913  0.3735 -0.9607  0.1139
  966MOL0     H30391   8.012   4.668   8.847 -0.7523  0.0677  0.9578
  966MOL0     H30392   7.943   5.298   9.318  1.7407  0.6640 -1.5689
  966MOL0     H30393   7.806   5.466   9.193 -1.3037  0.9732  1.0352
  966MOL0     H30394   7.825   5.966   9.267  1.5874  0.8776  0.6996
  966MOL0     H30395   7.725   6.196   9.250 -1.0503  1.2288 -0.7250
  966MOL0     H30396   8.058   5.499   8.033 -0.8103  0.4836  1.0523
  966MOL0     H30397   8.043   5.492   7.788  2.2984  1.1830 -1.0806
  966MOL0     H30398   7.926   5.775   7.398  1.0346 -1.7553  1.4772
  966MOL0     H30399   7.940   5.804   7.148 -0.2856 -0.5100 -0.1561
  966MOL0     H30400   8.292   5.611   6.906 -0.3080  0.4125 -2.9458
  966MOL0     H30401   8.164   5.530   6.972 -2.0464  0.5069  0.5629
  966MOL0     H30402   8.138   5.544   6.730 -2.2585  0.0019 -1.7437
  966MOL0     H30403   8.112   5.724   6.751  0.3117  1.0089  1.4435
  966MOL0     H30404   7.936   5.668   6.919  0.1099  0.0766 -0.4625
  966MOL0     H30405   7.948   5.490   6.889 -0.0094  0.5615  2.3429
  966MOL0     H30406   7.864   5.517   6.678  1.9305  0.3460  0.4823
  966MOL0     H30407   7.901   5.699   6.678  0.1769  1.7526  3.9522
  966MOL0     H30408   7.526   5.730   6.855 -0.6327 -2.0844  1.5290
  966MOL0     H30409   8.321   5.600   7.160 -3.5954 -1.6255 -5.9573
  966MOL0     H30410   8.299   5.569   7.400 -0.0478  1.2786  0.6128
  967MOL0     O30411   9.594   4.078   3.672 -0.2725 -0.0585 -0.4388
  967MOL0     C30412   9.486   4.121   3.704  1.0688  0.3557  0.0887
  967MOL0     O30413   9.457   4.179   3.828 -0.1179 -0.4465 -0.0200
  967MOL0     C30414   9.545   4.190   3.932 -0.8933 -0.2323  0.3442
  967MOL0     C30415   9.539   4.292   4.020 -0.8090  0.1734  0.8142
  967MOL0     C30416   9.644   4.312   4.117 -0.3207 -0.6866  0.3105
  967MOL0     C30417   9.748   4.231   4.126  1.2549 -0.0846 -0.7019
  967MOL0     O30418   9.862   4.245   4.200 -0.3780 -1.0228 -0.3949
  967MOL0     C30419   9.912   4.373   4.236 -0.5519 -0.1991 -0.7587
  967MOL0     C30420  10.063   4.368   4.235 -0.7874 -0.4602  0.6962
  967MOL0     C30421  10.128   4.447   4.346 -0.6347  0.0149  0.4678
  967MOL0     C30422  10.108   4.388   4.485 -0.1472  0.1182 -0.0293
  967MOL0     C30423  10.219   4.295   4.531 -0.1011  0.4519  0.6190
  967MOL0     C30424  10.169   4.145   4.517 -0.8026 -1.4060  0.5782
  967MOL0     C30425  10.286   4.045   4.530  1.2008 -0.4496  0.5020
  967MOL0     C30426  10.224   3.904   4.496 -0.8693  0.1731  0.0115
  967MOL0     N30427  10.148   3.847   4.601 -0.2048 -0.6119 -0.1245
  967MOL0     C30428  10.196   3.787   4.715  0.3014  0.1968  0.5738
  967MOL0     C30429  10.081   3.736   4.770  0.1054  0.3228  0.6700
  967MOL0     C30430  10.068   3.685   4.916  0.1994  0.3357 -0.1781
  967MOL0     C30431   9.932   3.646   4.958  0.2912 -0.0848  0.2251
  967MOL0     C30432   9.944   3.606   5.113  0.2133 -0.2334 -0.6162
  967MOL0     C30433   9.801   3.608   5.181 -0.2925  0.2513  0.5808
  967MOL0     O30434   9.781   3.556   5.310 -0.5520  0.6962  0.8383
  967MOL0     C30435   9.824   3.638   5.403  0.6119  0.9095 -0.0461
  967MOL0     C30436   9.919   3.602   5.496 -0.5127 -0.2796  1.1625
  967MOL0     C30437   9.981   3.689   5.588  0.1934  0.2776  0.0529
  967MOL0     C30438  10.101   3.625   5.667  0.6166 -0.4133  0.5989
  967MOL0     C30439   9.926   3.824   5.599 -0.0649 -0.5328  1.5062
  967MOL0     C30440   9.965   3.927   5.692  0.3712 -0.0951 -0.5755
  967MOL0     O30441   9.920   4.054   5.676  0.2311  0.3621 -0.5192
  967MOL0     C30442  10.008   4.146   5.719 -0.1536  0.9406  0.7061
  967MOL0     C30443  10.089   4.194   5.626  0.4559  0.5269  0.7038
  967MOL0     C30444  10.165   4.306   5.657  0.9080  0.0436  0.2912
  967MOL0     C30445  10.135   4.383   5.769  0.1365 -0.7682 -0.2407
  967MOL0     O30446  10.169   4.514   5.785 -0.1042 -0.2411 -0.1291
  967MOL0     C30447  10.067   4.609   5.809  0.1715 -0.0350 -0.0396
  967MOL0     C30448  10.028   4.676   5.684  0.0183 -0.6411  0.0998
  967MOL0     C30449  10.148   4.750   5.605  0.2573 -0.9178 -0.8460
  967MOL0     C30450  10.215   4.862   5.695  0.0309 -0.3150  0.3227
  967MOL0     C30451  10.298   4.947   5.604 -0.2110  0.6407  0.1226
  967MOL0     C30452  10.370   5.059   5.677 -0.0963  0.5466 -0.3181
  967MOL0     C30453  10.272   5.154   5.734  1.0826  0.3670 -0.0991
  967MOL0     C30454  10.336   5.292   5.752  0.0756 -0.0664  0.3466
  967MOL0    Cl30455  10.465   5.266   5.880  0.1043  0.2114  0.4241
  967MOL0     C30456  10.060   4.318   5.868  0.3913 -0.3858  0.7349
  967MOL0     C30457   9.995   4.199   5.842  0.4652 -0.4798 -0.2163
  967MOL0     O30458  10.043   3.891   5.779 -0.3633  0.2773  0.8558
  967MOL0     C30459   9.823   3.858   5.513  1.9166  0.3165 -0.0577
  967MOL0     C30460   9.779   3.776   5.407  0.2636  0.3801  0.4906
  967MOL0     N30461   9.972   3.751   4.683 -0.4266 -0.1794 -0.0619
  967MOL0     N30462  10.013   3.825   4.589 -1.3056  1.1563 -0.3196
  967MOL0     C30463   9.733   4.112   4.061 -0.7901  0.0882  0.8264
  967MOL0     C30464   9.639   4.091   3.964 -1.0972 -0.4693 -0.9891
  967MOL0     C30465   9.375   4.125   3.604  0.5099  0.1884 -0.2256
  967MOL0     C30466   9.242   4.148   3.633  0.5857  0.1073 -0.3739
  967MOL0     C30467   9.143   4.132   3.545 -0.7121 -0.2530  0.1985
  967MOL0     C30468   9.174   4.095   3.401  0.6940 -0.1992 -0.4050
  967MOL0     O30469   9.085   4.088   3.301 -0.6294 -0.6644  0.7305
  967MOL0     C30470   8.949   4.066   3.336 -0.0105 -1.0740 -0.0224
  967MOL0     C30471   8.872   4.019   3.217 -0.2801  0.0647  0.0798
  967MOL0     C30472   8.748   3.942   3.272  0.3720 -0.4638  0.4963
  967MOL0     C30473   8.643   3.911   3.167  0.3581  0.0567  0.8067
  967MOL0     C30474   8.504   3.892   3.204  0.6242 -0.2939  0.4429
  967MOL0     C30475   8.380   3.895   3.216 -0.3086  0.1779 -0.1331
  967MOL0     C30476   9.304   4.059   3.366 -0.3574 -0.8806 -0.7818
  967MOL0     C30477   9.405   4.087   3.463 -0.1757 -0.0608 -0.4667
  967MOL0     H30478   9.471   4.377   4.009  2.2340  2.5494 -1.5627
  967MOL0     H30479   9.623   4.401   4.175  1.9326 -1.1234  1.8887
  967MOL0     H30480   9.878   4.454   4.171 -1.9300 -1.3952 -1.5742
  967MOL0     H30481   9.874   4.396   4.337 -2.7192  5.3779 -2.4470
  967MOL0     H30482  10.099   4.265   4.233  0.9225  0.0790  1.6604
  967MOL0     H30483  10.108   4.408   4.143  0.9159 -1.3590  1.1005
  967MOL0     H30484  10.235   4.465   4.338 -0.0298 -1.9792  2.8603
  967MOL0     H30485  10.070   4.539   4.345 -2.2524 -0.9604 -0.2214
  967MOL0     H30486  10.088   4.469   4.555 -1.7257  0.1312 -0.4498
  967MOL0     H30487  10.024   4.318   4.474  2.7540 -3.3759 -2.1232
  967MOL0     H30488  10.309   4.306   4.470  1.6017 -0.0335  2.8848
  967MOL0     H30489  10.246   4.329   4.631 -1.7349  4.9827 -0.2473
  967MOL0     H30490  10.083   4.120   4.580 -1.3486 -0.5608  0.1764
  967MOL0     H30491  10.140   4.131   4.413  1.9222 -1.0881 -0.2962
  967MOL0     H30492  10.362   4.081   4.460 -2.9539  0.6100 -4.0114
  967MOL0     H30493  10.320   4.052   4.634 -3.0621 -0.1415  2.0709
  967MOL0     H30494  10.310   3.842   4.467 -0.6624 -0.2592  1.4727
  967MOL0     H30495  10.166   3.907   4.403 -1.0146 -0.7235  0.0630
  967MOL0     H30496  10.296   3.809   4.751 -0.0303  1.6061  0.6793
  967MOL0     H30497  10.130   3.595   4.919 -0.1800 -0.0614 -2.2440
  967MOL0     H30498  10.112   3.767   4.972 -3.2009  2.3342 -0.1300
  967MOL0     H30499   9.880   3.574   4.895 -2.8816  1.4391  0.8703
  967MOL0     H30500   9.868   3.735   4.952 -1.7535 -1.4914  0.1340
  967MOL0     H30501  10.003   3.667   5.181 -3.4690  2.0385  0.8658
  967MOL0     H30502   9.981   3.503   5.119 -0.3395 -0.3436  3.2302
  967MOL0     H30503   9.746   3.539   5.118  0.5768 -0.3896  0.4965
  967MOL0     H30504   9.759   3.708   5.172  2.6332  1.5143 -0.2117
  967MOL0     H30505   9.940   3.496   5.505 -2.1451 -0.6837  0.6243
  967MOL0     H30506  10.185   3.686   5.631  1.8478 -3.0903 -1.3636
  967MOL0     H30507  10.092   3.634   5.776 -1.1738  0.1634  0.4369
  967MOL0     H30508  10.105   3.518   5.647 -1.3419 -1.2507  3.9624
  967MOL0     H30509  10.092   4.157   5.524  1.4547  0.9787  0.5560
  967MOL0     H30510  10.211   4.353   5.571  0.5592 -0.9560 -0.4593
  967MOL0     H30511   9.974   4.563   5.845 -0.5760  1.6755  0.3246
  967MOL0     H30512  10.110   4.685   5.875 -1.7140 -0.2846  1.5669
  967MOL0     H30513   9.959   4.618   5.623 -0.3938  0.5906 -0.6370
  967MOL0     H30514   9.976   4.760   5.732  2.3319  1.5156 -0.9440
  967MOL0     H30515  10.119   4.814   5.521  3.8133  1.2550 -0.6284
  967MOL0     H30516  10.220   4.675   5.573  0.0038 -3.8135  4.2469
  967MOL0     H30517  10.139   4.912   5.755 -0.1458 -1.5344  1.1592
  967MOL0     H30518  10.283   4.810   5.762  2.7135  2.1338 -0.2932
  967MOL0     H30519  10.244   4.992   5.521 -2.2357  2.1061  2.1256
  967MOL0     H30520  10.361   4.880   5.544 -3.8830  0.4426 -4.0249
  967MOL0     H30521  10.410   5.014   5.768 -0.7801  0.9159  0.1757
  967MOL0     H30522  10.448   5.103   5.614  0.5638 -1.0122 -0.6203
  967MOL0     H30523  10.238   5.117   5.831  0.6424  2.1836  0.4865
  967MOL0     H30524  10.189   5.153   5.662  1.0351 -1.4959 -0.0482
  967MOL0     H30525  10.271   5.377   5.775  2.0715  1.1895  1.6768
  967MOL0     H30526  10.374   5.316   5.652 -2.9515  0.0642 -0.8952
  967MOL0     H30527  10.042   4.368   5.963  0.7305  2.8420 -0.7686
  967MOL0     H30528   9.920   4.161   5.911 -0.4341 -2.7130 -2.2708
  967MOL0     H30529   9.757   3.944   5.517 -4.6665 -3.6038 -4.5253
  967MOL0     H30530   9.694   3.809   5.347  0.7198  1.3943  0.3743
  967MOL0     H30531   9.814   4.043   4.079 -0.3227  0.1052 -0.9779
  967MOL0     H30532   9.654   4.007   3.898 -4.3415 -1.0108 -1.2348
  967MOL0     H30533   9.207   4.177   3.731  1.0047  1.7558 -0.6848
  967MOL0     H30534   9.041   4.156   3.573 -0.4024  1.6675 -0.2206
  967MOL0     H30535   8.965   3.979   3.401  3.5633 -0.8036 -0.3576
  967MOL0     H30536   8.890   4.138   3.394  1.4567 -0.0210  0.2282
  967MOL0     H30537   8.948   3.951   3.178  0.0041 -0.4028  1.3811
  967MOL0     H30538   8.849   4.105   3.154  1.2118  1.9508  1.9569
  967MOL0     H30539   8.695   3.996   3.351 -1.7405 -1.1527 -0.3678
  967MOL0     H30540   8.781   3.846   3.313  0.9345  0.4946  2.3999
  967MOL0     H30541   8.667   3.813   3.125 -1.5589  0.1043 -0.5468
  967MOL0     H30542   8.639   3.983   3.084 -0.6001 -0.5722  0.2890
  967MOL0     H30543   8.273   3.908   3.221 -1.0886 -4.1616 -1.1831
  967MOL0     H30544   9.319   4.007   3.272 -1.7200 -0.6570 -1.1389
  967MOL0     H30545   9.509   4.070   3.434  1.9361  3.3893  3.9824
  968MOL0     O30546  10.952   9.039   5.711 -0.1052  0.2548  0.7467
  968MOL0     C30547  10.993   8.936   5.769  0.4220 -0.0783  0.7319
  968MOL0     O30548  11.060   8.835   5.715 -0.0434  0.7667 -0.7955
  968MOL0     C30549  11.124   8.839   5.589  0.3524 -0.7404  0.0619
  968MOL0     C30550  11.165   8.962   5.537  0.2787  0.3789  0.1880
  968MOL0     C30551  11.236   8.949   5.414  0.5955  0.1653 -0.6852
  968MOL0     C30552  11.279   8.834   5.346  0.1958  0.1253 -0.1472
  968MOL0     O30553  11.357   8.854   5.236 -0.3647 -0.6120 -0.0190
  968MOL0     C30554  11.319   8.758   5.131 -0.1803 -0.2728  0.9163
  968MOL0     C30555  11.433   8.674   5.079  0.6271  0.3450  0.6742
  968MOL0     C30556  11.397   8.543   4.998  0.7496  0.2749  0.2924
  968MOL0     C30557  11.504   8.502   4.894 -0.6251  0.5237  0.2118
  968MOL0     C30558  11.459   8.384   4.804  0.7226 -0.8028  0.4279
  968MOL0     C30559  11.482   8.240   4.851 -0.0528 -0.3696  0.4836
  968MOL0     C30560  11.474   8.136   4.739 -0.2149  0.2956  0.1155
  968MOL0     C30561  11.334   8.112   4.679 -0.0684  0.5680 -0.1320
  968MOL0     N30562  11.326   7.968   4.648  1.0411  0.4063 -0.2181
  968MOL0     C30563  11.341   7.864   4.735 -0.6527 -0.5485  0.1245
  968MOL0     C30564  11.357   7.765   4.647 -0.1478  0.7183  0.0971
  968MOL0     C30565  11.405   7.626   4.667  0.0084  0.8547  0.1637
  968MOL0     C30566  11.526   7.641   4.755  0.1832  0.3709 -0.1788
  968MOL0     C30567  11.576   7.496   4.771  0.3518  0.3497 -0.6927
  968MOL0     C30568  11.683   7.490   4.869  0.2616  0.4350 -0.0669
  968MOL0     O30569  11.652   7.529   5.004  0.7975 -0.0661  0.3714
  968MOL0     C30570  11.571   7.439   5.061 -1.0710 -0.7966 -0.3800
  968MOL0     C30571  11.440   7.477   5.071  0.1687  0.3658  0.5961
  968MOL0     C30572  11.352   7.390   5.124  0.0159 -0.2425  0.4884
  968MOL0     C30573  11.204   7.424   5.099 -0.0707  0.3049  0.5012
  968MOL0     C30574  11.395   7.271   5.196 -0.4092 -0.0460 -0.4320
  968MOL0     C30575  11.304   7.178   5.269 -0.4277 -0.2133 -0.9947
  968MOL0     O30576  11.177   7.216   5.299 -0.8121 -0.1409 -0.2384
  968MOL0     C30577  11.081   7.154   5.374 -0.6514 -0.3411  1.0261
  968MOL0     C30578  11.108   7.047   5.461 -1.0292 -0.1881 -0.1659
  968MOL0     C30579  11.004   6.975   5.523  0.0598  0.2201  0.5185
  968MOL0     C30580  10.874   7.023   5.504 -0.1509  0.1607 -0.0870
  968MOL0     O30581  10.754   6.960   5.537 -0.4969  0.8592  0.3949
  968MOL0     C30582  10.741   6.821   5.524  0.2461  0.1135 -0.2988
  968MOL0     C30583  10.599   6.776   5.553  1.0480  0.6311 -0.4057
  968MOL0     C30584  10.490   6.821   5.442  1.0260  0.6243 -1.4861
  968MOL0     C30585  10.388   6.930   5.475  0.0541  0.1170 -0.0500
  968MOL0     C30586  10.269   6.965   5.375  0.1902  0.0435  0.0438
  968MOL0     C30587  10.190   6.839   5.324  0.5395  0.6180 -0.0971
  968MOL0     C30588  10.116   6.764   5.440  0.0805 -0.1776 -0.6509
  968MOL0     C30589  10.030   6.652   5.382  0.7883 -0.4157  0.6068
  968MOL0    Cl30590   9.912   6.697   5.256  0.3416  0.1817  0.2422
  968MOL0     C30591  10.849   7.139   5.429 -0.1126  0.0970  0.3099
  968MOL0     C30592  10.954   7.200   5.363 -0.4934 -0.9474 -1.3616
  968MOL0     O30593  11.356   7.064   5.293 -0.0955  0.5415  0.1894
  968MOL0     C30594  11.532   7.237   5.195 -0.1024  0.2743  0.1296
  968MOL0     C30595  11.623   7.322   5.125 -0.3006  0.5233 -0.4011
  968MOL0     N30596  11.356   7.800   4.517 -0.1626  0.2001  0.1836
  968MOL0     N30597  11.327   7.925   4.521 -0.2243  0.3629 -0.4621
  968MOL0     C30598  11.245   8.715   5.408  0.0657  0.9175 -0.2320
  968MOL0     C30599  11.165   8.719   5.533 -0.1514 -0.3846  0.4202
  968MOL0     C30600  10.941   8.898   5.906  0.4547 -0.4755  0.3962
  968MOL0     C30601  10.859   8.994   5.976 -0.0429 -0.7946 -0.2287
  968MOL0     C30602  10.844   8.966   6.114 -0.8140  0.3139 -0.2877
  968MOL0     C30603  10.877   8.845   6.188 -0.1324 -0.5820 -0.2062
  968MOL0     O30604  10.829   8.827   6.317 -0.3860  0.5863  0.0714
  968MOL0     C30605  10.860   8.699   6.374 -0.1364  0.5127  0.3770
  968MOL0     C30606  10.820   8.684   6.517 -0.4862  0.5602 -0.6902
  968MOL0     C30607  10.835   8.799   6.623  0.6693 -0.4321 -0.8050
  968MOL0     C30608  10.813   8.757   6.773 -0.1420 -0.8435 -0.3644
  968MOL0     C30609  10.871   8.620   6.810 -1.0839  0.3858 -0.0931
  968MOL0     C30610  10.918   8.511   6.845 -0.3934 -0.9851 -0.6421
  968MOL0     C30611  10.958   8.753   6.113 -0.6003 -0.5763  0.6390
  968MOL0     C30612  10.992   8.781   5.972  0.2139  0.4084  0.1294
  968MOL0     H30613  11.150   9.065   5.569 -2.0363 -0.4541  2.0669
  968MOL0     H30614  11.269   9.042   5.369  0.0901  1.0420  0.6887
  968MOL0     H30615  11.242   8.684   5.157  0.8177 -0.8970  2.1933
  968MOL0     H30616  11.278   8.811   5.045  0.1401 -2.4617 -0.6697
  968MOL0     H30617  11.496   8.744   5.022  1.2288  1.4016  2.5500
  968MOL0     H30618  11.487   8.647   5.170  3.0207  0.4282 -0.6408
  968MOL0     H30619  11.388   8.457   5.065 -1.1826 -1.1192 -1.6040
  968MOL0     H30620  11.302   8.555   4.945 -1.1913  1.1708  3.7110
  968MOL0     H30621  11.531   8.595   4.843 -0.3061  1.1937  1.5431
  968MOL0     H30622  11.591   8.478   4.956 -2.6818 -0.3055  2.9864
  968MOL0     H30623  11.353   8.398   4.781  0.4126 -0.0735  2.1783
  968MOL0     H30624  11.516   8.393   4.710 -0.5025  1.4022 -0.1685
  968MOL0     H30625  11.584   8.234   4.892 -1.9835 -3.3466  5.9376
  968MOL0     H30626  11.426   8.203   4.937 -2.9341 -0.6425 -1.3848
  968MOL0     H30627  11.530   8.172   4.652 -1.8319  1.6824 -0.4081
  968MOL0     H30628  11.525   8.045   4.772 -1.7596 -0.7989 -0.3958
  968MOL0     H30629  11.311   8.170   4.589 -3.0716  0.7884  0.6698
  968MOL0     H30630  11.263   8.139   4.757 -0.0083 -0.9710  0.4991
  968MOL0     H30631  11.369   7.859   4.839  1.9912  0.0215 -0.4681
  968MOL0     H30632  11.343   7.552   4.718  1.9926 -2.2605 -1.5920
  968MOL0     H30633  11.416   7.586   4.565  1.7759 -2.3108  1.4386
  968MOL0     H30634  11.501   7.688   4.851  0.5281  1.1748 -0.4694
  968MOL0     H30635  11.605   7.706   4.716 -0.3641  0.7834 -0.6244
  968MOL0     H30636  11.620   7.460   4.678 -0.2452 -6.4916  1.1715
  968MOL0     H30637  11.495   7.433   4.808  0.2175 -0.7816 -2.7399
  968MOL0     H30638  11.773   7.539   4.831 -0.4847 -0.1431 -2.8417
  968MOL0     H30639  11.712   7.385   4.878  1.2358  0.5708 -1.2674
  968MOL0     H30640  11.413   7.576   5.036  1.5825 -0.2322 -2.5620
  968MOL0     H30641  11.148   7.440   5.192 -1.2464  1.9347 -0.4332
  968MOL0     H30642  11.195   7.522   5.051 -0.1136 -0.5436 -1.3059
  968MOL0     H30643  11.151   7.349   5.040 -1.4004  0.1935  1.7689
  968MOL0     H30644  11.205   7.003   5.478 -0.0303  2.0580  0.4160
  968MOL0     H30645  11.009   6.884   5.582 -3.3291 -0.4319  0.0076
  968MOL0     H30646  10.753   6.796   5.418  0.7285  0.9201 -0.4425
  968MOL0     H30647  10.820   6.772   5.582  0.5614  0.8058 -0.1369
  968MOL0     H30648  10.590   6.668   5.559 -1.2854  0.8454  2.1776
  968MOL0     H30649  10.579   6.816   5.653  0.1371  0.9007 -0.6883
  968MOL0     H30650  10.445   6.723   5.422 -1.9908  1.2037  1.5189
  968MOL0     H30651  10.540   6.846   5.348  0.6699  2.8233 -1.1240
  968MOL0     H30652  10.347   6.917   5.575  1.4213  1.0738  0.6665
  968MOL0     H30653  10.448   7.021   5.484 -0.2372  0.3203 -0.1299
  968MOL0     H30654  10.326   7.000   5.288 -3.3814  3.2506 -1.2568
  968MOL0     H30655  10.201   7.042   5.411 -0.6735 -0.2657 -0.8744
  968MOL0     H30656  10.120   6.870   5.246  0.4141  0.1909 -0.1577
  968MOL0     H30657  10.266   6.771   5.286 -1.1618 -3.1189  2.4797
  968MOL0     H30658  10.051   6.834   5.493  1.3878  1.5826 -1.2853
  968MOL0     H30659  10.190   6.718   5.506 -2.0808 -1.7809  0.8058
  968MOL0     H30660   9.965   6.619   5.463  3.6527  0.2284  3.3594
  968MOL0     H30661  10.087   6.566   5.346  0.8286 -0.3053  0.4047
  968MOL0     H30662  10.753   7.185   5.411 -0.4023 -1.0324 -1.3422
  968MOL0     H30663  10.941   7.286   5.298  0.0966  0.4342  0.2736
  968MOL0     H30664  11.568   7.151   5.252  0.7419  1.1630  0.9670
  968MOL0     H30665  11.727   7.294   5.134 -0.9808 -2.2270 -0.2640
  968MOL0     H30666  11.279   8.622   5.363 -0.7675 -0.2265  1.3880
  968MOL0     H30667  11.136   8.631   5.590 -2.5803  1.1880  1.7818
  968MOL0     H30668  10.828   9.089   5.934 -1.2169  0.8292  3.7974
  968MOL0     H30669  10.793   9.047   6.165  2.3843  1.7592  0.9292
  968MOL0     H30670  10.810   8.620   6.317 -0.1969 -0.1690  1.3595
  968MOL0     H30671  10.968   8.682   6.368 -0.2559 -0.0647 -0.4376
  968MOL0     H30672  10.878   8.599   6.556  0.0050  0.6085 -1.3075
  968MOL0     H30673  10.713   8.658   6.515 -0.3716 -0.0680  0.4531
  968MOL0     H30674  10.766   8.879   6.597 -0.2873 -1.2867 -0.9711
  968MOL0     H30675  10.935   8.842   6.613  0.8605 -1.1300 -2.1702
  968MOL0     H30676  10.707   8.748   6.797  0.2380  0.0850  1.8642
  968MOL0     H30677  10.852   8.839   6.834 -1.1779 -1.9441  1.8899
  968MOL0     H30678  10.961   8.413   6.853  2.1600  0.1421  0.3349
  968MOL0     H30679  10.997   8.664   6.162  0.3974 -1.2322 -1.2360
  968MOL0     H30680  11.058   8.707   5.927  1.7486  1.0368  1.2534
  969MOL0     O30681   3.021   4.139  11.124 -0.6961 -0.4934  0.7008
  969MOL0     C30682   2.995   4.165  11.241 -0.2846  0.7672 -0.3761
  969MOL0     O30683   2.913   4.269  11.282 -0.5111 -0.2664  0.4755
  969MOL0     C30684   2.880   4.359  11.194 -0.0897  0.0172  0.5369
  969MOL0     C30685   2.944   4.491  11.177  0.8819 -0.6148 -0.5826
  969MOL0     C30686   2.887   4.587  11.092 -0.6366  0.3391 -0.7242
  969MOL0     C30687   2.768   4.561  11.027 -0.2052  0.1563  0.4580
  969MOL0     O30688   2.725   4.657  10.935  0.1682  0.5288 -0.0939
  969MOL0     C30689   2.590   4.670  10.904  0.0437 -0.5903  0.4692
  969MOL0     C30690   2.538   4.814  10.894 -0.0572  0.2650 -0.5340
  969MOL0     C30691   2.542   4.885  11.033  0.5181  0.1279 -0.2037
  969MOL0     C30692   2.511   5.034  11.029 -0.9148  0.0470  0.1246
  969MOL0     C30693   2.362   5.070  11.010 -0.0650 -0.5706 -0.8161
  969MOL0     C30694   2.351   5.209  10.965  0.1588  0.8491  0.8366
  969MOL0     C30695   2.213   5.256  10.991  0.1913  0.0366  0.5929
  969MOL0     C30696   2.100   5.165  10.941  0.0636  0.3853 -0.3005
  969MOL0     N30697   2.104   5.150  10.793 -0.1249  0.5165 -0.2099
  969MOL0     C30698   2.105   5.263  10.709 -0.5618 -0.1148  0.6341
  969MOL0     C30699   2.124   5.215  10.581 -0.5382  0.4843 -0.3666
  969MOL0     C30700   2.120   5.305  10.467 -0.3751 -0.1516 -0.0670
  969MOL0     C30701   2.128   5.240  10.328 -0.3645 -0.7544 -0.8746
  969MOL0     C30702   2.131   5.345  10.222  0.0013 -0.5357 -1.3540
  969MOL0     C30703   2.166   5.279  10.091  0.2430  0.1768  0.5590
  969MOL0     O30704   2.044   5.244  10.025 -0.1821 -0.9900 -0.1980
  969MOL0     C30705   2.054   5.181   9.899 -0.0660  0.0853 -0.3180
  969MOL0     C30706   1.943   5.113   9.854  0.9381  1.3605 -0.4915
  969MOL0     C30707   1.937   5.049   9.732 -0.0501 -0.2254  0.1825
  969MOL0     C30708   1.811   4.971   9.701  0.7370  0.2806 -0.2002
  969MOL0     C30709   2.045   5.056   9.646 -0.8581  0.1619 -0.6182
  969MOL0     C30710   2.052   4.995   9.511  1.0040 -0.1008  0.2847
  969MOL0     O30711   1.937   4.949   9.461  0.2998 -0.4096  0.6720
  969MOL0     C30712   1.951   4.932   9.326  0.5498 -0.4534 -0.0748
  969MOL0     C30713   1.865   5.002   9.252  0.7761 -0.9314  0.2759
  969MOL0     C30714   1.865   4.990   9.110  0.3734  0.2741 -0.0256
  969MOL0     C30715   1.947   4.906   9.035 -0.6754 -1.2426 -0.7331
  969MOL0     O30716   1.940   4.898   8.902  0.5901 -1.0155 -0.7017
  969MOL0     C30717   2.029   4.815   8.831 -0.6197 -0.2647 -0.9560
  969MOL0     C30718   2.011   4.845   8.687 -0.2204 -0.7825 -0.0949
  969MOL0     C30719   2.105   4.753   8.606  0.0058  0.2290  0.2108
  969MOL0     C30720   2.039   4.756   8.468  0.0728 -0.0543  0.3791
  969MOL0     C30721   2.135   4.677   8.385  0.2263 -0.2896  0.1715
  969MOL0     C30722   2.090   4.684   8.239 -0.7189  0.1052  0.6800
  969MOL0     C30723   2.100   4.811   8.157 -0.0895 -0.1658  0.0248
  969MOL0     C30724   2.193   4.799   8.033  0.2530 -0.1548  0.3415
  969MOL0    Cl30725   2.193   4.959   7.950 -0.6156  0.0245  0.3487
  969MOL0     C30726   2.030   4.820   9.122 -0.0477 -0.9879 -0.0664
  969MOL0     C30727   2.036   4.838   9.257  1.2396 -1.0142 -0.2574
  969MOL0     O30728   2.163   4.988   9.463 -0.4093 -0.0719 -0.2733
  969MOL0     C30729   2.169   5.111   9.698  0.3471  0.1821  0.2448
  969MOL0     C30730   2.171   5.171   9.817  0.1687 -0.2007 -0.1790
  969MOL0     N30731   2.151   5.078  10.596  0.0938 -0.1124  0.6441
  969MOL0     N30732   2.135   5.044  10.717  0.2408  0.1869 -0.5701
  969MOL0     C30733   2.705   4.431  11.046 -0.7208 -0.4310 -0.8141
  969MOL0     C30734   2.756   4.337  11.132 -1.0740  0.2131 -0.0505
  969MOL0     C30735   3.069   4.099  11.352  0.1180  0.0078 -0.3019
  969MOL0     C30736   3.035   4.111  11.484  1.2661  0.7849  0.0516
  969MOL0     C30737   3.105   4.034  11.587  0.0062  0.2562 -0.4251
  969MOL0     C30738   3.221   3.960  11.552  0.3909 -0.0997 -0.2622
  969MOL0     O30739   3.301   3.909  11.658 -0.2126 -0.1423 -0.3740
  969MOL0     C30740   3.406   3.818  11.635 -0.0988  0.4012  0.4010
  969MOL0     C30741   3.509   3.806  11.750  0.2907  0.2674 -0.5083
  969MOL0     C30742   3.590   3.934  11.771 -1.7454 -0.5775 -0.4241
  969MOL0     C30743   3.684   3.908  11.893  0.0306  0.1812  0.5439
  969MOL0     C30744   3.761   4.010  11.950 -0.2006 -0.6182  0.1589
  969MOL0     C30745   3.827   4.106  11.988  0.6060 -0.5973 -0.2988
  969MOL0     C30746   3.257   3.943  11.424  0.0357 -0.3822 -0.0837
  969MOL0     C30747   3.179   4.018  11.325  0.1988  0.1197  0.1841
  969MOL0     H30748   3.032   4.517  11.234  0.4614 -3.0402  1.3577
  969MOL0     H30749   2.946   4.674  11.067 -1.7074  1.3262  0.0741
  969MOL0     H30750   2.579   4.624  10.805  0.9312  1.4488 -0.6409
  969MOL0     H30751   2.526   4.627  10.981 -2.0487  0.4035 -0.6491
  969MOL0     H30752   2.610   4.876  10.839  0.4339 -0.2331 -0.4554
  969MOL0     H30753   2.434   4.813  10.859 -0.3268 -0.6704  0.2497
  969MOL0     H30754   2.476   4.839  11.106 -1.8181  1.0582 -1.6257
  969MOL0     H30755   2.646   4.879  11.069 -1.1026 -1.7112  5.0549
  969MOL0     H30756   2.545   5.079  11.123 -2.9087 -0.0254  0.9262
  969MOL0     H30757   2.581   5.070  10.952 -0.5547 -0.7749  0.0569
  969MOL0     H30758   2.314   4.999  10.943 -4.2258  1.1003  0.0919
  969MOL0     H30759   2.319   5.072  11.111  0.5420 -2.2551 -0.5026
  969MOL0     H30760   2.425   5.270  11.018  1.2430 -0.8359  1.3220
  969MOL0     H30761   2.374   5.204  10.858  0.4547  0.0051  0.9359
  969MOL0     H30762   2.207   5.277  11.099  1.2796  2.8266  0.2086
  969MOL0     H30763   2.205   5.351  10.937 -1.4351  1.1983  2.6921
  969MOL0     H30764   2.002   5.210  10.962 -1.0852 -1.6305 -1.0721
  969MOL0     H30765   2.103   5.075  11.003  0.3678  2.1456  2.3936
  969MOL0     H30766   2.097   5.368  10.739  0.8809  0.5228 -1.0930
  969MOL0     H30767   2.046   5.385  10.472 -0.0033  0.2078 -0.3067
  969MOL0     H30768   2.215   5.358  10.479 -0.6541 -0.0450  2.0782
  969MOL0     H30769   2.038   5.179  10.315 -2.5126  0.7786  4.2044
  969MOL0     H30770   2.220   5.182  10.318 -0.6421 -1.9788  2.5146
  969MOL0     H30771   2.212   5.417  10.235 -2.1052  1.5886  0.9688
  969MOL0     H30772   2.038   5.403  10.221 -0.8823 -1.7011  1.9101
  969MOL0     H30773   2.227   5.189  10.100 -0.4340 -0.2038  1.5227
  969MOL0     H30774   2.215   5.354  10.028  0.1202 -1.0244 -1.0214
  969MOL0     H30775   1.851   5.113   9.911 -2.1356 -1.1863 -4.8044
  969MOL0     H30776   1.752   5.010   9.618 -1.4251 -0.8722  0.7229
  969MOL0     H30777   1.839   4.876   9.653  0.0420  0.8420 -1.7899
  969MOL0     H30778   1.750   4.960   9.791 -0.6805 -1.3323 -1.2922
  969MOL0     H30779   1.804   5.080   9.296  1.1449 -0.0551 -0.7369
  969MOL0     H30780   1.787   5.040   9.053  0.0138 -0.9156 -0.6120
  969MOL0     H30781   2.133   4.837   8.855 -1.5353  4.5429 -0.4363
  969MOL0     H30782   2.023   4.707   8.850  0.2543 -1.0686 -4.5420
  969MOL0     H30783   1.903   4.835   8.671 -0.4357  1.6214 -0.5147
  969MOL0     H30784   2.037   4.948   8.663  1.5796 -0.8252  1.4171
  969MOL0     H30785   2.093   4.654   8.650 -1.3400  0.6712  0.9110
  969MOL0     H30786   2.209   4.784   8.615  0.5301 -1.8964  2.7083
  969MOL0     H30787   1.945   4.700   8.471 -0.1363  0.2519 -0.1645
  969MOL0     H30788   2.030   4.859   8.429  0.9233 -1.4754 -4.2568
  969MOL0     H30789   2.144   4.571   8.410  3.7296 -0.1815 -0.1295
  969MOL0     H30790   2.229   4.733   8.390  0.9291 -1.1862 -1.8745
  969MOL0     H30791   2.153   4.615   8.183 -0.3173 -1.1534  2.5682
  969MOL0     H30792   1.990   4.641   8.224 -0.4053 -0.3465 -0.1411
  969MOL0     H30793   2.141   4.894   8.214 -0.5576  2.6255 -3.3626
  969MOL0     H30794   1.998   4.842   8.130  1.2408  3.7398 -1.1339
  969MOL0     H30795   2.150   4.723   7.966 -2.8343  0.7712  1.1408
  969MOL0     H30796   2.298   4.781   8.060  0.7887  2.1209 -0.0762
  969MOL0     H30797   2.073   4.726   9.088 -3.5980 -2.5595 -0.6777
  969MOL0     H30798   2.101   4.774   9.316 -1.2371 -3.3657  0.1572
  969MOL0     H30799   2.258   5.109   9.637  0.6141 -2.0412  0.6348
  969MOL0     H30800   2.256   5.232   9.844  0.5909 -0.3611 -1.0915
  969MOL0     H30801   2.615   4.400  10.994 -0.7451  0.8351 -1.5723
  969MOL0     H30802   2.693   4.254  11.160 -2.4765  1.2848  0.1059
  969MOL0     H30803   2.939   4.162  11.494  1.3853  0.7317  1.6473
  969MOL0     H30804   3.076   4.044  11.691  3.1443  0.2782  0.5563
  969MOL0     H30805   3.371   3.722  11.595 -1.8756  0.9142  0.6317
  969MOL0     H30806   3.459   3.871  11.555 -2.5162  1.0441 -0.8883
  969MOL0     H30807   3.585   3.733  11.723 -1.1115 -0.7612 -1.8611
  969MOL0     H30808   3.465   3.775  11.845 -1.8859 -2.6652 -2.3201
  969MOL0     H30809   3.521   4.014  11.798  0.5163  1.6471 -0.8764
  969MOL0     H30810   3.657   3.956  11.687  0.0354 -2.1075  0.5238
  969MOL0     H30811   3.754   3.830  11.861 -0.0235  1.5771 -3.5834
  969MOL0     H30812   3.632   3.872  11.982  1.6990  1.0930  1.9422
  969MOL0     H30813   3.880   4.190  12.027 -2.9458  2.3233 -1.2909
  969MOL0     H30814   3.346   3.884  11.403 -0.0073 -0.7522  0.7171
  969MOL0     H30815   3.215   4.021  11.222  0.1641  0.4106  0.1798
  970MOL0     O30816   1.347   3.731   6.538  0.0384  0.1135  0.7974
  970MOL0     C30817   1.306   3.790   6.633 -0.1303  0.5845 -0.1346
  970MOL0     O30818   1.221   3.740   6.729  0.0707 -0.2954 -0.1888
  970MOL0     C30819   1.157   3.618   6.735  0.3384  0.5420  0.6980
  970MOL0     C30820   1.106   3.580   6.861  0.2016  0.0105  0.8393
  970MOL0     C30821   1.049   3.450   6.876 -0.8133 -0.4947 -0.4900
  970MOL0     C30822   1.036   3.368   6.767  0.6739 -0.3758  0.4038
  970MOL0     O30823   0.986   3.240   6.772 -0.4614 -0.0173  0.6565
  970MOL0     C30824   1.023   3.168   6.893  0.4465 -0.3238  0.8851
  970MOL0     C30825   0.948   3.036   6.891 -0.0329 -0.3310 -0.2741
  970MOL0     C30826   0.957   2.966   7.022  0.5274 -0.3160  0.0629
  970MOL0     C30827   0.905   2.825   7.017 -0.1230  0.0100  0.2168
  970MOL0     C30828   0.904   2.758   7.150 -0.5910  0.2420 -0.8255
  970MOL0     C30829   0.830   2.631   7.145  0.7550 -0.0836  0.3439
  970MOL0     C30830   0.813   2.542   7.271 -0.0588  0.0120  0.2544
  970MOL0     C30831   0.684   2.570   7.347 -0.0881 -0.0867 -0.4048
  970MOL0     N30832   0.697   2.522   7.489  0.7323  0.4721  0.5019
  970MOL0     C30833   0.719   2.392   7.537  0.3440 -0.8317  0.2016
  970MOL0     C30834   0.706   2.399   7.676  0.1244  0.1521 -0.1701
  970MOL0     C30835   0.721   2.278   7.771 -0.1608 -0.2237 -0.5770
  970MOL0     C30836   0.872   2.253   7.810 -0.2509 -0.0600  0.0109
  970MOL0     C30837   0.929   2.362   7.910  0.1481 -0.1437 -0.1528
  970MOL0     C30838   0.992   2.478   7.830 -0.3239  0.4638  0.6246
  970MOL0     O30839   1.094   2.436   7.741 -0.2944 -0.1314  0.6670
  970MOL0     C30840   1.221   2.421   7.788  0.0185  0.0360  0.5795
  970MOL0     C30841   1.309   2.364   7.696  1.1810 -0.9233  0.3987
  970MOL0     C30842   1.443   2.339   7.716  0.5729 -0.5867 -0.5588
  970MOL0     C30843   1.528   2.284   7.602  1.5043  0.5726  0.1026
  970MOL0     C30844   1.496   2.385   7.841 -0.6943  0.5495 -0.5369
  970MOL0     C30845   1.652   2.398   7.861 -0.0276  0.6959  0.7101
  970MOL0     O30846   1.736   2.420   7.752  0.4800 -0.7872  0.4794
  970MOL0     C30847   1.868   2.437   7.759  0.1012  0.2355 -0.3663
  970MOL0     C30848   1.928   2.445   7.632  0.3970  0.2604 -0.1285
  970MOL0     C30849   2.072   2.457   7.621  1.4746 -0.1194  0.1228
  970MOL0     C30850   2.154   2.452   7.731 -0.4572  0.1349 -0.4854
  970MOL0     O30851   2.294   2.451   7.730 -0.2312 -0.5906 -0.3713
  970MOL0     C30852   2.363   2.496   7.605  0.5110  0.2756 -0.2363
  970MOL0     C30853   2.499   2.560   7.637 -0.2416  1.0898 -0.3357
  970MOL0     C30854   2.497   2.708   7.654  0.5057 -0.5510 -1.2303
  970MOL0     C30855   2.633   2.762   7.672 -0.1709 -0.7708 -0.5968
  970MOL0     C30856   2.643   2.918   7.653  0.4221 -0.7305  0.0758
  970MOL0     C30857   2.785   2.978   7.694 -1.0438 -0.0628  0.2845
  970MOL0     C30858   2.885   2.964   7.583  0.2755 -0.1860 -0.1027
  970MOL0     C30859   2.880   3.086   7.497  0.3026 -0.2667  0.0115
  970MOL0    Cl30860   2.974   3.093   7.338  0.2167  0.4137 -0.0261
  970MOL0     C30861   2.091   2.447   7.860  0.2202 -0.0671  0.2324
  970MOL0     C30862   1.956   2.432   7.870 -0.4845 -0.1589  0.6559
  970MOL0     O30863   1.684   2.413   7.977 -0.6192 -0.1358  0.0876
  970MOL0     C30864   1.410   2.440   7.941 -0.3223  0.5366 -1.0711
  970MOL0     C30865   1.276   2.466   7.905  0.2276 -0.1201  0.5883
  970MOL0     N30866   0.652   2.531   7.703 -0.0771  0.7685 -0.2413
  970MOL0     N30867   0.655   2.598   7.595 -0.4509  0.9323 -0.2351
  970MOL0     C30868   1.077   3.419   6.642  0.0472 -0.1679 -0.2071
  970MOL0     C30869   1.140   3.537   6.628 -0.3122  0.9081 -0.2550
  970MOL0     C30870   1.347   3.935   6.642 -0.5109  0.0047 -0.6434
  970MOL0     C30871   1.276   4.019   6.729  0.1023 -0.8144 -0.3641
  970MOL0     C30872   1.306   4.153   6.737 -1.6847  0.3752 -0.4107
  970MOL0     C30873   1.412   4.211   6.659 -0.5300 -0.2582 -0.5527
  970MOL0     O30874   1.448   4.342   6.653  0.2054 -0.0124 -0.2451
  970MOL0     C30875   1.428   4.437   6.754 -1.2831 -0.7871 -0.0990
  970MOL0     C30876   1.347   4.545   6.703 -0.0061  1.0935  0.5808
  970MOL0     C30877   1.282   4.640   6.807  0.1413 -0.1425 -0.9949
  970MOL0     C30878   1.147   4.702   6.768 -0.5059 -0.2382  0.2027
  970MOL0     C30879   1.161   4.801   6.659 -0.1997 -0.3019 -0.7806
  970MOL0     C30880   1.193   4.875   6.572 -0.3178 -1.7073  0.1765
  970MOL0     C30881   1.477   4.130   6.570  0.0075  0.7955 -0.4929
  970MOL0     C30882   1.440   3.992   6.556 -0.0144  0.2806 -0.0433
  970MOL0     H30883   1.115   3.642   6.950  0.4210  0.7155  0.3365
  970MOL0     H30884   1.041   3.427   6.981 -0.0347  1.2068 -0.0203
  970MOL0     H30885   1.130   3.146   6.894  0.5364 -0.0020 -0.3032
  970MOL0     H30886   0.993   3.229   6.979 -1.3161 -1.0797  0.8494
  970MOL0     H30887   0.843   3.059   6.869  0.0480 -0.7853 -1.1991
  970MOL0     H30888   0.990   2.975   6.811 -0.0406 -1.5068  0.5788
  970MOL0     H30889   1.063   2.966   7.051  0.8944  1.5493 -1.1021
  970MOL0     H30890   0.907   3.028   7.097 -0.0647  2.2387 -2.2817
  970MOL0     H30891   0.804   2.834   6.975 -0.7512 -2.1409  1.1252
  970MOL0     H30892   0.977   2.771   6.955  5.6736  1.0748  5.0881
  970MOL0     H30893   1.005   2.736   7.185 -0.5575  2.6812  0.8452
  970MOL0     H30894   0.852   2.818   7.225 -1.4617 -0.7407 -0.6177
  970MOL0     H30895   0.733   2.653   7.100  1.5161  1.2484 -0.7421
  970MOL0     H30896   0.886   2.575   7.070 -0.3575  3.1839 -3.2656
  970MOL0     H30897   0.809   2.440   7.232 -1.0379  0.8407 -1.9679
  970MOL0     H30898   0.890   2.548   7.348 -0.6457  1.5695  0.7686
  970MOL0     H30899   0.608   2.506   7.302 -0.9109 -0.4588  1.4521
  970MOL0     H30900   0.638   2.670   7.346 -4.2737 -1.7190  2.3456
  970MOL0     H30901   0.744   2.309   7.471  0.6911  0.7551 -1.7654
  970MOL0     H30902   0.666   2.292   7.865 -0.3425 -1.1175 -0.5358
  970MOL0     H30903   0.691   2.190   7.713 -3.0025  1.8401 -2.4835
  970MOL0     H30904   0.936   2.238   7.723  2.2479 -2.5356  2.1012
  970MOL0     H30905   0.887   2.154   7.853  2.9118 -1.6786 -4.1809
  970MOL0     H30906   1.018   2.333   7.968  1.9697  4.1390 -0.4325
  970MOL0     H30907   0.853   2.394   7.981 -1.5009 -1.9916 -1.0027
  970MOL0     H30908   1.024   2.549   7.906  2.3400  0.8527 -0.7630
  970MOL0     H30909   0.916   2.532   7.773  0.3291  1.3754  0.5995
  970MOL0     H30910   1.281   2.327   7.597  3.2126 -4.1664  0.8599
  970MOL0     H30911   1.525   2.348   7.514  4.4468  1.1955  0.3681
  970MOL0     H30912   1.634   2.269   7.626  1.2384  0.4647  1.2490
  970MOL0     H30913   1.479   2.189   7.578  1.1276 -0.7647  5.1572
  970MOL0     H30914   1.871   2.448   7.540  1.2056  2.2627 -0.6068
  970MOL0     H30915   2.113   2.445   7.521  3.6209  1.2084  0.7606
  970MOL0     H30916   2.370   2.403   7.548 -1.5469  0.1565 -0.3806
  970MOL0     H30917   2.295   2.558   7.546 -1.3930 -1.6090 -0.1383
  970MOL0     H30918   2.539   2.517   7.729 -0.6333  0.0792 -0.6218
  970MOL0     H30919   2.561   2.529   7.553  1.0194 -1.1609  1.3115
  970MOL0     H30920   2.439   2.732   7.744  1.4471 -1.3198 -0.3942
  970MOL0     H30921   2.440   2.740   7.566 -2.0482 -1.9669 -0.2089
  970MOL0     H30922   2.666   2.733   7.772 -0.3363 -0.6036 -0.4952
  970MOL0     H30923   2.706   2.724   7.599 -0.0059 -0.6115 -0.5137
  970MOL0     H30924   2.570   2.959   7.723  1.9332  1.1124  0.6469
  970MOL0     H30925   2.610   2.953   7.555  1.8287 -0.9034 -0.4867
  970MOL0     H30926   2.776   3.083   7.721 -0.3072 -0.2906  1.5498
  970MOL0     H30927   2.835   2.932   7.781 -2.4320 -1.7126  0.2625
  970MOL0     H30928   2.871   2.886   7.507 -3.9591  1.9311 -1.7957
  970MOL0     H30929   2.980   2.949   7.634 -0.2103  0.1602  0.9198
  970MOL0     H30930   2.898   3.185   7.538 -0.5393  1.0112 -2.5029
  970MOL0     H30931   2.773   3.088   7.473 -0.0222 -0.9078  1.2851
  970MOL0     H30932   2.150   2.443   7.951  1.4406 -2.6221 -0.5664
  970MOL0     H30933   1.914   2.429   7.969  1.3997  0.8355  1.5423
  970MOL0     H30934   1.459   2.488   8.025  0.3381 -2.7128  0.5909
  970MOL0     H30935   1.220   2.526   7.975  1.7768  2.4830 -0.2892
  970MOL0     H30936   1.070   3.363   6.549 -1.9218  0.3362 -0.4183
  970MOL0     H30937   1.177   3.548   6.527 -2.3770  0.0774 -1.1548
  970MOL0     H30938   1.198   3.978   6.793  0.6599 -3.4522 -1.2446
  970MOL0     H30939   1.257   4.210   6.816 -1.2788 -0.7321  0.6773
  970MOL0     H30940   1.379   4.388   6.838  1.6870  0.0367  2.2980
  970MOL0     H30941   1.521   4.474   6.799 -3.1641  0.6818  2.9088
  970MOL0     H30942   1.260   4.496   6.658 -0.6235 -0.2475  3.0664
  970MOL0     H30943   1.388   4.609   6.625  0.7017  1.2798  1.1006
  970MOL0     H30944   1.354   4.719   6.829 -0.5078  0.2920 -0.3990
  970MOL0     H30945   1.264   4.576   6.894  1.7024  1.6186  0.7074
  970MOL0     H30946   1.107   4.759   6.853 -0.3619 -0.7176  0.5949
  970MOL0     H30947   1.078   4.620   6.750 -1.3970 -0.0627  2.4950
  970MOL0     H30948   1.220   4.954   6.505 -2.9929 -0.7619  0.1011
  970MOL0     H30949   1.571   4.164   6.526 -0.0173  0.0409 -1.1572
  970MOL0     H30950   1.516   3.942   6.495  0.7037 -2.1365  2.5807
  971MOL0     O30951   9.631  11.090   6.215 -0.7076 -1.0489 -0.3134
  971MOL0     C30952   9.521  11.030   6.202  0.2575 -0.4166 -0.0161
  971MOL0     O30953   9.430  11.001   6.302  0.3603 -0.5049 -0.0847
  971MOL0     C30954   9.439  11.017   6.446  0.0795 -0.4452  0.2495
  971MOL0     C30955   9.560  11.010   6.512  0.2803  0.5061 -0.4423
  971MOL0     C30956   9.564  11.021   6.648 -0.2578  0.4006  0.3115
  971MOL0     C30957   9.443  11.049   6.718 -0.0324 -0.4787  0.0214
  971MOL0     O30958   9.434  11.064   6.851  0.6578  0.6515 -0.7245
  971MOL0     C30959   9.490  10.960   6.927  0.1625  0.7027  0.4190
  971MOL0     C30960   9.605  10.994   7.029 -0.3282 -0.2949 -1.4049
  971MOL0     C30961   9.669  10.865   7.090  0.9590  0.1704  0.7025
  971MOL0     C30962   9.810  10.878   7.140 -0.5533  0.4271  0.9916
  971MOL0     C30963   9.855  10.755   7.206  0.0098 -1.4318  0.7311
  971MOL0     C30964   9.979  10.772   7.303 -0.1499 -0.0882  0.0901
  971MOL0     C30965  10.015  10.646   7.378 -0.2860  0.0731  0.2476
  971MOL0     C30966  10.129  10.675   7.470  0.2773 -0.1359 -0.2000
  971MOL0     N30967  10.131  10.578   7.580 -0.2997 -0.0713  0.4839
  971MOL0     C30968  10.035  10.563   7.680 -0.5244  0.2669 -0.1860
  971MOL0     C30969  10.085  10.465   7.770  0.6959 -0.1136  0.0217
  971MOL0     C30970  10.019  10.425   7.899 -0.7561 -0.3971  0.2989
  971MOL0     C30971  10.112  10.428   8.021 -0.5457 -0.2456  0.2557
  971MOL0     C30972  10.137  10.571   8.065 -0.3945  0.4468  0.3480
  971MOL0     C30973  10.201  10.587   8.202  0.7489 -0.9511  1.0300
  971MOL0     O30974  10.247  10.722   8.233  0.7955 -0.0524 -0.3221
  971MOL0     C30975  10.160  10.818   8.287  0.3969 -0.2259 -0.3890
  971MOL0     C30976  10.215  10.944   8.341 -0.1132  0.6555  0.6480
  971MOL0     C30977  10.126  11.041   8.404 -0.1073 -0.9650 -0.1432
  971MOL0     C30978  10.185  11.171   8.451  0.4771  0.4808  0.2247
  971MOL0     C30979   9.994  11.009   8.417 -0.4064 -0.5827 -0.8498
  971MOL0     C30980   9.892  11.114   8.468 -1.0923 -0.1477 -0.2249
  971MOL0     O30981   9.810  11.167   8.376  0.0928 -0.3440 -0.2359
  971MOL0     C30982   9.709  11.257   8.401 -0.4355 -0.1674  1.3704
  971MOL0     C30983   9.694  11.365   8.314 -0.3693  0.1020  0.2625
  971MOL0     C30984   9.593  11.460   8.331  0.4050  0.1971  0.7042
  971MOL0     C30985   9.507  11.448   8.435 -0.0324  0.5210 -0.0055
  971MOL0     O30986   9.410  11.550   8.444  0.1606  0.1810 -0.0891
  971MOL0     C30987   9.298  11.519   8.523  0.4412 -0.5667  0.2028
  971MOL0     C30988   9.170  11.594   8.480 -0.7145  0.9865  0.4248
  971MOL0     C30989   9.127  11.705   8.582 -0.0223  0.3302 -0.4275
  971MOL0     C30990   9.063  11.631   8.696  0.2019 -0.0440  0.3566
  971MOL0     C30991   9.030  11.735   8.808 -0.7847  0.5282  0.1457
  971MOL0     C30992   9.044  11.681   8.946  0.5839  0.6826  0.4081
  971MOL0     C30993   8.930  11.567   8.974 -0.4962 -0.2277  0.8593
  971MOL0     C30994   8.925  11.528   9.113 -0.9017  0.0064 -0.2136
  971MOL0    Cl30995   9.044  11.406   9.141 -0.6709 -0.2470  0.2000
  971MOL0     C30996   9.514  11.336   8.510  1.0840  0.4122 -0.3839
  971MOL0     C30997   9.613  11.241   8.496 -0.5378  0.1802 -0.4233
  971MOL0     O30998   9.885  11.132   8.586  0.4123  0.5464  0.0948
  971MOL0     C30999   9.947  10.885   8.374  1.3548  1.0425 -0.6421
  971MOL0     C31000  10.023  10.790   8.314 -0.1918 -0.8413 -0.5532
  971MOL0     N31001  10.208  10.433   7.723  0.5796 -0.4802  0.0873
  971MOL0     N31002  10.234  10.497   7.613 -0.0632  0.2170  0.3701
  971MOL0     C31003   9.319  11.045   6.662 -0.8896  0.6144  0.1846
  971MOL0     C31004   9.318  11.028   6.525 -0.2620 -0.5628  0.4640
  971MOL0     C31005   9.478  10.993   6.067  0.1600  0.7325 -0.1521
  971MOL0     C31006   9.358  10.924   6.046  0.3025  0.8661 -0.4718
  971MOL0     C31007   9.303  10.910   5.922 -0.0518  0.7707  0.3711
  971MOL0     C31008   9.368  10.969   5.809 -0.3612 -0.8195 -0.5857
  971MOL0     O31009   9.315  10.938   5.688  0.6403  0.9312 -0.1521
  971MOL0     C31010   9.359  10.988   5.563  1.0397 -0.3964  0.9679
  971MOL0     C31011   9.481  10.909   5.509  0.1621 -0.1262  0.1446
  971MOL0     C31012   9.448  10.772   5.460 -0.5105 -0.8536 -0.7410
  971MOL0     C31013   9.570  10.671   5.453 -0.6374  0.3031 -0.2328
  971MOL0     C31014   9.535  10.551   5.389 -0.0831 -0.1191 -0.0078
  971MOL0     C31015   9.504  10.451   5.337 -1.1356 -0.0745  0.4083
  971MOL0     C31016   9.484  11.043   5.830  0.5913 -0.2136 -0.6667
  971MOL0     C31017   9.537  11.055   5.953 -0.4715  0.3382  0.3625
  971MOL0     H31018   9.656  10.991   6.466  1.1356  0.3762  1.2955
  971MOL0     H31019   9.648  11.013   6.716  0.2735  1.3342 -0.2082
  971MOL0     H31020   9.397  10.933   6.979  0.8082  0.4537  1.4792
  971MOL0     H31021   9.517  10.865   6.879  0.5467  0.5502  0.9267
  971MOL0     H31022   9.687  11.045   6.978  0.9804  0.1627  1.0542
  971MOL0     H31023   9.576  11.059   7.111  1.0526  2.4078 -2.9081
  971MOL0     H31024   9.605  10.827   7.171 -1.0780 -4.3988 -2.5948
  971MOL0     H31025   9.653  10.790   7.012 -2.6451  1.2744  0.1838
  971MOL0     H31026   9.875  10.897   7.054  2.4122  0.3979  3.0773
  971MOL0     H31027   9.814  10.969   7.200 -0.1524 -0.4535  2.3463
  971MOL0     H31028   9.781  10.698   7.263 -1.4100 -1.9334 -1.4501
  971MOL0     H31029   9.883  10.682   7.129  1.9195  0.4911 -0.4994
  971MOL0     H31030  10.071  10.807   7.254  0.2978 -4.0619 -2.2937
  971MOL0     H31031   9.946  10.856   7.365 -1.8408  0.5433 -1.5368
  971MOL0     H31032   9.928  10.623   7.440 -0.0600  0.9556  0.9065
  971MOL0     H31033  10.045  10.559   7.319  2.3309 -0.4966  2.2281
  971MOL0     H31034  10.119  10.769   7.526  0.6019  1.2668 -2.3622
  971MOL0     H31035  10.226  10.693   7.422  0.7407 -0.8075  0.4571
  971MOL0     H31036   9.940  10.614   7.694 -1.3111 -0.7299 -1.6253
  971MOL0     H31037   9.925  10.481   7.899 -0.8410 -0.4459 -2.0401
  971MOL0     H31038  10.002  10.319   7.877  3.9664 -1.4778  0.8301
  971MOL0     H31039  10.204  10.377   7.991 -1.6486 -2.2414  0.1573
  971MOL0     H31040  10.066  10.372   8.103  0.0806 -0.6613  0.3291
  971MOL0     H31041  10.043  10.626   8.060  0.1638  1.5681  1.4860
  971MOL0     H31042  10.198  10.617   7.987 -1.2591  0.0685 -0.5708
  971MOL0     H31043  10.279  10.512   8.203  0.0966 -1.7790 -1.5136
  971MOL0     H31044  10.121  10.550   8.267 -0.4579 -0.4363 -0.0947
  971MOL0     H31045  10.320  10.961   8.322 -0.2698 -0.7579 -1.9334
  971MOL0     H31046  10.247  11.169   8.541  1.5795  1.0190 -0.4994
  971MOL0     H31047  10.251  11.206   8.372  3.0109  0.2371  2.1011
  971MOL0     H31048  10.109  11.249   8.460  0.1515  0.0898  0.9876
  971MOL0     H31049   9.772  11.385   8.241  1.2133 -1.1910  1.5051
  971MOL0     H31050   9.590  11.542   8.260  0.7086 -0.7034 -0.3789
  971MOL0     H31051   9.269  11.414   8.526  0.1304 -0.4740  0.6609
  971MOL0     H31052   9.314  11.553   8.626  0.5243 -1.4030  0.4654
  971MOL0     H31053   9.184  11.647   8.386  2.7893  1.2427  0.9666
  971MOL0     H31054   9.089  11.521   8.466 -0.6245  0.0662  3.7447
  971MOL0     H31055   9.045  11.766   8.543  0.0108  0.2800 -0.5787
  971MOL0     H31056   9.209  11.774   8.602  2.4594 -1.8091 -2.4507
  971MOL0     H31057   8.973  11.581   8.660 -1.3657  1.6264  1.7578
  971MOL0     H31058   9.123  11.552   8.743  0.9594  0.0675 -0.3958
  971MOL0     H31059   8.926  11.759   8.783 -1.1405  0.0822  1.1051
  971MOL0     H31060   9.094  11.822   8.794  0.4690 -0.5936 -1.4773
  971MOL0     H31061   9.144  11.638   8.959  1.0822  2.0599  1.2978
  971MOL0     H31062   9.036  11.762   9.019  0.5227 -0.5179  1.7921
  971MOL0     H31063   8.944  11.476   8.915 -0.9016 -0.7366  1.5355
  971MOL0     H31064   8.835  11.617   8.955 -1.7027 -2.0710  1.6762
  971MOL0     H31065   8.830  11.479   9.133 -1.5074  2.0565  2.4604
  971MOL0     H31066   8.931  11.613   9.181  1.7628  0.4127 -0.8368
  971MOL0     H31067   9.437  11.309   8.581  0.0215 -1.1556 -2.0478
  971MOL0     H31068   9.623  11.152   8.558 -0.9195 -0.9109 -1.8586
  971MOL0     H31069   9.843  10.860   8.395  1.5637  0.6852 -0.0284
  971MOL0     H31070   9.963  10.703   8.289 -2.4654  0.5570 -0.2105
  971MOL0     H31071   9.221  11.049   6.707 -1.8796 -4.1456 -0.9741
  971MOL0     H31072   9.218  11.023   6.483 -0.1754 -3.7610  0.4110
  971MOL0     H31073   9.292  10.897   6.127 -2.2082  0.6966 -2.4330
  971MOL0     H31074   9.210  10.855   5.908  0.8524 -0.9980  1.0565
  971MOL0     H31075   9.277  10.973   5.493  0.1475  2.8007  1.1640
  971MOL0     H31076   9.401  11.089   5.562  3.5668 -1.3271 -1.5368
  971MOL0     H31077   9.564  10.923   5.579  1.0187 -0.0089 -0.8684
  971MOL0     H31078   9.515  10.969   5.425 -0.8638 -0.0530 -0.2286
  971MOL0     H31079   9.397  10.787   5.364 -1.3491  2.1831  0.0665
  971MOL0     H31080   9.377  10.727   5.530 -0.4982 -2.3805 -1.6520
  971MOL0     H31081   9.604  10.647   5.554  0.7609 -3.6698 -1.4673
  971MOL0     H31082   9.654  10.714   5.397  1.0757 -0.1233  1.8866
  971MOL0     H31083   9.504  10.359   5.282 -0.8224  0.4958 -0.5759
  971MOL0     H31084   9.530  11.095   5.747  0.7775 -0.0252 -0.4454
  971MOL0     H31085   9.625  11.116   5.968 -1.0658  1.0303  1.1842
  972MOL0     O31086   3.345   4.528   9.289  0.1570 -0.5562  0.4804
  972MOL0     C31087   3.326   4.639   9.252 -0.0910 -0.9855 -0.2987
  972MOL0     O31088   3.299   4.749   9.329  0.4286  0.1195 -0.4948
  972MOL0     C31089   3.275   4.730   9.463  0.3458 -0.5809  0.0438
  972MOL0     C31090   3.340   4.828   9.547 -0.0284 -0.1015 -1.0876
  972MOL0     C31091   3.322   4.822   9.686 -0.3570 -0.2979 -0.3750
  972MOL0     C31092   3.238   4.730   9.746  0.0467  0.5534 -1.0990
  972MOL0     O31093   3.222   4.728   9.884  0.1603  0.1132  0.2986
  972MOL0     C31094   3.159   4.842   9.955  0.2596  0.2010 -0.6533
  972MOL0     C31095   3.181   4.835  10.108 -0.6304  0.3699  0.2632
  972MOL0     C31096   3.141   4.962  10.185 -0.6365  0.1224  0.7415
  972MOL0     C31097   2.980   4.972  10.186  0.5394 -0.5995  0.3959
  972MOL0     C31098   2.932   5.120  10.196 -0.4547 -0.2757 -1.0229
  972MOL0     C31099   2.785   5.123  10.160 -1.2350 -0.9923 -0.1308
  972MOL0     C31100   2.723   5.244  10.231 -0.9201  0.4787  0.2516
  972MOL0     C31101   2.577   5.253  10.203  0.2314 -0.2407  0.5717
  972MOL0     N31102   2.553   5.266  10.058 -0.5525  0.0355 -0.7657
  972MOL0     C31103   2.584   5.360   9.970  0.3189 -0.0307  0.0584
  972MOL0     C31104   2.557   5.301   9.846 -0.1420 -1.3188 -0.0281
  972MOL0     C31105   2.559   5.361   9.708 -0.6908 -0.7061 -1.1536
  972MOL0     C31106   2.446   5.306   9.626  0.4379 -0.3026 -0.3129
  972MOL0     C31107   2.453   5.369   9.480 -0.4591 -0.1754 -0.0266
  972MOL0     C31108   2.374   5.291   9.375  0.2695 -0.7774  0.3731
  972MOL0     O31109   2.434   5.327   9.255  0.4390  0.5965 -0.2643
  972MOL0     C31110   2.367   5.294   9.142  0.6717  0.3314 -0.8506
  972MOL0     C31111   2.423   5.345   9.020 -0.3058  0.0320 -0.1729
  972MOL0     C31112   2.362   5.327   8.900  0.7662 -0.0898 -0.0160
  972MOL0     C31113   2.442   5.375   8.783  0.4986 -0.2288 -0.6817
  972MOL0     C31114   2.248   5.252   8.889  0.8242  1.5801  0.5683
  972MOL0     C31115   2.169   5.213   8.767 -0.6008 -0.1279  0.4464
  972MOL0     O31116   2.045   5.164   8.790  1.3682 -0.9836  0.4897
  972MOL0     C31117   1.936   5.163   8.701 -0.3120 -1.0405 -0.4357
  972MOL0     C31118   1.933   5.184   8.562  0.0838  0.4833  0.8515
  972MOL0     C31119   1.812   5.168   8.490  0.1597  0.2976  0.1390
  972MOL0     C31120   1.695   5.155   8.561  0.7207 -0.9115 -0.5640
  972MOL0     O31121   1.569   5.141   8.512 -0.2247 -0.6390 -0.9831
  972MOL0     C31122   1.558   5.117   8.369 -0.5726  0.0688  0.2500
  972MOL0     C31123   1.590   4.968   8.324 -1.3611  0.0554  0.5711
  972MOL0     C31124   1.606   4.972   8.170 -0.2551  0.3461  0.4843
  972MOL0     C31125   1.632   4.821   8.126 -1.3003  0.0772 -0.6751
  972MOL0     C31126   1.647   4.823   7.976 -0.5527 -0.6181  0.5170
  972MOL0     C31127   1.696   4.691   7.924  0.3439 -0.1788  0.0186
  972MOL0     C31128   1.719   4.673   7.768  0.7343 -0.8441  0.0972
  972MOL0     C31129   1.755   4.535   7.727 -0.2787 -0.6989 -0.2146
  972MOL0    Cl31130   1.905   4.472   7.769 -0.1937 -0.1982  0.0688
  972MOL0     C31131   1.690   5.155   8.704 -0.3518 -0.0363 -0.0291
  972MOL0     C31132   1.817   5.153   8.772  1.1186  0.4130  0.5351
  972MOL0     O31133   2.213   5.247   8.655 -0.7090  0.3841 -0.0062
  972MOL0     C31134   2.197   5.200   9.010 -0.4159 -0.8327  0.0521
  972MOL0     C31135   2.245   5.215   9.139  0.4243  0.1795  0.7592
  972MOL0     N31136   2.516   5.173   9.859  0.1395  0.5067 -0.5018
  972MOL0     N31137   2.509   5.153   9.988  0.0393 -1.1727 -0.1528
  972MOL0     C31138   3.184   4.623   9.665  0.4271 -0.2601 -0.3747
  972MOL0     C31139   3.212   4.622   9.525 -0.6638  0.6130 -0.1300
  972MOL0     C31140   3.326   4.659   9.100  0.4597 -0.7861 -0.8121
  972MOL0     C31141   3.384   4.566   9.008 -0.3258  0.0691  0.1518
  972MOL0     C31142   3.383   4.593   8.873  0.6875 -0.1478  0.5342
  972MOL0     C31143   3.319   4.702   8.823 -1.1540  0.2449 -0.3636
  972MOL0     O31144   3.307   4.729   8.694  0.4100 -0.1911  0.2256
  972MOL0     C31145   3.358   4.648   8.584 -0.7618 -0.2226  0.0239
  972MOL0     C31146   3.503   4.683   8.564  0.1060 -0.0279  0.1150
  972MOL0     C31147   3.555   4.640   8.419  1.1778 -0.2600 -0.0273
  972MOL0     C31148   3.524   4.491   8.383 -0.5020  0.3796 -0.8130
  972MOL0     C31149   3.612   4.421   8.294 -0.4263  0.5892 -0.5032
  972MOL0     C31150   3.668   4.375   8.195  0.3711  0.5392 -0.7872
  972MOL0     C31151   3.284   4.803   8.914 -0.4385  0.5937  0.0730
  972MOL0     C31152   3.273   4.781   9.052  0.7092  0.4914 -0.5855
  972MOL0     H31153   3.405   4.902   9.499 -0.2690  1.7423  1.2524
  972MOL0     H31154   3.376   4.900   9.739 -0.5637  0.2098 -0.8887
  972MOL0     H31155   3.201   4.936   9.921  1.5811  0.2668  1.0612
  972MOL0     H31156   3.050   4.843   9.941 -0.1530  0.3444  2.1037
  972MOL0     H31157   3.124   4.745  10.135  2.3253 -1.8005 -0.2718
  972MOL0     H31158   3.287   4.814  10.125 -1.3971 -2.6665  2.2433
  972MOL0     H31159   3.192   4.973  10.282  0.4927  0.4173  0.1354
  972MOL0     H31160   3.180   5.039  10.119  0.4856 -1.0945 -0.0790
  972MOL0     H31161   2.928   4.930  10.099  0.2238  0.0161  0.2863
  972MOL0     H31162   2.944   4.922  10.277 -1.8036  0.4945  0.1440
  972MOL0     H31163   2.953   5.152  10.299 -1.1188 -1.5926 -0.4540
  972MOL0     H31164   3.002   5.179  10.136  0.5370  0.4890  0.7924
  972MOL0     H31165   2.793   5.123  10.051 -3.1090 -0.5608 -0.3022
  972MOL0     H31166   2.725   5.035  10.183 -2.0493 -0.2237  0.7939
  972MOL0     H31167   2.740   5.256  10.338 -0.6631  1.9003  0.0813
  972MOL0     H31168   2.773   5.330  10.184  3.2837 -1.4512  0.7257
  972MOL0     H31169   2.515   5.323  10.260  0.6265 -0.1972  0.9552
  972MOL0     H31170   2.542   5.160  10.247 -1.8838 -0.9468 -2.2692
  972MOL0     H31171   2.635   5.455   9.986  0.0608 -0.1802  1.9937
  972MOL0     H31172   2.534   5.468   9.707 -1.5308 -0.8940 -1.3082
  972MOL0     H31173   2.660   5.355   9.667 -1.0024 -0.7374 -1.9476
  972MOL0     H31174   2.347   5.325   9.671  0.0177  1.3484 -1.8552
  972MOL0     H31175   2.451   5.198   9.611  2.5515 -0.0786 -1.5099
  972MOL0     H31176   2.560   5.376   9.456 -1.1005  3.0406 -2.6555
  972MOL0     H31177   2.420   5.473   9.481 -2.2226 -0.6953 -0.7178
  972MOL0     H31178   2.266   5.311   9.374  0.1340 -1.4353 -0.8291
  972MOL0     H31179   2.392   5.184   9.390  0.4614 -0.5731  1.6665
  972MOL0     H31180   2.519   5.396   9.023  0.5322 -1.5154  1.7059
  972MOL0     H31181   2.371   5.428   8.719 -0.0367  1.9936  1.5749
  972MOL0     H31182   2.523   5.446   8.806  0.0773  0.1757 -0.4213
  972MOL0     H31183   2.489   5.289   8.736 -0.1501  0.2754 -2.3393
  972MOL0     H31184   2.027   5.189   8.507  0.6763 -2.3926  1.3927
  972MOL0     H31185   1.815   5.169   8.381 -0.4265  1.6183  0.1147
  972MOL0     H31186   1.450   5.120   8.358 -0.5560  0.1809  0.1126
  972MOL0     H31187   1.607   5.188   8.302 -0.3996 -0.1319  0.1571
  972MOL0     H31188   1.688   4.949   8.367  0.2088  0.4201 -2.5691
  972MOL0     H31189   1.516   4.891   8.348 -1.6088 -1.0185 -2.9560
  972MOL0     H31190   1.689   5.038   8.143  0.8014 -1.5635 -1.2319
  972MOL0     H31191   1.510   5.007   8.132 -0.2683  2.2085  2.0707
  972MOL0     H31192   1.718   4.778   8.178 -0.6122  2.6540  0.4978
  972MOL0     H31193   1.552   4.751   8.152 -1.0712 -0.8901 -2.3756
  972MOL0     H31194   1.726   4.895   7.953 -1.7306 -0.0473 -2.0761
  972MOL0     H31195   1.555   4.858   7.928 -0.5703 -2.2064 -0.6922
  972MOL0     H31196   1.787   4.653   7.971  1.5468 -0.1342 -2.1471
  972MOL0     H31197   1.610   4.628   7.948 -1.0695  0.5842 -2.6547
  972MOL0     H31198   1.791   4.747   7.731 -1.4590  1.4498  0.1407
  972MOL0     H31199   1.620   4.693   7.726  1.8094 -1.5247 -3.0617
  972MOL0     H31200   1.735   4.524   7.620 -1.1134 -0.6033 -0.0748
  972MOL0     H31201   1.674   4.477   7.773 -2.5400  1.5409 -1.0915
  972MOL0     H31202   1.599   5.139   8.761  0.0508  3.2284  1.7170
  972MOL0     H31203   1.812   5.154   8.881 -4.1085  1.0960  0.5293
  972MOL0     H31204   2.110   5.136   9.003 -1.2102  0.3634 -2.1642
  972MOL0     H31205   2.186   5.179   9.223  0.3831 -0.6481  0.3824
  972MOL0     H31206   3.117   4.545   9.699  2.1937 -1.4814  0.4239
  972MOL0     H31207   3.165   4.544   9.466  2.0466 -0.9334 -0.4384
  972MOL0     H31208   3.422   4.471   9.045 -2.6665 -0.2632  1.9106
  972MOL0     H31209   3.426   4.512   8.815  1.1673 -0.4067  1.2445
  972MOL0     H31210   3.356   4.540   8.595  0.2415 -0.4051 -1.4889
  972MOL0     H31211   3.304   4.673   8.492  0.1572  2.9673  0.2134
  972MOL0     H31212   3.563   4.620   8.631  0.3925  0.3417  0.2041
  972MOL0     H31213   3.511   4.790   8.580 -2.2344 -0.1152  2.5308
  972MOL0     H31214   3.664   4.649   8.412  1.3038 -2.3017 -2.2036
  972MOL0     H31215   3.511   4.712   8.350  1.9068 -1.0026 -1.2964
  972MOL0     H31216   3.418   4.485   8.357 -1.0806  3.1044  0.5479
  972MOL0     H31217   3.536   4.434   8.476 -3.3593  1.9149  0.6220
  972MOL0     H31218   3.722   4.336   8.111  0.4653 -2.7230  0.6470
  972MOL0     H31219   3.243   4.896   8.876 -0.3238  0.5161 -0.2460
  972MOL0     H31220   3.220   4.841   9.125  1.0756  0.1261 -0.0097
  973MOL0     O31221   5.860   8.920   3.826 -0.1150 -0.2838  0.4905
  973MOL0     C31222   5.787   8.844   3.768  0.2285  1.5966 -0.0845
  973MOL0     O31223   5.697   8.881   3.672 -0.0817 -0.5258  0.4008
  973MOL0     C31224   5.706   9.013   3.624 -0.1233  0.3933  0.1127
  973MOL0     C31225   5.659   9.122   3.695 -1.1626  1.1845 -0.1296
  973MOL0     C31226   5.675   9.249   3.647 -0.6685  0.6978  0.1364
  973MOL0     C31227   5.709   9.273   3.516 -0.0366  0.3106  0.9054
  973MOL0     O31228   5.712   9.403   3.472 -0.0457  0.7807  0.1335
  973MOL0     C31229   5.696   9.413   3.333 -0.4328 -0.0788  0.0710
  973MOL0     C31230   5.685   9.560   3.284  0.1089 -0.4175 -0.3819
  973MOL0     C31231   5.708   9.572   3.131 -0.3133  0.2008  0.8070
  973MOL0     C31232   5.702   9.709   3.074 -0.4293 -0.8240  0.2530
  973MOL0     C31233   5.750   9.720   2.933 -0.3818 -0.7854 -0.4920
  973MOL0     C31234   5.786   9.859   2.876  0.2980  0.6126 -0.3778
  973MOL0     C31235   5.925   9.896   2.916 -0.2143  0.2231  0.1461
  973MOL0     C31236   5.983  10.026   2.863 -0.0481 -0.4473  0.4665
  973MOL0     N31237   6.101  10.071   2.935  1.2577 -0.3129  0.8552
  973MOL0     C31238   6.207  10.009   2.976 -0.4715  0.3994 -0.0747
  973MOL0     C31239   6.298  10.093   3.039  1.4975  0.4067  0.0625
  973MOL0     C31240   6.434  10.058   3.090  0.0361  0.0022 -0.0772
  973MOL0     C31241   6.527  10.177   3.058  0.3792  0.3345 -0.2963
  973MOL0     C31242   6.679  10.148   3.040 -0.5400 -0.3491 -0.8486
  973MOL0     C31243   6.757  10.224   3.149  0.0520 -0.4525 -0.0269
  973MOL0     O31244   6.794  10.352   3.093  0.3867 -0.1328 -0.7914
  973MOL0     C31245   6.840  10.444   3.183 -0.5650 -0.0863 -0.3811
  973MOL0     C31246   6.914  10.418   3.298  0.4608  0.5549 -0.2278
  973MOL0     C31247   6.950  10.518   3.390  1.3454 -0.2937 -0.6461
  973MOL0     C31248   7.019  10.472   3.522 -0.9497 -0.2073 -0.4420
  973MOL0     C31249   6.906  10.649   3.364 -1.1071 -0.3301  0.9897
  973MOL0     C31250   6.917  10.760   3.455  0.1583  0.9131 -0.3460
  973MOL0     O31251   6.895  10.881   3.400  0.0643  0.1155  0.2841
  973MOL0     C31252   6.832  10.972   3.485 -0.3038  0.0729  0.4051
  973MOL0     C31253   6.920  11.052   3.556  0.4537  0.7360 -0.5118
  973MOL0     C31254   6.886  11.167   3.620  0.8976 -0.3617 -0.1714
  973MOL0     C31255   6.743  11.198   3.619 -0.4965 -0.8696 -0.3686
  973MOL0     O31256   6.688  11.313   3.666  0.0924  0.7836  0.0297
  973MOL0     C31257   6.698  11.352   3.797  0.1990  0.4297 -0.6902
  973MOL0     C31258   6.608  11.480   3.824 -0.1935  0.1369 -0.1104
  973MOL0     C31259   6.470  11.471   3.761  0.9846 -0.6973  0.1255
  973MOL0     C31260   6.402  11.613   3.772 -0.1271  1.5122 -0.4234
  973MOL0     C31261   6.443  11.726   3.664  0.3697  0.7078  0.7169
  973MOL0     C31262   6.390  11.669   3.529 -0.6594 -0.0038 -0.1016
  973MOL0     C31263   6.442  11.770   3.418  0.4615  0.0003 -0.9261
  973MOL0     C31264   6.398  11.731   3.283  0.5640 -0.7054 -0.1297
  973MOL0    Cl31265   6.485  11.575   3.251  0.2116 -0.1453  0.2905
  973MOL0     C31266   6.656  11.112   3.548  0.4868  0.2380  1.1211
  973MOL0     C31267   6.691  10.992   3.494 -0.0863  1.4009  0.0568
  973MOL0     O31268   6.934  10.743   3.576  0.8372 -0.2412  0.4967
  973MOL0     C31269   6.850  10.673   3.240  0.7930 -0.4003 -0.0117
  973MOL0     C31270   6.805  10.575   3.158 -0.1991 -0.1202  0.2366
  973MOL0     N31271   6.235  10.215   3.026 -0.4974  0.3407  0.5712
  973MOL0     N31272   6.121  10.199   2.965 -0.4295 -0.0497 -0.7549
  973MOL0     C31273   5.743   9.160   3.432 -0.0947  0.7022  0.5181
  973MOL0     C31274   5.749   9.029   3.485  0.3960  0.3152  0.0563
  973MOL0     C31275   5.782   8.699   3.805 -0.8308 -0.6909 -0.7776
  973MOL0     C31276   5.877   8.640   3.880 -0.0970  0.6373  0.2810
  973MOL0     C31277   5.887   8.505   3.915  0.6084 -0.1814  0.9104
  973MOL0     C31278   5.779   8.420   3.868  0.5863 -0.2269  0.2218
  973MOL0     O31279   5.790   8.284   3.898 -0.7039 -0.8013  0.6702
  973MOL0     C31280   5.670   8.208   3.878 -0.3159 -0.2024 -0.2603
  973MOL0     C31281   5.554   8.259   3.980 -0.1393  1.3109  0.0867
  973MOL0     C31282   5.600   8.255   4.124 -0.3041 -0.8201  0.1071
  973MOL0     C31283   5.619   8.121   4.177 -0.0974  0.1533  0.0610
  973MOL0     C31284   5.499   8.051   4.197  0.1572 -0.1954 -0.9620
  973MOL0     C31285   5.391   7.990   4.220  0.4689  0.3954 -0.4843
  973MOL0     C31286   5.677   8.484   3.798  0.4701  0.0872  0.0895
  973MOL0     C31287   5.671   8.627   3.764 -0.1785  0.9299  0.1700
  973MOL0     H31288   5.618   9.095   3.792 -1.0130 -1.9798 -0.8516
  973MOL0     H31289   5.652   9.330   3.715 -0.0090  0.2168  0.9481
  973MOL0     H31290   5.778   9.356   3.286 -0.5722 -0.6007  0.4451
  973MOL0     H31291   5.605   9.358   3.310 -1.8938  0.5465  3.7471
  973MOL0     H31292   5.589   9.601   3.316 -1.4579 -3.0033 -1.4705
  973MOL0     H31293   5.760   9.616   3.341 -0.2960 -0.8319  0.5720
  973MOL0     H31294   5.810   9.535   3.112 -1.1593 -0.8665 -2.3956
  973MOL0     H31295   5.638   9.511   3.073  1.2047 -0.4080 -0.4698
  973MOL0     H31296   5.594   9.725   3.064 -0.2808  0.7350  0.8088
  973MOL0     H31297   5.751   9.783   3.138 -2.2819  2.2900 -1.6390
  973MOL0     H31298   5.838   9.656   2.918  0.1812 -0.2273  0.3349
  973MOL0     H31299   5.667   9.671   2.882 -0.8066 -3.0965  2.1666
  973MOL0     H31300   5.775   9.854   2.767  1.5971  0.2970 -0.5042
  973MOL0     H31301   5.722   9.930   2.930  1.3624 -0.8544  3.0657
  973MOL0     H31302   5.929   9.888   3.025  2.9570 -0.6680  0.0555
  973MOL0     H31303   5.982   9.806   2.891 -3.7579 -2.8224  1.8906
  973MOL0     H31304   5.925  10.119   2.861  3.1751  1.7153 -1.2233
  973MOL0     H31305   5.993  10.012   2.755 -2.4401  1.1381 -0.0440
  973MOL0     H31306   6.221   9.901   2.970  1.8159  0.6248  0.1632
  973MOL0     H31307   6.416  10.051   3.198  1.4958 -2.4278  0.0819
  973MOL0     H31308   6.475   9.965   3.051  2.7541  1.7065 -1.6108
  973MOL0     H31309   6.515  10.256   3.133  1.1666 -1.0738  1.3710
  973MOL0     H31310   6.491  10.225   2.966  0.7959 -0.7585 -1.0493
  973MOL0     H31311   6.708  10.183   2.941  0.9167  0.0510 -0.3005
  973MOL0     H31312   6.699  10.041   3.053  1.4695  0.0140 -0.6341
  973MOL0     H31313   6.854  10.173   3.154  0.1348 -0.2446  0.5284
  973MOL0     H31314   6.715  10.234   3.250  0.9728  2.8466  0.1637
  973MOL0     H31315   6.955  10.322   3.328  0.6910  0.0307 -2.0600
  973MOL0     H31316   7.026  10.363   3.525 -1.4933 -0.2518 -0.7456
  973MOL0     H31317   7.121  10.510   3.518 -0.5001 -1.0654  1.6347
  973MOL0     H31318   6.984  10.510   3.619 -1.3154 -1.2456 -0.1531
  973MOL0     H31319   7.022  11.016   3.562 -0.5186 -1.9867  2.4567
  973MOL0     H31320   6.955  11.230   3.675 -0.1057 -1.7349  2.8730
  973MOL0     H31321   6.678  11.262   3.855 -0.9575  0.1409 -1.4884
  973MOL0     H31322   6.802  11.378   3.820 -0.5325  2.6996  0.3423
  973MOL0     H31323   6.592  11.502   3.930  0.8587  1.2339 -0.1630
  973MOL0     H31324   6.665  11.555   3.770 -2.4247  1.1347 -1.2066
  973MOL0     H31325   6.411  11.394   3.812  1.1420 -1.5398 -0.9102
  973MOL0     H31326   6.470  11.434   3.658 -2.0276 -3.6287  0.9905
  973MOL0     H31327   6.296  11.590   3.769  0.3186 -0.7218 -2.8758
  973MOL0     H31328   6.423  11.649   3.873  0.6691  0.6761 -0.2731
  973MOL0     H31329   6.551  11.743   3.668  0.3874  0.3673  1.9165
  973MOL0     H31330   6.393  11.821   3.683 -3.4827 -1.4306  2.5529
  973MOL0     H31331   6.433  11.570   3.513  0.8286 -0.2355  3.9825
  973MOL0     H31332   6.282  11.663   3.514 -0.5210  1.0521 -1.6823
  973MOL0     H31333   6.549  11.789   3.421  0.0823  2.2726  0.8439
  973MOL0     H31334   6.390  11.866   3.426  1.0084  0.3508 -1.5293
  973MOL0     H31335   6.434  11.810   3.216 -2.7547  0.1745 -1.0475
  973MOL0     H31336   6.291  11.715   3.269 -0.2949  0.9748  3.4117
  973MOL0     H31337   6.552  11.140   3.548 -0.3632 -2.5846  0.7840
  973MOL0     H31338   6.616  10.928   3.448 -1.0609  3.1777 -0.9465
  973MOL0     H31339   6.818  10.772   3.211  2.5218  0.7132  1.6262
  973MOL0     H31340   6.743  10.602   3.073 -0.5994 -1.8716 -0.0570
  973MOL0     H31341   5.771   9.160   3.327  1.7206  3.9099  0.8725
  973MOL0     H31342   5.788   8.952   3.420  2.7466  3.9129 -3.3066
  973MOL0     H31343   5.963   8.704   3.894  0.5212  0.3873 -1.9812
  973MOL0     H31344   5.970   8.455   3.965  2.0543  1.5640  0.3492
  973MOL0     H31345   5.651   8.221   3.771  4.9282  1.7247 -1.2414
  973MOL0     H31346   5.700   8.103   3.887  4.7587  0.8079 -2.3655
  973MOL0     H31347   5.472   8.191   3.953 -0.4289  1.6954 -0.0153
  973MOL0     H31348   5.503   8.353   3.957  0.7789  2.5341  2.6744
  973MOL0     H31349   5.529   8.317   4.180  1.5457  0.0451  1.6246
  973MOL0     H31350   5.694   8.311   4.122 -0.6210 -0.2603  0.4322
  973MOL0     H31351   5.672   8.132   4.273  2.4775  1.0137 -1.3544
  973MOL0     H31352   5.678   8.057   4.112 -2.1471 -0.5352 -1.2220
  973MOL0     H31353   5.302   7.932   4.232  1.5649 -1.1226  0.7014
  973MOL0     H31354   5.592   8.426   3.765  2.7825 -1.4420 -3.9567
  973MOL0     H31355   5.594   8.668   3.700  1.6611  2.6039 -1.0834
  974MOL0     O31356   3.088   1.487   8.326 -0.2942  0.5339  0.4450
  974MOL0     C31357   2.972   1.525   8.332  0.2766  0.1730  0.7774
  974MOL0     O31358   2.906   1.574   8.441  1.1186 -0.0486  0.0691
  974MOL0     C31359   2.965   1.610   8.562  0.4077  0.5704  0.3043
  974MOL0     C31360   2.881   1.621   8.671 -0.3142  0.3598 -0.1549
  974MOL0     C31361   2.926   1.681   8.789  0.6431  0.1681  1.0483
  974MOL0     C31362   3.052   1.730   8.795  0.1754 -1.3186 -0.1049
  974MOL0     O31363   3.090   1.799   8.917  0.0702  0.6003  1.0799
  974MOL0     C31364   3.221   1.847   8.932 -0.1493 -0.6867 -1.0089
  974MOL0     C31365   3.244   1.846   9.085 -0.1546  0.2446  0.0532
  974MOL0     C31366   3.220   1.713   9.145 -0.0051 -1.0062 -0.6254
  974MOL0     C31367   3.077   1.688   9.204  0.1854 -0.2116  0.1023
  974MOL0     C31368   3.080   1.609   9.334  0.1200  0.0607  0.3060
  974MOL0     C31369   2.938   1.612   9.407  0.3989 -1.0765 -0.0366
  974MOL0     C31370   2.961   1.563   9.559  0.9375 -0.9671  0.0774
  974MOL0     C31371   3.054   1.653   9.635  0.2747 -0.5431 -0.4117
  974MOL0     N31372   3.049   1.622   9.779  0.1925  0.1281 -0.0920
  974MOL0     C31373   2.973   1.696   9.879 -1.1249  0.4042  0.6944
  974MOL0     C31374   2.992   1.607   9.985 -0.2051 -0.4098  0.0853
  974MOL0     C31375   2.927   1.629  10.125 -0.7576 -0.3816  0.2016
  974MOL0     C31376   2.905   1.487  10.191  0.5708 -1.3565 -0.0096
  974MOL0     C31377   2.999   1.440  10.307  0.2094 -0.3084 -0.1803
  974MOL0     C31378   3.151   1.473  10.271  1.1292 -0.1406  0.7071
  974MOL0     O31379   3.243   1.438  10.365  0.1198  0.2575  0.0685
  974MOL0     C31380   3.368   1.478  10.335 -0.1403  0.8763  0.3740
  974MOL0     C31381   3.441   1.414  10.236  0.6499 -1.1236  0.0521
  974MOL0     C31382   3.567   1.457  10.205  0.0893  0.1199 -0.7878
  974MOL0     C31383   3.653   1.374  10.113  0.3717 -0.1053 -0.2534
  974MOL0     C31384   3.629   1.568  10.271 -0.1488 -0.1429  1.2522
  974MOL0     C31385   3.764   1.623  10.246 -0.4160  0.1954  0.8400
  974MOL0     O31386   3.811   1.735  10.309  0.0623  0.1734  0.1064
  974MOL0     C31387   3.948   1.762  10.304  0.8399  0.2045  0.9512
  974MOL0     C31388   4.046   1.701  10.383  0.0546 -0.3949  0.0497
  974MOL0     C31389   4.180   1.750  10.382  0.6882 -0.2280 -0.0184
  974MOL0     C31390   4.214   1.867  10.308 -0.1803 -0.9635  0.6310
  974MOL0     O31391   4.344   1.899  10.285 -0.6633  0.3282 -0.9865
  974MOL0     C31392   4.392   1.995  10.191 -0.3430 -0.3140 -0.8978
  974MOL0     C31393   4.531   1.961  10.144  0.7543  0.1986  0.3742
  974MOL0     C31394   4.629   1.983  10.253 -0.1404  0.7535 -0.9753
  974MOL0     C31395   4.766   2.018  10.204  0.4366 -0.3397  0.7624
  974MOL0     C31396   4.862   2.062  10.320  0.8970  0.1811 -1.4641
  974MOL0     C31397   5.008   2.055  10.271 -0.1943  1.0692 -0.1045
  974MOL0     C31398   5.058   1.911  10.272 -0.0152  0.1129  0.5014
  974MOL0     C31399   5.189   1.890  10.204  0.3913 -0.1378  0.4554
  974MOL0    Cl31400   5.172   1.925  10.024 -0.5231  0.3585  0.5210
  974MOL0     C31401   4.108   1.933  10.241 -0.7960 -0.1001  0.0210
  974MOL0     C31402   3.980   1.884  10.226  0.6655  0.2324  0.0688
  974MOL0     O31403   3.829   1.553  10.168 -0.2315 -0.3749  0.9744
  974MOL0     C31404   3.549   1.638  10.371  1.0285  0.2966 -0.3310
  974MOL0     C31405   3.419   1.592  10.396  0.3027  0.4952 -0.2159
  974MOL0     N31406   3.072   1.496   9.945 -1.7335 -0.6174 -0.8597
  974MOL0     N31407   3.110   1.510   9.830  0.6997  0.3278 -0.5723
  974MOL0     C31408   3.146   1.721   8.687  0.3203  0.0832  0.8966
  974MOL0     C31409   3.093   1.654   8.567 -0.6562 -0.4986 -0.0761
  974MOL0     C31410   2.891   1.515   8.207  0.7054  0.2871 -0.7257
  974MOL0     C31411   2.945   1.449   8.096 -0.1986 -0.2340 -0.1852
  974MOL0     C31412   2.873   1.438   7.977  0.0278  0.6217 -0.4314
  974MOL0     C31413   2.741   1.494   7.962 -0.3006  0.5266  0.3647
  974MOL0     O31414   2.666   1.484   7.842  0.2996 -0.2758  0.0531
  974MOL0     C31415   2.526   1.495   7.859 -0.0395  0.5536  0.1542
  974MOL0     C31416   2.463   1.431   7.726  0.0969 -0.2064  0.0101
  974MOL0     C31417   2.528   1.498   7.607  0.1763 -0.4938  0.4288
  974MOL0     C31418   2.439   1.494   7.473 -0.5982  0.6992 -0.9528
  974MOL0     C31419   2.317   1.565   7.479 -0.3209 -0.1970  0.0780
  974MOL0     C31420   2.226   1.639   7.459  0.3512  0.2556 -0.7263
  974MOL0     C31421   2.695   1.571   8.074 -0.6300  0.1585 -0.3132
  974MOL0     C31422   2.759   1.576   8.193  1.1005  0.7262  0.5251
  974MOL0     H31423   2.777   1.590   8.664 -0.4933  1.0567 -0.6777
  974MOL0     H31424   2.871   1.708   8.878 -2.0391  1.2994 -0.8230
  974MOL0     H31425   3.292   1.788   8.873  1.4693  0.6748 -0.4686
  974MOL0     H31426   3.220   1.949   8.895  1.2591  0.8984  2.8329
  974MOL0     H31427   3.352   1.856   9.093 -0.1639  1.1333 -0.7441
  974MOL0     H31428   3.192   1.927   9.138  4.2504  0.7407  4.2967
  974MOL0     H31429   3.235   1.626   9.081  0.1961 -0.1921 -1.7097
  974MOL0     H31430   3.295   1.704   9.224 -0.0994 -0.2836 -0.4481
  974MOL0     H31431   3.037   1.785   9.235 -0.7098 -0.3696 -0.5162
  974MOL0     H31432   3.011   1.637   9.133 -2.6465  3.5334 -0.3098
  974MOL0     H31433   3.114   1.507   9.315  0.9857  0.6114 -1.3763
  974MOL0     H31434   3.155   1.656   9.398 -0.9628  0.9357  0.9692
  974MOL0     H31435   2.885   1.707   9.399  0.9761 -0.8520 -1.5242
  974MOL0     H31436   2.873   1.531   9.372 -2.5882  0.5077  1.4389
  974MOL0     H31437   2.859   1.562   9.599 -0.8825  1.0823 -3.9780
  974MOL0     H31438   3.016   1.469   9.568  0.7409 -1.0580  0.3466
  974MOL0     H31439   3.029   1.759   9.620  0.0817 -0.5095  0.1295
  974MOL0     H31440   3.155   1.643   9.594 -0.8598  0.7731 -3.9161
  974MOL0     H31441   2.904   1.779   9.878 -0.0541  1.3306  1.6251
  974MOL0     H31442   2.988   1.701  10.179  1.5104  1.2390 -4.0510
  974MOL0     H31443   2.828   1.676  10.121 -0.3588  0.4101 -2.6113
  974MOL0     H31444   2.910   1.416  10.108  2.7132  3.1597 -4.2717
  974MOL0     H31445   2.802   1.498  10.228  0.1309  0.4268 -1.6130
  974MOL0     H31446   2.999   1.335  10.339  0.0895  0.1226  1.3241
  974MOL0     H31447   2.963   1.488  10.399 -0.6890 -1.0908 -0.1092
  974MOL0     H31448   3.167   1.573  10.228  0.5378 -0.0634  0.6560
  974MOL0     H31449   3.182   1.414  10.184  1.8032 -0.7901  1.3799
  974MOL0     H31450   3.384   1.339  10.183  0.1255 -0.2175 -0.7012
  974MOL0     H31451   3.684   1.434  10.027  0.7442 -0.1150 -0.1292
  974MOL0     H31452   3.737   1.337  10.173 -0.7650 -2.7983 -0.1715
  974MOL0     H31453   3.602   1.284  10.077  0.1985 -0.5071  0.9467
  974MOL0     H31454   4.036   1.629  10.464  2.5697 -0.1579  0.6313
  974MOL0     H31455   4.262   1.690  10.419  1.6601  0.6521 -0.6569
  974MOL0     H31456   4.327   1.997  10.103 -0.6803 -3.4390 -0.8211
  974MOL0     H31457   4.397   2.098  10.229  1.9996 -1.0301  0.9219
  974MOL0     H31458   4.537   1.860  10.101 -2.2255 -1.4124  3.2513
  974MOL0     H31459   4.554   2.031  10.063 -0.8417  0.2741 -0.0490
  974MOL0     H31460   4.636   1.896  10.319  0.0904  0.0480 -1.9011
  974MOL0     H31461   4.594   2.071  10.308 -4.0979 -2.0195  1.5151
  974MOL0     H31462   4.821   1.946  10.142  1.5000  0.3665  0.8729
  974MOL0     H31463   4.752   2.109  10.145 -1.8520  0.2300  2.0824
  974MOL0     H31464   4.859   1.987  10.400 -0.6407  0.0439 -1.6128
  974MOL0     H31465   4.840   2.163  10.355 -0.4265  0.0950 -1.9705
  974MOL0     H31466   5.032   2.123  10.189  1.2062  1.3375  0.4982
  974MOL0     H31467   5.068   2.101  10.350 -0.2843 -0.4357  0.8942
  974MOL0     H31468   4.996   1.835  10.224  1.7890 -3.0783  2.7850
  974MOL0     H31469   5.062   1.882  10.377  1.6034 -0.1380  0.3940
  974MOL0     H31470   5.220   1.789  10.231 -0.9619  0.1627  3.6168
  974MOL0     H31471   5.266   1.957  10.242  1.9791 -3.0092  2.7128
  974MOL0     H31472   4.122   2.035  10.206  0.8982  1.1772  3.8731
  974MOL0     H31473   3.892   1.931  10.183 -2.1291 -2.3235  2.6172
  974MOL0     H31474   3.581   1.729  10.420  0.5375 -0.4682  1.5127
  974MOL0     H31475   3.363   1.636  10.479  0.6851 -1.5953  1.2312
  974MOL0     H31476   3.250   1.750   8.678 -0.0436  1.2742  0.3075
  974MOL0     H31477   3.167   1.656   8.487 -2.5599  1.9866 -1.9516
  974MOL0     H31478   3.050   1.422   8.095 -0.0259  0.2075  2.2345
  974MOL0     H31479   2.927   1.410   7.887  0.3989  0.0452 -0.0315
  974MOL0     H31480   2.494   1.431   7.943  0.5992  1.6804  1.2933
  974MOL0     H31481   2.481   1.595   7.857 -2.1069 -0.3289  0.1172
  974MOL0     H31482   2.357   1.459   7.729  0.3218  0.5575  0.8692
  974MOL0     H31483   2.458   1.323   7.708  0.7691 -0.9428  3.5184
  974MOL0     H31484   2.622   1.447   7.587  0.0418 -0.9730  0.9643
  974MOL0     H31485   2.559   1.601   7.630  0.1801 -0.6419  1.1135
  974MOL0     H31486   2.416   1.389   7.451  0.3283  0.3337 -0.2750
  974MOL0     H31487   2.499   1.527   7.387  0.8102 -1.9270 -1.0829
  974MOL0     H31488   2.138   1.701   7.459 -0.7336 -1.1078  1.9330
  974MOL0     H31489   2.599   1.622   8.070 -0.8396  0.0900  2.0377
  974MOL0     H31490   2.715   1.646   8.264  1.1753  0.0968  1.2115
  975MOL0     O31491   4.617   6.412  10.001 -0.9729 -0.0695 -0.5914
  975MOL0     C31492   4.601   6.419   9.879  0.2972  0.0550  0.0123
  975MOL0     O31493   4.626   6.534   9.811 -0.6940  0.0697  0.0980
  975MOL0     C31494   4.719   6.615   9.867  0.1194  1.1701  0.2073
  975MOL0     C31495   4.677   6.702   9.974  0.1433  0.6658 -0.0342
  975MOL0     C31496   4.765   6.790  10.032 -0.3456  0.1889  0.3347
  975MOL0     C31497   4.907   6.783   9.993 -0.4139  0.4024 -1.2812
  975MOL0     O31498   5.007   6.865  10.047  0.7246  0.1648 -0.2704
  975MOL0     C31499   4.997   7.007  10.012 -0.5448 -0.7800  0.4008
  975MOL0     C31500   5.096   7.044   9.893  0.2719 -0.1896  0.1073
  975MOL0     C31501   5.213   7.126   9.925 -0.1699  0.2850 -0.0085
  975MOL0     C31502   5.285   7.192   9.803  0.4383  0.7898 -0.7557
  975MOL0     C31503   5.437   7.216   9.818  1.0106 -0.4339  0.4055
  975MOL0     C31504   5.509   7.084   9.767 -0.1686 -0.2499  0.0747
  975MOL0     C31505   5.513   6.973   9.866 -0.1516 -0.0506  0.3036
  975MOL0     C31506   5.624   6.879   9.819  0.4813  1.2532 -0.1803
  975MOL0     N31507   5.600   6.827   9.685  0.0332 -0.8993  0.1497
  975MOL0     C31508   5.488   6.743   9.668  0.2882 -0.0841 -0.1620
  975MOL0     C31509   5.508   6.698   9.544 -0.0616 -0.4128  0.7586
  975MOL0     C31510   5.417   6.602   9.471  0.1121 -0.7084 -0.1732
  975MOL0     C31511   5.458   6.458   9.526  0.1614  0.4205  0.5548
  975MOL0     C31512   5.418   6.346   9.420 -0.7833  0.3361  0.0591
  975MOL0     C31513   5.416   6.201   9.492  0.1102 -0.0959 -0.3268
  975MOL0     O31514   5.428   6.093   9.397 -0.3147  0.3532  0.7425
  975MOL0     C31515   5.445   5.963   9.421  0.2126  0.3962  0.3544
  975MOL0     C31516   5.422   5.868   9.309 -0.1480  0.3084 -0.6331
  975MOL0     C31517   5.442   5.728   9.323  0.4427  0.0265  0.2121
  975MOL0     C31518   5.434   5.655   9.189 -0.8775  0.3873 -1.0548
  975MOL0     C31519   5.479   5.667   9.444  0.0953  0.0131 -0.3204
  975MOL0     C31520   5.490   5.521   9.473 -1.2714 -0.3649 -0.0503
  975MOL0     O31521   5.574   5.485   9.576  0.0457  0.4548  0.5534
  975MOL0     C31522   5.624   5.358   9.581  0.2236  0.0676 -0.2225
  975MOL0     C31523   5.676   5.285   9.466 -0.9512 -0.2395 -0.0972
  975MOL0     C31524   5.758   5.174   9.494  0.2801 -0.1834 -0.3555
  975MOL0     C31525   5.795   5.149   9.629 -0.2611 -0.3272 -0.0113
  975MOL0     O31526   5.886   5.046   9.649 -1.1446  0.3667  0.7319
  975MOL0     C31527   5.903   4.984   9.778  0.4112  0.3867  0.4254
  975MOL0     C31528   5.990   4.857   9.748 -0.0427 -0.2385  0.0182
  975MOL0     C31529   5.941   4.769   9.620 -0.7804 -0.4908 -0.6232
  975MOL0     C31530   5.807   4.707   9.636 -0.1898  0.0712  0.0978
  975MOL0     C31531   5.792   4.594   9.526  0.1420 -0.2777 -0.2155
  975MOL0     C31532   5.646   4.569   9.500 -0.0761  0.3745 -0.6132
  975MOL0     C31533   5.596   4.592   9.355 -0.2034  0.5339 -0.2471
  975MOL0     C31534   5.452   4.545   9.334 -0.5088  0.1474  0.2730
  975MOL0    Cl31535   5.458   4.363   9.355  0.4851 -0.2684  0.1604
  975MOL0     C31536   5.735   5.222   9.734  0.5437 -0.4366 -0.3611
  975MOL0     C31537   5.646   5.328   9.710 -0.4771  0.1308 -0.8082
  975MOL0     O31538   5.412   5.441   9.416 -0.0239 -0.5720  0.0964
  975MOL0     C31539   5.495   5.758   9.554  0.5493 -0.6881  0.0057
  975MOL0     C31540   5.480   5.900   9.535  0.3530 -0.4190  0.7398
  975MOL0     N31541   5.625   6.753   9.482 -0.0603  0.0875 -1.8421
  975MOL0     N31542   5.676   6.834   9.576 -0.1797  0.7897  0.6121
  975MOL0     C31543   4.948   6.677   9.909  0.7240 -1.0235 -0.3453
  975MOL0     C31544   4.850   6.599   9.844  0.7664 -0.9485  0.0120
  975MOL0     C31545   4.566   6.295   9.791  0.0475 -0.1954 -0.3197
  975MOL0     C31546   4.554   6.173   9.855  0.2359  1.1261  0.3325
  975MOL0     C31547   4.523   6.057   9.779 -0.0484  0.8993 -0.0844
  975MOL0     C31548   4.503   6.070   9.638 -0.3471  0.7250  1.0891
  975MOL0     O31549   4.478   5.955   9.575 -0.1652 -0.0484  0.1246
  975MOL0     C31550   4.443   5.961   9.437 -0.5637 -0.9217  0.2375
  975MOL0     C31551   4.301   6.016   9.423 -0.4778 -0.7220  0.5297
  975MOL0     C31552   4.242   5.999   9.283 -0.1985 -0.1644 -0.0569
  975MOL0     C31553   4.092   6.036   9.287 -0.0900  0.5770 -0.4131
  975MOL0     C31554   4.069   6.160   9.356 -0.4787  0.0717 -0.1879
  975MOL0     C31555   4.062   6.262   9.415 -0.3239 -0.6207 -0.0757
  975MOL0     C31556   4.522   6.196   9.571 -0.0680  0.1471 -0.0109
  975MOL0     C31557   4.546   6.310   9.648  0.1391 -0.0682 -0.2511
  975MOL0     H31558   4.569   6.691   9.985  0.3548 -1.8107  0.1609
  975MOL0     H31559   4.715   6.854  10.105 -1.0462 -1.3098  1.2170
  975MOL0     H31560   4.897   7.032   9.977 -0.4559  0.4020  0.9533
  975MOL0     H31561   5.024   7.068  10.098 -1.4374  0.9045 -0.4634
  975MOL0     H31562   5.127   6.957   9.834 -0.7022 -1.5721  1.5479
  975MOL0     H31563   5.034   7.108   9.831 -0.2800  1.4057  2.1829
  975MOL0     H31564   5.174   7.204   9.991 -1.4403 -0.7063  0.4716
  975MOL0     H31565   5.286   7.060   9.973  0.1918  1.3347  0.9118
  975MOL0     H31566   5.243   7.148   9.713 -4.0142  3.1809 -0.1264
  975MOL0     H31567   5.237   7.290   9.792 -1.4444 -0.2116 -1.9040
  975MOL0     H31568   5.461   7.289   9.739 -3.0773 -1.8845 -2.5439
  975MOL0     H31569   5.474   7.255   9.913  2.5872  1.3812 -0.8573
  975MOL0     H31570   5.470   7.045   9.672  0.7153 -1.4334  0.1853
  975MOL0     H31571   5.612   7.109   9.740 -0.2388  0.1603  0.1710
  975MOL0     H31572   5.539   7.007   9.966 -0.6693 -0.9737  0.7660
  975MOL0     H31573   5.415   6.925   9.862 -1.2142  1.9706  1.0968
  975MOL0     H31574   5.626   6.801   9.895 -2.7265  3.0277  1.9675
  975MOL0     H31575   5.718   6.936   9.824  0.7081  0.8126  0.7105
  975MOL0     H31576   5.402   6.723   9.731 -0.8680  0.5146 -1.5139
  975MOL0     H31577   5.313   6.630   9.489  0.9664  0.9105  2.7784
  975MOL0     H31578   5.441   6.597   9.364 -0.6255 -2.0833 -0.3075
  975MOL0     H31579   5.423   6.433   9.626  3.2237  0.2034  1.6916
  975MOL0     H31580   5.567   6.463   9.537  0.5270 -4.6612  1.2046
  975MOL0     H31581   5.489   6.343   9.337 -1.0503  0.3054 -0.1706
  975MOL0     H31582   5.321   6.364   9.372 -1.0342  1.8332  1.0583
  975MOL0     H31583   5.319   6.192   9.541  0.9592 -1.2141  1.2468
  975MOL0     H31584   5.494   6.186   9.568 -0.7767  1.5714  0.9781
  975MOL0     H31585   5.407   5.911   9.210  2.9984  1.5487 -0.6868
  975MOL0     H31586   5.373   5.717   9.123  1.3951  1.2529 -2.4413
  975MOL0     H31587   5.538   5.631   9.164 -0.2723  2.0263 -0.2049
  975MOL0     H31588   5.396   5.555   9.212  0.7097  0.6051  3.4233
  975MOL0     H31589   5.671   5.296   9.358 -0.9549 -1.4427 -0.2392
  975MOL0     H31590   5.786   5.098   9.422  3.2021 -1.7622  2.2516
  975MOL0     H31591   5.957   5.049   9.847  1.8538  0.1085 -0.3870
  975MOL0     H31592   5.803   4.962   9.815  0.3127 -0.4360 -0.2789
  975MOL0     H31593   6.095   4.886   9.747 -0.3874  1.2315  1.2342
  975MOL0     H31594   5.981   4.789   9.833  2.0755 -2.7879 -1.6557
  975MOL0     H31595   6.015   4.693   9.595 -1.2019 -1.0741 -0.1268
  975MOL0     H31596   5.948   4.842   9.539 -3.5259  1.4045  0.6838
  975MOL0     H31597   5.803   4.660   9.735  3.3911 -2.7877 -0.8922
  975MOL0     H31598   5.742   4.788   9.602 -1.1954 -2.1758 -3.9282
  975MOL0     H31599   5.839   4.507   9.573 -0.2488  1.4383  3.8131
  975MOL0     H31600   5.849   4.617   9.436  0.5610 -1.2445 -0.2100
  975MOL0     H31601   5.626   4.462   9.511 -0.6760  0.6183  0.9055
  975MOL0     H31602   5.584   4.624   9.572  1.9338  0.4297  1.1553
  975MOL0     H31603   5.656   4.532   9.285  1.2201 -2.5457  3.2578
  975MOL0     H31604   5.599   4.699   9.333 -0.0394  0.5173 -0.3037
  975MOL0     H31605   5.423   4.575   9.232  1.3606 -0.7853 -0.5911
  975MOL0     H31606   5.382   4.599   9.398 -1.0938  1.3627 -1.3034
  975MOL0     H31607   5.751   5.185   9.835  1.3164  1.4785  0.2551
  975MOL0     H31608   5.590   5.380   9.787 -3.2142  0.2009 -2.6935
  975MOL0     H31609   5.528   5.720   9.650 -0.9808  1.5176  1.5128
  975MOL0     H31610   5.490   5.970   9.617 -0.1741 -0.5314  0.8993
  975MOL0     H31611   5.052   6.658   9.883  0.5454 -4.0571  0.6839
  975MOL0     H31612   4.873   6.526   9.767 -0.9468 -0.9781 -0.5238
  975MOL0     H31613   4.573   6.175   9.962 -0.9592 -0.3618  0.6113
  975MOL0     H31614   4.518   5.955   9.817  1.0602  0.7477 -0.3130
  975MOL0     H31615   4.516   6.028   9.390 -2.3876  1.7270  0.9595
  975MOL0     H31616   4.456   5.861   9.395  4.0558 -1.7888  2.9619
  975MOL0     H31617   4.296   6.119   9.461 -0.6012 -1.2286  1.9497
  975MOL0     H31618   4.242   5.960   9.496 -1.9964 -0.3297 -0.3420
  975MOL0     H31619   4.266   5.897   9.252 -1.9153 -0.6877  0.2407
  975MOL0     H31620   4.295   6.073   9.222 -2.3867  0.7921 -0.8777
  975MOL0     H31621   4.045   5.962   9.353  0.5190  1.4016  1.0010
  975MOL0     H31622   4.052   6.046   9.186  1.6611 -0.5558 -1.2881
  975MOL0     H31623   4.055   6.353   9.471  1.0803 -0.7933  0.4252
  975MOL0     H31624   4.516   6.209   9.463  0.0586 -0.4733 -0.0974
  975MOL0     H31625   4.551   6.404   9.594 -2.2427 -0.2108 -0.8216
  976MOL0     O31626   6.540   8.788   1.287  0.9415  0.2350 -0.0679
  976MOL0     C31627   6.614   8.713   1.349 -0.0985 -0.6221  0.6605
  976MOL0     O31628   6.582   8.615   1.440 -0.3972  0.0279  0.2898
  976MOL0     C31629   6.448   8.607   1.477 -0.9904  0.2856 -0.1021
  976MOL0     C31630   6.351   8.568   1.384  0.7295 -0.0874  0.0147
  976MOL0     C31631   6.215   8.579   1.400 -0.4894 -0.1033 -0.9540
  976MOL0     C31632   6.179   8.617   1.527  0.4957  0.1398 -1.1867
  976MOL0     O31633   6.046   8.635   1.572 -0.9425  0.2176  0.1762
  976MOL0     C31634   5.930   8.609   1.484  0.4122  0.3164  0.3949
  976MOL0     C31635   5.806   8.641   1.571  0.2492  0.2412  0.2519
  976MOL0     C31636   5.762   8.524   1.658  0.6496  0.3650  0.2377
  976MOL0     C31637   5.858   8.502   1.779 -0.4332  0.8307 -0.1092
  976MOL0     C31638   5.967   8.389   1.747 -0.2618 -0.5927  0.7111
  976MOL0     C31639   6.042   8.334   1.876  0.1575  0.3880 -0.4842
  976MOL0     C31640   6.133   8.438   1.945 -0.4598 -0.6282  0.0417
  976MOL0     C31641   6.223   8.372   2.046  0.6109 -1.4921 -1.1257
  976MOL0     N31642   6.353   8.332   1.992 -0.3824  0.1493 -1.1272
  976MOL0     C31643   6.370   8.289   1.863  0.1922 -1.1505 -0.3314
  976MOL0     C31644   6.503   8.306   1.851  0.1674  0.5505  0.0800
  976MOL0     C31645   6.585   8.314   1.724  0.0901 -0.2649 -0.1118
  976MOL0     C31646   6.671   8.188   1.690  0.4211 -0.2784  0.3269
  976MOL0     C31647   6.774   8.227   1.589 -0.3193 -0.3005  0.6819
  976MOL0     C31648   6.867   8.341   1.625 -0.0415 -0.2866 -0.3805
  976MOL0     O31649   6.975   8.331   1.530 -0.9340  0.7315 -0.1351
  976MOL0     C31650   7.091   8.409   1.551  0.3760  0.7087  0.1515
  976MOL0     C31651   7.187   8.383   1.467 -0.8491  0.5725  0.1479
  976MOL0     C31652   7.312   8.442   1.481 -0.2267  0.6935  0.4680
  976MOL0     C31653   7.421   8.391   1.391 -0.1833  0.6392  0.1775
  976MOL0     C31654   7.331   8.527   1.586  0.6073  0.1713  0.5969
  976MOL0     C31655   7.464   8.588   1.601 -0.2712  0.8944  0.0680
  976MOL0     O31656   7.548   8.523   1.681  0.2554  0.4717 -0.2862
  976MOL0     C31657   7.641   8.600   1.745 -0.3823 -0.1727 -0.5524
  976MOL0     C31658   7.746   8.674   1.680 -0.0884 -0.2654  0.0144
  976MOL0     C31659   7.844   8.733   1.762 -0.1420  1.1218 -0.4627
  976MOL0     C31660   7.841   8.719   1.903  0.5714 -0.2512  0.9676
  976MOL0     O31661   7.942   8.765   1.986  0.2208  0.6934  0.1877
  976MOL0     C31662   8.051   8.832   1.934 -1.0217  0.2674  0.1288
  976MOL0     C31663   8.132   8.911   2.038 -0.3093 -0.2805 -0.9025
  976MOL0     C31664   8.261   8.966   1.976  0.1685 -0.3900 -0.5171
  976MOL0     C31665   8.255   9.121   1.936  0.8675 -0.2205 -0.6301
  976MOL0     C31666   8.190   9.139   1.795 -0.4423 -0.2521  0.0945
  976MOL0     C31667   8.214   9.287   1.729 -0.6770 -0.7878  0.4429
  976MOL0     C31668   8.143   9.297   1.601 -0.2723  0.0015 -0.0500
  976MOL0     C31669   8.150   9.436   1.541 -0.3343  0.1336  0.9981
  976MOL0    Cl31670   8.074   9.408   1.367 -0.0170 -0.0505 -0.2526
  976MOL0     C31671   7.727   8.664   1.957 -0.7200  0.6237  1.0753
  976MOL0     C31672   7.628   8.601   1.881  0.9464 -0.2733 -0.5990
  976MOL0     O31673   7.481   8.694   1.550 -0.3505 -0.5162  0.2093
  976MOL0     C31674   7.224   8.565   1.664  0.4592  0.5854 -0.4002
  976MOL0     C31675   7.092   8.509   1.646 -1.0801 -0.4885  0.4245
  976MOL0     N31676   6.563   8.350   1.967 -0.2193 -0.8454  0.8938
  976MOL0     N31677   6.470   8.370   2.050  0.2923  1.1045  0.1307
  976MOL0     C31678   6.275   8.652   1.630 -0.3967 -0.0075  0.7066
  976MOL0     C31679   6.408   8.649   1.602 -0.5348  0.5793  0.7875
  976MOL0     C31680   6.756   8.728   1.310  0.0283  0.0174  0.3732
  976MOL0     C31681   6.798   8.807   1.202  0.0370  0.5722 -0.1202
  976MOL0     C31682   6.926   8.812   1.158  0.9142 -0.2444 -0.5745
  976MOL0     C31683   7.026   8.731   1.205  0.0242  0.2050  0.1107
  976MOL0     O31684   7.163   8.730   1.196 -0.0551  0.0922 -0.0861
  976MOL0     C31685   7.230   8.829   1.116 -1.5031 -0.4158  0.0979
  976MOL0     C31686   7.372   8.767   1.086 -0.5906 -0.9718 -0.2718
  976MOL0     C31687   7.481   8.813   1.177  0.3187  0.0155 -0.9516
  976MOL0     C31688   7.608   8.755   1.138 -0.6995 -0.3561  0.7212
  976MOL0     C31689   7.675   8.806   1.015 -0.2866  0.7245 -0.3310
  976MOL0     C31690   7.709   8.833   0.902 -0.2699  0.0045 -0.1654
  976MOL0     C31691   6.981   8.640   1.300 -0.5168  0.6117  0.3780
  976MOL0     C31692   6.851   8.636   1.347 -1.0296 -0.6925 -0.7252
  976MOL0     H31693   6.388   8.530   1.289 -1.4080 -2.8880  0.1365
  976MOL0     H31694   6.151   8.544   1.319 -0.4448 -2.3935 -0.0650
  976MOL0     H31695   5.921   8.666   1.391  0.6705 -0.4379 -0.0993
  976MOL0     H31696   5.943   8.504   1.459 -0.1811  0.7340 -1.8699
  976MOL0     H31697   5.808   8.731   1.632  0.7750  0.8934 -0.7072
  976MOL0     H31698   5.724   8.653   1.499  1.1957  2.5084 -0.5321
  976MOL0     H31699   5.660   8.544   1.693  1.2665  2.0725  1.1924
  976MOL0     H31700   5.753   8.429   1.605  1.6493 -0.5835  1.6995
  976MOL0     H31701   5.893   8.600   1.812  1.0030  0.3054  0.0236
  976MOL0     H31702   5.800   8.469   1.866 -1.2267  3.0228  0.2450
  976MOL0     H31703   5.915   8.302   1.706 -0.8173  1.4375 -3.4365
  976MOL0     H31704   6.031   8.424   1.665 -1.8165 -1.7425 -1.0751
  976MOL0     H31705   5.963   8.309   1.947  0.0735 -1.7715 -1.2504
  976MOL0     H31706   6.081   8.233   1.858 -1.8787 -0.3782 -0.8777
  976MOL0     H31707   6.199   8.483   1.870 -0.9778  1.9459  1.0355
  976MOL0     H31708   6.087   8.523   1.994  0.8258 -1.0328  2.0661
  976MOL0     H31709   6.159   8.293   2.086  0.2558  0.4599  2.6403
  976MOL0     H31710   6.232   8.442   2.129  0.2401 -1.5236 -1.0566
  976MOL0     H31711   6.298   8.264   1.787  0.9288  2.3878 -2.3891
  976MOL0     H31712   6.514   8.324   1.642 -0.4318  0.4177  0.4184
  976MOL0     H31713   6.647   8.404   1.728 -0.5405  0.1290  2.3614
  976MOL0     H31714   6.602   8.108   1.662 -1.2700  1.5012 -0.8846
  976MOL0     H31715   6.719   8.158   1.784 -0.5518 -0.7867  0.6708
  976MOL0     H31716   6.716   8.243   1.497 -0.1697 -1.8425  0.2869
  976MOL0     H31717   6.843   8.145   1.568  2.3029  1.5681  1.5485
  976MOL0     H31718   6.915   8.340   1.723  0.6305  3.7359 -0.5029
  976MOL0     H31719   6.827   8.442   1.634 -2.5506 -1.3263  0.9036
  976MOL0     H31720   7.172   8.310   1.388  1.3666  0.0270  0.1772
  976MOL0     H31721   7.492   8.470   1.365  1.3321  0.0617  2.2906
  976MOL0     H31722   7.469   8.298   1.422 -1.9097 -0.8628 -1.3782
  976MOL0     H31723   7.371   8.351   1.302  0.1789 -1.0263  0.6820
  976MOL0     H31724   7.739   8.667   1.572  1.4298  1.1010 -0.2170
  976MOL0     H31725   7.931   8.771   1.709  1.6338 -0.8293  0.9196
  976MOL0     H31726   8.115   8.752   1.895 -1.5654 -1.0110  1.6945
  976MOL0     H31727   8.020   8.904   1.858  0.3543  1.6434  0.8152
  976MOL0     H31728   8.073   9.000   2.062  1.4119  0.7928 -0.4719
  976MOL0     H31729   8.147   8.841   2.121  0.9636  0.2011 -0.6980
  976MOL0     H31730   8.287   8.913   1.884 -0.1607 -2.8426  0.7273
  976MOL0     H31731   8.343   8.950   2.046  0.2718 -0.2262 -0.6011
  976MOL0     H31732   8.205   9.182   2.011  0.9829 -0.4722 -0.3474
  976MOL0     H31733   8.356   9.164   1.931  0.0374  1.8215 -0.7041
  976MOL0     H31734   8.083   9.125   1.813 -0.7497  1.4133 -0.2490
  976MOL0     H31735   8.238   9.069   1.726 -0.1477 -0.9275  0.9713
  976MOL0     H31736   8.176   9.361   1.800 -0.4089 -1.3372  1.1778
  976MOL0     H31737   8.319   9.303   1.702 -0.7996 -1.9156 -0.7740
  976MOL0     H31738   8.037   9.271   1.611 -1.5920  3.2225 -3.3498
  976MOL0     H31739   8.198   9.227   1.538  0.7669  1.6389 -1.0170
  976MOL0     H31740   8.258   9.457   1.546 -0.4169  0.8959 -0.0663
  976MOL0     H31741   8.090   9.510   1.594 -3.9633 -3.0835  1.8419
  976MOL0     H31742   7.750   8.655   2.063  3.4180 -0.9719  0.2512
  976MOL0     H31743   7.540   8.555   1.926 -0.6860  0.0080 -3.3110
  976MOL0     H31744   7.251   8.620   1.754  0.6131 -0.1997  0.0430
  976MOL0     H31745   7.005   8.547   1.698  0.1524  2.2802  0.6494
  976MOL0     H31746   6.247   8.678   1.731  4.1016  0.7534  1.9352
  976MOL0     H31747   6.479   8.674   1.681  1.6945 -1.9423 -0.2252
  976MOL0     H31748   6.726   8.871   1.152 -1.3448  1.1275  2.4175
  976MOL0     H31749   6.948   8.886   1.082 -1.4996 -0.6653 -1.7707
  976MOL0     H31750   7.177   8.856   1.024 -1.0582  2.0270  0.4846
  976MOL0     H31751   7.247   8.926   1.163  0.7902 -0.5284 -0.3983
  976MOL0     H31752   7.399   8.795   0.984 -0.4648  2.8967  0.6955
  976MOL0     H31753   7.363   8.658   1.092 -0.8046 -0.8687  3.5350
  976MOL0     H31754   7.464   8.783   1.281  2.0194 -0.4767 -0.7822
  976MOL0     H31755   7.486   8.922   1.184 -2.3407  0.2174 -1.1209
  976MOL0     H31756   7.585   8.648   1.141 -5.9477  0.5050  2.1161
  976MOL0     H31757   7.688   8.784   1.205  0.4344 -2.0589  0.1829
  976MOL0     H31758   7.726   8.876   0.805  1.5152 -0.8790 -0.2828
  976MOL0     H31759   7.060   8.566   1.317  1.5763  2.7871  0.7682
  976MOL0     H31760   6.829   8.546   1.402  2.9795 -3.4998 -3.1535
  977MOL0     O31761   2.773   1.402   2.027  0.3927  0.0565  0.5283
  977MOL0     C31762   2.827   1.293   2.002  0.3490 -0.2479 -0.8415
  977MOL0     O31763   2.796   1.208   1.891  0.9056  0.0100 -0.3455
  977MOL0     C31764   2.674   1.227   1.834  0.0355  0.7749  0.4546
  977MOL0     C31765   2.567   1.159   1.881  0.1456  0.4696 -0.3887
  977MOL0     C31766   2.436   1.184   1.835 -0.1452  0.4625 -0.4501
  977MOL0     C31767   2.419   1.279   1.734 -0.2532  0.3634 -0.1383
  977MOL0     O31768   2.288   1.304   1.698 -0.4623 -0.5473 -0.1258
  977MOL0     C31769   2.262   1.440   1.652  0.1160  0.4667  0.5085
  977MOL0     C31770   2.106   1.439   1.654  0.6670 -0.0407  0.0604
  977MOL0     C31771   2.053   1.560   1.586  0.9332 -1.1972 -0.4404
  977MOL0     C31772   1.899   1.534   1.581 -0.3914  0.2158 -0.1835
  977MOL0     C31773   1.827   1.568   1.714 -0.7636  0.4605  0.2042
  977MOL0     C31774   1.806   1.719   1.718  0.9479  0.3997 -0.1167
  977MOL0     C31775   1.858   1.791   1.848  0.7219 -0.2179  0.5093
  977MOL0     C31776   1.801   1.745   1.983 -0.6089  0.0815  0.2069
  977MOL0     N31777   1.652   1.729   1.987  0.4465  0.1398 -0.1160
  977MOL0     C31778   1.572   1.839   1.968 -0.2302 -0.2107 -0.0181
  977MOL0     C31779   1.454   1.805   2.036  0.0536 -0.3800  0.1542
  977MOL0     C31780   1.328   1.884   2.058  0.4054  0.1505 -0.0959
  977MOL0     C31781   1.352   2.023   2.105  0.3193  0.6940  0.7180
  977MOL0     C31782   1.419   2.035   2.237 -0.3548 -0.0585 -0.3379
  977MOL0     C31783   1.418   2.179   2.301  0.2171 -0.3638 -0.0707
  977MOL0     O31784   1.289   2.246   2.299 -0.2457 -0.0915 -0.6328
  977MOL0     C31785   1.270   2.352   2.383  0.2523 -0.1862 -0.2385
  977MOL0     C31786   1.138   2.375   2.419  0.5676 -0.0387 -0.3927
  977MOL0     C31787   1.099   2.479   2.508  0.6288  0.4020 -0.4431
  977MOL0     C31788   0.949   2.509   2.519 -0.6817  0.1079  0.0105
  977MOL0     C31789   1.206   2.560   2.568  0.6221 -0.6278 -0.7285
  977MOL0     C31790   1.187   2.665   2.678  0.9077  0.0665 -0.5485
  977MOL0     O31791   1.058   2.675   2.743 -0.2181 -0.1029 -0.9830
  977MOL0     C31792   1.066   2.740   2.858 -0.5690 -0.7090 -0.5063
  977MOL0     C31793   1.007   2.861   2.864 -0.0468 -0.3112  0.0673
  977MOL0     C31794   1.009   2.940   2.983 -0.0533  1.2296 -0.1096
  977MOL0     C31795   1.075   2.891   3.096  0.0554 -0.3194  0.2931
  977MOL0     O31796   1.050   2.962   3.204 -0.3676  0.5458  0.4166
  977MOL0     C31797   1.117   2.926   3.319  0.8284 -0.2390  0.0802
  977MOL0     C31798   1.085   3.018   3.429  0.6493  1.6823 -0.2691
  977MOL0     C31799   1.127   3.158   3.395  0.4799 -0.9217  1.3634
  977MOL0     C31800   1.266   3.171   3.443 -0.9056 -0.2820 -0.1792
  977MOL0     C31801   1.302   3.309   3.492 -0.2190 -0.6301  0.4634
  977MOL0     C31802   1.459   3.331   3.531 -0.3242  1.1256  0.6262
  977MOL0     C31803   1.503   3.466   3.556 -0.1190  0.3180  0.3467
  977MOL0     C31804   1.513   3.537   3.425  0.4302  0.6746 -0.4714
  977MOL0    Cl31805   1.491   3.709   3.436 -0.1817  0.0061  0.0507
  977MOL0     C31806   1.140   2.765   3.087 -0.7562  0.1986 -0.5893
  977MOL0     C31807   1.128   2.677   2.970 -1.0123 -1.2779 -0.7660
  977MOL0     O31808   1.284   2.733   2.714 -0.0084  0.3036 -0.0008
  977MOL0     C31809   1.336   2.522   2.529  0.5432 -0.7504  0.7681
  977MOL0     C31810   1.369   2.433   2.436  0.0282 -0.4918  0.4017
  977MOL0     N31811   1.469   1.682   2.104 -0.4849  0.4961 -0.0112
  977MOL0     N31812   1.588   1.639   2.072  0.5079 -0.4732  0.0826
  977MOL0     C31813   2.535   1.339   1.675 -0.2382  0.5765 -0.5372
  977MOL0     C31814   2.659   1.318   1.724 -0.5089  0.0505 -0.3707
  977MOL0     C31815   2.944   1.272   2.085 -1.1201 -0.1492 -0.4426
  977MOL0     C31816   3.072   1.253   2.015 -0.1023 -1.4687 -0.2046
  977MOL0     C31817   3.178   1.197   2.081 -0.5067 -0.3135 -0.9180
  977MOL0     C31818   3.176   1.172   2.224 -0.2614 -0.3696  0.2481
  977MOL0     O31819   3.279   1.119   2.292 -0.0873 -0.5293 -0.1038
  977MOL0     C31820   3.249   1.012   2.376 -1.2844 -0.6952 -0.0314
  977MOL0     C31821   3.374   0.920   2.410  0.1995 -0.1866  0.3779
  977MOL0     C31822   3.391   0.819   2.284  0.7376  0.5922 -0.7804
  977MOL0     C31823   3.304   0.702   2.305  0.3188 -0.0547 -0.4613
  977MOL0     C31824   3.316   0.628   2.180  0.2693 -0.0933 -0.5334
  977MOL0     C31825   3.323   0.565   2.079 -0.3523 -0.0354  0.5434
  977MOL0     C31826   3.057   1.201   2.296  0.9987 -0.6418 -0.5071
  977MOL0     C31827   2.939   1.238   2.220  0.1785 -0.1386 -0.5595
  977MOL0     H31828   2.573   1.087   1.962 -0.4556 -0.6749 -1.3367
  977MOL0     H31829   2.362   1.128   1.891  1.9685 -2.7385 -0.6026
  977MOL0     H31830   2.312   1.514   1.715  3.9970 -1.7940  0.3820
  977MOL0     H31831   2.301   1.442   1.550 -0.3280 -0.9270  0.2959
  977MOL0     H31832   2.062   1.353   1.603  0.0372  1.0239 -1.2659
  977MOL0     H31833   2.063   1.434   1.754  1.1316 -2.2185  0.2032
  977MOL0     H31834   2.085   1.641   1.652  0.5904  1.4915 -3.3239
  977MOL0     H31835   2.108   1.573   1.492  0.7747 -1.4869 -0.5763
  977MOL0     H31836   1.861   1.596   1.500 -1.5538 -3.1434 -2.4184
  977MOL0     H31837   1.867   1.432   1.559 -0.4551  0.1899  0.0252
  977MOL0     H31838   1.732   1.515   1.729 -0.1284 -0.2717  1.9365
  977MOL0     H31839   1.876   1.528   1.803 -2.2451 -0.6324  0.5733
  977MOL0     H31840   1.839   1.767   1.626  1.6394  0.2273  0.0368
  977MOL0     H31841   1.697   1.724   1.711  0.8761  1.6426  1.4039
  977MOL0     H31842   1.966   1.773   1.845  1.0684  1.7512 -2.1983
  977MOL0     H31843   1.842   1.898   1.835 -0.1560 -0.2918  0.8874
  977MOL0     H31844   1.844   1.804   2.064  1.5703  0.4597 -1.1431
  977MOL0     H31845   1.852   1.651   2.005  0.4033  1.2754  3.4855
  977MOL0     H31846   1.600   1.931   1.918  1.2225 -0.1025  0.9355
  977MOL0     H31847   1.263   1.888   1.969 -2.0852  0.7149  1.6519
  977MOL0     H31848   1.271   1.830   2.134 -0.2278 -4.2302 -3.2187
  977MOL0     H31849   1.263   2.087   2.098  0.5290  0.9297  0.1676
  977MOL0     H31850   1.412   2.072   2.028 -0.9576  0.4355 -0.4972
  977MOL0     H31851   1.521   2.003   2.215 -0.5470 -0.1527 -1.1041
  977MOL0     H31852   1.385   1.972   2.321  3.1372 -1.6448  0.0508
  977MOL0     H31853   1.496   2.241   2.257  1.5326 -1.1188  1.1251
  977MOL0     H31854   1.459   2.167   2.402  0.0365 -0.4941 -0.0124
  977MOL0     H31855   1.059   2.322   2.368 -1.9365  2.6939  0.4090
  977MOL0     H31856   0.915   2.610   2.492  0.3178  0.0856 -1.4563
  977MOL0     H31857   0.898   2.447   2.445  1.1499 -2.3516  0.6784
  977MOL0     H31858   0.919   2.471   2.617  2.1831 -1.8646  0.2403
  977MOL0     H31859   0.954   2.905   2.780  0.9700  1.6661  0.3860
  977MOL0     H31860   0.952   3.033   2.991 -2.7699 -0.3679  0.2945
  977MOL0     H31861   1.090   2.823   3.346 -2.0275  0.5742  0.6690
  977MOL0     H31862   1.225   2.935   3.307  0.6996 -1.8371 -3.8328
  977MOL0     H31863   0.978   3.020   3.453 -0.1970  1.8249 -3.6240
  977MOL0     H31864   1.123   2.978   3.523  0.9224 -1.7110 -1.6944
  977MOL0     H31865   1.056   3.233   3.429 -1.1653 -1.1785 -1.2130
  977MOL0     H31866   1.118   3.170   3.286 -2.7800  0.3716  1.6937
  977MOL0     H31867   1.298   3.101   3.521  3.8569  1.3513 -0.2987
  977MOL0     H31868   1.336   3.151   3.361  0.2816  2.7169 -0.0516
  977MOL0     H31869   1.247   3.329   3.584 -2.2023  2.2767 -1.1903
  977MOL0     H31870   1.257   3.383   3.425  1.6135  0.5661  0.4735
  977MOL0     H31871   1.479   3.268   3.619  2.9842  2.0531  0.6625
  977MOL0     H31872   1.522   3.297   3.448 -0.3440  1.8890  0.2952
  977MOL0     H31873   1.601   3.465   3.604 -0.0641 -2.4803  0.3385
  977MOL0     H31874   1.448   3.513   3.638  0.9114  1.4552  0.4154
  977MOL0     H31875   1.437   3.506   3.351  1.9240 -1.5593 -1.1729
  977MOL0     H31876   1.606   3.503   3.379  0.1306  1.3088 -1.5914
  977MOL0     H31877   1.191   2.730   3.176 -0.6909 -2.3545 -1.5617
  977MOL0     H31878   1.171   2.577   2.975 -0.3707 -0.9304  1.5690
  977MOL0     H31879   1.408   2.590   2.574 -1.8296  2.2215  0.4195
  977MOL0     H31880   1.467   2.422   2.391 -0.3290  3.4020 -1.7636
  977MOL0     H31881   2.520   1.414   1.598  1.1651  3.6059  1.8839
  977MOL0     H31882   2.749   1.365   1.685  0.2310 -0.3411  0.7991
  977MOL0     H31883   3.083   1.271   1.909 -0.1929 -1.0451 -0.1457
  977MOL0     H31884   3.272   1.191   2.028  0.9021  1.7139  1.1287
  977MOL0     H31885   3.211   1.043   2.474 -0.7768 -1.1737  0.3226
  977MOL0     H31886   3.177   0.950   2.323 -0.8407 -0.8935 -0.4000
  977MOL0     H31887   3.365   0.858   2.499 -0.9347 -2.1413 -1.0291
  977MOL0     H31888   3.459   0.988   2.421 -0.5958  0.8904  0.0835
  977MOL0     H31889   3.497   0.793   2.274  1.1726  1.2303  1.5525
  977MOL0     H31890   3.364   0.868   2.190  0.5666  0.9146 -0.5663
  977MOL0     H31891   3.203   0.735   2.333 -0.3111 -2.2143  0.0364
  977MOL0     H31892   3.336   0.627   2.378 -0.7735  0.1718  0.2683
  977MOL0     H31893   3.339   0.507   1.990 -0.0364 -0.0844  0.6320
  977MOL0     H31894   3.054   1.175   2.401  0.7387 -2.0135 -0.8373
  977MOL0     H31895   2.850   1.245   2.282 -0.3128 -1.6140 -1.0580
  978MOL0     O31896   4.634   6.643   0.010  0.4534  0.3335  0.0686
  978MOL0     C31897   4.617   6.628  -0.106  0.1018  0.4046  1.0990
  978MOL0     O31898   4.497   6.575  -0.164 -0.1698 -0.5512 -0.1814
  978MOL0     C31899   4.403   6.524  -0.079 -0.4244  0.1760 -0.2218
  978MOL0     C31900   4.396   6.386  -0.062 -0.2836  0.5830 -0.9967
  978MOL0     C31901   4.290   6.339   0.021  1.3448  0.4366  1.1549
  978MOL0     C31902   4.208   6.427   0.088 -0.5533  0.0882 -0.9346
  978MOL0     O31903   4.116   6.388   0.184  0.2516 -0.2036  0.1503
  978MOL0     C31904   3.991   6.336   0.140 -0.1048  0.6691 -0.5164
  978MOL0     C31905   3.945   6.227   0.243 -0.1136  0.5111 -0.3223
  978MOL0     C31906   4.037   6.102   0.246  0.4687 -0.5682  0.3320
  978MOL0     C31907   3.948   5.994   0.318  1.0289 -0.4247 -0.1717
  978MOL0     C31908   3.966   6.021   0.469 -0.8163  1.1112  0.9569
  978MOL0     C31909   4.038   5.901   0.525 -0.2699  0.4591 -0.1237
  978MOL0     C31910   4.033   5.905   0.682  0.7151 -0.1858 -0.0778
  978MOL0     C31911   4.104   5.790   0.739 -0.6163  0.0653 -0.1551
  978MOL0     N31912   4.113   5.808   0.888  0.2793  0.0567  0.1165
  978MOL0     C31913   4.059   5.728   0.975  0.0895  0.3748  0.5996
  978MOL0     C31914   4.089   5.771   1.097  0.1323  0.6049 -0.0232
  978MOL0     C31915   4.034   5.705   1.216  0.2329  0.2039 -0.3150
  978MOL0     C31916   4.152   5.647   1.280 -1.0129 -0.0272 -0.3925
  978MOL0     C31917   4.248   5.743   1.350 -0.6059  0.2840 -0.4112
  978MOL0     C31918   4.380   5.784   1.278  0.3001 -0.2664  0.3660
  978MOL0     O31919   4.488   5.776   1.362 -0.3316 -0.4012 -0.7706
  978MOL0     C31920   4.616   5.778   1.317 -0.5198  0.3115  1.1845
  978MOL0     C31921   4.712   5.750   1.406 -0.3864 -0.5281 -0.4778
  978MOL0     C31922   4.849   5.738   1.364 -0.4314  0.0025  0.4908
  978MOL0     C31923   4.953   5.706   1.465 -0.6014 -0.2946 -0.9561
  978MOL0     C31924   4.883   5.725   1.232 -0.6134  0.4249  0.1884
  978MOL0     C31925   5.005   5.662   1.184  1.1607  0.9572  0.9490
  978MOL0     O31926   4.986   5.564   1.091 -0.2769  0.6108 -0.3447
  978MOL0     C31927   5.080   5.526   1.003 -0.1598 -0.0671  0.2332
  978MOL0     C31928   5.064   5.394   0.958 -0.0562  0.3025 -0.0211
  978MOL0     C31929   5.153   5.336   0.866  0.4746  1.1913 -0.2216
  978MOL0     C31930   5.269   5.410   0.821 -0.3178  0.0532  0.4367
  978MOL0     O31931   5.355   5.335   0.744  0.4668 -0.4223 -0.0962
  978MOL0     C31932   5.487   5.357   0.785 -0.3127 -0.6927 -0.9542
  978MOL0     C31933   5.564   5.230   0.750 -0.2095  0.4696 -0.2664
  978MOL0     C31934   5.699   5.218   0.829  0.0616  0.2989 -0.1360
  978MOL0     C31935   5.678   5.188   0.976 -0.6959  0.1962  0.4767
  978MOL0     C31936   5.817   5.196   1.040 -0.4163 -0.4357 -2.1180
  978MOL0     C31937   5.807   5.207   1.190  0.1789 -0.2586  0.0962
  978MOL0     C31938   5.946   5.194   1.263 -1.0594  0.1781 -0.1835
  978MOL0     C31939   5.934   5.200   1.416 -0.2259 -0.4577  0.8730
  978MOL0    Cl31940   5.841   5.047   1.460  0.2864  0.1092  0.2581
  978MOL0     C31941   5.291   5.544   0.861  0.0512 -0.1640 -0.2625
  978MOL0     C31942   5.191   5.595   0.952  0.3468 -0.6662  0.0958
  978MOL0     O31943   5.114   5.686   1.225  0.7869  0.2547  0.0940
  978MOL0     C31944   4.785   5.765   1.134  0.2459  0.5233 -0.7647
  978MOL0     C31945   4.650   5.785   1.180 -0.4105 -0.2776 -0.3090
  978MOL0     N31946   4.157   5.893   1.079  0.0126 -0.4377  0.2785
  978MOL0     N31947   4.166   5.917   0.945  1.2667 -0.5818 -0.5977
  978MOL0     C31948   4.223   6.568   0.073  0.1854 -0.9720  0.8057
  978MOL0     C31949   4.321   6.618  -0.007  0.2568 -0.0801 -0.5604
  978MOL0     C31950   4.731   6.658  -0.199  0.2148 -0.4745  1.1462
  978MOL0     C31951   4.860   6.661  -0.148  0.1219  0.1357 -0.0442
  978MOL0     C31952   4.971   6.695  -0.216  0.2960  0.2476  0.5151
  978MOL0     C31953   4.962   6.720  -0.358  0.5935 -0.6719 -0.5460
  978MOL0     O31954   5.071   6.772  -0.415  0.2817  0.5152  0.1102
  978MOL0     C31955   5.152   6.672  -0.480 -0.4724 -0.0030  0.4207
  978MOL0     C31956   5.272   6.738  -0.533 -0.0301 -0.3987 -0.5941
  978MOL0     C31957   5.362   6.818  -0.436  0.4387  0.2241  0.1327
  978MOL0     C31958   5.463   6.919  -0.502  1.0345  0.6417  0.8225
  978MOL0     C31959   5.527   6.863  -0.625 -0.5091 -0.3450  0.2166
  978MOL0     C31960   5.566   6.817  -0.731  0.1667 -0.6273 -0.0428
  978MOL0     C31961   4.829   6.706  -0.417 -1.7150 -0.4030  0.7816
  978MOL0     C31962   4.717   6.667  -0.340  0.1700 -0.2401 -1.1171
  978MOL0     H31963   4.474   6.328  -0.109  0.5330 -1.5257  2.5576
  978MOL0     H31964   4.265   6.234   0.021  1.9898  0.1903 -1.9926
  978MOL0     H31965   3.928   6.424   0.129  1.7619  2.1400  0.1057
  978MOL0     H31966   4.005   6.291   0.041  0.0959  2.3989 -1.3007
  978MOL0     H31967   3.950   6.259   0.347  2.2879 -0.7640  0.0368
  978MOL0     H31968   3.842   6.213   0.211  0.1627  2.4841 -2.3207
  978MOL0     H31969   4.057   6.076   0.141  1.0620  0.7348  0.1050
  978MOL0     H31970   4.133   6.107   0.297  1.6231 -1.5950 -1.6423
  978MOL0     H31971   3.844   6.009   0.289  0.6482  0.6500  1.6070
  978MOL0     H31972   3.959   5.892   0.279 -3.7038 -1.0150 -0.5226
  978MOL0     H31973   4.029   6.105   0.500  1.7346 -1.0733  2.2539
  978MOL0     H31974   3.866   6.034   0.511 -2.5082  1.0685 -2.7446
  978MOL0     H31975   3.984   5.809   0.499  1.0664 -0.3233 -0.2211
  978MOL0     H31976   4.142   5.897   0.491 -0.2199 -0.9725  0.1209
  978MOL0     H31977   4.072   6.000   0.717  2.0813 -1.2052  1.3118
  978MOL0     H31978   3.930   5.897   0.717  1.1506 -2.9531  0.8615
  978MOL0     H31979   4.207   5.786   0.700  0.1946  1.8566  1.6387
  978MOL0     H31980   4.062   5.696   0.703  0.2761 -0.3336 -0.2002
  978MOL0     H31981   3.982   5.652   0.961  0.8285 -0.0017 -1.7845
  978MOL0     H31982   3.980   5.768   1.287 -1.5794 -0.0779 -1.3787
  978MOL0     H31983   3.958   5.629   1.196 -1.5306  2.4005 -2.7789
  978MOL0     H31984   4.207   5.583   1.211  2.2363  1.5734  0.5366
  978MOL0     H31985   4.109   5.577   1.353 -1.4504 -1.0954 -1.6489
  978MOL0     H31986   4.276   5.689   1.442 -2.4965 -1.1999 -0.6471
  978MOL0     H31987   4.196   5.828   1.395 -0.8848  0.1479 -0.4778
  978MOL0     H31988   4.359   5.889   1.254 -2.4412 -0.0672  2.8777
  978MOL0     H31989   4.405   5.735   1.184  1.7524  0.5294  0.3092
  978MOL0     H31990   4.690   5.735   1.511  5.3104  0.6045  1.2288
  978MOL0     H31991   5.038   5.772   1.441 -1.4022  0.3183 -2.2279
  978MOL0     H31992   4.912   5.722   1.565  0.0200  2.3851 -1.0474
  978MOL0     H31993   4.997   5.605   1.460  0.2804 -0.1686  2.1405
  978MOL0     H31994   4.982   5.342   1.006 -0.7409  1.2295 -0.1739
  978MOL0     H31995   5.134   5.235   0.830 -2.1366  1.0932  1.1636
  978MOL0     H31996   5.539   5.436   0.730  0.2674 -1.2631 -1.2425
  978MOL0     H31997   5.498   5.389   0.889 -0.8303 -0.8069 -0.8664
  978MOL0     H31998   5.509   5.142   0.782  0.8942 -0.9959 -2.1739
  978MOL0     H31999   5.583   5.227   0.642 -1.9879  1.4462 -0.6596
  978MOL0     H32000   5.756   5.311   0.821  1.9335 -0.9149 -1.7564
  978MOL0     H32001   5.761   5.139   0.786  3.5850  3.4144 -1.2691
  978MOL0     H32002   5.604   5.260   1.015 -2.3874 -0.0131 -2.0721
  978MOL0     H32003   5.641   5.086   0.988  2.7372 -1.4793 -1.8861
  978MOL0     H32004   5.862   5.295   1.023 -0.7662  0.3345  0.8395
  978MOL0     H32005   5.885   5.121   1.002  0.8454 -1.4066  1.6131
  978MOL0     H32006   5.753   5.298   1.217 -3.3496 -2.2050  0.2329
  978MOL0     H32007   5.744   5.121   1.215  0.3008 -1.4168 -3.1285
  978MOL0     H32008   6.015   5.275   1.237  1.8946 -1.7588  1.1520
  978MOL0     H32009   6.003   5.107   1.230 -0.4657 -0.7632  2.9745
  978MOL0     H32010   5.881   5.292   1.443 -1.1252 -0.2910 -1.2226
  978MOL0     H32011   6.038   5.190   1.451 -0.7947 -1.8846  2.2567
  978MOL0     H32012   5.377   5.607   0.842 -1.6089  2.2606 -0.1764
  978MOL0     H32013   5.222   5.686   1.003  3.5820 -3.7042  4.3486
  978MOL0     H32014   4.824   5.751   1.034  1.4325 -5.8424  0.1690
  978MOL0     H32015   4.583   5.811   1.099  1.2292 -4.6647 -3.4617
  978MOL0     H32016   4.148   6.635   0.114 -0.0248  0.1674 -1.3023
  978MOL0     H32017   4.348   6.722  -0.019 -1.3377  0.6460  1.5919
  978MOL0     H32018   4.881   6.643  -0.043  1.5830  2.5451  0.1555
  978MOL0     H32019   5.070   6.702  -0.170  1.1497 -0.3600 -1.1413
  978MOL0     H32020   5.172   6.595  -0.405 -1.8221 -3.3654 -2.4013
  978MOL0     H32021   5.098   6.622  -0.561  3.7195 -2.8598 -0.9556
  978MOL0     H32022   5.229   6.793  -0.617 -1.6555 -0.3477  0.2511
  978MOL0     H32023   5.336   6.663  -0.581 -1.5682  1.0078 -5.3764
  978MOL0     H32024   5.423   6.738  -0.394  0.3721 -0.5585 -1.2212
  978MOL0     H32025   5.302   6.868  -0.359  1.9570  2.8735 -0.2718
  978MOL0     H32026   5.540   6.938  -0.426 -0.8540 -1.7102  3.5292
  978MOL0     H32027   5.410   7.010  -0.532 -2.0519 -1.6564 -1.3613
  978MOL0     H32028   5.578   6.776  -0.829 -2.6429  1.7514 -1.5429
  978MOL0     H32029   4.828   6.708  -0.526  1.0388  0.8029  0.6910
  978MOL0     H32030   4.613   6.656  -0.369 -0.5845 -0.4122  1.3843
  979MOL0     O32031   7.932   7.552   6.924 -0.0845 -0.1446  0.8346
  979MOL0     C32032   7.922   7.616   7.026  0.1779 -0.0065  0.4834
  979MOL0     O32033   7.809   7.639   7.097  0.2098  0.4832 -1.0004
  979MOL0     C32034   7.697   7.559   7.061 -0.0767  0.5978  0.7039
  979MOL0     C32035   7.571   7.610   7.032 -0.0949 -0.1861 -0.5292
  979MOL0     C32036   7.462   7.531   7.012  0.7460 -0.5903  0.1658
  979MOL0     C32037   7.475   7.394   6.999  0.1631  0.4252  1.1278
  979MOL0     O32038   7.371   7.314   6.958 -0.6109  0.2039  0.7777
  979MOL0     C32039   7.325   7.328   6.822 -0.0466 -0.2488  0.1264
  979MOL0     C32040   7.445   7.295   6.725 -0.2835 -0.0608  0.2187
  979MOL0     C32041   7.381   7.261   6.583  0.8065 -0.2073  1.5660
  979MOL0     C32042   7.473   7.188   6.491 -0.2420  0.5339 -0.6499
  979MOL0     C32043   7.595   7.275   6.445  0.4683  0.3123  0.9321
  979MOL0     C32044   7.682   7.170   6.375 -0.1235 -0.4957 -0.4753
  979MOL0     C32045   7.825   7.229   6.342  0.4965  0.2448 -0.3160
  979MOL0     C32046   7.925   7.126   6.290 -0.6700  0.2309  0.0754
  979MOL0     N32047   7.878   7.085   6.157  0.6445 -0.5563 -0.0591
  979MOL0     C32048   7.879   7.156   6.037 -0.0223 -0.1845 -0.2566
  979MOL0     C32049   7.805   7.089   5.946  0.0823  0.9585  0.4754
  979MOL0     C32050   7.790   7.125   5.802  1.1151 -0.8649  0.2608
  979MOL0     C32051   7.904   7.074   5.713 -0.9398  1.0515 -0.3288
  979MOL0     C32052   8.025   7.164   5.707 -0.9407 -0.5462  1.3163
  979MOL0     C32053   8.129   7.101   5.613  0.8811 -0.2333 -0.0672
  979MOL0     O32054   8.226   7.197   5.563  0.1707  0.1628  0.2210
  979MOL0     C32055   8.346   7.183   5.618 -0.2651  0.3352 -0.4838
  979MOL0     C32056   8.398   7.290   5.702 -0.3837  0.5623 -0.0722
  979MOL0     C32057   8.526   7.294   5.744  1.0140 -0.7795  0.7936
  979MOL0     C32058   8.584   7.413   5.828  0.9503 -0.2952 -0.1414
  979MOL0     C32059   8.610   7.178   5.711  0.0826 -0.1516  0.5324
  979MOL0     C32060   8.744   7.146   5.769  0.6037 -0.5954 -0.1922
  979MOL0     O32061   8.815   7.044   5.719 -0.1168  0.2952 -0.4870
  979MOL0     C32062   8.946   7.014   5.766 -0.7278 -0.0088  0.3094
  979MOL0     C32063   9.053   7.008   5.674 -0.5504  0.1246 -0.3382
  979MOL0     C32064   9.182   7.002   5.728  0.0479 -0.1892  0.4197
  979MOL0     C32065   9.202   6.973   5.865 -0.5590  0.4902  0.2364
  979MOL0     O32066   9.331   6.950   5.912  0.2771  0.1607  0.2868
  979MOL0     C32067   9.424   7.059   5.925 -0.1861  0.7000 -0.1083
  979MOL0     C32068   9.351   7.165   6.005 -0.0202 -0.0930  0.7658
  979MOL0     C32069   9.452   7.265   6.053 -0.5616 -0.0621  0.2324
  979MOL0     C32070   9.385   7.388   6.117 -0.4694 -0.3476 -0.5293
  979MOL0     C32071   9.481   7.490   6.169 -0.0574  0.2689  1.7541
  979MOL0     C32072   9.431   7.602   6.251 -0.1070 -0.7656  0.1777
  979MOL0     C32073   9.535   7.709   6.259  0.0117  0.3643 -0.3143
  979MOL0     C32074   9.547   7.795   6.133  0.4418  0.1269 -0.3089
  979MOL0    Cl32075   9.646   7.948   6.180 -0.1533  0.7961  0.0869
  979MOL0     C32076   9.096   6.962   5.948  0.1439  1.0576  1.3828
  979MOL0     C32077   8.970   6.988   5.899 -0.5120  0.0359 -0.7668
  979MOL0     O32078   8.789   7.218   5.858 -0.2455 -1.0296  0.3932
  979MOL0     C32079   8.558   7.075   5.618  0.9566 -0.9908 -0.4312
  979MOL0     C32080   8.427   7.083   5.583  0.4255 -0.7184 -0.9500
  979MOL0     N32081   7.776   6.976   6.012 -0.0074 -0.2757 -0.7758
  979MOL0     N32082   7.822   6.973   6.135 -0.5468  0.0818  0.5283
  979MOL0     C32083   7.599   7.335   7.024  0.6996 -0.4722 -0.8287
  979MOL0     C32084   7.707   7.414   7.056  0.3572  0.7685  0.8681
  979MOL0     C32085   8.041   7.682   7.071 -0.1971 -0.4515  0.5771
  979MOL0     C32086   8.073   7.693   7.205  0.7339  0.1174  0.8608
  979MOL0     C32087   8.190   7.756   7.258  0.3832 -0.6121  0.9215
  979MOL0     C32088   8.285   7.807   7.175 -0.9714 -0.2841  0.2974
  979MOL0     O32089   8.410   7.860   7.213  0.6717  0.3384  0.5073
  979MOL0     C32090   8.409   7.915   7.347 -0.6405  0.7187 -0.0229
  979MOL0     C32091   8.525   8.002   7.360 -0.2108  1.2748  0.7482
  979MOL0     C32092   8.569   8.022   7.507  0.1156  0.5557 -0.3528
  979MOL0     C32093   8.691   7.934   7.554 -0.0211 -0.4039 -0.1755
  979MOL0     C32094   8.815   7.966   7.475 -0.1354  0.4944 -0.6662
  979MOL0     C32095   8.913   7.991   7.419 -1.3599  0.8802  0.0598
  979MOL0     C32096   8.249   7.793   7.038 -0.6647  1.6950  0.9336
  979MOL0     C32097   8.139   7.732   6.978  0.4721  0.0706  0.1356
  979MOL0     H32098   7.567   7.719   7.037  2.7232 -0.0530  3.3192
  979MOL0     H32099   7.368   7.578   6.984  2.0416  3.7988  2.3171
  979MOL0     H32100   7.245   7.256   6.803  1.6337 -1.8588 -1.3183
  979MOL0     H32101   7.291   7.430   6.803 -0.2466  0.1862  2.4617
  979MOL0     H32102   7.522   7.372   6.716 -0.7482  0.6908  2.1281
  979MOL0     H32103   7.494   7.204   6.759  2.1491 -0.3774 -3.5895
  979MOL0     H32104   7.294   7.196   6.594  0.2188  0.3287  0.2131
  979MOL0     H32105   7.350   7.356   6.538  1.5562 -0.6878 -0.0336
  979MOL0     H32106   7.497   7.093   6.538 -2.1440  0.8828  1.1414
  979MOL0     H32107   7.414   7.167   6.401  0.9148  2.4307 -1.9376
  979MOL0     H32108   7.548   7.339   6.370  1.5771 -0.3083 -0.3232
  979MOL0     H32109   7.643   7.331   6.525  0.5234 -0.7319  1.6528
  979MOL0     H32110   7.700   7.084   6.440  0.6468 -0.4840 -0.6691
  979MOL0     H32111   7.634   7.150   6.279  0.4632  0.7869 -1.0578
  979MOL0     H32112   7.811   7.295   6.256  2.2266  0.0523 -0.7835
  979MOL0     H32113   7.851   7.287   6.431  4.1335  0.8730 -1.6464
  979MOL0     H32114   7.946   7.041   6.355  2.3825 -1.6305 -2.9776
  979MOL0     H32115   8.023   7.168   6.266 -1.4927  2.1007 -0.2085
  979MOL0     H32116   7.929   7.252   6.025 -0.5774  0.8062  3.8134
  979MOL0     H32117   7.702   7.072   5.764  0.1536 -0.0768  1.2892
  979MOL0     H32118   7.755   7.228   5.791  0.2585 -0.8093  2.7629
  979MOL0     H32119   7.862   7.056   5.613 -1.6736 -0.8498  0.2686
  979MOL0     H32120   7.944   6.976   5.740  0.0354  0.9888 -1.8778
  979MOL0     H32121   8.071   7.183   5.805 -4.6593 -3.1729  3.8346
  979MOL0     H32122   7.990   7.256   5.661 -2.2776 -1.8949 -0.5062
  979MOL0     H32123   8.087   7.061   5.520  3.4153  1.8368 -2.2820
  979MOL0     H32124   8.185   7.023   5.664  0.2679  0.2190  1.3548
  979MOL0     H32125   8.328   7.365   5.736 -0.7512  0.3261 -0.2984
  979MOL0     H32126   8.615   7.378   5.927  0.1679  0.4302  0.3700
  979MOL0     H32127   8.665   7.462   5.773  1.1417 -0.2942  0.1408
  979MOL0     H32128   8.503   7.480   5.856 -0.8039 -0.9382 -3.2447
  979MOL0     H32129   9.036   7.040   5.572  0.0004  2.3599  0.2268
  979MOL0     H32130   9.272   7.013   5.668  1.5107  0.8091  2.6302
  979MOL0     H32131   9.515   7.016   5.967 -1.9780 -1.3009  2.0693
  979MOL0     H32132   9.455   7.107   5.832 -0.8331  2.6382  0.6174
  979MOL0     H32133   9.284   7.221   5.939  0.7647 -0.1421 -0.0925
  979MOL0     H32134   9.313   7.105   6.089  0.8182  2.4364  3.1081
  979MOL0     H32135   9.521   7.297   5.975 -0.3338  1.8612  1.1538
  979MOL0     H32136   9.511   7.214   6.129  0.9036  2.0695  0.6258
  979MOL0     H32137   9.337   7.439   6.033 -0.1642  1.9306  0.5885
  979MOL0     H32138   9.310   7.356   6.189 -1.6506 -1.6089 -2.2473
  979MOL0     H32139   9.526   7.537   6.081  4.0831  0.6172  3.7875
  979MOL0     H32140   9.559   7.430   6.218 -0.4116 -1.3180  0.4429
  979MOL0     H32141   9.337   7.640   6.208 -0.1725 -1.5718 -0.4180
  979MOL0     H32142   9.409   7.567   6.352 -0.0585 -1.1831  0.0444
  979MOL0     H32143   9.627   7.652   6.273  0.5003  1.5868  1.8957
  979MOL0     H32144   9.511   7.767   6.348 -2.6870  1.9962 -1.9820
  979MOL0     H32145   9.447   7.829   6.105  0.3633 -1.6456 -2.4288
  979MOL0     H32146   9.600   7.741   6.054  2.9289 -0.7620  1.8259
  979MOL0     H32147   9.112   6.920   6.047  1.5032  2.2980  1.7208
  979MOL0     H32148   8.883   6.994   5.963  0.0481 -1.9884  0.2390
  979MOL0     H32149   8.618   6.993   5.579 -0.2874 -0.9584 -2.5749
  979MOL0     H32150   8.379   7.015   5.514 -1.9096  1.3237 -1.4537
  979MOL0     H32151   7.601   7.227   7.024 -0.4198 -0.5091  0.2071
  979MOL0     H32152   7.796   7.364   7.093 -0.0893 -0.7008  0.0280
  979MOL0     H32153   8.006   7.654   7.281  1.9710 -0.8079  1.5228
  979MOL0     H32154   8.215   7.765   7.363 -2.7063  0.1753  1.6671
  979MOL0     H32155   8.315   7.966   7.369 -1.4434 -0.3293 -0.8983
  979MOL0     H32156   8.416   7.827   7.410 -1.1432 -0.9596 -2.1841
  979MOL0     H32157   8.500   8.102   7.321 -2.0587  0.9049  0.8996
  979MOL0     H32158   8.610   7.952   7.313 -0.2853 -0.3451  2.2541
  979MOL0     H32159   8.485   8.008   7.575  0.9170 -1.5929  0.3014
  979MOL0     H32160   8.593   8.128   7.518  3.4672 -0.2073  0.9236
  979MOL0     H32161   8.650   7.834   7.539 -0.5841 -0.1598 -0.2994
  979MOL0     H32162   8.697   7.939   7.663 -3.6734 -2.4159  0.2852
  979MOL0     H32163   9.011   8.016   7.383 -1.5063  1.1194 -0.1755
  979MOL0     H32164   8.322   7.838   6.972 -0.6394  0.3386  0.0030
  979MOL0     H32165   8.132   7.729   6.869  0.4061  0.4030  0.1275
  980MOL0     O32166   5.678  10.957   6.752 -0.4463 -0.1253  1.0890
  980MOL0     C32167   5.730  10.979   6.861  0.1302  0.0765 -0.1765
  980MOL0     O32168   5.863  11.015   6.883  0.1328 -0.5920 -0.3935
  980MOL0     C32169   5.948  10.994   6.774 -0.1418 -0.5479 -0.2385
  980MOL0     C32170   5.958  11.083   6.665 -1.0660 -0.4128  0.7110
  980MOL0     C32171   6.051  11.043   6.558 -0.0708 -0.6971  0.0011
  980MOL0     C32172   6.116  10.921   6.551  0.1676  0.8375 -0.2644
  980MOL0     O32173   6.215  10.886   6.458  0.3739  0.5209  0.4700
  980MOL0     C32174   6.185  10.768   6.382  0.3425 -0.0187  0.4331
  980MOL0     C32175   6.081  10.799   6.274  0.7156  0.0215 -0.1208
  980MOL0     C32176   5.999  10.679   6.215  0.1195 -0.7093  0.0865
  980MOL0     C32177   6.080  10.581   6.130 -0.3424  0.2347 -0.8087
  980MOL0     C32178   6.165  10.643   6.020  0.2957 -0.2184  0.5445
  980MOL0     C32179   6.230  10.529   5.955  0.8913  1.0350  0.0874
  980MOL0     C32180   6.340  10.558   5.860  0.0490 -0.1153  0.8841
  980MOL0     C32181   6.267  10.606   5.730 -0.3651 -0.7586  0.7604
  980MOL0     N32182   6.204  10.496   5.645 -0.3352 -0.2317  0.0454
  980MOL0     C32183   6.250  10.372   5.622 -0.0243  0.6828 -0.7730
  980MOL0     C32184   6.149  10.296   5.580 -0.2046  0.1292 -0.1116
  980MOL0     C32185   6.147  10.149   5.571 -0.2025 -0.3202  0.3005
  980MOL0     C32186   6.251  10.095   5.465 -0.1406 -0.5354  0.4259
  980MOL0     C32187   6.193  10.040   5.337  0.6477  0.2684 -0.1315
  980MOL0     C32188   6.294   9.976   5.239 -0.1780 -0.3620  0.2124
  980MOL0     O32189   6.223   9.907   5.132  0.1475  0.0233  0.3236
  980MOL0     C32190   6.219   9.959   5.005  0.6837  0.5694  0.5153
  980MOL0     C32191   6.178   9.881   4.893 -0.5091 -0.2076  0.8125
  980MOL0     C32192   6.164   9.911   4.760  1.1491  1.0921 -1.0748
  980MOL0     C32193   6.147   9.795   4.663  0.8526 -0.0173  0.2219
  980MOL0     C32194   6.161  10.045   4.739 -0.7134  0.1965 -0.2430
  980MOL0     C32195   6.114  10.094   4.610 -0.7005 -0.1421 -0.6071
  980MOL0     O32196   6.189  10.055   4.495  0.4028  0.7211 -0.3460
  980MOL0     C32197   6.133  10.089   4.378  0.2937 -0.3018  1.0962
  980MOL0     C32198   6.211  10.145   4.282  0.5392 -0.7318 -0.0314
  980MOL0     C32199   6.171  10.167   4.150  0.3117 -0.7392 -0.4229
  980MOL0     C32200   6.033  10.134   4.117 -0.0271  0.4839 -0.2292
  980MOL0     O32201   5.977  10.165   3.995  0.6884  0.3660 -0.3629
  980MOL0     C32202   6.054  10.114   3.885 -0.7713  0.4295  0.0356
  980MOL0     C32203   6.127  10.220   3.809 -0.3421 -0.7879 -0.2047
  980MOL0     C32204   6.042  10.340   3.768 -0.2948 -0.4597  0.7981
  980MOL0     C32205   6.081  10.405   3.642 -0.1614 -0.8506  0.6838
  980MOL0     C32206   6.002  10.533   3.641  0.3873  0.4912 -0.5465
  980MOL0     C32207   5.854  10.514   3.604 -0.4913 -0.4317 -0.5755
  980MOL0     C32208   5.797  10.638   3.563 -0.0448  0.0918 -0.4182
  980MOL0     C32209   5.652  10.628   3.532 -0.3595 -0.3175  0.8386
  980MOL0    Cl32210   5.636  10.561   3.364 -0.3189  0.2534  0.1204
  980MOL0     C32211   5.960  10.075   4.214  0.0634  0.2053 -0.5743
  980MOL0     C32212   6.005  10.045   4.340 -0.3671 -0.4920 -0.7984
  980MOL0     O32213   6.014  10.156   4.620  0.2695  0.0502  0.6472
  980MOL0     C32214   6.182  10.139   4.840  0.4371 -0.8905 -0.1837
  980MOL0     C32215   6.220  10.100   4.970 -0.0145  0.5022 -0.3612
  980MOL0     N32216   6.038  10.378   5.577 -0.3787  0.2911  0.4701
  980MOL0     N32217   6.069  10.501   5.621  0.3424  0.0425  0.0513
  980MOL0     C32218   6.110  10.845   6.670  0.2826  0.2198 -0.1613
  980MOL0     C32219   6.029  10.880   6.777 -0.2191  0.0295  0.0585
  980MOL0     C32220   5.647  10.964   6.978 -0.1878  0.9328 -0.4012
  980MOL0     C32221   5.525  10.900   6.962  0.5966 -0.2538  0.0868
  980MOL0     C32222   5.440  10.869   7.069  0.2863 -0.6235 -0.7528
  980MOL0     C32223   5.478  10.912   7.192  0.3036 -0.0422  0.0088
  980MOL0     O32224   5.388  10.892   7.288 -0.1676  0.2935 -1.1018
  980MOL0     C32225   5.293  10.996   7.308 -0.0321  0.1337  0.2518
  980MOL0     C32226   5.311  11.068   7.444  0.1616  0.0819 -0.1047
  980MOL0     C32227   5.199  11.173   7.464  1.1839 -0.5851  0.0109
  980MOL0     C32228   5.183  11.238   7.602  0.7370  0.5138 -0.3772
  980MOL0     C32229   5.085  11.349   7.608  0.4342  0.3790 -0.2540
  980MOL0     C32230   5.007  11.438   7.619  0.5874  0.0262 -0.6592
  980MOL0     C32231   5.597  10.992   7.217  0.2789  0.0551  0.7536
  980MOL0     C32232   5.688  11.012   7.107  0.2277  0.2009  0.1237
  980MOL0     H32233   5.889  11.167   6.675 -0.5359 -0.0835  1.6520
  980MOL0     H32234   6.044  11.111   6.475 -2.4046 -0.8895 -0.0361
  980MOL0     H32235   6.277  10.741   6.330 -0.4625 -0.6790 -0.6596
  980MOL0     H32236   6.169  10.677   6.441  0.2638  0.1214  0.6341
  980MOL0     H32237   6.010  10.869   6.318  2.7230  4.0951 -2.7552
  980MOL0     H32238   6.134  10.852   6.194  2.1815 -0.3242  0.5817
  980MOL0     H32239   5.948  10.625   6.295 -2.6881  1.2510 -0.2258
  980MOL0     H32240   5.923  10.705   6.141  1.7071 -2.2323 -2.2137
  980MOL0     H32241   6.144  10.525   6.199  2.7665  3.6886 -0.5699
  980MOL0     H32242   6.009  10.509   6.087 -3.0442 -0.3914  4.0214
  980MOL0     H32243   6.092  10.689   5.952 -0.1891 -1.5537  0.1357
  980MOL0     H32244   6.241  10.706   6.068 -2.0103  2.9187  0.4314
  980MOL0     H32245   6.267  10.461   6.033 -1.6526 -0.7938 -0.1557
  980MOL0     H32246   6.156  10.469   5.901  3.2899 -0.7274 -1.4419
  980MOL0     H32247   6.395  10.644   5.897 -1.8583  1.2687  0.6154
  980MOL0     H32248   6.401  10.468   5.844 -1.2772 -0.9434  0.3265
  980MOL0     H32249   6.339  10.664   5.672  0.7725 -1.9620  0.9234
  980MOL0     H32250   6.182  10.670   5.755  1.1934  2.0693 -0.6811
  980MOL0     H32251   6.348  10.338   5.655 -1.2272 -1.8604  0.4558
  980MOL0     H32252   6.173  10.108   5.669 -1.9445 -3.6071 -0.4693
  980MOL0     H32253   6.046  10.116   5.544 -0.1749  0.2161 -0.4859
  980MOL0     H32254   6.313  10.016   5.510  1.2211  0.3763  0.2020
  980MOL0     H32255   6.321  10.174   5.436 -2.1985  0.4476 -2.1599
  980MOL0     H32256   6.146  10.117   5.275  0.7281  0.3448 -0.0960
  980MOL0     H32257   6.121   9.964   5.369 -2.6803  2.1199 -2.5573
  980MOL0     H32258   6.359   9.914   5.301  0.1086  0.7061  1.0209
  980MOL0     H32259   6.357  10.054   5.196  2.2028 -1.5464  1.3856
  980MOL0     H32260   6.174   9.776   4.920  0.0375 -0.4017  0.1579
  980MOL0     H32261   6.058   9.742   4.697 -0.6847  2.7152  0.7523
  980MOL0     H32262   6.118   9.815   4.559  2.1114  0.0525 -0.1300
  980MOL0     H32263   6.236   9.732   4.669 -0.1202 -1.3711  5.4292
  980MOL0     H32264   6.309  10.166   4.325  0.9546  2.1693 -2.1402
  980MOL0     H32265   6.236  10.208   4.073  0.5863  1.2809  0.8159
  980MOL0     H32266   6.133  10.045   3.915  0.5938  0.4010 -3.1795
  980MOL0     H32267   5.995  10.060   3.810 -0.5369 -0.3624  0.4152
  980MOL0     H32268   6.213  10.259   3.864 -0.7451 -2.5933  1.8842
  980MOL0     H32269   6.152  10.178   3.711 -0.0569  0.5401 -0.7162
  980MOL0     H32270   6.054  10.413   3.849  2.8888 -0.4581  0.4697
  980MOL0     H32271   5.938  10.313   3.751 -0.3792  1.4771 -2.6064
  980MOL0     H32272   6.186  10.430   3.660 -0.4903 -0.2415  1.8248
  980MOL0     H32273   6.067  10.333   3.561  0.1957 -1.3437  1.0586
  980MOL0     H32274   6.048  10.603   3.572 -0.0431  1.5367  0.1996
  980MOL0     H32275   6.020  10.592   3.732 -1.3654  0.0742  0.1272
  980MOL0     H32276   5.853  10.451   3.514  2.5632  2.7599 -3.1118
  980MOL0     H32277   5.807  10.474   3.694 -0.6433 -1.5764 -1.1425
  980MOL0     H32278   5.842  10.686   3.476  0.0900  2.7983  1.0349
  980MOL0     H32279   5.810  10.714   3.641  0.4032  0.2651 -0.6565
  980MOL0     H32280   5.604  10.726   3.537  0.2129 -0.0335  0.8611
  980MOL0     H32281   5.608  10.555   3.600 -0.5990 -1.2534 -0.2895
  980MOL0     H32282   5.857  10.073   4.182 -0.2934  2.8248  0.1580
  980MOL0     H32283   5.955   9.971   4.402 -0.2164 -1.0994 -1.3854
  980MOL0     H32284   6.185  10.247   4.825  2.0797 -0.3820  2.8381
  980MOL0     H32285   6.247  10.175   5.044  0.1827 -0.5027  0.6035
  980MOL0     H32286   6.169  10.755   6.655 -1.7588 -1.0066 -1.2984
  980MOL0     H32287   6.049  10.832   6.872  3.7087  0.4316 -0.3924
  980MOL0     H32288   5.489  10.850   6.873 -5.0199  1.9125  0.7372
  980MOL0     H32289   5.339  10.832   7.053  1.5302 -4.4159 -0.6779
  980MOL0     H32290   5.301  11.063   7.222  0.4380  1.4801  1.3073
  980MOL0     H32291   5.198  10.942   7.299 -1.1979  2.1013  0.0673
  980MOL0     H32292   5.406  11.122   7.444  1.5212 -2.1160  1.9681
  980MOL0     H32293   5.315  11.001   7.531  0.7881  0.3624  0.0928
  980MOL0     H32294   5.107  11.118   7.442 -0.3386  1.8530 -0.1080
  980MOL0     H32295   5.209  11.251   7.387 -2.0063 -1.7204 -1.7396
  980MOL0     H32296   5.282  11.272   7.633  1.0449 -1.6541  1.2561
  980MOL0     H32297   5.156  11.153   7.665  3.1751 -0.3879 -0.4101
  980MOL0     H32298   4.953  11.530   7.612 -1.3626 -0.9893  0.3029
  980MOL0     H32299   5.610  11.035   7.316  0.1416 -1.0941  1.2891
  980MOL0     H32300   5.769  11.083   7.107  2.2327 -1.9815  0.6533
  981MOL0     O32301  10.258   8.468   4.223  0.6707  0.0465  0.4090
  981MOL0     C32302  10.197   8.510   4.321  0.3596 -0.3377  0.2756
  981MOL0     O32303  10.102   8.447   4.388  0.4659  0.1128  0.6793
  981MOL0     C32304  10.014   8.356   4.337 -0.1566  0.4918  0.1268
  981MOL0     C32305  10.001   8.304   4.201 -0.7169  0.2153  0.8012
  981MOL0     C32306   9.891   8.222   4.160 -1.3025  0.2304 -0.1570
  981MOL0     C32307   9.792   8.200   4.253  0.0217 -0.0958  0.3904
  981MOL0     O32308   9.688   8.135   4.195 -0.4801 -0.2990 -0.3552
  981MOL0     C32309   9.563   8.135   4.265  0.4174 -0.3169  0.0722
  981MOL0     C32310   9.457   8.101   4.154  0.1139  0.2713 -0.0833
  981MOL0     C32311   9.469   7.942   4.126  0.1690  0.2377 -0.6730
  981MOL0     C32312   9.438   7.900   3.979  0.0478 -0.2657  0.1085
  981MOL0     C32313   9.291   7.920   3.947 -0.4233 -0.1112 -0.8233
  981MOL0     C32314   9.252   7.889   3.800 -0.6332  0.2593 -0.7570
  981MOL0     C32315   9.102   7.900   3.760 -1.0449 -1.6696  0.0772
  981MOL0     C32316   9.055   8.047   3.773 -0.1512  1.1581  0.2601
  981MOL0     N32317   8.918   8.050   3.819 -0.4310  0.8621 -0.0972
  981MOL0     C32318   8.821   7.986   3.739  0.9754 -0.0609 -0.3254
  981MOL0     C32319   8.709   8.007   3.821  0.7706  0.4965 -0.2779
  981MOL0     C32320   8.555   7.978   3.791 -0.3438 -0.4058 -0.6484
  981MOL0     C32321   8.486   8.121   3.759 -0.9035 -1.1613  1.0197
  981MOL0     C32322   8.339   8.104   3.775 -0.1145 -0.1694 -0.0271
  981MOL0     C32323   8.260   8.224   3.739 -0.3593  0.2856 -0.4961
  981MOL0     O32324   8.281   8.271   3.606 -0.0549 -0.4391  0.9626
  981MOL0     C32325   8.198   8.366   3.552 -0.3735  0.9465  0.4876
  981MOL0     C32326   8.087   8.419   3.626  0.5653 -0.0058  1.1859
  981MOL0     C32327   7.992   8.493   3.558  0.3588  0.3933  0.0421
  981MOL0     C32328   7.888   8.559   3.641  0.1308 -0.1068 -0.0563
  981MOL0     C32329   8.005   8.527   3.422  0.9426  0.1281 -0.7354
  981MOL0     C32330   7.896   8.601   3.348 -0.3021 -0.1481  0.7656
  981MOL0     O32331   7.939   8.695   3.253  0.7369  0.4255 -0.6112
  981MOL0     C32332   7.854   8.753   3.162  0.2256 -0.5180  0.5578
  981MOL0     C32333   7.714   8.756   3.159 -0.6507 -0.5152  0.9106
  981MOL0     C32334   7.646   8.833   3.053 -0.7449  0.0347  0.1262
  981MOL0     C32335   7.731   8.892   2.951  1.0434 -0.3678 -0.1306
  981MOL0     O32336   7.680   8.959   2.843 -0.2741 -0.5873 -0.0922
  981MOL0     C32337   7.537   8.984   2.824 -0.8429  0.2310  1.0886
  981MOL0     C32338   7.468   8.866   2.755 -0.7877  0.8558  1.4784
  981MOL0     C32339   7.523   8.834   2.607  0.8632 -0.5502 -0.0927
  981MOL0     C32340   7.464   8.698   2.552 -0.0627  0.4293 -1.1371
  981MOL0     C32341   7.521   8.646   2.420 -0.2724 -1.7924  0.1471
  981MOL0     C32342   7.475   8.506   2.376 -0.2371 -0.1884  0.5690
  981MOL0     C32343   7.564   8.457   2.262 -0.6684 -0.1489 -2.0783
  981MOL0     C32344   7.542   8.305   2.244  0.0474  0.1608  0.9757
  981MOL0    Cl32345   7.627   8.219   2.369  0.3486 -0.0052 -0.4031
  981MOL0     C32346   7.871   8.882   2.958  0.2258 -0.5064  0.2183
  981MOL0     C32347   7.929   8.813   3.065 -0.3698 -0.1620  0.1742
  981MOL0     O32348   7.780   8.561   3.348 -0.8601  0.0733  0.1284
  981MOL0     C32349   8.114   8.481   3.360  0.2975  0.3958 -0.3660
  981MOL0     C32350   8.203   8.384   3.414  0.2388  0.3123 -0.3511
  981MOL0     N32351   8.737   8.057   3.948  0.7074 -0.1872  0.8424
  981MOL0     N32352   8.861   8.094   3.942  0.2729 -0.7397 -0.2712
  981MOL0     C32353   9.795   8.256   4.375  0.1992 -0.4095  0.0626
  981MOL0     C32354   9.903   8.328   4.421 -0.0762  0.2880  0.3346
  981MOL0     C32355  10.250   8.632   4.393 -0.4925 -0.0803  0.0131
  981MOL0     C32356  10.377   8.682   4.359  0.2944  0.5256 -0.5051
  981MOL0     C32357  10.425   8.800   4.409 -0.2320  0.8534 -0.7902
  981MOL0     C32358  10.350   8.875   4.501 -0.2213  0.8745  0.4595
  981MOL0     O32359  10.393   9.001   4.548  0.0953  0.4043  0.5252
  981MOL0     C32360  10.524   9.026   4.580 -0.3609 -0.1817 -0.4937
  981MOL0     C32361  10.581   8.953   4.702 -0.2828  0.0862 -0.7811
  981MOL0     C32362  10.710   9.013   4.762  0.2694  0.0739 -1.3356
  981MOL0     C32363  10.690   9.118   4.874  0.0270  0.2847  0.3681
  981MOL0     C32364  10.664   9.051   5.001 -0.2902  0.0780 -0.4267
  981MOL0     C32365  10.660   8.980   5.097 -0.4993  0.8120  0.3724
  981MOL0     C32366  10.223   8.823   4.537 -0.2186 -1.4720 -0.2181
  981MOL0     C32367  10.173   8.709   4.476  0.2572 -0.2329 -0.0639
  981MOL0     H32368  10.084   8.322   4.133 -0.8901  1.9218  1.0006
  981MOL0     H32369   9.898   8.181   4.060  2.0077  1.2915 -0.4702
  981MOL0     H32370   9.560   8.064   4.348  0.1522 -0.4863 -0.0816
  981MOL0     H32371   9.546   8.234   4.308  2.4825 -0.6915  1.9001
  981MOL0     H32372   9.359   8.125   4.197 -0.1864 -1.0988  0.0334
  981MOL0     H32373   9.476   8.162   4.065 -1.2127  0.6413 -0.1413
  981MOL0     H32374   9.568   7.901   4.146  2.4498  5.0210 -0.8525
  981MOL0     H32375   9.398   7.887   4.188  2.7208 -4.4241 -1.4069
  981MOL0     H32376   9.503   7.949   3.905 -1.6455  2.2359  0.1694
  981MOL0     H32377   9.455   7.792   3.966  1.3646  0.0609 -1.1648
  981MOL0     H32378   9.236   7.856   4.017  2.0538 -3.4535 -1.7304
  981MOL0     H32379   9.274   8.027   3.963 -0.5325 -0.3159  0.6244
  981MOL0     H32380   9.309   7.964   3.745  0.8070  1.5749  2.3016
  981MOL0     H32381   9.281   7.789   3.765 -0.3813  0.3722 -0.8727
  981MOL0     H32382   9.081   7.864   3.659 -0.0549 -1.3988 -0.2387
  981MOL0     H32383   9.051   7.838   3.833 -1.4434 -1.8207 -0.3260
  981MOL0     H32384   9.061   8.093   3.674  1.4554 -4.5765 -2.7629
  981MOL0     H32385   9.112   8.104   3.846  1.8073 -0.7464  0.3352
  981MOL0     H32386   8.815   7.947   3.638 -1.1215 -2.3675  0.6011
  981MOL0     H32387   8.547   7.906   3.709  0.0389 -2.5647  1.1091
  981MOL0     H32388   8.516   7.930   3.881 -2.9079  2.3111 -0.1476
  981MOL0     H32389   8.509   8.139   3.654 -0.9528  3.1590  1.5716
  981MOL0     H32390   8.525   8.192   3.833  4.0436 -1.2519 -1.1008
  981MOL0     H32391   8.333   8.071   3.879  0.5642 -1.6890 -0.4477
  981MOL0     H32392   8.302   8.018   3.719  1.7646 -1.4193  0.5497
  981MOL0     H32393   8.278   8.297   3.819 -1.1709 -0.2682  0.2008
  981MOL0     H32394   8.153   8.210   3.756  0.1188 -0.1688  2.6877
  981MOL0     H32395   8.089   8.404   3.733  1.9557 -2.0382  0.9308
  981MOL0     H32396   7.877   8.661   3.603  1.9827 -0.6922 -2.4702
  981MOL0     H32397   7.790   8.514   3.627  0.9050 -1.3295 -1.9537
  981MOL0     H32398   7.913   8.574   3.746  1.8334 -1.1005 -0.2779
  981MOL0     H32399   7.664   8.703   3.239  0.6994  1.4489  3.1692
  981MOL0     H32400   7.541   8.859   3.059 -0.1836  2.1001  3.3829
  981MOL0     H32401   7.482   9.007   2.915 -1.3507  0.9779  0.6021
  981MOL0     H32402   7.529   9.074   2.762 -0.5906  1.2515  2.5115
  981MOL0     H32403   7.483   8.776   2.816  1.8450 -1.1445 -1.7908
  981MOL0     H32404   7.363   8.896   2.749 -1.0798 -0.3972 -2.4752
  981MOL0     H32405   7.632   8.828   2.610  1.0451 -0.4705 -3.1471
  981MOL0     H32406   7.491   8.916   2.542 -2.1818 -1.5495 -0.0392
  981MOL0     H32407   7.494   8.620   2.624 -0.3144 -2.1152 -3.6294
  981MOL0     H32408   7.355   8.695   2.550 -0.1108 -1.6821  0.7441
  981MOL0     H32409   7.629   8.655   2.435 -0.1884  1.3470 -1.5310
  981MOL0     H32410   7.503   8.711   2.334  3.5807  1.1163  1.2339
  981MOL0     H32411   7.485   8.432   2.456 -2.1725 -2.3981 -1.0694
  981MOL0     H32412   7.367   8.515   2.357 -0.4611  0.5387  1.9941
  981MOL0     H32413   7.668   8.457   2.297 -1.3566 -4.2804  0.5346
  981MOL0     H32414   7.533   8.513   2.173 -3.5779  1.9797  0.0762
  981MOL0     H32415   7.583   8.276   2.146 -0.6391 -3.2008  1.5621
  981MOL0     H32416   7.437   8.273   2.240  0.0270 -0.8335  5.1846
  981MOL0     H32417   7.925   8.935   2.880  0.5910 -1.2378 -0.0431
  981MOL0     H32418   8.033   8.796   3.043 -1.4023 -2.5898 -3.8182
  981MOL0     H32419   8.125   8.503   3.255  2.4258 -1.6412 -0.6622
  981MOL0     H32420   8.282   8.341   3.352 -1.0501  0.9228 -2.5308
  981MOL0     H32421   9.712   8.272   4.443 -0.3204  2.3525 -1.1043
  981MOL0     H32422   9.884   8.366   4.521 -3.8794  0.2528 -0.2196
  981MOL0     H32423  10.449   8.630   4.296  1.3505 -1.3063  2.0405
  981MOL0     H32424  10.524   8.833   4.379  0.5284 -2.4196 -2.3849
  981MOL0     H32425  10.588   9.011   4.492 -0.1936 -1.8151 -0.1263
  981MOL0     H32426  10.524   9.133   4.601  1.8109  0.0568 -1.4656
  981MOL0     H32427  10.599   8.851   4.668  1.2557 -0.1766  0.6797
  981MOL0     H32428  10.509   8.944   4.784  0.5118 -0.5203 -0.1281
  981MOL0     H32429  10.763   9.050   4.674 -0.8079 -1.7070 -2.7990
  981MOL0     H32430  10.773   8.933   4.803 -3.2574 -1.1148  2.4629
  981MOL0     H32431  10.604   9.181   4.851 -0.2498 -1.3389 -3.9969
  981MOL0     H32432  10.777   9.183   4.888 -0.8676  0.9724  3.3428
  981MOL0     H32433  10.663   8.912   5.179  0.9948  2.2731  1.6065
  981MOL0     H32434  10.171   8.870   4.619  1.3445 -2.0920  1.1816
  981MOL0     H32435  10.074   8.672   4.502  0.5367  1.3311  3.8973
  982MOL0     O32436   0.570   5.444   5.709 -0.7753  0.3079  0.1813
  982MOL0     C32437   0.567   5.567   5.729  0.6101 -0.5117  0.6068
  982MOL0     O32438   0.542   5.633   5.859 -0.1221  0.1806 -0.0344
  982MOL0     C32439   0.577   5.563   5.971 -0.2756 -0.5398 -0.2118
  982MOL0     C32440   0.699   5.487   5.984 -0.4942 -0.0196  0.5442
  982MOL0     C32441   0.731   5.415   6.103  0.1904 -0.7164  0.3277
  982MOL0     C32442   0.658   5.436   6.218 -0.0785  0.2362  0.5872
  982MOL0     O32443   0.694   5.381   6.340  0.0464  0.6179 -0.2601
  982MOL0     C32444   0.594   5.293   6.396  0.2290  0.1778 -0.3182
  982MOL0     C32445   0.610   5.145   6.351  0.2103  0.0985  0.1447
  982MOL0     C32446   0.490   5.063   6.412  0.1855 -0.9249  0.1876
  982MOL0     C32447   0.513   4.914   6.438 -0.4602 -0.6424 -0.2273
  982MOL0     C32448   0.620   4.890   6.558 -0.3378  0.3488 -0.1302
  982MOL0     C32449   0.632   4.750   6.618  0.2282 -0.0084  0.1387
  982MOL0     C32450   0.659   4.646   6.499  0.3404 -0.6009  0.8525
  982MOL0     C32451   0.724   4.529   6.569 -0.2419 -0.6644 -0.4675
  982MOL0     N32452   0.713   4.407   6.490 -0.1467 -0.5687 -0.0275
  982MOL0     C32453   0.604   4.328   6.474 -0.8795 -0.8795 -0.4016
  982MOL0     C32454   0.635   4.232   6.381  0.4271  0.2470 -0.9416
  982MOL0     C32455   0.542   4.136   6.313  0.1732 -0.9658  0.5928
  982MOL0     C32456   0.622   4.006   6.263 -0.0469 -1.3673 -0.1908
  982MOL0     C32457   0.559   3.897   6.184  0.8716 -0.3440 -0.1851
  982MOL0     C32458   0.509   3.951   6.061  0.1890  0.3844  0.0401
  982MOL0     O32459   0.408   3.857   6.014  0.2558 -0.1915 -0.1152
  982MOL0     C32460   0.389   3.862   5.877  0.4642 -0.6353 -0.1589
  982MOL0     C32461   0.471   3.802   5.793  0.0357  0.1746  0.0177
  982MOL0     C32462   0.444   3.788   5.654  0.2597 -0.4353  0.5096
  982MOL0     C32463   0.559   3.729   5.575 -0.5083 -0.4813  0.1648
  982MOL0     C32464   0.322   3.846   5.604 -0.6825 -0.2475  0.0301
  982MOL0     C32465   0.270   3.833   5.466  0.3089  0.5484  0.6900
  982MOL0     O32466   0.159   3.905   5.436  0.8790  0.1906 -0.1020
  982MOL0     C32467   0.103   3.885   5.316  0.1007 -0.4048 -0.0095
  982MOL0     C32468   0.069   3.994   5.236  0.1243 -0.5910 -0.2508
  982MOL0     C32469   0.013   3.974   5.110 -0.5319 -1.2440 -0.4009
  982MOL0     C32470  -0.010   3.846   5.069  0.8978 -0.7490  1.2922
  982MOL0     O32471  -0.066   3.800   4.957  0.0243 -0.4257 -0.0944
  982MOL0     C32472  -0.105   3.904   4.858  0.2395  0.2606  0.0426
  982MOL0     C32473  -0.163   3.837   4.734 -0.2239  0.1075 -0.4273
  982MOL0     C32474  -0.235   3.942   4.656  0.1744  0.0845  0.6488
  982MOL0     C32475  -0.305   3.887   4.532  0.1677 -0.9227  0.5650
  982MOL0     C32476  -0.380   4.009   4.469 -0.2952  0.4346  0.1136
  982MOL0     C32477  -0.468   3.969   4.344  0.6364 -0.2329 -0.7808
  982MOL0     C32478  -0.583   3.873   4.388 -0.4674 -0.7098  0.1858
  982MOL0     C32479  -0.569   3.740   4.325  0.4456  0.3017  0.0398
  982MOL0    Cl32480  -0.699   3.649   4.402  0.5554  0.5626 -0.1153
  982MOL0     C32481   0.008   3.738   5.155 -0.1320  0.2919  0.5483
  982MOL0     C32482   0.062   3.759   5.278  0.1743 -0.7504  0.3672
  982MOL0     O32483   0.312   3.742   5.396 -0.1652  0.0558 -0.5168
  982MOL0     C32484   0.246   3.924   5.690  0.2912  0.7282 -0.2878
  982MOL0     C32485   0.277   3.926   5.829  0.9436  0.5404 -0.4715
  982MOL0     N32486   0.775   4.256   6.354 -0.7143 -0.7474 -0.0304
  982MOL0     N32487   0.823   4.356   6.423  1.3578  0.2017 -0.6871
  982MOL0     C32488   0.544   5.520   6.210 -0.7017  0.6530 -0.2842
  982MOL0     C32489   0.497   5.575   6.090 -0.3972  0.0908  0.3578
  982MOL0     C32490   0.598   5.666   5.623  0.9117 -0.1420  0.6236
  982MOL0     C32491   0.642   5.799   5.659  0.7509 -0.6980  1.0765
  982MOL0     C32492   0.702   5.883   5.562  0.4877 -0.0800  0.7579
  982MOL0     C32493   0.705   5.845   5.423  0.4623  0.2635 -0.2312
  982MOL0     O32494   0.743   5.924   5.314  0.1945 -0.8146 -0.1062
  982MOL0     C32495   0.749   6.062   5.344  0.8156  0.1809  0.0281
  982MOL0     C32496   0.765   6.152   5.225 -0.7182 -0.9942  0.2507
  982MOL0     C32497   0.891   6.127   5.151  0.2039 -0.2158  0.7573
  982MOL0     C32498   1.022   6.172   5.216 -0.0111  0.0413 -0.6610
  982MOL0     C32499   1.136   6.210   5.123 -0.2466  0.7077 -0.2892
  982MOL0     C32500   1.225   6.239   5.052 -0.7800  0.2286  0.1354
  982MOL0     C32501   0.684   5.710   5.397  0.1910 -0.3834 -0.3998
  982MOL0     C32502   0.631   5.617   5.488  0.2573  0.6054  0.4240
  982MOL0     H32503   0.764   5.474   5.898  0.0077 -2.3672  1.2274
  982MOL0     H32504   0.812   5.344   6.096  1.4435  0.4333  2.2768
  982MOL0     H32505   0.594   5.302   6.505  2.6582  0.1199 -0.2402
  982MOL0     H32506   0.492   5.316   6.366 -0.9816 -1.6403  2.1076
  982MOL0     H32507   0.619   5.142   6.242 -5.1407 -1.5928 -0.5545
  982MOL0     H32508   0.704   5.109   6.393  1.2693 -1.6136 -3.2851
  982MOL0     H32509   0.475   5.097   6.515 -0.4480 -0.1676 -0.1413
  982MOL0     H32510   0.397   5.085   6.360 -1.0483  0.9139  2.9462
  982MOL0     H32511   0.416   4.874   6.470 -0.9472 -0.5687 -1.5502
  982MOL0     H32512   0.548   4.863   6.348 -1.2430 -0.5322 -0.6024
  982MOL0     H32513   0.715   4.921   6.515 -0.9465 -0.9311 -2.5435
  982MOL0     H32514   0.615   4.948   6.651 -0.1057 -1.6381  1.1757
  982MOL0     H32515   0.722   4.750   6.680 -0.0629  1.9112  0.6529
  982MOL0     H32516   0.541   4.712   6.664  0.6252  0.3188  1.2328
  982MOL0     H32517   0.570   4.610   6.447 -0.2561 -0.6415  1.8662
  982MOL0     H32518   0.726   4.699   6.431  1.6092 -0.1325  2.3819
  982MOL0     H32519   0.660   4.515   6.656 -1.1944 -1.1315 -1.2168
  982MOL0     H32520   0.828   4.553   6.594 -0.2544 -0.8373 -0.2450
  982MOL0     H32521   0.504   4.353   6.508 -0.9130 -1.0835 -0.3508
  982MOL0     H32522   0.468   4.115   6.390 -1.5374  0.1907 -0.6443
  982MOL0     H32523   0.487   4.187   6.233  1.4157 -2.7634 -1.5428
  982MOL0     H32524   0.665   3.959   6.352  1.8477  2.2852  1.0187
  982MOL0     H32525   0.703   4.040   6.198  0.1910 -2.7814 -0.6756
  982MOL0     H32526   0.487   3.839   6.243 -1.0377 -1.2727 -3.2218
  982MOL0     H32527   0.643   3.831   6.162 -1.2323 -2.4857 -2.3566
  982MOL0     H32528   0.595   3.960   5.994 -0.0211 -2.3859 -0.7316
  982MOL0     H32529   0.469   4.051   6.077 -0.5651 -0.2569  2.4714
  982MOL0     H32530   0.565   3.769   5.834 -0.4321 -1.6676 -0.3155
  982MOL0     H32531   0.655   3.765   5.612 -1.1186  0.0655  1.2691
  982MOL0     H32532   0.548   3.621   5.562  0.1527 -0.4298 -0.9714
  982MOL0     H32533   0.558   3.776   5.476 -0.9686  1.9977  1.2804
  982MOL0     H32534   0.111   4.092   5.257 -0.4758 -0.3696 -0.0569
  982MOL0     H32535   0.003   4.068   5.058  4.6814  0.2231  0.6198
  982MOL0     H32536  -0.174   3.975   4.903  2.5130  1.8749  1.2188
  982MOL0     H32537  -0.015   3.957   4.826  2.7045 -2.7372  1.4238
  982MOL0     H32538  -0.069   3.807   4.687 -1.4420 -1.2053 -2.1478
  982MOL0     H32539  -0.231   3.753   4.755 -0.3652 -0.9849 -4.4642
  982MOL0     H32540  -0.174   4.024   4.616 -0.9623  0.4720 -0.3555
  982MOL0     H32541  -0.307   3.987   4.724  1.5620  1.5851  1.1943
  982MOL0     H32542  -0.229   3.853   4.461 -1.2603  3.0063 -3.2806
  982MOL0     H32543  -0.377   3.809   4.562  0.2606 -1.4842 -0.6152
  982MOL0     H32544  -0.312   4.086   4.433 -1.3227  0.4984 -1.8289
  982MOL0     H32545  -0.439   4.043   4.555 -1.8791  1.0578 -1.1580
  982MOL0     H32546  -0.519   4.062   4.315 -2.6735 -2.3022 -2.1932
  982MOL0     H32547  -0.423   3.943   4.248 -3.1409 -1.9503 -2.2646
  982MOL0     H32548  -0.665   3.937   4.356 -1.1691 -0.4381  2.3630
  982MOL0     H32549  -0.584   3.855   4.496 -1.2382 -0.4786  0.2201
  982MOL0     H32550  -0.480   3.684   4.352 -1.6623 -3.7584 -0.5931
  982MOL0     H32551  -0.576   3.753   4.217 -0.5951  1.4922  0.2255
  982MOL0     H32552  -0.001   3.641   5.108  1.1621  1.0244 -1.3422
  982MOL0     H32553   0.081   3.659   5.316  0.7602 -2.3350 -3.5555
  982MOL0     H32554   0.151   3.967   5.661 -0.7088 -1.0411  0.2198
  982MOL0     H32555   0.223   3.989   5.899 -1.1820 -3.4650  1.8958
  982MOL0     H32556   0.486   5.551   6.296 -0.2865  2.6474 -0.6780
  982MOL0     H32557   0.405   5.632   6.099 -0.1587  0.5109  0.1243
  982MOL0     H32558   0.632   5.838   5.760 -1.5146  2.0723 -0.0747
  982MOL0     H32559   0.747   5.979   5.584 -0.6492 -0.0638  3.3109
  982MOL0     H32560   0.663   6.097   5.402  0.4274  1.5233 -1.3022
  982MOL0     H32561   0.837   6.088   5.404  2.6752 -0.9308 -2.0980
  982MOL0     H32562   0.757   6.259   5.250  3.4223 -0.3113 -0.6149
  982MOL0     H32563   0.691   6.128   5.148  0.8299 -0.7832 -1.3770
  982MOL0     H32564   0.878   6.178   5.056 -0.5662  1.0899  1.5384
  982MOL0     H32565   0.892   6.018   5.138 -3.4791 -0.3835  0.8181
  982MOL0     H32566   1.062   6.090   5.277  2.3808  1.3262 -0.3555
  982MOL0     H32567   1.005   6.260   5.278  1.2721  1.7290 -2.5608
  982MOL0     H32568   1.319   6.247   5.001  1.4332 -3.8321  2.9342
  982MOL0     H32569   0.715   5.681   5.297  2.6833 -1.3524  0.5796
  982MOL0     H32570   0.630   5.510   5.466  3.6356  0.6734 -0.7262
  983MOL0     O32571  10.665   3.542   1.110 -1.0425  0.8298 -0.1614
  983MOL0     C32572  10.782   3.550   1.072 -0.1880  0.7754  0.5542
  983MOL0     O32573  10.859   3.445   1.021 -0.4988  0.4158 -0.5028
  983MOL0     C32574  10.820   3.313   1.019 -0.5017  0.9490  0.5803
  983MOL0     C32575  10.916   3.212   1.015  0.0450 -0.0208 -0.0657
  983MOL0     C32576  10.879   3.077   1.004 -0.2582  0.0831  0.1861
  983MOL0     C32577  10.752   3.044   0.982 -0.1543 -0.4869  1.2299
  983MOL0     O32578  10.735   2.908   0.961  0.0336  0.2231  0.2771
  983MOL0     C32579  10.600   2.858   0.946  0.2566  0.2675  0.2136
  983MOL0     C32580  10.610   2.709   0.998  0.3685 -0.4949 -0.2302
  983MOL0     C32581  10.655   2.702   1.139 -0.3975  0.2647 -0.6487
  983MOL0     C32582  10.558   2.770   1.242  0.4456  0.1317 -0.7096
  983MOL0     C32583  10.570   2.717   1.376  0.4229  0.2692  0.1333
  983MOL0     C32584  10.700   2.758   1.441 -0.8955 -0.5460  0.2350
  983MOL0     C32585  10.741   2.657   1.556 -0.9703 -0.3331 -0.0074
  983MOL0     C32586  10.863   2.714   1.644  0.0926  0.2355  0.7243
  983MOL0     N32587  10.846   2.832   1.714  0.6972 -0.3260 -0.1553
  983MOL0     C32588  10.895   2.961   1.675  0.7367  0.3892  0.3838
  983MOL0     C32589  10.863   3.039   1.775 -0.8906  0.3402 -0.0903
  983MOL0     C32590  10.873   3.189   1.769 -0.4583  0.1327  0.8112
  983MOL0     C32591  10.747   3.247   1.838 -1.0583  0.1111  0.4782
  983MOL0     C32592  10.741   3.404   1.868  0.6064 -0.1380  1.0086
  983MOL0     C32593  10.848   3.460   1.956  0.6291  0.2414  0.1418
  983MOL0     O32594  10.962   3.484   1.877  0.2543  0.2553  0.0843
  983MOL0     C32595  11.047   3.578   1.925 -0.2977  0.8241 -0.0165
  983MOL0     C32596  11.030   3.707   1.876  0.2924 -0.0591 -0.5108
  983MOL0     C32597  11.086   3.813   1.952 -0.6688 -0.5479 -0.2730
  983MOL0     C32598  11.037   3.955   1.912 -0.6569  1.0259 -0.6913
  983MOL0     C32599  11.169   3.789   2.065  0.0096  0.0030  0.1938
  983MOL0     C32600  11.222   3.898   2.148  0.3874  0.8667 -0.1655
  983MOL0     O32601  11.238   3.865   2.277  0.2436 -0.6499 -1.0264
  983MOL0     C32602  11.270   3.975   2.357 -0.9704  0.0773 -0.6876
  983MOL0     C32603  11.219   4.099   2.354  0.5124  0.0564  0.0764
  983MOL0     C32604  11.251   4.200   2.454 -0.1252  0.2338  0.4373
  983MOL0     C32605  11.337   4.174   2.556  0.8690  0.3226 -0.1648
  983MOL0     O32606  11.356   4.256   2.661  0.8346 -0.3537 -0.2824
  983MOL0     C32607  11.482   4.292   2.716  0.0593  0.2632 -0.2588
  983MOL0     C32608  11.473   4.349   2.861 -0.1951 -0.7195  0.5771
  983MOL0     C32609  11.450   4.502   2.884 -1.3595  0.2380  0.6797
  983MOL0     C32610  11.327   4.560   2.818 -0.2932  0.2584 -0.0177
  983MOL0     C32611  11.361   4.657   2.706 -1.0414  0.0104  1.1815
  983MOL0     C32612  11.236   4.694   2.634  0.1779  0.2024  0.3603
  983MOL0     C32613  11.273   4.739   2.497 -0.1275  0.3337  0.5894
  983MOL0     C32614  11.150   4.779   2.425 -0.1707 -0.3805  1.0092
  983MOL0    Cl32615  11.123   4.954   2.471 -0.1274  0.1575 -0.1520
  983MOL0     C32616  11.402   4.047   2.546 -0.3183 -0.7591  0.1940
  983MOL0     C32617  11.358   3.943   2.455  1.0193 -0.6799 -0.4149
  983MOL0     O32618  11.252   4.001   2.090  0.2410  0.5722 -0.0896
  983MOL0     C32619  11.188   3.656   2.100  0.5554  0.1995 -0.5085
  983MOL0     C32620  11.138   3.550   2.025  0.6097  0.3911 -1.0352
  983MOL0     N32621  10.791   2.971   1.874 -0.2371 -0.1897  0.0567
  983MOL0     N32622  10.782   2.847   1.838  0.0909 -0.1637  0.6741
  983MOL0     C32623  10.650   3.141   0.988 -0.1463  0.2998  1.2707
  983MOL0     C32624  10.685   3.274   1.002 -0.6165 -0.0741 -0.9883
  983MOL0     C32625  10.849   3.682   1.070 -0.5084  0.1871  0.0285
  983MOL0     C32626  10.783   3.801   1.110 -0.9418 -0.7083 -0.3809
  983MOL0     C32627  10.849   3.923   1.112  0.2942 -0.4215  0.6388
  983MOL0     C32628  10.991   3.925   1.081  0.0821 -0.5993  0.4722
  983MOL0     O32629  11.066   4.034   1.064  0.0374 -0.2126 -0.3998
  983MOL0     C32630  11.043   4.137   1.166  0.0595 -0.2571 -0.0226
  983MOL0     C32631  11.184   4.204   1.195  0.3315 -0.1253 -1.3490
  983MOL0     C32632  11.273   4.250   1.093  0.2255  0.1857 -0.5624
  983MOL0     C32633  11.214   4.377   1.024 -0.1856  0.8878 -1.7764
  983MOL0     C32634  11.146   4.470   1.118 -0.1311  0.7257  0.2939
  983MOL0     C32635  11.105   4.541   1.202 -0.0202 -0.8569  0.2666
  983MOL0     C32636  11.058   3.810   1.051 -0.1759  0.5819 -1.2204
  983MOL0     C32637  10.986   3.686   1.033 -0.1338  0.1395 -0.0966
  983MOL0     H32638  11.020   3.242   1.019 -0.1108  1.2626 -3.1244
  983MOL0     H32639  10.948   2.994   0.997 -1.5654 -0.9667 -0.7713
  983MOL0     H32640  10.532   2.914   1.011 -0.4436 -0.5792  0.2207
  983MOL0     H32641  10.561   2.852   0.844 -0.5269 -2.4418  0.6033
  983MOL0     H32642  10.521   2.645   0.991 -0.3116  0.0358  2.2529
  983MOL0     H32643  10.685   2.660   0.936  0.4747  0.5398 -0.9494
  983MOL0     H32644  10.685   2.600   1.160 -0.2168  0.5995  0.8072
  983MOL0     H32645  10.750   2.754   1.150  0.1973 -1.2023  1.8443
  983MOL0     H32646  10.574   2.877   1.252 -0.7572  0.5241 -2.4087
  983MOL0     H32647  10.454   2.749   1.217 -0.4714 -1.2435  3.5369
  983MOL0     H32648  10.486   2.757   1.434 -1.2046 -0.4692 -1.6083
  983MOL0     H32649  10.559   2.608   1.371  3.6120 -0.1814  0.7617
  983MOL0     H32650  10.784   2.770   1.372 -0.3018 -2.1136  0.6312
  983MOL0     H32651  10.699   2.861   1.478  2.5896  0.2618 -1.4592
  983MOL0     H32652  10.646   2.654   1.609 -0.5593 -2.8924  0.7142
  983MOL0     H32653  10.766   2.561   1.510  0.5523  0.0950 -0.1283
  983MOL0     H32654  10.947   2.725   1.575 -1.1918 -2.3685 -1.4930
  983MOL0     H32655  10.896   2.634   1.711  2.1726 -0.5094 -1.0627
  983MOL0     H32656  10.936   2.994   1.580 -2.6324  2.4969 -0.4774
  983MOL0     H32657  10.957   3.223   1.830 -0.9962  0.3884  1.4312
  983MOL0     H32658  10.877   3.221   1.665 -0.0648  3.2937  1.7111
  983MOL0     H32659  10.724   3.212   1.940  0.1623 -2.2242  0.0149
  983MOL0     H32660  10.660   3.222   1.776 -2.2711 -0.8736  2.4328
  983MOL0     H32661  10.638   3.429   1.895 -0.0704 -2.2649  0.5870
  983MOL0     H32662  10.746   3.455   1.772  2.1185 -2.2841 -0.1517
  983MOL0     H32663  10.870   3.401   2.045 -0.5585  1.4991  1.3188
  983MOL0     H32664  10.808   3.554   1.995 -0.1010 -0.8069  2.0573
  983MOL0     H32665  10.960   3.728   1.796  0.0879  1.4721  0.0277
  983MOL0     H32666  10.928   3.962   1.909 -1.1689 -2.0577  2.8591
  983MOL0     H32667  11.078   4.039   1.968  1.4228  0.5521 -1.3886
  983MOL0     H32668  11.071   3.963   1.808  0.8821  1.4366 -0.1805
  983MOL0     H32669  11.149   4.133   2.277  1.0851  0.5165 -0.2473
  983MOL0     H32670  11.228   4.304   2.431 -0.2344  0.5268  1.8173
  983MOL0     H32671  11.549   4.206   2.717  1.1753  1.1084  1.0421
  983MOL0     H32672  11.526   4.372   2.656  0.8510 -0.6720 -0.9537
  983MOL0     H32673  11.401   4.284   2.911 -1.8142 -0.1885 -0.9606
  983MOL0     H32674  11.575   4.337   2.900  0.8706  2.4471 -0.9280
  983MOL0     H32675  11.545   4.544   2.847 -1.2035 -2.8569 -3.0145
  983MOL0     H32676  11.441   4.530   2.989  0.9863 -0.3991  1.1044
  983MOL0     H32677  11.275   4.475   2.773  0.1497 -0.5777  1.0162
  983MOL0     H32678  11.254   4.601   2.889 -0.5060  2.1394 -1.2525
  983MOL0     H32679  11.427   4.606   2.635 -2.7953  0.9147 -1.2344
  983MOL0     H32680  11.407   4.752   2.734 -1.3562  0.8087 -0.8969
  983MOL0     H32681  11.162   4.614   2.630 -2.0893  2.1958  0.1361
  983MOL0     H32682  11.177   4.773   2.682  1.1019  1.7932 -0.9975
  983MOL0     H32683  11.320   4.654   2.448  1.3608  0.1833  2.1622
  983MOL0     H32684  11.333   4.831   2.499 -0.9162  0.8595  1.0347
  983MOL0     H32685  11.060   4.718   2.437  0.6170 -2.3220 -1.9323
  983MOL0     H32686  11.155   4.764   2.317 -0.6961  0.3497  0.8717
  983MOL0     H32687  11.480   4.017   2.616 -0.1449 -0.1243  0.2844
  983MOL0     H32688  11.411   3.848   2.453  0.8004 -0.9628  2.5772
  983MOL0     H32689  11.237   3.625   2.192 -2.6456  2.5663  2.2694
  983MOL0     H32690  11.145   3.450   2.066 -1.3792  0.4197 -0.5262
  983MOL0     H32691  10.547   3.110   0.974 -0.3434  1.3864  0.1826
  983MOL0     H32692  10.599   3.340   1.000 -1.0468 -0.5114  0.8215
  983MOL0     H32693  10.681   3.798   1.147 -0.9183 -0.2057 -0.2654
  983MOL0     H32694  10.789   4.009   1.139  0.3395  0.9778 -3.1425
  983MOL0     H32695  10.981   4.214   1.120  1.7391 -0.0308 -2.0189
  983MOL0     H32696  10.991   4.099   1.255 -0.8246  0.0525 -0.3939
  983MOL0     H32697  11.234   4.122   1.247 -1.8440 -1.2006 -0.8441
  983MOL0     H32698  11.152   4.278   1.270 -0.3196 -0.5972 -1.1516
  983MOL0     H32699  11.299   4.171   1.022 -1.9048  0.0826 -1.3096
  983MOL0     H32700  11.370   4.266   1.142  0.1837 -2.3218  0.4361
  983MOL0     H32701  11.147   4.347   0.943 -2.7042  1.1787  0.0845
  983MOL0     H32702  11.301   4.423   0.975 -0.5059  0.5170 -2.7233
  983MOL0     H32703  11.058   4.613   1.266  0.2261  0.5294 -1.0658
  983MOL0     H32704  11.165   3.803   1.033  0.1278 -2.7699  0.9903
  983MOL0     H32705  11.037   3.592   1.014 -1.5413 -0.4791 -0.9996
  984MOL0     O32706   3.852   2.973   5.274  0.0235 -0.0135 -0.2893
  984MOL0     C32707   3.946   2.910   5.222  0.4261 -0.1086  0.7168
  984MOL0     O32708   4.074   2.892   5.276 -0.1476  1.6590  0.7462
  984MOL0     C32709   4.106   2.943   5.399 -0.7541 -0.2164 -0.0797
  984MOL0     C32710   4.193   3.038   5.404 -1.3061  0.2862 -0.4676
  984MOL0     C32711   4.250   3.082   5.521  0.1467 -0.2090  0.3514
  984MOL0     C32712   4.214   3.027   5.645  0.7058  0.3931  0.1324
  984MOL0     O32713   4.287   3.060   5.762  0.3198  0.2501  0.5772
  984MOL0     C32714   4.426   3.081   5.745 -0.2405 -1.0012 -0.0129
  984MOL0     C32715   4.491   3.074   5.880  0.1828  0.1976  1.1572
  984MOL0     C32716   4.477   3.196   5.972  0.9824  0.8404 -0.7837
  984MOL0     C32717   4.544   3.324   5.927  0.6456 -0.0143 -0.5591
  984MOL0     C32718   4.470   3.450   5.967  0.1819 -0.5249  0.8740
  984MOL0     C32719   4.522   3.589   5.909  0.3102 -1.1893 -0.4431
  984MOL0     C32720   4.430   3.705   5.959  0.0882 -0.3130  0.0266
  984MOL0     C32721   4.461   3.834   5.880 -0.9730 -0.9489  0.9888
  984MOL0     N32722   4.580   3.905   5.935  0.0370 -0.5518  0.7786
  984MOL0     C32723   4.649   4.013   5.874  0.1440 -0.9215  0.0467
  984MOL0     C32724   4.730   4.064   5.966  0.8314  0.0084 -0.5062
  984MOL0     C32725   4.813   4.188   5.967  0.0653 -0.8190 -0.2391
  984MOL0     C32726   4.967   4.185   5.939 -0.3577 -0.2594  1.0388
  984MOL0     C32727   5.017   4.325   5.945  0.4029 -0.2365  0.6759
  984MOL0     C32728   5.170   4.320   5.954  0.0894 -0.2391  0.2401
  984MOL0     O32729   5.205   4.442   6.015 -0.3167 -0.3699 -0.1199
  984MOL0     C32730   5.216   4.546   5.927 -0.4012 -0.3584  0.5824
  984MOL0     C32731   5.343   4.589   5.883  0.0195 -0.2194  0.2080
  984MOL0     C32732   5.353   4.701   5.799  0.1873  0.2295  0.0604
  984MOL0     C32733   5.496   4.730   5.759 -0.9426 -0.4444  1.6927
  984MOL0     C32734   5.234   4.761   5.751  0.6345  0.2791  0.4406
  984MOL0     C32735   5.222   4.869   5.647 -0.2146 -0.3503 -0.2674
  984MOL0     O32736   5.340   4.929   5.602 -0.4508 -0.0469 -0.0873
  984MOL0     C32737   5.340   5.027   5.508  0.9568  0.1602  0.1248
  984MOL0     C32738   5.297   5.156   5.538  0.7026 -1.0654 -0.3928
  984MOL0     C32739   5.278   5.255   5.433  1.1908  0.1550  0.2198
  984MOL0     C32740   5.298   5.224   5.296 -1.1099 -0.0017  0.7050
  984MOL0     O32741   5.280   5.302   5.189 -0.2825  0.2892  0.5563
  984MOL0     C32742   5.149   5.336   5.139  0.6942  0.5735  0.0772
  984MOL0     C32743   5.155   5.475   5.070  0.0545 -0.4579  0.6286
  984MOL0     C32744   5.234   5.468   4.938  0.2054  0.6080 -0.5147
  984MOL0     C32745   5.155   5.393   4.826 -0.3827 -0.1065 -0.7062
  984MOL0     C32746   5.227   5.410   4.693 -0.6454 -0.2832  0.7502
  984MOL0     C32747   5.211   5.292   4.603 -0.2283  0.7571 -0.3838
  984MOL0     C32748   5.297   5.159   4.635  0.4154 -0.8926 -1.2178
  984MOL0     C32749   5.212   5.040   4.585  0.3340  1.1637 -0.6098
  984MOL0    Cl32750   5.166   5.062   4.409  0.3408  0.0082 -0.2852
  984MOL0     C32751   5.354   5.097   5.276 -0.3236 -0.4043 -0.0484
  984MOL0     C32752   5.381   4.999   5.374  0.8473  0.1244 -0.3076
  984MOL0     O32753   5.111   4.901   5.610  0.2525  0.0368 -0.0352
  984MOL0     C32754   5.108   4.714   5.797  0.7819  0.7149 -0.7485
  984MOL0     C32755   5.096   4.613   5.892 -0.3425 -0.5257  0.4868
  984MOL0     N32756   4.701   3.994   6.086 -0.4353  0.0678 -0.1897
  984MOL0     N32757   4.625   3.894   6.063  0.3765  0.6866  0.7130
  984MOL0     C32758   4.111   2.925   5.647 -0.0074  0.5134  0.4714
  984MOL0     C32759   4.055   2.890   5.522  0.1593  0.0786 -0.1316
  984MOL0     C32760   3.914   2.855   5.090  0.2658  0.5458  1.0785
  984MOL0     C32761   3.820   2.914   5.009  0.2777 -0.1461 -0.5557
  984MOL0     C32762   3.792   2.871   4.880  0.1356  0.7804 -0.6955
  984MOL0     C32763   3.851   2.747   4.836 -0.9857  0.6224 -0.1905
  984MOL0     O32764   3.860   2.699   4.712 -0.6523 -0.5041 -0.0683
  984MOL0     C32765   3.751   2.722   4.629 -0.4487  1.1499 -0.2397
  984MOL0     C32766   3.761   2.856   4.552 -0.8174 -0.0038  0.4247
  984MOL0     C32767   3.841   2.840   4.424  0.1423 -0.1884  0.1267
  984MOL0     C32768   3.759   2.761   4.321 -0.3701  0.0245 -0.4454
  984MOL0     C32769   3.635   2.844   4.298  0.3303  0.1300  0.5074
  984MOL0     C32770   3.538   2.920   4.261 -0.2653  0.2241  0.2200
  984MOL0     C32771   3.938   2.682   4.922  0.6048  0.2066 -1.1196
  984MOL0     C32772   3.976   2.735   5.047  0.4353 -0.2002 -0.1053
  984MOL0     H32773   4.234   3.070   5.309  0.4449 -0.9521 -0.1770
  984MOL0     H32774   4.325   3.160   5.508  0.9124 -1.1922 -1.5123
  984MOL0     H32775   4.462   3.004   5.676 -0.6610 -0.8143 -0.4457
  984MOL0     H32776   4.433   3.183   5.708 -0.8125 -0.4137  1.4578
  984MOL0     H32777   4.458   2.979   5.923  1.6241 -0.9156 -0.0640
  984MOL0     H32778   4.595   3.064   5.848  0.6944  0.0427  2.7997
  984MOL0     H32779   4.369   3.214   5.983  1.4344  2.8251  1.2185
  984MOL0     H32780   4.509   3.169   6.074  0.4130  1.6627 -0.3782
  984MOL0     H32781   4.646   3.316   5.967  0.4753 -1.6247 -0.3838
  984MOL0     H32782   4.541   3.326   5.818 -3.1808 -1.1128 -0.5834
  984MOL0     H32783   4.365   3.425   5.948  0.5708 -2.2752  0.8058
  984MOL0     H32784   4.479   3.455   6.075  0.9331  0.3867  0.7791
  984MOL0     H32785   4.628   3.611   5.927 -0.3287  1.1015  0.9838
  984MOL0     H32786   4.500   3.579   5.803 -0.1551 -0.7443 -0.3914
  984MOL0     H32787   4.323   3.687   5.946 -0.7058  3.0795  1.0530
  984MOL0     H32788   4.438   3.722   6.066 -0.1407  0.9225 -0.1417
  984MOL0     H32789   4.377   3.903   5.892 -1.1873 -1.1599  0.7083
  984MOL0     H32790   4.476   3.819   5.773  4.3171 -0.3128  1.3747
  984MOL0     H32791   4.633   4.072   5.784 -0.0996  1.4270  1.5565
  984MOL0     H32792   4.758   4.255   5.900 -0.5142 -1.4746 -0.4342
  984MOL0     H32793   4.810   4.237   6.064 -1.1534  0.3707 -0.8492
  984MOL0     H32794   4.997   4.144   5.842  1.3194  0.6088  1.1477
  984MOL0     H32795   5.019   4.137   6.022  0.5651  1.6952  1.6408
  984MOL0     H32796   4.986   4.370   6.040  2.2228 -2.4611  2.4422
  984MOL0     H32797   4.976   4.381   5.861 -4.9417 -3.9465  0.3150
  984MOL0     H32798   5.203   4.297   5.853 -2.5998 -1.8535 -0.3871
  984MOL0     H32799   5.203   4.237   6.018  0.8704 -1.3731 -1.5520
  984MOL0     H32800   5.434   4.540   5.915  0.5559 -3.4638 -5.0242
  984MOL0     H32801   5.519   4.693   5.659  1.6713 -0.6708  2.3270
  984MOL0     H32802   5.514   4.838   5.767 -1.7403 -0.3691  2.8608
  984MOL0     H32803   5.573   4.689   5.825  0.6476 -1.2895 -0.5688
  984MOL0     H32804   5.265   5.183   5.639 -1.5457  3.1117 -1.9668
  984MOL0     H32805   5.240   5.351   5.466  0.4415  0.6842 -1.9876
  984MOL0     H32806   5.111   5.259   5.071 -0.2347 -0.3298  1.5626
  984MOL0     H32807   5.079   5.364   5.218  1.7566  4.2650 -0.1099
  984MOL0     H32808   5.058   5.523   5.050  0.0169 -0.9450 -0.4358
  984MOL0     H32809   5.202   5.540   5.144 -0.7049  0.3132  0.4518
  984MOL0     H32810   5.327   5.417   4.967 -0.6072 -0.0719  1.0116
  984MOL0     H32811   5.248   5.569   4.899 -0.1119  0.6126 -0.6165
  984MOL0     H32812   5.151   5.286   4.845 -2.0451 -0.1149 -0.9460
  984MOL0     H32813   5.052   5.427   4.813 -0.2249  0.8500  0.3975
  984MOL0     H32814   5.334   5.429   4.690 -0.9226  1.2942 -0.4182
  984MOL0     H32815   5.176   5.489   4.636 -1.7761 -2.4813 -1.4756
  984MOL0     H32816   5.108   5.255   4.598 -1.0440  2.9661 -0.9890
  984MOL0     H32817   5.218   5.321   4.498 -1.0478  0.4521 -0.5336
  984MOL0     H32818   5.322   5.139   4.739 -1.1124 -1.2921 -0.9103
  984MOL0     H32819   5.394   5.171   4.585  0.7414 -2.3245 -0.9967
  984MOL0     H32820   5.128   5.016   4.651  2.1991 -1.4872  1.0333
  984MOL0     H32821   5.275   4.950   4.577 -2.0115 -0.8420  1.5706
  984MOL0     H32822   5.380   5.067   5.175 -0.9078 -2.1422  0.2787
  984MOL0     H32823   5.428   4.906   5.343  1.2327  0.3918 -0.5370
  984MOL0     H32824   5.015   4.769   5.792  0.9950  1.4142  1.8594
  984MOL0     H32825   5.001   4.602   5.944 -2.4718  1.2487 -2.6608
  984MOL0     H32826   4.081   2.881   5.742  1.3334 -4.2129 -0.9962
  984MOL0     H32827   3.969   2.825   5.535 -0.4022  0.6531 -0.8542
  984MOL0     H32828   3.780   3.006   5.050  2.7347 -0.4033  2.9546
  984MOL0     H32829   3.724   2.926   4.815 -1.5830 -1.4659 -0.9373
  984MOL0     H32830   3.758   2.640   4.557  2.0752 -1.5087  2.7153
  984MOL0     H32831   3.660   2.724   4.690 -0.1345  0.8346  0.2528
  984MOL0     H32832   3.814   2.923   4.621  3.7803 -2.0883 -0.6867
  984MOL0     H32833   3.661   2.897   4.540 -0.3553  0.9178 -0.4546
  984MOL0     H32834   3.940   2.797   4.436  1.3879  2.0598 -1.4527
  984MOL0     H32835   3.861   2.941   4.388  1.8121 -0.7931 -0.7369
  984MOL0     H32836   3.743   2.657   4.348  0.0709  0.4570  1.6554
  984MOL0     H32837   3.816   2.740   4.230 -1.2208 -1.7414 -0.6095
  984MOL0     H32838   3.457   2.988   4.242 -1.4927 -0.8801  1.2007
  984MOL0     H32839   3.993   2.597   4.883  0.3955 -0.6613  0.3923
  984MOL0     H32840   4.055   2.693   5.108  0.6077 -0.3991 -0.4697
  985MOL0     O32841   3.908   2.746   2.148 -0.1348 -0.1727  0.1145
  985MOL0     C32842   4.004   2.810   2.190  0.2155 -1.4736  0.4204
  985MOL0     O32843   4.003   2.946   2.222  1.0561 -0.5652 -0.1907
  985MOL0     C32844   3.897   3.020   2.269  0.6476  0.6858  0.4272
  985MOL0     C32845   3.788   2.959   2.336  0.7222  0.0144  0.9371
  985MOL0     C32846   3.685   3.040   2.399 -0.1516 -1.2384 -0.6332
  985MOL0     C32847   3.671   3.180   2.375 -0.9745 -0.1466  0.0370
  985MOL0     O32848   3.568   3.239   2.433 -0.1124  0.4740 -0.4103
  985MOL0     C32849   3.562   3.379   2.430  0.3453  0.4013  0.7152
  985MOL0     C32850   3.414   3.423   2.442 -0.6857  0.5848  0.6788
  985MOL0     C32851   3.305   3.333   2.382 -0.3719 -0.7082 -0.1297
  985MOL0     C32852   3.183   3.320   2.470  0.5996  0.0729 -0.4322
  985MOL0     C32853   3.100   3.209   2.424  0.2287  0.3328 -0.5390
  985MOL0     C32854   2.953   3.199   2.486 -0.4922 -1.7798  0.9243
  985MOL0     C32855   2.962   3.162   2.623 -0.0213  0.0982 -1.1864
  985MOL0     C32856   2.822   3.096   2.665  0.0271  0.5861 -0.0827
  985MOL0     N32857   2.712   3.179   2.635  0.5224 -0.2795 -0.8492
  985MOL0     C32858   2.605   3.147   2.549 -0.9970 -0.6295  0.8012
  985MOL0     C32859   2.534   3.256   2.545  0.4321  0.7272 -0.0598
  985MOL0     C32860   2.395   3.276   2.477 -0.2584 -0.0389 -0.0882
  985MOL0     C32861   2.375   3.415   2.409 -0.6781  0.0591  0.6057
  985MOL0     C32862   2.226   3.441   2.380  1.6095  1.1758 -0.9318
  985MOL0     C32863   2.192   3.574   2.303  0.0405  0.3110 -0.0524
  985MOL0     O32864   2.074   3.579   2.222  0.6695 -0.3344  0.3484
  985MOL0     C32865   2.079   3.542   2.089 -0.1211  0.0327  0.0341
  985MOL0     C32866   2.175   3.475   2.014  0.5806 -0.2730 -0.8150
  985MOL0     C32867   2.149   3.455   1.881 -0.0141  0.1711 -0.3203
  985MOL0     C32868   2.242   3.357   1.817  0.9284 -0.4762 -0.2559
  985MOL0     C32869   2.034   3.510   1.815 -0.9225 -0.3770 -0.2436
  985MOL0     C32870   2.005   3.502   1.669  0.5440 -0.6125 -0.2951
  985MOL0     O32871   1.899   3.587   1.637 -0.3852  0.0597  0.4043
  985MOL0     C32872   1.844   3.607   1.511 -0.1643  0.1830 -0.3216
  985MOL0     C32873   1.748   3.714   1.500  0.3099 -0.1391  0.4423
  985MOL0     C32874   1.686   3.732   1.374  0.2765  0.4005  0.7100
  985MOL0     C32875   1.714   3.651   1.263 -0.4876 -0.0390  0.6517
  985MOL0     O32876   1.663   3.657   1.142 -0.0376 -0.1757 -0.8605
  985MOL0     C32877   1.594   3.773   1.107  0.3178 -0.4844 -0.5274
  985MOL0     C32878   1.581   3.796   0.955 -0.9109  0.4383  0.8069
  985MOL0     C32879   1.720   3.800   0.878 -0.9673 -0.1161 -1.0302
  985MOL0     C32880   1.695   3.850   0.728 -0.6661  0.2883  0.8427
  985MOL0     C32881   1.824   3.869   0.653  0.4449 -0.2447 -0.7770
  985MOL0     C32882   1.905   3.742   0.641 -0.3734  0.3078  0.5988
  985MOL0     C32883   2.038   3.760   0.563  0.1238  0.2766 -0.7696
  985MOL0     C32884   2.039   3.694   0.433  0.2452  0.6491 -0.6491
  985MOL0    Cl32885   2.166   3.736   0.316 -0.4750  0.2257  0.0548
  985MOL0     C32886   1.797   3.546   1.279 -0.5581  0.3678 -0.5722
  985MOL0     C32887   1.852   3.513   1.401 -0.1318  0.5951  0.1126
  985MOL0     O32888   2.075   3.441   1.588  0.8370  0.0117 -0.5727
  985MOL0     C32889   1.936   3.556   1.895 -0.5984  0.1614 -1.2429
  985MOL0     C32890   1.963   3.580   2.025 -0.2018 -0.3774  0.1111
  985MOL0     N32891   2.583   3.352   2.636 -0.3407  0.5874  0.1098
  985MOL0     N32892   2.693   3.306   2.689 -0.3330  0.0983  0.0279
  985MOL0     C32893   3.784   3.237   2.311 -0.2140  0.4540 -0.7556
  985MOL0     C32894   3.896   3.163   2.272  0.4163  0.7701  0.0426
  985MOL0     C32895   4.127   2.738   2.185 -0.2192 -0.2767 -0.2316
  985MOL0     C32896   4.242   2.816   2.189  0.8973 -0.5449 -0.6470
  985MOL0     C32897   4.369   2.749   2.213  1.6109 -0.1670 -0.2480
  985MOL0     C32898   4.367   2.612   2.229  0.1983  0.5900 -0.3987
  985MOL0     O32899   4.488   2.552   2.266  0.6860  0.1842  0.6028
  985MOL0     C32900   4.541   2.465   2.170  0.4182  0.5890  0.9458
  985MOL0     C32901   4.661   2.529   2.104  0.5799  0.1343  0.3304
  985MOL0     C32902   4.722   2.434   1.988 -0.6147 -0.3030  0.1147
  985MOL0     C32903   4.872   2.469   1.953  0.6102 -0.6489 -0.4744
  985MOL0     C32904   4.871   2.614   1.930 -0.4646  0.9210 -1.5505
  985MOL0     C32905   4.845   2.733   1.941 -0.0405 -0.8194 -0.8841
  985MOL0     C32906   4.253   2.532   2.209  0.5552  0.1363 -0.5762
  985MOL0     C32907   4.128   2.600   2.198 -0.5648  0.1291  0.7399
  985MOL0     H32908   3.792   2.852   2.348  2.9271 -0.3531 -2.0229
  985MOL0     H32909   3.621   2.992   2.472  0.4280 -0.4360  0.4324
  985MOL0     H32910   3.620   3.418   2.514  1.9185  1.4813 -0.7927
  985MOL0     H32911   3.607   3.424   2.341 -0.8936 -1.0114 -0.6863
  985MOL0     H32912   3.388   3.401   2.546 -3.5703 -1.5751 -0.3662
  985MOL0     H32913   3.403   3.531   2.430 -0.8156  0.4622 -0.3658
  985MOL0     H32914   3.277   3.372   2.283  1.6329  0.1103 -0.4338
  985MOL0     H32915   3.332   3.228   2.365 -0.7083 -1.3401  2.8234
  985MOL0     H32916   3.221   3.314   2.573 -0.8690 -2.8889  0.0313
  985MOL0     H32917   3.125   3.412   2.470 -1.6125 -1.2618 -0.4447
  985MOL0     H32918   3.087   3.229   2.318  0.1287 -0.0047 -0.5928
  985MOL0     H32919   3.145   3.112   2.449  0.0433 -0.4728 -3.0741
  985MOL0     H32920   2.901   3.292   2.461  0.9330 -1.7153 -2.2469
  985MOL0     H32921   2.902   3.129   2.420  0.9174  0.5283 -3.0218
  985MOL0     H32922   3.052   3.105   2.651 -0.1496  0.0824 -0.7965
  985MOL0     H32923   2.973   3.251   2.686  4.9274 -0.4661 -0.8022
  985MOL0     H32924   2.826   3.094   2.774  0.4920 -0.7544 -0.1084
  985MOL0     H32925   2.802   3.000   2.617 -1.5358  0.0037  1.6301
  985MOL0     H32926   2.587   3.061   2.486 -0.1390 -0.7902  0.7670
  985MOL0     H32927   2.378   3.211   2.391 -0.3089 -0.6794  0.3953
  985MOL0     H32928   2.315   3.243   2.544 -0.4381  0.8989  0.1770
  985MOL0     H32929   2.427   3.405   2.313 -0.6101  1.3247  0.4958
  985MOL0     H32930   2.420   3.496   2.467  2.4932 -0.1006 -1.3563
  985MOL0     H32931   2.170   3.440   2.474  1.5288  3.6370 -0.9022
  985MOL0     H32932   2.184   3.351   2.333  0.5905  0.0337  1.9482
  985MOL0     H32933   2.275   3.600   2.236  0.7137 -0.0067  0.6364
  985MOL0     H32934   2.196   3.652   2.379  0.8674  0.6874 -0.4717
  985MOL0     H32935   2.270   3.437   2.049  0.5135  0.2051 -0.0944
  985MOL0     H32936   2.187   3.284   1.756  0.9964 -0.8648  0.1414
  985MOL0     H32937   2.329   3.398   1.765  0.6438  0.6184  0.1138
  985MOL0     H32938   2.283   3.290   1.893  0.8695  0.0108  0.2063
  985MOL0     H32939   1.725   3.769   1.590 -0.0875  0.0170  0.2460
  985MOL0     H32940   1.626   3.822   1.368 -0.7757 -0.3317 -0.2426
  985MOL0     H32941   1.501   3.775   1.163  2.3149 -0.2680  3.0558
  985MOL0     H32942   1.659   3.853   1.145 -0.0767 -0.9175  1.1308
  985MOL0     H32943   1.512   3.724   0.911 -0.3836  1.9726 -2.8790
  985MOL0     H32944   1.529   3.891   0.938 -0.5357  0.5699  0.3584
  985MOL0     H32945   1.766   3.701   0.890  1.8169  1.3903  3.0429
  985MOL0     H32946   1.793   3.869   0.922 -3.7663  1.2362  1.8563
  985MOL0     H32947   1.628   3.786   0.670 -0.2057  1.2282 -0.7944
  985MOL0     H32948   1.633   3.940   0.727 -0.2042  0.6991 -2.5464
  985MOL0     H32949   1.885   3.949   0.696  1.3094 -0.8783 -0.7921
  985MOL0     H32950   1.795   3.896   0.551 -1.5562 -0.8394 -0.4197
  985MOL0     H32951   1.931   3.693   0.736  1.1697 -3.6796 -1.6345
  985MOL0     H32952   1.858   3.657   0.591  0.7302  0.1750 -0.2474
  985MOL0     H32953   2.134   3.744   0.614 -0.4897  2.9434  1.4641
  985MOL0     H32954   2.048   3.868   0.546  0.1332  0.4958  0.5311
  985MOL0     H32955   1.945   3.718   0.383 -0.1502 -0.8407 -0.6656
  985MOL0     H32956   2.040   3.586   0.451  1.7936  0.7042 -0.3032
  985MOL0     H32957   1.822   3.480   1.197 -2.9193 -2.4241  0.7556
  985MOL0     H32958   1.934   3.442   1.408  0.1981  1.1207  2.8296
  985MOL0     H32959   1.836   3.583   1.862  0.1290  3.5371 -1.0212
  985MOL0     H32960   1.887   3.626   2.087 -0.3466  0.4790 -0.6848
  985MOL0     H32961   3.784   3.343   2.289 -1.3272  0.5373 -0.3757
  985MOL0     H32962   3.969   3.212   2.209 -0.5014  0.5561 -1.2262
  985MOL0     H32963   4.235   2.924   2.180  0.0847 -0.2566  2.4771
  985MOL0     H32964   4.462   2.804   2.223  0.3867  2.6993 -2.9715
  985MOL0     H32965   4.564   2.360   2.193 -0.6362  0.6471  2.4173
  985MOL0     H32966   4.468   2.453   2.089  0.4199  1.4605  0.8080
  985MOL0     H32967   4.742   2.543   2.176  4.0030 -3.1420 -2.5147
  985MOL0     H32968   4.626   2.622   2.059 -2.0442 -0.6991  0.4741
  985MOL0     H32969   4.663   2.451   1.898 -1.0904 -3.4806 -0.2942
  985MOL0     H32970   4.724   2.328   2.017  3.0613  0.0558  1.6559
  985MOL0     H32971   4.920   2.411   1.874  0.1344 -1.1173 -0.4214
  985MOL0     H32972   4.923   2.457   2.049  0.2955  2.2265  0.1669
  985MOL0     H32973   4.818   2.837   1.947 -0.8958 -1.0405 -0.7765
  985MOL0     H32974   4.242   2.424   2.213 -1.6088  0.2606 -1.5763
  985MOL0     H32975   4.034   2.545   2.199 -2.6396  3.3267 -0.6007
  986MOL0     O32976   4.631   0.964   3.906  0.3899 -0.3685  1.4591
  986MOL0     C32977   4.741   0.912   3.879 -1.3291  0.2701 -0.0442
  986MOL0     O32978   4.781   0.795   3.936  1.0144  0.0877 -0.3468
  986MOL0     C32979   4.687   0.716   3.994  1.3808  0.9240 -0.6379
  986MOL0     C32980   4.720   0.640   4.111 -0.4900  0.0406  0.4305
  986MOL0     C32981   4.621   0.564   4.177 -0.7573 -0.6536 -0.8378
  986MOL0     C32982   4.490   0.555   4.142 -0.5763  0.2285 -0.4597
  986MOL0     O32983   4.400   0.478   4.215 -0.4266 -0.4523 -0.2356
  986MOL0     C32984   4.314   0.551   4.294 -0.2552  0.6441 -0.6845
  986MOL0     C32985   4.229   0.452   4.377  0.6099  1.3814 -0.0011
  986MOL0     C32986   4.099   0.518   4.446  0.3768  0.2620  0.8372
  986MOL0     C32987   4.151   0.614   4.551 -0.2648  0.1085  0.1667
  986MOL0     C32988   4.029   0.689   4.610 -0.0690 -0.9259  0.7484
  986MOL0     C32989   4.093   0.781   4.720 -0.8121  0.5301 -0.2742
  986MOL0     C32990   3.988   0.873   4.783  0.3289 -0.2329 -0.3602
  986MOL0     C32991   4.030   0.961   4.897 -0.3663 -0.2767 -0.2218
  986MOL0     N32992   3.926   1.046   4.946  0.7590 -0.0441  0.1180
  986MOL0     C32993   3.793   1.012   4.967  0.0842  0.5798 -0.6969
  986MOL0     C32994   3.753   1.125   5.028  0.1331 -0.4485  0.0283
  986MOL0     C32995   3.626   1.125   5.101  0.1825 -0.5118  0.3440
  986MOL0     C32996   3.527   1.167   4.989  0.2890  0.2965 -0.0544
  986MOL0     C32997   3.384   1.153   5.038 -0.7563 -0.0166 -0.1403
  986MOL0     C32998   3.278   1.214   4.949  0.7749 -1.0730 -0.1530
  986MOL0     O32999   3.319   1.347   4.932 -0.0963 -0.0186 -0.3842
  986MOL0     C33000   3.253   1.422   4.847  0.6183 -0.4841 -0.2214
  986MOL0     C33001   3.155   1.368   4.755  0.1856 -0.8570  0.4782
  986MOL0     C33002   3.082   1.462   4.676 -0.4776  0.1108  0.4473
  986MOL0     C33003   3.018   1.401   4.552  0.5136 -0.9606  0.2545
  986MOL0     C33004   3.103   1.601   4.684 -0.0969  0.3612  0.4261
  986MOL0     C33005   3.061   1.697   4.580  0.5273  1.0202 -0.1988
  986MOL0     O33006   3.039   1.828   4.623 -0.8696 -0.5641  0.0782
  986MOL0     C33007   3.012   1.923   4.527  0.5831  0.4148  0.2726
  986MOL0     C33008   2.889   1.995   4.524  0.5695  0.2632  0.9022
  986MOL0     C33009   2.861   2.096   4.431 -0.6108  0.1466  0.1978
  986MOL0     C33010   2.947   2.118   4.327  0.1669 -0.0432  0.7335
  986MOL0     O33011   2.920   2.208   4.231  0.1122 -0.1730  0.1173
  986MOL0     C33012   2.966   2.199   4.088 -1.9689  0.4701 -0.2965
  986MOL0     C33013   2.868   2.282   4.005  0.6781 -0.0500  0.3341
  986MOL0     C33014   2.872   2.258   3.849  0.6866  0.4801 -0.5599
  986MOL0     C33015   2.770   2.335   3.768 -0.0833  1.6913  1.2326
  986MOL0     C33016   2.773   2.282   3.626  0.0372 -1.5312  0.5290
  986MOL0     C33017   2.743   2.135   3.605 -0.5535 -0.6974 -0.1406
  986MOL0     C33018   2.601   2.094   3.641 -0.9910  0.1965  0.3522
  986MOL0     C33019   2.585   1.990   3.743 -0.2106 -0.0246 -0.6298
  986MOL0    Cl33020   2.408   1.966   3.763 -0.0264  0.2613  0.1854
  986MOL0     C33021   3.070   2.044   4.324 -0.3151  0.1639 -0.2880
  986MOL0     C33022   3.095   1.949   4.420  0.2196 -0.2779  0.1529
  986MOL0     O33023   3.083   1.660   4.462  0.0335  0.2800  0.7242
  986MOL0     C33024   3.195   1.649   4.780 -0.4886  0.7328  0.2764
  986MOL0     C33025   3.284   1.561   4.846  0.0340  0.4286 -0.7713
  986MOL0     N33026   3.845   1.228   5.025 -1.1905  0.4787  0.3506
  986MOL0     N33027   3.944   1.177   4.979 -0.1497 -0.3789  0.2411
  986MOL0     C33028   4.461   0.618   4.017  0.3038 -0.2310 -0.2621
  986MOL0     C33029   4.556   0.687   3.941  0.6527 -0.3068  0.9920
  986MOL0     C33030   4.837   0.992   3.803  0.0889 -0.0660  0.4557
  986MOL0     C33031   4.813   1.135   3.775  0.3475  0.2792  0.6364
  986MOL0     C33032   4.903   1.215   3.706  0.2198 -0.3488  0.0532
  986MOL0     C33033   5.030   1.161   3.671  0.0760  0.0985 -0.5729
  986MOL0     O33034   5.122   1.227   3.603 -0.5177  0.2304 -0.9349
  986MOL0     C33035   5.114   1.376   3.609 -0.1543 -0.2156  0.8421
  986MOL0     C33036   5.247   1.460   3.616  0.3309 -0.2320 -0.0143
  986MOL0     C33037   5.349   1.410   3.715 -0.5405 -0.4607  0.5108
  986MOL0     C33038   5.471   1.501   3.722  0.1537  0.9451 -0.2683
  986MOL0     C33039   5.539   1.502   3.593 -1.1800  0.4323  0.1666
  986MOL0     C33040   5.591   1.535   3.491  0.8206  0.8411  0.3544
  986MOL0     C33041   5.069   1.034   3.713  0.1386 -0.2033  0.1762
  986MOL0     C33042   4.969   0.943   3.770 -0.5885 -0.3462  0.3334
  986MOL0     H33043   4.821   0.644   4.151 -0.6281  0.7623  0.7233
  986MOL0     H33044   4.639   0.513   4.271  0.9786  3.5956  1.3950
  986MOL0     H33045   4.376   0.611   4.362  1.1948  0.5033 -1.8349
  986MOL0     H33046   4.263   0.624   4.231 -1.2127  1.5130  1.0312
  986MOL0     H33047   4.199   0.367   4.316  4.7762  0.0701 -0.5131
  986MOL0     H33048   4.302   0.413   4.449  0.1462  3.8823  1.9950
  986MOL0     H33049   4.020   0.553   4.379 -1.5273 -1.6676  1.9290
  986MOL0     H33050   4.053   0.434   4.498  0.0776 -1.0919 -1.4525
  986MOL0     H33051   4.220   0.565   4.621  1.2033  1.1764 -0.4880
  986MOL0     H33052   4.213   0.696   4.514  0.9548 -1.4197 -1.3037
  986MOL0     H33053   3.984   0.750   4.531 -0.9512 -3.2933 -0.6663
  986MOL0     H33054   3.949   0.627   4.649 -1.3539 -1.2765 -2.1702
  986MOL0     H33055   4.156   0.716   4.782  0.5577  1.0811 -1.0425
  986MOL0     H33056   4.170   0.845   4.676  0.5589 -1.2524 -0.5911
  986MOL0     H33057   3.928   0.925   4.707 -0.9133  1.0329  1.3970
  986MOL0     H33058   3.917   0.800   4.822 -0.6186  0.2224 -1.1701
  986MOL0     H33059   4.122   1.014   4.874 -0.6640  0.0800 -0.5979
  986MOL0     H33060   4.035   0.895   4.985 -0.0255  2.5364  2.0238
  986MOL0     H33061   3.741   0.917   4.971 -2.3696  1.8303  3.2394
  986MOL0     H33062   3.605   1.039   5.164  3.2384 -1.0245  0.8360
  986MOL0     H33063   3.634   1.206   5.174 -0.5122 -0.4327  0.3396
  986MOL0     H33064   3.540   1.113   4.895  2.4777  0.2314  0.2467
  986MOL0     H33065   3.547   1.273   4.971  2.9090 -0.2636 -0.8230
  986MOL0     H33066   3.366   1.220   5.123  0.0329 -1.6629  1.3948
  986MOL0     H33067   3.362   1.051   5.070  2.8503 -0.0783  2.8040
  986MOL0     H33068   3.180   1.217   4.997  0.1547  3.0320 -1.2989
  986MOL0     H33069   3.275   1.160   4.854 -0.0362  0.5364 -1.0853
  986MOL0     H33070   3.134   1.263   4.741 -1.8342 -0.2814 -1.3662
  986MOL0     H33071   2.945   1.321   4.570 -2.7458  2.0977  1.9117
  986MOL0     H33072   2.938   1.468   4.520 -0.8845 -1.2006  2.9640
  986MOL0     H33073   3.084   1.364   4.473  0.0340 -1.9514  0.2949
  986MOL0     H33074   2.816   1.980   4.603  0.0112  1.5378  0.6508
  986MOL0     H33075   2.768   2.153   4.434 -1.8279 -1.5762 -1.6870
  986MOL0     H33076   3.069   2.236   4.087 -2.2382  1.3238  1.0130
  986MOL0     H33077   2.969   2.102   4.039 -0.7032 -0.1281  0.9176
  986MOL0     H33078   2.770   2.250   4.041  0.6834  0.4793  0.8454
  986MOL0     H33079   2.878   2.389   4.029 -0.2445  0.8202 -2.6617
  986MOL0     H33080   2.870   2.151   3.826 -0.3315  0.5250 -0.7235
  986MOL0     H33081   2.964   2.296   3.804  0.5438 -0.2516 -1.4840
  986MOL0     H33082   2.671   2.305   3.806  0.4178  1.8770  2.7482
  986MOL0     H33083   2.781   2.443   3.775 -0.9293  2.1717 -2.7015
  986MOL0     H33084   2.868   2.311   3.582 -2.1670  1.5042 -2.8056
  986MOL0     H33085   2.693   2.333   3.570  0.6519  1.0901  1.8823
  986MOL0     H33086   2.753   2.117   3.498  1.9855 -0.0841 -0.0823
  986MOL0     H33087   2.822   2.083   3.658 -1.3498  0.9855  2.9525
  986MOL0     H33088   2.555   2.076   3.543  2.3852  2.3611 -1.8298
  986MOL0     H33089   2.563   2.183   3.693  2.1724  0.2471  2.8553
  986MOL0     H33090   2.627   2.016   3.841 -0.6665 -2.1356  0.1647
  986MOL0     H33091   2.623   1.891   3.716 -1.2485 -0.1892 -1.5475
  986MOL0     H33092   3.142   2.053   4.243  1.0936  0.6009  0.9602
  986MOL0     H33093   3.182   1.884   4.426 -0.5251 -1.3282 -0.0763
  986MOL0     H33094   3.206   1.756   4.792  0.1999  0.9977 -2.1661
  986MOL0     H33095   3.369   1.602   4.899  0.3582 -0.4875 -0.5592
  986MOL0     H33096   4.358   0.605   3.984 -0.7829 -1.1794  3.0870
  986MOL0     H33097   4.538   0.727   3.842  0.3047 -2.8629 -0.0525
  986MOL0     H33098   4.719   1.178   3.809 -0.4177 -3.7020  4.5166
  986MOL0     H33099   4.875   1.316   3.677 -0.8336  0.0241  2.1549
  986MOL0     H33100   5.045   1.415   3.534 -0.6912  1.5049  2.1610
  986MOL0     H33101   5.067   1.398   3.705 -0.0266  1.4494  0.5509
  986MOL0     H33102   5.220   1.564   3.640  0.4045 -0.4746  1.1916
  986MOL0     H33103   5.287   1.472   3.514  2.2948  2.5903  0.9431
  986MOL0     H33104   5.380   1.308   3.692 -0.0555 -0.5300  1.4200
  986MOL0     H33105   5.298   1.405   3.812 -4.5754 -1.4653 -1.4386
  986MOL0     H33106   5.541   1.467   3.798  0.8956 -0.3520 -1.4873
  986MOL0     H33107   5.445   1.607   3.738  1.4470  1.4042 -1.0366
  986MOL0     H33108   5.652   1.568   3.409  1.3415 -0.7264  0.0710
  986MOL0     H33109   5.173   1.003   3.708 -1.4260 -6.7767 -1.5088
  986MOL0     H33110   5.002   0.841   3.784  0.2900 -0.0122  0.7815
  987MOL0     O33111  11.120   5.240   7.588 -0.3285  0.5329 -0.0836
  987MOL0     C33112  11.071   5.319   7.504 -0.3045  0.6359  0.1267
  987MOL0     O33113  11.029   5.280   7.377  0.4619 -0.0871  1.0615
  987MOL0     C33114  11.035   5.149   7.319 -0.0677 -0.5324  0.6585
  987MOL0     C33115  10.976   5.148   7.195  0.9117  0.2766 -0.7521
  987MOL0     C33116  10.963   5.035   7.116 -0.1070  0.1084 -0.2060
  987MOL0     C33117  11.020   4.910   7.158 -0.1444 -0.2698  0.4381
  987MOL0     O33118  11.005   4.799   7.084  0.6843 -0.2781  0.2922
  987MOL0     C33119  11.014   4.672   7.151 -0.0571  0.1699  0.2500
  987MOL0     C33120  10.896   4.587   7.089 -0.0941 -0.0855  0.6638
  987MOL0     C33121  10.915   4.441   7.106 -0.4889 -0.2089  0.7311
  987MOL0     C33122  10.800   4.362   7.070 -0.3734  0.7206  0.3618
  987MOL0     C33123  10.820   4.215   7.092 -0.6115  0.2450 -0.5079
  987MOL0     C33124  10.694   4.131   7.051  0.5976 -0.0579 -0.4089
  987MOL0     C33125  10.719   3.977   7.055 -0.5615 -0.2931  0.4739
  987MOL0     C33126  10.604   3.897   7.009  0.2099 -0.5097  0.6649
  987MOL0     N33127  10.588   3.756   7.058 -0.2075 -0.5545  0.5484
  987MOL0     C33128  10.609   3.639   6.991  0.2941 -0.3182 -0.0316
  987MOL0     C33129  10.581   3.545   7.074 -0.6438  0.9122 -0.6872
  987MOL0     C33130  10.587   3.398   7.052  0.5592 -0.7966  0.7529
  987MOL0     C33131  10.444   3.336   7.045  0.0362 -0.0928 -0.0353
  987MOL0     C33132  10.395   3.253   7.170  0.2982  0.0665 -0.4703
  987MOL0     C33133  10.394   3.335   7.297  0.2841 -0.2365  0.2815
  987MOL0     O33134  10.333   3.267   7.402  0.2371  0.7195 -0.1954
  987MOL0     C33135  10.380   3.308   7.525  0.4261 -0.5199 -0.8062
  987MOL0     C33136  10.336   3.422   7.586 -0.8538  0.7874  0.1439
  987MOL0     C33137  10.357   3.446   7.727  0.0161 -1.0788  0.1506
  987MOL0     C33138  10.294   3.587   7.771  1.1825 -0.6979 -0.7394
  987MOL0     C33139  10.448   3.353   7.791  0.1055  1.2236  0.8752
  987MOL0     C33140  10.491   3.380   7.922 -0.5524  0.4966  0.8030
  987MOL0     O33141  10.599   3.301   7.962  0.0447  0.7198  0.4506
  987MOL0     C33142  10.659   3.302   8.080  0.6303 -0.2352 -0.7760
  987MOL0     C33143  10.595   3.338   8.198  0.0752 -0.2391  0.0603
  987MOL0     C33144  10.662   3.346   8.320 -1.0805 -0.2056 -0.1134
  987MOL0     C33145  10.798   3.309   8.325 -0.0541  0.1284  0.2046
  987MOL0     O33146  10.876   3.305   8.437 -0.3851 -0.6844 -1.0251
  987MOL0     C33147  10.839   3.400   8.534 -0.3131  0.4021  0.1665
  987MOL0     C33148  10.960   3.440   8.626  0.7470 -0.6437 -0.4033
  987MOL0     C33149  10.913   3.531   8.734  0.5454  0.4949  0.4635
  987MOL0     C33150  10.833   3.463   8.850  0.3583  0.1431 -0.2854
  987MOL0     C33151  10.859   3.530   8.981 -1.1110 -0.4179  0.2545
  987MOL0     C33152  10.778   3.464   9.105 -1.5581 -1.0340  0.5525
  987MOL0     C33153  10.787   3.543   9.232 -0.1161  0.3220 -0.4300
  987MOL0     C33154  10.819   3.462   9.361  1.3451  0.6740  0.3483
  987MOL0    Cl33155  10.732   3.314   9.382  0.4283  0.2141 -0.0496
  987MOL0     C33156  10.861   3.265   8.211 -0.1366 -0.6413 -0.5244
  987MOL0     C33157  10.793   3.260   8.089  0.5164 -0.2291 -0.3591
  987MOL0     O33158  10.445   3.466   7.990 -0.6405  0.6495  0.1412
  987MOL0     C33159  10.499   3.243   7.714  0.1583 -0.1054 -0.2132
  987MOL0     C33160  10.463   3.221   7.585  0.3904 -1.0424 -0.1390
  987MOL0     N33161  10.548   3.597   7.199 -0.4693  0.3471 -0.8242
  987MOL0     N33162  10.571   3.724   7.186 -0.6974 -0.0627 -0.8611
  987MOL0     C33163  11.074   4.907   7.294 -0.7015 -0.4714  0.3532
  987MOL0     C33164  11.083   5.026   7.365 -0.0798 -0.1519 -0.0269
  987MOL0     C33165  11.062   5.465   7.544 -0.3092 -0.5198 -0.1337
  987MOL0     C33166  10.993   5.556   7.475 -0.2710 -0.3954 -0.1119
  987MOL0     C33167  11.007   5.694   7.487  0.3314 -0.3373 -0.4442
  987MOL0     C33168  11.099   5.745   7.577 -0.8729 -0.7508  0.1861
  987MOL0     O33169  11.122   5.878   7.570 -0.5710  0.1005  0.3072
  987MOL0     C33170  11.231   5.933   7.641  0.2614 -0.4433 -0.3287
  987MOL0     C33171  11.186   5.973   7.781 -0.3602  0.8082 -0.8484
  987MOL0     C33172  11.285   6.051   7.856 -0.2587  0.7888 -0.4968
  987MOL0     C33173  11.283   6.023   8.008  0.9323  0.5373 -0.0003
  987MOL0     C33174  11.151   6.048   8.068  0.3794 -0.0744 -0.4377
  987MOL0     C33175  11.056   6.071   8.140  0.5458 -0.3896  0.5665
  987MOL0     C33176  11.169   5.658   7.663 -0.2174 -0.0584 -1.5314
  987MOL0     C33177  11.152   5.520   7.634  0.1459  0.0492 -0.3412
  987MOL0     H33178  10.928   5.239   7.158 -0.0168  0.1671  0.1437
  987MOL0     H33179  10.902   5.037   7.026 -1.2659  0.5156  0.5655
  987MOL0     H33180  11.104   4.621   7.117 -2.1443 -3.0212 -0.9936
  987MOL0     H33181  11.016   4.678   7.260 -0.2627  0.3891  0.2417
  987MOL0     H33182  10.802   4.620   7.135  1.1296  0.8018  2.6840
  987MOL0     H33183  10.890   4.619   6.985  1.9627 -0.2034  0.4759
  987MOL0     H33184  11.009   4.408   7.062  0.1225  0.9558  1.1074
  987MOL0     H33185  10.944   4.426   7.211  0.9851 -1.4366  0.1722
  987MOL0     H33186  10.723   4.388   7.143  1.2527 -1.1086  2.8823
  987MOL0     H33187  10.772   4.387   6.967 -0.0257 -0.5927 -0.0694
  987MOL0     H33188  10.909   4.189   7.034  0.1924  2.5305 -0.3764
  987MOL0     H33189  10.844   4.207   7.198 -2.2073 -0.4072 -0.1680
  987MOL0     H33190  10.612   4.162   7.116 -0.2634  2.6667 -2.5968
  987MOL0     H33191  10.661   4.152   6.949 -0.5719 -1.7730 -0.4256
  987MOL0     H33192  10.803   3.946   6.992 -2.2158 -0.8591 -1.5618
  987MOL0     H33193  10.749   3.964   7.159  0.2960  4.4098  1.0442
  987MOL0     H33194  10.605   3.885   6.901 -0.1089  0.9464  0.4759
  987MOL0     H33195  10.513   3.952   7.036  0.0943 -0.7082  0.6814
  987MOL0     H33196  10.633   3.620   6.887  3.9324 -0.8770  0.7814
  987MOL0     H33197  10.623   3.390   6.949 -0.4942  1.9756  0.0640
  987MOL0     H33198  10.646   3.353   7.132 -0.6438 -1.1270  1.4726
  987MOL0     H33199  10.431   3.273   6.957  0.3302  1.2787 -1.0922
  987MOL0     H33200  10.379   3.420   7.020  2.3382  2.5345  2.0805
  987MOL0     H33201  10.467   3.172   7.183  4.3389  3.2556 -0.9575
  987MOL0     H33202  10.294   3.214   7.151 -0.4855  0.4194  2.5283
  987MOL0     H33203  10.345   3.429   7.270  1.0737 -0.1922 -1.0791
  987MOL0     H33204  10.497   3.365   7.320  0.1878  0.4307 -0.1112
  987MOL0     H33205  10.282   3.490   7.521 -2.4637  0.4859  1.1132
  987MOL0     H33206  10.338   3.675   7.725 -0.7068 -0.7885 -2.9044
  987MOL0     H33207  10.188   3.585   7.745  0.0874  1.9736  2.6887
  987MOL0     H33208  10.282   3.589   7.880 -1.0947  0.7170 -0.9521
  987MOL0     H33209  10.488   3.354   8.200 -0.4090 -2.7200 -1.2448
  987MOL0     H33210  10.615   3.396   8.403 -1.2382 -1.8535  0.8364
  987MOL0     H33211  10.784   3.487   8.496 -0.3647 -0.0062 -0.7104
  987MOL0     H33212  10.779   3.340   8.603 -1.0822  1.5125  0.4924
  987MOL0     H33213  11.000   3.355   8.681  0.6998 -0.4455 -0.0607
  987MOL0     H33214  11.039   3.485   8.565  0.3408 -0.6183 -0.9213
  987MOL0     H33215  10.860   3.619   8.698  0.8524  0.9779  1.1681
  987MOL0     H33216  11.005   3.564   8.783 -0.7290  5.1955  0.1377
  987MOL0     H33217  10.726   3.464   8.826  1.2108  0.0361 -5.0163
  987MOL0     H33218  10.858   3.357   8.855  1.6830  0.4073 -0.9673
  987MOL0     H33219  10.827   3.633   8.958 -2.4139 -1.2309 -1.9683
  987MOL0     H33220  10.965   3.522   9.007 -1.5356 -2.2046  1.6114
  987MOL0     H33221  10.673   3.439   9.084 -2.3528  0.7535  2.1327
  987MOL0     H33222  10.835   3.372   9.121 -0.7686 -0.3355  1.8996
  987MOL0     H33223  10.699   3.606   9.248 -1.4829 -1.5084 -0.4286
  987MOL0     H33224  10.879   3.601   9.230  1.8520 -2.6236 -0.6207
  987MOL0     H33225  10.802   3.517   9.454 -1.4141  0.5568  0.0016
  987MOL0     H33226  10.926   3.439   9.356  0.9626 -1.9277  2.1361
  987MOL0     H33227  10.962   3.227   8.222  2.1346  4.4369 -1.0680
  987MOL0     H33228  10.836   3.240   7.992  0.8080  2.1800 -0.7915
  987MOL0     H33229  10.569   3.174   7.758 -0.3797  0.4357  1.5852
  987MOL0     H33230  10.485   3.129   7.533 -2.4895 -0.1921 -3.2051
  987MOL0     H33231  11.120   4.820   7.341  1.2785  1.3017  1.8613
  987MOL0     H33232  11.124   5.025   7.465 -1.1931 -2.5839  0.4888
  987MOL0     H33233  10.914   5.518   7.410 -1.2321 -1.0973  1.3981
  987MOL0     H33234  10.949   5.756   7.419 -0.5770 -1.3916 -0.6590
  987MOL0     H33235  11.318   5.869   7.655  1.1128  0.8108  0.2822
  987MOL0     H33236  11.250   6.029   7.591 -1.6565  2.2584  3.5760
  987MOL0     H33237  11.173   5.884   7.842 -1.2785  2.2532  1.1696
  987MOL0     H33238  11.094   6.029   7.800 -1.2031 -1.7614  4.5105
  987MOL0     H33239  11.262   6.157   7.841  2.0770  1.6699  1.4697
  987MOL0     H33240  11.385   6.039   7.813 -0.0781  3.3263 -0.9545
  987MOL0     H33241  11.368   6.076   8.050  3.0720  0.5448 -3.8626
  987MOL0     H33242  11.304   5.916   8.019 -0.2661  0.0087 -2.1748
  987MOL0     H33243  10.975   6.093   8.207  0.1256  0.9090 -0.3415
  987MOL0     H33244  11.234   5.693   7.743 -1.8346 -0.4552  0.0207
  987MOL0     H33245  11.215   5.452   7.691  0.9787  1.7359  0.8378
  988MOL0     O33246   7.510   2.491   6.626 -0.5688  0.0443  0.4945
  988MOL0     C33247   7.416   2.564   6.650 -0.4630  0.5836  1.2219
  988MOL0     O33248   7.356   2.584   6.780 -0.8852 -0.0789  0.0388
  988MOL0     C33249   7.393   2.506   6.883 -0.1996  0.5921  0.0540
  988MOL0     C33250   7.412   2.364   6.870  0.4405 -1.1416 -0.0387
  988MOL0     C33251   7.441   2.292   6.986  0.2464 -0.3159 -0.8887
  988MOL0     C33252   7.459   2.353   7.111 -0.1072  0.1037 -0.5199
  988MOL0     O33253   7.490   2.279   7.230  0.1006 -0.2884  0.1529
  988MOL0     C33254   7.618   2.223   7.216 -0.9268  0.1738  0.0658
  988MOL0     C33255   7.696   2.218   7.343  0.6296 -0.3207  0.1366
  988MOL0     C33256   7.718   2.365   7.384  1.6988 -0.1706  0.0245
  988MOL0     C33257   7.810   2.375   7.507 -0.9158  0.0171 -1.4194
  988MOL0     C33258   7.753   2.337   7.640  0.3693 -0.5196  1.1940
  988MOL0     C33259   7.856   2.350   7.751 -0.0528 -0.2080 -0.4353
  988MOL0     C33260   7.789   2.363   7.893 -0.4411  0.6743  0.4102
  988MOL0     C33261   7.712   2.483   7.941 -0.7306  0.7694  1.0249
  988MOL0     N33262   7.718   2.487   8.085  0.2244 -0.5601 -0.2103
  988MOL0     C33263   7.779   2.586   8.165  0.1988 -0.1295 -0.0911
  988MOL0     C33264   7.724   2.559   8.289 -0.1187  0.6814 -1.5589
  988MOL0     C33265   7.728   2.652   8.410  0.3488  0.4926 -0.9032
  988MOL0     C33266   7.872   2.657   8.460  0.0803 -0.2232 -0.4553
  988MOL0     C33267   7.877   2.731   8.592 -0.2217  0.7770 -0.2522
  988MOL0     C33268   7.801   2.681   8.713  0.3495  0.9607  0.9097
  988MOL0     O33269   7.868   2.570   8.774 -0.4084  0.0007 -0.1879
  988MOL0     C33270   7.810   2.533   8.895 -0.5461 -0.2869 -0.5088
  988MOL0     C33271   7.876   2.423   8.950  0.4581  0.3814 -0.4367
  988MOL0     C33272   7.835   2.377   9.082 -0.4581  0.9317  0.5364
  988MOL0     C33273   7.912   2.247   9.138  0.0391 -0.3670  0.1530
  988MOL0     C33274   7.721   2.436   9.150 -0.9553 -0.0662  0.0488
  988MOL0     C33275   7.667   2.394   9.277  0.2314  0.0806  0.0775
  988MOL0     O33276   7.541   2.454   9.318 -0.5583  0.1418  0.5690
  988MOL0     C33277   7.483   2.436   9.431 -0.2975 -0.7055  0.4770
  988MOL0     C33278   7.462   2.540   9.521 -0.2907  0.5424  0.6420
  988MOL0     C33279   7.395   2.518   9.640 -0.0859  0.0517 -0.4156
  988MOL0     C33280   7.341   2.393   9.667  0.7621  0.1057 -0.5098
  988MOL0     O33281   7.256   2.376   9.781  0.2479 -0.6224 -0.1309
  988MOL0     C33282   7.315   2.394   9.905  0.4924 -0.3516  0.8179
  988MOL0     C33283   7.333   2.258   9.971  0.1351  0.1562  0.1157
  988MOL0     C33284   7.196   2.212  10.032  0.4136  0.3126  0.0862
  988MOL0     C33285   7.205   2.071  10.076  1.2929 -0.2271 -0.1641
  988MOL0     C33286   7.068   2.006  10.112  0.0588  0.1749  0.3965
  988MOL0     C33287   7.005   2.089  10.221 -0.4984 -0.1786  0.9511
  988MOL0     C33288   6.875   2.021  10.275  0.4612 -0.2250 -0.5548
  988MOL0     C33289   6.806   2.125  10.365 -0.9434 -0.1472  0.2225
  988MOL0    Cl33290   6.689   2.037  10.456  0.3685  0.3658 -0.1773
  988MOL0     C33291   7.352   2.290   9.574  0.6408 -0.4347 -0.4314
  988MOL0     C33292   7.436   2.304   9.460 -0.3336 -0.0473 -0.1331
  988MOL0     O33293   7.719   2.303   9.348  0.3722  0.2869 -0.3623
  988MOL0     C33294   7.658   2.544   9.087 -0.3613 -0.2345 -0.3005
  988MOL0     C33295   7.699   2.595   8.964 -0.0975 -1.0598 -0.1122
  988MOL0     N33296   7.649   2.446   8.285  0.0514 -0.1520 -0.1041
  988MOL0     N33297   7.638   2.406   8.160 -0.1208  0.3103  0.1668
  988MOL0     C33298   7.450   2.494   7.127 -1.0225  0.7723 -0.1799
  988MOL0     C33299   7.408   2.565   7.013  0.3090  0.0850  1.2418
  988MOL0     C33300   7.367   2.659   6.534  0.3347  0.1205  0.6920
  988MOL0     C33301   7.429   2.664   6.408  0.5452 -0.0440  0.4495
  988MOL0     C33302   7.385   2.756   6.312  0.0277 -0.7079  0.1554
  988MOL0     C33303   7.288   2.850   6.332  0.1254  0.2500  0.6664
  988MOL0     O33304   7.246   2.937   6.238  0.6706 -0.1319 -0.1320
  988MOL0     C33305   7.353   3.027   6.197  0.5791  0.1655 -0.0767
  988MOL0     C33306   7.348   3.068   6.048  0.2558  0.8013  0.7897
  988MOL0     C33307   7.482   3.044   5.976 -0.9126 -0.1852  0.2140
  988MOL0     C33308   7.592   3.131   6.015  0.4217  0.3440  0.0495
  988MOL0     C33309   7.683   3.065   6.101  0.3652 -0.2673 -0.7959
  988MOL0     C33310   7.759   3.025   6.181 -0.4048 -0.3515  0.6296
  988MOL0     C33311   7.226   2.842   6.452  0.2380  0.2267 -0.1067
  988MOL0     C33312   7.265   2.753   6.559 -0.3350  0.5584 -0.3383
  988MOL0     H33313   7.393   2.312   6.777 -3.2335  1.7920 -1.2012
  988MOL0     H33314   7.438   2.184   6.997  1.7719 -0.3911 -0.9344
  988MOL0     H33315   7.601   2.121   7.182 -5.5334 -0.0002  2.0865
  988MOL0     H33316   7.684   2.272   7.144  1.6572 -2.4208  0.5118
  988MOL0     H33317   7.635   2.180   7.425  1.6389 -1.5425  0.3369
  988MOL0     H33318   7.791   2.166   7.327  1.0445  0.8126 -1.4109
  988MOL0     H33319   7.749   2.423   7.296  0.5780 -0.3033 -0.4844
  988MOL0     H33320   7.628   2.408   7.429  2.4903 -0.7677  2.2769
  988MOL0     H33321   7.889   2.302   7.485 -0.1838  1.2576 -3.1744
  988MOL0     H33322   7.857   2.473   7.523 -2.5662  0.6333 -0.0894
  988MOL0     H33323   7.669   2.403   7.665 -1.4065 -1.8150 -0.9697
  988MOL0     H33324   7.705   2.239   7.628 -2.1686  0.7884 -0.3603
  988MOL0     H33325   7.920   2.262   7.742  0.3164  0.2504 -2.9871
  988MOL0     H33326   7.923   2.436   7.744  0.5374 -0.4375  1.6865
  988MOL0     H33327   7.722   2.277   7.886  0.1812  0.2659 -0.9531
  988MOL0     H33328   7.868   2.342   7.965  0.1655 -0.1404 -0.4656
  988MOL0     H33329   7.613   2.453   7.904  1.0870 -0.3490 -3.6259
  988MOL0     H33330   7.756   2.574   7.900  2.4760 -0.7265  0.8770
  988MOL0     H33331   7.837   2.675   8.143 -1.2447  1.1871  1.1411
  988MOL0     H33332   7.708   2.757   8.384  2.9038  1.3089  0.0415
  988MOL0     H33333   7.668   2.617   8.494  1.1142 -1.1630 -1.0108
  988MOL0     H33334   7.937   2.708   8.389 -2.3941  1.0620 -1.9549
  988MOL0     H33335   7.914   2.559   8.483  1.8909  0.8249  0.9550
  988MOL0     H33336   7.841   2.831   8.566 -0.3866  0.3004 -1.9913
  988MOL0     H33337   7.984   2.739   8.612 -0.4849 -0.4220  1.9670
  988MOL0     H33338   7.693   2.669   8.701  0.0327  3.0009  1.2844
  988MOL0     H33339   7.808   2.764   8.784  1.1917 -0.3823  2.4428
  988MOL0     H33340   7.945   2.362   8.892  0.5553 -0.8266  0.8924
  988MOL0     H33341   7.831   2.180   9.167 -1.3932  1.8206  1.5006
  988MOL0     H33342   7.973   2.204   9.058  1.7185  0.5600  0.8613
  988MOL0     H33343   7.979   2.265   9.223  2.0757 -2.2116 -0.9552
  988MOL0     H33344   7.497   2.642   9.511 -2.0562  1.1804  0.7591
  988MOL0     H33345   7.360   2.596   9.707 -1.6054  1.2154 -2.4710
  988MOL0     H33346   7.407   2.451   9.892 -1.3042  2.5007 -0.5260
  988MOL0     H33347   7.255   2.458   9.971  1.1595 -0.1104  1.1930
  988MOL0     H33348   7.382   2.187   9.904  1.4440  0.9207  0.2301
  988MOL0     H33349   7.403   2.273  10.054  0.0558  1.5824 -0.0514
  988MOL0     H33350   7.111   2.235   9.966  1.4151  0.3599 -1.2348
  988MOL0     H33351   7.179   2.280  10.116 -0.5771 -0.5262  0.5852
  988MOL0     H33352   7.249   2.012   9.995  0.0871 -0.2782 -0.7917
  988MOL0     H33353   7.278   2.059  10.157  2.3390 -1.1733 -1.2092
  988MOL0     H33354   7.093   1.908  10.153 -1.1336 -0.3075  0.0161
  988MOL0     H33355   7.000   1.997  10.027  0.6743 -3.2375  0.1547
  988MOL0     H33356   7.080   2.106  10.299  0.5740  1.3507 -0.3413
  988MOL0     H33357   6.972   2.183  10.176 -0.8120 -1.5348 -1.8887
  988MOL0     H33358   6.898   1.943  10.348  1.9354  0.0709 -0.6722
  988MOL0     H33359   6.806   1.988  10.197 -0.1652 -2.0520  0.7098
  988MOL0     H33360   6.764   2.205  10.304 -1.0331 -1.8864 -2.1473
  988MOL0     H33361   6.888   2.147  10.435 -0.1565 -2.6138  0.1487
  988MOL0     H33362   7.297   2.196   9.581  1.9013 -1.3264 -1.9201
  988MOL0     H33363   7.473   2.227   9.393  2.9987 -1.5600  3.1254
  988MOL0     H33364   7.573   2.584   9.141 -0.4964 -0.0249 -0.6671
  988MOL0     H33365   7.635   2.669   8.917  2.6471  0.1996 -2.1471
  988MOL0     H33366   7.460   2.542   7.224  1.5867 -0.1259  0.0602
  988MOL0     H33367   7.392   2.672   7.021 -2.8892 -0.0416 -1.4179
  988MOL0     H33368   7.505   2.592   6.379 -0.5157 -1.9018  2.0378
  988MOL0     H33369   7.421   2.751   6.210 -2.3425 -1.7511 -0.6932
  988MOL0     H33370   7.343   3.115   6.261 -0.0645  0.9946 -1.2730
  988MOL0     H33371   7.452   2.988   6.221 -0.0746 -0.8850  0.9943
  988MOL0     H33372   7.305   3.168   6.035  0.7548  0.8578 -0.6559
  988MOL0     H33373   7.278   3.007   5.991  1.8073  0.2187 -0.5922
  988MOL0     H33374   7.473   3.062   5.868 -2.6695  0.6481  0.4595
  988MOL0     H33375   7.501   2.936   5.982 -2.6019 -0.7871 -2.9873
  988MOL0     H33376   7.553   3.226   6.053  0.9075  0.1346  1.1295
  988MOL0     H33377   7.634   3.166   5.920  1.7289  3.0847  1.4979
  988MOL0     H33378   7.820   2.976   6.254 -1.4215 -2.1056  0.3510
  988MOL0     H33379   7.144   2.906   6.480  1.6625  0.2775  5.0408
  988MOL0     H33380   7.211   2.759   6.653 -0.7504  3.0559 -0.6535
  989MOL0     O33381   5.275  11.530   5.030  0.2462  0.3033 -0.4267
  989MOL0     C33382   5.178  11.457   5.061 -0.0612  0.1451  0.7984
  989MOL0     O33383   5.054  11.459   4.999  0.4486  0.2718 -0.6103
  989MOL0     C33384   5.043  11.535   4.889  0.6110 -0.7206 -0.8992
  989MOL0     C33385   4.993  11.668   4.908 -0.0985  0.5329  0.8813
  989MOL0     C33386   4.966  11.750   4.794  0.5200  0.2317 -0.0066
  989MOL0     C33387   4.984  11.701   4.673 -0.3680  0.4909 -0.9367
  989MOL0     O33388   4.932  11.790   4.582  0.4222 -0.4688  0.2457
  989MOL0     C33389   4.982  11.787   4.444 -0.4004  0.4642 -0.4852
  989MOL0     C33390   5.115  11.866   4.437 -0.2081  0.3770 -0.7460
  989MOL0     C33391   5.092  11.997   4.493  0.1581  0.0389 -0.8976
  989MOL0     C33392   5.207  12.093   4.455  0.2956  1.3892 -0.5604
  989MOL0     C33393   5.230  12.119   4.304 -0.2040  0.0135  1.0988
  989MOL0     C33394   5.108  12.178   4.227 -0.5806 -0.4102 -1.1200
  989MOL0     C33395   5.135  12.214   4.077  0.3261  0.1459  0.1064
  989MOL0     C33396   5.171  12.103   3.986 -0.4055  0.5105 -1.2420
  989MOL0     N33397   5.063  12.001   3.990  0.5349 -0.7327 -0.2838
  989MOL0     C33398   4.928  12.015   3.956  1.1548 -0.0680  0.3813
  989MOL0     C33399   4.869  11.899   3.988  0.1894 -0.1577 -0.6135
  989MOL0     C33400   4.722  11.863   3.985  0.7059  0.5657 -0.0404
  989MOL0     C33401   4.701  11.719   3.981  0.2859  0.0431  1.0769
  989MOL0     C33402   4.607  11.671   3.864  0.2838  0.4525  0.3255
  989MOL0     C33403   4.456  11.697   3.908  0.0340  0.0230  0.2851
  989MOL0     O33404   4.383  11.670   3.788 -0.1641  0.2028  0.7080
  989MOL0     C33405   4.271  11.745   3.757 -0.7910 -0.4728  0.9513
  989MOL0     C33406   4.216  11.844   3.840 -0.4497 -0.1872  0.3749
  989MOL0     C33407   4.120  11.935   3.781 -0.5426 -0.3352 -1.1266
  989MOL0     C33408   4.060  12.037   3.885 -0.7617  0.7266 -1.5729
  989MOL0     C33409   4.078  11.924   3.649  0.1280  0.6465 -0.6916
  989MOL0     C33410   4.003  12.026   3.581 -0.5047  1.2222 -0.5725
  989MOL0     O33411   4.006  12.153   3.637  0.5806  0.0997 -0.2801
  989MOL0     C33412   3.932  12.255   3.581  0.6085 -0.4519  0.3711
  989MOL0     C33413   3.876  12.357   3.657  0.6028  0.2429  0.1876
  989MOL0     C33414   3.815  12.471   3.602  0.7072  0.6285 -0.5424
  989MOL0     C33415   3.817  12.493   3.466 -1.3478  0.5414 -0.5626
  989MOL0     O33416   3.744  12.599   3.414  0.0750  0.1696  0.1014
  989MOL0     C33417   3.738  12.603   3.273 -0.2760  0.2363 -0.7281
  989MOL0     C33418   3.643  12.718   3.249 -0.0313 -0.0000 -0.2248
  989MOL0     C33419   3.710  12.863   3.263 -0.2881  0.0723  0.4817
  989MOL0     C33420   3.786  12.925   3.136  0.5902  0.2998  0.2617
  989MOL0     C33421   3.823  13.075   3.165 -0.2895 -0.2852 -1.5661
  989MOL0     C33422   3.880  13.104   3.310  0.0552 -0.1604  0.2498
  989MOL0     C33423   3.944  13.240   3.316  0.4087 -0.9861 -0.2653
  989MOL0     C33424   4.009  13.273   3.450 -0.2989  0.4594  0.3606
  989MOL0    Cl33425   3.898  13.366   3.563  0.2129  0.3552  0.0757
  989MOL0     C33426   3.889  12.394   3.385 -0.2445 -0.1776 -1.3456
  989MOL0     C33427   3.941  12.276   3.437  0.3386 -0.8208 -0.5354
  989MOL0     O33428   3.926  11.981   3.500 -0.0661 -0.1481 -0.0516
  989MOL0     C33429   4.126  11.815   3.582 -0.0422 -0.7071  0.5310
  989MOL0     C33430   4.221  11.736   3.630 -0.4325  0.1410 -0.3768
  989MOL0     N33431   4.967  11.818   4.064 -0.1372 -1.0029 -0.0364
  989MOL0     N33432   5.080  11.880   4.041  0.2202  1.1130  0.4191
  989MOL0     C33433   5.039  11.571   4.652 -0.1677 -0.0087  0.4881
  989MOL0     C33434   5.062  11.488   4.757  0.6228  0.8928  0.6962
  989MOL0     C33435   5.183  11.371   5.176 -0.4821 -0.0848  0.0705
  989MOL0     C33436   5.297  11.361   5.257  0.8780 -0.2429 -0.1067
  989MOL0     C33437   5.304  11.275   5.364 -0.5580 -1.2140  0.1174
  989MOL0     C33438   5.198  11.193   5.398  0.2659  0.1246 -0.5620
  989MOL0     O33439   5.220  11.121   5.515  0.7049 -0.2422  0.6997
  989MOL0     C33440   5.121  11.034   5.564  0.2731 -0.7796  0.1869
  989MOL0     C33441   5.182  10.950   5.681  0.5511 -0.8043  0.1530
  989MOL0     C33442   5.194  11.043   5.810  0.0793  0.6205 -0.6067
  989MOL0     C33443   5.286  10.971   5.922 -0.1184 -0.9909 -0.0571
  989MOL0     C33444   5.418  11.039   5.948 -0.4565 -0.3043 -0.0491
  989MOL0     C33445   5.521  11.099   5.957  0.0629  0.7563  0.2010
  989MOL0     C33446   5.074  11.214   5.334  0.1697 -0.3376  0.2152
  989MOL0     C33447   5.072  11.306   5.230  0.0350  0.2071 -1.0334
  989MOL0     H33448   4.975  11.703   5.009 -0.1044 -1.9421  1.8206
  989MOL0     H33449   4.928  11.851   4.811  4.0888  1.3634  2.3414
  989MOL0     H33450   5.001  11.690   4.397  1.5544  1.6242 -2.2974
  989MOL0     H33451   4.906  11.836   4.383 -1.4222  0.6080  0.8751
  989MOL0     H33452   5.212  11.828   4.471  0.6301  2.2726 -0.8917
  989MOL0     H33453   5.131  11.876   4.329  2.0905  3.1251 -0.2690
  989MOL0     H33454   4.996  12.040   4.462 -0.0396 -0.9516 -1.6819
  989MOL0     H33455   5.083  11.985   4.602 -4.2923  2.2996 -0.7978
  989MOL0     H33456   5.195  12.181   4.519  0.8991  1.1056 -0.0598
  989MOL0     H33457   5.299  12.042   4.484 -1.8945 -2.4484  0.2859
  989MOL0     H33458   5.314  12.188   4.296  2.0467 -2.6963 -0.3086
  989MOL0     H33459   5.253  12.021   4.261 -1.5159  0.0181  0.3338
  989MOL0     H33460   5.032  12.099   4.230  2.3215 -3.4245  0.0215
  989MOL0     H33461   5.070  12.265   4.282 -0.6281 -1.1413  0.0406
  989MOL0     H33462   5.046  12.263   4.037  0.2312  0.4185  0.6399
  989MOL0     H33463   5.219  12.282   4.061 -0.2749  0.6655 -0.9462
  989MOL0     H33464   5.261  12.058   4.028 -1.2965  0.2886  0.5099
  989MOL0     H33465   5.190  12.148   3.888 -1.6173  2.5436 -0.6242
  989MOL0     H33466   4.874  12.095   3.906 -0.1708 -0.1246  1.6429
  989MOL0     H33467   4.674  11.892   4.079 -0.6244 -1.4458 -0.0415
  989MOL0     H33468   4.666  11.924   3.914  1.6761  2.2327  0.5731
  989MOL0     H33469   4.673  11.686   4.082  4.2323 -2.5387  1.5370
  989MOL0     H33470   4.794  11.669   3.953  1.4538  2.4655  0.3692
  989MOL0     H33471   4.618  11.563   3.851  2.6165  0.2598  2.8276
  989MOL0     H33472   4.629  11.714   3.766 -1.4499  2.0799  0.6048
  989MOL0     H33473   4.440  11.799   3.944 -0.4790  0.0990 -0.1471
  989MOL0     H33474   4.432  11.621   3.983  1.8194  1.3357  2.2719
  989MOL0     H33475   4.234  11.854   3.946  0.7427 -0.0058  0.1657
  989MOL0     H33476   4.127  12.123   3.892 -0.4112  0.4131 -0.9812
  989MOL0     H33477   3.956  12.064   3.868 -1.3732 -1.9336 -2.6071
  989MOL0     H33478   4.059  11.984   3.981 -2.6747  1.4363 -1.1608
  989MOL0     H33479   3.881  12.349   3.765 -2.1234  3.8071  0.7577
  989MOL0     H33480   3.770  12.546   3.666 -1.1915 -0.8865 -0.0276
  989MOL0     H33481   3.840  12.611   3.235 -0.2281 -0.6849 -0.8238
  989MOL0     H33482   3.690  12.509   3.243 -1.5656  0.8504 -0.6461
  989MOL0     H33483   3.588  12.709   3.155 -0.2301  1.5208 -0.2923
  989MOL0     H33484   3.566  12.721   3.327  1.0466  0.3829  0.8575
  989MOL0     H33485   3.774  12.863   3.351  1.3877  0.0137 -0.6859
  989MOL0     H33486   3.629  12.935   3.276 -2.0137 -1.5662 -0.6295
  989MOL0     H33487   3.880  12.869   3.131 -1.0807 -2.8050  1.4313
  989MOL0     H33488   3.724  12.902   3.049  0.7130  3.5518 -0.8428
  989MOL0     H33489   3.734  13.137   3.152  0.8376  1.2089 -2.4872
  989MOL0     H33490   3.907  13.104   3.101  0.0447  3.7416  0.4128
  989MOL0     H33491   3.805  13.089   3.389  0.4056 -0.8154  0.4724
  989MOL0     H33492   3.954  13.030   3.342 -1.4981 -1.8871  0.0638
  989MOL0     H33493   3.869  13.317   3.298  0.8951  0.4595  3.1999
  989MOL0     H33494   4.023  13.238   3.241  0.5469 -2.9727 -0.1199
  989MOL0     H33495   4.099  13.334   3.438  0.6443 -1.1309 -1.0188
  989MOL0     H33496   4.054  13.187   3.501  1.4309  1.1477  0.0586
  989MOL0     H33497   3.901  12.400   3.278  0.8231 -1.3703 -1.3149
  989MOL0     H33498   3.983  12.204   3.368  0.0909 -2.2407  0.7256
  989MOL0     H33499   4.118  11.805   3.474  2.2205  1.2922  0.0880
  989MOL0     H33500   4.261  11.655   3.569  3.4815  2.0883 -0.6930
  989MOL0     H33501   5.050  11.532   4.552  3.5388  0.5191  0.5704
  989MOL0     H33502   5.115  11.395   4.739  1.0243  1.2921 -0.2455
  989MOL0     H33503   5.375  11.434   5.242  0.9212 -0.2037  0.3067
  989MOL0     H33504   5.390  11.278   5.430  0.3179 -4.4759 -0.6744
  989MOL0     H33505   5.037  11.095   5.601  1.1662  1.3857 -1.1013
  989MOL0     H33506   5.091  10.965   5.485  5.1972 -2.9469 -0.1334
  989MOL0     H33507   5.279  10.905   5.657 -0.0524 -3.2914  2.0064
  989MOL0     H33508   5.113  10.870   5.710  0.0404  0.5226  3.0265
  989MOL0     H33509   5.094  11.057   5.854 -1.3724 -0.1675 -3.4061
  989MOL0     H33510   5.231  11.138   5.771  1.3071  0.7931  0.9079
  989MOL0     H33511   5.317  10.870   5.893  0.8563 -0.3892 -1.1832
  989MOL0     H33512   5.217  10.958   6.006 -1.0263  0.6331 -0.5134
  989MOL0     H33513   5.605  11.160   5.984 -0.4017  0.0146  3.6672
  989MOL0     H33514   4.985  11.159   5.363 -0.0684 -0.2493 -0.3349
  989MOL0     H33515   4.975  11.318   5.184 -1.2085 -1.1643  1.0850
  990MOL0     O33516  11.243   7.250   6.056 -0.0830  0.0369  0.3554
  990MOL0     C33517  11.337   7.311   6.006 -0.7737 -0.9763 -0.7516
  990MOL0     O33518  11.460   7.309   6.062 -0.2376 -0.2761 -0.0199
  990MOL0     C33519  11.470   7.251   6.187 -0.2837 -0.6545 -0.1305
  990MOL0     C33520  11.501   7.330   6.298  0.2889  0.4992  0.2268
  990MOL0     C33521  11.540   7.266   6.414 -0.6574  0.0369  0.6140
  990MOL0     C33522  11.523   7.127   6.429 -0.8772  0.4881 -0.6431
  990MOL0     O33523  11.530   7.062   6.549 -0.7477  0.3426 -0.7390
  990MOL0     C33524  11.470   7.128   6.654  0.1424  0.3735 -0.4935
  990MOL0     C33525  11.471   7.047   6.797 -0.4243 -0.0055  0.1775
  990MOL0     C33526  11.602   6.974   6.830 -0.7187  0.2655 -0.1232
  990MOL0     C33527  11.644   7.011   6.973  0.2049 -0.3496 -0.6705
  990MOL0     C33528  11.759   6.923   7.025 -0.2995 -0.4620  0.2860
  990MOL0     C33529  11.811   6.988   7.161  0.5325 -0.4045  0.3194
  990MOL0     C33530  11.697   6.997   7.258  0.1306  0.2643 -0.2644
  990MOL0     C33531  11.754   7.013   7.401 -0.0720 -0.0061  0.6425
  990MOL0     N33532  11.832   7.127   7.428 -0.6115 -1.0076  0.6954
  990MOL0     C33533  11.822   7.203   7.544  0.2968  0.2800  0.9790
  990MOL0     C33534  11.940   7.254   7.574 -0.2286  0.3253  0.6730
  990MOL0     C33535  11.946   7.350   7.703  0.1050 -0.0447  0.2107
  990MOL0     C33536  12.036   7.303   7.815 -0.1205 -0.3180  0.4429
  990MOL0     C33537  12.173   7.253   7.765  0.7641 -0.1529  0.0185
  990MOL0     C33538  12.277   7.255   7.878 -0.0364  0.4121 -0.0023
  990MOL0     O33539  12.322   7.384   7.919 -0.4127 -0.1799 -0.0639
  990MOL0     C33540  12.417   7.458   7.854  0.2647 -1.2337 -0.4765
  990MOL0     C33541  12.397   7.603   7.857 -0.4258  0.6836  0.3325
  990MOL0     C33542  12.482   7.690   7.790  0.6321 -0.8277 -1.5174
  990MOL0     C33543  12.439   7.835   7.809 -0.2362 -0.4199 -0.2040
  990MOL0     C33544  12.599   7.639   7.726 -0.1305  0.4249 -0.7427
  990MOL0     C33545  12.696   7.702   7.637 -0.2613  0.8319 -0.5767
  990MOL0     O33546  12.804   7.622   7.585 -0.1933 -0.8330 -0.2723
  990MOL0     C33547  12.899   7.693   7.517 -0.2488  0.0008 -0.5881
  990MOL0     C33548  13.001   7.768   7.589  0.0848  0.2107 -0.1446
  990MOL0     C33549  13.111   7.820   7.515 -0.5784  0.5627  0.2202
  990MOL0     C33550  13.132   7.793   7.379 -0.9113  0.3535 -0.0414
  990MOL0     O33551  13.240   7.824   7.304 -0.9040 -0.2042 -0.8103
  990MOL0     C33552  13.374   7.831   7.367  0.1123  0.0307  0.2171
  990MOL0     C33553  13.413   7.973   7.394  0.9575 -0.2212  0.6037
  990MOL0     C33554  13.559   7.975   7.425 -0.3553  0.9216  0.2385
  990MOL0     C33555  13.611   8.114   7.439 -0.4862  0.2323 -1.2131
  990MOL0     C33556  13.757   8.117   7.419  0.0130 -0.0208  0.1509
  990MOL0     C33557  13.814   8.110   7.274 -0.1234  0.7377  0.3764
  990MOL0     C33558  13.969   8.107   7.264  0.5862 -0.3488 -0.7137
  990MOL0     C33559  14.004   8.147   7.124 -1.2715  0.0202  0.9066
  990MOL0    Cl33560  13.919   8.054   7.002  0.4983 -0.3724  0.1941
  990MOL0     C33561  13.030   7.711   7.315  0.1949  0.7055 -1.0189
  990MOL0     C33562  12.917   7.668   7.378 -0.4217  0.0396  0.1542
  990MOL0     O33563  12.673   7.816   7.604  0.7409 -0.1324  0.0856
  990MOL0     C33564  12.613   7.496   7.728  0.2097  0.8599  0.1514
  990MOL0     C33565  12.521   7.406   7.790 -0.6126  0.3489 -0.3532
  990MOL0     N33566  12.028   7.220   7.477  0.0595  0.1659 -0.1342
  990MOL0     N33567  11.957   7.141   7.396 -0.0779 -0.9451 -0.7223
  990MOL0     C33568  11.504   7.049   6.315  0.5149  0.1214  0.3584
  990MOL0     C33569  11.469   7.115   6.197 -0.2639 -0.7739  0.4034
  990MOL0     C33570  11.300   7.389   5.888 -0.3710 -0.2749 -0.5197
  990MOL0     C33571  11.169   7.385   5.838 -0.1883  0.4173 -0.9658
  990MOL0     C33572  11.140   7.475   5.724  0.1457 -0.8194 -0.3579
  990MOL0     C33573  11.245   7.542   5.652 -0.8319 -0.6109  0.2335
  990MOL0     O33574  11.239   7.613   5.538  0.3538  0.3285  0.6317
  990MOL0     C33575  11.145   7.581   5.432 -0.4783 -0.4240  0.4001
  990MOL0     C33576  11.031   7.681   5.444  0.5779 -0.3053 -0.5517
  990MOL0     C33577  11.081   7.831   5.428  0.7827  0.4531 -0.8660
  990MOL0     C33578  11.111   7.870   5.291 -0.8372 -1.1820  1.1161
  990MOL0     C33579  11.135   8.013   5.304  0.0526 -1.0400 -0.5354
  990MOL0     C33580  11.145   8.126   5.341 -0.1313 -0.7086  0.1436
  990MOL0     C33581  11.381   7.531   5.709 -0.5194 -0.7405  0.7668
  990MOL0     C33582  11.399   7.469   5.827 -0.3871 -0.1102  0.4161
  990MOL0     H33583  11.506   7.438   6.290 -0.7029  0.5701  0.4358
  990MOL0     H33584  11.583   7.318   6.499 -0.7331  0.2427  0.5264
  990MOL0     H33585  11.515   7.228   6.663 -1.6853  1.2878 -0.9090
  990MOL0     H33586  11.366   7.142   6.621  0.2196 -3.0291 -2.5906
  990MOL0     H33587  11.445   7.121   6.873 -0.8363  1.4872 -1.3318
  990MOL0     H33588  11.398   6.967   6.782 -0.7679 -0.0935  2.0828
  990MOL0     H33589  11.575   6.868   6.830 -3.9451  0.9579 -2.2619
  990MOL0     H33590  11.679   7.003   6.758 -1.2154  0.3748 -0.6100
  990MOL0     H33591  11.677   7.115   6.976 -3.5413  0.9538 -0.4297
  990MOL0     H33592  11.561   7.001   7.043  1.9773  2.4287  2.0470
  990MOL0     H33593  11.736   6.817   7.041 -1.1033 -0.7670 -2.3635
  990MOL0     H33594  11.840   6.915   6.951 -1.3377 -2.6646 -0.7195
  990MOL0     H33595  11.882   6.922   7.210 -2.2071 -0.2439  5.0886
  990MOL0     H33596  11.856   7.083   7.132 -1.2123  0.1948 -0.6231
  990MOL0     H33597  11.644   7.089   7.233  2.0234  1.7660  0.9980
  990MOL0     H33598  11.630   6.910   7.258 -1.2448  1.2849 -0.1361
  990MOL0     H33599  11.825   6.931   7.417  0.9217  0.7663  0.2947
  990MOL0     H33600  11.662   7.003   7.459 -1.1225  0.9188 -0.8114
  990MOL0     H33601  11.730   7.226   7.596 -0.1608  0.5760  0.0691
  990MOL0     H33602  11.986   7.447   7.675  0.9467  1.2369  4.8732
  990MOL0     H33603  11.849   7.359   7.754 -0.4266 -2.9941 -0.0508
  990MOL0     H33604  11.984   7.217   7.858  0.1969 -0.7396 -0.0254
  990MOL0     H33605  12.062   7.390   7.878  1.1653  0.7866 -1.5223
  990MOL0     H33606  12.219   7.307   7.682  0.5260 -0.3408 -0.2403
  990MOL0     H33607  12.143   7.156   7.724 -3.1944  1.1490 -0.5196
  990MOL0     H33608  12.368   7.199   7.852  2.1156  1.7568  3.7764
  990MOL0     H33609  12.240   7.203   7.967  0.5232  0.6116  0.3526
  990MOL0     H33610  12.317   7.648   7.915 -3.0441 -2.5140 -0.4985
  990MOL0     H33611  12.336   7.860   7.836 -0.9252 -1.4869 -1.7360
  990MOL0     H33612  12.496   7.897   7.880  1.2303  1.5225 -2.8742
  990MOL0     H33613  12.472   7.877   7.713  4.8829 -1.0501  0.9659
  990MOL0     H33614  12.981   7.774   7.696 -0.7058  0.6822 -0.3056
  990MOL0     H33615  13.186   7.872   7.575  1.4600 -1.8310 -0.0650
  990MOL0     H33616  13.382   7.764   7.453  3.8999  0.2556  0.2244
  990MOL0     H33617  13.449   7.788   7.299  2.0752  0.0831  2.2027
  990MOL0     H33618  13.387   8.032   7.306  1.9321  3.4911  2.6033
  990MOL0     H33619  13.353   8.015   7.475  0.6656  2.5454 -0.9135
  990MOL0     H33620  13.606   7.921   7.342 -1.6468 -0.7904  0.5510
  990MOL0     H33621  13.582   7.916   7.514 -0.1257 -0.4460 -0.6966
  990MOL0     H33622  13.566   8.177   7.362  1.1931 -0.8612 -3.1525
  990MOL0     H33623  13.603   8.164   7.537  4.8498 -2.6785  1.1403
  990MOL0     H33624  13.797   8.040   7.486  2.3886  0.5505 -0.5307
  990MOL0     H33625  13.795   8.215   7.449  0.2154 -0.4680  1.3917
  990MOL0     H33626  13.790   8.011   7.234 -0.4832  0.7387  0.5860
  990MOL0     H33627  13.771   8.190   7.213 -2.2880 -1.6696 -1.4883
  990MOL0     H33628  14.011   8.008   7.284  1.9606 -0.0157 -1.7804
  990MOL0     H33629  14.018   8.186   7.322  3.1277 -1.8966 -0.5688
  990MOL0     H33630  14.111   8.126   7.114 -1.2964 -0.1456  0.9858
  990MOL0     H33631  13.989   8.254   7.107  0.1970  0.5209  2.4382
  990MOL0     H33632  13.060   7.693   7.213 -0.2875  1.9389 -1.4017
  990MOL0     H33633  12.844   7.603   7.332 -1.2749 -0.2103  1.7787
  990MOL0     H33634  12.709   7.457   7.696  3.1105  5.8718  1.7430
  990MOL0     H33635  12.533   7.299   7.792  0.7658  0.4531 -1.5116
  990MOL0     H33636  11.504   6.943   6.340 -1.4509  0.3039  1.2753
  990MOL0     H33637  11.476   7.054   6.107 -1.4781 -0.3956  0.0407
  990MOL0     H33638  11.090   7.320   5.871 -0.6777  0.8975 -1.1737
  990MOL0     H33639  11.039   7.485   5.686 -0.2667 -2.4993  0.2107
  990MOL0     H33640  11.190   7.603   5.335 -2.1489  2.6036  0.1747
  990MOL0     H33641  11.112   7.477   5.426  1.6773 -1.0953 -3.2519
  990MOL0     H33642  10.984   7.689   5.542 -0.3251  0.6432 -1.0444
  990MOL0     H33643  10.946   7.660   5.378  0.0667 -1.0759  0.3260
  990MOL0     H33644  11.160   7.850   5.501  2.1552  1.0152 -2.4358
  990MOL0     H33645  11.005   7.901   5.463  2.2102  0.9882  1.4233
  990MOL0     H33646  11.032   7.847   5.220 -0.8313 -1.2656  1.1377
  990MOL0     H33647  11.204   7.822   5.258 -1.1421 -0.4397 -0.9780
  990MOL0     H33648  11.187   8.220   5.370  0.6257 -0.8926 -0.3287
  990MOL0     H33649  11.449   7.594   5.653 -2.3596  1.0018  0.3472
  990MOL0     H33650  11.499   7.486   5.866 -0.8165 -0.8479  1.9366
  991MOL0     O33651   2.414   5.037   4.526  0.1162  0.3526  1.2838
  991MOL0     C33652   2.349   5.103   4.441 -0.1029 -0.5556  0.1312
  991MOL0     O33653   2.228   5.067   4.388  0.1492 -0.0658 -0.2393
  991MOL0     C33654   2.152   4.973   4.456  0.2427  0.1900  0.0629
  991MOL0     C33655   2.013   4.985   4.456  1.4165  0.5964 -0.7272
  991MOL0     C33656   1.923   4.896   4.530 -0.0272  0.2515  0.6451
  991MOL0     C33657   1.979   4.786   4.585 -0.0294 -0.0909 -0.7010
  991MOL0     O33658   1.918   4.675   4.651 -0.3451  0.4854 -0.6383
  991MOL0     C33659   1.782   4.697   4.665 -0.4505  0.0685  0.2408
  991MOL0     C33660   1.720   4.584   4.726 -0.3550  0.7780  0.2523
  991MOL0     C33661   1.715   4.461   4.626  0.1232 -0.2158 -0.9684
  991MOL0     C33662   1.593   4.365   4.650 -0.5435 -0.0638  0.2507
  991MOL0     C33663   1.562   4.292   4.524  0.5874  0.3500  0.1594
  991MOL0     C33664   1.472   4.170   4.541 -0.4533 -0.7836  0.2609
  991MOL0     C33665   1.453   4.097   4.407  0.7622 -0.9658 -0.3700
  991MOL0     C33666   1.354   3.987   4.439 -0.0461  0.5601 -0.1994
  991MOL0     N33667   1.333   3.888   4.333 -0.5069  0.9436  0.0381
  991MOL0     C33668   1.429   3.830   4.249 -0.2028 -0.3228  0.6843
  991MOL0     C33669   1.362   3.805   4.137 -0.6753  0.3737  0.3528
  991MOL0     C33670   1.423   3.759   4.000 -0.3965 -0.1535 -0.6844
  991MOL0     C33671   1.517   3.861   3.935 -0.2122 -0.6278  0.6036
  991MOL0     C33672   1.552   3.841   3.784 -1.1947  0.3749  0.1969
  991MOL0     C33673   1.668   3.923   3.729  0.3415  0.2581  0.0168
  991MOL0     O33674   1.797   3.910   3.798 -0.3399  0.4560  0.2720
  991MOL0     C33675   1.883   3.809   3.753 -0.5082  0.8379 -0.0792
  991MOL0     C33676   1.860   3.736   3.636 -0.7737 -0.1884  1.1273
  991MOL0     C33677   1.970   3.652   3.584  0.8577 -0.0915 -1.1518
  991MOL0     C33678   1.938   3.571   3.457  0.0570  0.5669 -0.2925
  991MOL0     C33679   2.082   3.628   3.664 -0.2954  0.2085  0.4071
  991MOL0     C33680   2.197   3.528   3.627  0.9991 -1.1886  0.0975
  991MOL0     O33681   2.187   3.445   3.523 -0.3224  0.0877 -0.1359
  991MOL0     C33682   2.314   3.390   3.478  1.0547  0.5216 -0.1194
  991MOL0     C33683   2.395   3.468   3.397 -0.5007  0.1290  0.8467
  991MOL0     C33684   2.516   3.424   3.358  0.1378 -0.1878  0.1805
  991MOL0     C33685   2.572   3.306   3.413 -0.8497  0.6963  0.5114
  991MOL0     O33686   2.703   3.263   3.375  0.6414  0.5898  0.4556
  991MOL0     C33687   2.763   3.156   3.446 -0.9218 -0.3208 -0.0443
  991MOL0     C33688   2.904   3.197   3.450  0.0234  0.6292  0.8254
  991MOL0     C33689   2.999   3.094   3.515  0.3662  1.1057 -0.1044
  991MOL0     C33690   3.133   3.148   3.567  0.3614  0.5482  0.4496
  991MOL0     C33691   3.197   3.051   3.664 -0.6529  1.2176  0.2840
  991MOL0     C33692   3.302   3.120   3.747 -0.0891 -0.0418 -0.6307
  991MOL0     C33693   3.386   3.016   3.831 -0.3795 -0.7360 -0.2241
  991MOL0     C33694   3.485   2.956   3.739  0.1664  0.7266 -0.1690
  991MOL0    Cl33695   3.594   2.872   3.854  0.4367 -0.4322  0.0295
  991MOL0     C33696   2.490   3.234   3.506 -0.4065  0.7579 -0.5395
  991MOL0     C33697   2.361   3.269   3.529 -0.0371 -0.3980 -0.0240
  991MOL0     O33698   2.294   3.538   3.698  0.5704 -0.9557  0.2762
  991MOL0     C33699   2.095   3.706   3.778 -1.4302  0.1651 -0.5820
  991MOL0     C33700   1.999   3.789   3.826  0.4593 -1.2865  0.4399
  991MOL0     N33701   1.226   3.841   4.154 -0.5870  0.0251 -0.2372
  991MOL0     N33702   1.217   3.884   4.273 -0.3026 -0.6730  0.3654
  991MOL0     C33703   2.115   4.762   4.567  0.4901  0.2113  0.2676
  991MOL0     C33704   2.204   4.860   4.516 -1.0994  0.3377  0.1304
  991MOL0     C33705   2.416   5.230   4.401  1.1422  0.1829  0.2019
  991MOL0     C33706   2.553   5.245   4.383 -0.6026  0.5531 -0.1067
  991MOL0     C33707   2.599   5.366   4.336 -0.0630  0.9534 -0.1054
  991MOL0     C33708   2.511   5.476   4.307  0.0830 -1.1119  0.2591
  991MOL0     O33709   2.552   5.600   4.253  0.3593  0.1280  0.2708
  991MOL0     C33710   2.652   5.580   4.153 -0.0321 -0.8454  0.6087
  991MOL0     C33711   2.718   5.722   4.147  0.7952  0.2271  0.3442
  991MOL0     C33712   2.821   5.751   4.034  1.1093 -0.4213 -0.4909
  991MOL0     C33713   2.887   5.891   4.064 -0.3654  0.6456  0.7089
  991MOL0     C33714   2.797   5.997   4.035 -0.4108  0.9535  0.1805
  991MOL0     C33715   2.721   6.090   4.021 -1.3995 -0.0804  0.2605
  991MOL0     C33716   2.381   5.458   4.318  0.3565  0.8474  0.7202
  991MOL0     C33717   2.330   5.336   4.370 -0.7058 -0.1488  0.0847
  991MOL0     H33718   1.963   5.068   4.407 -3.9373 -0.7200  1.7548
  991MOL0     H33719   1.817   4.917   4.532 -0.1165 -0.1794  0.4958
  991MOL0     H33720   1.776   4.785   4.731 -0.9645  1.7071 -1.8825
  991MOL0     H33721   1.735   4.722   4.569 -0.2422 -2.7619 -0.6807
  991MOL0     H33722   1.778   4.566   4.818 -1.2232  3.4871  1.4191
  991MOL0     H33723   1.616   4.606   4.749 -0.8895 -0.4479 -0.8988
  991MOL0     H33724   1.704   4.493   4.522 -3.6548  3.6919  0.3471
  991MOL0     H33725   1.813   4.412   4.633 -0.1095 -0.4537  2.5061
  991MOL0     H33726   1.621   4.293   4.727  0.8775  1.3486  1.1289
  991MOL0     H33727   1.503   4.419   4.681  0.7484  0.8845  2.5912
  991MOL0     H33728   1.546   4.371   4.450 -1.3323  2.0876  2.2789
  991MOL0     H33729   1.649   4.237   4.485 -0.1508 -0.3890 -0.4818
  991MOL0     H33730   1.532   4.102   4.603 -0.0899 -2.7629 -2.1270
  991MOL0     H33731   1.379   4.204   4.587  1.1214  2.0548  1.6471
  991MOL0     H33732   1.419   4.158   4.323  0.8344  0.2685  0.4767
  991MOL0     H33733   1.552   4.055   4.385  0.0995 -2.9655  0.2159
  991MOL0     H33734   1.261   4.027   4.482  0.0984  0.5903  0.0842
  991MOL0     H33735   1.392   3.925   4.521 -1.7701  1.2127  1.1631
  991MOL0     H33736   1.536   3.836   4.267  0.3156 -2.1494 -1.4006
  991MOL0     H33737   1.467   3.659   3.995  1.0797  0.4094  0.1084
  991MOL0     H33738   1.345   3.746   3.925  3.0473  0.3723 -4.6933
  991MOL0     H33739   1.614   3.856   3.984 -0.4535 -1.3813  1.0210
  991MOL0     H33740   1.486   3.966   3.936  0.9486 -0.2689  0.8767
  991MOL0     H33741   1.462   3.868   3.728 -1.1946  3.9641  1.6548
  991MOL0     H33742   1.587   3.737   3.779 -0.7594  0.5556 -0.5333
  991MOL0     H33743   1.654   4.031   3.735 -4.0156 -0.1163 -0.0687
  991MOL0     H33744   1.669   3.912   3.620 -0.4827 -1.8946  0.1780
  991MOL0     H33745   1.771   3.745   3.574 -0.2864 -1.9985  0.1035
  991MOL0     H33746   2.022   3.580   3.387  0.9685 -2.4643  0.2630
  991MOL0     H33747   1.916   3.466   3.479  2.1478  0.0671 -0.3961
  991MOL0     H33748   1.852   3.624   3.416  1.5644  1.8497 -1.9529
  991MOL0     H33749   2.357   3.561   3.356 -0.8171 -1.4674 -2.9036
  991MOL0     H33750   2.579   3.477   3.287 -1.4234  1.2550 -0.1988
  991MOL0     H33751   2.737   3.151   3.552 -0.3895 -1.2777  0.0494
  991MOL0     H33752   2.752   3.060   3.394  1.8459  1.2667 -4.0979
  991MOL0     H33753   2.943   3.218   3.350 -1.0052  0.5175  0.3885
  991MOL0     H33754   2.909   3.294   3.500  2.1926  1.2048 -0.3869
  991MOL0     H33755   3.023   3.010   3.450  1.5766 -0.2435  1.9791
  991MOL0     H33756   2.952   3.041   3.598  4.4769 -3.8378 -0.4328
  991MOL0     H33757   3.183   3.183   3.476 -1.8087  2.3113 -0.1613
  991MOL0     H33758   3.123   3.245   3.618  0.6921  1.3445 -0.9375
  991MOL0     H33759   3.249   2.974   3.607 -0.4740 -0.7381  2.8770
  991MOL0     H33760   3.127   3.005   3.735 -1.0112  1.4039  0.0567
  991MOL0     H33761   3.370   3.184   3.689  2.4490 -2.1132 -0.1321
  991MOL0     H33762   3.261   3.186   3.824  3.8051  0.2996  1.4482
  991MOL0     H33763   3.328   2.933   3.872  0.2055 -0.6404  0.8114
  991MOL0     H33764   3.436   3.082   3.903 -0.7308 -0.0807 -0.5677
  991MOL0     H33765   3.543   3.031   3.684 -0.5528  1.7609  0.4671
  991MOL0     H33766   3.450   2.879   3.669  0.6319  2.6793 -2.6990
  991MOL0     H33767   2.534   3.157   3.569  1.4974  4.1609  2.7709
  991MOL0     H33768   2.306   3.206   3.597  0.2959 -2.4393 -1.5517
  991MOL0     H33769   2.182   3.694   3.842 -2.0117  1.1972  0.4383
  991MOL0     H33770   2.018   3.851   3.913  5.5667  0.0924 -1.2825
  991MOL0     H33771   2.161   4.670   4.602  1.5157  0.4242 -0.5080
  991MOL0     H33772   2.307   4.827   4.512 -0.1944  2.9071  0.3355
  991MOL0     H33773   2.618   5.162   4.409  0.6463  2.0804  1.8489
  991MOL0     H33774   2.707   5.367   4.327 -0.2339  2.5720 -3.1083
  991MOL0     H33775   2.726   5.506   4.185  0.2155 -0.3664  1.1595
  991MOL0     H33776   2.598   5.560   4.060 -2.9514  0.2111  1.9529
  991MOL0     H33777   2.756   5.738   4.249 -0.7677  2.9933  0.6018
  991MOL0     H33778   2.636   5.792   4.128 -0.2374 -0.0942  3.0861
  991MOL0     H33779   2.757   5.741   3.947  2.2934 -0.5422 -1.3735
  991MOL0     H33780   2.902   5.678   4.045  0.0289 -1.4222  1.4418
  991MOL0     H33781   2.981   5.892   4.007  0.3469  0.1546  1.8350
  991MOL0     H33782   2.920   5.904   4.167  0.5458  1.6670  0.3103
  991MOL0     H33783   2.664   6.181   4.019 -0.6581  0.3956 -2.1711
  991MOL0     H33784   2.318   5.537   4.280 -0.3769  0.1130  0.3694
  991MOL0     H33785   2.222   5.327   4.372 -0.8124  0.1848 -1.8378
  992MOL0     O33786  11.411   0.202   8.879 -0.1821 -0.3946  0.1071
  992MOL0     C33787  11.300   0.251   8.901 -1.0882 -0.0670  0.0503
  992MOL0     O33788  11.196   0.195   8.971 -0.5500 -0.3769  0.7447
  992MOL0     C33789  11.178   0.059   8.984  0.4646 -0.0312 -0.6655
  992MOL0     C33790  11.045   0.026   9.011 -0.1019 -0.1242  0.1522
  992MOL0     C33791  11.009  -0.106   9.029 -0.4877  0.3097 -0.8066
  992MOL0     C33792  11.105  -0.210   9.006  0.1136  0.1518  0.0876
  992MOL0     O33793  11.082  -0.345   9.001 -0.4432  0.3810 -0.2032
  992MOL0     C33794  10.947  -0.401   9.031  0.8346 -0.8782 -0.4144
  992MOL0     C33795  10.849  -0.373   8.916 -0.3486 -0.7186 -0.0371
  992MOL0     C33796  10.875  -0.483   8.810 -0.3065  0.6592 -0.9851
  992MOL0     C33797  10.790  -0.447   8.686  0.2478 -0.1454 -0.1029
  992MOL0     C33798  10.825  -0.523   8.554  0.1572  0.0134 -0.0959
  992MOL0     C33799  10.745  -0.473   8.435  2.0054 -0.1730 -0.3932
  992MOL0     C33800  10.599  -0.528   8.421 -1.1093  0.0376 -0.0768
  992MOL0     C33801  10.579  -0.682   8.436  0.4338  0.2613 -1.1698
  992MOL0     N33802  10.644  -0.763   8.338  0.9223  0.6252  0.2507
  992MOL0     C33803  10.588  -0.772   8.217  0.9166  0.5468 -0.1074
  992MOL0     C33804  10.657  -0.883   8.172  0.0311 -0.1867 -0.4132
  992MOL0     C33805  10.651  -0.960   8.046  0.5470 -0.9861  0.1429
  992MOL0     C33806  10.639  -1.106   8.083 -0.2298  0.4334  0.5512
  992MOL0     C33807  10.621  -1.193   7.959 -0.0002  0.6540  0.3793
  992MOL0     C33808  10.750  -1.206   7.874  0.6152  0.3040  0.0696
  992MOL0     O33809  10.826  -1.096   7.816  0.3523  0.4360  0.0283
  992MOL0     C33810  10.758  -1.018   7.725  0.5294  0.0727  0.5511
  992MOL0     C33811  10.840  -0.903   7.694  1.2979 -0.1145  0.9581
  992MOL0     C33812  10.794  -0.827   7.584  0.5463 -0.0043 -0.0669
  992MOL0     C33813  10.879  -0.710   7.530  0.0955 -0.6674 -0.2978
  992MOL0     C33814  10.658  -0.843   7.528 -0.2134  0.3945 -0.4914
  992MOL0     C33815  10.601  -0.777   7.407  0.1019 -0.8721 -0.3931
  992MOL0     O33816  10.473  -0.792   7.392  0.4362  0.2402  0.1979
  992MOL0     C33817  10.424  -0.736   7.274 -0.0507 -0.4952  0.4639
  992MOL0     C33818  10.359  -0.812   7.174 -1.0328 -0.7867 -0.2730
  992MOL0     C33819  10.313  -0.746   7.061 -0.6484 -0.7468  0.8772
  992MOL0     C33820  10.317  -0.608   7.041 -0.4001  0.0610  0.5747
  992MOL0     O33821  10.270  -0.551   6.921  1.1925  0.2176 -0.2950
  992MOL0     C33822  10.331  -0.435   6.867 -0.1612  0.1071 -0.1672
  992MOL0     C33823  10.321  -0.434   6.712  0.0769 -0.5894 -0.3725
  992MOL0     C33824  10.182  -0.381   6.672  0.5294 -0.2480 -0.8730
  992MOL0     C33825  10.058  -0.462   6.721 -1.1630 -0.7559  0.4949
  992MOL0     C33826   9.927  -0.394   6.670 -0.7630 -0.6516  0.1594
  992MOL0     C33827   9.906  -0.239   6.681  0.1855 -1.1249  0.4540
  992MOL0     C33828   9.769  -0.204   6.628 -0.9909 -0.3181  0.0328
  992MOL0     C33829   9.765  -0.051   6.640 -0.6944  0.4926  1.0117
  992MOL0    Cl33830   9.628   0.021   6.549 -0.0086  0.0750 -0.0733
  992MOL0     C33831  10.386  -0.531   7.142  0.5202  0.4431 -0.0701
  992MOL0     C33832  10.428  -0.593   7.262  0.9491  0.2548  0.1594
  992MOL0     O33833  10.680  -0.728   7.321  0.0491 -0.1785 -0.4864
  992MOL0     C33834  10.585  -0.959   7.564 -0.9467 -0.6634  0.2982
  992MOL0     C33835  10.638  -1.051   7.660  0.1292 -0.6476  0.8708
  992MOL0     N33836  10.757  -0.914   8.264 -0.3117  0.1166  0.0210
  992MOL0     N33837  10.755  -0.835   8.362  0.3841 -0.6120  0.5889
  992MOL0     C33838  11.244  -0.177   8.984  0.6825 -0.1161 -0.2614
  992MOL0     C33839  11.277  -0.043   8.980  0.1164 -0.0278 -0.7356
  992MOL0     C33840  11.274   0.393   8.856 -0.4645 -0.6104 -0.3433
  992MOL0     C33841  11.377   0.477   8.805 -1.2292  0.6287 -0.7641
  992MOL0     C33842  11.351   0.607   8.775 -0.3914  0.8970 -1.0686
  992MOL0     C33843  11.216   0.657   8.772  0.8761 -0.1684  0.9100
  992MOL0     O33844  11.208   0.788   8.744 -0.1370  0.5240 -0.0439
  992MOL0     C33845  11.086   0.847   8.714 -0.8327  0.4348  0.5799
  992MOL0     C33846  11.043   0.792   8.577 -0.2724 -0.7662  0.0826
  992MOL0     C33847  10.933   0.883   8.516 -0.3214  0.7520  0.1059
  992MOL0     C33848  10.825   0.919   8.607  0.8709 -0.3856 -0.0167
  992MOL0     C33849  10.752   0.802   8.649  0.4050 -0.2973 -0.0609
  992MOL0     C33850  10.656   0.726   8.666 -0.4355 -0.5521 -0.3080
  992MOL0     C33851  11.112   0.564   8.810 -0.2853 -0.7192 -0.2906
  992MOL0     C33852  11.145   0.443   8.861 -0.2476 -0.7671  0.0364
  992MOL0     H33853  10.978   0.110   9.028 -0.0837 -0.3388  1.3586
  992MOL0     H33854  10.911  -0.137   9.065 -1.2807 -2.3629 -4.6109
  992MOL0     H33855  10.941  -0.507   9.056  0.3270 -0.5230  1.1076
  992MOL0     H33856  10.915  -0.374   9.132  0.1567 -1.8803 -0.3503
  992MOL0     H33857  10.746  -0.388   8.949 -0.9017 -1.0669 -1.8097
  992MOL0     H33858  10.879  -0.279   8.869  1.5175 -0.8459  0.8106
  992MOL0     H33859  10.979  -0.492   8.778 -0.0378 -3.8500  0.3705
  992MOL0     H33860  10.845  -0.579   8.854  1.6517 -1.1290 -3.2516
  992MOL0     H33861  10.685  -0.456   8.718  0.2891 -1.3978 -0.2601
  992MOL0     H33862  10.805  -0.342   8.660 -0.0460 -0.5357 -1.9604
  992MOL0     H33863  10.931  -0.513   8.529  0.7806 -0.2109  2.2195
  992MOL0     H33864  10.803  -0.629   8.568  2.8723 -0.9459 -2.3291
  992MOL0     H33865  10.750  -0.363   8.436  0.9125 -0.1056 -0.7764
  992MOL0     H33866  10.781  -0.514   8.340  0.0779  0.7977 -1.6113
  992MOL0     H33867  10.525  -0.492   8.494 -2.3220 -2.0660 -0.1939
  992MOL0     H33868  10.553  -0.497   8.327  1.3627  3.1504 -0.4360
  992MOL0     H33869  10.472  -0.699   8.450  0.9212 -1.9285  0.3711
  992MOL0     H33870  10.620  -0.712   8.533  0.4871 -2.4846 -1.9609
  992MOL0     H33871  10.503  -0.720   8.174  0.0144  0.1630  1.1606
  992MOL0     H33872  10.563  -0.923   7.993  1.3564  1.9375  0.6615
  992MOL0     H33873  10.743  -0.941   7.990 -0.6974  0.2956 -1.5868
  992MOL0     H33874  10.554  -1.125   8.149  1.9200  2.4345  4.2491
  992MOL0     H33875  10.734  -1.133   8.131  0.8707 -0.8022 -2.1283
  992MOL0     H33876  10.541  -1.135   7.912 -0.9275 -1.6519 -1.0802
  992MOL0     H33877  10.583  -1.290   7.991  0.5568  0.9090  1.8688
  992MOL0     H33878  10.724  -1.256   7.780 -1.2275  3.9995 -1.5731
  992MOL0     H33879  10.824  -1.275   7.916  0.8069 -0.2728 -1.1539
  992MOL0     H33880  10.932  -0.890   7.750  1.9166 -0.1363 -0.0453
  992MOL0     H33881  10.805  -0.633   7.510 -0.1983 -1.4185 -2.3585
  992MOL0     H33882  10.953  -0.676   7.603  0.2087 -1.2959 -0.1105
  992MOL0     H33883  10.924  -0.749   7.438 -0.5396 -3.4367  0.4602
  992MOL0     H33884  10.351  -0.919   7.191  2.7533 -1.0175  0.9942
  992MOL0     H33885  10.260  -0.798   6.982 -0.8197  0.6409  0.0519
  992MOL0     H33886  10.293  -0.342   6.908  1.0278  0.5280  0.0120
  992MOL0     H33887  10.438  -0.432   6.887  0.0436  1.7565 -1.3507
  992MOL0     H33888  10.396  -0.370   6.664  2.2278 -2.5230  0.2471
  992MOL0     H33889  10.343  -0.532   6.668  0.6140 -2.5900  3.8657
  992MOL0     H33890  10.176  -0.370   6.563  0.2317  0.5376 -0.7824
  992MOL0     H33891  10.169  -0.282   6.715 -3.4253  0.3038 -2.8442
  992MOL0     H33892  10.073  -0.564   6.682 -2.8542 -0.2542 -1.6716
  992MOL0     H33893  10.026  -0.459   6.826 -0.6347 -2.5051  0.7363
  992MOL0     H33894   9.838  -0.437   6.716 -1.4878  1.2692  0.6812
  992MOL0     H33895   9.924  -0.420   6.564  0.2115  2.9093 -0.8894
  992MOL0     H33896   9.904  -0.234   6.790 -2.6902 -2.1123  0.5388
  992MOL0     H33897   9.986  -0.177   6.639 -0.9093  0.7975  1.1115
  992MOL0     H33898   9.703  -0.246   6.705  0.0954 -2.6760 -0.2469
  992MOL0     H33899   9.744  -0.234   6.526 -2.7355 -0.8419  0.5740
  992MOL0     H33900   9.858  -0.021   6.591 -1.1511  1.0341  0.4550
  992MOL0     H33901   9.767  -0.034   6.748  2.3206 -2.1511  1.5269
  992MOL0     H33902  10.412  -0.426   7.129  2.1928  0.1235  0.3573
  992MOL0     H33903  10.457  -0.530   7.345  2.0258 -1.5116  1.2027
  992MOL0     H33904  10.490  -0.992   7.523 -1.3905  1.3661 -0.4096
  992MOL0     H33905  10.575  -1.133   7.693 -3.0956  0.4595 -1.9306
  992MOL0     H33906  11.310  -0.262   8.989 -1.7185 -1.9866  1.8999
  992MOL0     H33907  11.384  -0.024   8.981  0.0803  0.5347  2.1800
  992MOL0     H33908  11.479   0.447   8.784 -0.4762  2.6290 -0.2088
  992MOL0     H33909  11.431   0.677   8.752 -0.2500  1.7848  1.7495
  992MOL0     H33910  11.018   0.818   8.794 -0.3124 -1.8550  0.2698
  992MOL0     H33911  11.107   0.954   8.706  2.0810 -0.1926 -3.8138
  992MOL0     H33912  11.002   0.693   8.596 -0.5485 -1.1164 -2.0653
  992MOL0     H33913  11.129   0.783   8.510  1.4861  1.5193  1.8358
  992MOL0     H33914  10.886   0.832   8.431  0.8542 -2.1932  1.1256
  992MOL0     H33915  10.982   0.977   8.485  0.3266  1.4719  3.0270
  992MOL0     H33916  10.755   0.985   8.556 -1.7166 -2.6623  0.2905
  992MOL0     H33917  10.867   0.963   8.698 -2.5442 -2.6231  2.9402
  992MOL0     H33918  10.569   0.664   8.663 -2.7349  2.4579 -2.4493
  992MOL0     H33919  11.005   0.582   8.820 -0.4864 -2.5627  1.5625
  992MOL0     H33920  11.069   0.382   8.909 -2.0500  1.3970  0.0526
  993MOL0     O33921   8.822   4.463   7.203 -0.3123 -0.1660 -0.5063
  993MOL0     C33922   8.785   4.504   7.095  0.0571 -0.2917  0.2466
  993MOL0     O33923   8.758   4.412   6.992  0.6404 -0.4566  0.0874
  993MOL0     C33924   8.759   4.278   7.005 -1.1777 -1.0400 -0.2034
  993MOL0     C33925   8.860   4.219   6.928 -0.1470  1.2380  0.0983
  993MOL0     C33926   8.885   4.084   6.922 -0.5377  0.2440 -0.0819
  993MOL0     C33927   8.810   4.000   7.003 -0.4381  0.3955 -0.7420
  993MOL0     O33928   8.838   3.869   7.022  0.7979 -0.0708  0.0438
  993MOL0     C33929   8.807   3.784   6.908  0.1839 -0.7372  0.4422
  993MOL0     C33930   8.716   3.669   6.953 -0.1941  0.0282 -0.1952
  993MOL0     C33931   8.794   3.559   7.040 -0.1939 -0.3674  0.7798
  993MOL0     C33932   8.892   3.466   6.960  0.2430 -0.9584  0.1213
  993MOL0     C33933   8.961   3.362   7.050 -0.2266  0.4741  0.1077
  993MOL0     C33934   8.862   3.271   7.121 -0.4623  0.1326  0.1521
  993MOL0     C33935   8.931   3.175   7.212  0.6243  0.9148  0.0620
  993MOL0     C33936   8.824   3.083   7.276  0.1081 -0.7768 -0.6571
  993MOL0     N33937   8.764   2.983   7.180  0.5039  0.0534  0.3342
  993MOL0     C33938   8.799   2.859   7.138 -0.9325  0.3490  0.7296
  993MOL0     C33939   8.751   2.831   7.012 -0.8820  0.1662 -1.4991
  993MOL0     C33940   8.771   2.705   6.929  1.2651 -0.6733 -0.3658
  993MOL0     C33941   8.916   2.699   6.877  0.0799  0.2364  0.5239
  993MOL0     C33942   8.956   2.813   6.793 -1.1335  0.1935  0.3485
  993MOL0     C33943   9.101   2.779   6.733  0.5323 -0.7172  0.6024
  993MOL0     O33944   9.196   2.835   6.827  0.1975 -0.0692  0.2070
  993MOL0     C33945   9.208   2.973   6.853 -0.6960 -0.3244  0.0972
  993MOL0     C33946   9.182   3.070   6.750  0.1067 -0.1877 -0.2078
  993MOL0     C33947   9.220   3.201   6.778  0.7560 -0.6043 -0.3472
  993MOL0     C33948   9.205   3.300   6.659  0.3993  0.3100  0.0871
  993MOL0     C33949   9.261   3.248   6.904 -0.1782 -2.2001 -0.0044
  993MOL0     C33950   9.292   3.396   6.920 -0.5200  0.6280  0.3359
  993MOL0     O33951   9.254   3.470   7.030 -0.3357  0.6771  0.6293
  993MOL0     C33952   9.284   3.609   7.043  1.0252 -0.1551  0.1953
  993MOL0     C33953   9.418   3.655   7.026  0.0993 -0.4293  0.9275
  993MOL0     C33954   9.440   3.790   7.052  0.6013 -0.2686  0.1112
  993MOL0     C33955   9.332   3.880   7.089 -0.0182  0.5806  0.1985
  993MOL0     O33956   9.355   4.014   7.089 -0.5386 -0.6857  0.4070
  993MOL0     C33957   9.246   4.100   7.069 -0.1907 -1.0180  0.3235
  993MOL0     C33958   9.298   4.240   7.029  0.4842 -0.1693  0.7261
  993MOL0     C33959   9.421   4.238   6.947  1.3967 -0.0573  0.4455
  993MOL0     C33960   9.397   4.169   6.811  0.2710  0.3029  0.0728
  993MOL0     C33961   9.468   4.236   6.695 -0.0066  0.4118 -0.2307
  993MOL0     C33962   9.605   4.151   6.676 -0.4167 -0.6139 -0.9303
  993MOL0     C33963   9.600   4.006   6.629 -0.3160 -0.3886  0.6439
  993MOL0     C33964   9.491   3.986   6.531  0.2256 -0.5769  0.7168
  993MOL0    Cl33965   9.513   3.827   6.462 -0.0217 -0.4795 -0.2443
  993MOL0     C33966   9.202   3.829   7.103 -0.3511 -0.4186  0.0260
  993MOL0     C33967   9.181   3.689   7.087  0.1827 -0.2959 -0.2995
  993MOL0     O33968   9.367   3.440   6.832  0.5457  0.5474  0.3709
  993MOL0     C33969   9.270   3.154   7.001 -0.0647  0.3798 -0.1176
  993MOL0     C33970   9.249   3.015   6.979 -0.0196 -1.2156  0.0444
  993MOL0     N33971   8.679   2.938   6.980  0.8395  0.3178  0.0595
  993MOL0     N33972   8.676   3.023   7.083  0.3495 -0.8365  0.6820
  993MOL0     C33973   8.715   4.053   7.083  0.0551 -0.2429 -0.2416
  993MOL0     C33974   8.698   4.192   7.099 -0.5548 -0.1257 -0.7571
  993MOL0     C33975   8.772   4.647   7.044 -0.3851 -0.3632 -0.2921
  993MOL0     C33976   8.835   4.749   7.126 -0.6436  0.0989 -0.0753
  993MOL0     C33977   8.793   4.879   7.106 -0.3945 -0.1287  0.5004
  993MOL0     C33978   8.718   4.919   6.998 -0.3141  0.5948  0.9012
  993MOL0     O33979   8.693   5.047   6.993 -0.4442  0.7928  0.2402
  993MOL0     C33980   8.583   5.095   6.915  0.2668  1.2424 -0.1062
  993MOL0     C33981   8.568   5.239   6.932 -0.1005  1.3900  1.3871
  993MOL0     C33982   8.492   5.279   7.053  0.2606  0.5596 -0.6045
  993MOL0     C33983   8.585   5.311   7.165 -0.0106 -0.2963  0.7186
  993MOL0     C33984   8.507   5.320   7.289  0.6983 -0.3319 -0.2825
  993MOL0     C33985   8.436   5.315   7.392  0.8241 -0.6016 -0.2914
  993MOL0     C33986   8.682   4.822   6.903 -0.8102 -0.1417 -0.1848
  993MOL0     C33987   8.707   4.685   6.921  0.8326  1.8222  0.6488
  993MOL0     H33988   8.919   4.286   6.867 -1.7018  1.6793 -0.9587
  993MOL0     H33989   8.977   4.056   6.871 -0.3675  0.0274  0.3370
  993MOL0     H33990   8.771   3.845   6.825  0.3956  1.1279  1.6739
  993MOL0     H33991   8.903   3.739   6.879  0.2827 -1.0686  1.2516
  993MOL0     H33992   8.633   3.694   7.019 -1.7528 -3.5029 -0.5999
  993MOL0     H33993   8.673   3.622   6.864 -2.3332  0.6491  0.4349
  993MOL0     H33994   8.857   3.606   7.117  1.0658  0.5994 -0.7667
  993MOL0     H33995   8.719   3.492   7.081  1.2179 -3.3238 -1.1546
  993MOL0     H33996   8.830   3.407   6.892 -3.6752  1.1269  1.5574
  993MOL0     H33997   8.969   3.527   6.913 -1.4346  1.8359  0.7419
  993MOL0     H33998   9.029   3.305   6.987 -3.0674 -1.1252 -1.7158
  993MOL0     H33999   9.031   3.403   7.124  0.4767 -0.2514 -0.1405
  993MOL0     H34000   8.787   3.325   7.180 -0.9964 -1.0592  0.5935
  993MOL0     H34001   8.818   3.216   7.038 -0.9488  0.7952 -0.0310
  993MOL0     H34002   9.010   3.115   7.165  2.5377  0.4631  3.5317
  993MOL0     H34003   8.979   3.226   7.296 -0.1010 -0.5204  1.3775
  993MOL0     H34004   8.759   3.155   7.327  2.4023  0.2857  0.9510
  993MOL0     H34005   8.861   3.026   7.361 -4.0075 -3.4333 -0.4058
  993MOL0     H34006   8.870   2.792   7.184 -1.2916 -0.7305 -0.2382
  993MOL0     H34007   8.751   2.627   7.003 -0.5999  3.4713  4.0809
  993MOL0     H34008   8.698   2.714   6.848  5.1951 -0.8230 -4.3266
  993MOL0     H34009   8.932   2.613   6.812  2.0809  0.2011  0.9971
  993MOL0     H34010   8.986   2.681   6.959 -1.7418  0.4197  2.2030
  993MOL0     H34011   8.948   2.902   6.857 -1.5958  1.7437 -1.7533
  993MOL0     H34012   8.889   2.831   6.708 -0.2513  1.8819 -0.0461
  993MOL0     H34013   9.119   2.837   6.643 -0.4805  1.7868  1.9202
  993MOL0     H34014   9.116   2.674   6.705  0.5005 -0.9501  1.4287
  993MOL0     H34015   9.152   3.045   6.648  1.6804 -0.3681 -0.6560
  993MOL0     H34016   9.162   3.395   6.694  0.6989  0.3901  0.2402
  993MOL0     H34017   9.303   3.327   6.619  0.6312 -0.3138  0.2242
  993MOL0     H34018   9.139   3.267   6.578 -0.3769 -0.7026  1.1030
  993MOL0     H34019   9.492   3.586   6.985  1.4096  2.5335 -2.1495
  993MOL0     H34020   9.529   3.845   7.021  0.3544 -0.0727 -0.2483
  993MOL0     H34021   9.181   4.056   6.994 -0.7840 -0.5326  0.5475
  993MOL0     H34022   9.184   4.117   7.157 -0.0662  2.1582 -0.1080
  993MOL0     H34023   9.217   4.296   6.982  1.1123 -0.7689 -1.1266
  993MOL0     H34024   9.311   4.284   7.129 -2.3725 -0.4358  1.3194
  993MOL0     H34025   9.495   4.195   7.014 -0.7800 -1.9438  1.7904
  993MOL0     H34026   9.448   4.344   6.935  1.1482  0.2550  2.3494
  993MOL0     H34027   9.421   4.062   6.811  0.5890  0.3550  1.3055
  993MOL0     H34028   9.293   4.157   6.782  0.5063 -0.3190 -0.5470
  993MOL0     H34029   9.484   4.344   6.697 -0.2149  0.4689 -1.1654
  993MOL0     H34030   9.405   4.220   6.607 -2.3020  0.4479  1.3173
  993MOL0     H34031   9.678   4.207   6.616 -0.1985  0.9316  0.6935
  993MOL0     H34032   9.634   4.153   6.782 -1.4335  2.4245 -0.6160
  993MOL0     H34033   9.593   3.928   6.706  2.2649 -0.9978  0.3694
  993MOL0     H34034   9.695   3.989   6.578  0.1464  1.3785  0.8567
  993MOL0     H34035   9.505   4.057   6.449  2.4980 -2.7352 -0.8958
  993MOL0     H34036   9.392   4.005   6.574  0.7181  0.0799  1.6082
  993MOL0     H34037   9.118   3.893   7.127  0.1970  0.2300  0.2522
  993MOL0     H34038   9.083   3.648   7.108 -0.1090 -1.3804 -3.2124
  993MOL0     H34039   9.294   3.194   7.099 -1.2473  0.2655  0.2334
  993MOL0     H34040   9.258   2.945   7.061 -2.4260 -0.0332  1.4101
  993MOL0     H34041   8.658   3.987   7.147  1.1952  0.6353  1.7921
  993MOL0     H34042   8.628   4.240   7.167 -1.4928 -1.5938 -0.6236
  993MOL0     H34043   8.915   4.724   7.196  1.6523  3.5661 -1.1802
  993MOL0     H34044   8.827   4.951   7.179  0.1768  0.9069 -0.7426
  993MOL0     H34045   8.587   5.071   6.809 -0.5925 -0.5764  0.2294
  993MOL0     H34046   8.491   5.043   6.943  1.6144 -1.9963 -1.1738
  993MOL0     H34047   8.522   5.260   6.835  0.7212 -3.7113 -0.4448
  993MOL0     H34048   8.661   5.294   6.945  1.1729 -0.6759  1.5586
  993MOL0     H34049   8.414   5.207   7.077 -0.9045  2.2258  0.9124
  993MOL0     H34050   8.431   5.363   7.018 -2.4370 -1.6106 -1.4895
  993MOL0     H34051   8.632   5.406   7.138 -1.4946  0.0540 -0.7743
  993MOL0     H34052   8.663   5.235   7.173  2.0001  1.7250  1.6189
  993MOL0     H34053   8.366   5.308   7.473 -3.3572  1.9091 -3.2615
  993MOL0     H34054   8.633   4.840   6.808  0.0565  2.0885 -0.2810
  993MOL0     H34055   8.663   4.611   6.855  1.8352  1.1574  0.7093
  994MOL0     O34056   9.406   9.631   7.184  0.4667  0.2167 -0.5226
  994MOL0     C34057   9.280   9.649   7.179  0.4006  0.3624 -0.3030
  994MOL0     O34058   9.182   9.622   7.273 -0.5996 -0.2826 -0.2807
  994MOL0     C34059   9.221   9.582   7.394 -0.3878  0.5955 -0.6081
  994MOL0     C34060   9.129   9.505   7.466 -0.0154 -0.4152  0.0034
  994MOL0     C34061   9.155   9.464   7.590 -0.7210 -0.3434 -0.1881
  994MOL0     C34062   9.254   9.517   7.667  0.1936  0.3233 -0.1198
  994MOL0     O34063   9.248   9.510   7.804  0.2874 -0.6708 -0.4497
  994MOL0     C34064   9.362   9.574   7.873 -0.0993  0.2919 -0.3588
  994MOL0     C34065   9.324   9.578   8.023 -0.4459  0.1955  0.6486
  994MOL0     C34066   9.314   9.431   8.078 -0.1996 -0.2942  0.2872
  994MOL0     C34067   9.266   9.424   8.230  0.0197  0.1992  0.3622
  994MOL0     C34068   9.369   9.482   8.325 -0.1953  0.3759 -0.9875
  994MOL0     C34069   9.334   9.444   8.467 -0.8244  0.7454 -0.0769
  994MOL0     C34070   9.425   9.530   8.555 -0.4983 -0.9238 -0.5417
  994MOL0     C34071   9.402   9.516   8.709  0.5114 -0.3541 -0.4646
  994MOL0     N34072   9.475   9.621   8.793  0.2336 -0.2423 -0.5046
  994MOL0     C34073   9.436   9.740   8.852 -0.7234 -0.0720  0.7847
  994MOL0     C34074   9.537   9.794   8.919 -0.3104  1.2199 -0.1827
  994MOL0     C34075   9.545   9.932   8.966 -0.3309 -0.2559 -0.0672
  994MOL0     C34076   9.664  10.014   8.914  0.5775  0.0009 -0.2938
  994MOL0     C34077   9.679   9.988   8.764  0.7816 -0.6888  0.5433
  994MOL0     C34078   9.787  10.075   8.704  0.0340 -0.3271  0.4581
  994MOL0     O34079   9.840  10.010   8.592  0.2037 -0.1314  0.1380
  994MOL0     C34080   9.791  10.053   8.463  0.0454  0.3486  0.1424
  994MOL0     C34081   9.876  10.039   8.352 -0.2689 -0.5799 -0.2407
  994MOL0     C34082   9.850  10.094   8.226 -0.1918  0.0040  0.9845
  994MOL0     C34083   9.959  10.070   8.117  0.2106  0.5733  1.0532
  994MOL0     C34084   9.728  10.161   8.204  0.4885 -0.1437  0.3567
  994MOL0     C34085   9.688  10.242   8.084 -0.5856  0.0682 -0.0664
  994MOL0     O34086   9.590  10.342   8.093 -0.0862 -0.1963 -0.8715
  994MOL0     C34087   9.517  10.408   7.993  0.0051  0.0537  0.0550
  994MOL0     C34088   9.521  10.379   7.858 -0.0690  0.2291 -0.0219
  994MOL0     C34089   9.432  10.439   7.762  0.1004  0.3559 -0.6074
  994MOL0     C34090   9.338  10.536   7.808  0.1816 -0.0111  0.1503
  994MOL0     O34091   9.254  10.598   7.717 -0.1439 -0.2906  0.2166
  994MOL0     C34092   9.164  10.708   7.752  0.2201  0.2011 -0.5467
  994MOL0     C34093   9.061  10.738   7.648 -0.5108 -0.3549  0.2812
  994MOL0     C34094   9.116  10.801   7.527  0.1306 -0.4092  0.1640
  994MOL0     C34095   9.009  10.884   7.458  0.5108  0.5134 -0.5209
  994MOL0     C34096   9.048  10.951   7.331  0.6723  0.5293  0.5825
  994MOL0     C34097   9.046  10.847   7.211 -0.5921  0.5504 -0.5736
  994MOL0     C34098   9.093  10.899   7.073 -0.2448 -0.0554 -0.3345
  994MOL0     C34099   9.072  10.793   6.969 -1.2185  0.8654  0.3824
  994MOL0    Cl34100   9.234  10.707   6.941  0.4750  0.0568  0.3981
  994MOL0     C34101   9.349  10.571   7.939 -0.3565 -0.3822 -0.1683
  994MOL0     C34102   9.429  10.509   8.031  0.6596 -0.0654 -0.5331
  994MOL0     O34103   9.757  10.221   7.989  0.4191  0.5983 -0.6005
  994MOL0     C34104   9.636  10.164   8.314  0.4510 -0.2368 -0.3200
  994MOL0     C34105   9.669  10.110   8.438  0.0384 -0.0521 -0.2787
  994MOL0     N34106   9.648   9.707   8.889  1.0913 -0.1034 -0.6954
  994MOL0     N34107   9.606   9.605   8.814  0.4944 -0.3703 -0.3202
  994MOL0     C34108   9.356   9.593   7.599  0.3194  0.4399  0.0286
  994MOL0     C34109   9.329   9.625   7.461 -0.1173 -0.1607 -0.5925
  994MOL0     C34110   9.240   9.689   7.039  0.1274  0.1202  0.3623
  994MOL0     C34111   9.327   9.739   6.941  0.2554 -0.4914 -0.3195
  994MOL0     C34112   9.277   9.795   6.825 -0.1988  0.0540  1.0859
  994MOL0     C34113   9.145   9.797   6.796 -0.3556 -0.0361 -0.2197
  994MOL0     O34114   9.118   9.853   6.676 -0.5776  0.8076 -0.2664
  994MOL0     C34115   8.982   9.880   6.645  0.4676 -0.2485 -0.1580
  994MOL0     C34116   8.937  10.031   6.694 -1.2442 -0.4788  0.0443
  994MOL0     C34117   8.890  10.028   6.836 -0.1041 -0.5516 -0.4118
  994MOL0     C34118   8.766   9.949   6.861 -0.4252  0.8079 -0.4105
  994MOL0     C34119   8.710   9.995   6.983  0.6387  0.3721 -0.0720
  994MOL0     C34120   8.655  10.055   7.071  0.0738 -0.2134 -0.8737
  994MOL0     C34121   9.052   9.737   6.881  0.7561  0.3809 -0.6680
  994MOL0     C34122   9.095   9.692   7.006 -0.7820  0.4741 -0.6225
  994MOL0     H34123   9.033   9.472   7.428  0.2556  0.6828 -1.7518
  994MOL0     H34124   9.071   9.409   7.631 -2.6007  3.2190  1.2083
  994MOL0     H34125   9.454   9.525   7.840  2.7018  3.9564  1.3186
  994MOL0     H34126   9.363   9.678   7.839  0.2704  1.2471  2.3219
  994MOL0     H34127   9.389   9.640   8.086 -0.4446  2.4062 -1.4095
  994MOL0     H34128   9.234   9.640   8.033  2.4785  4.6208  2.6570
  994MOL0     H34129   9.239   9.368   8.029  0.9270 -3.1040  1.8996
  994MOL0     H34130   9.413   9.385   8.072  0.3947  0.9150  0.6227
  994MOL0     H34131   9.167   9.472   8.231  0.0645  0.9457 -4.4908
  994MOL0     H34132   9.256   9.319   8.258 -0.0985 -0.2436 -1.2429
  994MOL0     H34133   9.465   9.444   8.290 -0.8301 -4.8047  1.9595
  994MOL0     H34134   9.363   9.590   8.306 -0.3570  0.0062 -3.3596
  994MOL0     H34135   9.233   9.474   8.494 -0.2172  2.6391  0.2738
  994MOL0     H34136   9.343   9.337   8.486  0.0378  1.3961  4.0779
  994MOL0     H34137   9.529   9.502   8.539 -0.4838 -1.7947  0.8770
  994MOL0     H34138   9.419   9.637   8.531  1.5897 -0.2174  1.5891
  994MOL0     H34139   9.447   9.421   8.739  0.0330 -0.9613 -1.6112
  994MOL0     H34140   9.296   9.519   8.735  0.3689  0.7337 -1.1037
  994MOL0     H34141   9.337   9.785   8.845 -0.3870  0.5284 -0.4771
  994MOL0     H34142   9.456   9.982   8.927 -2.2958 -3.1381  0.4590
  994MOL0     H34143   9.546   9.942   9.075  0.9546 -1.8432  0.1015
  994MOL0     H34144   9.755   9.983   8.966 -0.6550 -1.5945  1.0573
  994MOL0     H34145   9.639  10.119   8.931 -1.3460 -0.4662  0.1092
  994MOL0     H34146   9.584  10.009   8.714  0.2281 -2.4119  0.7936
  994MOL0     H34147   9.702   9.885   8.736  0.3719 -0.3025 -1.3575
  994MOL0     H34148   9.873  10.085   8.771  2.9346  0.2790 -3.0281
  994MOL0     H34149   9.743  10.174   8.693  1.7008  0.5656  1.4385
  994MOL0     H34150   9.974   9.994   8.367  0.4008  1.7874  5.0946
  994MOL0     H34151  10.015  10.159   8.089  4.2347 -2.3588 -1.4866
  994MOL0     H34152  10.045  10.011   8.152  0.8485  0.4056 -0.6969
  994MOL0     H34153   9.916  10.027   8.025  2.0228  1.2162 -0.1345
  994MOL0     H34154   9.595  10.314   7.814 -1.0685 -0.7031 -0.3840
  994MOL0     H34155   9.427  10.397   7.662 -0.2015 -0.3738 -0.2969
  994MOL0     H34156   9.097  10.672   7.831 -0.5284  1.9720 -0.3060
  994MOL0     H34157   9.219  10.796   7.787  3.4832 -1.1004 -2.0097
  994MOL0     H34158   9.017  10.643   7.618 -0.2884 -0.0954 -0.9070
  994MOL0     H34159   8.994  10.810   7.697 -1.3170 -1.9226  1.6122
  994MOL0     H34160   9.159  10.719   7.468 -1.3549 -0.6944 -0.5617
  994MOL0     H34161   9.197  10.871   7.552  2.8304 -3.7710  1.7817
  994MOL0     H34162   8.918  10.829   7.432  0.6844  0.5986 -1.3491
  994MOL0     H34163   8.991  10.967   7.526  0.4978 -1.1733  1.6436
  994MOL0     H34164   9.145  11.002   7.343  0.2869  1.7268 -1.0612
  994MOL0     H34165   8.984  11.035   7.304 -1.3704 -1.1135  0.1033
  994MOL0     H34166   9.113  10.762   7.229 -0.8779  0.2650 -0.8272
  994MOL0     H34167   8.945  10.804   7.200 -0.4673  0.3952 -1.1960
  994MOL0     H34168   9.198  10.931   7.067 -0.2780 -0.0730 -1.2468
  994MOL0     H34169   9.024  10.983   7.060 -0.6453 -0.6562 -2.4988
  994MOL0     H34170   9.046  10.840   6.874 -0.3167 -0.5715 -0.6119
  994MOL0     H34171   8.988  10.731   7.001 -0.7840  0.2398  0.3165
  994MOL0     H34172   9.282  10.649   7.974  0.2090  0.7336 -1.4720
  994MOL0     H34173   9.424  10.537   8.136 -0.0890  0.1065 -0.6058
  994MOL0     H34174   9.533  10.198   8.312  0.3822 -0.4281 -0.1078
  994MOL0     H34175   9.604  10.103   8.525  0.2888 -1.2264 -0.1630
  994MOL0     H34176   9.443   9.631   7.649  2.3261  0.8393 -3.4360
  994MOL0     H34177   9.394   9.701   7.416 -2.7829  0.3529 -3.9694
  994MOL0     H34178   9.434   9.730   6.957  0.3251  0.9339  0.1582
  994MOL0     H34179   9.355   9.847   6.770 -0.3228 -0.4387  0.4284
  994MOL0     H34180   8.991   9.894   6.537  0.0591  4.2022  0.1824
  994MOL0     H34181   8.908   9.803   6.666 -0.8713  1.2792  1.0486
  994MOL0     H34182   8.865  10.076   6.626 -2.7969 -0.4180  1.6435
  994MOL0     H34183   9.026  10.095   6.692 -0.5300 -1.4395 -0.1468
  994MOL0     H34184   8.858  10.132   6.849 -1.3320 -0.7037 -1.8567
  994MOL0     H34185   8.970  10.001   6.905 -0.4582 -2.2833 -0.6281
  994MOL0     H34186   8.793   9.846   6.888  2.5048  2.1962  2.7761
  994MOL0     H34187   8.693   9.939   6.780 -0.6778 -0.0717 -0.0913
  994MOL0     H34188   8.590  10.092   7.147  0.9846  1.4401 -0.8510
  994MOL0     H34189   8.952   9.713   6.848  1.0866  0.0830 -1.4781
  994MOL0     H34190   9.028   9.649   7.080  0.3827 -0.3680 -0.0238
  995MOL0     O34191   0.070   1.664   1.670 -0.1743  0.1589  1.4486
  995MOL0     C34192   0.118   1.671   1.556 -0.3300  0.1596  0.1965
  995MOL0     O34193   0.046   1.714   1.444  0.3737 -0.1499  0.4556
  995MOL0     C34194  -0.076   1.761   1.438  0.0550  0.1805  0.7970
  995MOL0     C34195  -0.147   1.753   1.317  0.0822 -0.1846  0.8029
  995MOL0     C34196  -0.281   1.790   1.297 -0.3665 -0.6655  0.7032
  995MOL0     C34197  -0.345   1.842   1.412 -0.5702 -0.4979 -0.6367
  995MOL0     O34198  -0.470   1.887   1.415 -0.0094 -0.1632 -0.5948
  995MOL0     C34199  -0.566   1.784   1.374 -0.4717  0.9129 -0.4436
  995MOL0     C34200  -0.550   1.659   1.461 -0.4576 -0.1008  0.6649
  995MOL0     C34201  -0.669   1.567   1.487 -0.5329  0.3700  0.4660
  995MOL0     C34202  -0.772   1.650   1.556 -0.0944  0.4284 -0.6074
  995MOL0     C34203  -0.871   1.574   1.648  0.6031  0.7420  0.1650
  995MOL0     C34204  -1.000   1.659   1.672 -0.4363 -0.3887 -0.0119
  995MOL0     C34205  -0.952   1.794   1.744 -0.5251  0.7296  0.2065
  995MOL0     C34206  -1.046   1.866   1.839  0.1349  0.5425 -0.0109
  995MOL0     N34207  -1.176   1.900   1.780 -0.8313 -0.4761  0.9575
  995MOL0     C34208  -1.242   2.016   1.815 -0.1123  0.9275  0.1813
  995MOL0     C34209  -1.369   2.000   1.762 -0.8994 -0.6662 -0.0050
  995MOL0     C34210  -1.454   2.121   1.764  0.0441 -0.0298 -0.2520
  995MOL0     C34211  -1.592   2.082   1.808 -0.4375  0.4004  0.0938
  995MOL0     C34212  -1.686   2.204   1.843 -0.9662  0.2310 -0.7134
  995MOL0     C34213  -1.785   2.248   1.735 -0.7498 -0.2625 -0.1700
  995MOL0     O34214  -1.726   2.280   1.605 -0.1714  0.4207  0.5997
  995MOL0     C34215  -1.657   2.402   1.588 -0.1286  0.3469 -0.0888
  995MOL0     C34216  -1.632   2.495   1.685  0.9631 -0.2951 -0.0296
  995MOL0     C34217  -1.567   2.612   1.661  0.0201  0.9866 -0.2396
  995MOL0     C34218  -1.555   2.716   1.771  0.1775  0.7915 -0.2690
  995MOL0     C34219  -1.520   2.635   1.527  0.1625 -0.4627  0.3270
  995MOL0     C34220  -1.433   2.750   1.478  0.3772  0.1244  1.5475
  995MOL0     O34221  -1.360   2.818   1.571  0.3240 -0.1798 -0.1145
  995MOL0     C34222  -1.265   2.920   1.547  0.4761  0.2029  0.3931
  995MOL0     C34223  -1.264   3.007   1.431 -0.4338 -0.3395  0.0287
  995MOL0     C34224  -1.152   3.090   1.406  0.5921  0.3761 -0.3129
  995MOL0     C34225  -1.046   3.089   1.498 -0.5499 -0.0561 -0.2911
  995MOL0     O34226  -0.942   3.181   1.477  0.0970  0.5229 -0.1384
  995MOL0     C34227  -0.886   3.195   1.346  0.2235 -0.3095  0.3261
  995MOL0     C34228  -0.759   3.265   1.374 -0.1377 -0.3889 -0.5827
  995MOL0     C34229  -0.799   3.408   1.408 -0.2853 -0.4007 -0.1473
  995MOL0     C34230  -0.671   3.501   1.402  1.0971 -0.0852  0.2024
  995MOL0     C34231  -0.716   3.635   1.446  0.1963 -0.2377 -0.6345
  995MOL0     C34232  -0.604   3.737   1.437 -0.3434 -0.1475  0.0728
  995MOL0     C34233  -0.637   3.871   1.495 -0.2563 -0.5971  0.3758
  995MOL0     C34234  -0.512   3.948   1.514 -0.5254 -0.3635  0.3747
  995MOL0    Cl34235  -0.563   4.109   1.581 -0.1103 -0.3006  0.4643
  995MOL0     C34236  -1.044   3.007   1.612  0.4623 -0.0147 -0.1286
  995MOL0     C34237  -1.159   2.926   1.636 -0.6005  0.0430  0.4096
  995MOL0     O34238  -1.429   2.777   1.363  0.0257 -0.7279 -0.4665
  995MOL0     C34239  -1.543   2.541   1.422 -0.4150  0.1813 -0.0680
  995MOL0     C34240  -1.610   2.426   1.455 -0.9165  0.4382  0.4779
  995MOL0     N34241  -1.382   1.878   1.699  1.5166 -0.4390  0.5822
  995MOL0     N34242  -1.273   1.818   1.721 -0.5321  1.4919  0.3004
  995MOL0     C34243  -0.277   1.870   1.529  0.8697 -0.4121 -0.3407
  995MOL0     C34244  -0.147   1.819   1.542  0.7357 -0.1699  0.4372
  995MOL0     C34245   0.250   1.607   1.544  0.8790 -0.6637  0.3750
  995MOL0     C34246   0.301   1.565   1.422  1.0502 -0.0683 -0.9844
  995MOL0     C34247   0.423   1.493   1.420 -0.7552 -0.3850 -0.1440
  995MOL0     C34248   0.497   1.453   1.529 -0.0180 -0.2575  0.3392
  995MOL0     O34249   0.601   1.369   1.509  0.3407 -0.6553 -0.8592
  995MOL0     C34250   0.725   1.387   1.582 -0.0627 -0.7244 -0.7983
  995MOL0     C34251   0.789   1.519   1.569  0.0251 -0.4004  0.1468
  995MOL0     C34252   0.830   1.546   1.429 -0.0075 -0.1976  0.3558
  995MOL0     C34253   0.851   1.698   1.407  0.7833  0.4395 -0.2879
  995MOL0     C34254   0.720   1.764   1.396 -0.4731  0.0302  0.5139
  995MOL0     C34255   0.609   1.805   1.371  0.2451  0.0313 -0.5104
  995MOL0     C34256   0.444   1.503   1.653  0.3996  0.7778  0.3302
  995MOL0     C34257   0.326   1.584   1.658  0.0517 -0.8056  1.1059
  995MOL0     H34258  -0.102   1.695   1.237  0.1271 -0.0880  0.7588
  995MOL0     H34259  -0.333   1.770   1.204  1.4469  2.2227 -1.0787
  995MOL0     H34260  -0.666   1.827   1.389 -1.4638 -1.1632 -0.7854
  995MOL0     H34261  -0.572   1.762   1.267 -1.3209 -4.6925  0.4880
  995MOL0     H34262  -0.480   1.595   1.406  0.8361  3.0655 -1.6791
  995MOL0     H34263  -0.502   1.690   1.555  1.9528  3.3065 -1.4927
  995MOL0     H34264  -0.693   1.513   1.395  0.9632  2.2260 -1.0826
  995MOL0     H34265  -0.640   1.492   1.561  1.0109  0.8601  0.3894
  995MOL0     H34266  -0.726   1.727   1.619 -1.6832  2.0812 -1.4086
  995MOL0     H34267  -0.833   1.717   1.496 -0.3316  2.0143  1.2979
  995MOL0     H34268  -0.907   1.479   1.608 -0.0038  1.0926 -0.1310
  995MOL0     H34269  -0.824   1.549   1.744  1.7631 -3.4037 -1.2347
  995MOL0     H34270  -1.053   1.691   1.581 -0.9855  0.4570  0.5964
  995MOL0     H34271  -1.065   1.601   1.738  1.5825  0.4318  2.9001
  995MOL0     H34272  -0.870   1.746   1.796 -1.2618 -1.1674 -0.2904
  995MOL0     H34273  -0.922   1.869   1.670 -0.9174  1.9269  1.2153
  995MOL0     H34274  -0.989   1.954   1.871  2.6480  0.0765 -2.8012
  995MOL0     H34275  -1.060   1.810   1.932  1.3349  0.8659  0.3856
  995MOL0     H34276  -1.193   2.101   1.861  4.5718 -2.4661  2.3077
  995MOL0     H34277  -1.426   2.185   1.848  0.7961  0.0259 -0.5346
  995MOL0     H34278  -1.447   2.176   1.670 -0.9105 -1.7353 -1.3807
  995MOL0     H34279  -1.590   2.013   1.893 -0.9714  0.5316  0.2165
  995MOL0     H34280  -1.645   2.030   1.727  0.4136 -4.0734  2.1240
  995MOL0     H34281  -1.629   2.295   1.863 -0.7033 -0.1611  0.4263
  995MOL0     H34282  -1.735   2.192   1.940  0.8278  4.5231  0.9852
  995MOL0     H34283  -1.841   2.339   1.758 -1.3080 -1.0099  1.6579
  995MOL0     H34284  -1.858   2.166   1.729 -4.8466  2.8043  2.2862
  995MOL0     H34285  -1.679   2.467   1.779  1.2789 -2.2920 -0.4348
  995MOL0     H34286  -1.588   2.816   1.741 -0.1789  0.6965 -0.1943
  995MOL0     H34287  -1.616   2.677   1.853 -4.5277 -0.6351 -3.9948
  995MOL0     H34288  -1.453   2.722   1.810 -1.2402  0.8357  3.8212
  995MOL0     H34289  -1.349   3.017   1.365 -0.8014 -0.8534  0.4222
  995MOL0     H34290  -1.154   3.140   1.309 -0.1514 -2.7491 -2.0596
  995MOL0     H34291  -0.857   3.105   1.291  2.5687  0.5798 -0.0133
  995MOL0     H34292  -0.942   3.260   1.277  2.6339  1.8593  0.2625
  995MOL0     H34293  -0.710   3.227   1.464  0.9254  1.0166 -0.5312
  995MOL0     H34294  -0.687   3.270   1.291 -1.1688  1.9985 -1.4134
  995MOL0     H34295  -0.829   3.410   1.513 -1.2023  0.8185 -0.4104
  995MOL0     H34296  -0.883   3.445   1.349 -1.0096  1.6214  1.9752
  995MOL0     H34297  -0.596   3.469   1.475  1.4593  2.0701  0.8324
  995MOL0     H34298  -0.626   3.508   1.303  3.1993 -0.3889  1.0872
  995MOL0     H34299  -0.748   3.633   1.551 -2.8667  2.9520 -1.3126
  995MOL0     H34300  -0.788   3.670   1.372  0.6749  2.6344  0.1184
  995MOL0     H34301  -0.518   3.698   1.492  0.4588  1.1162 -0.2591
  995MOL0     H34302  -0.559   3.748   1.338  2.8874  2.9379  1.6598
  995MOL0     H34303  -0.686   3.859   1.592  0.9042  1.6470  1.3274
  995MOL0     H34304  -0.700   3.924   1.423 -1.3191 -0.8207  1.1154
  995MOL0     H34305  -0.472   3.966   1.413 -2.3474 -0.4117 -0.4010
  995MOL0     H34306  -0.436   3.889   1.564 -0.5968 -0.8816 -0.1221
  995MOL0     H34307  -0.949   3.008   1.665  3.2919  2.6023 -4.5377
  995MOL0     H34308  -1.167   2.867   1.726  1.0956  0.6904  1.0209
  995MOL0     H34309  -1.508   2.564   1.322  1.6095  0.3136  0.6367
  995MOL0     H34310  -1.634   2.345   1.387 -2.1844 -1.0309  2.5437
  995MOL0     H34311  -0.320   1.908   1.621  1.3912  0.8574 -0.6048
  995MOL0     H34312  -0.099   1.853   1.634  0.1103 -1.3794  1.2348
  995MOL0     H34313   0.254   1.589   1.327 -1.3873  0.0199  0.1721
  995MOL0     H34314   0.449   1.458   1.320 -0.9035  0.0968 -0.3544
  995MOL0     H34315   0.714   1.362   1.689  0.9844 -0.5582 -0.6407
  995MOL0     H34316   0.799   1.318   1.540  0.1786 -0.7369 -0.3664
  995MOL0     H34317   0.875   1.524   1.636  0.7665  0.9427 -0.8739
  995MOL0     H34318   0.712   1.587   1.607 -0.8152 -0.0413 -2.0104
  995MOL0     H34319   0.769   1.497   1.352  0.6119 -2.0675  0.9926
  995MOL0     H34320   0.926   1.494   1.426  3.2542  5.0006  2.6176
  995MOL0     H34321   0.904   1.721   1.314  1.3106  0.1245 -0.0670
  995MOL0     H34322   0.912   1.750   1.481 -2.1816  3.0330  0.5750
  995MOL0     H34323   0.510   1.839   1.348 -0.2655 -0.1229  1.2848
  995MOL0     H34324   0.492   1.493   1.750  0.3358  1.2583  0.4141
  995MOL0     H34325   0.287   1.618   1.754  0.8863  3.1644  0.2264
  996MOL0     O34326  10.592   3.308   0.563 -0.0085  0.4216  0.2099
  996MOL0     C34327  10.694   3.251   0.531 -1.6235 -0.0505 -0.9895
  996MOL0     O34328  10.702   3.133   0.484  0.6219  0.7322 -0.6895
  996MOL0     C34329  10.581   3.064   0.481  0.1739 -0.1584 -0.3377
  996MOL0     C34330  10.496   3.075   0.369 -0.5168  0.7602  0.5031
  996MOL0     C34331  10.381   2.992   0.355 -0.5445  0.0183 -0.0932
  996MOL0     C34332  10.348   2.907   0.463  0.3169  0.6571 -0.3526
  996MOL0     O34333  10.251   2.804   0.457  0.0980 -0.2331 -0.7297
  996MOL0     C34334  10.127   2.851   0.394  0.2329  0.6133 -0.2685
  996MOL0     C34335  10.005   2.806   0.485  0.1179 -0.1830 -0.8891
  996MOL0     C34336  10.027   2.663   0.553  0.8647 -0.2258 -0.1680
  996MOL0     C34337   9.891   2.612   0.618 -0.3521  0.2601  0.4447
  996MOL0     C34338   9.912   2.493   0.719 -0.3696 -0.6814  0.4527
  996MOL0     C34339   9.987   2.529   0.843 -0.8730  0.2881  0.3646
  996MOL0     C34340   9.916   2.612   0.944  0.0621 -0.3496  0.2553
  996MOL0     C34341  10.013   2.703   1.032 -0.2346  1.3400  0.1714
  996MOL0     N34342  10.034   2.832   0.970  0.3066 -0.4954  1.4312
  996MOL0     C34343  10.149   2.875   0.907  0.2814  0.1708 -0.4405
  996MOL0     C34344  10.125   3.008   0.865  0.7757  0.9835  0.0521
  996MOL0     C34345  10.211   3.111   0.795  0.1430 -0.1795 -0.2340
  996MOL0     C34346  10.306   3.182   0.897 -0.7220  1.4057 -0.1630
  996MOL0     C34347  10.250   3.296   0.977  0.7817  0.4927  0.7794
  996MOL0     C34348  10.267   3.421   0.895 -0.4712  0.8807 -0.5742
  996MOL0     O34349  10.208   3.419   0.766  0.6517  0.5180  0.3168
  996MOL0     C34350  10.270   3.480   0.659  0.5305 -0.3206 -0.9039
  996MOL0     C34351  10.254   3.411   0.543 -0.3135 -0.6835  0.0901
  996MOL0     C34352  10.333   3.441   0.433 -0.0284  0.5869  0.6438
  996MOL0     C34353  10.298   3.361   0.307 -0.1732 -0.1824  0.1399
  996MOL0     C34354  10.439   3.542   0.444 -0.2042  0.4615 -0.7540
  996MOL0     C34355  10.542   3.581   0.352  0.3095  0.3118  0.3783
  996MOL0     O34356  10.648   3.658   0.398 -0.0690 -1.3038  0.7336
  996MOL0     C34357  10.735   3.714   0.307  0.3660 -0.4129  0.5557
  996MOL0     C34358  10.848   3.741   0.374  0.6369 -0.1790  0.3299
  996MOL0     C34359  10.953   3.798   0.310  0.5994 -0.0591 -0.3045
  996MOL0     C34360  10.961   3.812   0.172 -0.0974  0.1048 -0.1656
  996MOL0     O34361  11.074   3.873   0.118  0.4497  0.3528 -0.2263
  996MOL0     C34362  11.086   3.883  -0.019  0.8300  0.2343  0.8957
  996MOL0     C34363  11.228   3.937  -0.060  0.0431 -0.4276 -0.1344
  996MOL0     C34364  11.340   3.863   0.011 -0.8386  0.5574  0.0126
  996MOL0     C34365  11.378   3.931   0.140 -0.6974  0.3261 -0.4330
  996MOL0     C34366  11.484   3.852   0.215  0.8197  0.0762  0.7157
  996MOL0     C34367  11.475   3.692   0.219  0.7381 -0.1491 -0.5144
  996MOL0     C34368  11.598   3.627   0.282  0.2314 -0.0921  0.2999
  996MOL0     C34369  11.601   3.474   0.244  0.6759  1.8762  0.0056
  996MOL0    Cl34370  11.490   3.384   0.348  0.3651 -0.1746  0.1469
  996MOL0     C34371  10.843   3.790   0.099  0.4692  0.0701 -0.0494
  996MOL0     C34372  10.728   3.746   0.172 -0.1289 -0.0459  0.2399
  996MOL0     O34373  10.539   3.527   0.240  0.3739 -0.0719 -0.1457
  996MOL0     C34374  10.447   3.607   0.569  1.0224  0.1126 -0.2438
  996MOL0     C34375  10.362   3.585   0.676  0.2469  0.3233 -0.0605
  996MOL0     N34376   9.996   3.042   0.906 -0.3564 -0.3203  0.4375
  996MOL0     N34377   9.944   2.941   0.973 -0.0129  0.4119  0.2274
  996MOL0     C34378  10.431   2.913   0.581  0.3713  0.5528 -0.1192
  996MOL0     C34379  10.557   2.985   0.590  0.2985  0.0508  0.6310
  996MOL0     C34380  10.824   3.315   0.549 -0.4129  0.1145 -0.2915
  996MOL0     C34381  10.940   3.251   0.512 -1.6266 -0.5425  0.6980
  996MOL0     C34382  11.060   3.326   0.520 -0.0829 -0.1325  0.3180
  996MOL0     C34383  11.063   3.460   0.578  1.0255 -1.4385  0.8035
  996MOL0     O34384  11.184   3.510   0.584  0.1459  0.6486  0.5404
  996MOL0     C34385  11.199   3.643   0.530 -0.6306 -0.2401  0.2080
  996MOL0     C34386  11.341   3.697   0.534 -0.5896  0.2489  0.4048
  996MOL0     C34387  11.387   3.752   0.672 -0.4312 -0.6229 -0.1223
  996MOL0     C34388  11.384   3.651   0.789  0.5149 -1.1333  0.6935
  996MOL0     C34389  11.443   3.707   0.907 -0.7346 -0.7854  0.1590
  996MOL0     C34390  11.492   3.768   1.001  0.0119  0.5036  0.3157
  996MOL0     C34391  10.944   3.522   0.613 -0.7954  0.7850  0.6842
  996MOL0     C34392  10.826   3.448   0.596 -0.2058  1.0054  0.6364
  996MOL0     H34393  10.526   3.129   0.280  0.2176 -0.0519  0.2497
  996MOL0     H34394  10.324   2.982   0.263  0.7989 -3.2778 -0.6855
  996MOL0     H34395  10.114   2.958   0.410 -2.1375  0.2370  0.7102
  996MOL0     H34396  10.120   2.838   0.285  3.3574  1.7301 -0.7093
  996MOL0     H34397  10.000   2.892   0.552  0.7799 -0.0703 -0.9772
  996MOL0     H34398   9.908   2.798   0.436 -0.9593 -0.9535  1.2665
  996MOL0     H34399  10.052   2.591   0.475  1.5888  1.5815 -1.6745
  996MOL0     H34400  10.114   2.665   0.620  0.7733  4.7555  0.1312
  996MOL0     H34401   9.852   2.690   0.684 -0.8254 -0.7722  1.4056
  996MOL0     H34402   9.820   2.570   0.546  0.1626 -0.4039  0.3197
  996MOL0     H34403   9.815   2.460   0.757 -0.7699 -1.6417 -1.3034
  996MOL0     H34404   9.957   2.410   0.663 -0.9831  0.2770 -1.5129
  996MOL0     H34405  10.020   2.433   0.886 -1.8321 -0.3630 -0.3210
  996MOL0     H34406  10.077   2.581   0.807 -1.5710  1.3609  0.1403
  996MOL0     H34407   9.835   2.670   0.899 -2.5907 -2.4498  1.9984
  996MOL0     H34408   9.869   2.535   1.005  0.4577 -3.2397 -2.8212
  996MOL0     H34409  10.109   2.653   1.047 -1.3843 -1.9953 -2.3436
  996MOL0     H34410   9.966   2.730   1.127 -2.0957  0.6955 -0.5208
  996MOL0     H34411  10.242   2.823   0.888 -0.0127 -0.3117 -0.5528
  996MOL0     H34412  10.271   3.051   0.726  0.5924 -2.0921  1.7267
  996MOL0     H34413  10.150   3.183   0.738  0.4580  2.4237  2.4628
  996MOL0     H34414  10.405   3.197   0.852 -0.7595  1.4200 -0.2425
  996MOL0     H34415  10.316   3.110   0.978 -0.4231  0.2760 -1.1651
  996MOL0     H34416  10.313   3.297   1.066 -0.9641 -1.3720  2.1362
  996MOL0     H34417  10.144   3.281   1.001 -0.2152  1.8827 -2.2637
  996MOL0     H34418  10.376   3.429   0.887 -0.2441 -0.1026  0.9671
  996MOL0     H34419  10.240   3.510   0.952 -0.3578  0.2554  0.4869
  996MOL0     H34420  10.184   3.329   0.544 -0.7790 -0.2879  0.5635
  996MOL0     H34421  10.389   3.304   0.287  0.4544  0.5261  0.9163
  996MOL0     H34422  10.209   3.299   0.321 -0.7986  0.4339 -0.9704
  996MOL0     H34423  10.286   3.433   0.226 -1.4360 -2.0706 -1.4352
  996MOL0     H34424  10.864   3.694   0.471  2.4797 -0.8691 -0.2646
  996MOL0     H34425  11.047   3.816   0.362 -1.3758 -0.8442  3.9232
  996MOL0     H34426  11.090   3.786  -0.069  0.4200  1.0435 -0.7647
  996MOL0     H34427  11.003   3.938  -0.065  0.6124 -2.0339 -1.7359
  996MOL0     H34428  11.226   3.926  -0.169  0.5131  3.6860 -0.7070
  996MOL0     H34429  11.241   4.045  -0.049 -3.5890  0.4750 -2.6306
  996MOL0     H34430  11.428   3.855  -0.053 -1.5812 -1.5391 -0.8270
  996MOL0     H34431  11.313   3.760   0.035 -2.8175  1.0598  0.1322
  996MOL0     H34432  11.412   4.033   0.120 -0.5373  0.8996  2.4130
  996MOL0     H34433  11.295   3.930   0.210  1.8325 -0.1604  2.7886
  996MOL0     H34434  11.479   3.892   0.317  2.2726  3.3929 -0.3989
  996MOL0     H34435  11.580   3.884   0.174 -0.1148  0.1208 -1.5799
  996MOL0     H34436  11.385   3.663   0.274  1.4093 -0.1733  0.6074
  996MOL0     H34437  11.466   3.657   0.116 -0.9145  1.4639 -0.9660
  996MOL0     H34438  11.607   3.662   0.385 -1.4926  0.5343  0.2629
  996MOL0     H34439  11.685   3.660   0.223  0.6796 -1.3984  0.1965
  996MOL0     H34440  11.705   3.450   0.271  0.6955  2.4889  0.4913
  996MOL0     H34441  11.588   3.441   0.141  1.4598 -3.0895  1.2176
  996MOL0     H34442  10.828   3.801  -0.008  0.6123  1.2796  0.0297
  996MOL0     H34443  10.642   3.730   0.107  1.3876  0.4055 -1.9911
  996MOL0     H34444  10.518   3.687   0.587 -0.6377  1.5619  0.1896
  996MOL0     H34445  10.361   3.641   0.769 -5.7311  0.8712 -0.1048
  996MOL0     H34446  10.403   2.854   0.667 -0.3565 -0.1078 -0.8021
  996MOL0     H34447  10.625   2.998   0.673  0.2765 -3.1201  1.2852
  996MOL0     H34448  10.951   3.148   0.479  2.6093 -0.9012  2.5985
  996MOL0     H34449  11.156   3.288   0.487  0.1295  0.4980  0.1921
  996MOL0     H34450  11.169   3.641   0.424  0.5749 -4.4362 -0.2270
  996MOL0     H34451  11.130   3.712   0.579 -0.4826  0.7000 -0.8442
  996MOL0     H34452  11.346   3.786   0.470  2.8852 -0.3625 -0.3661
  996MOL0     H34453  11.408   3.622   0.493 -2.0882  1.2431 -4.5793
  996MOL0     H34454  11.326   3.838   0.698  3.5631  1.7908  2.4087
  996MOL0     H34455  11.492   3.782   0.659  0.0925 -2.0171  0.6719
  996MOL0     H34456  11.440   3.560   0.765 -1.5458 -2.1332 -0.5884
  996MOL0     H34457  11.277   3.629   0.796  0.2527  0.1153  0.7226
  996MOL0     H34458  11.532   3.797   1.096 -0.9789 -0.2104  0.9768
  996MOL0     H34459  10.947   3.614   0.671  0.1461  1.3974 -0.3029
  996MOL0     H34460  10.734   3.491   0.635 -2.4275 -1.9217 -1.0018
  997MOL0     O34461   9.194   9.165   2.027 -0.5449 -0.1999 -0.5610
  997MOL0     C34462   9.261   9.059   2.018 -0.1225 -0.7473  0.1516
  997MOL0     O34463   9.370   9.026   2.103  0.4879  0.3758  0.3541
  997MOL0     C34464   9.428   9.110   2.197  0.5953  0.4801  0.6790
  997MOL0     C34465   9.472   9.239   2.156  0.3755  0.2515 -0.0227
  997MOL0     C34466   9.528   9.313   2.259  0.0496 -0.5913  0.7347
  997MOL0     C34467   9.559   9.270   2.385 -0.1202 -0.3398 -1.0245
  997MOL0     O34468   9.619   9.358   2.469  0.4851 -0.7424 -0.3800
  997MOL0     C34469   9.684   9.305   2.584 -0.4678  0.5895 -0.4898
  997MOL0     C34470   9.810   9.382   2.627  0.8732  1.0355 -0.3117
  997MOL0     C34471   9.772   9.502   2.705  0.0285 -0.3705 -0.7026
  997MOL0     C34472   9.753   9.488   2.849  0.6339 -0.6384 -0.2962
  997MOL0     C34473   9.717   9.621   2.911  0.8550  0.0763 -0.8681
  997MOL0     C34474   9.691   9.615   3.066 -0.6434  0.8669  0.7127
  997MOL0     C34475   9.606   9.738   3.116  0.2134 -0.2930  0.6042
  997MOL0     C34476   9.473   9.764   3.049 -0.1668 -0.7963  0.3491
  997MOL0     N34477   9.399   9.879   3.102 -0.3896  0.6631 -0.2845
  997MOL0     C34478   9.378   9.893   3.230  0.5192  0.1481  0.1688
  997MOL0     C34479   9.285   9.988   3.234 -0.7406 -0.0119 -0.4026
  997MOL0     C34480   9.216  10.033   3.359  0.2617 -0.3851  0.0954
  997MOL0     C34481   9.304  10.089   3.468 -0.3711 -0.8659  0.3720
  997MOL0     C34482   9.218  10.153   3.583  0.1351  0.6204  0.4253
  997MOL0     C34483   9.308  10.167   3.706 -0.3696  0.3692  0.3461
  997MOL0     O34484   9.398  10.273   3.684 -0.4646 -0.0156 -0.0355
  997MOL0     C34485   9.445  10.365   3.785  0.8756  1.6085  0.9878
  997MOL0     C34486   9.397  10.371   3.908 -0.2416  0.5955  0.6683
  997MOL0     C34487   9.461  10.458   3.998  0.7779 -0.6029  1.0761
  997MOL0     C34488   9.422  10.445   4.150  0.3620  0.2935 -0.0235
  997MOL0     C34489   9.550  10.565   3.947 -0.4839 -0.7149 -0.1546
  997MOL0     C34490   9.597  10.670   4.042 -1.1168  0.1242  1.2758
  997MOL0     O34491   9.529  10.701   4.160 -0.3891 -0.5767 -0.0757
  997MOL0     C34492   9.554  10.831   4.206  1.1819 -1.1631  0.7120
  997MOL0     C34493   9.496  10.943   4.151  0.4796 -0.1088  0.7954
  997MOL0     C34494   9.522  11.070   4.195 -0.7034  0.4645  0.1187
  997MOL0     C34495   9.610  11.084   4.311  1.3698 -1.3877  1.5291
  997MOL0     O34496   9.640  11.194   4.377  0.0758 -1.1649  0.0750
  997MOL0     C34497   9.638  11.326   4.317 -0.0451 -0.2220 -0.9000
  997MOL0     C34498   9.750  11.352   4.209 -0.5953  0.3077 -0.1100
  997MOL0     C34499   9.707  11.393   4.070 -1.2014 -0.2962 -0.0963
  997MOL0     C34500   9.803  11.352   3.954 -0.3188  1.1548  0.4069
  997MOL0     C34501   9.810  11.203   3.924 -0.5112  0.0627  0.3294
  997MOL0     C34502   9.675  11.138   3.863 -0.3036 -0.5356  0.2338
  997MOL0     C34503   9.680  10.995   3.810 -0.6764  0.4607  0.3168
  997MOL0     C34504   9.551  10.947   3.737  0.3574 -0.0061 -0.3799
  997MOL0    Cl34505   9.508  11.043   3.590 -0.0757  0.0079 -0.1747
  997MOL0     C34506   9.649  10.968   4.376 -0.7415  0.1179  0.2158
  997MOL0     C34507   9.622  10.849   4.322  0.3834  0.8607 -1.2416
  997MOL0     O34508   9.712  10.700   4.025 -0.2960  0.3832 -0.7804
  997MOL0     C34509   9.597  10.552   3.812  0.3079 -0.2064  0.5641
  997MOL0     C34510   9.542  10.444   3.740  0.0910 -1.2631 -0.1845
  997MOL0     N34511   9.265  10.036   3.108 -0.2322 -0.1389  0.0705
  997MOL0     N34512   9.314   9.955   3.025 -0.2446  0.1384  0.7075
  997MOL0     C34513   9.499   9.146   2.429 -0.5656 -0.6261 -0.3817
  997MOL0     C34514   9.436   9.069   2.330 -1.2378 -0.2240 -0.6931
  997MOL0     C34515   9.196   8.970   1.918  0.4178  0.1478  0.0193
  997MOL0     C34516   9.087   9.004   1.826  0.0421  0.4042  0.9320
  997MOL0     C34517   9.039   8.895   1.744  0.7212 -0.2901  0.3603
  997MOL0     C34518   9.096   8.767   1.747 -0.2367 -0.7952 -0.2238
  997MOL0     O34519   9.070   8.672   1.648  0.5829 -0.2598 -0.0810
  997MOL0     C34520   8.952   8.673   1.563 -0.2338  0.5517 -0.2017
  997MOL0     C34521   8.938   8.533   1.508  0.0646  0.5351 -0.3160
  997MOL0     C34522   9.062   8.500   1.410  0.8644 -0.5852 -0.2995
  997MOL0     C34523   9.025   8.510   1.263  0.5061  0.6338  0.3973
  997MOL0     C34524   8.971   8.379   1.217 -0.2494  0.3522 -0.1127
  997MOL0     C34525   8.941   8.265   1.188  0.0893 -0.0119  0.2750
  997MOL0     C34526   9.195   8.738   1.845 -0.2507 -0.7360  0.0799
  997MOL0     C34527   9.243   8.842   1.926 -0.0181  0.4736  0.0265
  997MOL0     H34528   9.469   9.279   2.054 -2.6449 -0.6239 -0.3606
  997MOL0     H34529   9.585   9.396   2.218 -6.4297  4.5480  0.5707
  997MOL0     H34530   9.623   9.283   2.673  0.6487 -3.0638 -0.4426
  997MOL0     H34531   9.706   9.200   2.562 -0.0735 -1.0977  5.7805
  997MOL0     H34532   9.873   9.322   2.693 -0.6795  0.4781  0.7036
  997MOL0     H34533   9.882   9.401   2.547  3.3180 -0.6446  1.3360
  997MOL0     H34534   9.847   9.580   2.690 -1.9457  1.3069 -2.7704
  997MOL0     H34535   9.692   9.563   2.660  0.6576 -0.2626 -1.7092
  997MOL0     H34536   9.664   9.427   2.869  0.4539  0.1257  1.4080
  997MOL0     H34537   9.832   9.445   2.910 -0.0016  1.5576  2.2746
  997MOL0     H34538   9.794   9.693   2.883  1.1102 -0.0848 -0.5930
  997MOL0     H34539   9.618   9.633   2.866  0.5146  1.9367  0.2610
  997MOL0     H34540   9.632   9.526   3.089  1.7388 -1.8135 -2.6893
  997MOL0     H34541   9.785   9.610   3.121 -0.0598  0.6188 -0.2904
  997MOL0     H34542   9.570   9.708   3.215 -0.5599 -0.0748  0.3930
  997MOL0     H34543   9.662   9.831   3.130 -2.3637  1.1205  2.3834
  997MOL0     H34544   9.402   9.681   3.044 -0.9548 -0.0614 -3.1286
  997MOL0     H34545   9.492   9.780   2.943 -0.6720 -3.2095 -0.1756
  997MOL0     H34546   9.413   9.837   3.316 -1.7195  0.6282  1.4637
  997MOL0     H34547   9.147  10.114   3.336  0.6910 -0.0210  0.0778
  997MOL0     H34548   9.164   9.955   3.416  0.2612  0.9807  2.0894
  997MOL0     H34549   9.366  10.168   3.424 -1.9617  0.6702  0.7377
  997MOL0     H34550   9.376  10.022   3.515  0.4105 -0.2887  0.0182
  997MOL0     H34551   9.133  10.090   3.612 -2.1932  3.2040 -0.3892
  997MOL0     H34552   9.176  10.250   3.556 -2.7731 -0.4880  0.6947
  997MOL0     H34553   9.363  10.074   3.723 -1.1674 -0.8269 -2.8494
  997MOL0     H34554   9.244  10.186   3.793 -1.0193  0.0792 -0.0508
  997MOL0     H34555   9.308  10.316   3.940 -1.0182  1.1050 -0.5458
  997MOL0     H34556   9.361  10.356   4.168  0.8934  0.1928  1.4003
  997MOL0     H34557   9.516  10.438   4.205  0.1410 -2.6399  0.1668
  997MOL0     H34558   9.368  10.529   4.192 -0.6197 -0.5037  0.3312
  997MOL0     H34559   9.432  10.937   4.063  2.0860  0.9341 -0.5113
  997MOL0     H34560   9.476  11.161   4.158  0.7332  1.0834 -0.2531
  997MOL0     H34561   9.537  11.343   4.280  0.8291  0.6661 -3.0476
  997MOL0     H34562   9.656  11.403   4.393  2.2750 -0.5822 -0.9909
  997MOL0     H34563   9.808  11.442   4.232  2.1846 -0.3006 -3.8754
  997MOL0     H34564   9.824  11.272   4.200  0.0357  0.8610  0.0114
  997MOL0     H34565   9.698  11.502   4.063  1.0555 -0.0537  0.3135
  997MOL0     H34566   9.604  11.359   4.052 -0.2559 -2.2722 -2.3176
  997MOL0     H34567   9.783  11.406   3.861  1.3370 -0.1259 -0.7509
  997MOL0     H34568   9.906  11.373   3.984  1.2376 -2.6417 -1.5777
  997MOL0     H34569   9.832  11.145   4.014 -2.6505 -0.8304  0.3457
  997MOL0     H34570   9.883  11.168   3.851 -1.7850 -0.6202 -0.6524
  997MOL0     H34571   9.588  11.156   3.928 -0.2629  1.9175 -0.3033
  997MOL0     H34572   9.651  11.201   3.777 -2.3235 -1.8787 -0.2777
  997MOL0     H34573   9.688  10.930   3.897  3.0043  3.3329  2.4607
  997MOL0     H34574   9.761  10.984   3.737  0.0631 -2.6582  1.4581
  997MOL0     H34575   9.466  10.967   3.803 -1.1120 -3.9151 -0.8197
  997MOL0     H34576   9.562  10.839   3.730  0.5539  0.1041 -2.3693
  997MOL0     H34577   9.713  10.965   4.463 -0.1389 -2.8026 -0.2353
  997MOL0     H34578   9.655  10.763   4.378 -1.4638  0.0482 -1.3169
  997MOL0     H34579   9.666  10.621   3.766 -1.6074  1.9598  0.7856
  997MOL0     H34580   9.564  10.435   3.634 -4.2120  0.8565 -1.4925
  997MOL0     H34581   9.487   9.112   2.531 -1.9969 -0.9774 -0.6472
  997MOL0     H34582   9.388   8.976   2.361  0.0635 -0.1670  1.6614
  997MOL0     H34583   9.056   9.106   1.810  4.5539  1.8192  0.0976
  997MOL0     H34584   8.969   8.918   1.663 -1.1286  4.3506  2.9010
  997MOL0     H34585   8.868   8.713   1.620 -0.3298 -0.9215  0.7447
  997MOL0     H34586   8.983   8.742   1.485  2.5186  2.3812  2.2972
  997MOL0     H34587   8.839   8.509   1.468  0.3732 -0.5527 -0.4660
  997MOL0     H34588   8.957   8.458   1.585  0.3472  0.4054 -0.5087
  997MOL0     H34589   9.099   8.401   1.438  0.6895 -0.5117  0.1865
  997MOL0     H34590   9.137   8.577   1.430  1.0464 -0.1273 -2.4193
  997MOL0     H34591   9.116   8.521   1.205  1.3205 -0.7324  1.3584
  997MOL0     H34592   8.952   8.590   1.247 -1.7518 -1.7956 -2.8632
  997MOL0     H34593   8.930   8.162   1.159  1.1025  0.7614 -3.2842
  997MOL0     H34594   9.236   8.638   1.851 -0.0758 -0.5811  4.3565
  997MOL0     H34595   9.315   8.820   2.004  1.3379 -0.3320 -1.3988
  998MOL0     O34596   7.278   7.040  10.745  0.7953 -0.8945  0.9713
  998MOL0     C34597   7.271   7.004  10.857  0.3829 -0.3556 -0.1468
  998MOL0     O34598   7.349   7.043  10.967 -0.3599  0.1081  0.1963
  998MOL0     C34599   7.414   7.158  10.975 -1.5980  0.2412 -0.1010
  998MOL0     C34600   7.513   7.178  11.086  0.0715  0.2012  0.2210
  998MOL0     C34601   7.598   7.289  11.098  0.2927 -0.3618  0.0896
  998MOL0     C34602   7.568   7.399  11.022 -0.2659 -0.6050 -0.9021
  998MOL0     O34603   7.644   7.511  11.055  0.4697 -0.3098  0.1285
  998MOL0     C34604   7.584   7.581  11.173  0.2050  0.6786  0.1171
  998MOL0     C34605   7.610   7.724  11.143  0.2296 -1.4567 -0.0816
  998MOL0     C34606   7.752   7.778  11.136  0.4544 -0.6443 -0.5464
  998MOL0     C34607   7.791   7.912  11.213 -0.2342 -0.4155  0.1087
  998MOL0     C34608   7.945   7.938  11.205  0.3354  0.1960  0.2806
  998MOL0     C34609   7.982   7.997  11.064  0.4920  0.4383 -0.5927
  998MOL0     C34610   8.134   8.033  11.066 -0.3367  0.3292 -1.1781
  998MOL0     C34611   8.181   8.085  10.926 -0.8934  0.3076  0.4588
  998MOL0     N34612   8.190   8.232  10.917  0.3098 -0.1374 -0.3428
  998MOL0     C34613   8.103   8.330  10.858 -0.9523 -0.3364  0.8715
  998MOL0     C34614   8.158   8.450  10.891 -0.6188 -0.8134 -0.3519
  998MOL0     C34615   8.099   8.580  10.876 -1.0821 -0.5085 -0.3845
  998MOL0     C34616   8.137   8.670  10.987  0.1323  0.4919 -1.0863
  998MOL0     C34617   8.058   8.799  10.968  0.4493 -0.2616 -0.2003
  998MOL0     C34618   8.117   8.905  11.055  0.1055  0.1918  0.0152
  998MOL0     O34619   8.098   8.876  11.188  0.3692  0.3999 -0.1535
  998MOL0     C34620   7.998   8.937  11.253  0.2740 -0.1112 -1.0650
  998MOL0     C34621   8.021   8.954  11.391 -0.3857  0.7953 -0.3697
  998MOL0     C34622   7.905   8.980  11.476 -0.7805 -0.7075  0.3783
  998MOL0     C34623   7.921   8.961  11.627 -0.7631 -0.5405 -0.0429
  998MOL0     C34624   7.785   9.011  11.410  0.2314  0.1151  0.2863
  998MOL0     C34625   7.658   9.044  11.480  0.4940  1.1225  0.2812
  998MOL0     O34626   7.657   9.008  11.612 -0.3140  0.1082  0.6272
  998MOL0     C34627   7.550   9.038  11.688  0.3151 -0.6072  0.1536
  998MOL0     C34628   7.442   9.129  11.663  0.5983  0.2803 -0.9208
  998MOL0     C34629   7.332   9.129  11.755  0.4068 -0.1542  0.0806
  998MOL0     C34630   7.317   9.048  11.869 -0.6980 -0.3095  0.3242
  998MOL0     O34631   7.207   9.069  11.945 -0.0175 -0.1328  0.7644
  998MOL0     C34632   7.200   9.002  12.068  0.3917 -0.2372 -0.6165
  998MOL0     C34633   7.068   9.008  12.151  0.0152  0.6034  0.1417
  998MOL0     C34634   6.954   8.973  12.056 -0.2323  0.1984 -0.0601
  998MOL0     C34635   6.912   8.826  12.068 -0.7744  0.6282 -0.3890
  998MOL0     C34636   6.774   8.789  11.998  0.0577 -0.6373  0.3484
  998MOL0     C34637   6.802   8.819  11.845 -0.0207 -0.0955 -0.3410
  998MOL0     C34638   6.735   8.720  11.760 -0.1227  0.2045  0.0976
  998MOL0     C34639   6.584   8.730  11.746  0.2086 -0.2108  0.6152
  998MOL0    Cl34640   6.561   8.600  11.627  0.0379 -0.3372  0.3715
  998MOL0     C34641   7.434   8.972  11.897 -0.2164  0.3047  0.5722
  998MOL0     C34642   7.552   8.976  11.816  0.0680  0.1908 -0.2217
  998MOL0     O34643   7.571   9.104  11.418  0.2292  1.0344  0.5955
  998MOL0     C34644   7.769   9.005  11.271  0.4120  0.3812  0.6051
  998MOL0     C34645   7.873   8.955  11.195 -1.1346 -0.2487  0.1894
  998MOL0     N34646   8.266   8.428  10.981  0.3195  0.4396 -0.8121
  998MOL0     N34647   8.281   8.300  10.994 -0.4587  0.0955  0.5255
  998MOL0     C34648   7.477   7.392  10.915 -0.0994  0.7459  0.5621
  998MOL0     C34649   7.406   7.269  10.888 -0.1543  0.6520  0.7977
  998MOL0     C34650   7.190   6.886  10.876 -0.8225 -0.3620 -0.1307
  998MOL0     C34651   7.094   6.846  10.788 -0.3559 -1.0651 -0.5430
  998MOL0     C34652   7.024   6.725  10.814  0.3770  0.5437 -0.0998
  998MOL0     C34653   7.042   6.644  10.928  0.1438  0.0697  0.7721
  998MOL0     O34654   6.982   6.521  10.938  0.0781 -0.2079 -0.1924
  998MOL0     C34655   6.881   6.517  11.037 -0.6790 -0.6622 -0.6250
  998MOL0     C34656   6.746   6.554  10.980  1.0284 -0.7017 -0.0874
  998MOL0     C34657   6.674   6.454  10.891  0.4484 -0.0537 -0.6383
  998MOL0     C34658   6.747   6.399  10.770 -0.9127 -0.7313 -0.9099
  998MOL0     C34659   6.655   6.333  10.680  0.6545 -0.2629 -0.0642
  998MOL0     C34660   6.578   6.251  10.638 -0.0753  0.5423  0.1351
  998MOL0     C34661   7.143   6.681  11.010 -0.9145  0.4022  0.0581
  998MOL0     C34662   7.213   6.803  10.992  0.6386  0.1895  0.4113
  998MOL0     H34663   7.520   7.094  11.155  4.5263  0.7944  0.7955
  998MOL0     H34664   7.671   7.292  11.179  1.6378 -0.0257 -1.1070
  998MOL0     H34665   7.482   7.556  11.202  1.4321 -2.9610  1.9320
  998MOL0     H34666   7.651   7.565  11.258  0.2468  2.9460  0.5529
  998MOL0     H34667   7.555   7.745  11.051 -1.0033  0.6737  1.0773
  998MOL0     H34668   7.564   7.781  11.223  2.8606  1.9329 -0.7437
  998MOL0     H34669   7.826   7.704  11.170  0.7705 -0.4365 -0.7732
  998MOL0     H34670   7.769   7.799  11.030  4.5870 -2.6664 -0.5102
  998MOL0     H34671   7.736   7.998  11.173 -1.4218 -1.6083 -0.9027
  998MOL0     H34672   7.763   7.906  11.318 -0.4749  0.7941  0.1328
  998MOL0     H34673   7.970   8.018  11.275  3.1702  2.0044 -2.5309
  998MOL0     H34674   8.004   7.849  11.229  1.5609  0.7698 -0.5455
  998MOL0     H34675   7.951   7.933  10.981 -1.6720  1.5010 -0.6626
  998MOL0     H34676   7.932   8.093  11.048  1.1288  1.0440  0.9024
  998MOL0     H34677   8.166   8.103  11.144  1.3515  2.0037 -3.2265
  998MOL0     H34678   8.192   7.944  11.092  1.1494  1.4866 -0.3289
  998MOL0     H34679   8.115   8.051  10.846 -2.0220 -1.6846  2.1692
  998MOL0     H34680   8.281   8.054  10.894 -0.4011  2.4075 -0.2493
  998MOL0     H34681   8.007   8.316  10.811 -0.6659  2.5419 -0.7514
  998MOL0     H34682   8.122   8.630  10.782  1.5400 -0.0133  0.4419
  998MOL0     H34683   7.992   8.559  10.889 -1.3272 -1.5846 -3.3511
  998MOL0     H34684   8.243   8.695  10.991 -0.4921  3.6816 -1.6748
  998MOL0     H34685   8.102   8.623  11.080 -1.0403  0.5330 -1.4855
  998MOL0     H34686   7.955   8.780  10.999  1.2689 -1.5189  1.9526
  998MOL0     H34687   8.058   8.832  10.863  1.4732  4.1986  0.9926
  998MOL0     H34688   8.079   8.998  11.012  1.9157 -0.1374 -2.5084
  998MOL0     H34689   8.225   8.915  11.041 -0.2396  1.0910 -2.4027
  998MOL0     H34690   8.118   8.924  11.429 -1.0233 -2.2238 -0.8635
  998MOL0     H34691   8.020   8.926  11.656  1.0471  1.6094 -3.0533
  998MOL0     H34692   7.903   9.053  11.683  0.7559  0.2559 -0.7977
  998MOL0     H34693   7.849   8.888  11.667 -1.5374  0.2619  0.0547
  998MOL0     H34694   7.441   9.204  11.584 -0.5134  0.4560 -0.7474
  998MOL0     H34695   7.250   9.198  11.736  2.6582  2.7976  0.2180
  998MOL0     H34696   7.222   8.896  12.054  2.5878  0.4719 -3.4970
  998MOL0     H34697   7.280   9.040  12.132 -2.4338  0.8090  2.6042
  998MOL0     H34698   7.070   8.938  12.235 -0.3091 -0.2217 -0.5129
  998MOL0     H34699   7.054   9.109  12.190  3.3900  1.1597  0.1404
  998MOL0     H34700   6.981   8.990  11.952  4.1835 -2.9613  0.2927
  998MOL0     H34701   6.871   9.038  12.085 -2.1030 -2.5138  1.1016
  998MOL0     H34702   7.001   8.770  12.037  0.1749  1.9111 -0.0488
  998MOL0     H34703   6.909   8.787  12.170 -0.6579 -1.9506 -1.2988
  998MOL0     H34704   6.689   8.850  12.032  0.0320 -0.2503 -0.3951
  998MOL0     H34705   6.762   8.681  12.000  1.6395 -0.8320  1.3768
  998MOL0     H34706   6.781   8.923  11.818  2.7405  1.6304  3.2581
  998MOL0     H34707   6.907   8.804  11.820 -0.9388 -1.1145 -4.2040
  998MOL0     H34708   6.749   8.617  11.795  0.2975  0.8903  2.1222
  998MOL0     H34709   6.781   8.721  11.661 -0.2596 -4.2313 -0.1998
  998MOL0     H34710   6.538   8.826  11.719  1.4607  1.6876  4.4240
  998MOL0     H34711   6.523   8.700  11.831 -1.7314  0.9351 -0.3079
  998MOL0     H34712   7.434   8.918  11.992 -0.1904  1.8059  1.4448
  998MOL0     H34713   7.638   8.912  11.833  0.5914  1.1133  0.7793
  998MOL0     H34714   7.677   9.025  11.218 -0.1780 -1.3299  0.9074
  998MOL0     H34715   7.855   8.945  11.088 -3.6185  3.9734 -0.0006
  998MOL0     H34716   7.487   7.458  10.829  1.7787 -0.1543  0.0268
  998MOL0     H34717   7.350   7.275  10.796  1.9455 -2.3759 -0.8601
  998MOL0     H34718   7.067   6.907  10.702 -0.1506  0.0317  0.1633
  998MOL0     H34719   6.950   6.698  10.739  0.8826  0.6955 -0.6650
  998MOL0     H34720   6.878   6.426  11.098 -1.2396 -0.0132  0.3512
  998MOL0     H34721   6.910   6.593  11.110  1.2182 -1.1177 -0.8340
  998MOL0     H34722   6.769   6.638  10.915 -0.4281 -0.1461  0.0599
  998MOL0     H34723   6.679   6.589  11.060  0.5655 -2.5562  0.3781
  998MOL0     H34724   6.584   6.502  10.853  1.5763  0.4184 -2.8762
  998MOL0     H34725   6.644   6.366  10.949  0.0080  0.3415 -0.2574
  998MOL0     H34726   6.822   6.326  10.802  3.5651  1.7445 -4.4132
  998MOL0     H34727   6.795   6.483  10.718 -0.2799  0.2491  1.1693
  998MOL0     H34728   6.501   6.194  10.591  1.5701  1.4136 -4.1465
  998MOL0     H34729   7.181   6.611  11.084  1.6945  1.1506 -0.4874
  998MOL0     H34730   7.292   6.826  11.063  1.0728 -1.9706  0.7099
  999MOL0     O34731   6.126  11.036   4.462  0.2261 -0.0447  0.6421
  999MOL0     C34732   6.070  10.964   4.544 -0.3847  0.1620  0.2963
  999MOL0     O34733   5.936  10.915   4.536 -0.4564  0.5022 -0.3959
  999MOL0     C34734   5.869  10.950   4.430  0.5998  0.4176  0.4495
  999MOL0     C34735   5.735  10.982   4.429  0.3563  0.0121  0.0188
  999MOL0     C34736   5.657  11.017   4.313 -0.8622 -0.6457  0.1459
  999MOL0     C34737   5.722  11.016   4.193 -0.3186  0.0085 -0.5827
  999MOL0     O34738   5.656  11.053   4.069  0.4233  0.4892 -0.1930
  999MOL0     C34739   5.645  10.947   3.964 -0.7057  0.4019 -0.4017
  999MOL0     C34740   5.499  10.949   3.930 -0.8606 -0.5904 -0.3730
  999MOL0     C34741   5.465  10.828   3.830 -0.5518 -0.2920 -0.3386
  999MOL0     C34742   5.325  10.835   3.765  0.7277  1.2507 -0.0760
  999MOL0     C34743   5.335  10.738   3.636  1.1340 -0.2919 -0.5151
  999MOL0     C34744   5.202  10.724   3.549 -0.1046  0.5804  0.9128
  999MOL0     C34745   5.089  10.672   3.631  0.2052  0.3594 -0.3576
  999MOL0     C34746   5.109  10.531   3.701 -0.0594 -0.5918  0.1545
  999MOL0     N34747   4.970  10.480   3.740  0.0081  0.2838 -0.4357
  999MOL0     C34748   4.939  10.411   3.854 -0.7447  0.0016  0.3059
  999MOL0     C34749   4.803  10.399   3.859  0.6764 -0.1817  0.0871
  999MOL0     C34750   4.727  10.320   3.965 -0.3021 -0.1961  0.5844
  999MOL0     C34751   4.719  10.375   4.107  0.2650 -0.8586 -0.0135
  999MOL0     C34752   4.602  10.334   4.191  0.1304  0.3269 -0.2962
  999MOL0     C34753   4.602  10.392   4.333 -0.3560  0.5922 -0.2288
  999MOL0     O34754   4.466  10.411   4.394 -0.0567  0.0950  0.1200
  999MOL0     C34755   4.409  10.312   4.474 -0.3374 -0.4348  1.0751
  999MOL0     C34756   4.483  10.225   4.554  0.1748  0.3284  0.6949
  999MOL0     C34757   4.438  10.110   4.619 -0.4501  1.1058 -0.2861
  999MOL0     C34758   4.537  10.030   4.699  0.4381  0.8980 -0.2939
  999MOL0     C34759   4.302  10.077   4.603 -0.5431  0.1274 -0.0517
  999MOL0     C34760   4.244   9.963   4.663  0.2934  0.1875  0.4105
  999MOL0     O34761   4.310   9.849   4.657  0.0617  0.2616 -0.0930
  999MOL0     C34762   4.260   9.724   4.707 -0.8727  0.0867 -0.2432
  999MOL0     C34763   4.349   9.635   4.759 -0.6589  1.0065  1.0436
  999MOL0     C34764   4.318   9.504   4.786  1.0082 -0.2691 -0.1701
  999MOL0     C34765   4.179   9.462   4.764 -0.2005  0.4316 -0.3254
  999MOL0     O34766   4.141   9.335   4.786 -0.1180 -0.3045 -0.0161
  999MOL0     C34767   4.239   9.247   4.848  0.7358 -0.1459  0.6810
  999MOL0     C34768   4.184   9.097   4.843  0.8217 -0.2072 -0.1152
  999MOL0     C34769   4.063   9.076   4.927 -0.3283  0.0163  0.2221
  999MOL0     C34770   4.041   8.928   4.954  0.8141  0.0483 -0.7812
  999MOL0     C34771   3.929   8.891   5.046  0.0764 -0.3732  0.6301
  999MOL0     C34772   3.933   8.748   5.082  0.9126 -1.0412 -1.6468
  999MOL0     C34773   3.808   8.691   5.157 -0.5897 -0.5242  0.3248
  999MOL0     C34774   3.821   8.544   5.194  0.0873 -0.2186 -0.1156
  999MOL0    Cl34775   3.831   8.439   5.054 -0.5188  0.0096 -0.2494
  999MOL0     C34776   4.090   9.546   4.693 -0.3488 -1.1019 -0.1377
  999MOL0     C34777   4.141   9.675   4.663 -0.2697 -0.4584  0.4345
  999MOL0     O34778   4.126   9.967   4.691  0.1940 -0.0514  0.5472
  999MOL0     C34779   4.217  10.170   4.527 -0.2583  0.8844 -0.2430
  999MOL0     C34780   4.270  10.276   4.461 -0.0251 -1.2411 -0.7018
  999MOL0     N34781   4.757  10.460   3.745 -0.1270 -0.1148  0.1304
  999MOL0     N34782   4.855  10.493   3.662  0.0787  0.2595  0.3285
  999MOL0     C34783   5.859  10.977   4.187 -0.9363 -0.1242  1.0568
  999MOL0     C34784   5.928  10.939   4.305  0.2013 -1.1248  1.1181
  999MOL0     C34785   6.151  10.926   4.659  0.0210  0.2012  0.2959
  999MOL0     C34786   6.274  10.990   4.695 -0.1909  0.7458 -0.4954
  999MOL0     C34787   6.341  10.941   4.813 -0.0875 -0.8457 -0.5099
  999MOL0     C34788   6.294  10.830   4.882  0.1279 -0.1628 -0.1580
  999MOL0     O34789   6.353  10.769   4.983 -0.1601  0.2052 -0.5699
  999MOL0     C34790   6.493  10.796   5.010  0.3033  0.2816  0.7494
  999MOL0     C34791   6.563  10.686   5.078 -0.5234 -0.1140  0.2554
  999MOL0     C34792   6.615  10.558   5.004 -0.3097 -0.5462  0.2980
  999MOL0     C34793   6.495  10.507   4.919 -0.4679  0.1504  0.3001
  999MOL0     C34794   6.520  10.368   4.885  0.3026  0.4177  1.8914
  999MOL0     C34795   6.526  10.251   4.858  0.2786 -0.0049 -0.0558
  999MOL0     C34796   6.177  10.776   4.836  0.0080 -0.2555 -0.5831
  999MOL0     C34797   6.101  10.820   4.731 -0.8631 -0.5424  0.1692
  999MOL0     H34798   5.690  10.996   4.527 -0.8563  4.0481 -0.9219
  999MOL0     H34799   5.557  11.060   4.316 -0.3345  0.5986  2.0684
  999MOL0     H34800   5.720  10.979   3.891  3.2910  1.1981  3.5722
  999MOL0     H34801   5.673  10.850   4.006  0.0885  0.4578 -0.7942
  999MOL0     H34802   5.444  10.942   4.024  2.9761  3.2868  2.5705
  999MOL0     H34803   5.470  11.035   3.868 -2.9121 -2.2815 -1.9359
  999MOL0     H34804   5.547  10.817   3.758 -0.4961 -0.3599 -0.2645
  999MOL0     H34805   5.463  10.734   3.885 -1.8113 -1.5934 -2.4538
  999MOL0     H34806   5.243  10.800   3.827  2.9401 -1.8456  1.3826
  999MOL0     H34807   5.300  10.933   3.725 -2.9650 -0.4385 -2.4406
  999MOL0     H34808   5.408  10.776   3.563  1.8855  0.8971  0.8093
  999MOL0     H34809   5.363  10.638   3.670  3.2005 -0.4993 -2.5835
  999MOL0     H34810   5.182  10.824   3.508 -0.4705  0.3356  0.4888
  999MOL0     H34811   5.238  10.657   3.471 -0.0730  0.7065  0.8187
  999MOL0     H34812   5.052  10.738   3.709  2.4308  1.4291 -0.1217
  999MOL0     H34813   5.013  10.673   3.553 -0.1314 -0.5207 -0.0475
  999MOL0     H34814   5.170  10.543   3.790 -0.6085 -3.2459  0.9704
  999MOL0     H34815   5.164  10.464   3.635 -0.2607 -0.7176  0.1113
  999MOL0     H34816   5.003  10.370   3.931  1.6628 -2.1015 -2.5440
  999MOL0     H34817   4.638  10.282   3.915  1.0142 -2.1165 -0.4192
  999MOL0     H34818   4.779  10.224   3.977 -3.3309 -1.6765  3.5860
  999MOL0     H34819   4.705  10.484   4.101 -0.6615 -0.8320  1.9164
  999MOL0     H34820   4.813  10.353   4.159  2.0135  1.3726 -1.9846
  999MOL0     H34821   4.604  10.224   4.197 -1.3264  0.3429  1.2656
  999MOL0     H34822   4.517  10.367   4.132  0.0808 -0.3913 -0.6440
  999MOL0     H34823   4.653  10.487   4.352 -0.0296  0.1080  1.4707
  999MOL0     H34824   4.655  10.315   4.390 -1.9455  0.0061  0.5163
  999MOL0     H34825   4.588  10.247   4.574 -0.2910  2.6150  0.8673
  999MOL0     H34826   4.519  10.034   4.807  0.3099 -1.2872 -0.1790
  999MOL0     H34827   4.531   9.926   4.666  0.2995  0.7400  0.2145
  999MOL0     H34828   4.636  10.073   4.682 -0.1510  1.8754 -1.3551
  999MOL0     H34829   4.448   9.678   4.770  0.9688 -0.5591 -4.3821
  999MOL0     H34830   4.392   9.431   4.816  0.7338 -0.9048 -1.0115
  999MOL0     H34831   4.328   9.239   4.785 -0.4166  0.3793 -1.0998
  999MOL0     H34832   4.265   9.274   4.951  1.8294 -2.1114  0.9821
  999MOL0     H34833   4.149   9.089   4.740  1.0518  2.5086 -0.4893
  999MOL0     H34834   4.263   9.024   4.861  2.1196  0.8468 -1.2092
  999MOL0     H34835   3.971   9.094   4.871 -0.8079 -3.3384 -0.2510
  999MOL0     H34836   4.075   9.123   5.025 -0.1605 -0.3325  0.3687
  999MOL0     H34837   4.015   8.889   4.855  0.8118 -4.3442  0.7440
  999MOL0     H34838   4.133   8.879   4.985  0.8644  2.0139  2.7169
  999MOL0     H34839   3.835   8.916   4.996 -0.2176 -1.1421  0.7680
  999MOL0     H34840   3.931   8.943   5.142 -0.1188 -1.6912  1.3772
  999MOL0     H34841   3.943   8.679   4.998 -0.2098 -1.3393 -1.5548
  999MOL0     H34842   4.020   8.731   5.146  3.3773 -0.2932 -4.5965
  999MOL0     H34843   3.718   8.702   5.097  1.5222  2.6721 -2.6819
  999MOL0     H34844   3.803   8.758   5.243 -0.4191  0.5577 -0.4837
  999MOL0     H34845   3.737   8.509   5.254 -0.8420 -0.6161 -1.6009
  999MOL0     H34846   3.908   8.531   5.260  0.0873  1.4442  0.2503
  999MOL0     H34847   3.993   9.508   4.661 -0.0836 -1.2753 -0.7653
  999MOL0     H34848   4.067   9.739   4.617 -2.5034 -1.6576  2.1600
  999MOL0     H34849   4.110  10.169   4.510 -0.5595 -2.8548  0.9774
  999MOL0     H34850   4.199  10.334   4.403  1.0577  0.6836 -0.1958
  999MOL0     H34851   5.908  10.971   4.091 -2.7013 -2.4395  0.2091
  999MOL0     H34852   6.033  10.913   4.295  0.4790 -0.2530  1.6132
  999MOL0     H34853   6.306  11.078   4.641  0.5615 -1.3496 -3.7888
  999MOL0     H34854   6.422  11.007   4.840 -2.2593  4.0882 -4.2469
  999MOL0     H34855   6.536  10.827   4.914  2.2642 -1.4884  0.9961
  999MOL0     H34856   6.497  10.883   5.076  1.8464  0.8982 -0.1026
  999MOL0     H34857   6.497  10.647   5.156  0.6800 -1.2485  0.7536
  999MOL0     H34858   6.646  10.739   5.127  0.1600 -2.0281  1.2479
  999MOL0     H34859   6.651  10.482   5.074  2.0373  0.6621  0.5289
  999MOL0     H34860   6.706  10.583   4.948 -0.3966  0.4817  0.5923
  999MOL0     H34861   6.482  10.569   4.830  2.1677  1.0401  0.4522
  999MOL0     H34862   6.406  10.506   4.983  0.8696 -0.8430  2.2269
  999MOL0     H34863   6.542  10.153   4.818 -0.5173 -0.1568 -0.0107
  999MOL0     H34864   6.139  10.689   4.889 -1.5818 -0.1764 -1.5427
  999MOL0     H34865   6.016  10.761   4.699  0.5296 -1.5836 -1.7995
 1000MOL0     O34866   8.868   5.404   2.659 -0.5038 -0.1061 -0.5398
 1000MOL0     C34867   8.808   5.477   2.584  0.8793  0.0684  0.7340
 1000MOL0     O34868   8.727   5.583   2.620 -0.5852  0.1560 -0.3874
 1000MOL0     C34869   8.705   5.629   2.750  0.3437  0.4123  1.3498
 1000MOL0     C34870   8.736   5.567   2.863  0.5153  0.1379 -0.6057
 1000MOL0     C34871   8.736   5.627   2.987  1.0818  0.2256 -0.0973
 1000MOL0     C34872   8.683   5.758   3.000 -0.1727  0.5855 -0.6593
 1000MOL0     O34873   8.667   5.817   3.121 -0.2578 -0.5301  0.5741
 1000MOL0     C34874   8.557   5.910   3.131 -0.3753 -0.0178 -0.4963
 1000MOL0     C34875   8.522   5.932   3.283 -0.3082 -0.5690  0.4360
 1000MOL0     C34876   8.483   6.073   3.306 -0.1228  0.9783 -0.8584
 1000MOL0     C34877   8.420   6.082   3.448  0.6256 -0.1311  0.1963
 1000MOL0     C34878   8.391   6.239   3.471  0.2375 -0.5516  0.2184
 1000MOL0     C34879   8.333   6.257   3.610  0.5333 -0.7975  0.3355
 1000MOL0     C34880   8.303   6.401   3.654 -0.6857 -0.8287  0.1310
 1000MOL0     C34881   8.252   6.413   3.796 -0.5602 -0.3757 -0.4795
 1000MOL0     N34882   8.186   6.533   3.834  0.5023  1.4157 -0.1735
 1000MOL0     C34883   8.241   6.641   3.892 -1.7476  0.0354  0.6479
 1000MOL0     C34884   8.143   6.726   3.904  0.9384 -0.5735  0.3716
 1000MOL0     C34885   8.145   6.854   3.977 -0.4441 -0.3475 -0.3176
 1000MOL0     C34886   8.143   6.966   3.866 -0.4216  1.1283 -0.4640
 1000MOL0     C34887   8.267   7.032   3.822 -0.0476 -0.1197 -0.0611
 1000MOL0     C34888   8.361   6.936   3.740  0.0604  0.7236  0.1713
 1000MOL0     O34889   8.293   6.902   3.616 -0.7180 -1.0351  0.7457
 1000MOL0     C34890   8.371   6.850   3.511 -0.7795 -0.1375  0.2917
 1000MOL0     C34891   8.473   6.752   3.531 -0.3217 -0.2234  1.1215
 1000MOL0     C34892   8.524   6.676   3.423  1.0776 -0.1911 -0.3855
 1000MOL0     C34893   8.647   6.597   3.449 -0.2169  0.0081 -0.0387
 1000MOL0     C34894   8.475   6.698   3.295 -0.5880 -1.1279  0.3704
 1000MOL0     C34895   8.499   6.608   3.174 -0.0651  0.6296  0.2190
 1000MOL0     O34896   8.547   6.481   3.198 -1.0309  0.4540 -0.2581
 1000MOL0     C34897   8.568   6.410   3.082 -0.1292  0.2326 -0.0035
 1000MOL0     C34898   8.692   6.424   3.016 -0.3577 -0.0050  0.1439
 1000MOL0     C34899   8.727   6.354   2.904 -0.2099  0.4671  0.1428
 1000MOL0     C34900   8.634   6.254   2.856  0.5009 -1.1572  0.6000
 1000MOL0     O34901   8.651   6.183   2.743  0.6591 -0.6796 -0.7555
 1000MOL0     C34902   8.781   6.159   2.685 -0.8126  0.4868 -0.1604
 1000MOL0     C34903   8.751   6.071   2.558 -0.2388  0.0365  0.5892
 1000MOL0     C34904   8.860   6.089   2.452  0.9051 -0.1274 -0.3698
 1000MOL0     C34905   9.008   6.114   2.514 -0.3366 -0.1606 -0.2405
 1000MOL0     C34906   9.106   6.095   2.409 -0.1057  0.1024 -0.5516
 1000MOL0     C34907   9.125   5.953   2.362 -1.0541 -0.1830 -0.1350
 1000MOL0     C34908   9.195   5.957   2.221  0.1672 -0.7403 -0.0440
 1000MOL0     C34909   9.336   6.018   2.214 -0.1797 -0.1045  0.3234
 1000MOL0    Cl34910   9.321   6.172   2.131 -0.1373 -0.4366 -0.7175
 1000MOL0     C34911   8.519   6.241   2.932  0.2203 -0.1087  0.9233
 1000MOL0     C34912   8.481   6.314   3.042  0.1207  0.6020 -0.2664
 1000MOL0     O34913   8.481   6.656   3.060 -0.2542  0.2444 -0.1126
 1000MOL0     C34914   8.380   6.803   3.275  0.6609 -0.0527  0.6193
 1000MOL0     C34915   8.329   6.882   3.378 -0.0170  0.4485 -0.4511
 1000MOL0     N34916   8.024   6.668   3.855  0.0669 -0.0509  0.0393
 1000MOL0     N34917   8.058   6.556   3.820  0.1821 -0.3054  0.2144
 1000MOL0     C34918   8.639   5.819   2.878 -0.5233  0.1799 -1.0510
 1000MOL0     C34919   8.654   5.754   2.762 -0.0767 -0.3828 -0.0554
 1000MOL0     C34920   8.806   5.467   2.432 -0.5497  0.3120 -0.1893
 1000MOL0     C34921   8.836   5.340   2.387 -0.9766  0.8652  0.1705
 1000MOL0     C34922   8.872   5.329   2.249  0.1951  0.0026 -0.4472
 1000MOL0     C34923   8.883   5.440   2.169  0.1192  0.0431 -0.9196
 1000MOL0     O34924   8.940   5.419   2.049  0.0523  0.4313 -0.7614
 1000MOL0     C34925   9.079   5.414   2.048 -0.0024  0.6155  0.3687
 1000MOL0     C34926   9.142   5.559   2.047  0.4518  0.2920  0.7681
 1000MOL0     C34927   9.285   5.560   1.990 -1.4397  0.2094 -0.4271
 1000MOL0     C34928   9.332   5.705   1.944  0.0860  0.4165 -0.4297
 1000MOL0     C34929   9.272   5.735   1.814  0.6764 -0.1438  0.2515
 1000MOL0     C34930   9.207   5.770   1.715  0.1232 -0.2160 -0.4777
 1000MOL0     C34931   8.853   5.569   2.224  0.0841  0.2449 -0.1524
 1000MOL0     C34932   8.799   5.582   2.353 -0.6115  0.7941  0.7891
 1000MOL0     H34933   8.765   5.463   2.870 -0.0393  0.0628  1.0425
 1000MOL0     H34934   8.768   5.573   3.075  1.8890 -2.6538 -2.0322
 1000MOL0     H34935   8.585   6.003   3.081 -2.2764  0.1489 -1.3321
 1000MOL0     H34936   8.466   5.883   3.077 -0.7720 -2.2540  1.1606
 1000MOL0     H34937   8.445   5.858   3.307 -0.7272  0.4771  2.6009
 1000MOL0     H34938   8.611   5.906   3.341 -1.2442  1.6180  3.0908
 1000MOL0     H34939   8.560   6.150   3.294 -2.3254  3.1588 -1.7715
 1000MOL0     H34940   8.403   6.097   3.235  1.8780  1.8705 -2.9695
 1000MOL0     H34941   8.327   6.026   3.461 -0.6663  2.0872  1.0187
 1000MOL0     H34942   8.488   6.038   3.522 -0.6298 -3.4793 -0.4500
 1000MOL0     H34943   8.486   6.290   3.449 -0.3596  0.2096 -0.6898
 1000MOL0     H34944   8.319   6.269   3.394 -2.3706 -0.2609  2.6264
 1000MOL0     H34945   8.241   6.199   3.607  0.3759 -0.5370  0.0844
 1000MOL0     H34946   8.402   6.209   3.681 -3.5199 -2.7091  3.3905
 1000MOL0     H34947   8.396   6.457   3.642 -0.4088 -1.4722 -0.8752
 1000MOL0     H34948   8.237   6.454   3.585  0.6495 -2.5115 -2.5915
 1000MOL0     H34949   8.322   6.385   3.875 -0.7210  3.6261  1.3187
 1000MOL0     H34950   8.174   6.337   3.794 -0.5756 -0.3742 -0.0002
 1000MOL0     H34951   8.347   6.651   3.911 -1.0690 -3.3979 -0.5689
 1000MOL0     H34952   8.055   6.865   4.038 -0.4338 -2.0744  0.0604
 1000MOL0     H34953   8.231   6.846   4.045 -0.9768 -2.3318  0.1850
 1000MOL0     H34954   8.088   7.048   3.913 -1.2113  0.7753 -0.7463
 1000MOL0     H34955   8.090   6.936   3.775 -0.3007  1.1833 -0.5525
 1000MOL0     H34956   8.305   7.066   3.919 -0.2747  0.7998 -0.2856
 1000MOL0     H34957   8.257   7.122   3.760 -1.4688  1.8018  2.7738
 1000MOL0     H34958   8.382   6.846   3.799  1.4091  2.3246  2.3034
 1000MOL0     H34959   8.459   6.979   3.714  0.8905 -0.5021  1.1411
 1000MOL0     H34960   8.511   6.738   3.632  2.5794 -0.3223  0.1005
 1000MOL0     H34961   8.613   6.495   3.463 -3.0968 -0.0595 -5.1124
 1000MOL0     H34962   8.716   6.593   3.364  1.2996  0.4964  1.1236
 1000MOL0     H34963   8.713   6.642   3.524 -1.0882  2.6123 -0.7037
 1000MOL0     H34964   8.762   6.494   3.061 -2.2327  0.0779  3.2323
 1000MOL0     H34965   8.827   6.376   2.868  0.6509  0.1736  2.2321
 1000MOL0     H34966   8.839   6.250   2.668  0.2689 -0.3473 -1.0534
 1000MOL0     H34967   8.844   6.102   2.755 -0.0283  1.7023  0.1465
 1000MOL0     H34968   8.745   5.963   2.574  2.6684 -0.1601  0.8376
 1000MOL0     H34969   8.650   6.098   2.524 -0.1213 -2.7718 -2.5745
 1000MOL0     H34970   8.833   6.174   2.389  0.8837  1.9649  2.2726
 1000MOL0     H34971   8.853   6.002   2.386 -1.1842 -0.4787  0.2370
 1000MOL0     H34972   9.022   6.212   2.560 -1.5623 -0.7132  1.4143
 1000MOL0     H34973   9.011   6.039   2.594  0.1927  1.9386  1.8293
 1000MOL0     H34974   9.198   6.140   2.447 -1.3092  1.4483  0.9172
 1000MOL0     H34975   9.069   6.156   2.326 -0.0272 -0.4747 -1.0244
 1000MOL0     H34976   9.183   5.900   2.437 -0.7585 -1.2398 -1.0927
 1000MOL0     H34977   9.031   5.900   2.376 -0.4232 -0.7365  2.6575
 1000MOL0     H34978   9.130   6.001   2.145 -0.7886  1.0677  1.7405
 1000MOL0     H34979   9.189   5.853   2.189 -1.9129  0.0592 -2.6620
 1000MOL0     H34980   9.404   5.950   2.162 -0.8839  1.4906 -2.9014
 1000MOL0     H34981   9.377   6.023   2.316  0.4886 -5.5866  0.6375
 1000MOL0     H34982   8.456   6.167   2.885  3.2910 -0.9818 -2.3203
 1000MOL0     H34983   8.391   6.283   3.093  2.3424 -2.1504  2.3290
 1000MOL0     H34984   8.347   6.809   3.172  0.1350 -3.9703  0.4088
 1000MOL0     H34985   8.247   6.951   3.358 -0.4785  0.9859  2.7763
 1000MOL0     H34986   8.598   5.919   2.888  4.9480  2.6082  0.3544
 1000MOL0     H34987   8.629   5.800   2.667 -2.5919 -2.9156 -0.7698
 1000MOL0     H34988   8.842   5.255   2.454  4.8267 -2.7950 -4.0000
 1000MOL0     H34989   8.903   5.227   2.230 -1.3241 -1.3722  3.4075
 1000MOL0     H34990   9.112   5.359   2.136 -0.2288 -0.0375  0.0497
 1000MOL0     H34991   9.105   5.365   1.954  1.3164  0.0056  1.0310
 1000MOL0     H34992   9.141   5.616   2.140  2.0973  3.8915 -1.1857
 1000MOL0     H34993   9.070   5.598   1.975 -1.5844 -3.2522  0.6777
 1000MOL0     H34994   9.282   5.502   1.897 -3.7867 -2.4033  1.1662
 1000MOL0     H34995   9.358   5.520   2.061  1.7571 -0.8701 -3.9792
 1000MOL0     H34996   9.440   5.719   1.948  0.3323 -0.4481  5.6255
 1000MOL0     H34997   9.295   5.780   2.014 -0.5236  1.6549 -2.0240
 1000MOL0     H34998   9.166   5.798   1.620 -0.2761 -0.7850 -0.4760
 1000MOL0     H34999   8.859   5.654   2.157 -1.5455 -0.5098 -1.3401
 1000MOL0     H35000   8.764   5.679   2.386  1.7761  1.2808  2.0988
 1001MOL0     O35001   6.753   4.099   9.389  0.5805  0.0852  0.4797
 1001MOL0     C35002   6.705   3.987   9.404  0.4803 -0.8989 -0.2426
 1001MOL0     O35003   6.747   3.893   9.500 -0.1417  0.2279 -0.1574
 1001MOL0     C35004   6.869   3.924   9.564  0.5831  0.1400  0.8356
 1001MOL0     C35005   6.888   4.017   9.669 -0.6095  0.0512  0.4470
 1001MOL0     C35006   7.017   4.012   9.727  0.6236  0.5654 -0.1497
 1001MOL0     C35007   7.121   3.932   9.692 -0.4547  0.5211 -0.1866
 1001MOL0     O35008   7.239   3.928   9.768  0.2157  0.2063 -0.4567
 1001MOL0     C35009   7.312   3.805   9.785  0.0186  0.0548 -0.0147
 1001MOL0     C35010   7.444   3.817   9.707  0.1871 -0.3497 -0.2536
 1001MOL0     C35011   7.534   3.927   9.760  0.3982 -0.1101 -0.5300
 1001MOL0     C35012   7.658   3.966   9.680 -0.0761 -0.5626  0.1678
 1001MOL0     C35013   7.757   3.870   9.717 -0.0899 -0.4091 -0.9633
 1001MOL0     C35014   7.878   3.862   9.633 -1.0729  0.7825  0.4354
 1001MOL0     C35015   8.000   3.784   9.687  0.2123  0.5822  0.0849
 1001MOL0     C35016   8.072   3.850   9.803  0.0953 -0.9603 -0.1762
 1001MOL0     N35017   8.216   3.822   9.801  0.1351  0.5078  0.5204
 1001MOL0     C35018   8.319   3.912   9.805  0.4231  0.0481  0.1604
 1001MOL0     C35019   8.427   3.832   9.839  0.1372  0.5780 -0.6261
 1001MOL0     C35020   8.564   3.897   9.848 -0.2301 -0.6430  0.0739
 1001MOL0     C35021   8.632   3.955   9.721  0.1732  0.1300 -0.5705
 1001MOL0     C35022   8.785   3.968   9.714  0.1758 -0.2598  0.7813
 1001MOL0     C35023   8.837   4.113   9.694  0.9509 -0.1470 -0.7858
 1001MOL0     O35024   8.844   4.151   9.557 -0.2668  0.2604 -0.6331
 1001MOL0     C35025   8.892   4.271   9.519  0.4961 -0.5033 -0.1239
 1001MOL0     C35026   8.817   4.385   9.532 -0.0826  0.0524 -0.2779
 1001MOL0     C35027   8.860   4.510   9.492 -0.0316 -0.5648 -0.6332
 1001MOL0     C35028   8.762   4.622   9.531 -0.0119 -0.7075  0.5962
 1001MOL0     C35029   8.990   4.525   9.428  0.8670  2.2011  0.2884
 1001MOL0     C35030   9.058   4.654   9.412  0.0877  0.2045 -0.1186
 1001MOL0     O35031   9.048   4.746   9.525 -0.2602 -0.2102 -0.0938
 1001MOL0     C35032   9.046   4.880   9.506  0.3009 -1.4742 -0.1593
 1001MOL0     C35033   8.970   4.959   9.582 -0.6501  0.4360 -0.3775
 1001MOL0     C35034   8.977   5.091   9.592 -0.4477 -1.2785 -0.2304
 1001MOL0     C35035   9.081   5.163   9.516  0.3900  0.6477 -0.7338
 1001MOL0     O35036   9.070   5.294   9.520  0.8422  1.2384  0.1242
 1001MOL0     C35037   9.168   5.380   9.454  1.1615  0.7848 -0.9537
 1001MOL0     C35038   9.110   5.519   9.493 -0.4753  0.5964 -0.3545
 1001MOL0     C35039   8.964   5.549   9.438 -0.6902  0.7478 -0.0323
 1001MOL0     C35040   8.977   5.585   9.291  0.7500  0.5907  0.2110
 1001MOL0     C35041   9.061   5.713   9.275 -0.2249 -0.4848  0.2356
 1001MOL0     C35042   9.011   5.804   9.163  0.3342 -0.1831  0.0525
 1001MOL0     C35043   9.086   5.938   9.132 -0.2641 -0.1879  0.8632
 1001MOL0     C35044   9.074   6.037   9.254 -1.0432  1.2952 -1.0051
 1001MOL0    Cl35045   9.111   6.207   9.221  0.0230 -0.0182  0.1682
 1001MOL0     C35046   9.154   5.084   9.433 -0.6204  0.7768 -0.1848
 1001MOL0     C35047   9.134   4.946   9.426  0.5258 -0.2454 -0.1700
 1001MOL0     O35048   9.087   4.682   9.299  0.4418 -0.1663  0.1499
 1001MOL0     C35049   9.055   4.393   9.393 -0.1432 -0.0239 -0.1974
 1001MOL0     C35050   9.006   4.272   9.436 -0.3833 -0.3591 -0.9015
 1001MOL0     N35051   8.392   3.704   9.844  0.4703 -0.1966  0.2181
 1001MOL0     N35052   8.263   3.700   9.826  0.2120  0.9910 -0.3112
 1001MOL0     C35053   7.094   3.846   9.588  0.4733 -0.6855 -0.0225
 1001MOL0     C35054   6.968   3.837   9.525 -0.1353 -0.3255  0.6196
 1001MOL0     C35055   6.572   3.967   9.336  1.8929  0.0163 -0.5865
 1001MOL0     C35056   6.492   3.855   9.343 -0.4605 -0.5435 -0.4883
 1001MOL0     C35057   6.363   3.846   9.293  0.5297 -0.1692  0.3001
 1001MOL0     C35058   6.308   3.953   9.225  0.1295  1.0758 -0.2171
 1001MOL0     O35059   6.183   3.940   9.170  0.1992  0.0211  0.0411
 1001MOL0     C35060   6.097   3.828   9.197 -0.0076  0.5175  0.3043
 1001MOL0     C35061   6.142   3.701   9.113 -0.2387  0.2224 -0.0906
 1001MOL0     C35062   6.049   3.577   9.140 -0.5625  0.1707  0.4314
 1001MOL0     C35063   6.125   3.476   9.243  1.1092  0.1888  0.4242
 1001MOL0     C35064   6.042   3.357   9.248  0.7641 -0.8807 -0.1865
 1001MOL0     C35065   5.971   3.252   9.249 -0.0021 -0.6922  0.5338
 1001MOL0     C35066   6.381   4.071   9.214 -0.4945  0.1356  0.2291
 1001MOL0     C35067   6.504   4.081   9.277  0.1247 -0.2085 -0.7329
 1001MOL0     H35068   6.808   4.082   9.706 -0.4658  0.0334  0.7875
 1001MOL0     H35069   7.023   4.091   9.801 -1.7938  2.0243 -1.3707
 1001MOL0     H35070   7.334   3.804   9.892  4.9029  2.7526 -0.6974
 1001MOL0     H35071   7.250   3.722   9.748  0.9197  0.0204 -1.5414
 1001MOL0     H35072   7.478   3.714   9.719  0.8757 -0.1862 -0.7212
 1001MOL0     H35073   7.445   3.848   9.602  0.1386  3.1609  0.6427
 1001MOL0     H35074   7.468   4.012   9.742 -0.0407 -1.1076 -4.5048
 1001MOL0     H35075   7.549   3.916   9.868  1.4127 -0.0765 -0.6534
 1001MOL0     H35076   7.634   3.957   9.574  2.2954 -0.0011 -0.4814
 1001MOL0     H35077   7.686   4.069   9.706  0.5578 -0.7485  0.2292
 1001MOL0     H35078   7.787   3.883   9.822 -1.6198  0.7969 -0.6335
 1001MOL0     H35079   7.732   3.764   9.718  2.7244 -1.1413  0.5600
 1001MOL0     H35080   7.840   3.811   9.543  0.5919 -0.5006  0.4067
 1001MOL0     H35081   7.913   3.961   9.602  1.5074 -0.2592 -0.2413
 1001MOL0     H35082   7.963   3.685   9.717 -0.6692  1.4630  2.1421
 1001MOL0     H35083   8.074   3.785   9.607  1.2798  0.8970  1.0506
 1001MOL0     H35084   8.035   3.806   9.896 -2.0592 -2.6634 -1.7483
 1001MOL0     H35085   8.055   3.958   9.812 -0.7636 -1.0492 -0.6432
 1001MOL0     H35086   8.303   4.018   9.794 -0.8871  0.0366  1.6430
 1001MOL0     H35087   8.549   3.975   9.923  0.2491  0.2544 -0.7302
 1001MOL0     H35088   8.619   3.818   9.899 -1.1148 -2.7978 -2.0857
 1001MOL0     H35089   8.570   4.038   9.684 -2.3147 -1.4338 -0.1021
 1001MOL0     H35090   8.602   3.873   9.655 -3.4419 -0.1591  1.1947
 1001MOL0     H35091   8.826   3.908   9.632 -0.6308  0.4325 -0.1528
 1001MOL0     H35092   8.822   3.923   9.807  0.5240 -0.6044  0.4816
 1001MOL0     H35093   8.936   4.125   9.738 -0.5991  2.2890  2.5160
 1001MOL0     H35094   8.769   4.181   9.747  1.1090 -2.4149  2.6189
 1001MOL0     H35095   8.717   4.377   9.573  0.4068  0.8823  1.1509
 1001MOL0     H35096   8.662   4.607   9.490 -0.1218 -2.3453  1.3907
 1001MOL0     H35097   8.748   4.626   9.640  1.1528  0.5803  0.7241
 1001MOL0     H35098   8.800   4.722   9.509  0.4379 -1.1671 -0.7805
 1001MOL0     H35099   8.890   4.926   9.647 -0.0841  0.9044  0.5705
 1001MOL0     H35100   8.903   5.141   9.654 -0.9196 -0.8385 -1.1221
 1001MOL0     H35101   9.270   5.364   9.490  0.0717 -0.3232  1.9779
 1001MOL0     H35102   9.171   5.357   9.348  0.7609 -0.9615 -0.6178
 1001MOL0     H35103   9.101   5.518   9.602  0.0228 -2.8887 -0.2337
 1001MOL0     H35104   9.180   5.595   9.456 -2.3884  4.8586  3.7301
 1001MOL0     H35105   8.923   5.639   9.485  1.1422  1.4862  0.2321
 1001MOL0     H35106   8.901   5.460   9.449 -0.5558 -0.1006 -4.3256
 1001MOL0     H35107   9.011   5.504   9.227  0.9048  3.3401 -3.5277
 1001MOL0     H35108   8.874   5.613   9.264 -0.2368 -1.1307  1.9213
 1001MOL0     H35109   9.164   5.690   9.249  0.2795  1.7852  0.0356
 1001MOL0     H35110   9.055   5.767   9.370  0.8695 -0.5942  0.3783
 1001MOL0     H35111   9.007   5.748   9.070  1.5489 -1.1756  0.5733
 1001MOL0     H35112   8.909   5.830   9.194  0.6283  2.3534 -0.8472
 1001MOL0     H35113   9.059   5.988   9.038  0.0066 -0.7265  0.4899
 1001MOL0     H35114   9.191   5.911   9.115 -0.0080  0.7133  0.9788
 1001MOL0     H35115   9.133   6.009   9.342 -1.6491  2.5392 -0.1709
 1001MOL0     H35116   8.976   6.041   9.301 -0.7777 -0.2874 -0.2421
 1001MOL0     H35117   9.219   5.123   9.355 -0.4541 -1.8327 -1.4249
 1001MOL0     H35118   9.213   4.887   9.382  0.0703 -1.0981  0.1318
 1001MOL0     H35119   9.145   4.407   9.334 -1.0344  1.7078 -1.2106
 1001MOL0     H35120   9.061   4.182   9.410  1.9313 -0.1465  2.5728
 1001MOL0     H35121   7.177   3.791   9.546 -0.6541  0.6556 -4.5502
 1001MOL0     H35122   6.956   3.761   9.448 -2.7444  0.6113  0.0004
 1001MOL0     H35123   6.524   3.766   9.395 -2.1395 -0.5079  0.6951
 1001MOL0     H35124   6.327   3.744   9.283  2.6554 -1.1794  2.2136
 1001MOL0     H35125   6.095   3.811   9.305 -0.9643 -1.6295  0.0058
 1001MOL0     H35126   5.996   3.853   9.164  0.1989  0.1311 -0.6301
 1001MOL0     H35127   6.249   3.679   9.110 -0.1446  0.7984 -1.5303
 1001MOL0     H35128   6.113   3.734   9.013  2.1875 -0.1752 -0.9893
 1001MOL0     H35129   6.027   3.528   9.044 -2.0698  2.5141 -0.5233
 1001MOL0     H35130   5.952   3.608   9.180 -0.8949  0.1420 -0.3232
 1001MOL0     H35131   6.119   3.516   9.345 -1.4269  2.7239 -0.5848
 1001MOL0     H35132   6.227   3.450   9.215  0.2675 -1.5668 -1.2041
 1001MOL0     H35133   5.911   3.164   9.237 -0.3444 -0.1695 -2.2138
 1001MOL0     H35134   6.339   4.161   9.171  3.4945  1.1677 -2.0053
 1001MOL0     H35135   6.557   4.175   9.272 -0.8169  0.3717 -0.0779
 1002MOL0     O35136   0.745   5.019   4.927 -0.6064  0.1067 -0.0508
 1002MOL0     C35137   0.646   4.958   4.969  0.2201 -0.1014  0.6215
 1002MOL0     O35138   0.523   4.946   4.919 -0.6142 -0.3313 -0.4991
 1002MOL0     C35139   0.483   4.974   4.791 -0.5067  0.5473 -0.7016
 1002MOL0     C35140   0.566   4.932   4.681  1.1085 -0.1987 -0.2148
 1002MOL0     C35141   0.520   4.951   4.548 -0.9795  0.3223 -0.1490
 1002MOL0     C35142   0.406   5.016   4.522 -0.0255 -0.5510 -0.0953
 1002MOL0     O35143   0.364   5.011   4.392  0.6097 -0.4402  0.4808
 1002MOL0     C35144   0.234   5.039   4.339  0.6644 -0.2144 -0.4402
 1002MOL0     C35145   0.206   4.981   4.208 -0.0181 -0.2513  0.6765
 1002MOL0     C35146   0.062   5.026   4.154 -0.2718 -0.1451 -0.2181
 1002MOL0     C35147   0.059   5.012   3.998  1.2409 -0.6101  0.4690
 1002MOL0     C35148  -0.080   5.040   3.929 -0.3688 -0.7388 -0.0209
 1002MOL0     C35149  -0.203   4.987   4.001 -0.5211 -0.4015 -0.8046
 1002MOL0     C35150  -0.328   5.012   3.912  0.2200  0.4189  0.1632
 1002MOL0     C35151  -0.377   5.154   3.895 -0.4144 -0.2904 -0.2285
 1002MOL0     N35152  -0.371   5.235   4.013  0.1442 -0.6968  0.0521
 1002MOL0     C35153  -0.442   5.232   4.132 -0.8022  0.0017 -0.1018
 1002MOL0     C35154  -0.399   5.352   4.200 -0.3223 -0.7176  0.3560
 1002MOL0     C35155  -0.453   5.407   4.330  0.5651 -0.2183 -0.2325
 1002MOL0     C35156  -0.375   5.340   4.449  0.2061  0.2041 -0.6456
 1002MOL0     C35157  -0.449   5.352   4.589 -0.7738 -0.0554 -0.0471
 1002MOL0     C35158  -0.471   5.209   4.645 -0.3833 -0.1127  0.2603
 1002MOL0     O35159  -0.524   5.227   4.776 -0.7784  0.0833 -0.4395
 1002MOL0     C35160  -0.567   5.103   4.826 -0.4502 -0.3832  0.4819
 1002MOL0     C35161  -0.484   5.012   4.893 -0.1024 -0.0798  1.6246
 1002MOL0     C35162  -0.526   4.883   4.927  0.1916  0.6383  0.1787
 1002MOL0     C35163  -0.426   4.798   5.001  0.0338  0.3138 -0.3977
 1002MOL0     C35164  -0.656   4.845   4.888  0.4781  1.0570 -0.0221
 1002MOL0     C35165  -0.720   4.715   4.935  0.0219 -0.7434 -0.6083
 1002MOL0     O35166  -0.857   4.692   4.924  0.4535 -0.0882 -0.6078
 1002MOL0     C35167  -0.908   4.573   4.955  0.1342 -0.2336 -1.3380
 1002MOL0     C35168  -1.031   4.549   4.888 -0.7926  0.1923  0.1257
 1002MOL0     C35169  -1.105   4.435   4.919  0.7899  0.1906  0.8648
 1002MOL0     C35170  -1.059   4.344   5.007 -0.1794  0.6496 -0.2317
 1002MOL0     O35171  -1.112   4.219   5.017 -0.4527  0.6050  0.8216
 1002MOL0     C35172  -1.020   4.107   5.029 -0.4049 -0.3053  1.0197
 1002MOL0     C35173  -1.098   3.974   5.017 -1.3615  0.9646  0.1774
 1002MOL0     C35174  -1.177   3.945   5.145  0.1536  0.3532 -0.6540
 1002MOL0     C35175  -1.124   3.816   5.203  0.0829 -0.3276  0.9135
 1002MOL0     C35176  -1.217   3.751   5.300  0.2920 -0.6224 -0.0355
 1002MOL0     C35177  -1.152   3.654   5.395  0.1470  1.0458 -1.2185
 1002MOL0     C35178  -1.103   3.519   5.334  0.4229 -0.0245 -0.0518
 1002MOL0     C35179  -1.076   3.414   5.434 -0.6529 -0.0485 -0.3230
 1002MOL0    Cl35180  -1.229   3.347   5.497 -0.3013 -0.2665 -0.1626
 1002MOL0     C35181  -0.945   4.379   5.085 -0.2661 -0.1898  0.5502
 1002MOL0     C35182  -0.881   4.497   5.067 -0.2481  0.0445 -0.0476
 1002MOL0     O35183  -0.634   4.626   4.965  0.2542  0.2974 -0.6110
 1002MOL0     C35184  -0.744   4.934   4.826 -0.6250  0.7587  0.5534
 1002MOL0     C35185  -0.693   5.062   4.795 -0.0416  0.3849 -0.2538
 1002MOL0     N35186  -0.316   5.407   4.112  0.7563 -1.3221 -0.5703
 1002MOL0     N35187  -0.300   5.346   3.998 -1.1914  0.0742 -0.2950
 1002MOL0     C35188   0.331   5.072   4.628  0.7035 -0.6592 -0.3136
 1002MOL0     C35189   0.369   5.049   4.771 -0.1008  0.3997  0.4156
 1002MOL0     C35190   0.678   4.883   5.096 -0.1388  0.1794 -0.0134
 1002MOL0     C35191   0.584   4.793   5.158  0.3504 -0.1372 -0.4147
 1002MOL0     C35192   0.619   4.719   5.273  0.9754  0.4284 -0.5353
 1002MOL0     C35193   0.752   4.726   5.325 -0.2056 -0.1919  0.0189
 1002MOL0     O35194   0.796   4.659   5.435 -0.0017 -0.2000 -0.4122
 1002MOL0     C35195   0.700   4.680   5.550  0.3574  0.5958  0.7743
 1002MOL0     C35196   0.760   4.652   5.683 -0.7397 -0.0770 -0.2486
 1002MOL0     C35197   0.793   4.502   5.690 -0.2508 -0.2595 -0.6204
 1002MOL0     C35198   0.894   4.461   5.800  0.5214  0.1797  0.2331
 1002MOL0     C35199   0.826   4.433   5.925  0.5290  1.3550 -0.7171
 1002MOL0     C35200   0.786   4.386   6.032 -0.0196 -0.8731  0.6323
 1002MOL0     C35201   0.842   4.812   5.266  0.0295 -1.4275  0.7087
 1002MOL0     C35202   0.809   4.888   5.151  0.3658  0.3884 -0.1806
 1002MOL0     H35203   0.648   4.875   4.723  2.4458  1.5804 -0.3171
 1002MOL0     H35204   0.580   4.912   4.466 -0.6752  1.1248 -0.3184
 1002MOL0     H35205   0.158   5.013   4.413  0.9640  1.2555  0.4176
 1002MOL0     H35206   0.231   5.147   4.321  2.8033  0.1667  1.1205
 1002MOL0     H35207   0.279   5.026   4.141 -0.0503 -0.8913  0.2029
 1002MOL0     H35208   0.214   4.872   4.202 -0.2851 -0.2210 -4.1448
 1002MOL0     H35209  -0.012   4.955   4.194  0.3330  0.1617  1.5342
 1002MOL0     H35210   0.029   5.123   4.191 -2.2843 -0.7193 -0.3977
 1002MOL0     H35211   0.136   5.074   3.952 -2.8069  5.7436  1.0771
 1002MOL0     H35212   0.070   4.905   3.976  0.0772 -0.3470 -1.6307
 1002MOL0     H35213  -0.087   5.147   3.910  2.2739 -0.5532 -0.3205
 1002MOL0     H35214  -0.069   4.996   3.830  2.9873  2.5553 -1.3183
 1002MOL0     H35215  -0.197   4.878   3.997 -2.0497 -0.5087 -0.7114
 1002MOL0     H35216  -0.221   5.024   4.102  2.3408  0.1011 -0.3957
 1002MOL0     H35217  -0.319   4.960   3.816  0.2997 -2.6315  1.6871
 1002MOL0     H35218  -0.406   4.956   3.965 -0.5089  2.5815  1.5265
 1002MOL0     H35219  -0.482   5.136   3.871  0.4057 -3.0559 -2.2165
 1002MOL0     H35220  -0.319   5.197   3.813 -0.0236  0.9285  0.6571
 1002MOL0     H35221  -0.524   5.166   4.158  0.1435 -0.8873  0.7674
 1002MOL0     H35222  -0.449   5.516   4.322  2.5923 -0.1316  1.2355
 1002MOL0     H35223  -0.553   5.365   4.344  1.8014 -2.8510  1.4554
 1002MOL0     H35224  -0.275   5.384   4.455  1.6518 -2.8834 -0.2106
 1002MOL0     H35225  -0.377   5.233   4.424  2.4904  0.1816 -0.9432
 1002MOL0     H35226  -0.545   5.405   4.590  0.7158  2.8123  1.6082
 1002MOL0     H35227  -0.375   5.404   4.649 -0.6769 -0.4081  0.1404
 1002MOL0     H35228  -0.379   5.153   4.660  1.1230  2.0968 -0.3046
 1002MOL0     H35229  -0.542   5.158   4.580  1.1021 -2.7989  0.6058
 1002MOL0     H35230  -0.385   5.052   4.915  1.2076 -1.9492 -0.4478
 1002MOL0     H35231  -0.331   4.852   5.016  1.8254 -2.8539  0.6302
 1002MOL0     H35232  -0.454   4.781   5.105  3.2327 -1.4980  0.3024
 1002MOL0     H35233  -0.411   4.707   4.942  0.0109  1.4033 -2.1478
 1002MOL0     H35234  -1.056   4.617   4.807  2.3958  1.2026 -0.1740
 1002MOL0     H35235  -1.192   4.422   4.855  3.4934  2.5929 -3.9008
 1002MOL0     H35236  -0.938   4.107   4.957 -0.4599  0.1932  0.9535
 1002MOL0     H35237  -0.956   4.110   5.118 -0.1050 -3.4610  1.0091
 1002MOL0     H35238  -1.165   3.964   4.932 -0.6433 -0.8483 -0.2034
 1002MOL0     H35239  -1.020   3.901   4.995 -4.3162 -2.8781  1.4840
 1002MOL0     H35240  -1.282   3.937   5.116  0.0784 -1.2412 -0.0372
 1002MOL0     H35241  -1.163   4.028   5.215  2.3544  0.8751 -1.6220
 1002MOL0     H35242  -1.105   3.741   5.125 -1.9023  2.8516 -2.9558
 1002MOL0     H35243  -1.040   3.854   5.262 -1.0049  4.0240 -0.0551
 1002MOL0     H35244  -1.301   3.703   5.249 -0.4753 -0.7826  1.3172
 1002MOL0     H35245  -1.265   3.828   5.361 -0.1396 -1.9313  1.3521
 1002MOL0     H35246  -1.061   3.706   5.427  0.1354  1.3553 -1.6820
 1002MOL0     H35247  -1.228   3.628   5.469  2.0314  1.2155  0.9273
 1002MOL0     H35248  -1.014   3.541   5.275  2.2473 -0.5094  2.3580
 1002MOL0     H35249  -1.179   3.475   5.268 -0.4804  0.4496  0.6437
 1002MOL0     H35250  -1.020   3.461   5.516 -2.2919  0.4111  0.5655
 1002MOL0     H35251  -1.033   3.328   5.381 -1.3276 -0.3183 -0.4351
 1002MOL0     H35252  -0.931   4.306   5.165 -2.0197 -0.9155  0.2351
 1002MOL0     H35253  -0.796   4.512   5.132 -1.5320 -2.4736  2.4435
 1002MOL0     H35254  -0.846   4.906   4.800 -1.2024  3.2449 -0.1344
 1002MOL0     H35255  -0.762   5.129   4.744  1.0345  0.9945 -0.9554
 1002MOL0     H35256   0.245   5.131   4.596  2.3848 -0.0744 -4.3297
 1002MOL0     H35257   0.295   5.096   4.835 -0.6101 -1.9952  1.6795
 1002MOL0     H35258   0.483   4.793   5.120 -0.9727 -3.3725  2.5309
 1002MOL0     H35259   0.555   4.646   5.321 -0.5321  2.7264  1.1907
 1002MOL0     H35260   0.675   4.786   5.547 -0.0210  0.4846 -0.4832
 1002MOL0     H35261   0.610   4.620   5.537 -1.1683  2.7112  1.2318
 1002MOL0     H35262   0.684   4.677   5.756 -1.0696  3.5656 -1.6391
 1002MOL0     H35263   0.849   4.713   5.703 -2.1246  0.8293  4.0748
 1002MOL0     H35264   0.846   4.462   5.603 -2.3287 -1.0902 -1.5729
 1002MOL0     H35265   0.702   4.442   5.705 -0.1703  0.5882  6.6124
 1002MOL0     H35266   0.983   4.523   5.816  2.4530 -2.5423  0.9520
 1002MOL0     H35267   0.949   4.374   5.762 -0.7754 -1.2313  1.4447
 1002MOL0     H35268   0.777   4.332   6.124  0.8223  1.1876  2.0127
 1002MOL0     H35269   0.942   4.808   5.308 -0.1524 -1.1230  1.1860
 1002MOL0     H35270   0.874   4.963   5.108  0.6336  1.1989  1.5634
 1003MOL0     O35271   9.028   3.500   5.757 -0.5807  0.4692  0.3311
 1003MOL0     C35272   8.973   3.595   5.701 -0.3291  0.0857 -0.1573
 1003MOL0     O35273   8.883   3.575   5.596  0.4686 -0.3474 -0.8139
 1003MOL0     C35274   8.875   3.456   5.528  0.7359 -0.7923 -0.0159
 1003MOL0     C35275   8.983   3.385   5.489  0.0456 -0.2671 -0.0241
 1003MOL0     C35276   8.985   3.280   5.407  0.4742 -0.5159  1.0766
 1003MOL0     C35277   8.862   3.244   5.345  0.1719 -0.4732 -0.5407
 1003MOL0     O35278   8.869   3.157   5.244  0.2770 -0.0135  0.0146
 1003MOL0     C35279   8.744   3.091   5.197 -0.3923  0.0640  0.5073
 1003MOL0     C35280   8.793   2.964   5.113  0.4263 -1.0019  0.3065
 1003MOL0     C35281   8.671   2.906   5.041  0.4743 -0.2890  0.1464
 1003MOL0     C35282   8.726   2.771   4.984  0.6225  0.5820 -0.5471
 1003MOL0     C35283   8.626   2.713   4.887 -0.0610  0.0481 -0.1504
 1003MOL0     C35284   8.653   2.576   4.827  1.0380  0.4972 -0.8073
 1003MOL0     C35285   8.798   2.552   4.780  0.2012  0.5108 -0.7640
 1003MOL0     C35286   8.841   2.405   4.787  0.2889  0.3094  0.5471
 1003MOL0     N35287   8.774   2.333   4.673  0.7455  0.0122 -0.2721
 1003MOL0     C35288   8.833   2.341   4.544  0.8780 -0.1439  0.5184
 1003MOL0     C35289   8.752   2.267   4.473  1.4234  0.2829 -0.5194
 1003MOL0     C35290   8.761   2.241   4.329  0.1048  0.2856 -0.0212
 1003MOL0     C35291   8.799   2.357   4.239  0.8620 -0.5310 -0.2656
 1003MOL0     C35292   8.949   2.356   4.224 -0.4887  0.5528  0.1913
 1003MOL0     C35293   8.987   2.487   4.147  1.4749  0.2106  0.6603
 1003MOL0     O35294   8.913   2.506   4.019 -0.1435 -0.4328  0.0200
 1003MOL0     C35295   8.979   2.479   3.901 -0.3104 -0.5615  1.0227
 1003MOL0     C35296   9.110   2.414   3.880  0.2655 -0.8666 -1.1487
 1003MOL0     C35297   9.169   2.391   3.757  0.2034  0.9437 -0.5777
 1003MOL0     C35298   9.309   2.348   3.776 -0.8366  0.3333  0.3976
 1003MOL0     C35299   9.090   2.400   3.642 -0.3245  0.3783  1.3098
 1003MOL0     C35300   9.133   2.370   3.503  0.8849 -0.4944 -0.0249
 1003MOL0     O35301   9.275   2.373   3.482 -0.0251  0.5199  0.4471
 1003MOL0     C35302   9.315   2.327   3.357 -0.6967 -1.4764 -1.1761
 1003MOL0     C35303   9.286   2.201   3.315  0.6416 -0.1680 -0.4405
 1003MOL0     C35304   9.302   2.168   3.181 -0.2470 -0.4295  0.4933
 1003MOL0     C35305   9.343   2.271   3.090 -0.4888  0.6433  0.2427
 1003MOL0     O35306   9.363   2.248   2.955  0.0416  0.1493 -0.5861
 1003MOL0     C35307   9.255   2.182   2.889  0.1884  0.5849 -1.5162
 1003MOL0     C35308   9.286   2.211   2.747  0.1614  0.2299 -0.1005
 1003MOL0     C35309   9.402   2.122   2.699  0.7877 -0.3152  0.0530
 1003MOL0     C35310   9.441   2.157   2.555 -0.0671  0.2493 -0.0666
 1003MOL0     C35311   9.513   2.046   2.492 -0.2364 -0.3389  0.7100
 1003MOL0     C35312   9.549   2.063   2.344 -0.3862 -0.2261  0.0012
 1003MOL0     C35313   9.575   1.923   2.284 -0.3097  0.5462  0.1645
 1003MOL0     C35314   9.658   1.915   2.158  0.2650  0.0890 -0.8562
 1003MOL0    Cl35315   9.606   2.014   2.011 -0.7647 -0.0847 -0.3449
 1003MOL0     C35316   9.385   2.393   3.140 -0.7482  0.4941 -0.5131
 1003MOL0     C35317   9.367   2.422   3.275  0.1784  0.1117 -0.6832
 1003MOL0     O35318   9.038   2.356   3.418 -0.1651  0.6680 -0.2678
 1003MOL0     C35319   8.956   2.441   3.655  0.3963 -0.1058  0.6425
 1003MOL0     C35320   8.907   2.480   3.778  0.0588  0.4316  0.0322
 1003MOL0     N35321   8.646   2.215   4.554  0.2251 -0.6861 -0.3041
 1003MOL0     N35322   8.658   2.257   4.675  0.2518 -0.2863  0.6217
 1003MOL0     C35323   8.743   3.316   5.380 -0.3094  0.4526 -0.4673
 1003MOL0     C35324   8.749   3.419   5.467  1.3645 -0.0221  0.6296
 1003MOL0     C35325   8.999   3.734   5.754 -0.2780  0.1426  0.5713
 1003MOL0     C35326   9.073   3.757   5.875  0.4443  0.3323 -0.6444
 1003MOL0     C35327   9.111   3.879   5.923  0.0874  0.8150 -0.7814
 1003MOL0     C35328   9.068   3.992   5.849  0.4710  0.3544 -0.2646
 1003MOL0     O35329   9.083   4.105   5.927  0.0001 -0.0952  0.5814
 1003MOL0     C35330   9.027   4.233   5.874 -0.1524  0.1985 -0.1452
 1003MOL0     C35331   9.069   4.328   5.988  0.6615 -0.0515  0.6675
 1003MOL0     C35332   9.037   4.475   5.960  0.4213 -0.1158  0.3394
 1003MOL0     C35333   9.084   4.556   6.083 -0.0918 -0.0912 -0.6220
 1003MOL0     C35334   9.044   4.697   6.072  0.7542  0.3467 -1.1296
 1003MOL0     C35335   9.027   4.817   6.061  0.3637  1.2053 -0.2653
 1003MOL0     C35336   9.002   3.980   5.728  0.0280  0.2718 -0.4578
 1003MOL0     C35337   8.979   3.847   5.676 -0.3573  0.1175 -1.1171
 1003MOL0     H35338   9.082   3.419   5.516 -0.5300  1.8090 -0.3657
 1003MOL0     H35339   9.069   3.218   5.378 -0.6582 -0.6593 -2.3590
 1003MOL0     H35340   8.690   3.044   5.280  0.8706 -0.0542  1.2847
 1003MOL0     H35341   8.683   3.146   5.125 -0.9990 -2.0840 -0.7092
 1003MOL0     H35342   8.869   3.004   5.045  2.5840 -2.0590  1.9906
 1003MOL0     H35343   8.835   2.890   5.181  0.6848 -2.6697 -1.5724
 1003MOL0     H35344   8.592   2.889   5.114 -2.4958 -0.2079 -2.8007
 1003MOL0     H35345   8.624   2.973   4.969 -1.9320 -1.8657  0.1394
 1003MOL0     H35346   8.824   2.790   4.940 -0.6790  1.3242 -3.3960
 1003MOL0     H35347   8.732   2.704   5.070  0.5897  2.3885  0.9366
 1003MOL0     H35348   8.533   2.693   4.941 -1.6879  0.4165 -2.6816
 1003MOL0     H35349   8.602   2.792   4.816  0.2947 -1.7113 -2.3250
 1003MOL0     H35350   8.637   2.510   4.912  1.1047 -0.0108 -1.1880
 1003MOL0     H35351   8.580   2.560   4.747  0.9892  1.5409 -0.9932
 1003MOL0     H35352   8.814   2.591   4.680 -0.3090  1.3424 -0.5291
 1003MOL0     H35353   8.864   2.595   4.856 -0.3499  2.9697 -1.5979
 1003MOL0     H35354   8.804   2.354   4.876 -0.0279  0.8393  0.7203
 1003MOL0     H35355   8.950   2.407   4.775  0.1126  5.3057 -3.5505
 1003MOL0     H35356   8.931   2.380   4.519  1.9031 -0.2652  3.8954
 1003MOL0     H35357   8.805   2.147   4.296 -0.7887 -0.9965  2.1345
 1003MOL0     H35358   8.657   2.224   4.301  0.1685  1.4824 -1.0711
 1003MOL0     H35359   8.752   2.453   4.262  1.3608 -0.7596  1.9006
 1003MOL0     H35360   8.762   2.336   4.138  0.5951  1.1140 -0.5447
 1003MOL0     H35361   8.990   2.270   4.171 -0.5901 -0.0567  1.0727
 1003MOL0     H35362   8.994   2.332   4.321 -1.5003  0.0740  0.5588
 1003MOL0     H35363   9.097   2.485   4.147  1.4854 -1.6273 -0.4594
 1003MOL0     H35364   8.958   2.576   4.204 -2.8512 -0.6088  0.0585
 1003MOL0     H35365   9.154   2.399   3.978 -1.3275  0.4183 -0.1871
 1003MOL0     H35366   9.332   2.263   3.710 -1.3415  1.4088 -1.2198
 1003MOL0     H35367   9.376   2.425   3.737 -1.5555  1.7842  1.8808
 1003MOL0     H35368   9.347   2.337   3.878 -2.3091  0.6534  0.9963
 1003MOL0     H35369   9.241   2.130   3.383  1.3075 -1.5211 -1.3715
 1003MOL0     H35370   9.278   2.069   3.143 -0.7012 -0.0544 -0.2165
 1003MOL0     H35371   9.246   2.074   2.899  1.5028  0.6203  0.8553
 1003MOL0     H35372   9.159   2.232   2.907 -0.8680 -1.1035 -2.1769
 1003MOL0     H35373   9.193   2.193   2.691  0.1240  1.0270 -0.3084
 1003MOL0     H35374   9.295   2.320   2.742 -0.5883  0.6688  4.1692
 1003MOL0     H35375   9.376   2.015   2.703 -1.1390  0.1347  2.5974
 1003MOL0     H35376   9.496   2.129   2.755 -0.1223  0.0998  1.6005
 1003MOL0     H35377   9.351   2.179   2.497  0.8929 -1.0338 -2.1472
 1003MOL0     H35378   9.503   2.247   2.560 -1.4984  1.2276  3.0337
 1003MOL0     H35379   9.444   1.962   2.497 -1.2326  0.4299  0.1777
 1003MOL0     H35380   9.609   2.034   2.543  0.4441  1.2259 -0.1204
 1003MOL0     H35381   9.465   2.111   2.293  2.6784  4.7202 -0.9849
 1003MOL0     H35382   9.637   2.125   2.327 -1.9602  1.8685 -0.9390
 1003MOL0     H35383   9.483   1.870   2.260  0.8311 -0.7625 -1.6669
 1003MOL0     H35384   9.623   1.858   2.358  0.4751 -2.2855 -2.5860
 1003MOL0     H35385   9.669   1.807   2.145  1.2250  0.1290 -0.4142
 1003MOL0     H35386   9.762   1.943   2.173 -1.0630  4.5617  1.7711
 1003MOL0     H35387   9.425   2.480   3.089 -0.7680  0.4224 -0.6525
 1003MOL0     H35388   9.387   2.515   3.328 -2.5384 -1.2250  3.1461
 1003MOL0     H35389   8.894   2.458   3.567 -0.7840 -1.0721  1.2627
 1003MOL0     H35390   8.802   2.508   3.781 -1.2793 -3.8516  1.3680
 1003MOL0     H35391   8.647   3.293   5.334  0.0294 -1.2113 -0.4157
 1003MOL0     H35392   8.660   3.481   5.471 -0.3251 -2.3521  0.7010
 1003MOL0     H35393   9.117   3.667   5.916  0.0731  0.5567  0.2835
 1003MOL0     H35394   9.161   3.880   6.019 -1.7563 -4.3439  0.5208
 1003MOL0     H35395   9.070   4.269   5.780 -0.2108 -0.5234 -0.4546
 1003MOL0     H35396   8.921   4.240   5.849 -0.0058  2.3579 -0.3083
 1003MOL0     H35397   9.175   4.312   6.009  0.5265  0.3964  1.7706
 1003MOL0     H35398   9.009   4.298   6.075 -0.4416  2.2457  0.7838
 1003MOL0     H35399   8.928   4.487   5.958  0.5733  1.5514  0.2312
 1003MOL0     H35400   9.083   4.504   5.865 -0.7660  0.4247 -0.1007
 1003MOL0     H35401   9.193   4.560   6.088 -0.0115  2.9984 -2.5359
 1003MOL0     H35402   9.041   4.515   6.175 -0.3818 -0.4463 -0.9093
 1003MOL0     H35403   9.020   4.924   6.052 -1.5562  1.1865  0.5759
 1003MOL0     H35404   8.981   4.060   5.657  3.3966  2.1179  0.3805
 1003MOL0     H35405   8.938   3.833   5.576 -2.6778  0.3714 -0.2630
 1004MOL0     O35406   9.591   9.150   6.903 -0.2302 -0.7126 -0.1775
 1004MOL0     C35407   9.493   9.227   6.898  0.9262  0.3213 -0.6968
 1004MOL0     O35408   9.410   9.250   7.002  0.3740 -0.8215 -0.4029
 1004MOL0     C35409   9.407   9.183   7.117  0.5587 -0.1160 -0.4526
 1004MOL0     C35410   9.320   9.235   7.213 -0.3454 -0.7929 -0.5773
 1004MOL0     C35411   9.309   9.181   7.342 -0.0191 -0.8324 -0.3358
 1004MOL0     C35412   9.367   9.057   7.365 -0.6428  0.0414 -0.0533
 1004MOL0     O35413   9.335   9.005   7.486 -0.1622 -0.6949  0.3161
 1004MOL0     C35414   9.286   8.874   7.502 -0.3474 -0.2341  0.3873
 1004MOL0     C35415   9.397   8.784   7.569  0.0075  1.0162  1.0579
 1004MOL0     C35416   9.347   8.643   7.595 -0.2021  0.5086 -0.4693
 1004MOL0     C35417   9.413   8.579   7.711  0.0986  0.5929  0.2466
 1004MOL0     C35418   9.377   8.632   7.852  0.3066  0.3158  0.5762
 1004MOL0     C35419   9.438   8.537   7.957  0.2685 -0.3930  0.6513
 1004MOL0     C35420   9.415   8.584   8.106 -0.1046  0.2743 -0.2206
 1004MOL0     C35421   9.433   8.460   8.205 -0.0395  0.4661  0.1008
 1004MOL0     N35422   9.405   8.502   8.342  0.4773 -0.5532  0.9294
 1004MOL0     C35423   9.455   8.607   8.415  0.0173  0.3474 -0.4221
 1004MOL0     C35424   9.398   8.606   8.537  0.0650  0.6456  0.7936
 1004MOL0     C35425   9.427   8.685   8.658 -0.3378  1.0806 -0.3246
 1004MOL0     C35426   9.508   8.604   8.758 -0.1180  1.4755  0.7224
 1004MOL0     C35427   9.648   8.559   8.699  0.4797 -0.0846  0.2082
 1004MOL0     C35428   9.726   8.485   8.799 -0.7827 -0.3778 -0.1088
 1004MOL0     O35429   9.788   8.562   8.910 -0.1537 -0.8210  1.0862
 1004MOL0     C35430   9.803   8.513   9.032  0.1527  0.8557 -0.7611
 1004MOL0     C35431   9.790   8.375   9.066  0.1795  0.4898 -0.1833
 1004MOL0     C35432   9.827   8.324   9.185  0.1338 -0.3139 -0.5419
 1004MOL0     C35433   9.837   8.178   9.207  0.2718  0.1213 -0.0152
 1004MOL0     C35434   9.854   8.417   9.287  0.4898 -0.3915 -0.0858
 1004MOL0     C35435   9.895   8.366   9.413  0.1503 -0.1013 -0.1774
 1004MOL0     O35436  10.016   8.296   9.408  0.6883  0.1873  0.4736
 1004MOL0     C35437  10.081   8.277   9.525 -0.7107 -0.6233 -0.1721
 1004MOL0     C35438  10.083   8.361   9.636  0.0743  1.2454  0.1490
 1004MOL0     C35439  10.152   8.322   9.750 -0.6980  0.1166  0.6069
 1004MOL0     C35440  10.222   8.203   9.768  0.4369 -0.3400 -1.1190
 1004MOL0     O35441  10.257   8.158   9.898 -0.1068  0.2447 -0.5904
 1004MOL0     C35442  10.329   8.031   9.906  0.4259 -0.1083  0.4744
 1004MOL0     C35443  10.346   8.001  10.056  0.4187 -0.5285  0.5617
 1004MOL0     C35444  10.215   8.042  10.134  0.2407  0.0567 -1.0390
 1004MOL0     C35445  10.209   7.957  10.259  0.2186  0.7984 -0.8706
 1004MOL0     C35446  10.110   8.023  10.356  1.1861 -0.1434  0.3276
 1004MOL0     C35447   9.970   8.046  10.291  0.0901  1.2420  0.2826
 1004MOL0     C35448   9.873   8.117  10.386  0.0964 -0.4327 -0.3607
 1004MOL0     C35449   9.730   8.124  10.329 -1.1421 -0.5706 -1.4784
 1004MOL0    Cl35450   9.622   8.214  10.427 -0.3943  0.3240  0.1346
 1004MOL0     C35451  10.231   8.126   9.652 -0.9553 -0.2972 -0.0684
 1004MOL0     C35452  10.166   8.165   9.533 -0.2438 -0.1276 -0.4961
 1004MOL0     O35453   9.836   8.413   9.512  0.7929 -0.0712 -0.3776
 1004MOL0     C35454   9.839   8.560   9.267 -0.2728  0.8310  0.3758
 1004MOL0     C35455   9.833   8.598   9.136 -0.3119  0.0659  1.0809
 1004MOL0     N35456   9.319   8.492   8.550 -0.4126  0.4329  1.0783
 1004MOL0     N35457   9.309   8.446   8.425 -0.3045  0.2806  0.0477
 1004MOL0     C35458   9.457   9.008   7.281  0.1785 -0.3217  0.0885
 1004MOL0     C35459   9.483   9.075   7.160  0.0180  0.9111  1.2359
 1004MOL0     C35460   9.460   9.298   6.766 -1.0290 -0.2409 -0.1843
 1004MOL0     C35461   9.522   9.267   6.642  0.1656  0.4163  0.2270
 1004MOL0     C35462   9.489   9.329   6.527  0.6854  0.1866  0.5723
 1004MOL0     C35463   9.393   9.431   6.518  0.4792  0.4645 -0.2906
 1004MOL0     O35464   9.367   9.486   6.400  0.8648  0.1216 -1.1197
 1004MOL0     C35465   9.404   9.622   6.385  0.0236 -1.2608 -0.7592
 1004MOL0     C35466   9.291   9.719   6.336 -0.4290  0.3661 -0.7761
 1004MOL0     C35467   9.330   9.865   6.301 -0.3767 -0.3846 -0.7437
 1004MOL0     C35468   9.220   9.971   6.276  0.5217  0.2546  0.1442
 1004MOL0     C35469   9.291  10.095   6.250  0.2751  0.1622  0.6773
 1004MOL0     C35470   9.337  10.200   6.227  0.0637 -0.0601 -0.4322
 1004MOL0     C35471   9.340   9.469   6.643  0.3999 -0.4888  0.2259
 1004MOL0     C35472   9.363   9.399   6.762 -0.0393 -1.1105  1.3773
 1004MOL0     H35473   9.280   9.330   7.179 -0.9035 -0.6263  0.5089
 1004MOL0     H35474   9.265   9.226   7.430  1.9062  0.4536  0.0230
 1004MOL0     H35475   9.196   8.871   7.565 -0.0438  0.8854  0.8902
 1004MOL0     H35476   9.263   8.839   7.401  1.2144 -2.7138  0.7985
 1004MOL0     H35477   9.488   8.782   7.509  0.0432 -0.4095  1.1281
 1004MOL0     H35478   9.430   8.831   7.662  0.3980  0.4917  1.1876
 1004MOL0     H35479   9.240   8.644   7.617  0.1246 -1.2525  1.4920
 1004MOL0     H35480   9.370   8.574   7.513  1.6008  0.8982 -0.3343
 1004MOL0     H35481   9.373   8.477   7.714  0.9263  0.2916  2.3166
 1004MOL0     H35482   9.522   8.571   7.713  0.0407 -0.0309  1.5684
 1004MOL0     H35483   9.417   8.734   7.861 -1.0525  1.0035 -0.6718
 1004MOL0     H35484   9.270   8.647   7.871  0.7560  1.5154  2.5041
 1004MOL0     H35485   9.394   8.438   7.961  0.3508 -0.3863  2.5079
 1004MOL0     H35486   9.546   8.536   7.939  0.8138  1.0937  3.3006
 1004MOL0     H35487   9.493   8.659   8.125 -1.1748  1.4643 -0.4382
 1004MOL0     H35488   9.310   8.611   8.118 -0.1379 -0.2166  0.7047
 1004MOL0     H35489   9.532   8.416   8.194 -1.2723 -1.8972 -3.0772
 1004MOL0     H35490   9.368   8.377   8.176 -1.8494  1.1487  1.9632
 1004MOL0     H35491   9.510   8.689   8.371  1.5656 -0.7007 -0.5051
 1004MOL0     H35492   9.461   8.787   8.636 -1.1777  1.5480  0.4542
 1004MOL0     H35493   9.326   8.702   8.697  0.6492 -1.8015  4.2078
 1004MOL0     H35494   9.450   8.515   8.785  1.7679  0.0739  0.3734
 1004MOL0     H35495   9.526   8.662   8.849  1.9870  0.1399  1.2189
 1004MOL0     H35496   9.708   8.648   8.678  3.3321 -0.3300  5.5419
 1004MOL0     H35497   9.642   8.495   8.610  2.9354  0.8608 -0.7110
 1004MOL0     H35498   9.814   8.442   8.749 -0.6079 -3.1515  2.2431
 1004MOL0     H35499   9.662   8.404   8.837  0.0742  0.6018  3.9833
 1004MOL0     H35500   9.765   8.305   8.986 -2.4266  2.9780 -1.7404
 1004MOL0     H35501   9.929   8.156   9.262  0.0188  0.2368  0.4652
 1004MOL0     H35502   9.759   8.153   9.280  0.0722  3.7106  1.2020
 1004MOL0     H35503   9.830   8.124   9.113  1.1275  1.6594 -0.9946
 1004MOL0     H35504  10.032   8.457   9.636 -0.0554  1.1868  1.0209
 1004MOL0     H35505  10.161   8.388   9.836  0.2211 -0.4570  0.9724
 1004MOL0     H35506  10.287   7.944   9.854  0.7901 -0.3949  0.6556
 1004MOL0     H35507  10.428   8.050   9.865 -0.0501  2.3551  0.3373
 1004MOL0     H35508  10.359   7.893  10.072 -5.3442 -1.6862 -0.3711
 1004MOL0     H35509  10.432   8.055  10.097  0.3141 -0.6327  0.9221
 1004MOL0     H35510  10.125   8.034  10.072  0.4963 -1.9807 -1.2156
 1004MOL0     H35511  10.222   8.147  10.166 -1.1847  0.2548 -1.3110
 1004MOL0     H35512  10.186   7.851  10.252 -1.2371  0.5981  3.9507
 1004MOL0     H35513  10.308   7.971  10.304 -1.1912  0.7454  2.4817
 1004MOL0     H35514  10.153   8.118  10.390 -1.5230  0.8027  1.3815
 1004MOL0     H35515  10.105   7.951  10.438  0.4570 -0.6953 -0.1862
 1004MOL0     H35516   9.974   8.100  10.196 -1.1372 -1.6144 -1.5438
 1004MOL0     H35517   9.934   7.946  10.264  1.9666 -0.2612  2.8582
 1004MOL0     H35518   9.918   8.216  10.398  2.3759 -1.6323  2.1215
 1004MOL0     H35519   9.853   8.066  10.481  0.0777 -0.2890 -0.2876
 1004MOL0     H35520   9.692   8.021  10.325 -0.4581 -0.8541 -0.9486
 1004MOL0     H35521   9.733   8.171  10.230  0.3080  1.6180 -0.4708
 1004MOL0     H35522  10.296   8.039   9.646 -2.2428 -1.2203 -1.4052
 1004MOL0     H35523  10.187   8.119   9.437 -0.1522  1.9970 -1.5658
 1004MOL0     H35524   9.859   8.630   9.347 -1.5423 -1.2601  2.6408
 1004MOL0     H35525   9.862   8.702   9.120  1.2142 -0.5491 -0.3921
 1004MOL0     H35526   9.517   8.920   7.301 -1.6230 -1.8295 -0.8109
 1004MOL0     H35527   9.552   9.026   7.092  0.7004  0.5710  2.1480
 1004MOL0     H35528   9.598   9.190   6.634 -2.0047 -1.8897  0.8372
 1004MOL0     H35529   9.543   9.303   6.436 -0.1538 -3.5113  0.9776
 1004MOL0     H35530   9.445   9.649   6.483  2.4818  0.3251 -2.1089
 1004MOL0     H35531   9.481   9.619   6.307  0.0028 -3.1025 -0.7519
 1004MOL0     H35532   9.213   9.722   6.413  0.7947  3.7634  0.5433
 1004MOL0     H35533   9.249   9.676   6.244 -2.4408  0.8302 -0.1279
 1004MOL0     H35534   9.390   9.861   6.209 -1.6493  1.7307 -1.7662
 1004MOL0     H35535   9.400   9.900   6.377  1.8816 -0.1377 -2.8328
 1004MOL0     H35536   9.142   9.981   6.352 -0.7835  0.0512 -1.1265
 1004MOL0     H35537   9.153   9.933   6.198 -0.0506  3.0580 -0.8370
 1004MOL0     H35538   9.386  10.295   6.219  0.4968 -0.1290  1.1223
 1004MOL0     H35539   9.262   9.544   6.647  0.1264 -0.7448 -0.1218
 1004MOL0     H35540   9.307   9.419   6.853 -1.5893 -1.8964  0.6463
 1005MOL0     O35541   2.679   2.521   0.893 -1.0906 -0.1818  0.1857
 1005MOL0     C35542   2.743   2.589   0.810  0.0277  0.9117  0.0344
 1005MOL0     O35543   2.772   2.551   0.682 -0.0367 -0.4091 -0.1333
 1005MOL0     C35544   2.716   2.439   0.639 -0.3606  0.0351  0.2884
 1005MOL0     C35545   2.765   2.316   0.682  0.1428 -0.0497  0.0643
 1005MOL0     C35546   2.696   2.197   0.662  0.6258 -0.0952 -0.0666
 1005MOL0     C35547   2.581   2.189   0.578  0.2013 -0.0849  1.6366
 1005MOL0     O35548   2.505   2.072   0.550  0.0969 -0.6470 -0.2574
 1005MOL0     C35549   2.589   1.954   0.543 -1.3968  0.6060 -0.2977
 1005MOL0     C35550   2.545   1.843   0.441  0.2019 -1.3444  0.0342
 1005MOL0     C35551   2.579   1.897   0.293 -0.4163 -0.1927  0.3721
 1005MOL0     C35552   2.542   1.803   0.181  1.3938 -0.7585 -0.7261
 1005MOL0     C35553   2.572   1.846   0.033 -0.2637 -0.1337  0.4773
 1005MOL0     C35554   2.466   1.935  -0.023  0.5891  0.0242 -0.0158
 1005MOL0     C35555   2.369   1.850  -0.108  0.2591  0.4332  0.6469
 1005MOL0     C35556   2.223   1.901  -0.090  0.4872  0.5746  0.5475
 1005MOL0     N35557   2.118   1.800  -0.134  0.2980 -1.5047 -0.4915
 1005MOL0     C35558   2.148   1.697  -0.218  0.4226 -0.4305 -0.1024
 1005MOL0     C35559   2.035   1.660  -0.279 -0.0259 -0.6119 -0.8694
 1005MOL0     C35560   2.020   1.549  -0.381  0.2986  0.6175 -0.5214
 1005MOL0     C35561   2.053   1.597  -0.517  0.8427 -0.0022 -0.2185
 1005MOL0     C35562   1.953   1.707  -0.556 -0.0254 -0.3487  0.1600
 1005MOL0     C35563   1.959   1.748  -0.702  0.7642 -0.3155 -0.2453
 1005MOL0     O35564   2.056   1.859  -0.716  0.0760  0.6219  0.7686
 1005MOL0     C35565   2.101   1.884  -0.844  0.0935  0.2912 -0.9518
 1005MOL0     C35566   2.214   1.962  -0.854 -0.5642 -1.9062  1.1066
 1005MOL0     C35567   2.283   1.977  -0.975  0.3750 -0.8685  0.6464
 1005MOL0     C35568   2.393   2.066  -0.979 -0.2828  0.3529  0.0047
 1005MOL0     C35569   2.224   1.908  -1.090 -0.1428  0.0444 -0.1929
 1005MOL0     C35570   2.294   1.910  -1.218  0.4895  0.5750  0.6434
 1005MOL0     O35571   2.208   1.927  -1.325  0.0396 -0.1617 -0.3896
 1005MOL0     C35572   2.266   1.912  -1.447 -0.2640 -0.6102  0.4677
 1005MOL0     C35573   2.232   1.799  -1.515  0.3317 -0.6917 -0.0217
 1005MOL0     C35574   2.301   1.774  -1.637 -0.1009  0.4342  0.6715
 1005MOL0     C35575   2.414   1.843  -1.672  0.5298 -0.3867 -0.0899
 1005MOL0     O35576   2.487   1.789  -1.777 -0.5111 -0.0270 -0.0310
 1005MOL0     C35577   2.625   1.830  -1.804  0.6069 -0.1819  0.3578
 1005MOL0     C35578   2.623   1.952  -1.893  0.6119 -0.1916  0.3120
 1005MOL0     C35579   2.754   1.967  -1.980  0.4934 -0.8019 -0.9401
 1005MOL0     C35580   2.890   2.000  -1.912 -0.9194  0.0746  1.1421
 1005MOL0     C35581   3.000   2.008  -2.022  0.0850  0.0781 -0.3521
 1005MOL0     C35582   2.986   2.100  -2.137  0.3156 -0.1066 -0.1205
 1005MOL0     C35583   3.113   2.152  -2.188  0.2856 -0.2199  0.0635
 1005MOL0     C35584   3.100   2.258  -2.299  0.0990 -0.8396  0.4550
 1005MOL0    Cl35585   3.247   2.354  -2.305 -0.2246 -0.1505 -0.2775
 1005MOL0     C35586   2.449   1.959  -1.592 -0.0343  1.3867 -0.4071
 1005MOL0     C35587   2.371   1.993  -1.485  0.5823  0.2696  0.0843
 1005MOL0     O35588   2.410   1.871  -1.222  0.2791 -0.5165  0.6300
 1005MOL0     C35589   2.093   1.853  -1.078 -0.4152  0.3373  0.3634
 1005MOL0     C35590   2.031   1.848  -0.961  0.1046 -0.8738 -0.1460
 1005MOL0     N35591   1.939   1.738  -0.216 -0.3984 -0.7757 -0.2781
 1005MOL0     N35592   1.995   1.836  -0.151  1.3498  0.4911 -0.0357
 1005MOL0     C35593   2.533   2.315   0.527 -0.2596  0.3706 -0.1688
 1005MOL0     C35594   2.607   2.436   0.550 -1.8993  0.0920 -0.3472
 1005MOL0     C35595   2.774   2.734   0.837  0.4867  0.0846  0.2468
 1005MOL0     C35596   2.700   2.817   0.916 -0.4997  0.0543  0.2832
 1005MOL0     C35597   2.729   2.948   0.933 -0.2956  0.0494  0.3183
 1005MOL0     C35598   2.838   3.004   0.869  0.5376 -0.3418  0.0487
 1005MOL0     O35599   2.859   3.128   0.915 -0.6170 -0.2798 -0.2281
 1005MOL0     C35600   3.001   3.162   0.922 -0.5201 -0.3452 -0.5358
 1005MOL0     C35601   3.068   3.238   0.804  0.4382  0.4462  0.1129
 1005MOL0     C35602   3.020   3.382   0.777 -0.2540  0.2822 -0.9917
 1005MOL0     C35603   2.936   3.394   0.653  0.3128 -0.4012 -0.6477
 1005MOL0     C35604   2.811   3.311   0.655  0.5441 -0.8990  0.3224
 1005MOL0     C35605   2.717   3.235   0.629  0.3819  0.7969 -0.4134
 1005MOL0     C35606   2.917   2.921   0.782 -1.0460 -0.2587 -0.4442
 1005MOL0     C35607   2.882   2.786   0.769  0.0939 -1.4869  0.5985
 1005MOL0     H35608   2.852   2.304   0.746  0.1926  1.2944  0.2697
 1005MOL0     H35609   2.754   2.112   0.697  2.1275  0.6572 -0.6411
 1005MOL0     H35610   2.692   1.976   0.511 -0.0091 -2.4380  1.5482
 1005MOL0     H35611   2.598   1.902   0.639  0.4636 -2.8322 -2.1070
 1005MOL0     H35612   2.603   1.754   0.466  2.0522 -0.0326  0.6050
 1005MOL0     H35613   2.442   1.810   0.458 -1.0498  0.2742 -3.3322
 1005MOL0     H35614   2.517   1.986   0.280 -0.0726  0.0110  0.1171
 1005MOL0     H35615   2.684   1.927   0.284  0.0531 -1.9483 -0.3867
 1005MOL0     H35616   2.603   1.712   0.188  0.8318 -1.4118 -3.3205
 1005MOL0     H35617   2.435   1.784   0.185  1.4927 -1.2807 -0.5193
 1005MOL0     H35618   2.667   1.900   0.031  1.5667 -2.8760 -4.4746
 1005MOL0     H35619   2.603   1.765  -0.034  2.4199  2.3261 -1.5341
 1005MOL0     H35620   2.412   1.986   0.057  2.2026  1.6497  0.1210
 1005MOL0     H35621   2.515   2.012  -0.084 -0.3834  0.6186 -0.0682
 1005MOL0     H35622   2.391   1.853  -0.215 -0.7111  1.5640  0.4605
 1005MOL0     H35623   2.373   1.749  -0.066  0.0156  0.5057  0.8471
 1005MOL0     H35624   2.240   1.995  -0.142  0.5833  0.6992  0.7993
 1005MOL0     H35625   2.190   1.931   0.010 -0.8988  1.4546 -0.1509
 1005MOL0     H35626   2.242   1.649  -0.245  0.6707  1.2934 -2.6881
 1005MOL0     H35627   2.079   1.462  -0.349 -0.7930  1.0856  3.2169
 1005MOL0     H35628   1.918   1.510  -0.374 -0.1772  2.0762  2.5528
 1005MOL0     H35629   2.063   1.516  -0.590  1.0074 -0.6235  0.4743
 1005MOL0     H35630   2.153   1.642  -0.520  2.9709 -3.9124  2.2800
 1005MOL0     H35631   1.967   1.806  -0.510 -0.4406  0.6028 -1.6789
 1005MOL0     H35632   1.852   1.680  -0.524  0.1332  0.6195  1.5535
 1005MOL0     H35633   1.859   1.774  -0.739  0.4413 -0.1435  0.7335
 1005MOL0     H35634   1.994   1.660  -0.757 -1.5636 -1.4982  0.0356
 1005MOL0     H35635   2.254   1.995  -0.758  0.0505  4.8942 -1.0209
 1005MOL0     H35636   2.484   2.014  -1.009  0.7959  1.6516  0.9007
 1005MOL0     H35637   2.378   2.153  -1.044 -0.2302  0.5172  0.2090
 1005MOL0     H35638   2.417   2.107  -0.880  1.0055  1.3771 -0.6955
 1005MOL0     H35639   2.166   1.720  -1.479 -0.1268 -2.6446 -4.5376
 1005MOL0     H35640   2.270   1.689  -1.697  3.3163  0.2264 -1.0324
 1005MOL0     H35641   2.688   1.853  -1.718  1.5043  4.0017 -1.1851
 1005MOL0     H35642   2.672   1.746  -1.857 -0.0574  1.0319 -2.2927
 1005MOL0     H35643   2.536   1.939  -1.958 -0.0410  3.5790  0.2103
 1005MOL0     H35644   2.607   2.048  -1.843  1.7680  0.9551 -1.4188
 1005MOL0     H35645   2.737   2.049  -2.050  0.1879  1.2000  1.3647
 1005MOL0     H35646   2.763   1.878  -2.044  0.2483 -0.5086 -1.3868
 1005MOL0     H35647   2.879   2.093  -1.856  1.9780  1.5848 -0.5309
 1005MOL0     H35648   2.914   1.930  -1.832  0.7361  1.9385  2.3427
 1005MOL0     H35649   3.025   1.909  -2.063 -3.9582 -2.2585  2.1316
 1005MOL0     H35650   3.085   2.049  -1.966 -1.7151 -0.1847  2.8480
 1005MOL0     H35651   2.925   2.048  -2.212 -0.6823  0.3324  0.3699
 1005MOL0     H35652   2.922   2.184  -2.112 -0.2428 -0.7965  0.8136
 1005MOL0     H35653   3.177   2.076  -2.234  0.1696 -1.4598  1.8711
 1005MOL0     H35654   3.153   2.203  -2.100 -1.9101  1.7948 -0.0084
 1005MOL0     H35655   3.018   2.321  -2.264  0.3940  1.1600 -2.1388
 1005MOL0     H35656   3.069   2.213  -2.394  0.5015 -1.0747  0.4320
 1005MOL0     H35657   2.545   2.010  -1.601  1.8069 -1.5980  0.5375
 1005MOL0     H35658   2.381   2.083  -1.425  0.9579 -2.1837  4.0638
 1005MOL0     H35659   2.043   1.805  -1.162 -0.8645 -2.2096  1.9836
 1005MOL0     H35660   1.938   1.793  -0.957 -0.4541 -0.0876 -1.6564
 1005MOL0     H35661   2.450   2.302   0.459  1.5735  2.6319 -3.1289
 1005MOL0     H35662   2.587   2.539   0.522 -1.4031  0.1668 -0.4382
 1005MOL0     H35663   2.622   2.763   0.969 -0.7847  0.5269  0.3490
 1005MOL0     H35664   2.658   3.005   0.992 -1.0342 -2.8917  2.5292
 1005MOL0     H35665   3.019   3.233   1.004 -2.3313 -1.1550  0.6285
 1005MOL0     H35666   3.054   3.070   0.948 -1.1743 -0.7797 -0.7183
 1005MOL0     H35667   3.042   3.181   0.714 -0.8214  2.7570 -1.0709
 1005MOL0     H35668   3.174   3.228   0.832  0.6378 -1.3211 -1.0722
 1005MOL0     H35669   3.112   3.437   0.754  0.7962 -2.3916 -3.8596
 1005MOL0     H35670   2.969   3.416   0.868  0.8574  0.0687 -0.2652
 1005MOL0     H35671   2.987   3.377   0.558  0.1155  1.6632 -1.1752
 1005MOL0     H35672   2.920   3.502   0.652  0.7604 -0.3351 -0.5949
 1005MOL0     H35673   2.635   3.172   0.603 -0.9111  2.1737  0.1728
 1005MOL0     H35674   3.010   2.953   0.738 -0.0681 -2.8981 -0.4729
 1005MOL0     H35675   2.934   2.723   0.698 -0.6079 -1.7598  0.3182
 1006MOL0     O35676   7.527   4.788   6.590  0.0590 -0.5791  0.5900
 1006MOL0     C35677   7.441   4.871   6.590 -0.8155 -0.2342  0.8635
 1006MOL0     O35678   7.341   4.883   6.493  0.2018 -0.0725 -0.5313
 1006MOL0     C35679   7.332   4.800   6.388 -1.0440  0.3458 -0.0036
 1006MOL0     C35680   7.223   4.718   6.364  0.6238  0.1929 -0.7969
 1006MOL0     C35681   7.222   4.613   6.272 -0.3795 -0.3138  0.4214
 1006MOL0     C35682   7.336   4.616   6.181  0.1404 -0.2902  0.6212
 1006MOL0     O35683   7.338   4.521   6.082 -0.2577 -0.4091 -0.3153
 1006MOL0     C35684   7.321   4.552   5.941 -1.0824 -0.4267  0.1560
 1006MOL0     C35685   7.457   4.548   5.879 -0.1872 -0.0456  0.0510
 1006MOL0     C35686   7.449   4.558   5.732 -0.9872 -0.3308 -0.5622
 1006MOL0     C35687   7.579   4.611   5.675 -0.5032  1.1758  0.5946
 1006MOL0     C35688   7.563   4.666   5.530  0.3005  0.3265 -0.1662
 1006MOL0     C35689   7.552   4.819   5.549 -0.9729  0.1011  0.9749
 1006MOL0     C35690   7.544   4.885   5.412  0.8808  0.2747 -0.5073
 1006MOL0     C35691   7.565   5.036   5.418 -0.1166  0.3032  0.1296
 1006MOL0     N35692   7.532   5.120   5.293  0.0521  0.5199 -0.4828
 1006MOL0     C35693   7.400   5.124   5.255  0.1610 -0.0457 -0.8843
 1006MOL0     C35694   7.413   5.206   5.146  1.1249  0.0850  0.3357
 1006MOL0     C35695   7.289   5.255   5.069 -0.9119  0.0730 -0.0211
 1006MOL0     C35696   7.208   5.366   5.135  0.8389 -0.6521 -0.1046
 1006MOL0     C35697   7.144   5.332   5.273 -0.2850  0.3265  0.3959
 1006MOL0     C35698   7.042   5.208   5.284 -0.9550 -0.5253 -0.1493
 1006MOL0     O35699   6.938   5.207   5.178  0.1838 -0.9872 -0.5004
 1006MOL0     C35700   6.841   5.305   5.187  0.5987  0.6095  0.1834
 1006MOL0     C35701   6.742   5.299   5.286  0.7582 -0.2866 -0.1975
 1006MOL0     C35702   6.637   5.395   5.301 -0.8862  1.1150 -0.8742
 1006MOL0     C35703   6.519   5.377   5.404 -0.1492  0.1107  0.5173
 1006MOL0     C35704   6.636   5.491   5.205  0.4645 -0.5058  0.8439
 1006MOL0     C35705   6.533   5.603   5.219 -0.4307 -0.4464 -1.0295
 1006MOL0     O35706   6.570   5.716   5.272 -0.4304 -0.0134 -0.5458
 1006MOL0     C35707   6.701   5.753   5.302 -0.3165 -0.5488 -0.6772
 1006MOL0     C35708   6.742   5.745   5.435 -0.9690  0.0475 -0.0929
 1006MOL0     C35709   6.880   5.768   5.472 -0.4771  0.5881 -0.0731
 1006MOL0     C35710   6.978   5.784   5.372 -0.6440  0.2225  0.4112
 1006MOL0     O35711   7.110   5.814   5.398  0.7776  0.3776  0.0200
 1006MOL0     C35712   7.174   5.923   5.345  0.3485  0.3122 -1.3294
 1006MOL0     C35713   7.323   5.875   5.333  0.1849  0.3781 -0.7140
 1006MOL0     C35714   7.424   5.974   5.259  0.3266  0.0649 -0.2977
 1006MOL0     C35715   7.430   6.114   5.326 -0.2022 -0.7104 -0.1526
 1006MOL0     C35716   7.521   6.142   5.450  0.6517  0.6274 -0.3284
 1006MOL0     C35717   7.673   6.094   5.434  0.1773 -0.4567  0.0758
 1006MOL0     C35718   7.745   6.150   5.558 -0.4304 -0.6239 -0.5038
 1006MOL0     C35719   7.893   6.096   5.572  0.3324 -0.4508 -0.3999
 1006MOL0    Cl35720   8.008   6.193   5.467  0.1945 -0.1278 -0.0102
 1006MOL0     C35721   6.932   5.785   5.234  0.2273  0.2592 -0.8420
 1006MOL0     C35722   6.793   5.774   5.202  0.0074  0.1946 -0.8217
 1006MOL0     O35723   6.423   5.594   5.168 -0.4088  0.6710 -0.2890
 1006MOL0     C35724   6.719   5.478   5.089 -0.1699  1.1682  0.0378
 1006MOL0     C35725   6.832   5.391   5.084  0.5347 -0.3385  0.5097
 1006MOL0     N35726   7.547   5.247   5.128  0.9297 -0.4991  0.2794
 1006MOL0     N35727   7.620   5.196   5.216  0.2733 -0.4385  0.1812
 1006MOL0     C35728   7.445   4.696   6.203  1.2523 -0.3663 -0.3606
 1006MOL0     C35729   7.439   4.794   6.307 -1.1697  1.1275 -0.0446
 1006MOL0     C35730   7.431   4.970   6.703 -0.6296  0.5233  0.7203
 1006MOL0     C35731   7.519   4.965   6.806  0.6984  0.5722 -0.0375
 1006MOL0     C35732   7.525   5.064   6.905 -0.8044 -0.7730 -0.0667
 1006MOL0     C35733   7.439   5.170   6.905  0.7135  0.0087  0.1498
 1006MOL0     O35734   7.439   5.257   7.008 -0.9768  0.7710  0.1505
 1006MOL0     C35735   7.469   5.384   6.959 -0.5733  0.8334 -0.6699
 1006MOL0     C35736   7.493   5.488   7.067 -1.4213 -0.4562 -0.8400
 1006MOL0     C35737   7.638   5.488   7.122 -0.8195  0.5243  0.1208
 1006MOL0     C35738   7.642   5.570   7.247 -0.9599  0.6649 -0.3950
 1006MOL0     C35739   7.629   5.710   7.217 -0.1981 -0.2193  1.1093
 1006MOL0     C35740   7.594   5.817   7.189  0.7183 -0.1849  0.4956
 1006MOL0     C35741   7.348   5.184   6.802 -0.9273 -1.1925  0.4047
 1006MOL0     C35742   7.344   5.082   6.712  0.8123 -0.1971 -0.1885
 1006MOL0     H35743   7.133   4.725   6.424  0.6540 -1.4366 -0.5118
 1006MOL0     H35744   7.138   4.548   6.252  0.0519 -1.3830  1.9429
 1006MOL0     H35745   7.257   4.467   5.918  0.1382 -1.8156  1.6112
 1006MOL0     H35746   7.275   4.650   5.925 -1.2760 -0.1549  2.1883
 1006MOL0     H35747   7.524   4.620   5.925 -0.0268 -0.3730  0.3394
 1006MOL0     H35748   7.507   4.453   5.902  0.4274  0.2604 -0.0263
 1006MOL0     H35749   7.416   4.461   5.693 -0.1339  0.1453 -2.6336
 1006MOL0     H35750   7.386   4.641   5.700  3.2863  3.5484  0.0064
 1006MOL0     H35751   7.633   4.686   5.734  0.4472  1.3317 -0.4304
 1006MOL0     H35752   7.645   4.525   5.659  0.1550  2.0041 -1.5008
 1006MOL0     H35753   7.653   4.621   5.487 -0.4280 -2.6432  1.1303
 1006MOL0     H35754   7.483   4.614   5.475 -0.3726  0.0432  1.0518
 1006MOL0     H35755   7.461   4.855   5.599  0.2184 -1.3913  4.4919
 1006MOL0     H35756   7.631   4.860   5.613 -0.1517 -1.9093  1.3251
 1006MOL0     H35757   7.603   4.829   5.339  0.0344 -0.6211 -0.5311
 1006MOL0     H35758   7.442   4.870   5.376  0.8001 -0.3423 -0.0342
 1006MOL0     H35759   7.672   5.033   5.444  0.0039 -1.5616 -0.4463
 1006MOL0     H35760   7.514   5.073   5.507  0.0518 -1.5514  1.0531
 1006MOL0     H35761   7.322   5.084   5.319  1.8584 -0.6684  0.8965
 1006MOL0     H35762   7.323   5.282   4.968  0.2162  4.2368  1.2786
 1006MOL0     H35763   7.231   5.163   5.064  3.3396 -2.8668 -1.9556
 1006MOL0     H35764   7.127   5.381   5.063 -2.5050 -0.6775  3.3044
 1006MOL0     H35765   7.270   5.456   5.134 -0.2199  0.1172  0.9391
 1006MOL0     H35766   7.072   5.412   5.294 -0.8726 -0.1740  0.3211
 1006MOL0     H35767   7.220   5.338   5.351 -2.2691  1.1436  2.3738
 1006MOL0     H35768   6.998   5.208   5.384  0.2821  0.6038  0.4294
 1006MOL0     H35769   7.094   5.113   5.267 -2.0413 -0.9584 -1.2068
 1006MOL0     H35770   6.755   5.213   5.350 -0.0786 -0.5747 -0.3961
 1006MOL0     H35771   6.522   5.280   5.455 -0.0360 -0.5337 -0.6831
 1006MOL0     H35772   6.525   5.454   5.481  1.7709 -2.3252  3.0155
 1006MOL0     H35773   6.421   5.375   5.355  0.9606 -1.7860 -1.8205
 1006MOL0     H35774   6.662   5.729   5.507 -2.8307  0.2804 -2.0058
 1006MOL0     H35775   6.912   5.769   5.575 -0.5744 -2.1985  0.0597
 1006MOL0     H35776   7.161   5.946   5.239 -1.4410  0.1521 -1.1732
 1006MOL0     H35777   7.164   6.016   5.401  1.6306  1.8829 -3.5552
 1006MOL0     H35778   7.368   5.859   5.431  0.1208 -3.2292 -1.1189
 1006MOL0     H35779   7.323   5.778   5.282 -1.5629  0.1140 -0.2791
 1006MOL0     H35780   7.376   5.969   5.161 -1.7221  0.5118  0.6431
 1006MOL0     H35781   7.524   5.929   5.253  0.7649  0.5578  2.1714
 1006MOL0     H35782   7.464   6.180   5.245  1.5571  2.2375  2.7164
 1006MOL0     H35783   7.332   6.146   5.362  0.2089  1.3119 -0.6545
 1006MOL0     H35784   7.464   6.092   5.529  0.3621  2.4188  0.6568
 1006MOL0     H35785   7.517   6.250   5.468 -0.9370  1.2482 -3.6076
 1006MOL0     H35786   7.669   5.985   5.439  1.3203 -0.7055 -2.7434
 1006MOL0     H35787   7.719   6.120   5.338  1.1457 -3.0132 -0.2214
 1006MOL0     H35788   7.686   6.126   5.646  0.1132 -3.7475 -0.8841
 1006MOL0     H35789   7.747   6.259   5.549  0.0948 -0.7517 -2.4070
 1006MOL0     H35790   7.904   5.999   5.522 -5.2092 -1.2067 -0.8469
 1006MOL0     H35791   7.915   6.093   5.679  2.5621 -3.5411 -0.8150
 1006MOL0     H35792   7.000   5.785   5.149 -1.3493  0.3043 -2.1420
 1006MOL0     H35793   6.763   5.762   5.099 -1.2357  1.1922 -0.6027
 1006MOL0     H35794   6.716   5.543   5.003 -0.3699 -0.2392 -1.0478
 1006MOL0     H35795   6.904   5.384   5.003  3.6330 -1.2253  3.0777
 1006MOL0     H35796   7.536   4.700   6.144  0.1672  4.0740 -2.1380
 1006MOL0     H35797   7.526   4.859   6.302 -0.0797 -0.3591 -1.0079
 1006MOL0     H35798   7.596   4.889   6.809  2.3410  2.1663 -0.2109
 1006MOL0     H35799   7.597   5.054   6.985 -1.8510  2.7762  1.5456
 1006MOL0     H35800   7.563   5.383   6.904 -0.2012 -0.3908 -0.0495
 1006MOL0     H35801   7.382   5.418   6.903 -0.3181 -1.9820 -2.9756
 1006MOL0     H35802   7.429   5.476   7.155  1.1170  0.5834  1.2574
 1006MOL0     H35803   7.472   5.591   7.037 -0.4518  0.6774  2.0336
 1006MOL0     H35804   7.686   5.529   7.033 -4.0206 -3.3565 -3.8653
 1006MOL0     H35805   7.688   5.391   7.132 -1.6045  0.0941 -0.0428
 1006MOL0     H35806   7.745   5.556   7.281 -1.5902  0.2045  1.4571
 1006MOL0     H35807   7.580   5.532   7.329 -1.4635  0.3881 -0.8898
 1006MOL0     H35808   7.548   5.914   7.184 -0.1605 -0.6481 -1.0698
 1006MOL0     H35809   7.275   5.264   6.796 -0.1688 -0.4486  0.9172
 1006MOL0     H35810   7.277   5.094   6.628  3.6269  3.2108 -2.2289
 1007MOL0     O35811   9.278   1.625   8.686 -0.4158 -0.3922  0.2687
 1007MOL0     C35812   9.225   1.521   8.642  1.1598 -0.1429  0.4655
 1007MOL0     O35813   9.264   1.387   8.674 -0.4093  0.4192 -1.1907
 1007MOL0     C35814   9.384   1.381   8.740 -0.3985 -0.8787 -0.5724
 1007MOL0     C35815   9.385   1.338   8.875 -0.3996 -0.1881 -0.1154
 1007MOL0     C35816   9.515   1.320   8.941 -0.5530  0.4450  1.3198
 1007MOL0     C35817   9.640   1.349   8.882 -0.5911 -0.0381 -0.0055
 1007MOL0     O35818   9.762   1.330   8.942  0.3216  0.3783  0.2543
 1007MOL0     C35819   9.794   1.200   8.995  0.3950  0.0374 -0.3239
 1007MOL0     C35820   9.906   1.147   8.898  1.0101 -0.1983  0.0806
 1007MOL0     C35821   9.846   1.099   8.769  0.4284  0.6598  0.4509
 1007MOL0     C35822   9.934   0.989   8.703 -0.3526  0.0505  0.1726
 1007MOL0     C35823   9.864   0.943   8.566  0.5460  0.4455  0.1669
 1007MOL0     C35824   9.878   1.047   8.459 -0.2654 -0.3157 -0.1966
 1007MOL0     C35825   9.807   1.005   8.335 -0.1438  0.1865 -0.0359
 1007MOL0     C35826   9.812   1.133   8.244 -0.4878 -0.8533  0.5346
 1007MOL0     N35827   9.703   1.233   8.253 -0.2991 -0.3468 -0.4927
 1007MOL0     C35828   9.598   1.222   8.168 -0.2218  0.1972  0.1676
 1007MOL0     C35829   9.514   1.307   8.226  0.4003  0.0616  1.0335
 1007MOL0     C35830   9.377   1.334   8.181  0.9098  0.4694 -0.4569
 1007MOL0     C35831   9.339   1.483   8.206  0.4286  0.0366  0.5286
 1007MOL0     C35832   9.363   1.579   8.084  0.1053  0.7447 -0.6953
 1007MOL0     C35833   9.346   1.726   8.120  0.0981  0.3484  0.0087
 1007MOL0     O35834   9.214   1.775   8.133  0.4106 -0.0527 -0.2171
 1007MOL0     C35835   9.198   1.901   8.189  0.4860  0.9094  0.1943
 1007MOL0     C35836   9.290   1.986   8.242  0.2014  0.0234  0.9573
 1007MOL0     C35837   9.259   2.108   8.301 -0.5391 -0.3270  0.1020
 1007MOL0     C35838   9.366   2.212   8.340  0.8259 -0.3501 -0.0442
 1007MOL0     C35839   9.115   2.140   8.316  0.2768  0.7577 -0.0426
 1007MOL0     C35840   9.059   2.269   8.355  0.2955 -0.4622  0.5337
 1007MOL0     O35841   8.988   2.285   8.463  0.4741 -0.9097 -0.0011
 1007MOL0     C35842   8.995   2.185   8.563 -0.2375 -0.6324 -0.1111
 1007MOL0     C35843   9.107   2.185   8.657  0.7178  0.9894  0.1032
 1007MOL0     C35844   9.103   2.101   8.767  0.3774  0.3899  0.1014
 1007MOL0     C35845   8.981   2.026   8.786 -0.6654  0.1574 -0.6502
 1007MOL0     O35846   8.983   1.940   8.892 -0.0698 -0.2606  0.6556
 1007MOL0     C35847   9.057   1.825   8.853  0.5192  0.8633 -0.3606
 1007MOL0     C35848   9.125   1.764   8.979  0.1425  0.1980 -0.3767
 1007MOL0     C35849   9.038   1.748   9.109  0.7930 -0.7851  0.4370
 1007MOL0     C35850   8.919   1.655   9.077  0.3969 -0.8918  0.3494
 1007MOL0     C35851   8.938   1.516   9.024 -0.3523  1.0996 -0.5341
 1007MOL0     C35852   9.050   1.438   9.103  0.3803 -0.5565  0.5966
 1007MOL0     C35853   8.982   1.365   9.216 -0.3086  0.8140 -0.2999
 1007MOL0     C35854   9.080   1.353   9.342  0.3116 -0.3781  0.1977
 1007MOL0    Cl35855   9.128   1.504   9.423  0.0744  0.2802 -0.0850
 1007MOL0     C35856   8.872   2.037   8.707 -0.0066 -0.2322 -0.1797
 1007MOL0     C35857   8.875   2.113   8.591 -0.2272 -0.1544 -0.1099
 1007MOL0     O35858   9.082   2.359   8.267 -1.1067  0.1079 -0.6984
 1007MOL0     C35859   9.023   2.046   8.265 -0.0207 -0.9721 -0.4319
 1007MOL0     C35860   9.065   1.933   8.196 -0.4855 -0.6403 -0.3272
 1007MOL0     N35861   9.576   1.374   8.332 -0.5719  0.6684  0.5691
 1007MOL0     N35862   9.696   1.328   8.345 -0.2625  0.2836 -0.2264
 1007MOL0     C35863   9.636   1.412   8.752  0.6098 -0.0938  0.8339
 1007MOL0     C35864   9.506   1.425   8.680  0.0178  0.7133 -0.1038
 1007MOL0     C35865   9.102   1.540   8.563 -0.6144 -0.4955 -0.3366
 1007MOL0     C35866   9.062   1.669   8.516 -0.2791 -0.3121 -0.6655
 1007MOL0     C35867   8.943   1.682   8.445 -0.1052 -0.2107  1.0122
 1007MOL0     C35868   8.869   1.568   8.406  0.3839 -0.7816 -0.4402
 1007MOL0     O35869   8.768   1.607   8.315 -0.0193 -0.1534 -0.2484
 1007MOL0     C35870   8.688   1.506   8.258 -0.6249 -0.7899 -0.0568
 1007MOL0     C35871   8.575   1.579   8.191 -0.1091  1.0710  0.6846
 1007MOL0     C35872   8.620   1.630   8.052 -1.2771 -0.7135  0.0867
 1007MOL0     C35873   8.733   1.739   8.052 -0.9133 -0.5788 -0.0272
 1007MOL0     C35874   8.705   1.845   8.154 -0.3053  0.5081  0.4159
 1007MOL0     C35875   8.692   1.926   8.246 -0.6054 -0.3751 -0.6213
 1007MOL0     C35876   8.892   1.443   8.450 -0.2616  0.6126  0.5677
 1007MOL0     C35877   9.008   1.431   8.534  0.0125  0.0659 -0.0764
 1007MOL0     H35878   9.292   1.330   8.929 -0.7437  1.9599 -0.3017
 1007MOL0     H35879   9.536   1.273   9.037  1.9059  0.1886  0.7199
 1007MOL0     H35880   9.837   1.219   9.094  3.9195 -3.5763 -0.9166
 1007MOL0     H35881   9.721   1.123   9.019  2.4743 -1.3494  2.0345
 1007MOL0     H35882   9.978   1.227   8.880 -2.7694  3.3533 -0.7352
 1007MOL0     H35883   9.964   1.070   8.950  1.1650 -0.6081 -0.6816
 1007MOL0     H35884   9.744   1.062   8.785  1.4973 -2.1418  1.2368
 1007MOL0     H35885   9.839   1.182   8.698 -1.1218 -0.7030 -1.0991
 1007MOL0     H35886  10.039   1.018   8.692 -0.2913 -0.9240 -2.2001
 1007MOL0     H35887   9.928   0.896   8.760 -1.2996 -0.0835 -0.1372
 1007MOL0     H35888   9.910   0.850   8.530 -0.7135  1.2213 -4.0226
 1007MOL0     H35889   9.759   0.922   8.587  0.7499 -0.4771  0.3037
 1007MOL0     H35890   9.846   1.143   8.500 -0.2907 -0.3958 -0.0315
 1007MOL0     H35891   9.983   1.062   8.432 -0.3065  5.4595  1.4458
 1007MOL0     H35892   9.853   0.917   8.289 -3.3634 -0.4970 -2.2988
 1007MOL0     H35893   9.703   0.978   8.355  0.3934 -0.8888  1.5076
 1007MOL0     H35894   9.815   1.089   8.144 -2.6718 -0.0557  0.0643
 1007MOL0     H35895   9.905   1.187   8.265 -1.6102  2.1937 -1.6037
 1007MOL0     H35896   9.575   1.153   8.088 -3.0410 -0.6925  1.6174
 1007MOL0     H35897   9.356   1.311   8.076  0.3183  2.6117 -0.8664
 1007MOL0     H35898   9.311   1.260   8.226  0.4082 -1.0294 -3.4210
 1007MOL0     H35899   9.392   1.522   8.293  1.0498 -0.8526  0.5586
 1007MOL0     H35900   9.230   1.487   8.217  0.0066  0.3993 -2.8185
 1007MOL0     H35901   9.277   1.553   8.022 -3.3420  1.4877  3.2743
 1007MOL0     H35902   9.457   1.562   8.030  0.7643  0.8392  0.3858
 1007MOL0     H35903   9.409   1.788   8.056 -0.2390 -0.4760 -1.1675
 1007MOL0     H35904   9.393   1.735   8.219  0.5568  2.1155 -0.3383
 1007MOL0     H35905   9.397   1.973   8.225 -0.0457 -0.2346 -0.4765
 1007MOL0     H35906   9.334   2.316   8.326  1.4523 -0.1570 -0.0390
 1007MOL0     H35907   9.385   2.210   8.447 -1.7566  0.6160  0.5223
 1007MOL0     H35908   9.451   2.206   8.272 -0.5268 -0.1545 -1.8337
 1007MOL0     H35909   9.192   2.241   8.618  1.0595 -0.8302 -1.9902
 1007MOL0     H35910   9.171   2.087   8.851  0.5588  0.5351 -0.0189
 1007MOL0     H35911   8.992   1.741   8.826  1.6678 -1.1847  2.7496
 1007MOL0     H35912   9.130   1.834   8.772  0.4534 -0.2916 -0.5630
 1007MOL0     H35913   9.162   1.664   8.953 -3.4219 -0.7442 -2.5567
 1007MOL0     H35914   9.211   1.823   9.013  2.4007 -2.6672 -0.7413
 1007MOL0     H35915   8.993   1.843   9.140 -1.8827 -0.5708 -3.4359
 1007MOL0     H35916   9.102   1.720   9.194 -1.4272 -2.6852  1.6099
 1007MOL0     H35917   8.855   1.661   9.166  1.2664  1.7662  0.9000
 1007MOL0     H35918   8.856   1.705   9.003  1.6368 -0.7109 -0.6216
 1007MOL0     H35919   8.957   1.522   8.916 -2.2569 -0.1879 -0.9828
 1007MOL0     H35920   8.845   1.462   9.042 -0.0081  0.1497 -1.5132
 1007MOL0     H35921   9.093   1.357   9.042  2.4405 -0.3080  1.6529
 1007MOL0     H35922   9.142   1.494   9.119  0.5783 -0.9352  0.8051
 1007MOL0     H35923   8.958   1.266   9.177 -1.4118  0.8738  0.2048
 1007MOL0     H35924   8.889   1.411   9.249 -0.7050 -0.1214 -0.0942
 1007MOL0     H35925   9.174   1.319   9.297  0.5454 -0.3228  0.6430
 1007MOL0     H35926   9.038   1.285   9.416 -2.6151 -0.5502 -1.4624
 1007MOL0     H35927   8.781   1.981   8.726 -1.0240  0.8706 -1.6057
 1007MOL0     H35928   8.790   2.116   8.524 -0.1797  0.8002 -0.1389
 1007MOL0     H35929   8.919   2.075   8.273  0.4136  0.7951 -0.7359
 1007MOL0     H35930   8.999   1.869   8.137  1.3224 -2.8559 -0.0842
 1007MOL0     H35931   9.720   1.456   8.699 -1.8704  0.8678 -2.7012
 1007MOL0     H35932   9.501   1.476   8.584  2.1591  0.3163 -0.4810
 1007MOL0     H35933   9.117   1.762   8.531 -3.9651  2.3809 -2.1338
 1007MOL0     H35934   8.915   1.778   8.402 -1.1190  1.1007  4.2916
 1007MOL0     H35935   8.740   1.450   8.179  1.1566 -3.1224  2.5672
 1007MOL0     H35936   8.652   1.451   8.345 -0.3941  1.7368  1.7654
 1007MOL0     H35937   8.528   1.658   8.250 -1.7525  2.2216 -1.9958
 1007MOL0     H35938   8.495   1.515   8.153  1.0586  1.8048 -3.4894
 1007MOL0     H35939   8.536   1.679   8.002  0.1188 -2.1727 -4.1054
 1007MOL0     H35940   8.642   1.545   7.987 -0.8253 -0.2591 -0.3600
 1007MOL0     H35941   8.745   1.784   7.953 -3.0995  2.0997  0.8004
 1007MOL0     H35942   8.825   1.691   8.087  0.2275  0.6913 -1.1800
 1007MOL0     H35943   8.686   1.986   8.334 -2.4035 -2.4764  0.7720
 1007MOL0     H35944   8.833   1.355   8.428 -2.1657  2.1477 -0.7253
 1007MOL0     H35945   9.041   1.334   8.570  0.8202  0.5954  0.6265
 1008MOL0     O35946   6.134   4.594  11.521  0.1380 -0.2195  0.6112
 1008MOL0     C35947   6.237   4.551  11.477  0.1572 -0.0667  1.0066
 1008MOL0     O35948   6.325   4.627  11.411 -0.2883  0.1404  0.2578
 1008MOL0     C35949   6.314   4.754  11.362  0.6657  0.1724  0.2839
 1008MOL0     C35950   6.434   4.793  11.296 -0.5246  0.4436  0.5291
 1008MOL0     C35951   6.446   4.918  11.240  0.0315  0.0875  0.2916
 1008MOL0     C35952   6.341   5.009  11.245 -0.0654  0.1768  0.4178
 1008MOL0     O35953   6.364   5.133  11.189  0.6259  0.7370 -0.2477
 1008MOL0     C35954   6.342   5.246  11.274  0.2696  0.5070  0.0973
 1008MOL0     C35955   6.375   5.370  11.188 -0.6197 -0.1817 -0.4703
 1008MOL0     C35956   6.363   5.502  11.280 -0.8531  0.4972  0.6548
 1008MOL0     C35957   6.410   5.624  11.203  0.3860  1.3124 -0.5096
 1008MOL0     C35958   6.458   5.732  11.307 -0.0003 -0.2928  0.0258
 1008MOL0     C35959   6.344   5.835  11.356  0.6280  0.5736 -0.4599
 1008MOL0     C35960   6.410   5.975  11.379 -0.2920  0.0602  0.4693
 1008MOL0     C35961   6.306   6.093  11.416  1.0318 -0.1243 -0.6860
 1008MOL0     N35962   6.216   6.038  11.527  0.9308  0.5338  0.6829
 1008MOL0     C35963   6.239   5.986  11.650 -0.9545  0.3465  0.1368
 1008MOL0     C35964   6.127   5.946  11.712 -0.0817  0.4838  0.1574
 1008MOL0     C35965   6.131   5.909  11.856  0.2224  0.8687  0.3756
 1008MOL0     C35966   6.058   5.768  11.872 -0.5890 -0.3288 -0.6457
 1008MOL0     C35967   5.994   5.745  12.009 -0.0626  0.2589  0.1946
 1008MOL0     C35968   5.860   5.822  12.020 -1.0185  0.0618 -0.2847
 1008MOL0     O35969   5.795   5.795  12.141 -0.4007  0.2654  0.6522
 1008MOL0     C35970   5.685   5.859  12.189 -0.0815 -0.1620  0.1341
 1008MOL0     C35971   5.627   5.974  12.130  0.3344 -0.8133  0.1691
 1008MOL0     C35972   5.533   6.055  12.199  0.0606 -0.1910 -0.3625
 1008MOL0     C35973   5.487   6.177  12.137  0.0568  1.1118  0.4685
 1008MOL0     C35974   5.474   5.999  12.306  1.3469 -0.7392  0.0609
 1008MOL0     C35975   5.380   6.071  12.392 -0.3308 -0.1102 -0.4070
 1008MOL0     O35976   5.284   6.000  12.449  0.3666 -0.3359  1.3028
 1008MOL0     C35977   5.200   6.057  12.549 -0.1994 -0.9990  0.1818
 1008MOL0     C35978   5.142   6.181  12.540  0.0008 -0.0045  0.1180
 1008MOL0     C35979   5.048   6.219  12.633  0.9879 -0.2429  0.2460
 1008MOL0     C35980   5.019   6.140  12.738  0.2584 -0.3143 -0.6889
 1008MOL0     O35981   4.920   6.170  12.825 -0.3710 -0.1572  1.0664
 1008MOL0     C35982   4.969   6.271  12.914  0.0784  0.8712  0.3009
 1008MOL0     C35983   4.912   6.241  13.060 -0.2204  0.3669  0.4759
 1008MOL0     C35984   4.956   6.109  13.117 -0.8680 -0.2638 -0.6522
 1008MOL0     C35985   4.917   6.080  13.260  0.8980  0.5494  0.3764
 1008MOL0     C35986   4.959   6.189  13.357  0.1227 -0.1823  0.6943
 1008MOL0     C35987   4.900   6.173  13.499  0.2676  0.9767 -0.2269
 1008MOL0     C35988   4.942   6.291  13.582 -0.1175  0.1276 -0.3695
 1008MOL0     C35989   4.859   6.280  13.726 -0.0227 -0.2849  0.9482
 1008MOL0    Cl35990   4.697   6.337  13.702  0.4092 -0.4695 -0.0363
 1008MOL0     C35991   5.090   6.024  12.758 -0.8484 -0.3488  0.2597
 1008MOL0     C35992   5.180   5.978  12.658 -0.9314 -0.1401  0.2463
 1008MOL0     O35993   5.405   6.188  12.427 -0.0733 -0.8217 -0.4377
 1008MOL0     C35994   5.521   5.877  12.361  0.1987  0.6227  0.6083
 1008MOL0     C35995   5.629   5.812  12.312  0.5813 -0.8129  0.1951
 1008MOL0     N35996   6.026   5.958  11.619 -0.5108 -0.1090  0.1113
 1008MOL0     N35997   6.084   5.997  11.502  0.6270  1.0425 -0.0454
 1008MOL0     C35998   6.216   4.972  11.309 -0.4479  1.1166 -0.3001
 1008MOL0     C35999   6.206   4.844  11.358  0.6260  0.3022 -0.4593
 1008MOL0     C36000   6.263   4.405  11.507 -0.2495 -0.5048  0.5508
 1008MOL0     C36001   6.162   4.308  11.527 -0.3946 -0.8234  0.3899
 1008MOL0     C36002   6.187   4.172  11.531  0.2688  0.7866 -0.6044
 1008MOL0     C36003   6.321   4.129  11.520 -0.6251  0.1060 -0.0885
 1008MOL0     O36004   6.361   4.002  11.536  0.2252  0.0328  0.4996
 1008MOL0     C36005   6.274   3.896  11.503  1.2112 -0.4794 -0.0416
 1008MOL0     C36006   6.360   3.770  11.488 -0.8322  0.1089  0.4716
 1008MOL0     C36007   6.440   3.734  11.622 -0.1444 -0.7182 -0.3162
 1008MOL0     C36008   6.491   3.591  11.625 -0.0894  0.6556 -0.5843
 1008MOL0     C36009   6.532   3.552  11.762  0.3262  0.4402 -0.1511
 1008MOL0     C36010   6.579   3.529  11.873 -0.0639  0.4202 -0.1486
 1008MOL0     C36011   6.422   4.221  11.500 -0.1519 -0.1863  0.4369
 1008MOL0     C36012   6.394   4.357  11.500 -1.0608  1.1812  0.0931
 1008MOL0     H36013   6.518   4.726  11.285  0.0214  1.5951 -5.6039
 1008MOL0     H36014   6.542   4.951  11.203 -1.2805  1.6865 -1.9517
 1008MOL0     H36015   6.233   5.249  11.289  0.0360 -3.1010 -0.0366
 1008MOL0     H36016   6.382   5.248  11.376 -1.0340  1.3012  0.6292
 1008MOL0     H36017   6.480   5.352  11.166 -0.7343 -0.4376 -0.8141
 1008MOL0     H36018   6.331   5.371  11.088  3.9239  0.4926 -2.6860
 1008MOL0     H36019   6.267   5.523  11.328 -0.8485 -2.0083  1.9482
 1008MOL0     H36020   6.431   5.482  11.363 -0.4999 -1.1675  0.0236
 1008MOL0     H36021   6.493   5.603  11.135  1.4566  0.3384  1.0460
 1008MOL0     H36022   6.325   5.664  11.146  0.3112 -1.1241 -2.2778
 1008MOL0     H36023   6.489   5.676  11.396  0.9635 -1.7674 -1.1742
 1008MOL0     H36024   6.550   5.779  11.273  0.9560 -1.2065  1.2608
 1008MOL0     H36025   6.273   5.845  11.274  0.4861 -0.5859 -0.4872
 1008MOL0     H36026   6.301   5.783  11.443  2.7775 -2.8052 -1.2325
 1008MOL0     H36027   6.498   5.981  11.444 -1.2825  3.6985  1.7309
 1008MOL0     H36028   6.451   6.014  11.285 -1.6151  1.0373  0.2655
 1008MOL0     H36029   6.242   6.124  11.333 -4.7294 -2.5564  2.2715
 1008MOL0     H36030   6.359   6.181  11.453 -0.6666  0.7732 -0.2902
 1008MOL0     H36031   6.339   5.990  11.693 -1.0374 -0.3336  0.3924
 1008MOL0     H36032   6.233   5.905  11.895  0.8540  0.7700 -1.2280
 1008MOL0     H36033   6.072   5.990  11.901 -1.6588 -0.5293  0.5609
 1008MOL0     H36034   6.140   5.698  11.854 -1.0349 -1.6138  1.9141
 1008MOL0     H36035   5.991   5.755  11.787 -1.1453  0.2296 -0.2981
 1008MOL0     H36036   6.056   5.764  12.097  0.6194 -4.6425  1.0520
 1008MOL0     H36037   5.972   5.639  12.024  2.4077 -0.2930  0.3025
 1008MOL0     H36038   5.788   5.800  11.941 -4.1379 -1.5948  2.7700
 1008MOL0     H36039   5.887   5.928  12.025 -1.6164  0.2518 -0.9945
 1008MOL0     H36040   5.656   6.008  12.031 -0.7134 -1.6480 -0.4348
 1008MOL0     H36041   5.506   6.263  12.202 -0.0008  0.8254  0.8661
 1008MOL0     H36042   5.534   6.199  12.040  0.6565 -1.1084  0.1953
 1008MOL0     H36043   5.380   6.170  12.115  0.0942  0.9327  0.3457
 1008MOL0     H36044   5.165   6.239  12.452  2.6565  0.7337  1.2100
 1008MOL0     H36045   4.992   6.312  12.624 -1.2095 -1.6970 -3.4637
 1008MOL0     H36046   5.076   6.291  12.920  0.5679 -0.7387 -2.0398
 1008MOL0     H36047   4.931   6.367  12.880  0.4093  0.7083 -0.5365
 1008MOL0     H36048   4.938   6.326  13.125 -1.0912  0.4166  0.7770
 1008MOL0     H36049   4.803   6.235  13.051 -0.0315  0.0282 -2.2879
 1008MOL0     H36050   5.066   6.105  13.117 -0.8726 -0.3832 -0.5546
 1008MOL0     H36051   4.914   6.022  13.066 -2.6104 -1.2673  2.2843
 1008MOL0     H36052   4.812   6.052  13.271  0.8533 -0.2069 -1.5495
 1008MOL0     H36053   4.968   5.987  13.286 -1.7148 -0.5148  2.1461
 1008MOL0     H36054   4.913   6.284  13.329  0.7908 -0.3627 -1.1750
 1008MOL0     H36055   5.069   6.193  13.351  0.1667 -0.8797  0.9669
 1008MOL0     H36056   4.791   6.170  13.489  0.3781  1.2453 -1.6656
 1008MOL0     H36057   4.935   6.080  13.545 -0.9310  0.1436 -0.9408
 1008MOL0     H36058   4.919   6.382  13.526 -1.1447  0.3780  0.4450
 1008MOL0     H36059   5.050   6.301  13.595 -0.3104  1.8158  0.1548
 1008MOL0     H36060   4.899   6.350  13.800 -2.9917  1.5174  1.0425
 1008MOL0     H36061   4.864   6.177  13.762  1.5798 -0.0731  1.3749
 1008MOL0     H36062   5.065   5.964  12.845 -1.0596  1.9036  1.8401
 1008MOL0     H36063   5.227   5.880  12.656 -1.8941 -0.6079 -0.5025
 1008MOL0     H36064   5.477   5.835  12.450  0.9388 -3.4016 -0.7263
 1008MOL0     H36065   5.656   5.718  12.359  1.2630  0.6772  2.9695
 1008MOL0     H36066   6.132   5.041  11.304  0.2820  1.9372 -1.8837
 1008MOL0     H36067   6.110   4.813  11.398 -0.3434  1.3234 -1.8784
 1008MOL0     H36068   6.076   4.371  11.546  3.4238  4.9984  0.9254
 1008MOL0     H36069   6.116   4.092  11.547  1.8577 -0.5932 -0.1821
 1008MOL0     H36070   6.200   3.895  11.583 -1.6538 -1.7802 -2.5075
 1008MOL0     H36071   6.231   3.918  11.405  1.8312  0.3062 -0.1485
 1008MOL0     H36072   6.434   3.766  11.407  0.1665 -2.5645  1.4028
 1008MOL0     H36073   6.296   3.685  11.463  0.1335  0.3230 -3.3204
 1008MOL0     H36074   6.378   3.760  11.708 -1.8666  0.9636 -1.9706
 1008MOL0     H36075   6.530   3.797  11.627  1.2115 -2.6244  1.3539
 1008MOL0     H36076   6.580   3.577  11.564 -1.7630 -2.3379 -2.6018
 1008MOL0     H36077   6.425   3.511  11.590 -2.1727  2.4584 -1.0037
 1008MOL0     H36078   6.639   3.526  11.962  0.4838  3.4213 -0.3137
 1008MOL0     H36079   6.526   4.193  11.489 -0.3295 -0.1130 -2.0880
 1008MOL0     H36080   6.480   4.421  11.483 -1.0205  1.1231  0.0770
 1009MOL0     O36081   9.930   2.405  10.880 -0.2426  0.0829  0.2190
 1009MOL0     C36082   9.850   2.319  10.926 -0.2981 -0.2325  0.1847
 1009MOL0     O36083   9.742   2.270  10.850 -0.2518  0.0749 -0.7646
 1009MOL0     C36084   9.725   2.302  10.716 -0.8674  1.2157 -0.8138
 1009MOL0     C36085   9.735   2.204  10.612 -0.1902  0.9716 -0.4632
 1009MOL0     C36086   9.720   2.239  10.477 -0.0766 -0.2107 -0.1253
 1009MOL0     C36087   9.693   2.369  10.443  0.3359 -0.1060 -0.9519
 1009MOL0     O36088   9.685   2.405  10.308  0.5626  0.4364  0.6503
 1009MOL0     C36089   9.574   2.490  10.271 -0.6163 -0.5913  0.0262
 1009MOL0     C36090   9.534   2.462  10.128 -0.3136 -0.6117  0.8038
 1009MOL0     C36091   9.638   2.475  10.019 -1.5855 -0.6493 -0.6165
 1009MOL0     C36092   9.599   2.435   9.875  1.1719 -0.1352 -0.2790
 1009MOL0     C36093   9.472   2.487   9.817 -0.5299 -0.4934 -0.1127
 1009MOL0     C36094   9.445   2.413   9.681  0.1560  0.6552 -1.1803
 1009MOL0     C36095   9.553   2.423   9.570 -0.5745  0.3975 -1.2932
 1009MOL0     C36096   9.497   2.362   9.439  0.3477 -0.6330 -0.2422
 1009MOL0     N36097   9.585   2.388   9.322  0.3337 -0.4266  0.4380
 1009MOL0     C36098   9.663   2.501   9.298 -0.7102  1.4847  0.5541
 1009MOL0     C36099   9.723   2.460   9.180  0.1944 -0.1849 -0.2237
 1009MOL0     C36100   9.825   2.546   9.104  0.3866  0.8471 -0.5748
 1009MOL0     C36101   9.799   2.697   9.087 -0.0238 -0.5292 -0.5673
 1009MOL0     C36102   9.670   2.712   9.011  0.1829  0.8368  0.2513
 1009MOL0     C36103   9.630   2.855   8.968 -0.8237 -0.4504  0.1280
 1009MOL0     O36104   9.553   2.843   8.850  0.5062  0.5730 -0.1050
 1009MOL0     C36105   9.519   2.971   8.795  0.0495  0.7691  1.1334
 1009MOL0     C36106   9.448   2.962   8.676 -0.2222  0.0341 -0.6266
 1009MOL0     C36107   9.419   3.080   8.604 -1.1993  0.0674 -0.3668
 1009MOL0     C36108   9.336   3.077   8.475 -0.3604  0.0087 -0.1745
 1009MOL0     C36109   9.460   3.205   8.651  0.3012 -0.5266 -0.1371
 1009MOL0     C36110   9.436   3.330   8.583  0.3934 -0.2534  0.1359
 1009MOL0     O36111   9.544   3.390   8.518  0.0194 -0.4261  0.2661
 1009MOL0     C36112   9.535   3.516   8.451  0.3524  0.6577 -1.0321
 1009MOL0     C36113   9.495   3.636   8.521  0.5148 -0.0757 -0.6496
 1009MOL0     C36114   9.519   3.758   8.455  0.8037  0.7555  0.2224
 1009MOL0     C36115   9.561   3.765   8.318 -0.1752  0.3027 -0.9360
 1009MOL0     O36116   9.591   3.889   8.262 -0.1774  0.3844  0.2677
 1009MOL0     C36117   9.671   3.978   8.340 -0.6015 -0.0997  0.5010
 1009MOL0     C36118   9.787   4.028   8.257 -0.7770 -0.6263 -0.3447
 1009MOL0     C36119   9.903   4.064   8.350 -0.5102 -0.0226  0.3105
 1009MOL0     C36120  10.016   4.111   8.249 -0.1072  0.1723 -0.0079
 1009MOL0     C36121  10.156   4.145   8.320 -0.0985  0.6552  0.7434
 1009MOL0     C36122  10.150   4.236   8.426  0.0273  0.5949 -0.8387
 1009MOL0     C36123  10.147   4.380   8.377 -0.6546  0.7777 -0.1747
 1009MOL0     C36124  10.059   4.460   8.471  0.3664 -0.5860  0.6608
 1009MOL0    Cl36125  10.156   4.471   8.613 -0.1468 -0.5305  0.3684
 1009MOL0     C36126   9.592   3.644   8.254  0.7684 -0.4859  1.1266
 1009MOL0     C36127   9.569   3.517   8.311 -0.2128 -0.5380 -0.4625
 1009MOL0     O36128   9.318   3.369   8.579  0.5475  0.0496 -0.0773
 1009MOL0     C36129   9.530   3.206   8.771 -0.2709  0.0194 -0.7210
 1009MOL0     C36130   9.570   3.094   8.834  0.6529 -0.3124 -0.3338
 1009MOL0     N36131   9.688   2.333   9.142  0.1054  0.7554  0.3462
 1009MOL0     N36132   9.607   2.291   9.227  0.4854 -0.2105 -0.1737
 1009MOL0     C36133   9.678   2.470  10.537  0.7057  0.4301 -0.3534
 1009MOL0     C36134   9.692   2.431  10.673 -1.1683 -0.1124  0.3915
 1009MOL0     C36135   9.864   2.268  11.054 -0.6291 -0.3491 -0.5327
 1009MOL0     C36136   9.983   2.260  11.126  0.3403  0.0802 -0.3358
 1009MOL0     C36137   9.990   2.217  11.264  0.8175 -0.0236  0.4125
 1009MOL0     C36138   9.882   2.153  11.321  1.3428 -1.0175  0.3167
 1009MOL0     O36139   9.899   2.081  11.433 -0.0559  0.1017 -0.3418
 1009MOL0     C36140   9.787   2.045  11.515 -0.1533 -0.3061 -0.3980
 1009MOL0     C36141   9.754   1.897  11.476 -0.3685  0.9499  0.9556
 1009MOL0     C36142   9.740   1.809  11.594 -1.1225  0.0127 -0.5236
 1009MOL0     C36143   9.814   1.673  11.573  0.0657 -0.0837  0.2988
 1009MOL0     C36144   9.761   1.588  11.462 -0.4511  0.8179 -0.4658
 1009MOL0     C36145   9.714   1.522  11.367  1.0334 -0.0341 -0.2449
 1009MOL0     C36146   9.759   2.183  11.262 -0.5580 -0.1688 -0.3762
 1009MOL0     C36147   9.755   2.231  11.126  0.7747  0.4084  0.6576
 1009MOL0     H36148   9.769   2.107  10.647 -0.2623  1.1272  0.0451
 1009MOL0     H36149   9.708   2.167  10.397 -1.8077  0.0630 -0.1389
 1009MOL0     H36150   9.491   2.484  10.343 -1.8192  2.5323 -0.9130
 1009MOL0     H36151   9.607   2.594  10.261 -1.3361  0.0881  3.3771
 1009MOL0     H36152   9.505   2.357  10.128 -4.6362  0.3627 -0.7619
 1009MOL0     H36153   9.443   2.519  10.105 -0.3321 -0.8799  0.1822
 1009MOL0     H36154   9.678   2.577  10.026  2.1047 -1.8439 -1.6406
 1009MOL0     H36155   9.727   2.416  10.044 -0.4749 -0.3285 -3.4072
 1009MOL0     H36156   9.686   2.472   9.820  1.9177  1.6614  1.9330
 1009MOL0     H36157   9.594   2.326   9.861  1.8460 -0.2889  0.5656
 1009MOL0     H36158   9.387   2.479   9.886  0.8530  1.6357  1.9940
 1009MOL0     H36159   9.488   2.589   9.780 -1.0718 -1.0255 -1.9462
 1009MOL0     H36160   9.410   2.312   9.703  0.5975  0.4329 -1.4776
 1009MOL0     H36161   9.360   2.468   9.639  0.4754  1.9924 -0.1318
 1009MOL0     H36162   9.576   2.530   9.556 -1.4556  0.9730  1.2411
 1009MOL0     H36163   9.640   2.360   9.591 -3.5416 -3.0102  2.0371
 1009MOL0     H36164   9.402   2.412   9.418 -0.4510 -2.1179 -0.3523
 1009MOL0     H36165   9.486   2.254   9.452 -1.6605 -0.1883  2.5990
 1009MOL0     H36166   9.676   2.595   9.352 -1.1918  0.7100  2.0974
 1009MOL0     H36167   9.915   2.519   9.159 -3.0855 -2.6377  4.3378
 1009MOL0     H36168   9.828   2.501   9.004  0.8962 -0.4115 -0.0128
 1009MOL0     H36169   9.876   2.747   9.026  0.6344 -2.4505 -1.3993
 1009MOL0     H36170   9.792   2.748   9.183 -1.6873 -1.2660 -0.2533
 1009MOL0     H36171   9.587   2.674   9.072  0.4138 -4.0028 -2.0272
 1009MOL0     H36172   9.685   2.647   8.924  1.8755  0.5242  0.7548
 1009MOL0     H36173   9.716   2.917   8.942 -2.2441  0.6336 -2.4230
 1009MOL0     H36174   9.579   2.912   9.046  2.4867  1.5740  1.0008
 1009MOL0     H36175   9.421   2.862   8.643  0.4164  0.0766 -1.2768
 1009MOL0     H36176   9.238   3.117   8.503 -0.0619 -0.9610  2.5095
 1009MOL0     H36177   9.389   3.135   8.399  0.5296  1.7669  1.7075
 1009MOL0     H36178   9.315   2.972   8.451  1.3501 -0.7985  1.5670
 1009MOL0     H36179   9.462   3.616   8.622 -1.1056 -0.1155 -1.1494
 1009MOL0     H36180   9.509   3.846   8.517 -3.0824  2.2566 -2.1866
 1009MOL0     H36181   9.610   4.065   8.367  0.0608 -0.2759  2.7816
 1009MOL0     H36182   9.720   3.933   8.427  0.4859 -2.3329 -1.1498
 1009MOL0     H36183   9.822   3.953   8.186  0.4900  0.3071 -0.7303
 1009MOL0     H36184   9.739   4.114   8.209 -2.4650 -0.8319  0.8760
 1009MOL0     H36185   9.936   3.975   8.403  0.2269  1.4125  2.4059
 1009MOL0     H36186   9.870   4.135   8.426 -2.4202  3.3574 -3.3044
 1009MOL0     H36187  10.041   4.028   8.183  0.1501 -1.3404  1.8893
 1009MOL0     H36188   9.979   4.195   8.190 -0.0515 -1.1966 -2.0666
 1009MOL0     H36189  10.219   4.181   8.238  0.6268  0.9016  1.3978
 1009MOL0     H36190  10.187   4.045   8.350 -2.9467 -0.5108  0.1911
 1009MOL0     H36191  10.079   4.212   8.506  2.6892  2.0804  2.1758
 1009MOL0     H36192  10.248   4.219   8.472  1.1617  2.9600 -2.1376
 1009MOL0     H36193  10.102   4.384   8.277  0.8479  2.0546 -0.8392
 1009MOL0     H36194  10.253   4.403   8.371 -0.0642 -1.5784  0.1754
 1009MOL0     H36195   9.964   4.410   8.490  0.1568 -1.7982 -2.8441
 1009MOL0     H36196  10.044   4.557   8.422  1.9515 -0.8034 -0.3372
 1009MOL0     H36197   9.626   3.655   8.151  0.0370  0.2282  0.9439
 1009MOL0     H36198   9.612   3.433   8.257  0.6703  0.0225 -0.6604
 1009MOL0     H36199   9.585   3.290   8.813  0.1351 -1.1602  1.2181
 1009MOL0     H36200   9.635   3.116   8.918  0.0781  1.2690 -0.2572
 1009MOL0     H36201   9.645   2.572  10.522 -0.9029  0.1025  0.6178
 1009MOL0     H36202   9.691   2.511  10.746 -1.1158  0.1604  0.0972
 1009MOL0     H36203  10.074   2.296  11.078  0.6670 -0.5409 -0.1957
 1009MOL0     H36204  10.075   2.235  11.328 -3.0805  0.9927  6.0448
 1009MOL0     H36205   9.831   2.058  11.614  0.7955  3.5050 -1.1771
 1009MOL0     H36206   9.700   2.111  11.504  1.2102  1.6836  0.3468
 1009MOL0     H36207   9.833   1.853  11.415 -1.4682 -0.0778  0.2116
 1009MOL0     H36208   9.668   1.897  11.408  1.9956 -3.6703 -2.6596
 1009MOL0     H36209   9.633   1.786  11.598 -2.5769  4.8009 -3.6124
 1009MOL0     H36210   9.773   1.854  11.688 -0.8274 -2.6735  0.7344
 1009MOL0     H36211   9.810   1.609  11.661 -0.5191  1.2428  1.2697
 1009MOL0     H36212   9.922   1.679  11.560  0.1330 -4.3120 -3.5641
 1009MOL0     H36213   9.649   1.501  11.285 -0.4423  1.4633  0.4879
 1009MOL0     H36214   9.666   2.182  11.318  0.4159 -2.0539  1.3305
 1009MOL0     H36215   9.655   2.238  11.082 -0.7356  0.6030  3.8775
 1010MOL0     O36216   5.265   8.763   2.030  0.0407 -0.3900  0.2923
 1010MOL0     C36217   5.287   8.831   2.129 -0.2201  0.9439  0.9862
 1010MOL0     O36218   5.336   8.963   2.134 -0.4867  0.5060  0.0913
 1010MOL0     C36219   5.331   9.028   2.015  0.0048 -0.4934 -0.2262
 1010MOL0     C36220   5.214   9.069   1.963 -0.0501 -0.7857  0.3559
 1010MOL0     C36221   5.204   9.135   1.835  0.3960  0.1716  0.1257
 1010MOL0     C36222   5.323   9.177   1.771 -0.2189 -0.6200 -0.3110
 1010MOL0     O36223   5.329   9.233   1.641 -0.6273  0.6655 -0.2337
 1010MOL0     C36224   5.221   9.318   1.601 -0.3889  0.1600 -0.4942
 1010MOL0     C36225   5.258   9.465   1.654 -0.5239 -0.0456  0.7930
 1010MOL0     C36226   5.373   9.532   1.566 -0.7577 -0.1722  0.1496
 1010MOL0     C36227   5.366   9.689   1.572  1.0883  0.8940 -0.5501
 1010MOL0     C36228   5.404   9.740   1.709  0.5598  0.1849  0.1025
 1010MOL0     C36229   5.526   9.676   1.778 -0.1241  0.0756  0.8236
 1010MOL0     C36230   5.554   9.764   1.900  0.4078 -0.0207 -0.2589
 1010MOL0     C36231   5.437   9.772   2.001 -0.1333  0.3509 -0.2297
 1010MOL0     N36232   5.402   9.659   2.071  0.5289  0.3178 -0.9421
 1010MOL0     C36233   5.486   9.572   2.148  0.4356  0.2615 -0.2076
 1010MOL0     C36234   5.394   9.509   2.228  0.0207  0.5107 -0.0372
 1010MOL0     C36235   5.443   9.396   2.323 -0.2221 -0.0300  0.2350
 1010MOL0     C36236   5.328   9.337   2.422 -0.5084  0.4038  0.4887
 1010MOL0     C36237   5.391   9.219   2.499  0.6010  0.2909 -0.8367
 1010MOL0     C36238   5.324   9.171   2.627 -0.2025  0.3280  0.2426
 1010MOL0     O36239   5.186   9.160   2.609  0.4019 -0.7031  0.1132
 1010MOL0     C36240   5.110   9.134   2.720  0.3607 -0.0215  0.8325
 1010MOL0     C36241   4.974   9.105   2.699  0.2997  0.5330  0.0461
 1010MOL0     C36242   4.891   9.044   2.800  0.6383 -0.4606  0.2767
 1010MOL0     C36243   4.747   9.006   2.763  0.1654 -1.1028 -0.0787
 1010MOL0     C36244   4.950   9.016   2.926 -0.0878  0.6282 -0.1820
 1010MOL0     C36245   4.888   8.938   3.031  0.6003  0.4308 -0.6741
 1010MOL0     O36246   4.972   8.887   3.131 -0.8352  0.2548 -1.1135
 1010MOL0     C36247   4.913   8.850   3.249  0.2551 -0.4440  0.0618
 1010MOL0     C36248   4.907   8.715   3.301  0.8699  0.3155  0.4722
 1010MOL0     C36249   4.860   8.684   3.429  0.3222  0.5279 -0.4405
 1010MOL0     C36250   4.832   8.786   3.520  0.2135  0.3557 -0.8561
 1010MOL0     O36251   4.770   8.763   3.638  0.2935 -0.3308 -0.2070
 1010MOL0     C36252   4.828   8.662   3.718  0.2197  0.0712  0.0679
 1010MOL0     C36253   4.885   8.713   3.845  0.1137  0.6169 -1.1142
 1010MOL0     C36254   4.906   8.604   3.954  1.6929 -0.1808 -0.3343
 1010MOL0     C36255   4.907   8.672   4.094 -0.1691 -0.1224  0.2839
 1010MOL0     C36256   5.018   8.780   4.093 -1.2059 -0.0815  0.6069
 1010MOL0     C36257   5.048   8.825   4.235  0.7376 -0.5137  0.5257
 1010MOL0     C36258   5.106   8.710   4.332 -0.1278  0.0859  0.3281
 1010MOL0     C36259   5.126   8.772   4.472  1.1778  0.1670 -0.1244
 1010MOL0    Cl36260   5.254   8.907   4.446  0.1072  0.0446  0.2570
 1010MOL0     C36261   4.840   8.921   3.471 -0.2969 -0.4796  1.0187
 1010MOL0     C36262   4.891   8.950   3.343  0.7841  0.7040 -0.5242
 1010MOL0     O36263   4.763   8.928   3.042  0.0894  0.1509 -0.1947
 1010MOL0     C36264   5.086   9.042   2.938 -0.3121  0.7128 -0.3034
 1010MOL0     C36265   5.168   9.099   2.839  0.4967 -0.4869 -0.2975
 1010MOL0     N36266   5.265   9.542   2.195 -0.2913  0.8247  0.7021
 1010MOL0     N36267   5.270   9.631   2.102  0.5959 -0.2316  0.1137
 1010MOL0     C36268   5.446   9.124   1.815  0.3280 -0.4456 -0.4303
 1010MOL0     C36269   5.446   9.065   1.949  0.4563  0.0249  0.6124
 1010MOL0     C36270   5.231   8.772   2.249 -0.2443 -1.1476  0.7812
 1010MOL0     C36271   5.216   8.642   2.276 -0.2747  0.5446 -0.2367
 1010MOL0     C36272   5.173   8.605   2.405 -0.0879  0.8304  0.2198
 1010MOL0     C36273   5.138   8.690   2.505 -0.9235 -0.1689 -0.6306
 1010MOL0     O36274   5.098   8.635   2.614 -0.2223 -0.0089 -0.8750
 1010MOL0     C36275   5.074   8.719   2.728  0.2581  0.2382 -0.0472
 1010MOL0     C36276   5.074   8.647   2.869 -0.2786  0.7247 -0.8559
 1010MOL0     C36277   5.222   8.632   2.916 -0.3705  0.3089  0.7018
 1010MOL0     C36278   5.227   8.501   3.011 -0.5263  0.7314  0.1399
 1010MOL0     C36279   5.368   8.487   3.039 -0.7879  0.0147  0.5307
 1010MOL0     C36280   5.478   8.488   3.086 -0.8715  0.9651 -0.0554
 1010MOL0     C36281   5.143   8.824   2.475  1.3399  0.1992 -0.5386
 1010MOL0     C36282   5.181   8.862   2.349  0.5215 -0.2458  1.8352
 1010MOL0     H36283   5.122   9.044   2.015  0.8824  1.6108  3.5482
 1010MOL0     H36284   5.107   9.148   1.788 -0.2608 -4.3637 -0.2293
 1010MOL0     H36285   5.228   9.314   1.492 -1.8461  0.6726 -0.6259
 1010MOL0     H36286   5.120   9.286   1.626 -0.5381  1.5134  0.7580
 1010MOL0     H36287   5.162   9.517   1.650 -2.8399 -3.9308 -0.3868
 1010MOL0     H36288   5.299   9.455   1.755  2.9785  0.3633 -0.4486
 1010MOL0     H36289   5.470   9.495   1.600  1.4255  4.1095 -0.8198
 1010MOL0     H36290   5.372   9.503   1.460 -0.4570 -1.0020  0.3614
 1010MOL0     H36291   5.447   9.730   1.511  0.8490  1.3586 -0.5590
 1010MOL0     H36292   5.272   9.724   1.529  0.3904 -1.9674 -1.5654
 1010MOL0     H36293   5.433   9.844   1.691 -0.6855  0.3043 -1.4155
 1010MOL0     H36294   5.324   9.732   1.783  1.0302  3.2083  1.0616
 1010MOL0     H36295   5.513   9.572   1.807 -1.8105 -0.2840 -1.0674
 1010MOL0     H36296   5.606   9.682   1.703 -1.0733  2.9494 -0.0833
 1010MOL0     H36297   5.643   9.718   1.945  0.1463  1.3306  1.7868
 1010MOL0     H36298   5.583   9.865   1.871  1.4787  0.6505  2.8002
 1010MOL0     H36299   5.350   9.823   1.959 -0.9046 -0.7622 -0.0168
 1010MOL0     H36300   5.474   9.844   2.075  2.2688 -1.2436  0.2137
 1010MOL0     H36301   5.594   9.562   2.148  0.4645  0.5507  0.2222
 1010MOL0     H36302   5.480   9.311   2.265 -1.5971  0.8039 -2.0080
 1010MOL0     H36303   5.530   9.422   2.383 -0.3562 -0.0360  0.4308
 1010MOL0     H36304   5.236   9.315   2.367 -0.6163  3.8538 -0.9393
 1010MOL0     H36305   5.307   9.427   2.480  1.2617  1.6486 -0.6985
 1010MOL0     H36306   5.491   9.259   2.514  0.8446 -0.8216  0.8352
 1010MOL0     H36307   5.415   9.127   2.445  0.7615  0.1487 -0.5280
 1010MOL0     H36308   5.341   9.246   2.705  1.0274 -0.3078  0.6012
 1010MOL0     H36309   5.367   9.078   2.664  1.1445 -0.0288 -2.0447
 1010MOL0     H36310   4.951   9.112   2.593  0.9981  1.2271 -0.0730
 1010MOL0     H36311   4.736   9.053   2.665 -0.5128  0.0756  0.5389
 1010MOL0     H36312   4.713   8.902   2.761 -1.2900 -0.6860 -3.3336
 1010MOL0     H36313   4.684   9.076   2.820  2.5613  0.0905  1.2437
 1010MOL0     H36314   4.939   8.641   3.228 -2.0398 -1.7635  1.1309
 1010MOL0     H36315   4.845   8.581   3.457  3.1405  0.0585 -0.4266
 1010MOL0     H36316   4.746   8.597   3.751 -1.0765  2.5738  2.0678
 1010MOL0     H36317   4.899   8.598   3.666  1.1016 -1.6590  3.1649
 1010MOL0     H36318   4.980   8.751   3.808  0.0543  1.4226 -0.4663
 1010MOL0     H36319   4.838   8.802   3.888  1.0300 -0.3002  1.9906
 1010MOL0     H36320   4.990   8.536   3.940  1.2219 -1.2200  1.4669
 1010MOL0     H36321   4.824   8.532   3.946  1.4720  0.2293 -2.2416
 1010MOL0     H36322   4.809   8.720   4.103  0.6766  1.9057 -0.6839
 1010MOL0     H36323   4.917   8.588   4.164 -1.0299 -0.1317  0.4153
 1010MOL0     H36324   5.008   8.867   4.028  1.4587 -2.4394 -3.3865
 1010MOL0     H36325   5.101   8.726   4.048 -0.5666  3.7272 -3.4269
 1010MOL0     H36326   5.112   8.913   4.219 -0.0661  0.3686  1.9062
 1010MOL0     H36327   4.959   8.865   4.283  0.1726  0.3130 -1.1645
 1010MOL0     H36328   5.194   8.672   4.280  0.6636  3.1202 -0.7467
 1010MOL0     H36329   5.031   8.632   4.346 -0.9122  0.8219  0.2840
 1010MOL0     H36330   5.155   8.690   4.539 -0.9075 -0.0598  0.5714
 1010MOL0     H36331   5.035   8.814   4.517  3.3722  2.2882  2.7620
 1010MOL0     H36332   4.817   8.998   3.543 -1.8550  1.7987 -1.7127
 1010MOL0     H36333   4.901   9.056   3.320 -0.9245  1.3514  1.3851
 1010MOL0     H36334   5.145   9.000   3.019  1.4904 -0.9063 -2.3554
 1010MOL0     H36335   5.274   9.112   2.863  0.1258 -0.1047  1.2271
 1010MOL0     H36336   5.544   9.148   1.776  0.9543  0.3081  1.4701
 1010MOL0     H36337   5.543   9.034   1.988  1.4289 -0.8812 -2.2421
 1010MOL0     H36338   5.229   8.568   2.198 -1.3910  0.5432 -0.4466
 1010MOL0     H36339   5.136   8.504   2.411  2.1226  0.0295  1.7814
 1010MOL0     H36340   5.142   8.802   2.747 -0.1652  0.4254  0.6941
 1010MOL0     H36341   4.969   8.750   2.721  0.3285  0.8046  1.2204
 1010MOL0     H36342   5.030   8.550   2.845  2.5061 -0.7056 -0.6337
 1010MOL0     H36343   5.012   8.701   2.941 -0.8596 -0.3892 -0.4908
 1010MOL0     H36344   5.261   8.721   2.965 -0.8475  2.3661 -2.3591
 1010MOL0     H36345   5.283   8.602   2.831 -2.1139 -0.9036 -0.1941
 1010MOL0     H36346   5.193   8.407   2.967  1.0945 -0.8174  1.9954
 1010MOL0     H36347   5.166   8.522   3.099 -0.1399  0.1839  0.5430
 1010MOL0     H36348   5.565   8.509   3.144 -1.7809  0.5096  1.5307
 1010MOL0     H36349   5.112   8.901   2.544 -0.5066 -0.3309 -0.7351
 1010MOL0     H36350   5.178   8.969   2.331 -0.9683 -0.4747  0.5165
 1011MOL0     O36351   1.306   1.856   9.014 -0.0444 -0.3000  0.0594
 1011MOL0     C36352   1.333   1.831   9.132  0.2965 -0.5650  0.4502
 1011MOL0     O36353   1.245   1.791   9.231  0.3666  0.0735 -0.3658
 1011MOL0     C36354   1.119   1.744   9.199  0.1877 -0.2450 -0.3949
 1011MOL0     C36355   1.009   1.762   9.285 -0.9474 -0.1956 -0.4457
 1011MOL0     C36356   0.880   1.720   9.246  0.5992 -0.2588 -0.6060
 1011MOL0     C36357   0.865   1.637   9.138 -0.3135  0.1593 -0.1405
 1011MOL0     O36358   0.745   1.571   9.110  0.1894  0.7034  0.0271
 1011MOL0     C36359   0.624   1.622   9.168 -0.0893 -0.0272 -0.2575
 1011MOL0     C36360   0.514   1.525   9.117  1.2392  0.0048 -0.0863
 1011MOL0     C36361   0.378   1.567   9.197  0.4678  0.1555  0.4054
 1011MOL0     C36362   0.390   1.631   9.338 -0.5001  0.3016  0.9980
 1011MOL0     C36363   0.409   1.531   9.447  0.7932  0.3983  0.0854
 1011MOL0     C36364   0.398   1.569   9.599 -0.2624  0.2107 -0.7140
 1011MOL0     C36365   0.463   1.699   9.645 -0.6646  0.2921 -0.2019
 1011MOL0     C36366   0.473   1.720   9.803 -0.1915 -0.3955 -0.2201
 1011MOL0     N36367   0.341   1.733   9.856 -1.0094  0.2075 -0.5255
 1011MOL0     C36368   0.278   1.628   9.921  0.0429  0.2733  0.0679
 1011MOL0     C36369   0.232   1.688  10.028 -0.1200 -0.3491 -0.8361
 1011MOL0     C36370   0.177   1.598  10.143  1.3241 -0.4610  0.2901
 1011MOL0     C36371   0.241   1.452  10.140 -0.1322  0.0008  0.3572
 1011MOL0     C36372   0.179   1.374  10.265  0.4473  0.2706 -0.2778
 1011MOL0     C36373   0.031   1.373  10.294  0.5520 -0.2648 -1.1662
 1011MOL0     O36374  -0.002   1.278  10.398  0.2766 -0.3635 -0.0329
 1011MOL0     C36375  -0.129   1.250  10.452 -0.0269  0.1256 -0.0703
 1011MOL0     C36376  -0.128   1.147  10.543  0.0472 -0.3261 -0.4389
 1011MOL0     C36377  -0.246   1.110  10.612 -0.8939  1.4383 -0.3240
 1011MOL0     C36378  -0.236   0.999  10.721 -0.4781  0.2239 -0.1417
 1011MOL0     C36379  -0.370   1.167  10.589  0.2221 -1.2595 -1.9170
 1011MOL0     C36380  -0.496   1.130  10.660 -0.5234 -0.2232  0.0604
 1011MOL0     O36381  -0.617   1.134  10.582 -0.1731  0.1674  0.1994
 1011MOL0     C36382  -0.725   1.149  10.668 -0.3886 -0.0105 -0.4418
 1011MOL0     C36383  -0.792   1.039  10.712  0.2233  0.2898  0.7466
 1011MOL0     C36384  -0.893   1.045  10.807 -0.0570  0.7134 -1.1176
 1011MOL0     C36385  -0.944   1.178  10.843 -0.7091  0.5859 -1.0757
 1011MOL0     O36386  -1.049   1.183  10.938  0.8550 -0.0717 -0.0095
 1011MOL0     C36387  -1.022   1.173  11.080 -0.3851  0.1850  0.5198
 1011MOL0     C36388  -1.135   1.081  11.145  0.5233 -0.6219  0.6556
 1011MOL0     C36389  -1.145   1.079  11.293 -1.4387 -0.4627 -0.4211
 1011MOL0     C36390  -1.017   1.024  11.361 -0.3081  0.2443 -0.5250
 1011MOL0     C36391  -1.052   0.962  11.497  1.0865  0.0240 -0.0250
 1011MOL0     C36392  -1.077   1.069  11.608 -0.5315  0.5844  0.4643
 1011MOL0     C36393  -1.116   1.010  11.743  0.5443  0.5456  0.4723
 1011MOL0     C36394  -1.189   1.103  11.829  0.1648 -0.0186 -0.8053
 1011MOL0    Cl36395  -1.189   1.017  11.984  0.4580 -0.0952 -0.7249
 1011MOL0     C36396  -0.892   1.290  10.778 -0.0843 -0.4309  0.2170
 1011MOL0     C36397  -0.777   1.280  10.694 -0.4758  0.7284  0.2411
 1011MOL0     O36398  -0.490   1.102  10.777  0.0912  0.4791 -0.1581
 1011MOL0     C36399  -0.377   1.262  10.488 -0.5703 -0.0527  0.3805
 1011MOL0     C36400  -0.254   1.302  10.420 -0.1256  0.0076 -0.3887
 1011MOL0     N36401   0.234   1.822  10.023 -0.6984  0.2899 -0.3590
 1011MOL0     N36402   0.310   1.849   9.928 -0.1758 -0.7921  0.3289
 1011MOL0     C36403   0.979   1.596   9.070 -0.1265  1.5136  0.4987
 1011MOL0     C36404   1.106   1.647   9.094 -0.5832 -0.1870 -0.2049
 1011MOL0     C36405   1.474   1.864   9.173 -0.2491 -0.0615 -0.2374
 1011MOL0     C36406   1.503   1.904   9.307  0.6783 -1.3011  0.5524
 1011MOL0     C36407   1.631   1.940   9.345 -0.2041 -0.4356  0.2276
 1011MOL0     C36408   1.732   1.942   9.241  0.4930 -0.6058  0.3671
 1011MOL0     O36409   1.861   1.980   9.255 -0.0396  0.9494  0.3731
 1011MOL0     C36410   1.915   1.944   9.389  1.1109 -0.0754  1.1254
 1011MOL0     C36411   1.935   1.798   9.419  0.0610  0.3336 -0.1720
 1011MOL0     C36412   2.009   1.780   9.556 -0.0621  0.7911 -0.4814
 1011MOL0     C36413   2.066   1.646   9.563 -0.1491  0.8376  0.2660
 1011MOL0     C36414   2.210   1.656   9.524 -0.2494  0.4500 -1.4948
 1011MOL0     C36415   2.326   1.688   9.498 -0.9013 -0.5765  0.2238
 1011MOL0     C36416   1.698   1.913   9.110 -0.2983  0.5552  0.5692
 1011MOL0     C36417   1.570   1.882   9.069  0.0055  0.1632 -0.1579
 1011MOL0     H36418   1.019   1.823   9.374  0.6458 -0.9146 -0.1034
 1011MOL0     H36419   0.796   1.746   9.309 -0.4440 -1.2281 -1.5459
 1011MOL0     H36420   0.632   1.608   9.277 -0.2059 -0.1548 -0.2649
 1011MOL0     H36421   0.597   1.724   9.138  1.5867  0.3547 -0.5317
 1011MOL0     H36422   0.500   1.543   9.010  2.0426  0.7389 -0.0756
 1011MOL0     H36423   0.533   1.418   9.124  0.5759 -0.1704 -0.8080
 1011MOL0     H36424   0.333   1.652   9.145  2.9266  1.2512 -0.0801
 1011MOL0     H36425   0.295   1.496   9.198 -0.7402  1.4258 -1.7520
 1011MOL0     H36426   0.460   1.713   9.352  1.0890 -0.6039 -1.1239
 1011MOL0     H36427   0.295   1.682   9.355 -1.7281 -1.8612  1.0973
 1011MOL0     H36428   0.343   1.444   9.454  1.2199  0.1884  2.5618
 1011MOL0     H36429   0.511   1.502   9.423  1.3658  3.9926 -2.6577
 1011MOL0     H36430   0.290   1.578   9.615 -0.3796  1.2866 -1.9635
 1011MOL0     H36431   0.437   1.491   9.665 -1.7972  0.9825  1.1964
 1011MOL0     H36432   0.563   1.698   9.600 -1.8451 -5.4811 -3.7458
 1011MOL0     H36433   0.421   1.790   9.601  0.9267  2.2775  2.0864
 1011MOL0     H36434   0.519   1.816   9.828 -0.3939 -0.7256  1.5078
 1011MOL0     H36435   0.522   1.628   9.838  1.9686  0.2059 -1.4444
 1011MOL0     H36436   0.297   1.525   9.891 -1.3672  0.3514 -1.2154
 1011MOL0     H36437   0.207   1.644  10.238  1.0183 -1.2285  0.7633
 1011MOL0     H36438   0.068   1.593  10.130  1.4088  0.4189 -1.0977
 1011MOL0     H36439   0.350   1.454  10.137 -0.1315  0.0538  0.4199
 1011MOL0     H36440   0.208   1.411  10.044 -2.8628  1.2304  0.6480
 1011MOL0     H36441   0.239   1.387  10.356  1.5471 -3.7004 -0.2549
 1011MOL0     H36442   0.196   1.270  10.236 -4.3900 -1.1093  0.8700
 1011MOL0     H36443  -0.019   1.347  10.200 -0.8003 -0.8204 -0.3188
 1011MOL0     H36444  -0.012   1.470  10.320 -2.1116 -1.1619 -1.8806
 1011MOL0     H36445  -0.030   1.103  10.555  0.8822  1.3429 -0.8233
 1011MOL0     H36446  -0.135   0.958  10.717 -0.0489  0.7293  2.8625
 1011MOL0     H36447  -0.229   1.026  10.827  1.9796 -2.5657  0.5434
 1011MOL0     H36448  -0.311   0.921  10.703 -0.0047 -0.3365  0.2637
 1011MOL0     H36449  -0.751   0.944  10.681 -1.4688 -1.2433  2.8462
 1011MOL0     H36450  -0.930   0.952  10.849  1.9677  0.0958 -0.5777
 1011MOL0     H36451  -0.918   1.142  11.083 -0.3312 -0.0124 -1.6707
 1011MOL0     H36452  -1.047   1.272  11.121 -0.2515  0.0388  0.9506
 1011MOL0     H36453  -1.231   1.119  11.107  1.7540 -2.1311 -4.9805
 1011MOL0     H36454  -1.109   0.982  11.107  1.4074  0.7597 -2.6956
 1011MOL0     H36455  -1.237   1.034  11.332 -0.6400  0.3109  2.6094
 1011MOL0     H36456  -1.159   1.185  11.319 -1.1131 -0.1702 -1.3763
 1011MOL0     H36457  -0.963   0.946  11.306  1.5726 -0.2518  1.8513
 1011MOL0     H36458  -0.930   1.089  11.375  1.4149 -1.6658 -1.6351
 1011MOL0     H36459  -0.980   0.890  11.535  2.7157  2.3409  1.4855
 1011MOL0     H36460  -1.147   0.911  11.478  0.9398  0.0304  0.6796
 1011MOL0     H36461  -0.991   1.132  11.632  0.6105 -1.3230  1.6027
 1011MOL0     H36462  -1.152   1.135  11.564 -1.2444  0.3032  1.2517
 1011MOL0     H36463  -1.027   0.978  11.798  2.1323  1.9764 -1.1366
 1011MOL0     H36464  -1.178   0.921  11.726  1.4727  0.4575 -3.6391
 1011MOL0     H36465  -1.291   1.124  11.796 -0.2387 -2.8682 -1.6209
 1011MOL0     H36466  -1.140   1.201  11.831 -0.7189  0.4388  1.0409
 1011MOL0     H36467  -0.939   1.383  10.811  1.0227 -0.4126  1.8563
 1011MOL0     H36468  -0.705   1.354  10.659  1.3916  0.3388  2.9050
 1011MOL0     H36469  -0.473   1.305  10.460 -0.0456  0.6035 -0.4822
 1011MOL0     H36470  -0.246   1.379  10.344 -1.9910 -0.6106 -1.2629
 1011MOL0     H36471   0.962   1.520   8.995 -3.0720 -0.1016  2.5519
 1011MOL0     H36472   1.196   1.627   9.037 -0.4520 -0.4306  0.0896
 1011MOL0     H36473   1.420   1.908   9.378  3.1829  0.1442  3.6784
 1011MOL0     H36474   1.654   1.971   9.447  0.6022  2.4828 -0.7707
 1011MOL0     H36475   2.012   1.993   9.402 -0.0073  2.3186  1.0529
 1011MOL0     H36476   1.852   1.987   9.468  2.7146  0.4119  2.1978
 1011MOL0     H36477   1.977   1.761   9.325 -2.7802 -0.7616 -1.1014
 1011MOL0     H36478   1.840   1.745   9.421  0.0947  0.2690 -0.2438
 1011MOL0     H36479   1.931   1.791   9.632 -1.0487 -0.8514 -1.1961
 1011MOL0     H36480   2.085   1.858   9.564 -1.3840  2.0922 -0.2591
 1011MOL0     H36481   2.011   1.567   9.511  1.8751 -0.5909  0.1607
 1011MOL0     H36482   2.058   1.626   9.670 -0.8778  0.8518  0.2157
 1011MOL0     H36483   2.432   1.706   9.496 -1.2534  1.8079 -0.2850
 1011MOL0     H36484   1.786   1.916   9.047  1.3648 -1.6375  2.5837
 1011MOL0     H36485   1.548   1.867   8.964 -0.8746 -1.4880  0.2337
 1012MOL0     O36486   1.381   1.089   5.959 -1.1559 -0.1315  0.0313
 1012MOL0     C36487   1.333   0.985   5.990  0.2068 -0.0565 -0.2333
 1012MOL0     O36488   1.269   0.953   6.105 -0.1112 -0.0165  0.2287
 1012MOL0     C36489   1.220   1.057   6.176 -0.1000  0.1076 -0.3309
 1012MOL0     C36490   1.304   1.150   6.242 -0.1441  0.5572  0.4849
 1012MOL0     C36491   1.239   1.244   6.322 -0.5745  1.2873  0.1223
 1012MOL0     C36492   1.099   1.252   6.333 -0.3146 -0.0643  0.1461
 1012MOL0     O36493   1.054   1.353   6.425  0.1895 -0.2104 -0.0537
 1012MOL0     C36494   1.024   1.472   6.355  0.2357 -0.0354  0.0256
 1012MOL0     C36495   0.964   1.568   6.470 -0.7216  0.5362  0.8453
 1012MOL0     C36496   0.912   1.710   6.442  0.5783 -0.0429  0.1830
 1012MOL0     C36497   0.812   1.718   6.330  0.5329  0.6961  0.2718
 1012MOL0     C36498   0.820   1.843   6.240  0.2496  0.6100  0.1168
 1012MOL0     C36499   0.828   1.973   6.328  0.5371 -0.5386  0.2726
 1012MOL0     C36500   0.768   2.083   6.228 -0.2957 -1.2159 -0.0542
 1012MOL0     C36501   0.779   2.232   6.281 -0.7013  0.7498  0.5594
 1012MOL0     N36502   0.924   2.276   6.277  0.2855  0.2548  0.1349
 1012MOL0     C36503   1.018   2.258   6.374  0.0707  1.3570 -0.3418
 1012MOL0     C36504   1.139   2.283   6.315 -0.6767  0.8078 -1.0872
 1012MOL0     C36505   1.276   2.270   6.376  0.8476  0.1263  0.7690
 1012MOL0     C36506   1.302   2.152   6.454  0.6974  1.3349  0.4247
 1012MOL0     C36507   1.242   2.025   6.402 -0.5316 -0.1184  0.5889
 1012MOL0     C36508   1.336   1.906   6.439 -0.1479  0.3523 -0.3244
 1012MOL0     O36509   1.279   1.792   6.358 -0.2233  1.0682 -0.5366
 1012MOL0     C36510   1.374   1.724   6.289 -0.3413  0.2155 -0.0922
 1012MOL0     C36511   1.441   1.614   6.358  0.3609 -0.7812  0.2991
 1012MOL0     C36512   1.525   1.531   6.288 -0.7097 -0.9323 -0.3211
 1012MOL0     C36513   1.574   1.411   6.363  1.0761  0.5713 -0.5984
 1012MOL0     C36514   1.562   1.574   6.151 -0.1562 -0.4390 -0.4018
 1012MOL0     C36515   1.656   1.498   6.061  0.2849  0.2098  0.2400
 1012MOL0     O36516   1.656   1.362   6.075 -0.1456  0.2939  0.4271
 1012MOL0     C36517   1.729   1.280   5.991 -0.1415 -0.2614  0.4631
 1012MOL0     C36518   1.750   1.149   6.041  0.2833 -0.3864 -0.1209
 1012MOL0     C36519   1.825   1.058   5.962  0.1811  0.4222  0.9947
 1012MOL0     C36520   1.860   1.083   5.833  0.4520  0.5693  0.6965
 1012MOL0     O36521   1.916   0.975   5.764 -0.5157  0.2956 -0.2175
 1012MOL0     C36522   1.944   0.970   5.629 -0.0804 -1.0459 -0.5203
 1012MOL0     C36523   2.089   1.019   5.617 -0.2995  0.4322  0.5097
 1012MOL0     C36524   2.133   1.024   5.472  0.2373  0.3623 -0.3240
 1012MOL0     C36525   2.284   1.022   5.432 -1.2521  0.0744  0.3484
 1012MOL0     C36526   2.360   0.904   5.503  0.0423  0.9737 -0.8263
 1012MOL0     C36527   2.498   0.895   5.430 -0.4863 -0.0931  0.7793
 1012MOL0     C36528   2.598   0.787   5.476  0.5775 -0.1397 -0.2268
 1012MOL0     C36529   2.692   0.734   5.363 -0.1897  0.0214  0.3600
 1012MOL0    Cl36530   2.789   0.870   5.306  0.0706  0.3655  0.2438
 1012MOL0     C36531   1.835   1.213   5.780 -0.6153  0.5295  0.5531
 1012MOL0     C36532   1.768   1.304   5.857 -0.3313 -0.1604  0.2527
 1012MOL0     O36533   1.718   1.570   5.982  0.0166  0.1063 -0.3853
 1012MOL0     C36534   1.498   1.683   6.093 -0.2083 -0.5477  1.3449
 1012MOL0     C36535   1.406   1.757   6.159  0.5160 -0.0163  0.2004
 1012MOL0     N36536   1.112   2.322   6.190 -0.4610  0.4658 -0.2367
 1012MOL0     N36537   0.987   2.321   6.170  0.6061 -0.1680  0.5036
 1012MOL0     C36538   1.013   1.159   6.268 -0.0232  0.1085  1.1062
 1012MOL0     C36539   1.076   1.062   6.194 -0.3386  0.2025 -1.3811
 1012MOL0     C36540   1.368   0.883   5.897 -0.3122 -0.6557  0.7830
 1012MOL0     C36541   1.482   0.890   5.809 -0.2697 -0.4115 -0.5969
 1012MOL0     C36542   1.527   0.791   5.728  0.1768  0.3974 -0.3718
 1012MOL0     C36543   1.442   0.678   5.722  0.2378  0.1277  0.6897
 1012MOL0     O36544   1.471   0.580   5.624  0.5382 -0.8285 -0.2422
 1012MOL0     C36545   1.577   0.588   5.533 -0.4112  0.3194  0.0307
 1012MOL0     C36546   1.582   0.450   5.472 -0.2837  0.0237 -0.1317
 1012MOL0     C36547   1.695   0.409   5.381  0.0885  0.0127  0.4489
 1012MOL0     C36548   1.678   0.263   5.316 -0.2148 -1.2139 -0.3512
 1012MOL0     C36549   1.593   0.283   5.195 -0.3175  0.1628  0.2919
 1012MOL0     C36550   1.528   0.281   5.101  0.4296 -0.4482 -0.2525
 1012MOL0     C36551   1.326   0.671   5.795 -0.4571 -0.1489 -0.5698
 1012MOL0     C36552   1.293   0.769   5.888  0.3551  0.6930  0.1963
 1012MOL0     H36553   1.412   1.136   6.246 -0.2022  0.1246  0.6317
 1012MOL0     H36554   1.288   1.332   6.362  0.0613  0.2997  1.5914
 1012MOL0     H36555   1.120   1.512   6.321  2.3089 -0.8196  4.2259
 1012MOL0     H36556   0.949   1.451   6.279 -0.0459 -1.6167  0.6980
 1012MOL0     H36557   0.886   1.505   6.514 -0.7469 -0.5014 -0.6289
 1012MOL0     H36558   1.046   1.576   6.542  2.2585 -2.5826 -1.8996
 1012MOL0     H36559   0.870   1.755   6.533 -0.3880 -1.8251  0.6681
 1012MOL0     H36560   0.998   1.771   6.414  0.6932 -0.4531 -0.3777
 1012MOL0     H36561   0.816   1.630   6.265  0.4348  0.7592  0.1802
 1012MOL0     H36562   0.713   1.728   6.376  0.1411 -4.4008  1.1974
 1012MOL0     H36563   0.911   1.838   6.179  1.2941  2.6854  1.4282
 1012MOL0     H36564   0.729   1.855   6.180 -1.4431  2.1273  2.7837
 1012MOL0     H36565   0.770   1.965   6.420  0.6637 -0.1179  0.3936
 1012MOL0     H36566   0.934   2.000   6.340  0.9164 -0.3033 -2.9139
 1012MOL0     H36567   0.825   2.078   6.134 -1.4299 -1.6470 -0.7494
 1012MOL0     H36568   0.662   2.064   6.204 -0.2383  0.3188 -1.7303
 1012MOL0     H36569   0.734   2.238   6.380  1.1646  2.4949  1.3740
 1012MOL0     H36570   0.718   2.302   6.223  2.1787  1.3619 -1.9813
 1012MOL0     H36571   1.008   2.222   6.476 -0.8247  2.2471 -0.1063
 1012MOL0     H36572   1.349   2.276   6.295 -0.5179  1.5512 -0.4233
 1012MOL0     H36573   1.299   2.345   6.452  0.4896 -0.1432  1.1459
 1012MOL0     H36574   1.271   2.167   6.558  0.2397  0.8618  0.3588
 1012MOL0     H36575   1.410   2.138   6.439  0.3989  0.8700 -1.7193
 1012MOL0     H36576   1.229   2.020   6.293  1.6978 -2.2821  0.2987
 1012MOL0     H36577   1.149   1.998   6.451 -0.8382  0.0682  0.1175
 1012MOL0     H36578   1.323   1.889   6.546 -0.0628  1.9877 -0.0186
 1012MOL0     H36579   1.439   1.933   6.414 -0.9817  3.4086 -0.8804
 1012MOL0     H36580   1.423   1.613   6.465 -0.9775 -2.1169  0.0955
 1012MOL0     H36581   1.532   1.327   6.307  3.6656 -0.9437 -0.4265
 1012MOL0     H36582   1.682   1.400   6.355  1.0303 -0.0421 -0.4164
 1012MOL0     H36583   1.548   1.414   6.469 -2.0121  1.0437 -1.2474
 1012MOL0     H36584   1.727   1.116   6.142  0.5682 -0.4447 -0.0737
 1012MOL0     H36585   1.847   0.955   5.987 -0.0664 -0.5832 -2.4283
 1012MOL0     H36586   1.950   0.865   5.598 -0.3448 -2.0479  2.5411
 1012MOL0     H36587   1.861   1.003   5.565 -2.1698  0.1422  2.5555
 1012MOL0     H36588   2.105   1.120   5.656 -1.7460  1.6081 -1.7493
 1012MOL0     H36589   2.143   0.955   5.687 -1.3951  1.4669  2.3729
 1012MOL0     H36590   2.094   1.115   5.425 -0.4999 -0.1002 -0.6323
 1012MOL0     H36591   2.089   0.940   5.418  0.8830  0.6158 -1.2684
 1012MOL0     H36592   2.305   1.010   5.325 -0.3833 -0.0893  0.5295
 1012MOL0     H36593   2.322   1.120   5.462  0.5743 -0.3270 -0.4772
 1012MOL0     H36594   2.307   0.809   5.498  1.0228  0.2801  1.0749
 1012MOL0     H36595   2.361   0.929   5.610  3.9789  4.2507 -1.3739
 1012MOL0     H36596   2.487   0.892   5.321 -1.7088  3.8581  0.6197
 1012MOL0     H36597   2.545   0.994   5.443  1.5584 -0.9592  0.4502
 1012MOL0     H36598   2.548   0.702   5.524 -2.0785  1.3996 -0.0874
 1012MOL0     H36599   2.669   0.830   5.546 -0.2841 -0.7404  1.0434
 1012MOL0     H36600   2.634   0.701   5.275  1.2190  0.0952 -0.6256
 1012MOL0     H36601   2.772   0.664   5.385 -1.3198 -1.2127  0.6822
 1012MOL0     H36602   1.867   1.229   5.677 -1.1998 -1.0445  0.0995
 1012MOL0     H36603   1.745   1.402   5.816  3.2399  1.3189  1.3958
 1012MOL0     H36604   1.522   1.712   5.991 -1.7790 -0.3886  0.9885
 1012MOL0     H36605   1.362   1.843   6.110 -0.9204 -2.0576 -2.3921
 1012MOL0     H36606   0.905   1.162   6.283 -0.4349 -2.9912 -0.5161
 1012MOL0     H36607   1.015   0.988   6.144 -0.9570 -2.1983  2.5256
 1012MOL0     H36608   1.550   0.975   5.810  0.9056 -1.2966 -1.7941
 1012MOL0     H36609   1.620   0.816   5.679  0.9819  3.1444  2.2546
 1012MOL0     H36610   1.562   0.665   5.457  1.0787  1.0231  0.4052
 1012MOL0     H36611   1.675   0.612   5.575  0.2926  1.0344 -1.8772
 1012MOL0     H36612   1.489   0.426   5.419  0.5573  0.1542 -1.7472
 1012MOL0     H36613   1.575   0.379   5.554 -1.5543  0.3148  0.0385
 1012MOL0     H36614   1.784   0.412   5.444 -0.9439  3.0810  1.9908
 1012MOL0     H36615   1.715   0.475   5.297  3.2286 -1.5656 -0.1737
 1012MOL0     H36616   1.634   0.190   5.384  2.3844 -3.2887 -0.7427
 1012MOL0     H36617   1.776   0.230   5.280  1.0434 -0.0072  1.7415
 1012MOL0     H36618   1.470   0.281   5.011 -2.2255 -2.0391  1.3303
 1012MOL0     H36619   1.264   0.584   5.775  0.4008 -1.1770  1.0331
 1012MOL0     H36620   1.201   0.761   5.944  0.9420 -0.3346  1.0510
 1013MOL0     O36621   9.311   5.416   7.050 -0.8212  0.2471 -0.0149
 1013MOL0     C36622   9.427   5.374   7.089  0.8420 -0.0796  0.7087
 1013MOL0     O36623   9.503   5.430   7.181 -0.3266  0.2861  0.9620
 1013MOL0     C36624   9.453   5.495   7.289  0.1918  0.4586  0.5235
 1013MOL0     C36625   9.337   5.456   7.352 -0.2667 -0.8759 -0.5293
 1013MOL0     C36626   9.290   5.529   7.458 -0.0592 -0.6317  0.3222
 1013MOL0     C36627   9.352   5.652   7.504  0.2605 -0.8360 -0.4033
 1013MOL0     O36628   9.292   5.745   7.596  0.3303 -0.1512 -1.3459
 1013MOL0     C36629   9.218   5.694   7.710 -0.2380 -0.7551 -0.8477
 1013MOL0     C36630   9.183   5.787   7.828  0.3350 -0.4225  0.3651
 1013MOL0     C36631   9.310   5.867   7.876 -0.2051 -0.2541  0.2234
 1013MOL0     C36632   9.337   6.009   7.808  0.3707  0.0824 -0.6322
 1013MOL0     C36633   9.450   6.089   7.878  0.1127  0.1058  0.9604
 1013MOL0     C36634   9.506   6.216   7.807 -0.1564  0.1539 -0.7530
 1013MOL0     C36635   9.390   6.328   7.799  0.1954  0.2747  0.4713
 1013MOL0     C36636   9.435   6.469   7.770 -0.0375  0.2341 -0.9742
 1013MOL0     N36637   9.339   6.564   7.739 -0.0755 -0.6257  0.7570
 1013MOL0     C36638   9.258   6.624   7.828  0.2917 -1.3304 -0.5005
 1013MOL0     C36639   9.165   6.690   7.749 -0.1104  0.2533 -0.1691
 1013MOL0     C36640   9.048   6.769   7.801  0.4545 -1.0262 -0.2757
 1013MOL0     C36641   9.083   6.866   7.920  0.3027  0.2218  0.8693
 1013MOL0     C36642   9.167   6.989   7.867  0.3393 -0.6061  0.9744
 1013MOL0     C36643   9.190   7.088   7.984 -0.3322  0.4586 -0.3757
 1013MOL0     O36644   9.286   7.029   8.077 -0.1172  0.1132  1.0675
 1013MOL0     C36645   9.299   7.070   8.208  0.0504  0.4338  0.1906
 1013MOL0     C36646   9.369   6.987   8.289 -0.1111 -0.0528 -0.4047
 1013MOL0     C36647   9.394   7.017   8.418  0.5363 -0.3813 -0.2028
 1013MOL0     C36648   9.496   6.915   8.471  0.2290  0.5687 -0.3154
 1013MOL0     C36649   9.333   7.127   8.484  0.0559 -0.4694 -0.3606
 1013MOL0     C36650   9.349   7.149   8.630 -0.3829  0.1594  0.3891
 1013MOL0     O36651   9.335   7.283   8.667 -0.3518 -0.8482 -0.1154
 1013MOL0     C36652   9.320   7.301   8.805  0.1729 -0.4879 -0.1266
 1013MOL0     C36653   9.425   7.365   8.878  1.0317 -0.2351  0.3490
 1013MOL0     C36654   9.400   7.393   9.014 -0.5406 -0.6412 -0.4749
 1013MOL0     C36655   9.283   7.367   9.083  0.4110  0.1314  0.1934
 1013MOL0     O36656   9.274   7.405   9.212 -0.4285  0.1860 -0.0257
 1013MOL0     C36657   9.263   7.293   9.299 -0.6598  0.0540  1.0881
 1013MOL0     C36658   9.329   7.317   9.435  0.4619  1.0540  0.0823
 1013MOL0     C36659   9.478   7.356   9.419 -0.5025  0.8359  0.5000
 1013MOL0     C36660   9.573   7.247   9.395 -0.2130  0.4813  0.2866
 1013MOL0     C36661   9.705   7.291   9.334  1.5924 -0.6264  0.0209
 1013MOL0     C36662   9.821   7.189   9.342  0.3948  0.1610 -0.4273
 1013MOL0     C36663   9.901   7.179   9.474 -0.5311 -0.5354 -0.0404
 1013MOL0     C36664   9.989   7.064   9.468  0.2630  0.6991 -0.3905
 1013MOL0    Cl36665  10.080   7.055   9.630 -0.2081 -0.0907  0.2672
 1013MOL0     C36666   9.180   7.316   9.007  0.6651 -0.3133  0.2923
 1013MOL0     C36667   9.192   7.293   8.870 -0.7494 -0.4180  0.7980
 1013MOL0     O36668   9.353   7.051   8.703 -0.0998  0.6013 -0.2715
 1013MOL0     C36669   9.269   7.218   8.402 -0.0401  1.3967  0.5401
 1013MOL0     C36670   9.248   7.179   8.270 -0.0924 -0.4292  0.9419
 1013MOL0     N36671   9.181   6.656   7.616 -0.4877  0.1670  0.2774
 1013MOL0     N36672   9.295   6.580   7.608 -0.1242 -0.6253 -0.2697
 1013MOL0     C36673   9.468   5.681   7.438 -0.2540  0.0923 -0.6665
 1013MOL0     C36674   9.520   5.611   7.335  1.0109  0.8500 -0.0579
 1013MOL0     C36675   9.482   5.247   7.028 -0.1012  0.6281  0.6824
 1013MOL0     C36676   9.412   5.157   6.951 -0.8446  0.8830  0.4826
 1013MOL0     C36677   9.459   5.034   6.909 -0.7289 -1.7878 -1.1106
 1013MOL0     C36678   9.584   4.992   6.956  0.0816  0.1652 -1.0913
 1013MOL0     O36679   9.612   4.869   6.922 -0.5104  0.7598 -0.4175
 1013MOL0     C36680   9.742   4.815   6.958  0.0055 -0.7844 -1.1904
 1013MOL0     C36681   9.749   4.668   6.909 -0.0473 -0.7216  0.3168
 1013MOL0     C36682   9.649   4.565   6.976 -0.1262  0.3574 -0.4616
 1013MOL0     C36683   9.702   4.486   7.100  0.5613 -0.4865 -0.2315
 1013MOL0     C36684   9.815   4.394   7.066  0.1503 -0.3148  0.1711
 1013MOL0     C36685   9.890   4.303   7.029  0.4736 -0.4737  0.4287
 1013MOL0     C36686   9.663   5.085   7.020 -0.1963 -0.0579  0.1556
 1013MOL0     C36687   9.610   5.209   7.062 -0.3582  1.4388 -0.4212
 1013MOL0     H36688   9.296   5.359   7.326 -0.0529 -2.0564  2.9945
 1013MOL0     H36689   9.192   5.511   7.501  0.0090  0.6903  1.1082
 1013MOL0     H36690   9.120   5.663   7.673  0.0953 -0.2248 -2.2137
 1013MOL0     H36691   9.270   5.604   7.746  2.0825  0.7454 -0.2238
 1013MOL0     H36692   9.102   5.857   7.805 -0.7030 -0.9001  2.3408
 1013MOL0     H36693   9.155   5.729   7.916 -1.0689  1.4224  1.2057
 1013MOL0     H36694   9.295   5.894   7.981 -2.9164 -1.0362  0.1131
 1013MOL0     H36695   9.398   5.803   7.869 -1.7622 -2.3387 -2.3420
 1013MOL0     H36696   9.359   6.007   7.700  1.1155 -0.1906 -0.4822
 1013MOL0     H36697   9.243   6.065   7.811 -0.7628 -1.7750  0.2345
 1013MOL0     H36698   9.419   6.106   7.982 -0.9217 -3.8767  1.4461
 1013MOL0     H36699   9.537   6.023   7.876 -0.9095 -1.3903 -3.1525
 1013MOL0     H36700   9.591   6.260   7.860  0.1228  1.4976 -2.2378
 1013MOL0     H36701   9.546   6.186   7.710 -0.2220 -0.4767 -0.5873
 1013MOL0     H36702   9.306   6.307   7.734  0.0058  3.0893 -0.3260
 1013MOL0     H36703   9.346   6.338   7.899 -1.6091 -3.5110  0.2196
 1013MOL0     H36704   9.507   6.468   7.688  0.6979 -1.3430 -0.3555
 1013MOL0     H36705   9.504   6.503   7.849  0.9733 -1.6824 -0.9815
 1013MOL0     H36706   9.259   6.619   7.936 -0.6950  0.8223 -0.3605
 1013MOL0     H36707   8.987   6.819   7.725  0.2288  2.1421  1.8066
 1013MOL0     H36708   8.981   6.694   7.845  1.6509 -2.1481 -0.2822
 1013MOL0     H36709   9.135   6.808   7.997  2.7149 -0.3774 -1.0580
 1013MOL0     H36710   8.989   6.906   7.959 -0.9906  1.1599 -2.8223
 1013MOL0     H36711   9.114   7.036   7.784  2.8044 -1.5571 -1.2851
 1013MOL0     H36712   9.259   6.975   7.810 -0.2825  2.7730 -1.1606
 1013MOL0     H36713   9.096   7.108   8.035 -0.0279  1.0880 -0.0580
 1013MOL0     H36714   9.221   7.184   7.942 -4.4930  1.5080 -1.5706
 1013MOL0     H36715   9.395   6.893   8.243 -0.6037 -0.8799  0.9586
 1013MOL0     H36716   9.535   6.941   8.570 -0.9214 -1.6844  0.8092
 1013MOL0     H36717   9.448   6.818   8.485  2.4096 -0.4692  0.4662
 1013MOL0     H36718   9.580   6.886   8.407 -0.1910 -1.1512 -0.1423
 1013MOL0     H36719   9.523   7.397   8.842 -0.5686  2.4472 -2.1134
 1013MOL0     H36720   9.490   7.442   9.051 -0.2436 -1.9436  0.6309
 1013MOL0     H36721   9.154   7.284   9.306 -1.0939  0.4756 -2.7576
 1013MOL0     H36722   9.300   7.202   9.251 -3.5029 -0.6385 -0.0305
 1013MOL0     H36723   9.281   7.395   9.495  3.8524  2.7316  0.8252
 1013MOL0     H36724   9.330   7.227   9.497  2.4951  0.1039 -1.2285
 1013MOL0     H36725   9.516   7.410   9.506 -0.8238  0.6127  0.7767
 1013MOL0     H36726   9.495   7.426   9.336 -0.4287 -1.5475 -1.6172
 1013MOL0     H36727   9.589   7.183   9.481 -2.8888 -3.3058 -1.7581
 1013MOL0     H36728   9.526   7.171   9.332 -1.1145  1.2183  0.0337
 1013MOL0     H36729   9.747   7.375   9.390  4.0227 -2.0684  0.4881
 1013MOL0     H36730   9.694   7.319   9.228 -1.4485 -3.2959 -0.5545
 1013MOL0     H36731   9.792   7.086   9.318  0.1128 -0.8219  3.5638
 1013MOL0     H36732   9.901   7.226   9.277  2.3694 -0.3184  1.6147
 1013MOL0     H36733   9.851   7.167   9.570  0.4178 -0.0091  0.5294
 1013MOL0     H36734   9.953   7.275   9.477 -1.6238  0.1307 -1.2699
 1013MOL0     H36735  10.063   7.078   9.388  1.2899  0.3753  0.4934
 1013MOL0     H36736   9.923   6.982   9.440 -0.7485  2.0787 -2.3454
 1013MOL0     H36737   9.092   7.301   9.070  0.6177 -1.2010  0.0290
 1013MOL0     H36738   9.104   7.262   8.816  0.4731 -0.2985 -1.3767
 1013MOL0     H36739   9.235   7.315   8.437  1.9241  2.5209 -0.4823
 1013MOL0     H36740   9.203   7.249   8.201  0.5432 -0.5610  0.3821
 1013MOL0     H36741   9.530   5.766   7.467  0.1145 -0.7082  0.9972
 1013MOL0     H36742   9.607   5.653   7.285  1.2609  3.6074  2.3820
 1013MOL0     H36743   9.312   5.187   6.920 -0.1477  0.7204 -2.1871
 1013MOL0     H36744   9.403   4.962   6.849 -1.0016 -1.7914 -0.8565
 1013MOL0     H36745   9.821   4.881   6.923  1.2628 -1.3182  0.5260
 1013MOL0     H36746   9.734   4.815   7.067 -2.5571 -1.6612 -1.2931
 1013MOL0     H36747   9.852   4.632   6.914  0.5462  0.2340 -2.8626
 1013MOL0     H36748   9.729   4.662   6.802 -2.5341 -2.2903  0.7664
 1013MOL0     H36749   9.624   4.491   6.901  4.5466 -1.7375 -0.3252
 1013MOL0     H36750   9.560   4.619   7.011 -0.9070 -1.9385  1.3484
 1013MOL0     H36751   9.623   4.428   7.147 -1.8830  2.2178 -0.7543
 1013MOL0     H36752   9.740   4.551   7.180  0.3375 -1.0071  0.3045
 1013MOL0     H36753   9.951   4.225   6.991 -1.1215 -0.6252 -2.0160
 1013MOL0     H36754   9.757   5.048   7.058  0.0692  1.4301  1.0270
 1013MOL0     H36755   9.660   5.263   7.142  1.8441 -1.3947  0.3342
 1014MOL0     O36756   2.629   4.508   4.267 -0.0095  0.2073 -0.0790
 1014MOL0     C36757   2.532   4.441   4.246 -0.4808  0.3038 -0.1423
 1014MOL0     O36758   2.418   4.485   4.194 -0.5645  0.3629 -0.5689
 1014MOL0     C36759   2.406   4.611   4.148  0.6909  0.5063 -0.0074
 1014MOL0     C36760   2.433   4.732   4.213  0.2525  0.5919 -1.0029
 1014MOL0     C36761   2.422   4.859   4.162  0.5350  0.1518 -0.4988
 1014MOL0     C36762   2.384   4.870   4.025  0.3685  0.8793 -0.0279
 1014MOL0     O36763   2.383   4.980   3.945  0.1049  0.4993 -0.2430
 1014MOL0     C36764   2.479   5.084   3.979  1.5609  0.0379  0.0931
 1014MOL0     C36765   2.483   5.176   3.866 -0.4541  1.0045  0.4875
 1014MOL0     C36766   2.529   5.100   3.736 -0.9248 -0.2243  0.6670
 1014MOL0     C36767   2.539   5.201   3.626  0.0026  0.7628  0.5659
 1014MOL0     C36768   2.533   5.131   3.490  0.0785  0.6895  0.6457
 1014MOL0     C36769   2.645   5.026   3.464  0.4700 -0.0796 -0.3127
 1014MOL0     C36770   2.653   5.006   3.313 -0.3012  0.9828  0.0968
 1014MOL0     C36771   2.741   4.890   3.271 -0.2714 -0.1078 -1.2498
 1014MOL0     N36772   2.712   4.865   3.130 -0.3252  0.7492 -0.6202
 1014MOL0     C36773   2.668   4.738   3.064  0.5172  0.4918  0.0183
 1014MOL0     C36774   2.652   4.763   2.937 -0.8286  0.6749 -0.4905
 1014MOL0     C36775   2.615   4.672   2.826  0.2234 -1.0693 -0.5708
 1014MOL0     C36776   2.620   4.742   2.698  0.0963  0.1701  0.9908
 1014MOL0     C36777   2.757   4.791   2.641 -0.3011 -0.4865 -0.4492
 1014MOL0     C36778   2.857   4.684   2.664  0.9219  0.9818  0.3689
 1014MOL0     O36779   2.980   4.738   2.609 -0.7782 -0.7276 -0.2341
 1014MOL0     C36780   3.038   4.678   2.505 -0.2243 -0.6931  1.0493
 1014MOL0     C36781   2.981   4.648   2.385 -0.1133 -0.4914  0.5240
 1014MOL0     C36782   3.044   4.602   2.265 -0.3638 -0.3379 -0.6576
 1014MOL0     C36783   2.963   4.567   2.136  0.3115  0.6285  0.4668
 1014MOL0     C36784   3.179   4.564   2.275 -0.5817 -0.0075  0.1757
 1014MOL0     C36785   3.260   4.489   2.180  0.9348 -0.6778  0.5082
 1014MOL0     O36786   3.246   4.519   2.046  0.1299 -0.8872  0.1118
 1014MOL0     C36787   3.300   4.433   1.954 -0.3808 -0.0036  0.0351
 1014MOL0     C36788   3.391   4.480   1.851 -0.2712 -0.0363  0.1049
 1014MOL0     C36789   3.441   4.392   1.760 -0.2326  0.7261  0.1973
 1014MOL0     C36790   3.409   4.252   1.758 -0.8069  0.9220 -0.2944
 1014MOL0     O36791   3.448   4.147   1.672 -0.2233  0.1505 -0.1814
 1014MOL0     C36792   3.583   4.113   1.647  0.3829 -0.0147  0.2280
 1014MOL0     C36793   3.611   3.965   1.676  0.7003  0.0392  0.4699
 1014MOL0     C36794   3.743   3.923   1.651 -0.2834  1.0631  0.2434
 1014MOL0     C36795   3.853   3.975   1.747  0.2545  0.4320 -0.5521
 1014MOL0     C36796   3.940   4.080   1.666  0.3892  0.5498  0.0848
 1014MOL0     C36797   4.037   4.154   1.749  0.6020  0.1588 -0.6061
 1014MOL0     C36798   3.971   4.272   1.818  0.7411 -1.4505  0.0334
 1014MOL0     C36799   3.993   4.405   1.752 -1.2157 -0.5389  1.0608
 1014MOL0    Cl36800   3.883   4.518   1.840 -0.7354  0.1041  0.5097
 1014MOL0     C36801   3.313   4.207   1.846 -0.0461 -0.0437  0.2918
 1014MOL0     C36802   3.257   4.295   1.950  1.0493  0.4022  0.7253
 1014MOL0     O36803   3.326   4.407   2.230  0.6250  0.4946  0.1477
 1014MOL0     C36804   3.249   4.615   2.389 -0.1922  0.8873 -1.4012
 1014MOL0     C36805   3.181   4.672   2.506  0.2748  0.0752  0.4466
 1014MOL0     N36806   2.688   4.901   2.923  1.2114  0.2147 -0.5505
 1014MOL0     N36807   2.725   4.953   3.030 -1.7807 -0.6434  1.0250
 1014MOL0     C36808   2.353   4.747   3.953  0.1840 -0.6576 -0.4712
 1014MOL0     C36809   2.354   4.624   4.011 -0.1525  0.4397 -0.1509
 1014MOL0     C36810   2.543   4.302   4.282  0.7319 -0.3835  1.1517
 1014MOL0     C36811   2.664   4.243   4.337  1.0886  0.0345 -0.2315
 1014MOL0     C36812   2.656   4.103   4.366 -0.4862  0.2761  0.0040
 1014MOL0     C36813   2.534   4.033   4.355  0.5298  0.2789  0.6795
 1014MOL0     O36814   2.511   3.914   4.409  0.2392 -0.2292 -0.2073
 1014MOL0     C36815   2.595   3.839   4.492  0.5094 -0.2441  0.1093
 1014MOL0     C36816   2.557   3.684   4.469 -0.8054 -0.0172 -0.9720
 1014MOL0     C36817   2.420   3.646   4.542 -0.2865 -0.0763 -0.3966
 1014MOL0     C36818   2.296   3.700   4.462 -0.4366  0.2449 -0.0901
 1014MOL0     C36819   2.167   3.635   4.493 -0.3118  0.4218 -0.3201
 1014MOL0     C36820   2.058   3.592   4.528  0.1703  0.0433 -0.3461
 1014MOL0     C36821   2.424   4.092   4.296 -0.4260 -0.3800  0.0436
 1014MOL0     C36822   2.428   4.223   4.259  0.0678  0.1576  0.3859
 1014MOL0     H36823   2.463   4.733   4.317 -2.2375  2.9965 -0.1859
 1014MOL0     H36824   2.446   4.941   4.228  0.9820 -2.2178  2.4712
 1014MOL0     H36825   2.438   5.140   4.064 -2.3586  1.9924 -2.7509
 1014MOL0     H36826   2.578   5.042   3.999  1.0394 -0.5537  1.5864
 1014MOL0     H36827   2.382   5.216   3.854 -1.4126 -1.1765  0.6783
 1014MOL0     H36828   2.547   5.252   3.911  1.1119 -0.7771  1.4538
 1014MOL0     H36829   2.627   5.055   3.754 -0.8734  0.7320  3.1395
 1014MOL0     H36830   2.451   5.029   3.707  0.8790 -1.8271 -0.4809
 1014MOL0     H36831   2.455   5.271   3.623  0.3063  1.1153 -2.2452
 1014MOL0     H36832   2.629   5.262   3.640  0.9235 -0.5588  0.6466
 1014MOL0     H36833   2.436   5.082   3.476  0.7773 -0.4765 -0.3217
 1014MOL0     H36834   2.538   5.208   3.413  0.9696 -1.0549 -1.1093
 1014MOL0     H36835   2.736   5.046   3.520  1.9239 -2.5408 -1.6340
 1014MOL0     H36836   2.616   4.933   3.515 -0.6630  1.1196  1.3295
 1014MOL0     H36837   2.556   5.014   3.262 -0.5762  0.5830  0.5484
 1014MOL0     H36838   2.705   5.094   3.273 -0.2149 -0.1324 -2.4254
 1014MOL0     H36839   2.740   4.796   3.326 -0.6988 -1.3727 -3.3061
 1014MOL0     H36840   2.848   4.913   3.272 -0.4130  0.6540 -1.8965
 1014MOL0     H36841   2.648   4.648   3.122 -0.9587  2.0940  2.1367
 1014MOL0     H36842   2.672   4.579   2.816 -1.7039 -2.0449 -6.0200
 1014MOL0     H36843   2.514   4.639   2.850 -0.8879  0.8073 -2.3169
 1014MOL0     H36844   2.552   4.827   2.694  0.7892  0.6998 -0.0411
 1014MOL0     H36845   2.565   4.671   2.635  0.0862 -0.2343  1.4487
 1014MOL0     H36846   2.796   4.883   2.683 -0.9410  0.9199 -2.7411
 1014MOL0     H36847   2.754   4.823   2.536 -1.9272  0.8957 -0.0260
 1014MOL0     H36848   2.821   4.594   2.612 -2.8132  1.5139  1.6755
 1014MOL0     H36849   2.868   4.643   2.765 -2.7466  2.4454  1.5489
 1014MOL0     H36850   2.873   4.657   2.376  0.0300  0.8089 -0.1675
 1014MOL0     H36851   2.963   4.642   2.056  1.2074 -2.4615 -2.6870
 1014MOL0     H36852   3.010   4.480   2.090  3.2730  2.2048  0.2718
 1014MOL0     H36853   2.855   4.555   2.144  0.1702 -0.7415 -2.3718
 1014MOL0     H36854   3.426   4.582   1.857  3.4943 -1.1909  0.2867
 1014MOL0     H36855   3.508   4.402   1.675 -0.2867 -1.1261 -0.1112
 1014MOL0     H36856   3.608   4.136   1.543  0.8681  1.1266  0.5911
 1014MOL0     H36857   3.649   4.182   1.700  1.3643 -2.0794  1.8808
 1014MOL0     H36858   3.570   3.930   1.771 -2.2128  0.3986 -0.5678
 1014MOL0     H36859   3.547   3.908   1.608  0.1614  2.7232 -1.4197
 1014MOL0     H36860   3.772   3.947   1.548 -0.4198  2.0241  0.4181
 1014MOL0     H36861   3.750   3.814   1.662 -0.3722  1.0153 -0.1479
 1014MOL0     H36862   3.821   4.020   1.841  0.2239  0.2266 -0.4651
 1014MOL0     H36863   3.919   3.893   1.775 -2.5603 -1.6817  0.3389
 1014MOL0     H36864   3.874   4.154   1.619  0.0662 -0.6632 -1.4677
 1014MOL0     H36865   3.991   4.031   1.582  0.0163 -0.2133  0.2932
 1014MOL0     H36866   4.065   4.089   1.832 -1.7546  0.6562  0.6624
 1014MOL0     H36867   4.115   4.190   1.681 -1.5582 -1.2180 -4.0878
 1014MOL0     H36868   4.021   4.292   1.913  0.5490  0.6249 -0.2548
 1014MOL0     H36869   3.866   4.243   1.823  1.1383 -2.9174  0.4068
 1014MOL0     H36870   3.954   4.396   1.650  0.2386 -1.5710  0.5718
 1014MOL0     H36871   4.098   4.436   1.748 -0.8702 -1.8052 -0.8873
 1014MOL0     H36872   3.276   4.105   1.841 -1.8389  0.5984 -0.0918
 1014MOL0     H36873   3.175   4.254   2.008 -0.3341  1.2158 -0.5801
 1014MOL0     H36874   3.355   4.588   2.385 -0.4536 -0.2147 -1.2292
 1014MOL0     H36875   3.232   4.697   2.598  0.3104 -1.0660  0.7516
 1014MOL0     H36876   2.324   4.760   3.849 -3.0706  0.7379  0.4825
 1014MOL0     H36877   2.324   4.541   3.948  3.1488 -0.7252 -0.3394
 1014MOL0     H36878   2.753   4.303   4.354  1.5185 -0.5291 -0.4460
 1014MOL0     H36879   2.749   4.063   4.406 -0.8050 -0.3083  0.1646
 1014MOL0     H36880   2.700   3.852   4.463 -0.1737  0.0081 -2.4763
 1014MOL0     H36881   2.599   3.859   4.600  0.2130  0.8504 -0.0676
 1014MOL0     H36882   2.628   3.621   4.524 -0.9713  0.7405  0.1599
 1014MOL0     H36883   2.562   3.656   4.363 -2.7857 -2.3745 -0.5338
 1014MOL0     H36884   2.411   3.697   4.638  4.1467 -0.6233  0.5046
 1014MOL0     H36885   2.412   3.539   4.561  1.6190 -0.4944 -1.6348
 1014MOL0     H36886   2.297   3.713   4.353  2.8593  2.6601  0.0746
 1014MOL0     H36887   2.282   3.800   4.504 -0.5486  0.2134 -0.0500
 1014MOL0     H36888   1.965   3.565   4.574  0.9683  2.2149  2.8486
 1014MOL0     H36889   2.335   4.031   4.291 -0.6381 -0.3276  2.0788
 1014MOL0     H36890   2.349   4.255   4.192  1.2960 -0.4450 -1.4152
 1015MOL0     O36891   4.059   6.796   3.395  0.2204 -0.2027  0.0492
 1015MOL0     C36892   4.049   6.804   3.518 -0.0362 -0.2770 -0.0988
 1015MOL0     O36893   3.933   6.817   3.592  0.1364  0.7141  0.3240
 1015MOL0     C36894   3.815   6.843   3.528 -0.4228 -0.2031  0.2758
 1015MOL0     C36895   3.713   6.749   3.499 -0.0882  0.2433 -0.3731
 1015MOL0     C36896   3.592   6.783   3.443  0.1072 -0.2427  0.3450
 1015MOL0     C36897   3.564   6.918   3.412 -0.8477  0.0607 -0.3639
 1015MOL0     O36898   3.437   6.959   3.381  0.5063  0.5406 -0.0533
 1015MOL0     C36899   3.416   7.043   3.266 -0.6046 -0.4634 -0.7714
 1015MOL0     C36900   3.281   7.013   3.205 -0.7830 -0.0948 -0.2454
 1015MOL0     C36901   3.280   7.088   3.070  0.2974 -0.0896 -0.7475
 1015MOL0     C36902   3.153   7.186   3.060 -0.1000  0.1529  0.4840
 1015MOL0     C36903   3.153   7.276   2.927 -0.4912 -0.5458  0.6375
 1015MOL0     C36904   3.268   7.381   2.930  0.3842 -0.2957 -0.7683
 1015MOL0     C36905   3.235   7.498   2.834 -0.3490  0.1422 -0.0000
 1015MOL0     C36906   3.236   7.474   2.679 -0.1169  0.1035 -0.0821
 1015MOL0     N36907   3.115   7.399   2.636  0.4221  0.3087  0.3405
 1015MOL0     C36908   2.984   7.436   2.656 -0.4378 -0.5913  0.4344
 1015MOL0     C36909   2.916   7.356   2.575  0.6525 -0.3931  0.9864
 1015MOL0     C36910   2.766   7.369   2.552  0.2778  0.5408 -0.0523
 1015MOL0     C36911   2.669   7.359   2.677  0.4771 -0.2718  0.3764
 1015MOL0     C36912   2.670   7.226   2.757 -0.4589 -0.7203  0.2329
 1015MOL0     C36913   2.608   7.100   2.676 -0.5721 -0.2700 -1.0644
 1015MOL0     O36914   2.610   6.989   2.756 -0.4262  0.3468  0.5445
 1015MOL0     C36915   2.720   6.937   2.802 -0.6258 -0.1844 -0.1406
 1015MOL0     C36916   2.853   6.960   2.757 -0.2066  0.4166  0.5933
 1015MOL0     C36917   2.967   6.887   2.804  0.1948 -0.0294 -0.1601
 1015MOL0     C36918   3.098   6.921   2.730  0.1237  0.2762 -0.1495
 1015MOL0     C36919   2.947   6.795   2.916  0.3237  0.3300  0.3062
 1015MOL0     C36920   3.052   6.723   2.984 -0.0465  0.8566 -0.4301
 1015MOL0     O36921   3.051   6.690   3.118  0.1285 -0.1595 -0.1818
 1015MOL0     C36922   3.145   6.619   3.178 -0.3916  0.0277  1.0295
 1015MOL0     C36923   3.154   6.647   3.311  0.5063  0.3574  0.3773
 1015MOL0     C36924   3.240   6.568   3.387  0.1776 -0.0554 -0.5297
 1015MOL0     C36925   3.309   6.464   3.340 -0.2139 -0.3716  0.1434
 1015MOL0     O36926   3.404   6.403   3.418 -0.1706 -0.6432 -0.2941
 1015MOL0     C36927   3.463   6.279   3.383  0.3273 -0.7196  0.6080
 1015MOL0     C36928   3.360   6.171   3.408  0.2671 -0.4916  0.2964
 1015MOL0     C36929   3.415   6.037   3.383  0.5456 -0.4122  0.1692
 1015MOL0     C36930   3.301   5.925   3.391 -0.2874  0.0287 -0.8239
 1015MOL0     C36931   3.350   5.787   3.344 -0.0676  0.6661 -0.5727
 1015MOL0     C36932   3.413   5.783   3.202 -0.3103 -1.0203  0.1360
 1015MOL0     C36933   3.455   5.646   3.163  0.6036 -0.8549 -0.0888
 1015MOL0     C36934   3.540   5.644   3.035  0.3263 -1.3922 -0.7326
 1015MOL0    Cl36935   3.441   5.598   2.889  0.1050  0.2195 -0.2746
 1015MOL0     C36936   3.285   6.432   3.202 -0.5928 -0.2438  0.8506
 1015MOL0     C36937   3.214   6.513   3.120  0.1147 -0.1273  0.9832
 1015MOL0     O36938   3.142   6.690   2.905  0.3286 -0.2515 -0.0500
 1015MOL0     C36939   2.808   6.790   2.969 -0.2457  0.1968  0.5007
 1015MOL0     C36940   2.699   6.847   2.909 -0.3630 -0.7144 -0.0687
 1015MOL0     N36941   2.992   7.267   2.512 -0.1953 -0.4094  0.4056
 1015MOL0     N36942   3.117   7.285   2.552 -0.4751 -0.2472  0.3695
 1015MOL0     C36943   3.672   7.007   3.417  0.4918  0.5844  0.2886
 1015MOL0     C36944   3.786   6.972   3.481 -0.0741 -0.0009 -1.0587
 1015MOL0     C36945   4.178   6.797   3.599 -0.1478  0.7733  0.3482
 1015MOL0     C36946   4.295   6.838   3.531 -1.8365 -0.3015 -0.7580
 1015MOL0     C36947   4.413   6.837   3.594 -0.3244 -0.2500 -0.6611
 1015MOL0     C36948   4.423   6.809   3.728 -0.0843  0.5287 -0.3759
 1015MOL0     O36949   4.541   6.809   3.806  0.2696 -0.3910 -0.4043
 1015MOL0     C36950   4.642   6.906   3.764 -0.1716 -0.1277  0.2410
 1015MOL0     C36951   4.618   7.052   3.806 -0.3814  0.0189  0.2068
 1015MOL0     C36952   4.737   7.150   3.775 -0.3328 -0.3614  0.1779
 1015MOL0     C36953   4.842   7.141   3.886  0.1117 -0.4399 -0.1254
 1015MOL0     C36954   4.956   7.223   3.862 -0.7029 -0.7651  0.4209
 1015MOL0     C36955   5.066   7.288   3.859  0.3070 -0.0437 -1.0331
 1015MOL0     C36956   4.309   6.757   3.792  0.3475 -0.1173 -0.1763
 1015MOL0     C36957   4.189   6.758   3.732 -0.3740 -0.1730 -0.5490
 1015MOL0     H36958   3.742   6.648   3.527 -0.4772 -0.7880 -3.3211
 1015MOL0     H36959   3.518   6.708   3.414 -1.9036  2.2009 -1.3274
 1015MOL0     H36960   3.412   7.147   3.300 -3.1443 -0.5466 -0.6274
 1015MOL0     H36961   3.496   7.025   3.193  1.0162 -1.3526  1.1235
 1015MOL0     H36962   3.270   6.905   3.189  0.6013 -0.0003 -2.1632
 1015MOL0     H36963   3.206   7.050   3.276 -1.0289 -2.4510  0.8183
 1015MOL0     H36964   3.371   7.148   3.058  0.9163 -0.7452  0.4275
 1015MOL0     H36965   3.290   7.015   2.989  5.2547 -0.3999 -0.1354
 1015MOL0     H36966   3.068   7.118   3.061 -2.0208  2.3183  3.3364
 1015MOL0     H36967   3.151   7.244   3.153 -0.0139 -0.3529  0.8037
 1015MOL0     H36968   3.163   7.203   2.845 -2.1339 -1.0842  0.8854
 1015MOL0     H36969   3.055   7.323   2.912 -0.1411 -0.8166 -4.2751
 1015MOL0     H36970   3.271   7.419   3.033  0.8836 -1.0387 -0.5052
 1015MOL0     H36971   3.365   7.337   2.908  0.9742 -0.3869  1.7639
 1015MOL0     H36972   3.147   7.549   2.874  1.7471  3.0410  1.3107
 1015MOL0     H36973   3.309   7.576   2.852  0.7498 -1.1273  1.2978
 1015MOL0     H36974   3.315   7.402   2.657  2.9835  1.1648  5.5615
 1015MOL0     H36975   3.253   7.566   2.621  0.6861  1.7712  2.6064
 1015MOL0     H36976   2.943   7.522   2.710 -1.0080 -0.5707 -0.0232
 1015MOL0     H36977   2.751   7.462   2.496 -3.2288  1.2481  1.7648
 1015MOL0     H36978   2.738   7.290   2.482 -0.7974  1.4812 -0.7259
 1015MOL0     H36979   2.567   7.387   2.647  1.4729 -0.4844 -3.8213
 1015MOL0     H36980   2.699   7.445   2.738 -3.1438  1.7716 -0.4336
 1015MOL0     H36981   2.606   7.238   2.845 -1.1017  1.3593 -0.4607
 1015MOL0     H36982   2.773   7.210   2.790 -0.8256 -2.4871  0.6553
 1015MOL0     H36983   2.651   7.080   2.578 -2.0500  3.5846 -2.7243
 1015MOL0     H36984   2.506   7.135   2.658 -0.3658  3.0385  2.7510
 1015MOL0     H36985   2.872   7.021   2.669  2.6289 -0.0065  0.8299
 1015MOL0     H36986   3.182   6.911   2.799  0.3044 -0.8868 -0.5172
 1015MOL0     H36987   3.116   6.838   2.661 -0.7803 -1.1092  1.2065
 1015MOL0     H36988   3.085   7.023   2.695 -3.5784 -0.8455 -2.6352
 1015MOL0     H36989   3.113   6.735   3.359 -3.3633 -1.4116  0.6322
 1015MOL0     H36990   3.234   6.591   3.493 -0.9807 -0.0569 -0.5872
 1015MOL0     H36991   3.490   6.271   3.277  0.3011  1.7553  0.3666
 1015MOL0     H36992   3.552   6.253   3.441  1.5973  2.2353  0.1555
 1015MOL0     H36993   3.335   6.164   3.515  1.6176 -2.1363  0.5601
 1015MOL0     H36994   3.268   6.183   3.352 -0.4361 -0.6416  1.3793
 1015MOL0     H36995   3.489   6.008   3.458 -1.4627 -0.7313  2.1453
 1015MOL0     H36996   3.464   6.052   3.287  2.2628  2.7725  1.3749
 1015MOL0     H36997   3.264   5.925   3.494 -0.9350  0.4715 -1.0431
 1015MOL0     H36998   3.213   5.946   3.329 -0.7758  0.4242 -0.0160
 1015MOL0     H36999   3.270   5.715   3.358 -1.9049  2.3297 -1.9731
 1015MOL0     H37000   3.434   5.772   3.413 -0.6666 -0.4641 -0.0663
 1015MOL0     H37001   3.339   5.810   3.126 -0.9957 -0.9165  0.8289
 1015MOL0     H37002   3.508   5.836   3.207 -1.3956  0.8989  2.4070
 1015MOL0     H37003   3.365   5.585   3.154 -0.4811  0.7546 -0.5387
 1015MOL0     H37004   3.511   5.611   3.251 -2.2697 -0.6437  2.0023
 1015MOL0     H37005   3.618   5.571   3.057  3.2914  2.1678  1.6496
 1015MOL0     H37006   3.597   5.736   3.023 -0.6100 -0.4524  1.5200
 1015MOL0     H37007   3.333   6.340   3.168  3.0115  0.3526  3.6575
 1015MOL0     H37008   3.203   6.476   3.018  2.4095  1.8734 -0.0838
 1015MOL0     H37009   2.796   6.724   3.054  0.8153  2.4378  2.5292
 1015MOL0     H37010   2.601   6.821   2.949 -1.4271 -0.3147 -2.2595
 1015MOL0     H37011   3.646   7.107   3.381 -1.1442  0.2068  0.3218
 1015MOL0     H37012   3.863   7.047   3.494 -0.1629 -0.1527  0.5263
 1015MOL0     H37013   4.300   6.872   3.428 -0.0544  0.0476 -0.5907
 1015MOL0     H37014   4.493   6.866   3.525 -2.1030  3.0501 -1.5853
 1015MOL0     H37015   4.741   6.876   3.796 -0.0960  1.0736  1.2230
 1015MOL0     H37016   4.651   6.918   3.656 -2.6263 -0.4356 -0.0581
 1015MOL0     H37017   4.590   7.072   3.910 -5.5231 -1.6592 -0.5869
 1015MOL0     H37018   4.532   7.092   3.751 -0.1149  3.3534  1.8985
 1015MOL0     H37019   4.710   7.253   3.750  1.4397 -0.1783 -1.1533
 1015MOL0     H37020   4.789   7.110   3.687 -4.7099  0.1353 -2.9846
 1015MOL0     H37021   4.871   7.036   3.892 -0.3287 -0.8540 -3.4424
 1015MOL0     H37022   4.810   7.181   3.983 -1.0882 -0.3622 -0.5357
 1015MOL0     H37023   5.157   7.344   3.847 -0.3459  1.1462 -0.6372
 1015MOL0     H37024   4.310   6.744   3.900  0.6184 -1.2327 -0.3093
 1015MOL0     H37025   4.113   6.742   3.808  1.9175  0.0840  1.9608
 1016MOL0     O37026   0.443   0.519   8.166  0.0600  0.1920  0.0839
 1016MOL0     C37027   0.458   0.505   8.286 -0.2193  0.6533  1.0338
 1016MOL0     O37028   0.460   0.382   8.341 -0.1895 -0.2559 -0.0038
 1016MOL0     C37029   0.435   0.269   8.272 -0.9111  0.9264  0.1577
 1016MOL0     C37030   0.333   0.180   8.310 -0.4038  0.9136 -0.2297
 1016MOL0     C37031   0.322   0.058   8.247 -0.1831 -0.5160  0.1645
 1016MOL0     C37032   0.406   0.019   8.138  0.5268  0.2671  0.2708
 1016MOL0     O37033   0.403  -0.096   8.059  0.2020  0.9072  0.5698
 1016MOL0     C37034   0.323  -0.212   8.096  0.0808 -0.3190  0.5590
 1016MOL0     C37035   0.397  -0.297   8.199 -0.7472  0.1826 -0.4300
 1016MOL0     C37036   0.545  -0.339   8.163 -0.5765 -0.9537 -0.0075
 1016MOL0     C37037   0.627  -0.358   8.291  1.0535 -0.2234  0.3048
 1016MOL0     C37038   0.765  -0.424   8.280  0.0028 -0.9101 -0.0191
 1016MOL0     C37039   0.767  -0.574   8.279  1.5193  0.7151  0.2971
 1016MOL0     C37040   0.766  -0.647   8.137  0.8233  0.1790 -0.3806
 1016MOL0     C37041   0.776  -0.800   8.146 -0.3507 -0.1395 -0.0164
 1016MOL0     N37042   0.908  -0.853   8.185 -0.3492  0.7223  0.1011
 1016MOL0     C37043   0.945  -0.861   8.314 -0.4977 -0.2575 -0.4792
 1016MOL0     C37044   1.051  -0.932   8.318 -0.2498 -0.6739  1.2259
 1016MOL0     C37045   1.141  -0.953   8.445 -0.3308 -0.1683 -0.6293
 1016MOL0     C37046   1.179  -0.823   8.507  0.8972 -0.1932 -0.1752
 1016MOL0     C37047   1.240  -0.719   8.413  0.0807  0.2382  0.7413
 1016MOL0     C37048   1.387  -0.750   8.373 -0.8141  0.0313  0.8566
 1016MOL0     O37049   1.399  -0.674   8.245  0.1283 -0.2893 -0.9136
 1016MOL0     C37050   1.500  -0.718   8.159 -0.4535 -0.1273 -0.1927
 1016MOL0     C37051   1.594  -0.627   8.105  0.3576  0.0277 -0.3642
 1016MOL0     C37052   1.696  -0.658   8.027 -0.3544 -0.0437  0.1925
 1016MOL0     C37053   1.795  -0.550   7.979  0.1449  0.4739  0.4958
 1016MOL0     C37054   1.717  -0.797   7.987  0.9352  0.5856  0.0104
 1016MOL0     C37055   1.825  -0.842   7.897 -1.0343 -1.1510 -0.7281
 1016MOL0     O37056   1.875  -0.973   7.924 -0.6665  0.5520  0.2590
 1016MOL0     C37057   1.946  -1.031   7.820  0.2908 -0.0292 -0.4628
 1016MOL0     C37058   2.073  -0.988   7.782  0.1202  1.1979 -0.2881
 1016MOL0     C37059   2.138  -1.045   7.676 -0.7744 -0.6037  0.0909
 1016MOL0     C37060   2.067  -1.120   7.585  0.4041  0.0222  0.4443
 1016MOL0     O37061   2.134  -1.167   7.468  0.5295  0.3349  0.1799
 1016MOL0     C37062   2.077  -1.263   7.374  0.9170  0.1252  0.6062
 1016MOL0     C37063   2.139  -1.242   7.236  0.6757  0.7100 -0.3517
 1016MOL0     C37064   2.066  -1.329   7.133  0.7216  0.7222 -1.5604
 1016MOL0     C37065   2.129  -1.332   6.996 -0.2161  0.9767  0.3340
 1016MOL0     C37066   2.256  -1.427   6.976  0.4442  0.2890 -0.5208
 1016MOL0     C37067   2.270  -1.445   6.829  0.8231 -0.6025  0.3939
 1016MOL0     C37068   2.406  -1.510   6.790 -0.5917  0.3091 -0.0889
 1016MOL0     C37069   2.429  -1.488   6.640 -0.5566 -0.7591  1.2410
 1016MOL0    Cl37070   2.288  -1.506   6.541  0.0709  0.0118  0.1814
 1016MOL0     C37071   1.943  -1.172   7.631  0.3677  0.9278  0.5638
 1016MOL0     C37072   1.875  -1.127   7.745  0.1306 -1.1825 -0.3796
 1016MOL0     O37073   1.825  -0.786   7.793 -0.8545  0.6723  0.5378
 1016MOL0     C37074   1.619  -0.888   8.028 -0.4329 -0.1967  0.0447
 1016MOL0     C37075   1.523  -0.851   8.120  0.3391  0.1625  0.2342
 1016MOL0     N37076   1.086  -0.964   8.188  0.4466  1.0510  0.4542
 1016MOL0     N37077   0.999  -0.913   8.105  0.3502  0.1928 -0.3516
 1016MOL0     C37078   0.501   0.110   8.099  0.3472 -0.0501  0.6320
 1016MOL0     C37079   0.508   0.227   8.162 -0.1375 -0.2162 -0.2170
 1016MOL0     C37080   0.466   0.629   8.361  0.4472  0.1492 -0.3524
 1016MOL0     C37081   0.503   0.626   8.497  0.1230 -0.1731  0.5012
 1016MOL0     C37082   0.521   0.753   8.558  1.4444 -0.4331 -0.5819
 1016MOL0     C37083   0.496   0.874   8.501 -0.2531 -0.8616 -1.4217
 1016MOL0     O37084   0.490   0.987   8.576 -0.1306  0.1657  0.7866
 1016MOL0     C37085   0.622   1.041   8.586 -0.0395  0.0354 -0.8172
 1016MOL0     C37086   0.636   1.159   8.686 -1.0265  0.8174  0.0620
 1016MOL0     C37087   0.587   1.129   8.827  0.1848  0.0886 -0.3950
 1016MOL0     C37088   0.676   1.197   8.931 -0.2364 -0.8030  1.1550
 1016MOL0     C37089   0.627   1.166   9.072  0.9581  0.2720 -0.0905
 1016MOL0     C37090   0.608   1.140   9.185  0.3417  0.0356 -0.0578
 1016MOL0     C37091   0.468   0.876   8.367  0.1919  0.3790  0.7049
 1016MOL0     C37092   0.448   0.756   8.298 -0.8059  0.4512 -0.1900
 1016MOL0     H37093   0.263   0.207   8.390 -1.1993 -0.8387 -0.2793
 1016MOL0     H37094   0.229   0.005   8.266 -1.9267  2.1219 -0.4355
 1016MOL0     H37095   0.223  -0.177   8.124  0.2100  0.6626 -0.1256
 1016MOL0     H37096   0.304  -0.269   8.004 -5.1316  1.9532 -0.1627
 1016MOL0     H37097   0.399  -0.249   8.298 -6.4853  0.9200 -0.3055
 1016MOL0     H37098   0.348  -0.394   8.206  0.6761 -0.4461  1.8488
 1016MOL0     H37099   0.554  -0.434   8.109 -0.7925 -0.4261 -0.9954
 1016MOL0     H37100   0.598  -0.264   8.104  0.5900 -0.4957  1.5687
 1016MOL0     H37101   0.638  -0.263   8.343 -0.6045 -1.2116  2.6032
 1016MOL0     H37102   0.563  -0.419   8.354  0.9348 -1.1305 -0.6744
 1016MOL0     H37103   0.811  -0.385   8.188 -1.4635  2.6175  0.5743
 1016MOL0     H37104   0.829  -0.393   8.362  0.3679  0.3946 -0.7590
 1016MOL0     H37105   0.847  -0.607   8.346  0.5385 -3.2859 -0.2731
 1016MOL0     H37106   0.678  -0.606   8.335  2.9397  0.9807  2.9069
 1016MOL0     H37107   0.674  -0.624   8.084  2.3258  2.2456 -2.2807
 1016MOL0     H37108   0.836  -0.604   8.065 -1.2560  1.1151 -1.9356
 1016MOL0     H37109   0.750  -0.849   8.052  0.8063  2.0208 -1.5421
 1016MOL0     H37110   0.711  -0.829   8.229  0.7520 -0.8231  0.6312
 1016MOL0     H37111   0.901  -0.808   8.397  1.5729  1.6413 -0.5153
 1016MOL0     H37112   1.082  -1.004   8.522 -1.4793 -1.5200 -2.3405
 1016MOL0     H37113   1.226  -1.020   8.429 -1.8427 -2.1556 -0.6521
 1016MOL0     H37114   1.247  -0.841   8.592 -1.3331 -1.2800  1.4946
 1016MOL0     H37115   1.092  -0.770   8.546  1.9211 -0.3252  2.5210
 1016MOL0     H37116   1.252  -0.621   8.462  3.0730  1.4280 -2.0268
 1016MOL0     H37117   1.179  -0.707   8.324  1.2904 -3.2557 -0.7314
 1016MOL0     H37118   1.408  -0.856   8.353 -0.4498 -0.2370  2.5487
 1016MOL0     H37119   1.464  -0.712   8.441  0.6308 -0.1795 -0.5876
 1016MOL0     H37120   1.574  -0.526   8.138 -0.1777 -0.4504  0.8440
 1016MOL0     H37121   1.893  -0.589   7.952  0.7394  3.0928 -1.5709
 1016MOL0     H37122   1.759  -0.508   7.885  4.6622  2.5293 -0.5615
 1016MOL0     H37123   1.817  -0.470   8.050  0.6402  1.2706 -0.5365
 1016MOL0     H37124   2.127  -0.911   7.837  4.0936 -1.1157 -0.5982
 1016MOL0     H37125   2.239  -1.010   7.662 -1.3375  4.0195  4.5793
 1016MOL0     H37126   2.080  -1.367   7.406  3.5073 -1.2205 -3.2835
 1016MOL0     H37127   1.974  -1.242   7.345  1.0873  1.7852  1.0681
 1016MOL0     H37128   2.143  -1.143   7.190 -2.5734  0.2034 -2.0435
 1016MOL0     H37129   2.240  -1.282   7.244  0.2457 -0.8578 -2.1926
 1016MOL0     H37130   1.969  -1.278   7.126  1.1003  2.0678  1.4640
 1016MOL0     H37131   2.053  -1.433   7.163  2.2827  0.9237 -0.0485
 1016MOL0     H37132   2.055  -1.359   6.920 -0.8312 -1.6867  1.7716
 1016MOL0     H37133   2.169  -1.233   6.970  2.1559 -0.0193 -0.0035
 1016MOL0     H37134   2.243  -1.524   7.025 -1.6534  0.6924 -0.1733
 1016MOL0     H37135   2.341  -1.373   7.020 -0.5181 -0.5407  2.6176
 1016MOL0     H37136   2.194  -1.510   6.785  0.4837  0.1847 -0.2334
 1016MOL0     H37137   2.260  -1.342   6.793  0.6007 -0.6059  0.4463
 1016MOL0     H37138   2.398  -1.618   6.805  1.6892 -0.0041 -0.7118
 1016MOL0     H37139   2.487  -1.466   6.850  0.4339  0.5686 -1.6086
 1016MOL0     H37140   2.509  -1.553   6.602  0.7636  0.7221  1.3403
 1016MOL0     H37141   2.465  -1.385   6.627 -3.2163  0.0533 -0.6447
 1016MOL0     H37142   1.908  -1.252   7.567 -1.0781  2.4646 -0.6659
 1016MOL0     H37143   1.781  -1.169   7.779  0.0727 -2.6128 -2.1647
 1016MOL0     H37144   1.623  -0.991   7.994  2.7743  0.6200 -2.6822
 1016MOL0     H37145   1.451  -0.927   8.149  1.1963 -0.0249  1.9681
 1016MOL0     H37146   0.569   0.083   8.020  1.8770 -1.2561  2.2707
 1016MOL0     H37147   0.588   0.289   8.123  0.7446 -3.5105 -4.3601
 1016MOL0     H37148   0.511   0.537   8.557  0.8427 -0.3970  0.0869
 1016MOL0     H37149   0.560   0.753   8.659  1.3905 -2.7407 -0.4925
 1016MOL0     H37150   0.693   0.958   8.597  2.1935  2.0069  0.4828
 1016MOL0     H37151   0.653   1.080   8.489  0.2356 -0.2178 -0.8323
 1016MOL0     H37152   0.581   1.248   8.654 -1.5754  1.3701  2.3758
 1016MOL0     H37153   0.740   1.191   8.686 -1.2474  1.6865 -1.5735
 1016MOL0     H37154   0.593   1.021   8.840  1.2331  0.0581 -0.9952
 1016MOL0     H37155   0.486   1.169   8.843 -0.8377 -2.4384 -0.1883
 1016MOL0     H37156   0.655   1.304   8.920 -3.4777 -1.1767  2.6647
 1016MOL0     H37157   0.783   1.177   8.921 -0.6815 -2.3690 -1.3832
 1016MOL0     H37158   0.587   1.124   9.289  3.3884  0.7673  0.7889
 1016MOL0     H37159   0.451   0.968   8.313 -5.1594 -0.8170 -0.1951
 1016MOL0     H37160   0.423   0.758   8.193  2.7038  3.4317 -1.1463
 1017MOL0     O37161   0.489   8.131   1.316 -0.6591 -0.5815 -0.0303
 1017MOL0     C37162   0.437   8.146   1.422 -0.1024  0.7775 -0.6875
 1017MOL0     O37163   0.371   8.255   1.464 -0.3079  0.1565  0.1377
 1017MOL0     C37164   0.370   8.372   1.395 -0.0043  0.3112  0.2024
 1017MOL0     C37165   0.370   8.489   1.477  0.5159 -0.5245  0.5059
 1017MOL0     C37166   0.359   8.619   1.432 -0.3269 -0.1241  0.6078
 1017MOL0     C37167   0.354   8.633   1.293  0.5412  0.9662  0.2917
 1017MOL0     O37168   0.347   8.759   1.241  0.0012  0.5322 -0.0901
 1017MOL0     C37169   0.463   8.842   1.261  0.9829 -0.3551 -0.3128
 1017MOL0     C37170   0.402   8.983   1.229  0.2455 -0.5527  0.0132
 1017MOL0     C37171   0.516   9.077   1.211  0.5947  0.2568 -1.3040
 1017MOL0     C37172   0.490   9.212   1.271  0.2388  0.4689  1.2071
 1017MOL0     C37173   0.596   9.318   1.229  0.6856 -0.4863 -0.1472
 1017MOL0     C37174   0.611   9.426   1.334  0.0885 -0.4031 -0.6010
 1017MOL0     C37175   0.508   9.540   1.335  0.6071 -0.4960  0.1245
 1017MOL0     C37176   0.366   9.497   1.376  0.1435 -0.0652 -0.9728
 1017MOL0     N37177   0.281   9.613   1.430 -0.0300  1.0499 -0.6874
 1017MOL0     C37178   0.314   9.716   1.521  0.4562  0.1931 -0.7385
 1017MOL0     C37179   0.234   9.825   1.490  0.6318  0.1448  0.3953
 1017MOL0     C37180   0.236   9.959   1.546  0.2894 -0.1741  0.2168
 1017MOL0     C37181   0.370  10.024   1.524 -0.4361 -0.2396 -1.1457
 1017MOL0     C37182   0.409  10.127   1.640 -0.6903 -0.1634  1.2910
 1017MOL0     C37183   0.554  10.187   1.603  1.3855  0.1849  0.2661
 1017MOL0     O37184   0.576  10.307   1.665  0.7932 -1.0166  0.5085
 1017MOL0     C37185   0.664  10.326   1.768 -0.8104 -0.8766 -0.1223
 1017MOL0     C37186   0.655  10.250   1.888  0.6065  0.3032 -1.3162
 1017MOL0     C37187   0.749  10.249   1.993 -0.1275 -0.6199 -0.5294
 1017MOL0     C37188   0.720  10.169   2.114  0.5204 -0.3493  0.2573
 1017MOL0     C37189   0.847  10.360   1.994  1.1232  0.8892 -0.7726
 1017MOL0     C37190   0.929  10.408   2.108  0.5919 -0.3659 -0.2627
 1017MOL0     O37191   0.981  10.539   2.101  0.6469  0.3049 -0.2680
 1017MOL0     C37192   1.035  10.603   2.205 -0.5032  0.8004  0.0701
 1017MOL0     C37193   1.162  10.664   2.191  0.2614 -0.1723 -0.3603
 1017MOL0     C37194   1.212  10.731   2.296  0.2621 -0.2395  0.0954
 1017MOL0     C37195   1.147  10.751   2.420 -0.5842  0.4578 -0.2221
 1017MOL0     O37196   1.208  10.824   2.522  0.0917  0.0144 -0.9067
 1017MOL0     C37197   1.285  10.936   2.485 -0.5127 -0.0778 -0.8669
 1017MOL0     C37198   1.299  11.040   2.592  0.2222 -0.7450  0.0676
 1017MOL0     C37199   1.405  11.143   2.553  0.9494 -0.7932 -0.3357
 1017MOL0     C37200   1.469  11.226   2.662 -0.1823 -0.4390 -0.2903
 1017MOL0     C37201   1.591  11.140   2.727 -0.2168  0.1901  0.1924
 1017MOL0     C37202   1.659  11.217   2.837  0.0411 -0.3154 -0.8498
 1017MOL0     C37203   1.770  11.139   2.912  0.6266  0.1291  0.4943
 1017MOL0     C37204   1.782  11.206   3.056  0.6730 -0.0769  0.7495
 1017MOL0    Cl37205   1.864  11.364   3.050 -0.4732 -0.2872  0.2202
 1017MOL0     C37206   1.032  10.686   2.441 -0.2277  0.5116 -0.0471
 1017MOL0     C37207   0.982  10.609   2.336 -1.1745  0.6554  0.3144
 1017MOL0     O37208   0.935  10.334   2.209 -0.0412 -0.3369  0.2443
 1017MOL0     C37209   0.858  10.425   1.874  0.2112  0.5009 -0.4526
 1017MOL0     C37210   0.786  10.412   1.760 -0.3464  0.9855  0.6458
 1017MOL0     N37211   0.156   9.784   1.381  0.1113  0.9317  0.4351
 1017MOL0     N37212   0.191   9.662   1.344  0.5389 -0.0922  0.1512
 1017MOL0     C37213   0.366   8.529   1.207 -1.0646  0.6797  0.1897
 1017MOL0     C37214   0.380   8.395   1.257 -0.2162 -1.3860 -0.6668
 1017MOL0     C37215   0.425   8.027   1.506  0.2459 -0.0327  0.0681
 1017MOL0     C37216   0.340   8.023   1.614 -0.0955 -0.0599  0.3897
 1017MOL0     C37217   0.313   7.908   1.701 -0.2600 -0.3375  0.1083
 1017MOL0     C37218   0.375   7.789   1.667 -0.5824  0.4444  0.1911
 1017MOL0     O37219   0.355   7.683   1.753 -0.7634 -0.2327  0.1926
 1017MOL0     C37220   0.279   7.576   1.690 -0.3449 -0.0227  0.7133
 1017MOL0     C37221   0.180   7.514   1.790  1.0796  0.0260 -0.1622
 1017MOL0     C37222   0.111   7.610   1.883  0.2284 -0.4155  0.2306
 1017MOL0     C37223   0.015   7.690   1.806  0.6140  0.3652 -0.0493
 1017MOL0     C37224  -0.049   7.786   1.896 -0.1238  0.0227  0.2898
 1017MOL0     C37225  -0.102   7.859   1.987  0.3230 -0.6251 -0.0533
 1017MOL0     C37226   0.453   7.783   1.547 -0.7796  0.0802 -0.4560
 1017MOL0     C37227   0.480   7.902   1.468  0.2367  0.1873  0.0386
 1017MOL0     H37228   0.390   8.480   1.583 -1.6016  2.0522  1.2285
 1017MOL0     H37229   0.370   8.703   1.501 -3.6270  0.1412  0.9908
 1017MOL0     H37230   0.498   8.846   1.364  3.4046 -1.2378 -1.0220
 1017MOL0     H37231   0.544   8.801   1.200  2.2555  0.3545  0.8565
 1017MOL0     H37232   0.351   8.985   1.132  3.8018 -0.9439 -2.0603
 1017MOL0     H37233   0.338   9.001   1.315 -0.4483  1.5856 -0.8806
 1017MOL0     H37234   0.604   9.032   1.257  0.6825  0.1507 -1.5739
 1017MOL0     H37235   0.544   9.067   1.106 -1.8743 -1.8373 -1.8934
 1017MOL0     H37236   0.392   9.247   1.236  0.7602 -0.0557 -0.8888
 1017MOL0     H37237   0.486   9.204   1.380  2.9484 -3.2354  1.2265
 1017MOL0     H37238   0.696   9.272   1.234  1.2794  0.8802  1.7345
 1017MOL0     H37239   0.588   9.352   1.125  6.1096 -3.7375 -2.0824
 1017MOL0     H37240   0.630   9.390   1.435  0.0892  3.9482  1.1766
 1017MOL0     H37241   0.700   9.482   1.303  0.3763 -2.3757 -3.8406
 1017MOL0     H37242   0.558   9.618   1.394  0.8770 -1.7500  1.6183
 1017MOL0     H37243   0.493   9.582   1.236  2.3959 -0.4947 -0.1719
 1017MOL0     H37244   0.369   9.416   1.450  1.0247  1.2935  0.5490
 1017MOL0     H37245   0.303   9.454   1.297  1.5209 -0.0169 -2.1484
 1017MOL0     H37246   0.372   9.712   1.614 -1.8760 -2.9716  0.7579
 1017MOL0     H37247   0.157  10.022   1.502 -2.1433 -1.8034  1.9665
 1017MOL0     H37248   0.205   9.967   1.650  0.9487 -0.4051  0.4312
 1017MOL0     H37249   0.377  10.076   1.428  1.3817  0.4228 -0.7016
 1017MOL0     H37250   0.451   9.950   1.521  2.0528  2.3263 -1.6144
 1017MOL0     H37251   0.422  10.081   1.738 -2.1746 -0.2549  1.4559
 1017MOL0     H37252   0.339  10.211   1.637 -0.3361  0.1673 -1.8699
 1017MOL0     H37253   0.562  10.202   1.495  0.1916 -2.7050 -0.3218
 1017MOL0     H37254   0.631  10.119   1.641  0.5869 -1.8567 -1.5610
 1017MOL0     H37255   0.573  10.179   1.889  0.6832  0.2168 -1.2390
 1017MOL0     H37256   0.679  10.242   2.184 -2.4282 -0.0984 -1.5214
 1017MOL0     H37257   0.642  10.095   2.092  0.4022 -0.4554  1.0020
 1017MOL0     H37258   0.812  10.124   2.152  1.2854  1.3529  0.4747
 1017MOL0     H37259   1.209  10.654   2.094 -1.3298 -1.0249 -1.0875
 1017MOL0     H37260   1.311  10.772   2.278 -0.0693  0.6255  0.1533
 1017MOL0     H37261   1.379  10.886   2.460 -1.3802 -2.5997  0.5623
 1017MOL0     H37262   1.243  10.981   2.395 -0.2842  1.9985 -0.0004
 1017MOL0     H37263   1.206  11.091   2.619 -1.4124 -2.1184 -2.5671
 1017MOL0     H37264   1.332  10.992   2.685 -1.6711  0.7037  1.5553
 1017MOL0     H37265   1.366  11.218   2.485  2.1030 -0.7392 -0.9648
 1017MOL0     H37266   1.479  11.080   2.502 -1.2576 -2.1457 -2.0149
 1017MOL0     H37267   1.509  11.317   2.616 -0.0106 -0.3939 -0.0514
 1017MOL0     H37268   1.398  11.258   2.739 -2.3033 -1.7217 -1.6149
 1017MOL0     H37269   1.664  11.126   2.648 -0.6571  4.4361 -1.2045
 1017MOL0     H37270   1.544  11.046   2.758 -0.7351  0.1685 -0.6502
 1017MOL0     H37271   1.714  11.306   2.803 -1.4664 -0.0851 -2.8212
 1017MOL0     H37272   1.587  11.242   2.915  1.4692  0.8260  0.1759
 1017MOL0     H37273   1.864  11.134   2.856  0.2688  1.8479 -0.3369
 1017MOL0     H37274   1.728  11.042   2.940  1.4697 -0.3194  0.2349
 1017MOL0     H37275   1.834  11.137   3.124  0.3115  2.1752  3.5102
 1017MOL0     H37276   1.686  11.207   3.108 -0.2130  0.6451 -0.8456
 1017MOL0     H37277   0.970  10.684   2.529 -0.2931 -3.8685  0.0378
 1017MOL0     H37278   0.881  10.570   2.349 -0.8279 -0.4925 -0.2970
 1017MOL0     H37279   0.928  10.508   1.875  3.1423 -1.7399  2.1317
 1017MOL0     H37280   0.811  10.475   1.675 -0.6144  0.5992  0.2774
 1017MOL0     H37281   0.364   8.545   1.099  1.1573  0.8136  0.1349
 1017MOL0     H37282   0.385   8.309   1.192  1.2225 -0.4973 -1.7712
 1017MOL0     H37283   0.301   8.121   1.639  2.1753  1.5092 -1.7142
 1017MOL0     H37284   0.252   7.919   1.790  0.7427  2.2848  0.5597
 1017MOL0     H37285   0.224   7.610   1.602  1.4878 -1.6906 -1.1715
 1017MOL0     H37286   0.357   7.506   1.661 -1.5011 -0.9834 -0.1649
 1017MOL0     H37287   0.227   7.443   1.859  2.1770  2.2329  1.5103
 1017MOL0     H37288   0.114   7.457   1.724 -0.3385  1.6854 -0.2596
 1017MOL0     H37289   0.184   7.671   1.937 -0.2684 -1.0861  1.7316
 1017MOL0     H37290   0.059   7.543   1.953  2.9709 -2.2925  0.6118
 1017MOL0     H37291  -0.071   7.642   1.759 -1.1791  2.4318  0.9403
 1017MOL0     H37292   0.072   7.745   1.731  1.4898 -1.0558 -0.4748
 1017MOL0     H37293  -0.148   7.921   2.062  2.3743 -2.0534  2.5682
 1017MOL0     H37294   0.492   7.684   1.528  0.4619  0.2130  1.1148
 1017MOL0     H37295   0.531   7.894   1.372  0.9275 -1.7212  0.5275
 1018MOL0     O37296   8.539   9.348   2.515  0.7865 -0.0540  0.1019
 1018MOL0     C37297   8.529   9.354   2.397 -0.3341  0.1098  0.7831
 1018MOL0     O37298   8.530   9.247   2.313 -0.3235 -0.4655 -0.9421
 1018MOL0     C37299   8.528   9.132   2.376  0.2511 -0.0744  0.4014
 1018MOL0     C37300   8.417   9.045   2.379 -0.0635 -0.7576 -0.3015
 1018MOL0     C37301   8.418   8.918   2.434  0.1799  0.6738  0.6796
 1018MOL0     C37302   8.541   8.875   2.496  1.3541  0.0561  0.2731
 1018MOL0     O37303   8.554   8.742   2.517 -0.5428  0.5519  0.6607
 1018MOL0     C37304   8.457   8.660   2.582 -0.1503 -1.0726 -0.0767
 1018MOL0     C37305   8.422   8.531   2.526 -0.5404 -0.3757 -0.8432
 1018MOL0     C37306   8.397   8.534   2.373  1.2492 -0.4415  0.0996
 1018MOL0     C37307   8.373   8.393   2.315  0.6096 -0.4905 -0.7405
 1018MOL0     C37308   8.338   8.383   2.161 -0.3782  0.4469 -0.5778
 1018MOL0     C37309   8.322   8.237   2.123  0.6457  0.6255 -0.6484
 1018MOL0     C37310   8.453   8.176   2.074 -0.5959 -0.6291 -0.4499
 1018MOL0     C37311   8.448   8.047   1.990  0.0268 -0.9346 -0.5852
 1018MOL0     N37312   8.380   8.059   1.860  0.2321 -0.1277 -0.3790
 1018MOL0     C37313   8.436   8.049   1.734  0.3720  0.2512  0.2329
 1018MOL0     C37314   8.334   8.054   1.651  0.0821  0.0716 -0.9739
 1018MOL0     C37315   8.336   8.024   1.504  0.9101  0.0476 -0.5002
 1018MOL0     C37316   8.461   8.081   1.424 -0.5385  0.4569 -0.1673
 1018MOL0     C37317   8.474   8.047   1.271  1.0202 -0.7161 -1.5401
 1018MOL0     C37318   8.338   8.060   1.205  1.0097 -0.7112 -0.0072
 1018MOL0     O37319   8.367   8.038   1.069  0.4796 -0.6983  1.1807
 1018MOL0     C37320   8.271   8.051   0.973  0.2568  0.9297  0.5433
 1018MOL0     C37321   8.298   8.002   0.847  0.5227  0.9147  0.0377
 1018MOL0     C37322   8.204   8.015   0.742 -0.1907  0.3970 -0.1018
 1018MOL0     C37323   8.259   7.969   0.612  0.0950 -1.1816 -0.6781
 1018MOL0     C37324   8.078   8.068   0.760  0.7567  0.0481 -0.8142
 1018MOL0     C37325   7.970   8.076   0.661 -1.0110  0.3430 -0.3482
 1018MOL0     O37326   7.850   8.112   0.706  0.7254  0.2797 -0.1095
 1018MOL0     C37327   7.738   8.132   0.627  0.0501  0.4499  1.1440
 1018MOL0     C37328   7.616   8.154   0.690 -0.1281 -1.6957 -0.6215
 1018MOL0     C37329   7.496   8.159   0.623  0.5015  0.7027  0.7015
 1018MOL0     C37330   7.493   8.146   0.484 -0.1629 -0.1252  0.8080
 1018MOL0     O37331   7.377   8.157   0.402  0.3055  0.2054  0.3752
 1018MOL0     C37332   7.265   8.068   0.441 -0.0310 -1.2291 -0.9048
 1018MOL0     C37333   7.218   7.969   0.335  0.3088 -0.4632  0.3951
 1018MOL0     C37334   7.082   7.897   0.356 -0.5752  0.7192  0.3527
 1018MOL0     C37335   7.056   7.841   0.496  1.1351 -0.1190 -0.8456
 1018MOL0     C37336   6.905   7.791   0.493  0.7490 -0.8683 -0.6217
 1018MOL0     C37337   6.851   7.779   0.638  0.3508  0.6844 -1.2544
 1018MOL0     C37338   6.715   7.711   0.638  0.9891  0.7901  0.3170
 1018MOL0     C37339   6.597   7.805   0.607 -0.1535 -0.4309  0.4719
 1018MOL0    Cl37340   6.583   7.926   0.737 -0.3074 -0.3399 -0.0088
 1018MOL0     C37341   7.619   8.144   0.418 -1.4020  0.0797 -0.8650
 1018MOL0     C37342   7.740   8.130   0.489  0.2646  0.5258  0.0498
 1018MOL0     O37343   8.000   8.037   0.554 -0.5799 -0.5449 -0.0228
 1018MOL0     C37344   8.041   8.110   0.892 -0.5749  0.1000 -0.7486
 1018MOL0     C37345   8.138   8.098   0.992 -0.1687 -0.1163 -0.8643
 1018MOL0     N37346   8.220   8.061   1.720  0.3469  0.4522  0.3349
 1018MOL0     N37347   8.246   8.058   1.848  0.9485 -0.0942 -0.4681
 1018MOL0     C37348   8.653   8.959   2.498  0.6391  0.8516 -1.1043
 1018MOL0     C37349   8.649   9.086   2.444 -0.0526 -0.2506  1.8512
 1018MOL0     C37350   8.528   9.479   2.321  0.7570 -0.1641  0.5330
 1018MOL0     C37351   8.489   9.472   2.184  0.2808  0.4089 -0.3845
 1018MOL0     C37352   8.493   9.588   2.092  0.8169 -0.2179 -0.1387
 1018MOL0     C37353   8.534   9.711   2.154  0.2414  0.1244  0.1712
 1018MOL0     O37354   8.563   9.829   2.080 -0.2544 -0.0132 -0.3125
 1018MOL0     C37355   8.556   9.836   1.938 -0.7735  0.3531 -0.0083
 1018MOL0     C37356   8.526   9.974   1.900 -0.4696 -0.2343 -0.4644
 1018MOL0     C37357   8.388  10.043   1.925  0.2533  0.1038 -0.5442
 1018MOL0     C37358   8.375  10.198   1.908 -0.5899  0.1796 -0.0690
 1018MOL0     C37359   8.379  10.231   1.764  0.6333 -0.6932 -0.0472
 1018MOL0     C37360   8.373  10.246   1.650  0.2825 -0.0890  0.8197
 1018MOL0     C37361   8.564   9.720   2.293 -0.3152 -0.0197 -0.0206
 1018MOL0     C37362   8.560   9.603   2.367 -0.1166 -1.0673 -0.0056
 1018MOL0     H37363   8.336   9.066   2.310 -3.8626  0.0536  3.9599
 1018MOL0     H37364   8.352   8.837   2.405  1.1890  0.1841 -0.3105
 1018MOL0     H37365   8.498   8.650   2.683 -1.8380  0.1565  0.7810
 1018MOL0     H37366   8.373   8.729   2.596 -0.2114 -0.8893 -1.2888
 1018MOL0     H37367   8.497   8.453   2.536 -0.6246 -0.6709 -2.2560
 1018MOL0     H37368   8.334   8.496   2.581 -0.0831  2.7152  2.2104
 1018MOL0     H37369   8.311   8.595   2.345  0.1681 -2.8692 -2.3191
 1018MOL0     H37370   8.482   8.582   2.321 -1.2977  2.9057 -1.3589
 1018MOL0     H37371   8.466   8.344   2.345  2.0482  2.2310 -0.4992
 1018MOL0     H37372   8.303   8.340   2.381  0.7794  1.8744  1.4806
 1018MOL0     H37373   8.247   8.441   2.147  1.2502  3.8918  1.7323
 1018MOL0     H37374   8.418   8.422   2.098  1.2681 -0.2504  0.9862
 1018MOL0     H37375   8.298   8.171   2.207  0.6283  1.3067 -0.1132
 1018MOL0     H37376   8.237   8.227   2.055 -2.2148 -0.7962  2.8059
 1018MOL0     H37377   8.495   8.251   2.006  2.3011 -0.9378  0.8664
 1018MOL0     H37378   8.524   8.154   2.154  1.6743  0.6557 -2.0164
 1018MOL0     H37379   8.397   7.975   2.055  1.6759 -0.0606  1.8093
 1018MOL0     H37380   8.553   8.024   1.973  1.1744  1.8029  2.0121
 1018MOL0     H37381   8.539   8.023   1.715  0.2476 -1.1819  1.4102
 1018MOL0     H37382   8.320   7.917   1.492  0.7667 -0.2095  1.5806
 1018MOL0     H37383   8.245   8.060   1.456  2.2690  1.8357 -1.9130
 1018MOL0     H37384   8.555   8.051   1.470 -1.0729  0.5921  1.0563
 1018MOL0     H37385   8.449   8.189   1.426 -0.2200  0.4862  1.7707
 1018MOL0     H37386   8.494   7.940   1.259  1.4104 -0.8502  0.0723
 1018MOL0     H37387   8.561   8.092   1.223 -0.0031  0.7553 -2.0809
 1018MOL0     H37388   8.300   8.163   1.214  2.0120 -0.3349  0.0215
 1018MOL0     H37389   8.264   7.990   1.246 -1.6071  0.9383 -1.6164
 1018MOL0     H37390   8.398   7.971   0.819  0.7959 -0.3853  2.2402
 1018MOL0     H37391   8.183   7.893   0.591 -2.2082  1.1529 -1.3607
 1018MOL0     H37392   8.256   8.052   0.541 -1.5475 -1.1557 -0.6137
 1018MOL0     H37393   8.363   7.934   0.611 -0.3531 -2.5572 -2.0770
 1018MOL0     H37394   7.614   8.173   0.797  1.3811  2.2318 -1.1351
 1018MOL0     H37395   7.402   8.166   0.677  0.2793  1.5389  0.2184
 1018MOL0     H37396   7.288   8.028   0.540 -1.6287 -0.2426 -0.0966
 1018MOL0     H37397   7.169   8.121   0.450  0.6914 -0.1846  1.1996
 1018MOL0     H37398   7.209   8.021   0.240 -0.3301  1.3646  1.4074
 1018MOL0     H37399   7.292   7.892   0.310  0.0472 -1.2659  1.9306
 1018MOL0     H37400   7.075   7.820   0.279  1.2207  1.1425 -0.2800
 1018MOL0     H37401   7.005   7.968   0.325 -0.8889 -0.1498 -0.9712
 1018MOL0     H37402   7.115   7.752   0.521 -0.2247 -0.8167 -0.0057
 1018MOL0     H37403   7.085   7.911   0.575  0.5018  0.0527 -0.7639
 1018MOL0     H37404   6.895   7.697   0.437 -1.9561 -0.5410 -0.8559
 1018MOL0     H37405   6.846   7.866   0.439  0.4675 -0.2355  0.5223
 1018MOL0     H37406   6.916   7.722   0.705  1.4814  1.8014 -1.3654
 1018MOL0     H37407   6.861   7.876   0.688  1.4991  0.8285 -1.7443
 1018MOL0     H37408   6.705   7.658   0.734 -3.0268  0.7356  0.0500
 1018MOL0     H37409   6.708   7.638   0.558 -2.7146 -0.7613  1.8146
 1018MOL0     H37410   6.510   7.739   0.601  0.8907 -1.7862 -0.1128
 1018MOL0     H37411   6.607   7.851   0.508 -2.2212 -0.0153  0.4180
 1018MOL0     H37412   7.624   8.144   0.310  0.3069 -1.4112 -0.8336
 1018MOL0     H37413   7.828   8.120   0.427  0.1520 -4.2577  0.2466
 1018MOL0     H37414   7.938   8.134   0.914 -1.4516 -3.5454 -0.3805
 1018MOL0     H37415   8.105   8.125   1.092  0.3347  1.2387 -1.0454
 1018MOL0     H37416   8.746   8.923   2.543  0.9281  0.1719 -2.2080
 1018MOL0     H37417   8.739   9.147   2.438 -1.1056  1.2480  0.4826
 1018MOL0     H37418   8.456   9.379   2.137  0.1911 -0.5547  1.4760
 1018MOL0     H37419   8.452   9.585   1.992 -2.1877 -0.4683  1.0211
 1018MOL0     H37420   8.652   9.812   1.891  1.3563  2.4638  2.8909
 1018MOL0     H37421   8.474   9.774   1.901 -1.8927  0.1151  2.6291
 1018MOL0     H37422   8.545   9.974   1.792  2.9029  1.3800 -0.0177
 1018MOL0     H37423   8.607  10.032   1.945  1.0509 -1.3681 -1.6028
 1018MOL0     H37424   8.360  10.018   2.028 -0.7094  1.1170 -0.5455
 1018MOL0     H37425   8.313   9.994   1.863  0.4655 -1.5064  0.4259
 1018MOL0     H37426   8.461  10.248   1.954 -0.6907  1.4830 -1.2155
 1018MOL0     H37427   8.280  10.240   1.942 -0.6075  0.9553 -1.0312
 1018MOL0     H37428   8.365  10.239   1.544  1.8173 -0.6073  0.7105
 1018MOL0     H37429   8.609   9.801   2.349 -0.3659 -2.6795  4.2440
 1018MOL0     H37430   8.595   9.597   2.470  4.1939  3.2225 -0.8437
 1019MOL0     O37431   0.894   5.313   3.940 -0.2892 -0.6630 -0.8407
 1019MOL0     C37432   0.889   5.394   4.033 -1.1899 -0.0254  0.4018
 1019MOL0     O37433   0.891   5.368   4.168  0.7064  0.2761 -0.5674
 1019MOL0     C37434   0.936   5.240   4.195 -0.0891  1.3492  0.5241
 1019MOL0     C37435   0.835   5.138   4.187 -1.4318  1.0501 -0.2515
 1019MOL0     C37436   0.871   5.005   4.220  0.3146  1.6638 -0.7747
 1019MOL0     C37437   1.005   4.971   4.246  0.1299  0.9462  0.1601
 1019MOL0     O37438   1.036   4.843   4.279 -0.1186 -0.0575 -0.0216
 1019MOL0     C37439   1.059   4.744   4.172  0.2345 -0.3248  0.8298
 1019MOL0     C37440   1.149   4.789   4.055 -0.0202 -0.7309  0.9574
 1019MOL0     C37441   1.133   4.684   3.946  0.1414  0.3904 -0.1987
 1019MOL0     C37442   1.213   4.721   3.823  0.0969 -0.2342 -0.3973
 1019MOL0     C37443   1.180   4.620   3.704  0.9784  0.1267 -0.0362
 1019MOL0     C37444   1.301   4.613   3.610 -0.7656  0.1279 -0.3330
 1019MOL0     C37445   1.333   4.745   3.551  0.4505 -0.1431  0.1889
 1019MOL0     C37446   1.215   4.799   3.474 -0.0013 -0.2802  0.8054
 1019MOL0     N37447   1.257   4.907   3.385  0.1642 -0.0596  0.4605
 1019MOL0     C37448   1.254   5.040   3.417  0.6992  0.5374 -0.9065
 1019MOL0     C37449   1.252   5.107   3.296 -0.0366  0.6745 -0.4275
 1019MOL0     C37450   1.257   5.259   3.287  0.3445  0.0836  0.4338
 1019MOL0     C37451   1.198   5.288   3.147  0.3830 -0.0460 -0.5256
 1019MOL0     C37452   1.173   5.441   3.129  0.0093  0.0362  0.1644
 1019MOL0     C37453   1.160   5.486   2.984 -0.0720  0.1433  0.9930
 1019MOL0     O37454   1.280   5.448   2.912 -0.2747 -0.1657 -0.2403
 1019MOL0     C37455   1.402   5.503   2.933 -1.0236  0.3259  0.0279
 1019MOL0     C37456   1.448   5.606   2.856 -0.9811  0.2575 -0.3146
 1019MOL0     C37457   1.575   5.669   2.871 -0.7908  0.7549 -0.7513
 1019MOL0     C37458   1.601   5.786   2.790 -0.1798 -0.7342 -0.5311
 1019MOL0     C37459   1.670   5.618   2.966 -0.1846 -0.5452  0.1578
 1019MOL0     C37460   1.798   5.676   3.005 -0.7282  0.2239 -0.1823
 1019MOL0     O37461   1.856   5.769   2.911  0.4382 -0.2455 -0.1687
 1019MOL0     C37462   1.987   5.816   2.934  0.7646  0.0394  0.2920
 1019MOL0     C37463   2.105   5.748   2.887  0.1156 -0.0079 -0.1118
 1019MOL0     C37464   2.233   5.809   2.905 -0.7003  0.8804 -1.4310
 1019MOL0     C37465   2.249   5.921   2.978 -0.9056 -0.2313 -0.1316
 1019MOL0     O37466   2.368   5.983   3.000  0.5726  0.5871  0.7068
 1019MOL0     C37467   2.459   5.898   3.078  0.4988 -0.6283 -0.5269
 1019MOL0     C37468   2.476   5.971   3.214  0.2740 -0.7374  0.0398
 1019MOL0     C37469   2.609   5.940   3.283  1.0625 -0.3371  0.5130
 1019MOL0     C37470   2.638   6.028   3.402 -0.3083 -0.7287 -0.2276
 1019MOL0     C37471   2.764   5.984   3.471 -0.2195 -0.3595  0.8641
 1019MOL0     C37472   2.778   6.081   3.591 -0.0332  0.7747 -0.6615
 1019MOL0     C37473   2.893   6.041   3.693 -0.4443  0.0142 -0.7551
 1019MOL0     C37474   3.027   6.023   3.614 -0.1779 -0.5368  0.0209
 1019MOL0    Cl37475   3.161   5.986   3.735 -0.1815  0.1724  0.0785
 1019MOL0     C37476   2.135   5.982   3.030 -0.1887 -0.0223  0.9597
 1019MOL0     C37477   2.011   5.924   3.021 -0.3580 -0.1770 -0.5930
 1019MOL0     O37478   1.861   5.620   3.100 -0.6549  0.5582  0.0398
 1019MOL0     C37479   1.624   5.501   3.037  0.4797 -0.0834  0.0023
 1019MOL0     C37480   1.494   5.446   3.022 -0.0570  0.0233  0.1381
 1019MOL0     N37481   1.238   5.021   3.196  0.0539  0.8091 -0.3058
 1019MOL0     N37482   1.242   4.901   3.254  0.7869 -1.0721  0.4092
 1019MOL0     C37483   1.104   5.066   4.258 -0.0786 -0.1145  0.6202
 1019MOL0     C37484   1.067   5.201   4.227 -0.2000 -0.4176  0.6601
 1019MOL0     C37485   0.857   5.537   4.000 -0.3760 -0.5640  0.0983
 1019MOL0     C37486   0.857   5.631   4.105 -0.1042 -0.5245 -0.8520
 1019MOL0     C37487   0.819   5.766   4.080  0.5644  0.4451  0.5504
 1019MOL0     C37488   0.787   5.805   3.948  1.0756  0.9336  0.3701
 1019MOL0     O37489   0.758   5.933   3.911 -0.2617 -0.2509 -0.2288
 1019MOL0     C37490   0.720   6.024   4.014  0.2220 -0.8514  0.9248
 1019MOL0     C37491   0.670   6.170   3.953 -0.9863  0.0435  0.5998
 1019MOL0     C37492   0.671   6.186   3.792 -0.5328  0.1202 -0.0911
 1019MOL0     C37493   0.645   6.333   3.761  0.7679  0.5168  0.9119
 1019MOL0     C37494   0.750   6.423   3.802  0.3018 -0.2786 -0.2036
 1019MOL0     C37495   0.836   6.499   3.844 -0.1317  0.3656  0.7157
 1019MOL0     C37496   0.794   5.709   3.843  0.6170 -0.4909  1.4028
 1019MOL0     C37497   0.838   5.578   3.866  0.3988  1.0046 -0.0365
 1019MOL0     H37498   0.728   5.156   4.181 -1.6178  0.2025  0.3352
 1019MOL0     H37499   0.792   4.931   4.221  0.3119  1.5884  2.4089
 1019MOL0     H37500   1.107   4.661   4.225 -0.9499 -2.2407 -0.9433
 1019MOL0     H37501   0.973   4.691   4.131  2.3765 -3.2209 -0.3160
 1019MOL0     H37502   1.114   4.881   4.006 -0.4931 -2.1419 -1.5278
 1019MOL0     H37503   1.248   4.818   4.090 -0.3408  0.7710  0.6807
 1019MOL0     H37504   1.159   4.583   3.980 -2.4070 -0.4839 -0.6390
 1019MOL0     H37505   1.028   4.675   3.920 -0.3318 -1.9856  2.1394
 1019MOL0     H37506   1.179   4.819   3.787 -2.1015 -0.4224  0.9862
 1019MOL0     H37507   1.319   4.727   3.846  0.3709  0.5924 -1.7932
 1019MOL0     H37508   1.172   4.519   3.745 -2.4274  0.4465  0.3878
 1019MOL0     H37509   1.087   4.657   3.661  0.1445 -1.4033  0.3586
 1019MOL0     H37510   1.389   4.579   3.666 -1.4567 -1.0701  0.0625
 1019MOL0     H37511   1.280   4.541   3.530 -3.1160  1.8415 -1.3883
 1019MOL0     H37512   1.372   4.816   3.624  1.4260 -1.7040  1.2640
 1019MOL0     H37513   1.409   4.728   3.474 -0.9616 -3.1282 -0.7319
 1019MOL0     H37514   1.133   4.837   3.535 -1.7335  0.5540 -1.8809
 1019MOL0     H37515   1.166   4.727   3.408 -1.0275 -1.4759  2.7902
 1019MOL0     H37516   1.247   5.088   3.514 -0.0764 -2.7598  0.8041
 1019MOL0     H37517   1.205   5.305   3.372  1.0657 -3.8524  3.2460
 1019MOL0     H37518   1.361   5.292   3.285  0.7980 -0.9172  3.5923
 1019MOL0     H37519   1.101   5.239   3.153 -0.3326  1.4614  2.0698
 1019MOL0     H37520   1.246   5.249   3.056  1.0355  0.6915 -0.5090
 1019MOL0     H37521   1.250   5.509   3.165  0.7748 -1.1352  0.7954
 1019MOL0     H37522   1.087   5.485   3.181 -0.9051 -0.6510 -0.7333
 1019MOL0     H37523   1.152   5.594   2.971 -0.7478  0.0208  0.3416
 1019MOL0     H37524   1.074   5.444   2.931  1.3948  0.1948 -1.6062
 1019MOL0     H37525   1.400   5.645   2.767  0.1008 -2.4817 -2.2306
 1019MOL0     H37526   1.677   5.770   2.713  2.3319 -1.8006  1.9785
 1019MOL0     H37527   1.512   5.822   2.738  2.1775  4.9297 -1.4403
 1019MOL0     H37528   1.643   5.869   2.847  1.9790  0.1068 -3.1054
 1019MOL0     H37529   2.093   5.670   2.813  2.6723  0.3741 -1.0292
 1019MOL0     H37530   2.322   5.757   2.872 -0.2148 -0.2268  1.3518
 1019MOL0     H37531   2.407   5.804   3.099 -1.7317  0.9346  1.4897
 1019MOL0     H37532   2.548   5.899   3.015 -0.9861  1.4798 -2.7506
 1019MOL0     H37533   2.473   6.075   3.182 -2.0911 -0.6884  0.1932
 1019MOL0     H37534   2.390   5.961   3.281 -0.4187  3.8515  0.1181
 1019MOL0     H37535   2.685   5.971   3.210  0.5719 -0.1960  0.0573
 1019MOL0     H37536   2.616   5.834   3.310 -0.0063 -1.4981 -3.1761
 1019MOL0     H37537   2.646   6.134   3.377  1.0963 -0.4073  1.3770
 1019MOL0     H37538   2.553   6.027   3.471 -0.8948 -0.9291 -0.9518
 1019MOL0     H37539   2.850   6.002   3.405  1.5068 -0.5435  2.9488
 1019MOL0     H37540   2.763   5.882   3.510  1.5332  0.5215  3.5194
 1019MOL0     H37541   2.799   6.183   3.556  0.9816  0.0732 -2.2031
 1019MOL0     H37542   2.685   6.070   3.648 -0.1658 -1.2971 -1.2019
 1019MOL0     H37543   2.863   5.951   3.747  2.3007  0.0740  1.0827
 1019MOL0     H37544   2.907   6.126   3.760 -1.4386  0.1492 -0.7010
 1019MOL0     H37545   3.035   6.116   3.557 -2.1380 -0.0375  0.4664
 1019MOL0     H37546   3.029   5.941   3.541 -1.0717  2.3211 -3.5567
 1019MOL0     H37547   2.148   6.069   3.093 -1.6402 -0.3585  1.7834
 1019MOL0     H37548   1.920   5.963   3.067 -0.1637  2.0968 -1.9913
 1019MOL0     H37549   1.695   5.454   3.104 -3.5947 -0.9834  4.1411
 1019MOL0     H37550   1.469   5.357   3.078 -0.5267  0.7777  1.1676
 1019MOL0     H37551   1.204   5.062   4.300 -0.3506  1.2347  1.4480
 1019MOL0     H37552   1.137   5.281   4.245 -0.7260  0.1844  0.0655
 1019MOL0     H37553   0.891   5.603   4.204  1.7710  2.4652 -0.5209
 1019MOL0     H37554   0.799   5.829   4.167  1.5176  3.6125 -1.3644
 1019MOL0     H37555   0.635   5.974   4.063  0.0636 -1.7991 -0.2643
 1019MOL0     H37556   0.789   6.029   4.099  1.7088 -0.5463 -0.2538
 1019MOL0     H37557   0.748   6.230   4.001  0.0863 -1.7431  1.2046
 1019MOL0     H37558   0.567   6.187   3.984 -1.3843  0.7026 -1.0022
 1019MOL0     H37559   0.588   6.131   3.749 -0.7890  2.3184 -2.6627
 1019MOL0     H37560   0.764   6.154   3.743  0.3346  0.6184  1.1760
 1019MOL0     H37561   0.546   6.363   3.797 -0.0156  3.4991 -3.0584
 1019MOL0     H37562   0.635   6.343   3.652 -0.8014 -0.9636  0.8730
 1019MOL0     H37563   0.917   6.561   3.876  1.9289 -0.9826 -1.4971
 1019MOL0     H37564   0.766   5.737   3.742 -1.9173 -2.8987  1.2890
 1019MOL0     H37565   0.858   5.511   3.782  2.0188  1.9883 -0.4832
 1020MOL0     O37566   1.198   5.285   5.918  0.6147  0.3052  0.4611
 1020MOL0     C37567   1.143   5.369   5.982 -0.5753  0.7992 -0.1585
 1020MOL0     O37568   1.064   5.465   5.933  0.1636 -0.7712  0.1108
 1020MOL0     C37569   1.085   5.494   5.796  0.4644 -0.6122  0.2084
 1020MOL0     C37570   1.207   5.531   5.746  0.1081  0.0485  0.1035
 1020MOL0     C37571   1.230   5.562   5.606  0.6183 -0.7428  0.4660
 1020MOL0     C37572   1.129   5.556   5.510 -0.4517  0.1883 -0.5463
 1020MOL0     O37573   1.156   5.592   5.385 -0.7634 -0.0563  0.2788
 1020MOL0     C37574   1.050   5.660   5.320  0.3652 -0.0445  0.3344
 1020MOL0     C37575   1.106   5.745   5.208 -1.0882  0.6970 -0.2792
 1020MOL0     C37576   1.109   5.673   5.072 -0.2831  0.6503  0.0745
 1020MOL0     C37577   1.190   5.554   5.081 -0.4488 -0.0487  0.0659
 1020MOL0     C37578   1.221   5.470   4.954 -0.1298  0.1744  0.5966
 1020MOL0     C37579   1.109   5.380   4.907 -0.3511  0.3801  0.1850
 1020MOL0     C37580   1.132   5.318   4.771  0.1630  0.8695  1.0035
 1020MOL0     C37581   1.017   5.328   4.668 -0.0002 -0.6114  0.3451
 1020MOL0     N37582   0.978   5.472   4.636 -0.0687  0.5800  1.1523
 1020MOL0     C37583   0.998   5.590   4.700 -0.7523 -0.5792 -0.2457
 1020MOL0     C37584   0.926   5.687   4.639  0.0039  0.5260  0.4503
 1020MOL0     C37585   0.913   5.839   4.666 -1.0209  0.5838 -0.2255
 1020MOL0     C37586   0.809   5.882   4.763  0.4114 -0.6693  0.2869
 1020MOL0     C37587   0.817   5.816   4.891 -0.3394  0.0918 -0.3971
 1020MOL0     C37588   0.700   5.866   4.982 -0.0801  0.7389 -0.2925
 1020MOL0     O37589   0.568   5.824   4.930 -0.8127 -0.1053 -0.1535
 1020MOL0     C37590   0.494   5.807   5.036  0.5183 -0.5464  0.1242
 1020MOL0     C37591   0.471   5.893   5.149  0.2916 -1.1242  0.3071
 1020MOL0     C37592   0.380   5.859   5.249  0.5445 -1.0138 -1.0068
 1020MOL0     C37593   0.378   5.949   5.377 -0.5923 -0.1560  0.0254
 1020MOL0     C37594   0.304   5.739   5.244  0.7210 -0.3432 -0.9836
 1020MOL0     C37595   0.204   5.693   5.346 -0.6516  0.5041  0.3150
 1020MOL0     O37596   0.165   5.560   5.336  0.3518  0.0989 -0.2432
 1020MOL0     C37597   0.078   5.503   5.420 -0.1664 -0.8897  0.3071
 1020MOL0     C37598   0.131   5.394   5.493  0.1843 -0.6085 -0.3368
 1020MOL0     C37599   0.040   5.320   5.578  0.1541 -0.3906  0.4241
 1020MOL0     C37600  -0.096   5.355   5.580  0.5001  0.1363 -0.6654
 1020MOL0     O37601  -0.171   5.319   5.688 -0.4326  0.5228 -0.0194
 1020MOL0     C37602  -0.156   5.194   5.746 -0.6302 -0.0531  0.1707
 1020MOL0     C37603  -0.269   5.151   5.829 -0.5372 -0.2250  0.0980
 1020MOL0     C37604  -0.268   5.199   5.982 -0.1983 -0.0125  0.2869
 1020MOL0     C37605  -0.271   5.349   5.974  0.8103 -0.3120 -1.5157
 1020MOL0     C37606  -0.352   5.421   6.094 -1.2347  1.1105  0.7526
 1020MOL0     C37607  -0.301   5.566   6.092  0.6556 -0.8115  0.3370
 1020MOL0     C37608  -0.393   5.653   6.181 -0.3852  0.4117 -0.1581
 1020MOL0     C37609  -0.334   5.786   6.212 -0.3913 -0.5680  0.0866
 1020MOL0    Cl37610  -0.340   5.887   6.062 -0.5194 -0.0610 -0.0878
 1020MOL0     C37611  -0.149   5.459   5.504  0.2121 -0.3366 -0.2696
 1020MOL0     C37612  -0.061   5.534   5.422  0.7561  0.2726 -1.4941
 1020MOL0     O37613   0.150   5.782   5.415 -0.4844  0.3110  0.6024
 1020MOL0     C37614   0.315   5.660   5.123 -0.4848 -0.1196  0.0352
 1020MOL0     C37615   0.397   5.701   5.029 -0.4430 -0.2516  0.1012
 1020MOL0     N37616   0.854   5.624   4.537 -0.5220  0.2818 -0.7622
 1020MOL0     N37617   0.888   5.495   4.540  0.5359 -0.4433  0.1364
 1020MOL0     C37618   0.999   5.510   5.565 -0.8215  0.0918  0.4864
 1020MOL0     C37619   0.980   5.482   5.699 -0.1595  0.2760 -0.0584
 1020MOL0     C37620   1.134   5.340   6.130 -0.2194  0.6451 -0.4516
 1020MOL0     C37621   1.219   5.244   6.179  0.0290  0.5996 -0.7797
 1020MOL0     C37622   1.225   5.212   6.319  0.4489  0.0662  0.2626
 1020MOL0     C37623   1.116   5.258   6.405 -0.1251 -0.4322  0.2034
 1020MOL0     O37624   1.132   5.237   6.538  0.1389  0.6337 -0.3416
 1020MOL0     C37625   1.037   5.291   6.630 -0.6409 -0.3328  0.2014
 1020MOL0     C37626   1.084   5.250   6.758 -0.2316  0.7777 -1.4285
 1020MOL0     C37627   0.996   5.124   6.809 -0.3991  0.7901  1.0025
 1020MOL0     C37628   1.023   5.090   6.954 -0.0330 -0.3332  0.5866
 1020MOL0     C37629   0.947   4.963   7.000 -0.8641 -1.2720  0.5084
 1020MOL0     C37630   0.901   4.852   7.008  0.9973 -0.3765  1.1172
 1020MOL0     C37631   1.024   5.350   6.357 -0.1638 -0.5731  0.1356
 1020MOL0     C37632   1.044   5.402   6.227  0.0994 -0.9575  0.6676
 1020MOL0     H37633   1.284   5.523   5.822 -2.7942 -1.1464  3.1852
 1020MOL0     H37634   1.325   5.607   5.577 -0.3685  0.1795 -1.4939
 1020MOL0     H37635   0.971   5.593   5.283  0.6963  0.4868 -1.4493
 1020MOL0     H37636   0.997   5.717   5.397  0.6937  1.8986 -0.8138
 1020MOL0     H37637   1.035   5.827   5.198  1.0267  2.8550  1.3828
 1020MOL0     H37638   1.202   5.789   5.234 -0.5940 -0.8288  0.6235
 1020MOL0     H37639   1.003   5.653   5.054 -0.5256  2.8245 -1.2568
 1020MOL0     H37640   1.145   5.735   4.989  2.9062 -3.3347 -1.8449
 1020MOL0     H37641   1.295   5.572   5.107  0.5238 -4.0271 -0.3190
 1020MOL0     H37642   1.158   5.482   5.157 -0.0525  0.0008  0.2866
 1020MOL0     H37643   1.239   5.540   4.872 -4.5809  2.3141  1.1588
 1020MOL0     H37644   1.310   5.410   4.975 -0.4931 -0.1604  1.2394
 1020MOL0     H37645   1.101   5.300   4.981  3.6733 -2.2353 -1.8306
 1020MOL0     H37646   1.008   5.422   4.912 -0.4320  0.0222  3.0567
 1020MOL0     H37647   1.226   5.355   4.730  1.3918  0.1170  2.9822
 1020MOL0     H37648   1.144   5.210   4.779 -2.9434  0.1953 -1.3398
 1020MOL0     H37649   0.922   5.281   4.694  0.0252 -2.3088 -2.3339
 1020MOL0     H37650   1.037   5.275   4.575 -4.5901 -1.7170 -0.2827
 1020MOL0     H37651   1.069   5.616   4.778 -0.2652  0.1074 -0.9026
 1020MOL0     H37652   1.011   5.876   4.697 -0.3210 -1.6187  0.3259
 1020MOL0     H37653   0.889   5.896   4.575  1.2089  0.7722 -0.7676
 1020MOL0     H37654   0.710   5.862   4.721  0.9339 -0.3122 -1.1527
 1020MOL0     H37655   0.817   5.989   4.784  0.0331  0.2786 -3.6253
 1020MOL0     H37656   0.913   5.840   4.937 -0.4492  1.3333 -0.7856
 1020MOL0     H37657   0.815   5.707   4.883  2.0500 -0.0750  0.4546
 1020MOL0     H37658   0.707   5.975   4.983 -0.6168  0.7877 -0.7451
 1020MOL0     H37659   0.721   5.820   5.079  1.5257 -0.1939 -1.0414
 1020MOL0     H37660   0.522   5.989   5.140 -0.1671 -0.9712 -0.8865
 1020MOL0     H37661   0.409   5.892   5.465 -2.1447 -0.6905  0.2585
 1020MOL0     H37662   0.445   6.035   5.372 -0.1987 -0.4740 -0.2128
 1020MOL0     H37663   0.280   5.999   5.381 -0.0252  1.0936 -0.9340
 1020MOL0     H37664   0.236   5.368   5.496 -0.2983 -3.0397 -1.4709
 1020MOL0     H37665   0.081   5.245   5.645  0.6359 -0.0748  0.4960
 1020MOL0     H37666  -0.150   5.130   5.658 -0.5295  1.1280 -0.7096
 1020MOL0     H37667  -0.067   5.187   5.810 -1.9557  1.8139  2.3763
 1020MOL0     H37668  -0.366   5.164   5.782  0.1349  1.4018 -0.9053
 1020MOL0     H37669  -0.254   5.042   5.835  1.3490  0.0214  0.6823
 1020MOL0     H37670  -0.180   5.168   6.040 -2.4139 -1.5963  3.0669
 1020MOL0     H37671  -0.357   5.166   6.037 -1.2225  2.1839  0.0617
 1020MOL0     H37672  -0.166   5.375   5.990  0.2530  0.3783  1.6847
 1020MOL0     H37673  -0.303   5.393   5.879 -2.2722  4.1074  1.2008
 1020MOL0     H37674  -0.321   5.383   6.192  3.7968 -0.1300 -1.0134
 1020MOL0     H37675  -0.459   5.410   6.071 -0.3015 -0.2263 -4.1768
 1020MOL0     H37676  -0.195   5.565   6.121  1.1824 -0.5974 -1.4764
 1020MOL0     H37677  -0.308   5.606   5.991  0.5618  0.8964  0.9961
 1020MOL0     H37678  -0.410   5.602   6.276 -1.5458 -0.3640 -0.7548
 1020MOL0     H37679  -0.498   5.662   6.151 -0.9640 -2.3730  0.7718
 1020MOL0     H37680  -0.227   5.777   6.231 -0.2811  3.5746  2.7717
 1020MOL0     H37681  -0.390   5.825   6.297  1.6061 -0.1978  1.2984
 1020MOL0     H37682  -0.252   5.489   5.514  0.0252 -1.1603  0.4144
 1020MOL0     H37683  -0.110   5.615   5.369  1.7647  2.1402  0.2909
 1020MOL0     H37684   0.247   5.579   5.099 -0.5133 -0.3521  0.8577
 1020MOL0     H37685   0.405   5.642   4.938 -0.0868  0.3237 -0.2405
 1020MOL0     H37686   0.925   5.474   5.494 -0.3098 -1.3917  0.6768
 1020MOL0     H37687   0.882   5.452   5.733 -1.0755  0.7075 -2.1666
 1020MOL0     H37688   1.298   5.200   6.120  2.2950  0.4715  2.1204
 1020MOL0     H37689   1.306   5.148   6.356  1.3940  1.5118  0.7979
 1020MOL0     H37690   1.045   5.400   6.625  0.6295 -0.4566 -1.4768
 1020MOL0     H37691   0.934   5.262   6.610 -0.8052  1.8871 -2.6755
 1020MOL0     H37692   1.086   5.330   6.832  0.3619 -0.5143  0.0063
 1020MOL0     H37693   1.187   5.213   6.752 -0.1437  1.0988 -1.9939
 1020MOL0     H37694   1.007   5.029   6.756 -3.4185  0.3935  0.9203
 1020MOL0     H37695   0.889   5.141   6.794 -0.6960 -1.4582  0.1871
 1020MOL0     H37696   0.987   5.176   7.011 -3.4225 -1.7930  0.9014
 1020MOL0     H37697   1.129   5.074   6.979 -0.2443 -0.4167  1.4375
 1020MOL0     H37698   0.854   4.758   6.989  4.0427 -1.5148 -1.7593
 1020MOL0     H37699   0.945   5.395   6.418 -0.1753  2.2838 -1.8049
 1020MOL0     H37700   0.973   5.473   6.185 -1.2489 -0.6625  3.2656
 1021MOL0     O37701   4.615   8.452   1.752 -0.0542 -1.1411 -0.0329
 1021MOL0     C37702   4.727   8.459   1.799  0.2842  0.5905  0.6013
 1021MOL0     O37703   4.783   8.370   1.886  0.1129 -0.3325  0.0292
 1021MOL0     C37704   4.709   8.269   1.947  0.0583  0.3494 -0.8871
 1021MOL0     C37705   4.572   8.290   1.989 -0.3229 -0.6368  0.4037
 1021MOL0     C37706   4.499   8.179   2.038 -0.0938  0.5446  0.5372
 1021MOL0     C37707   4.565   8.057   2.059  0.2347  0.2827 -0.4070
 1021MOL0     O37708   4.500   7.959   2.125  0.6432  0.0072  0.7293
 1021MOL0     C37709   4.397   7.889   2.049  1.0167  1.2017 -0.1922
 1021MOL0     C37710   4.464   7.787   1.947  0.5093  0.2967 -0.3313
 1021MOL0     C37711   4.381   7.671   1.895  0.2518 -0.6504 -0.9405
 1021MOL0     C37712   4.453   7.583   1.803  0.2591 -1.3956  0.0036
 1021MOL0     C37713   4.380   7.454   1.786 -0.3039  0.0925  0.0108
 1021MOL0     C37714   4.444   7.403   1.656 -0.0578 -0.2541 -0.6752
 1021MOL0     C37715   4.387   7.268   1.629 -0.1286  0.4005  0.0227
 1021MOL0     C37716   4.477   7.151   1.668  0.1982  0.0277 -0.2844
 1021MOL0     N37717   4.479   7.124   1.817  0.0763 -0.3688  0.9263
 1021MOL0     C37718   4.571   7.181   1.903  0.4260  1.7430 -0.0091
 1021MOL0     C37719   4.524   7.170   2.034  0.5897  0.5972  0.2661
 1021MOL0     C37720   4.586   7.235   2.148 -0.3737  0.3253  0.2094
 1021MOL0     C37721   4.553   7.368   2.146 -0.2687 -1.2206  0.4434
 1021MOL0     C37722   4.627   7.430   2.273  0.7589  0.2283  0.2075
 1021MOL0     C37723   4.575   7.574   2.291 -0.2958 -0.8605 -0.5049
 1021MOL0     O37724   4.638   7.614   2.405  0.1351 -0.4260 -0.0235
 1021MOL0     C37725   4.764   7.678   2.412 -0.0233  1.0119  0.5821
 1021MOL0     C37726   4.797   7.737   2.532  0.3458 -0.5648  0.0511
 1021MOL0     C37727   4.927   7.786   2.546 -0.9813 -0.3737  0.4471
 1021MOL0     C37728   4.977   7.856   2.672  0.2857  0.7845  0.1614
 1021MOL0     C37729   5.027   7.767   2.450  0.0594 -0.1766  0.2873
 1021MOL0     C37730   5.172   7.810   2.465  0.0830  0.6862 -0.2798
 1021MOL0     O37731   5.262   7.729   2.540 -0.0647 -0.1790 -0.1306
 1021MOL0     C37732   5.227   7.601   2.575  0.1143 -0.3480  0.3443
 1021MOL0     C37733   5.193   7.502   2.485 -0.3427  0.3811  0.0595
 1021MOL0     C37734   5.173   7.368   2.532 -0.0897  0.0257 -0.6792
 1021MOL0     C37735   5.177   7.338   2.671  0.3235 -0.1466 -0.5859
 1021MOL0     O37736   5.159   7.211   2.712 -0.1476  0.1136  0.0731
 1021MOL0     C37737   5.023   7.193   2.769  0.4640  0.2983  0.2840
 1021MOL0     C37738   5.008   7.043   2.808 -0.2749 -0.6835  0.5284
 1021MOL0     C37739   5.112   6.983   2.897 -0.6865  0.7261 -0.7449
 1021MOL0     C37740   5.207   6.879   2.820  0.2046  0.2484  0.4432
 1021MOL0     C37741   5.358   6.896   2.853 -0.9970 -0.3390 -0.6270
 1021MOL0     C37742   5.422   7.014   2.778 -0.6228 -0.0742  0.0772
 1021MOL0     C37743   5.570   7.034   2.826  0.3715 -0.3752  1.0647
 1021MOL0     C37744   5.655   7.085   2.714  1.2027  1.0718  0.5962
 1021MOL0    Cl37745   5.828   7.120   2.759  0.2051 -0.4633  0.0028
 1021MOL0     C37746   5.205   7.440   2.759 -0.0943 -0.1628  0.0806
 1021MOL0     C37747   5.228   7.570   2.711 -0.0783  0.6720  0.0497
 1021MOL0     O37748   5.200   7.923   2.429 -0.2889 -0.3468  0.5329
 1021MOL0     C37749   4.991   7.705   2.333 -0.3320  0.6133  0.5893
 1021MOL0     C37750   4.860   7.665   2.316  0.9911  1.5233  0.1926
 1021MOL0     N37751   4.395   7.114   2.024 -0.3838 -0.2286 -0.3817
 1021MOL0     N37752   4.374   7.085   1.902 -0.4479  0.5628  0.7079
 1021MOL0     C37753   4.696   8.038   2.021  0.8855 -0.5157 -0.5311
 1021MOL0     C37754   4.767   8.147   1.967  0.8338  0.5544 -0.0955
 1021MOL0     C37755   4.810   8.574   1.761  1.1589 -1.4739  0.5714
 1021MOL0     C37756   4.802   8.629   1.630 -0.4636 -0.4454  0.3637
 1021MOL0     C37757   4.866   8.747   1.582  0.2523 -0.0709 -0.1018
 1021MOL0     C37758   4.944   8.817   1.675  0.3071 -0.5407  0.4659
 1021MOL0     O37759   4.997   8.937   1.637  0.5953  0.5592 -0.0459
 1021MOL0     C37760   5.000   8.981   1.507  0.5556  0.7372 -1.1448
 1021MOL0     C37761   5.092   8.907   1.410 -0.1732  1.3934  0.4121
 1021MOL0     C37762   5.221   8.978   1.363  0.1871  0.5427 -1.1073
 1021MOL0     C37763   5.193   9.084   1.250 -0.1053  0.7574 -0.5938
 1021MOL0     C37764   5.306   9.173   1.224  0.2540  0.9430  0.8601
 1021MOL0     C37765   5.397   9.257   1.213  0.3540 -0.0501 -0.2806
 1021MOL0     C37766   4.977   8.751   1.798 -0.7643  0.1710  0.2824
 1021MOL0     C37767   4.905   8.637   1.845 -0.7082  0.3207 -0.1675
 1021MOL0     H37768   4.521   8.385   1.977 -1.2251 -1.1261  0.2566
 1021MOL0     H37769   4.391   8.177   2.053  0.2254 -0.8065  3.5700
 1021MOL0     H37770   4.348   7.826   2.123  1.9591  0.4104 -0.2136
 1021MOL0     H37771   4.314   7.948   2.010 -0.4587  0.4796  1.7193
 1021MOL0     H37772   4.506   7.837   1.859  1.5935 -1.7871 -1.0739
 1021MOL0     H37773   4.543   7.737   2.005 -0.7914  0.0245  1.2617
 1021MOL0     H37774   4.349   7.602   1.974 -4.5628 -1.7358 -3.4543
 1021MOL0     H37775   4.283   7.702   1.858 -1.3331 -2.0224  1.7787
 1021MOL0     H37776   4.463   7.626   1.703  2.1183 -0.8025  0.4224
 1021MOL0     H37777   4.552   7.568   1.846  0.0078  1.4590  1.8062
 1021MOL0     H37778   4.405   7.404   1.880 -1.5034 -2.5422 -0.9868
 1021MOL0     H37779   4.271   7.455   1.778 -0.1995  1.0057 -1.7869
 1021MOL0     H37780   4.412   7.467   1.573 -2.2870 -1.5217 -0.8802
 1021MOL0     H37781   4.553   7.404   1.662 -0.1162  0.6310  0.4092
 1021MOL0     H37782   4.288   7.248   1.669 -1.5025  2.0455 -2.3180
 1021MOL0     H37783   4.378   7.263   1.520 -0.9552 -2.1262  0.1355
 1021MOL0     H37784   4.578   7.173   1.634  0.4643 -1.5454 -0.5705
 1021MOL0     H37785   4.443   7.061   1.615 -5.5643  0.6064  1.6519
 1021MOL0     H37786   4.668   7.210   1.865  0.9397 -0.4688 -0.5013
 1021MOL0     H37787   4.549   7.175   2.231  2.6089  0.0584  1.5000
 1021MOL0     H37788   4.693   7.212   2.138 -0.6579 -1.6585  1.1616
 1021MOL0     H37789   4.447   7.390   2.160  0.2016 -0.0549  2.5537
 1021MOL0     H37790   4.596   7.415   2.057  0.1138 -2.0799  0.1667
 1021MOL0     H37791   4.735   7.418   2.271  0.6554 -1.1228 -2.5240
 1021MOL0     H37792   4.603   7.379   2.367  2.1043 -0.6867  0.0815
 1021MOL0     H37793   4.467   7.579   2.307  0.0015  0.6616  1.3376
 1021MOL0     H37794   4.605   7.636   2.206  2.0261 -1.2398 -0.0135
 1021MOL0     H37795   4.727   7.752   2.613 -0.5812 -0.8621 -0.6739
 1021MOL0     H37796   5.035   7.772   2.712 -1.5648 -3.0958 -4.2875
 1021MOL0     H37797   5.029   7.950   2.653 -0.0943  0.3596 -3.9094
 1021MOL0     H37798   4.896   7.887   2.739  0.9188 -2.4253  2.7119
 1021MOL0     H37799   5.197   7.514   2.378  1.2548 -0.4390  0.0017
 1021MOL0     H37800   5.166   7.281   2.467 -0.5343 -0.4642  0.0048
 1021MOL0     H37801   4.997   7.259   2.852 -2.1844  1.5136 -1.3821
 1021MOL0     H37802   4.952   7.225   2.693 -0.2528 -3.8524 -1.0189
 1021MOL0     H37803   4.920   7.044   2.872 -0.1650 -0.3007  0.6715
 1021MOL0     H37804   5.008   6.978   2.719 -0.8099 -0.3905  0.3162
 1021MOL0     H37805   5.068   6.937   2.986  0.3509  0.1664 -0.4984
 1021MOL0     H37806   5.179   7.064   2.927  0.9194  0.0006 -2.1855
 1021MOL0     H37807   5.160   6.782   2.834 -0.0397  0.5781  2.0307
 1021MOL0     H37808   5.205   6.880   2.710 -2.9920 -2.0070  0.3563
 1021MOL0     H37809   5.407   6.802   2.827 -0.9587 -0.1051 -1.4061
 1021MOL0     H37810   5.358   6.918   2.961 -3.6097 -1.5383 -0.2874
 1021MOL0     H37811   5.429   6.996   2.671  0.4965 -1.0798  0.2998
 1021MOL0     H37812   5.372   7.109   2.799  2.9798  1.8543  0.8305
 1021MOL0     H37813   5.605   6.939   2.868 -2.7505 -2.5456 -0.7511
 1021MOL0     H37814   5.573   7.103   2.911  2.9955 -0.0644  0.7793
 1021MOL0     H37815   5.604   7.174   2.675  0.3273  1.0025  1.5501
 1021MOL0     H37816   5.661   7.024   2.623  1.2946  0.5932  0.9197
 1021MOL0     H37817   5.209   7.408   2.863 -1.9852  0.3373  0.3362
 1021MOL0     H37818   5.266   7.636   2.789 -1.7649 -0.6302  2.1062
 1021MOL0     H37819   5.065   7.693   2.255 -1.1365  1.3198 -0.3006
 1021MOL0     H37820   4.834   7.613   2.224  2.5711 -0.5419  0.8314
 1021MOL0     H37821   4.740   7.943   2.049 -2.0653 -1.4517  1.3618
 1021MOL0     H37822   4.872   8.131   1.943  0.4804  0.5940 -1.8259
 1021MOL0     H37823   4.738   8.569   1.565  0.2305 -1.6509  0.7512
 1021MOL0     H37824   4.850   8.787   1.482  1.3219 -0.8800 -0.6151
 1021MOL0     H37825   4.898   8.973   1.469  0.0821 -0.2906  0.2722
 1021MOL0     H37826   5.037   9.083   1.523  1.0704  0.2553  0.9933
 1021MOL0     H37827   5.040   8.870   1.321  1.3553 -0.1735  0.1051
 1021MOL0     H37828   5.124   8.818   1.465 -0.6861  1.1219  0.2801
 1021MOL0     H37829   5.286   8.898   1.326  0.3138  0.2437 -0.2660
 1021MOL0     H37830   5.255   9.028   1.455 -0.6374 -3.1592  1.4482
 1021MOL0     H37831   5.104   9.140   1.279 -0.1915 -0.0073  0.7283
 1021MOL0     H37832   5.187   9.032   1.154  2.5316  2.2947 -1.7181
 1021MOL0     H37833   5.484   9.318   1.201  0.4292  0.0117  0.4875
 1021MOL0     H37834   5.060   8.794   1.853  0.0876 -2.3396  1.0881
 1021MOL0     H37835   4.929   8.603   1.945 -0.2477 -3.3571 -1.3946
 1022MOL0     O37836   4.215  10.857   1.960 -0.3449 -0.5237  0.6439
 1022MOL0     C37837   4.263  10.812   2.062 -0.2131 -0.1513 -0.1811
 1022MOL0     O37838   4.298  10.682   2.083  0.1319 -0.8181 -0.1871
 1022MOL0     C37839   4.255  10.584   1.991  0.0931  0.0653 -0.6676
 1022MOL0     C37840   4.122  10.574   1.941  0.2975 -0.5166 -0.4879
 1022MOL0     C37841   4.066  10.471   1.870 -0.1971  0.2465  0.2560
 1022MOL0     C37842   4.140  10.362   1.835  0.1240 -0.2339 -0.4970
 1022MOL0     O37843   4.085  10.267   1.761  0.5801  0.0171 -0.3119
 1022MOL0     C37844   4.111  10.130   1.803 -0.8322  1.0933 -0.2859
 1022MOL0     C37845   4.056  10.017   1.714  0.0643 -0.0706  0.0362
 1022MOL0     C37846   4.139   9.985   1.589  0.8524  0.6299  0.4171
 1022MOL0     C37847   4.243   9.876   1.610  0.5251 -1.0711  0.7632
 1022MOL0     C37848   4.336   9.864   1.486 -0.6459  0.4715  0.2288
 1022MOL0     C37849   4.420   9.742   1.512  0.1193  0.5096 -0.0910
 1022MOL0     C37850   4.524   9.713   1.408 -0.5185 -0.3934 -0.7295
 1022MOL0     C37851   4.610   9.835   1.377  2.1275  0.5318 -0.0209
 1022MOL0     N37852   4.752   9.804   1.348 -0.0685  0.3297  0.0281
 1022MOL0     C37853   4.824   9.690   1.369 -0.6143  0.5727  0.8741
 1022MOL0     C37854   4.949   9.708   1.324 -0.0286 -0.7591 -0.3743
 1022MOL0     C37855   5.060   9.607   1.313  0.9043 -0.6797 -0.5088
 1022MOL0     C37856   5.184   9.663   1.240 -0.0196  0.0917  0.3175
 1022MOL0     C37857   5.150   9.711   1.090  0.2306  0.2191 -0.4439
 1022MOL0     C37858   5.107   9.602   0.997  0.5593  0.5282  0.0577
 1022MOL0     O37859   4.964   9.591   0.992  0.0525 -0.7131 -0.1616
 1022MOL0     C37860   4.892   9.516   0.898 -0.4915 -0.8876 -0.5903
 1022MOL0     C37861   4.762   9.507   0.913  0.6198  1.1246  0.3724
 1022MOL0     C37862   4.671   9.440   0.818 -0.3397  0.3273  0.2400
 1022MOL0     C37863   4.525   9.435   0.840 -1.0474 -0.8311 -0.4881
 1022MOL0     C37864   4.726   9.372   0.706 -0.4305  0.4324 -0.1675
 1022MOL0     C37865   4.656   9.282   0.614  0.1548  0.0745  0.6881
 1022MOL0     O37866   4.712   9.272   0.491  0.0592 -0.0348 -0.4201
 1022MOL0     C37867   4.689   9.171   0.396  0.5289  0.1637  0.2544
 1022MOL0     C37868   4.693   9.040   0.435 -1.0680 -0.3191  0.4057
 1022MOL0     C37869   4.692   8.938   0.336  0.7835 -0.0594 -0.0926
 1022MOL0     C37870   4.675   8.969   0.198  0.6355  0.0983  0.6016
 1022MOL0     O37871   4.676   8.876   0.089  0.0645  0.0013  0.0724
 1022MOL0     C37872   4.590   8.760   0.112 -0.5787  0.1479  0.1444
 1022MOL0     C37873   4.606   8.667  -0.009 -0.3491  0.0357  0.0777
 1022MOL0     C37874   4.748   8.589  -0.012 -0.7276 -0.0797  0.3110
 1022MOL0     C37875   4.838   8.615  -0.130 -0.2313 -0.8101  0.4671
 1022MOL0     C37876   4.959   8.530  -0.138 -0.4813  0.4261 -0.2374
 1022MOL0     C37877   5.017   8.541  -0.281  0.8282 -1.0526 -1.1716
 1022MOL0     C37878   5.165   8.504  -0.285 -0.0876  0.8806  0.4993
 1022MOL0     C37879   5.202   8.352  -0.271 -0.2648 -0.2038  0.5654
 1022MOL0    Cl37880   5.139   8.286  -0.112 -0.6054 -0.1337 -0.0433
 1022MOL0     C37881   4.666   9.112   0.168 -0.4558 -0.7054  0.0634
 1022MOL0     C37882   4.682   9.210   0.268 -0.2796 -0.6365 -0.1426
 1022MOL0     O37883   4.572   9.209   0.658 -0.1969  0.3738  0.0461
 1022MOL0     C37884   4.862   9.388   0.688 -0.7034 -0.7929  0.0686
 1022MOL0     C37885   4.944   9.462   0.779 -0.2297 -0.4681  0.4039
 1022MOL0     N37886   4.958   9.843   1.299  0.2355 -0.5877 -0.0235
 1022MOL0     N37887   4.839   9.903   1.322 -1.0476  0.3481  0.7170
 1022MOL0     C37888   4.279  10.359   1.887  0.3701 -0.3540  1.0541
 1022MOL0     C37889   4.336  10.472   1.958  0.1646 -0.2854  0.1165
 1022MOL0     C37890   4.293  10.907   2.175 -0.0519  1.3324 -0.2997
 1022MOL0     C37891   4.278  11.041   2.152  0.2503 -0.7287  0.5078
 1022MOL0     C37892   4.287  11.129   2.262  0.3351  0.1891  1.5568
 1022MOL0     C37893   4.342  11.099   2.380 -1.1574  0.0276 -1.1363
 1022MOL0     O37894   4.363  11.196   2.476  0.1197  0.1953  1.1902
 1022MOL0     C37895   4.415  11.150   2.605  0.1391 -0.2150  0.0664
 1022MOL0     C37896   4.410  11.265   2.697 -0.0845  0.4183 -0.7400
 1022MOL0     C37897   4.461  11.227   2.834  0.1440 -0.2619  0.1908
 1022MOL0     C37898   4.382  11.106   2.904 -0.7632 -0.7446 -0.2865
 1022MOL0     C37899   4.452  11.071   3.025 -0.2257 -0.7029 -0.6230
 1022MOL0     C37900   4.496  11.053   3.134 -0.1884  1.2431 -1.1815
 1022MOL0     C37901   4.386  10.967   2.397  0.5866  0.1047 -0.0396
 1022MOL0     C37902   4.349  10.869   2.300 -0.3224 -0.0594  0.9710
 1022MOL0     H37903   4.048  10.652   1.959  1.1359  0.8647 -2.6117
 1022MOL0     H37904   3.961  10.479   1.847 -1.1706  0.0133  4.0219
 1022MOL0     H37905   4.212  10.110   1.840 -1.0566 -2.0570 -1.0734
 1022MOL0     H37906   4.050  10.118   1.894 -0.6055 -0.3574 -0.2986
 1022MOL0     H37907   4.042   9.918   1.759  0.7885 -0.4956 -0.6433
 1022MOL0     H37908   3.953  10.044   1.688 -0.9903 -3.4794  0.0466
 1022MOL0     H37909   4.067   9.953   1.513  2.1035 -3.8358  0.8204
 1022MOL0     H37910   4.183  10.076   1.547  2.4712 -0.4072 -0.2484
 1022MOL0     H37911   4.294   9.903   1.703 -1.8648 -3.2461  2.8586
 1022MOL0     H37912   4.190   9.784   1.638 -3.0046  0.9141  1.2200
 1022MOL0     H37913   4.279   9.837   1.397 -0.5401 -0.4263  0.4216
 1022MOL0     H37914   4.393   9.958   1.485 -1.8948  1.3548  2.6253
 1022MOL0     H37915   4.475   9.755   1.606 -1.9318  1.3713  1.0512
 1022MOL0     H37916   4.344   9.665   1.523  0.2315  0.4367  0.1983
 1022MOL0     H37917   4.573   9.620   1.436 -0.4865 -0.5901 -1.4283
 1022MOL0     H37918   4.478   9.685   1.313  1.1398 -0.6279 -1.4879
 1022MOL0     H37919   4.606   9.912   1.455  0.9265  3.6890 -2.9030
 1022MOL0     H37920   4.563   9.887   1.292 -1.6650 -0.8469  1.0655
 1022MOL0     H37921   4.800   9.591   1.406  0.9623 -1.6338 -3.3266
 1022MOL0     H37922   5.103   9.573   1.408 -0.2100 -1.4466 -0.2602
 1022MOL0     H37923   5.024   9.522   1.255  2.1609  0.6657 -3.4478
 1022MOL0     H37924   5.258   9.583   1.227  1.0594  1.1592 -0.3722
 1022MOL0     H37925   5.226   9.739   1.306  1.3398 -0.9500  0.7142
 1022MOL0     H37926   5.242   9.747   1.042 -0.7400 -1.1941 -3.6112
 1022MOL0     H37927   5.086   9.799   1.090  1.7764  1.3914 -0.2603
 1022MOL0     H37928   5.141   9.500   1.017 -1.4085 -0.6910 -2.1915
 1022MOL0     H37929   5.135   9.636   0.897 -1.9274  1.7709 -0.2931
 1022MOL0     H37930   4.722   9.547   1.006 -1.4779  2.2204 -0.9393
 1022MOL0     H37931   4.465   9.436   0.749 -3.1418 -0.8940  0.8460
 1022MOL0     H37932   4.500   9.342   0.892 -3.2015  1.0590  2.0977
 1022MOL0     H37933   4.506   9.521   0.905  0.3081 -0.0758 -1.0545
 1022MOL0     H37934   4.714   9.019   0.539  0.7732  0.6047  0.2483
 1022MOL0     H37935   4.697   8.837   0.377  0.0069  1.3692  3.9636
 1022MOL0     H37936   4.620   8.706   0.202  1.1816 -0.4522 -0.7478
 1022MOL0     H37937   4.488   8.792   0.133 -0.0177  0.4868  2.5568
 1022MOL0     H37938   4.517   8.605  -0.011 -1.2260  1.2674 -1.4964
 1022MOL0     H37939   4.605   8.728  -0.101  2.4382 -3.0187 -2.2467
 1022MOL0     H37940   4.708   8.487  -0.015  0.3336 -0.5176 -2.7533
 1022MOL0     H37941   4.800   8.604   0.083 -1.8279 -2.6471  1.4170
 1022MOL0     H37942   4.785   8.597  -0.224  1.8520  1.6857 -1.3368
 1022MOL0     H37943   4.859   8.720  -0.106  2.0438 -1.6107  2.4154
 1022MOL0     H37944   4.915   8.431  -0.120 -2.9875  1.6367  0.7474
 1022MOL0     H37945   5.029   8.558  -0.058 -0.2905  1.5162 -0.7684
 1022MOL0     H37946   4.954   8.489  -0.354 -1.4339 -3.2852  2.1065
 1022MOL0     H37947   5.015   8.648  -0.304 -2.7916 -1.2883 -2.7445
 1022MOL0     H37948   5.220   8.557  -0.207  2.1595 -1.3695  0.5600
 1022MOL0     H37949   5.209   8.531  -0.381 -0.3748  2.3378  0.7557
 1022MOL0     H37950   5.311   8.349  -0.281 -0.3144  0.2149 -0.1582
 1022MOL0     H37951   5.152   8.298  -0.351 -0.9205  1.5495 -0.2612
 1022MOL0     H37952   4.663   9.154   0.067  0.5488  0.2495  0.4106
 1022MOL0     H37953   4.683   9.317   0.250  0.9824 -0.6145 -0.0050
 1022MOL0     H37954   4.930   9.352   0.611  1.7367 -0.0956  1.7640
 1022MOL0     H37955   5.050   9.459   0.755 -0.1569  0.4119  0.5888
 1022MOL0     H37956   4.345  10.275   1.867  1.9573  0.8959  0.8734
 1022MOL0     H37957   4.441  10.465   1.983  0.8966 -0.9679 -2.7695
 1022MOL0     H37958   4.256  11.085   2.056 -0.0241 -2.3450 -0.1933
 1022MOL0     H37959   4.248  11.230   2.250 -0.2958 -0.3263 -1.7532
 1022MOL0     H37960   4.352  11.067   2.640 -1.1230 -0.1290 -1.8942
 1022MOL0     H37961   4.517  11.110   2.598 -0.2507 -0.8609 -3.0076
 1022MOL0     H37962   4.312  11.307   2.717 -0.2200 -0.4659  0.6114
 1022MOL0     H37963   4.468  11.350   2.661 -1.8089  1.1139 -1.9726
 1022MOL0     H37964   4.469  11.314   2.900  3.5219 -0.6310  0.4846
 1022MOL0     H37965   4.562  11.188   2.818 -0.2998 -0.9047 -1.1854
 1022MOL0     H37966   4.383  11.016   2.842  0.1959 -1.9507  1.3793
 1022MOL0     H37967   4.280  11.139   2.927 -0.4873 -0.9177  1.3288
 1022MOL0     H37968   4.512  11.031   3.238 -0.7308  2.8791 -0.7161
 1022MOL0     H37969   4.454  10.946   2.480  1.3328  2.9150  0.1587
 1022MOL0     H37970   4.357  10.762   2.314 -1.6570 -0.4736 -0.9341
 1023MOL0     O37971   1.536   0.198   1.596 -0.3702  0.3774  0.5135
 1023MOL0     C37972   1.585   0.112   1.669 -0.1435 -0.2505 -0.8839
 1023MOL0     O37973   1.526   0.065   1.783 -0.1975 -1.0091  0.0317
 1023MOL0     C37974   1.402   0.118   1.816  0.1118 -0.7806 -0.8148
 1023MOL0     C37975   1.410   0.217   1.916 -0.5795 -0.5786 -0.8106
 1023MOL0     C37976   1.295   0.283   1.960  0.1578  0.4387 -1.1485
 1023MOL0     C37977   1.171   0.248   1.912 -0.1725 -0.5289 -0.5956
 1023MOL0     O37978   1.060   0.308   1.943  0.0144  0.0777  0.1276
 1023MOL0     C37979   1.061   0.397   2.056 -0.0696 -0.5235  0.5997
 1023MOL0     C37980   0.913   0.416   2.095 -0.3083 -0.0201  0.6586
 1023MOL0     C37981   0.835   0.492   1.993 -0.1202 -0.6136 -0.3886
 1023MOL0     C37982   0.679   0.501   2.017  0.3053 -0.1632  0.0270
 1023MOL0     C37983   0.625   0.642   2.046 -0.8524 -0.3319  0.5292
 1023MOL0     C37984   0.686   0.721   2.160  0.2998 -0.8917 -1.4435
 1023MOL0     C37985   0.623   0.681   2.293  0.8075  1.3610  0.0798
 1023MOL0     C37986   0.726   0.683   2.402  1.0762  0.1231  0.4405
 1023MOL0     N37987   0.749   0.818   2.452  0.0459 -0.3311  0.2265
 1023MOL0     C37988   0.648   0.908   2.475 -0.4674  0.9828 -0.0519
 1023MOL0     C37989   0.692   0.998   2.566 -0.2712  0.0440 -0.2794
 1023MOL0     C37990   0.608   1.108   2.628 -0.7445 -0.0594  0.7537
 1023MOL0     C37991   0.698   1.211   2.688  0.4702 -0.2117 -0.3218
 1023MOL0     C37992   0.611   1.334   2.728 -0.0381 -0.4942 -0.7649
 1023MOL0     C37993   0.708   1.436   2.791 -0.3407 -1.0400  0.9768
 1023MOL0     O37994   0.741   1.393   2.923 -0.7776 -0.4738  0.4169
 1023MOL0     C37995   0.842   1.459   2.993 -1.0166  0.0332  0.4208
 1023MOL0     C37996   0.885   1.411   3.113 -0.0507  0.5530 -0.0083
 1023MOL0     C37997   0.985   1.474   3.198 -0.7634  0.0390  0.6423
 1023MOL0     C37998   1.011   1.426   3.344  0.1332  0.1723 -0.0913
 1023MOL0     C37999   1.037   1.606   3.151 -0.2412 -0.2769 -0.5778
 1023MOL0     C38000   1.135   1.704   3.228 -0.9059  0.5034 -0.3685
 1023MOL0     O38001   1.184   1.662   3.347 -0.2767  0.6518 -0.3429
 1023MOL0     C38002   1.224   1.742   3.451  0.1729  0.6428 -0.2273
 1023MOL0     C38003   1.152   1.753   3.567  0.8424  0.5954  0.4992
 1023MOL0     C38004   1.184   1.825   3.680 -0.3557  0.0262  0.0520
 1023MOL0     C38005   1.311   1.879   3.686 -0.9408 -0.1368 -0.1521
 1023MOL0     O38006   1.348   1.965   3.789  0.4586 -0.6023  0.0416
 1023MOL0     C38007   1.491   1.973   3.826 -0.7491 -0.1274 -0.2093
 1023MOL0     C38008   1.536   1.868   3.914 -0.0983 -0.7067  0.9588
 1023MOL0     C38009   1.479   1.885   4.051  1.7536 -0.1384  0.3946
 1023MOL0     C38010   1.554   1.980   4.135  1.2090  0.1682 -0.3819
 1023MOL0     C38011   1.524   1.961   4.284  0.1134 -0.0849  0.1959
 1023MOL0     C38012   1.653   1.986   4.364 -0.1428 -0.4551 -0.4916
 1023MOL0     C38013   1.690   2.136   4.350 -0.8268  1.1059  0.0153
 1023MOL0     C38014   1.790   2.186   4.453 -0.7691 -0.5210  0.7650
 1023MOL0    Cl38015   1.792   2.363   4.446  0.4357  0.1826  0.1175
 1023MOL0     C38016   1.386   1.881   3.562  0.2663  0.0839  0.3929
 1023MOL0     C38017   1.347   1.804   3.451 -0.5214 -0.8558  0.0660
 1023MOL0     O38018   1.151   1.819   3.192  1.3061 -0.4835 -0.1809
 1023MOL0     C38019   0.983   1.661   3.035  0.1747  0.4197 -0.3086
 1023MOL0     C38020   0.883   1.588   2.960 -0.7914  0.0099  0.4184
 1023MOL0     N38021   0.824   0.961   2.598 -1.1439 -0.3388  0.0372
 1023MOL0     N38022   0.859   0.862   2.517  0.2746 -0.7113 -0.2759
 1023MOL0     C38023   1.161   0.169   1.798  0.3750  0.3509 -0.2968
 1023MOL0     C38024   1.279   0.109   1.751 -0.3997  0.1209 -0.0689
 1023MOL0     C38025   1.722   0.075   1.638  0.2092  0.8101  0.1231
 1023MOL0     C38026   1.789   0.117   1.525 -0.3167 -0.8824  0.4701
 1023MOL0     C38027   1.919   0.086   1.493  0.2169  0.4784 -0.0451
 1023MOL0     C38028   1.991   0.005   1.580 -0.3696  0.1694 -0.0109
 1023MOL0     O38029   2.118  -0.032   1.562 -0.3462  0.2788 -0.0868
 1023MOL0     C38030   2.151  -0.081   1.429 -0.3381  0.4304  0.0807
 1023MOL0     C38031   2.238   0.012   1.349 -1.0142  0.3513 -0.4712
 1023MOL0     C38032   2.343  -0.056   1.260 -0.6182 -0.4634  0.2292
 1023MOL0     C38033   2.461   0.032   1.225 -0.1427  0.1057  0.1402
 1023MOL0     C38034   2.547   0.042   1.348 -0.3021 -0.4240  0.1517
 1023MOL0     C38035   2.605   0.034   1.452  0.3045  0.3150 -0.4430
 1023MOL0     C38036   1.927  -0.026   1.705  1.1046  0.2952 -1.1577
 1023MOL0     C38037   1.797   0.012   1.742 -0.0382  1.0566 -0.1406
 1023MOL0     H38038   1.508   0.248   1.949 -1.6921  0.8584  1.4367
 1023MOL0     H38039   1.307   0.365   2.031 -0.5083 -0.7228  0.3582
 1023MOL0     H38040   1.122   0.348   2.132  1.3353  1.8636  1.1225
 1023MOL0     H38041   1.100   0.495   2.025 -1.5259 -0.9592 -3.1453
 1023MOL0     H38042   0.858   0.321   2.097 -2.6426  1.1602 -2.2353
 1023MOL0     H38043   0.913   0.471   2.190 -0.4288  1.3425 -0.1130
 1023MOL0     H38044   0.878   0.592   1.985 -1.1993 -0.1526 -0.6150
 1023MOL0     H38045   0.844   0.454   1.891 -2.7365 -0.1177 -0.8764
 1023MOL0     H38046   0.634   0.476   1.920 -0.5300 -1.9190  0.8080
 1023MOL0     H38047   0.656   0.432   2.098  1.3789  0.9555  1.3270
 1023MOL0     H38048   0.645   0.707   1.960  1.9996 -0.4813  0.9880
 1023MOL0     H38049   0.521   0.632   2.079  0.0219 -0.8645  3.4151
 1023MOL0     H38050   0.794   0.706   2.160  0.3731 -0.3630 -1.7897
 1023MOL0     H38051   0.679   0.829   2.145  2.5526  0.8518  5.7906
 1023MOL0     H38052   0.530   0.737   2.311  0.7801  1.0937  0.7838
 1023MOL0     H38053   0.584   0.580   2.281  0.9553  1.4452 -1.3299
 1023MOL0     H38054   0.813   0.629   2.363  0.0508 -3.5380  2.6577
 1023MOL0     H38055   0.698   0.624   2.490  0.5711 -4.1321 -2.2806
 1023MOL0     H38056   0.543   0.913   2.446 -1.6637 -1.6844  3.2394
 1023MOL0     H38057   0.544   1.161   2.557  0.0021  2.7766  2.0517
 1023MOL0     H38058   0.540   1.082   2.710 -0.6300 -2.0272  0.2893
 1023MOL0     H38059   0.769   1.246   2.613  3.4482 -2.7390  1.1293
 1023MOL0     H38060   0.750   1.171   2.775 -0.8091 -0.4681  0.3567
 1023MOL0     H38061   0.535   1.314   2.804 -0.5332  2.0187 -0.4874
 1023MOL0     H38062   0.555   1.377   2.645  0.8020 -2.8754 -2.6755
 1023MOL0     H38063   0.673   1.538   2.774 -0.1141 -1.3196 -1.4446
 1023MOL0     H38064   0.800   1.434   2.733 -2.2029  0.6510 -2.2848
 1023MOL0     H38065   0.849   1.312   3.138 -3.0134  0.0773 -4.9591
 1023MOL0     H38066   1.119   1.434   3.364  0.8455 -2.8409 -1.9866
 1023MOL0     H38067   0.945   1.480   3.412 -4.4071 -0.0283 -3.8726
 1023MOL0     H38068   1.004   1.317   3.349  2.3351 -0.0048  0.1332
 1023MOL0     H38069   1.071   1.682   3.557  2.5743 -1.4249  0.1428
 1023MOL0     H38070   1.115   1.833   3.763 -2.8995 -0.1031 -1.9196
 1023MOL0     H38071   1.551   1.964   3.734 -1.0387  0.3294 -0.4489
 1023MOL0     H38072   1.520   2.071   3.865  1.7341 -1.1560  0.7817
 1023MOL0     H38073   1.493   1.781   3.864 -2.4739  1.4146 -0.9414
 1023MOL0     H38074   1.645   1.859   3.925 -0.2758 -1.5538  2.3280
 1023MOL0     H38075   1.481   1.783   4.091  0.7220 -0.0830  0.6304
 1023MOL0     H38076   1.372   1.909   4.041  1.4748 -1.8349 -1.2225
 1023MOL0     H38077   1.660   1.952   4.133  1.3127  0.1368  2.0521
 1023MOL0     H38078   1.540   2.080   4.095 -0.2703 -0.1758 -0.7922
 1023MOL0     H38079   1.475   1.865   4.305 -0.2163  0.1172  0.3647
 1023MOL0     H38080   1.453   2.035   4.322  0.2595  0.1154  0.0817
 1023MOL0     H38081   1.636   1.973   4.471  0.4186  1.9508 -0.0642
 1023MOL0     H38082   1.725   1.913   4.325 -0.6247 -1.6722  0.8104
 1023MOL0     H38083   1.602   2.201   4.355 -1.2094  0.8925 -2.5644
 1023MOL0     H38084   1.737   2.140   4.251 -2.9223 -0.3344 -1.1176
 1023MOL0     H38085   1.889   2.145   4.436 -0.6203 -0.3724  1.2591
 1023MOL0     H38086   1.754   2.165   4.554  0.3454 -0.9978  1.0741
 1023MOL0     H38087   1.479   1.936   3.553  0.1717  0.3319  0.8947
 1023MOL0     H38088   1.418   1.795   3.369 -1.1597  4.6681 -1.4630
 1023MOL0     H38089   1.000   1.760   2.995  0.1005 -0.0093 -1.4559
 1023MOL0     H38090   0.843   1.642   2.875  0.8591  1.5042  0.5386
 1023MOL0     H38091   1.067   0.151   1.748  0.5711  1.5015 -1.1325
 1023MOL0     H38092   1.283   0.049   1.660  2.0905  0.1991 -0.0855
 1023MOL0     H38093   1.749   0.190   1.455  2.5905  0.1420 -0.2602
 1023MOL0     H38094   1.955   0.144   1.409  0.8688 -0.1630 -0.2167
 1023MOL0     H38095   2.217  -0.167   1.448 -0.5487  0.4041  0.7127
 1023MOL0     H38096   2.059  -0.104   1.375 -0.3786  2.6345 -0.8781
 1023MOL0     H38097   2.274   0.096   1.410  0.0944 -0.3659 -0.1182
 1023MOL0     H38098   2.171   0.056   1.274 -1.2719 -2.3303 -1.9397
 1023MOL0     H38099   2.300  -0.084   1.163  0.2391  1.3985 -0.7268
 1023MOL0     H38100   2.367  -0.156   1.299 -4.2325 -0.2268  3.6193
 1023MOL0     H38101   2.411   0.120   1.185 -1.9556 -1.0897 -0.3648
 1023MOL0     H38102   2.522  -0.020   1.150 -0.1627  0.8505 -0.3987
 1023MOL0     H38103   2.664   0.037   1.542 -1.3967  2.7209  0.7055
 1023MOL0     H38104   1.981  -0.088   1.776  1.1346  1.5786 -0.0175
 1023MOL0     H38105   1.770   0.002   1.847  4.4040  1.0952  1.2159
 1024MOL0     O38106   1.702   4.386   0.482 -0.1197 -0.1507  0.4127
 1024MOL0     C38107   1.601   4.448   0.495  1.0913 -0.1015  0.1255
 1024MOL0     O38108   1.564   4.563   0.437 -0.3391  0.0101 -0.9000
 1024MOL0     C38109   1.658   4.647   0.381  0.4679  0.7525 -0.3605
 1024MOL0     C38110   1.773   4.696   0.445  0.5344 -0.5913  0.6861
 1024MOL0     C38111   1.861   4.781   0.375  0.2222 -0.1645  0.2481
 1024MOL0     C38112   1.838   4.821   0.245  0.0752 -0.0370 -0.1320
 1024MOL0     O38113   1.924   4.908   0.188  0.0619 -0.4723  0.3364
 1024MOL0     C38114   1.959   4.904   0.054 -0.6838  0.3556 -0.1203
 1024MOL0     C38115   2.081   4.812   0.018  0.6078 -0.8563 -0.3973
 1024MOL0     C38116   2.199   4.842   0.115  0.9146 -0.1137  0.1448
 1024MOL0     C38117   2.319   4.742   0.093 -0.1183 -0.8973  0.6899
 1024MOL0     C38118   2.431   4.725   0.195 -0.0804 -0.7675 -0.1335
 1024MOL0     C38119   2.397   4.736   0.344 -0.1958  0.4569 -1.3689
 1024MOL0     C38120   2.300   4.632   0.390  0.3726 -0.4132  0.4118
 1024MOL0     C38121   2.322   4.589   0.540  0.2342 -0.2158 -0.0632
 1024MOL0     N38122   2.433   4.493   0.584  1.2528 -0.4001 -0.2519
 1024MOL0     C38123   2.527   4.434   0.509 -0.3600 -0.8325  0.5272
 1024MOL0     C38124   2.616   4.387   0.603 -0.6047 -0.7244 -0.2411
 1024MOL0     C38125   2.744   4.316   0.558  0.0154 -0.2582 -0.0144
 1024MOL0     C38126   2.722   4.208   0.451  0.3980 -0.6210  0.3889
 1024MOL0     C38127   2.740   4.258   0.308  0.2592 -0.3858  0.6625
 1024MOL0     C38128   2.705   4.153   0.207  0.2612 -0.3802 -0.1725
 1024MOL0     O38129   2.712   4.207   0.073 -0.6908 -0.1914 -0.0102
 1024MOL0     C38130   2.584   4.242   0.026  0.0942 -1.8448  0.1916
 1024MOL0     C38131   2.474   4.147   0.021  0.9947 -0.7674 -0.0906
 1024MOL0     C38132   2.343   4.185  -0.016 -0.2813  0.5211 -0.1097
 1024MOL0     C38133   2.249   4.059  -0.038  0.3314 -0.0583 -0.6337
 1024MOL0     C38134   2.316   4.319  -0.039 -0.5027  0.1739  0.1822
 1024MOL0     C38135   2.183   4.364  -0.077 -0.0739  0.0802  0.5670
 1024MOL0     O38136   2.070   4.296  -0.049 -0.7639 -0.0930 -0.1982
 1024MOL0     C38137   1.960   4.367  -0.063 -0.0060  0.4247 -0.6700
 1024MOL0     C38138   1.907   4.424  -0.184  0.7607  0.1866 -0.1855
 1024MOL0     C38139   1.776   4.483  -0.182 -0.0455 -0.5284 -0.2230
 1024MOL0     C38140   1.704   4.489  -0.064  0.7920 -0.3712 -0.4561
 1024MOL0     O38141   1.576   4.523  -0.062 -0.3219  0.0658 -0.9115
 1024MOL0     C38142   1.530   4.645  -0.120 -0.4039 -0.3251 -0.0139
 1024MOL0     C38143   1.402   4.625  -0.194  0.0551 -0.7484 -0.8639
 1024MOL0     C38144   1.408   4.515  -0.306  0.0401  0.1902 -0.5047
 1024MOL0     C38145   1.491   4.570  -0.433 -0.0356 -0.1523 -0.0194
 1024MOL0     C38146   1.396   4.578  -0.555 -0.3835 -0.1252  0.7871
 1024MOL0     C38147   1.443   4.663  -0.674 -0.5948 -0.1637  0.5059
 1024MOL0     C38148   1.342   4.640  -0.784 -0.0869  0.5869  0.0525
 1024MOL0     C38149   1.417   4.626  -0.914  0.2501  1.1539  0.1862
 1024MOL0    Cl38150   1.326   4.561  -1.051  0.3649  0.1733 -0.5006
 1024MOL0     C38151   1.757   4.429   0.048 -0.2520 -0.3654  0.1343
 1024MOL0     C38152   1.883   4.368   0.052  1.0335 -0.3580 -0.6768
 1024MOL0     O38153   2.186   4.470  -0.146  0.0626  0.4652  0.1495
 1024MOL0     C38154   2.429   4.411  -0.045  0.1192 -0.2750  0.0570
 1024MOL0     C38155   2.566   4.369  -0.027  1.5184  1.1087  0.4866
 1024MOL0     N38156   2.563   4.415   0.730 -0.4461  0.0011 -0.8263
 1024MOL0     N38157   2.446   4.458   0.716  0.2151  0.1403 -1.3774
 1024MOL0     C38158   1.725   4.772   0.185 -0.3264  0.7003  0.1938
 1024MOL0     C38159   1.633   4.689   0.246 -0.1819  0.6164 -0.4298
 1024MOL0     C38160   1.504   4.399   0.599  0.5838  0.2327 -1.3135
 1024MOL0     C38161   1.465   4.472   0.712 -0.7972 -0.7228  0.1321
 1024MOL0     C38162   1.400   4.416   0.825 -0.7225 -0.4452  0.5191
 1024MOL0     C38163   1.381   4.279   0.828 -0.2779 -0.9167 -0.2038
 1024MOL0     O38164   1.326   4.235   0.946  0.4746  0.0604 -0.2990
 1024MOL0     C38165   1.284   4.102   0.970  0.1927  0.3061 -0.7937
 1024MOL0     C38166   1.179   4.109   1.089  0.4438 -1.0458 -0.2495
 1024MOL0     C38167   1.057   4.207   1.072  0.8802 -0.1597  0.4774
 1024MOL0     C38168   1.082   4.354   1.049  1.6541 -0.9417 -0.7672
 1024MOL0     C38169   0.958   4.431   1.074  0.2830 -0.4966 -0.2598
 1024MOL0     C38170   0.867   4.508   1.088  0.4919  0.6010 -0.0202
 1024MOL0     C38171   1.425   4.203   0.724  0.6191 -0.3533  0.2530
 1024MOL0     C38172   1.478   4.255   0.606 -0.5641 -0.6144  0.4110
 1024MOL0     H38173   1.808   4.661   0.542 -3.7946  0.6485  2.9232
 1024MOL0     H38174   1.955   4.813   0.418 -0.0538  1.8352 -0.5380
 1024MOL0     H38175   1.878   4.869  -0.011  0.4491 -0.5850 -1.0784
 1024MOL0     H38176   1.977   5.007   0.023 -4.1189  1.6242  1.6593
 1024MOL0     H38177   2.048   4.708   0.024 -0.7979 -0.5991 -2.8352
 1024MOL0     H38178   2.105   4.833  -0.086  0.3991 -0.7482 -0.4232
 1024MOL0     H38179   2.238   4.944   0.116  0.6926 -0.0245 -0.1860
 1024MOL0     H38180   2.160   4.814   0.214  3.5485 -0.6363  1.1169
 1024MOL0     H38181   2.279   4.640   0.085  2.0588 -1.6969 -0.9142
 1024MOL0     H38182   2.367   4.783   0.004 -3.0450  1.5760  0.0701
 1024MOL0     H38183   2.484   4.632   0.171 -0.1178 -0.3960 -1.7845
 1024MOL0     H38184   2.503   4.804   0.168 -1.7219  0.4437 -1.1485
 1024MOL0     H38185   2.492   4.715   0.395  1.0966 -2.8478 -4.6905
 1024MOL0     H38186   2.340   4.826   0.369  0.4579 -0.3172  4.0265
 1024MOL0     H38187   2.196   4.657   0.370 -0.4492 -1.5144  2.9733
 1024MOL0     H38188   2.312   4.536   0.339 -2.6138  0.3782 -2.1267
 1024MOL0     H38189   2.236   4.523   0.557  1.7685 -1.9749  1.3290
 1024MOL0     H38190   2.310   4.672   0.610 -2.5268 -1.2349  0.8077
 1024MOL0     H38191   2.535   4.449   0.402  2.3942  3.1274  1.0690
 1024MOL0     H38192   2.820   4.391   0.530 -0.1817 -0.6814 -1.8061
 1024MOL0     H38193   2.782   4.267   0.648 -1.5431 -1.8686 -0.1840
 1024MOL0     H38194   2.623   4.161   0.448  0.8553 -1.5557 -0.6196
 1024MOL0     H38195   2.793   4.128   0.473  0.8653 -0.5716 -0.8840
 1024MOL0     H38196   2.837   4.306   0.295  0.0778 -0.8003 -4.0158
 1024MOL0     H38197   2.679   4.344   0.279 -0.1787 -1.3333 -1.4118
 1024MOL0     H38198   2.610   4.111   0.241 -0.3584  1.1988  0.0962
 1024MOL0     H38199   2.768   4.063   0.209  0.8144  0.0061  0.3467
 1024MOL0     H38200   2.489   4.043   0.051 -1.4371 -1.4788 -1.0909
 1024MOL0     H38201   2.176   4.082  -0.117 -0.2334  5.4881  1.0328
 1024MOL0     H38202   2.296   3.962  -0.054 -0.1164  0.0390 -2.9494
 1024MOL0     H38203   2.181   4.053   0.048  1.4499  3.4065  0.6715
 1024MOL0     H38204   1.966   4.438  -0.274 -1.8281 -1.2825 -2.2358
 1024MOL0     H38205   1.716   4.498  -0.271  3.3744  1.1293 -2.4531
 1024MOL0     H38206   1.517   4.712  -0.035 -0.1152  0.1468 -0.3380
 1024MOL0     H38207   1.613   4.679  -0.183 -0.0437 -0.9603  0.1090
 1024MOL0     H38208   1.334   4.605  -0.111  2.6054  0.4824  1.6982
 1024MOL0     H38209   1.371   4.719  -0.240  1.0777  0.6067  1.0686
 1024MOL0     H38210   1.305   4.504  -0.340 -0.5543  0.2881  1.1579
 1024MOL0     H38211   1.446   4.423  -0.261 -3.5340  0.2367  3.0937
 1024MOL0     H38212   1.533   4.671  -0.425  3.8828 -1.1751 -3.6507
 1024MOL0     H38213   1.584   4.515  -0.447  1.8234  2.3359  1.5897
 1024MOL0     H38214   1.304   4.628  -0.525 -0.1770  0.4047  0.5419
 1024MOL0     H38215   1.367   4.479  -0.591 -1.1579  1.2078 -2.6555
 1024MOL0     H38216   1.459   4.768  -0.647  2.4988 -0.3019 -0.3611
 1024MOL0     H38217   1.544   4.635  -0.707 -1.1912 -2.9716  0.8755
 1024MOL0     H38218   1.277   4.728  -0.795 -3.4984 -2.0039 -2.7271
 1024MOL0     H38219   1.272   4.558  -0.771  0.6474 -0.3527 -1.5881
 1024MOL0     H38220   1.504   4.561  -0.904  0.6683  1.0235 -3.1701
 1024MOL0     H38221   1.449   4.728  -0.941 -0.6967  1.9825  2.0422
 1024MOL0     H38222   1.689   4.433   0.132 -0.9811 -0.6517 -0.4422
 1024MOL0     H38223   1.913   4.310   0.138 -3.3713 -0.8739  0.7411
 1024MOL0     H38224   2.405   4.515  -0.063 -1.1795 -0.8143 -1.5426
 1024MOL0     H38225   2.647   4.440  -0.010  2.4696 -0.2911  2.1810
 1024MOL0     H38226   1.706   4.808   0.084 -0.8831 -0.4374 -0.1201
 1024MOL0     H38227   1.545   4.660   0.189  0.4980 -1.7295 -0.3952
 1024MOL0     H38228   1.514   4.569   0.718  0.4474 -1.3923  1.4351
 1024MOL0     H38229   1.380   4.466   0.919 -1.7778  0.3069 -0.0806
 1024MOL0     H38230   1.231   4.070   0.879  0.4696  0.1679 -0.9073
 1024MOL0     H38231   1.371   4.038   0.986  0.7300  0.3821 -3.0851
 1024MOL0     H38232   1.240   4.141   1.174  0.9711  0.2075 -1.0736
 1024MOL0     H38233   1.149   4.006   1.112 -0.7582 -0.1099  2.7920
 1024MOL0     H38234   1.011   4.178   1.167 -0.5850 -0.7049 -0.3628
 1024MOL0     H38235   0.977   4.184   1.000 -3.5928  2.4927  4.0598
 1024MOL0     H38236   1.112   4.378   0.947  2.7060  3.1083  0.2923
 1024MOL0     H38237   1.156   4.400   1.116 -2.1253 -0.5153  3.6525
 1024MOL0     H38238   0.785   4.575   1.101  2.1946  2.4797  1.8119
 1024MOL0     H38239   1.395   4.100   0.735 -1.1569 -0.1964 -2.2364
 1024MOL0     H38240   1.513   4.184   0.531  0.2229  0.0722  0.1207
  11.55081  11.55081  11.55081
